Title
82275
    1SAPS     N    1   5.916   4.088  11.024  0.0290  0.4626 -0.3746
    1SAPS   HN1    2   5.838   4.152  10.997  0.0060  0.8459  0.5489
    1SAPS   HN2    3   5.993   4.152  11.054  1.8918 -0.9899 -1.7892
    1SAPS   HN3    4   5.958   4.041  10.942 -0.2421 -1.1235  0.3600
    1SAPS   C12    5   5.880   3.995  11.131 -0.3264  0.6196 -0.1054
    1SAPS  H12A    6   5.854   4.048  11.221  2.6680  2.6856 -0.3196
    1SAPS   C13    7   5.760   3.894  11.095 -0.7952  0.1543 -0.0558
    1SAPS  O13A    8   5.704   3.902  10.985  0.5146 -0.4377  0.1686
    1SAPS  O13B    9   5.742   3.795  11.168  0.3929 -0.2942  0.1410
    1SAPS   C11   10   6.009   3.917  11.167  0.2032 -0.2734  0.1121
    1SAPS  H11A   11   5.988   3.858  11.259 -0.5041 -0.2018  0.0033
    1SAPS  H11B   12   6.089   3.984  11.205  2.5914 -1.8864 -1.7608
    1SAPS     P   13   6.145   3.718  11.072 -0.2351  0.0092  0.0875
    1SAPS   O13   14   6.281   3.771  11.091  0.2660  0.2277 -0.3107
    1SAPS   O14   15   6.095   3.632  11.185 -0.1551 -0.5567  0.0940
    1SAPS   O12   16   6.057   3.841  11.052  0.1444 -0.1458 -0.5695
    1SAPS   O11   17   6.138   3.637  10.934 -0.0721  0.3652 -1.0184
    1SAPS    C1   18   6.022   3.636  10.852  0.0874 -0.0329  0.1473
    1SAPS    HA   19   5.974   3.536  10.857 -1.1748  0.4414 -1.5194
    1SAPS    HB   20   5.941   3.711  10.869 -0.9685 -0.9674 -0.6355
    1SAPS    C2   21   6.069   3.619  10.703  0.3753  0.2720 -0.0211
    1SAPS    HS   22   6.150   3.543  10.703 -1.0910 -1.3585 -0.9542
    1SAPS   O21   23   6.124   3.751  10.659  0.4986  0.5629  0.1608
    1SAPS   C21   24   6.221   3.737  10.574 -0.0240  0.1478  0.0468
    1SAPS   O22   25   6.285   3.635  10.547  0.0535 -0.0598 -0.1321
    1SAPS   C22   26   6.238   3.867  10.492 -0.3682 -0.0271 -0.0017
    1SAPS   H2R   27   6.136   3.891  10.454  0.5587 -1.8129 -4.3113
    1SAPS   H2S   28   6.275   3.938  10.568  0.5428 -1.0837  0.5620
    1SAPS    C3   29   5.963   3.564  10.605 -0.3279  0.1680  0.5028
    1SAPS    HX   30   5.878   3.635  10.612  0.7587  1.5311  0.2641
    1SAPS    HY   31   5.927   3.470  10.653 -0.8215 -0.6299 -1.3489
    1SAPS   O31   32   6.017   3.555  10.475 -0.5030 -0.3325 -0.1724
    1SAPS   C31   33   5.933   3.508  10.384 -0.1677  0.0958 -0.4141
    1SAPS   O32   34   5.826   3.457  10.408 -0.3960 -0.3408 -0.0941
    1SAPS   C32   35   5.980   3.554  10.248  0.7946  0.1343 -0.4583
    1SAPS   H2X   36   6.033   3.651  10.256 -0.7581  0.9999 -0.3933
    1SAPS   H2Y   37   5.898   3.569  10.175  1.0915 -2.3252 -1.4076
    1SAPS   C23   38   6.338   3.882  10.370 -0.4539  0.0564 -0.0612
    1SAPS   H3R   39   6.440   3.852  10.404 -0.8947 -1.0360  0.3251
    1SAPS   H3S   40   6.350   3.986  10.333  0.0302 -0.6826 -2.1611
    1SAPS   C24   41   6.293   3.795  10.248 -0.3667  0.1360  0.2909
    1SAPS   H4R   42   6.287   3.687  10.274  1.4382 -0.0314  0.1137
    1SAPS   H4S   43   6.387   3.802  10.190 -0.9472 -1.3697 -0.8967
    1SAPS   C25   44   6.170   3.863  10.186  1.1260  0.2405  0.5527
    1SAPS   H5R   45   6.079   3.873  10.247  0.1714 -0.9745 -0.6055
    1SAPS   C26   46   6.169   3.914  10.058 -0.8440  0.3064 -0.1995
    1SAPS   H6R   47   6.068   3.949  10.030 -0.9088  0.5639  0.3471
    1SAPS   C27   48   6.285   3.913   9.959  0.1521  0.5394  0.4989
    1SAPS   H7R   49   6.383   3.895  10.009  0.7806 -0.3104 -0.9708
    1SAPS   H7S   50   6.297   4.018   9.926  2.4250 -0.0769 -0.8055
    1SAPS   C28   51   6.279   3.817   9.844  0.3313  0.2578 -0.1142
    1SAPS   H8R   52   6.257   3.712   9.867 -0.5324  0.7694  1.4965
    1SAPS   C29   53   6.287   3.849   9.711 -0.9389  0.1460 -1.0045
    1SAPS   H9R   54   6.299   3.766   9.639  3.0237  1.7230 -2.4612
    1SAPS  C210   55   6.308   3.986   9.661  0.1201 -0.4784 -0.8935
    1SAPS  H10R   56   6.413   3.990   9.626  0.3460 -0.9687 -0.2808
    1SAPS  H10S   57   6.299   4.066   9.737 -0.2140 -1.0303 -0.3468
    1SAPS  C211   58   6.232   4.004   9.534 -0.5873 -0.7345  0.3452
    1SAPS  H11R   59   6.131   4.041   9.559  0.9983  3.0837  1.9855
    1SAPS  C212   60   6.277   4.003   9.408 -0.5546  1.0926  0.9347
    1SAPS  H12R   61   6.200   3.996   9.331 -0.1641 -1.4070  0.6634
    1SAPS  C213   62   6.412   3.959   9.354 -0.4488 -0.5849  0.5858
    1SAPS  H13R   63   6.385   3.872   9.290 -0.1746 -0.5118  0.3666
    1SAPS  H13S   64   6.483   3.930   9.435 -0.0138 -0.1956  0.3531
    1SAPS  C214   65   6.473   4.075   9.271  0.5169 -0.8634 -0.0261
    1SAPS  H14R   66   6.477   4.171   9.325 -0.0725  0.4369 -2.1499
    1SAPS  C215   67   6.508   4.079   9.141  0.2385  0.8679 -0.8611
    1SAPS  H15R   68   6.530   4.176   9.092  2.0182  0.2272 -1.4260
    1SAPS  C216   69   6.510   3.968   9.043  0.7531  0.4034 -0.3025
    1SAPS  H16R   70   6.464   3.874   9.079 -2.5496  2.1888  0.6058
    1SAPS  H16S   71   6.612   3.945   9.004  0.4942  2.2837 -2.2965
    1SAPS  C217   72   6.451   4.030   8.911  0.6315 -0.2291 -0.6658
    1SAPS  H17R   73   6.464   3.952   8.833  2.6061 -0.6719  0.0559
    1SAPS  H17S   74   6.502   4.126   8.886  0.5451  0.8319  2.7002
    1SAPS  C218   75   6.303   4.071   8.914 -0.4328  0.0353  0.1039
    1SAPS  H18R   76   6.279   4.161   8.976 -0.9749 -0.6927  0.9796
    1SAPS  H18S   77   6.236   3.992   8.956 -0.0206  0.6026  1.9491
    1SAPS  C219   78   6.261   4.101   8.770 -0.2220  0.2860 -0.0418
    1SAPS  H19R   79   6.296   4.017   8.706 -0.3257  1.5793 -1.8769
    1SAPS  H19S   80   6.316   4.192   8.739 -0.6396  0.6555  0.2813
    1SAPS  C220   81   6.112   4.121   8.765 -0.2279  0.3737 -0.3186
    1SAPS  H20R   82   6.072   4.027   8.807  1.4639  0.7389  2.3505
    1SAPS  H20S   83   6.085   4.131   8.657  0.5048 -1.3262 -0.6818
    1SAPS  H20T   84   6.076   4.207   8.825 -1.0166  0.1727 -0.4990
    1SAPS   C33   85   6.056   3.448  10.171 -0.4945 -0.4849  0.7712
    1SAPS   H3X   86   6.005   3.350  10.162 -0.0606 -0.5534 -1.4348
    1SAPS   H3Y   87   6.159   3.450  10.213 -0.1674 -0.4817 -0.0130
    1SAPS   C34   88   6.086   3.481  10.017  0.0984  0.0090 -1.1933
    1SAPS   H4X   89   6.184   3.430  10.001  0.0938  0.1393 -1.6607
    1SAPS   H4Y   90   6.088   3.591  10.001 -2.8236  0.3621  0.2839
    1SAPS   C35   91   5.982   3.421   9.918 -0.5928 -0.1383 -0.7675
    1SAPS   H5X   92   5.882   3.453   9.954 -0.3714  0.7028 -0.8737
    1SAPS   H5Y   93   5.983   3.311   9.930  0.6989  0.1819  3.6217
    1SAPS   C36   94   6.009   3.472   9.772  0.5364  0.5263 -0.3344
    1SAPS   H6X   95   6.118   3.493   9.760  1.0918 -1.6178  0.5549
    1SAPS   H6Y   96   5.947   3.562   9.751 -0.8541 -0.4770 -0.6854
    1SAPS   C37   97   5.962   3.365   9.668  0.0760  0.4403 -0.7554
    1SAPS   H7X   98   5.862   3.325   9.693  0.6173 -1.6031 -1.7093
    1SAPS   H7Y   99   6.027   3.275   9.671  0.0754  0.4215 -1.2005
    1SAPS   C38  100   5.955   3.434   9.534 -0.4454  0.1922  0.4504
    1SAPS   H8X  101   6.041   3.503   9.521  0.6692 -1.4033 -1.1538
    1SAPS   H8Y  102   5.861   3.494   9.532 -0.3275  0.3654 -0.0224
    1SAPS   C39  103   5.964   3.330   9.425  0.8893  0.3744 -0.3733
    1SAPS   H9X  104   5.877   3.262   9.436  0.1014  0.9476 -2.5651
    1SAPS   H9Y  105   6.059   3.275   9.446  0.3258 -1.0368 -1.3063
    1SAPS  C310  106   5.954   3.376   9.276 -0.7393 -0.3159 -0.2956
    1SAPS  H10X  107   5.977   3.287   9.213 -1.7347 -1.1364  0.4586
    1SAPS  H10Y  108   6.041   3.444   9.262  0.4054 -1.7320 -0.2595
    1SAPS  C311  109   5.830   3.447   9.235 -0.2889 -0.4385 -0.0454
    1SAPS  H11X  110   5.818   3.541   9.294  0.6174  0.1701 -0.8075
    1SAPS  H11Y  111   5.738   3.389   9.259 -1.3091  1.7345  1.6720
    1SAPS  C312  112   5.820   3.470   9.084  0.0824 -0.1329 -0.1633
    1SAPS  H12X  113   5.725   3.518   9.053 -0.2287  0.0769  1.0489
    1SAPS  H12Y  114   5.827   3.370   9.037 -0.2700 -0.1611 -0.1550
    1SAPS  C313  115   5.932   3.558   9.027 -0.3490  0.0728 -0.0468
    1SAPS  H13X  116   6.023   3.494   9.029 -0.0260  0.4989 -0.5475
    1SAPS  H13Y  117   5.939   3.636   9.106  0.8801 -2.0945  2.0956
    1SAPS  C314  118   5.900   3.622   8.892 -0.8838 -0.6336 -0.5263
    1SAPS  H14X  119   5.995   3.640   8.838 -0.7499 -0.4105 -0.2172
    1SAPS  H14Y  120   5.850   3.721   8.898 -0.1941 -0.0563 -3.0045
    1SAPS  C315  121   5.811   3.534   8.804  0.3532  0.4513  0.0772
    1SAPS  H15X  122   5.708   3.516   8.843 -0.4038  0.6125 -1.7451
    1SAPS  H15Y  123   5.856   3.432   8.808 -0.3610  0.1671  1.7518
    1SAPS  C316  124   5.779   3.584   8.665  0.4169  0.3102  0.1840
    1SAPS  H16X  125   5.877   3.578   8.613 -0.5953 -3.6980 -1.6580
    1SAPS  H16Y  126   5.738   3.686   8.674 -0.6554 -0.1826  1.2432
    1SAPS  C317  127   5.672   3.504   8.597  0.2223  0.7492  0.2899
    1SAPS  H17X  128   5.570   3.534   8.631  0.4697 -0.3070  2.1024
    1SAPS  H17Y  129   5.689   3.398   8.626 -0.5748  0.2790 -0.8714
    1SAPS  C318  130   5.681   3.520   8.444 -0.5428  0.0750 -0.6992
    1SAPS  H18X  131   5.777   3.471   8.418 -0.1422 -1.5959  3.2890
    1SAPS  H18Y  132   5.682   3.628   8.415 -1.5956 -0.4681 -2.9689
    1SAPS  H18Z  133   5.604   3.465   8.385 -0.7175  0.6101 -0.9810
    2SAPS     N  134   4.150   2.146  10.959 -0.4170  0.5118  0.0566
    2SAPS   HN1  135   4.147   2.135  11.063 -1.9548 -1.5803 -0.1315
    2SAPS   HN2  136   4.094   2.071  10.914  0.1265  0.4506 -0.5298
    2SAPS   HN3  137   4.242   2.119  10.918  0.2715  1.5601  0.8546
    2SAPS   C12  138   4.098   2.289  10.930  0.1745  0.0647  0.0734
    2SAPS  H12A  139   3.994   2.267  10.912 -0.5056  1.6416  1.7977
    2SAPS   C13  140   4.106   2.389  11.045  0.2127  0.4664 -0.7046
    2SAPS  O13A  141   4.125   2.352  11.162 -0.4539  0.3018 -0.1771
    2SAPS  O13B  142   4.062   2.504  11.020 -0.1672  0.2595  0.1207
    2SAPS   C11  143   4.168   2.330  10.794  0.2016  0.2453 -0.5598
    2SAPS  H11A  144   4.278   2.336  10.811 -0.1712 -0.2286  2.5524
    2SAPS  H11B  145   4.134   2.435  10.778 -2.1231  0.1254  2.5604
    2SAPS     P  146   4.066   2.270  10.562 -0.0895 -0.5015 -0.1517
    2SAPS   O13  147   4.069   2.150  10.478  0.3822 -0.0471  0.2184
    2SAPS   O14  148   3.933   2.317  10.601  0.4299  0.2086  0.2521
    2SAPS   O12  149   4.133   2.234  10.693  0.5131  0.1312  0.2713
    2SAPS   O11  150   4.148   2.381  10.489 -0.1104 -0.0472 -0.7803
    2SAPS    C1  151   4.127   2.406  10.351 -0.0015  0.0753 -0.4998
    2SAPS    HA  152   4.222   2.446  10.310  1.1039 -0.8902  1.0125
    2SAPS    HB  153   4.108   2.312  10.294  2.3484 -1.0309  0.4400
    2SAPS    C2  154   4.013   2.509  10.331 -0.4206  0.1036  0.1377
    2SAPS    HS  155   3.923   2.485  10.391 -0.6468 -0.0162 -0.2407
    2SAPS   O21  156   3.982   2.515  10.187  0.0485 -0.8591  0.6987
    2SAPS   C21  157   3.910   2.416  10.146 -0.6235 -0.1408 -0.4415
    2SAPS   O22  158   3.868   2.324  10.209  0.3005 -0.5048  0.2445
    2SAPS   C22  159   3.892   2.447   9.996 -0.3281  0.0647  0.0477
    2SAPS   H2R  160   3.817   2.377   9.954 -0.9444  0.2432  0.8298
    2SAPS   H2S  161   3.846   2.548   9.993  1.0802  0.7223 -1.8954
    2SAPS    C3  162   4.054   2.645  10.394 -0.1330 -0.0421 -0.2969
    2SAPS    HX  163   4.071   2.624  10.502  0.9537  2.4102  0.0852
    2SAPS    HY  164   3.975   2.722  10.380 -1.0393 -0.6977  1.0941
    2SAPS   O31  165   4.193   2.683  10.361  0.4904  0.4861 -0.3641
    2SAPS   C31  166   4.206   2.764  10.259  0.5631  1.0888 -0.0871
    2SAPS   O32  167   4.115   2.795  10.184 -0.0191 -0.0036  0.3222
    2SAPS   C32  168   4.351   2.799  10.244  0.3228  0.3603  0.0410
    2SAPS   H2X  169   4.412   2.706  10.250  1.2426  0.9073 -0.5821
    2SAPS   H2Y  170   4.374   2.858  10.336  0.5202  0.7930 -0.2857
    2SAPS   C23  171   4.032   2.448   9.920 -0.5385 -0.6576 -0.2360
    2SAPS   H3R  172   4.101   2.523   9.965 -1.4169  1.5609 -2.3399
    2SAPS   H3S  173   4.021   2.483   9.815 -0.1094  0.4313  0.0702
    2SAPS   C24  174   4.102   2.310   9.907  0.0006 -0.1920 -0.1668
    2SAPS   H4R  175   4.136   2.257   9.999  0.2347 -0.0939 -0.1970
    2SAPS   H4S  176   4.198   2.323   9.853  0.8082 -2.4471  0.5968
    2SAPS   C25  177   4.026   2.211   9.827  0.7989  0.1470  0.4560
    2SAPS   H5R  178   3.948   2.160   9.885  0.5773  1.1992  1.1231
    2SAPS   C26  179   4.034   2.189   9.694  0.6266 -1.0994  0.7530
    2SAPS   H6R  180   3.981   2.105   9.646 -1.5355  1.6135 -2.0054
    2SAPS   C27  181   4.129   2.259   9.606  0.1249  0.0034 -0.2723
    2SAPS   H7R  182   4.184   2.178   9.553  1.4495  0.0045  1.0143
    2SAPS   H7S  183   4.220   2.299   9.657  1.0400 -2.2945  0.0388
    2SAPS   C28  184   4.064   2.375   9.530 -0.3915 -0.1553 -0.2043
    2SAPS   H8R  185   4.032   2.460   9.592  1.1642 -1.2860  2.3223
    2SAPS   C29  186   4.047   2.375   9.399  0.9879 -0.3932  0.1900
    2SAPS   H9R  187   4.007   2.468   9.357 -1.5069 -0.9155  1.2648
    2SAPS  C210  188   4.083   2.266   9.305  0.6976  0.7413 -0.2535
    2SAPS  H10R  189   4.159   2.190   9.334  0.2021  0.6061  0.6921
    2SAPS  H10S  190   4.142   2.303   9.217  2.4479  0.3491  0.7026
    2SAPS  C211  191   3.967   2.176   9.267 -0.3492 -1.1362 -0.4024
    2SAPS  H11R  192   3.916   2.122   9.347  1.5567  0.2424  1.8616
    2SAPS  C212  193   3.912   2.179   9.150  0.2162 -0.4221 -0.7120
    2SAPS  H12R  194   3.827   2.112   9.129  0.2313 -0.4831 -0.5722
    2SAPS  C213  195   3.962   2.253   9.027 -0.0785 -0.0872  0.6640
    2SAPS  H13R  196   4.056   2.205   8.993 -0.1839  0.0605  0.1626
    2SAPS  H13S  197   3.974   2.363   9.043 -2.2165  0.4464 -0.8614
    2SAPS  C214  198   3.867   2.227   8.912  0.1667 -0.0069 -0.1676
    2SAPS  H14R  199   3.801   2.139   8.922  0.8985 -0.6754 -1.0388
    2SAPS  C215  200   3.859   2.306   8.801 -0.0645 -0.1368 -0.5271
    2SAPS  H15R  201   3.806   2.263   8.714  0.8434  1.0915 -1.7454
    2SAPS  C216  202   3.938   2.431   8.765  0.3908  0.2153  0.3862
    2SAPS  H16R  203   3.997   2.464   8.853 -1.3211 -0.6798  1.9513
    2SAPS  H16S  204   3.875   2.521   8.749  2.1654  1.1165 -1.9914
    2SAPS  C217  205   4.013   2.421   8.628  0.3822  0.1264  0.0373
    2SAPS  H17R  206   3.935   2.409   8.550 -0.0829  2.1257  0.1460
    2SAPS  H17S  207   4.079   2.331   8.632 -0.6230 -0.5833  1.5396
    2SAPS  C218  208   4.099   2.550   8.612 -0.1673 -0.2036 -0.1679
    2SAPS  H18R  209   4.147   2.574   8.709 -0.9079  2.3576 -0.3606
    2SAPS  H18S  210   4.035   2.636   8.583  0.6548  0.2779 -0.6098
    2SAPS  C219  211   4.210   2.527   8.510  0.4639 -0.7033  0.1063
    2SAPS  H19R  212   4.169   2.533   8.407  1.3031 -0.3139 -0.2140
    2SAPS  H19S  213   4.249   2.426   8.534  2.2483  0.3259  1.8821
    2SAPS  C220  214   4.330   2.626   8.530  0.5796  0.4340 -0.0674
    2SAPS  H20R  215   4.303   2.732   8.510 -0.9111  0.4715  1.8407
    2SAPS  H20S  216   4.413   2.589   8.465 -1.1644  0.4405 -2.4398
    2SAPS  H20T  217   4.359   2.620   8.637  0.2029  0.9324  0.0673
    2SAPS   C33  218   4.379   2.869  10.111 -0.5836 -0.1242  0.2978
    2SAPS   H3X  219   4.322   2.963  10.097 -1.7311 -0.5487  1.8691
    2SAPS   H3Y  220   4.347   2.805  10.026 -0.6472  0.2972  0.0011
    2SAPS   C34  221   4.533   2.893  10.092  0.1701  0.3239 -0.4466
    2SAPS   H4X  222   4.582   2.794  10.082  2.6416  1.3860  0.4261
    2SAPS   H4Y  223   4.568   2.937  10.188  2.0185 -0.8322 -0.5413
    2SAPS   C35  224   4.572   2.985   9.969 -0.5931 -1.0678 -0.2597
    2SAPS   H5X  225   4.680   3.013   9.979 -1.1960  1.8198 -0.8425
    2SAPS   H5Y  226   4.517   3.081   9.977 -0.0467 -0.9065  2.6004
    2SAPS   C36  227   4.541   2.919   9.832  0.6121  0.4297  0.7910
    2SAPS   H6X  228   4.438   2.878   9.826  1.8264 -2.8934  0.8895
    2SAPS   H6Y  229   4.608   2.831   9.817  1.0281  1.0188 -1.2306
    2SAPS   C37  230   4.578   3.003   9.711  0.3314 -0.5039 -0.0140
    2SAPS   H7X  231   4.686   3.027   9.727 -0.4127  1.9890  2.0293
    2SAPS   H7Y  232   4.533   3.105   9.712  0.7879 -0.2518 -1.6976
    2SAPS   C38  233   4.542   2.943   9.580 -0.3258 -0.0861  0.5114
    2SAPS   H8X  234   4.433   2.963   9.569 -0.4102  1.7816  3.6384
    2SAPS   H8Y  235   4.561   2.833   9.582 -1.9373 -0.4176 -0.5184
    2SAPS   C39  236   4.617   2.998   9.454  0.9117 -0.0376 -0.3245
    2SAPS   H9X  237   4.724   2.969   9.466  0.2863 -3.1370 -1.3257
    2SAPS   H9Y  238   4.599   3.108   9.452 -1.3320 -0.3280  1.1267
    2SAPS  C310  239   4.571   2.944   9.319  0.4495  0.0653 -0.6415
    2SAPS  H10X  240   4.462   2.966   9.312 -0.2526 -3.2249 -1.6432
    2SAPS  H10Y  241   4.577   2.834   9.307  0.1678  0.0257 -0.4248
    2SAPS  C311  242   4.649   3.022   9.201  0.3079 -0.1119 -0.4067
    2SAPS  H11X  243   4.738   2.962   9.173  2.3666  2.3781  0.3671
    2SAPS  H11Y  244   4.708   3.109   9.239  0.8739 -0.3709 -0.6769
    2SAPS  C312  245   4.570   3.048   9.073 -0.3951 -0.0815 -0.2972
    2SAPS  H12X  246   4.617   3.125   9.008  1.7537 -0.8071  0.2952
    2SAPS  H12Y  247   4.478   3.105   9.097  0.7350  1.2732  0.9608
    2SAPS  C313  248   4.536   2.918   8.996  0.1949 -0.0814  0.2821
    2SAPS  H13X  249   4.481   2.939   8.902  1.4908 -0.2224 -0.5274
    2SAPS  H13Y  250   4.487   2.845   9.065  1.5720  0.0125  1.3981
    2SAPS  C314  251   4.665   2.847   8.943  0.1605  0.6208 -0.7334
    2SAPS  H14X  252   4.656   2.757   8.878  1.3934  0.5175 -0.8028
    2SAPS  H14Y  253   4.718   2.811   9.033 -1.8980  1.6307  0.9677
    2SAPS  C315  254   4.763   2.942   8.871 -0.4674  0.2400 -0.3233
    2SAPS  H15X  255   4.861   2.890   8.861  0.4312  1.9473 -0.6713
    2SAPS  H15Y  256   4.787   3.032   8.932 -1.5321  1.0007 -0.9920
    2SAPS  C316  257   4.713   2.988   8.734  0.4739  0.0495  0.4853
    2SAPS  H16X  258   4.625   3.052   8.757  0.5209 -0.1363  1.2196
    2SAPS  H16Y  259   4.670   2.909   8.669  0.7805 -1.0238  1.5500
    2SAPS  C317  260   4.821   3.056   8.655 -0.0933  0.1249  0.3701
    2SAPS  H17X  261   4.916   2.999   8.655  1.2593  2.2316  0.5789
    2SAPS  H17Y  262   4.845   3.153   8.705  2.0053 -0.7240  1.1125
    2SAPS  C318  263   4.777   3.072   8.515  0.0153  0.1666  0.2907
    2SAPS  H18X  264   4.843   3.145   8.464 -1.3240 -0.0262 -1.8258
    2SAPS  H18Y  265   4.674   3.113   8.520  0.6778  1.9132  0.5733
    2SAPS  H18Z  266   4.782   2.971   8.469  0.1522  0.5582 -0.5736
    3SAPS     N  267   5.688   6.138  11.051  0.3542  0.2507  0.0786
    3SAPS   HN1  268   5.605   6.114  10.992 -0.5189 -2.6593  2.2426
    3SAPS   HN2  269   5.759   6.185  10.992 -0.7314 -1.1118 -2.4974
    3SAPS   HN3  270   5.726   6.048  11.086 -0.7026 -0.4601 -0.5454
    3SAPS   C12  271   5.637   6.213  11.170  0.3180 -0.1428 -0.7792
    3SAPS  H12A  272   5.595   6.139  11.236  1.1224 -0.0453 -0.1496
    3SAPS   C13  273   5.737   6.293  11.259 -0.2730  0.0830 -0.5612
    3SAPS  O13A  274   5.853   6.311  11.215  0.8432  0.1790  0.6647
    3SAPS  O13B  275   5.708   6.320  11.373  0.0501 -0.0505 -0.7256
    3SAPS   C11  276   5.520   6.307  11.115 -0.2129  0.0653  0.7087
    3SAPS  H11A  277   5.499   6.384  11.193 -0.6748  0.8523 -0.1764
    3SAPS  H11B  278   5.422   6.255  11.114  0.1093 -0.5792 -0.9101
    3SAPS     P  279   5.476   6.512  10.957  0.1586  0.5125 -0.0351
    3SAPS   O13  280   5.328   6.483  10.964  0.6392  0.0712 -0.3178
    3SAPS   O14  281   5.524   6.613  11.055  0.0376  0.6855  0.6602
    3SAPS   O12  282   5.548   6.372  10.987  0.4368 -0.3354  0.2875
    3SAPS   O11  283   5.526   6.545  10.817 -0.3616 -0.9299  0.2692
    3SAPS    C1  284   5.567   6.436  10.729 -0.4674 -0.4337 -0.3997
    3SAPS    HA  285   5.650   6.461  10.660 -1.0567  0.2591 -0.8720
    3SAPS    HB  286   5.610   6.349  10.783 -1.5023 -0.5848  0.2068
    3SAPS    C2  287   5.445   6.392  10.643 -0.5254  0.6097  0.1548
    3SAPS    HS  288   5.367   6.342  10.704 -0.9232 -2.6772 -2.7569
    3SAPS   O21  289   5.486   6.307  10.537 -0.5591  0.0184 -0.0729
    3SAPS   C21  290   5.430   6.183  10.536  0.2888  0.3533  0.0157
    3SAPS   O22  291   5.340   6.139  10.606 -0.2792  0.3743 -0.2205
    3SAPS   C22  292   5.497   6.104  10.414 -0.9987 -0.3649  0.3413
    3SAPS   H2R  293   5.502   6.168  10.323 -1.4540 -1.6035 -0.5923
    3SAPS   H2S  294   5.600   6.083  10.448 -0.1951  1.4865 -0.7886
    3SAPS    C3  295   5.375   6.513  10.581 -0.0296 -0.3452  0.3061
    3SAPS    HX  296   5.439   6.582  10.522 -0.3432 -0.9189 -0.7389
    3SAPS    HY  297   5.333   6.570  10.666 -1.3910  1.3339 -1.3981
    3SAPS   O31  298   5.271   6.471  10.497  0.2124 -0.2860  0.1338
    3SAPS   C31  299   5.207   6.574  10.436  0.2882  0.4297 -0.5982
    3SAPS   O32  300   5.224   6.692  10.468  0.3246  0.0507 -1.1777
    3SAPS   C32  301   5.106   6.531  10.331  0.6554  0.3449 -0.2785
    3SAPS   H2X  302   5.007   6.516  10.379  2.1025 -0.8338  2.5550
    3SAPS   H2Y  303   5.142   6.435  10.290  3.1127  1.5687 -1.1852
    3SAPS   C23  304   5.441   5.971  10.372  0.8623 -0.3278  0.1211
    3SAPS   H3R  305   5.349   5.947  10.429  1.6427  0.6834  1.8750
    3SAPS   H3S  306   5.514   5.895  10.406  2.5010  2.2974  2.9764
    3SAPS   C24  307   5.418   5.966  10.214  0.2133 -0.2949  0.1415
    3SAPS   H4R  308   5.352   6.053  10.194 -1.8260 -1.6804  0.5565
    3SAPS   H4S  309   5.362   5.877  10.179 -0.9329  0.8807 -1.1339
    3SAPS   C25  310   5.543   5.965  10.136 -0.5581 -0.1666  0.2042
    3SAPS   H5R  311   5.622   5.907  10.186 -1.7370 -0.5487  1.6803
    3SAPS   C26  312   5.564   6.007  10.008  0.0467  0.4043  0.2099
    3SAPS   H6R  313   5.667   5.992   9.972 -0.5505 -2.1580 -0.6626
    3SAPS   C27  314   5.463   6.065   9.909 -0.4057  0.4674 -0.5403
    3SAPS   H7R  315   5.499   6.168   9.888 -2.4206  1.7332  1.6418
    3SAPS   H7S  316   5.366   6.090   9.957 -1.6014  1.2712 -3.1838
    3SAPS   C28  317   5.424   5.975   9.794 -0.3604  0.0906  0.7526
    3SAPS   H8R  318   5.415   5.868   9.816  1.8568 -0.1230  0.8599
    3SAPS   C29  319   5.400   6.013   9.669  0.1454  0.5151  0.1267
    3SAPS   H9R  320   5.360   5.935   9.603 -0.6177  1.0275 -0.0378
    3SAPS  C210  321   5.403   6.148   9.605  0.3023 -0.1490 -0.2374
    3SAPS  H10R  322   5.501   6.156   9.554 -0.2949  2.1683 -1.1331
    3SAPS  H10S  323   5.405   6.230   9.679 -2.3181  0.2493 -0.4908
    3SAPS  C211  324   5.297   6.184   9.507 -0.0906 -0.3208 -0.6528
    3SAPS  H11R  325   5.195   6.184   9.548  1.4161  0.1549  3.5552
    3SAPS  C212  326   5.311   6.193   9.377 -0.3865 -0.5369  0.0469
    3SAPS  H12R  327   5.228   6.235   9.318  1.8343  2.3092 -1.3109
    3SAPS  C213  328   5.443   6.169   9.302 -0.4064 -0.0838  0.1626
    3SAPS  H13R  329   5.461   6.060   9.285  0.8804  0.2544 -0.7544
    3SAPS  H13S  330   5.526   6.214   9.359  0.2255  0.8165 -1.3981
    3SAPS  C214  331   5.446   6.237   9.166  0.2722  0.5216 -1.3417
    3SAPS  H14R  332   5.518   6.319   9.155  2.4217 -1.0921  0.0196
    3SAPS  C215  333   5.355   6.211   9.068 -0.0777  0.7912 -0.2481
    3SAPS  H15R  334   5.371   6.261   8.971  1.9358  1.3874  0.3464
    3SAPS  C216  335   5.244   6.105   9.078 -0.1112 -0.0466  0.5260
    3SAPS  H16R  336   5.146   6.153   9.100  0.2283 -0.3118  2.9425
    3SAPS  H16S  337   5.260   6.022   9.150 -1.8034 -0.2660  0.6918
    3SAPS  C217  338   5.221   6.066   8.933 -0.8141 -0.6880 -0.2028
    3SAPS  H17R  339   5.317   6.021   8.901 -0.7253 -2.3606  2.1791
    3SAPS  H17S  340   5.205   6.157   8.871 -0.9571 -0.2105  0.5124
    3SAPS  C218  341   5.121   5.954   8.907 -0.0509 -0.1543  0.3617
    3SAPS  H18R  342   5.026   5.974   8.959  0.4649  0.0269  1.2469
    3SAPS  H18S  343   5.173   5.862   8.941 -0.3452 -0.7439 -0.7364
    3SAPS  C219  344   5.088   5.936   8.758  0.9735 -0.5619  0.6080
    3SAPS  H19R  345   5.072   5.832   8.721  0.0849 -0.3558  0.3976
    3SAPS  H19S  346   5.175   5.975   8.701  0.1051 -0.5105 -0.7292
    3SAPS  C220  347   4.964   6.011   8.705  0.2764 -0.3799 -0.0652
    3SAPS  H20R  348   4.955   6.103   8.767 -2.6282 -1.0342  0.6147
    3SAPS  H20S  349   4.871   5.951   8.717  0.8349 -1.5287 -1.2558
    3SAPS  H20T  350   4.966   6.043   8.599 -1.9136  0.5733  0.1305
    3SAPS   C33  351   5.073   6.641  10.224 -0.7832 -0.0893  0.0998
    3SAPS   H3X  352   5.170   6.688  10.194 -0.2675  0.8837  2.9996
    3SAPS   H3Y  353   5.011   6.719  10.272  1.7986  0.7556  2.3198
    3SAPS   C34  354   5.024   6.581  10.091 -0.9296  0.0785  0.2254
    3SAPS   H4X  355   4.926   6.530  10.105 -0.1371 -1.3900  0.6099
    3SAPS   H4Y  356   5.096   6.503  10.060  1.9568  1.7043  2.3634
    3SAPS   C35  357   5.019   6.682   9.982 -0.0626 -0.5146 -0.5914
    3SAPS   H5X  358   5.115   6.735   9.963 -0.5324  1.7133  2.5813
    3SAPS   H5Y  359   4.938   6.757   9.991  0.6752  0.4850 -1.9294
    3SAPS   C36  360   5.003   6.624   9.844  0.1061 -0.1066  0.3860
    3SAPS   H6X  361   4.912   6.560   9.834  0.4184 -0.4468 -0.3686
    3SAPS   H6Y  362   5.090   6.560   9.821  0.5534  0.1989  1.2186
    3SAPS   C37  363   4.983   6.745   9.750 -0.0220 -0.1674  0.5041
    3SAPS   H7X  364   5.077   6.805   9.745  0.7660 -1.4605 -3.6431
    3SAPS   H7Y  365   4.894   6.801   9.787 -0.4389 -2.0449  2.5131
    3SAPS   C38  366   4.950   6.705   9.608  0.2286 -0.7142  0.4728
    3SAPS   H8X  367   4.845   6.677   9.586  0.1660  1.2687 -2.1968
    3SAPS   H8Y  368   5.009   6.620   9.568  1.0482  0.2435 -0.4108
    3SAPS   C39  369   4.971   6.810   9.503  0.0510  0.0854  0.8941
    3SAPS   H9X  370   5.076   6.817   9.468  0.9620  2.1274  3.7198
    3SAPS   H9Y  371   4.950   6.910   9.547 -1.7420 -0.0246  0.3664
    3SAPS  C310  372   4.889   6.771   9.377 -0.0194  0.0775 -0.5327
    3SAPS  H10X  373   4.782   6.767   9.405  0.5709  1.5633  2.3193
    3SAPS  H10Y  374   4.921   6.668   9.350 -0.6286 -0.6316  1.3190
    3SAPS  C311  375   4.907   6.861   9.254  0.0459 -0.1852 -0.1071
    3SAPS  H11X  376   5.014   6.885   9.243  0.1728 -0.3567  0.7406
    3SAPS  H11Y  377   4.841   6.949   9.267  1.1010  0.9068 -1.7566
    3SAPS  C312  378   4.844   6.794   9.132  0.2094  0.3532 -0.4653
    3SAPS  H12X  379   4.740   6.765   9.157  0.1593  1.1073  0.2400
    3SAPS  H12Y  380   4.892   6.696   9.108 -0.8039 -0.1202 -0.6323
    3SAPS  C313  381   4.835   6.878   9.005 -0.5027 -0.5956  0.0957
    3SAPS  H13X  382   4.760   6.955   9.032  1.0149  0.4516  1.4638
    3SAPS  H13Y  383   4.802   6.819   8.916  0.5635  1.6497 -1.8956
    3SAPS  C314  384   4.960   6.954   8.961 -0.1145  0.0446  0.3757
    3SAPS  H14X  385   5.046   6.884   8.970 -0.1675 -0.0515  0.1410
    3SAPS  H14Y  386   4.988   7.028   9.039  0.9666  1.4189 -1.2377
    3SAPS  C315  387   4.937   7.026   8.830  0.3884 -0.4877  0.0787
    3SAPS  H15X  388   4.850   7.090   8.854 -0.2487 -1.2269 -0.2334
    3SAPS  H15Y  389   4.909   6.946   8.758  1.6443 -1.7724  0.9575
    3SAPS  C316  390   5.050   7.118   8.782  0.0069  0.5743 -0.3932
    3SAPS  H16X  391   5.143   7.068   8.818 -2.8340 -2.6991  3.3319
    3SAPS  H16Y  392   5.048   7.209   8.846  0.4555  1.2911 -1.3823
    3SAPS  C317  393   5.048   7.164   8.636 -0.4142  0.6062 -0.1289
    3SAPS  H17X  394   5.061   7.070   8.579 -0.2781 -0.2677  1.3089
    3SAPS  H17Y  395   5.126   7.243   8.627  0.2444  0.0149  0.2979
    3SAPS  C318  396   4.912   7.224   8.591 -0.6288 -0.0737 -0.2662
    3SAPS  H18X  397   4.917   7.257   8.486  4.6017  0.6247 -0.0798
    3SAPS  H18Y  398   4.886   7.311   8.654  1.5179  0.2114  0.3103
    3SAPS  H18Z  399   4.839   7.141   8.602  0.6030 -1.5801 -2.5375
    4SAPS     N  400   1.244   5.713  10.954 -0.2441  0.4539  0.2206
    4SAPS   HN1  401   1.247   5.676  10.856 -1.4728  1.4804 -0.2398
    4SAPS   HN2  402   1.313   5.653  11.003 -1.4294 -1.4877 -0.3475
    4SAPS   HN3  403   1.148   5.704  10.993 -0.1336  1.9161  0.8738
    4SAPS   C12  404   1.294   5.854  10.962 -0.3842  0.1964 -0.7348
    4SAPS  H12A  405   1.231   5.914  10.898 -0.3910  1.9145  0.7911
    4SAPS   C13  406   1.276   5.914  11.103 -0.1744 -1.2246 -0.1922
    4SAPS  O13A  407   1.251   5.845  11.206  0.8303  0.4944  0.6529
    4SAPS  O13B  408   1.335   6.025  11.124  0.1597 -0.4861 -0.3370
    4SAPS   C11  409   1.449   5.855  10.931  0.1234 -0.6149 -0.0963
    4SAPS  H11A  410   1.500   5.793  11.008  0.6221  0.1439  0.1918
    4SAPS  H11B  411   1.494   5.956  10.941  0.7708 -0.7810 -1.1618
    4SAPS     P  412   1.565   5.856  10.684 -0.0449  0.2554 -0.0753
    4SAPS   O13  413   1.522   5.995  10.658  0.5883  0.2358 -0.1605
    4SAPS   O14  414   1.710   5.831  10.719  0.9111  0.6540 -0.0567
    4SAPS   O12  415   1.471   5.799  10.803 -0.2947  0.0504 -0.1426
    4SAPS   O11  416   1.534   5.770  10.550  0.2792  0.7665 -0.1632
    4SAPS    C1  417   1.410   5.794  10.485  0.4851  0.3227  0.1003
    4SAPS    HA  418   1.331   5.831  10.553  0.0777  0.9149 -0.6865
    4SAPS    HB  419   1.429   5.871  10.407  1.7831 -0.3377 -0.2684
    4SAPS    C2  420   1.356   5.661  10.420  0.1072 -0.8292 -0.0270
    4SAPS    HS  421   1.367   5.577  10.493 -0.2950 -1.0304 -0.1941
    4SAPS   O21  422   1.441   5.637  10.308 -0.4785  0.1091 -0.1473
    4SAPS   C21  423   1.442   5.508  10.275  0.0041 -0.4339 -0.5304
    4SAPS   O22  424   1.387   5.417  10.336  0.3891  0.1573 -0.1229
    4SAPS   C22  425   1.502   5.492  10.138  0.2530  0.6927  0.4597
    4SAPS   H2R  426   1.420   5.437  10.088  0.0791  0.9254  0.4863
    4SAPS   H2S  427   1.503   5.589  10.084  0.8243  0.5965  0.2958
    4SAPS    C3  428   1.203   5.675  10.377 -0.7397  0.2387 -0.8219
    4SAPS    HX  429   1.145   5.681  10.472 -0.4048 -0.8534 -0.5330
    4SAPS    HY  430   1.166   5.589  10.317  0.0231  0.2481 -1.3151
    4SAPS   O31  431   1.176   5.795  10.312 -0.1516 -0.0802  0.4751
    4SAPS   C31  432   1.183   5.789  10.181  1.0212 -0.2799 -0.1185
    4SAPS   O32  433   1.220   5.698  10.116 -0.2862  0.0895  0.1889
    4SAPS   C32  434   1.141   5.927  10.138 -0.6480  0.2749 -0.3348
    4SAPS   H2X  435   1.215   5.998  10.179 -1.2799 -0.0821  1.5121
    4SAPS   H2Y  436   1.041   5.960  10.173 -0.3127  1.5755 -0.5391
    4SAPS   C23  437   1.635   5.410  10.132  0.5938 -0.9897 -0.7943
    4SAPS   H3R  438   1.628   5.317  10.192 -0.3255 -0.1299  0.4804
    4SAPS   H3S  439   1.718   5.468  10.178  0.3706 -0.6454 -0.8158
    4SAPS   C24  440   1.656   5.381   9.982  0.1978 -0.4144 -0.3270
    4SAPS   H4R  441   1.766   5.369   9.976  0.1684 -0.8712 -0.0067
    4SAPS   H4S  442   1.617   5.470   9.928 -2.3538 -0.8966  0.5671
    4SAPS   C25  443   1.577   5.258   9.932 -0.8035  0.1758 -0.1672
    4SAPS   H5R  444   1.469   5.273   9.947 -0.6067  3.0059 -1.0322
    4SAPS   C26  445   1.626   5.152   9.877 -0.9718  0.8721 -0.0771
    4SAPS   H6R  446   1.559   5.072   9.842 -0.3762 -0.4560  1.6863
    4SAPS   C27  447   1.773   5.132   9.842 -0.1135 -0.2331 -0.5977
    4SAPS   H7R  448   1.842   5.159   9.925 -1.4003  1.6962 -0.1032
    4SAPS   H7S  449   1.793   5.207   9.763 -1.3586  1.8792  0.9989
    4SAPS   C28  450   1.794   4.993   9.798 -0.0578 -0.4723 -0.5891
    4SAPS   H8R  451   1.823   4.920   9.875  0.9199 -0.8934 -1.3331
    4SAPS   C29  452   1.779   4.945   9.676 -0.6970  0.2812 -0.3986
    4SAPS   H9R  453   1.785   4.840   9.646  1.3154  0.7180 -1.7547
    4SAPS  C210  454   1.745   5.025   9.552 -0.1184 -0.3312  0.1073
    4SAPS  H10R  455   1.837   5.017   9.489  1.4514  1.7489  1.9592
    4SAPS  H10S  456   1.727   5.130   9.584  0.5577 -0.0779 -0.3063
    4SAPS  C211  457   1.608   5.002   9.481 -0.9474 -0.7000 -0.0403
    4SAPS  H11R  458   1.520   5.011   9.545 -0.1909  2.3104  0.7305
    4SAPS  C212  459   1.592   4.987   9.353 -0.1761 -0.0227  0.2690
    4SAPS  H12R  460   1.489   4.965   9.324 -1.3802  2.0336  2.6407
    4SAPS  C213  461   1.699   4.971   9.247 -0.4794  0.1550 -0.4696
    4SAPS  H13R  462   1.714   4.861   9.235 -0.0445  0.2717 -1.0166
    4SAPS  H13S  463   1.792   5.011   9.293 -1.7112 -0.1444  2.5558
    4SAPS  C214  464   1.681   5.036   9.112  0.1233 -0.0487 -0.3476
    4SAPS  H14R  465   1.624   5.130   9.120  1.9528  0.9457  1.7884
    4SAPS  C215  466   1.712   4.985   8.988 -0.5155 -0.0039 -0.2963
    4SAPS  H15R  467   1.683   5.044   8.901  0.5297  1.1313  0.0897
    4SAPS  C216  468   1.783   4.852   8.963  0.7239 -0.4183 -0.3028
    4SAPS  H16R  469   1.719   4.777   9.014 -3.2527  2.1943 -1.0551
    4SAPS  H16S  470   1.878   4.845   9.021  0.5274 -2.1634 -0.1352
    4SAPS  C217  471   1.799   4.804   8.823 -0.2616  0.2452  0.0473
    4SAPS  H17R  472   1.705   4.827   8.768 -2.2205 -1.9916  2.2104
    4SAPS  H17S  473   1.819   4.695   8.819  2.9540  0.7305 -0.0607
    4SAPS  C218  474   1.925   4.874   8.761  0.3143 -0.3826  0.3931
    4SAPS  H18R  475   2.014   4.832   8.812  0.4900 -0.1693  0.2640
    4SAPS  H18S  476   1.912   4.982   8.781 -1.2151 -0.6290  0.8277
    4SAPS  C219  477   1.963   4.855   8.614  0.1798  0.5776  0.0589
    4SAPS  H19R  478   1.958   4.749   8.584 -0.7597  0.5265  0.3738
    4SAPS  H19S  479   2.069   4.885   8.601 -0.0184  1.5259  0.4801
    4SAPS  C220  480   1.896   4.947   8.523  0.6739  0.5775 -0.1525
    4SAPS  H20R  481   1.941   5.046   8.547 -0.0047  0.2870  2.6382
    4SAPS  H20S  482   1.788   4.944   8.550  0.6002  2.9739  0.0569
    4SAPS  H20T  483   1.922   4.923   8.417  1.1777 -0.4265  0.1866
    4SAPS   C33  484   1.139   5.936   9.980 -0.0179 -0.7237  0.0548
    4SAPS   H3X  485   1.239   5.901   9.948  0.1557 -1.6169  1.4854
    4SAPS   H3Y  486   1.140   6.043   9.950 -0.0130 -1.1905 -1.7240
    4SAPS   C34  487   1.024   5.876   9.897  0.5030  0.0845 -0.1155
    4SAPS   H4X  488   0.920   5.913   9.912  0.8722  0.6172  1.2690
    4SAPS   H4Y  489   1.014   5.773   9.935 -1.9030  0.8576  1.6191
    4SAPS   C35  490   1.053   5.884   9.748 -0.6693 -0.1157 -0.1566
    4SAPS   H5X  491   1.115   5.797   9.721  0.7412 -0.0691  2.5901
    4SAPS   H5Y  492   1.105   5.981   9.731  0.0152 -0.2450  1.1084
    4SAPS   C36  493   0.922   5.872   9.667 -0.1012 -0.4843 -0.3021
    4SAPS   H6X  494   0.864   5.966   9.676 -0.0717 -0.3518 -1.3472
    4SAPS   H6Y  495   0.855   5.795   9.712 -2.5439  0.2682 -2.4002
    4SAPS   C37  496   0.938   5.833   9.517  0.4426 -0.2356  0.1343
    4SAPS   H7X  497   0.998   5.906   9.459  1.4562 -0.2925  1.0799
    4SAPS   H7Y  498   0.835   5.824   9.476  1.0266 -0.7831 -1.3108
    4SAPS   C38  499   1.022   5.704   9.492  0.3142  0.0259 -0.0282
    4SAPS   H8X  500   0.995   5.630   9.570 -0.3804  0.0058 -0.2820
    4SAPS   H8Y  501   1.128   5.735   9.498  0.2733  0.0597  0.5703
    4SAPS   C39  502   0.989   5.658   9.352  0.0758 -0.0481 -0.5033
    4SAPS   H9X  503   1.027   5.732   9.278 -0.0548 -1.1024 -1.6589
    4SAPS   H9Y  504   0.880   5.658   9.333 -0.2097  2.2375  0.6961
    4SAPS  C310  505   1.036   5.519   9.320  0.2259 -0.4777  0.1011
    4SAPS  H10X  506   0.985   5.443   9.383 -1.1530  0.5591  0.2951
    4SAPS  H10Y  507   1.146   5.519   9.336  0.1358  2.6481  1.4665
    4SAPS  C311  508   0.999   5.476   9.182  0.7300  0.1657 -0.0879
    4SAPS  H11X  509   1.036   5.542   9.101  1.6471 -0.2629 -0.0422
    4SAPS  H11Y  510   0.888   5.476   9.177  0.7026  0.0900  0.4689
    4SAPS  C312  511   1.052   5.336   9.141  0.5698  0.0648 -0.2169
    4SAPS  H12X  512   1.027   5.318   9.035 -0.3703  2.5528 -0.4817
    4SAPS  H12Y  513   0.994   5.266   9.205 -1.0826  2.5175  1.1279
    4SAPS  C313  514   1.205   5.310   9.170 -0.6179 -0.2503  0.2000
    4SAPS  H13X  515   1.215   5.335   9.278 -0.8750  1.5470 -0.1713
    4SAPS  H13Y  516   1.259   5.385   9.108  0.6344 -0.8371  0.5382
    4SAPS  C314  517   1.250   5.171   9.122 -0.7318  0.2053 -0.2665
    4SAPS  H14X  518   1.225   5.080   9.180  3.1448 -1.1095 -0.4038
    4SAPS  H14Y  519   1.358   5.167   9.146 -0.6104 -1.1655 -0.9696
    4SAPS  C315  520   1.244   5.149   8.972  0.2318 -0.6629 -0.1035
    4SAPS  H15X  521   1.242   5.238   8.907  0.1881 -0.3476  0.3270
    4SAPS  H15Y  522   1.148   5.095   8.952 -0.0419 -0.2659  0.1367
    4SAPS  C316  523   1.351   5.051   8.913  0.2644  0.7042 -0.2836
    4SAPS  H16X  524   1.356   4.957   8.972  0.2444  1.2882  0.6597
    4SAPS  H16Y  525   1.449   5.102   8.907  0.7184 -0.2878 -2.2476
    4SAPS  C317  526   1.311   4.999   8.772 -0.4157 -0.2104  0.5900
    4SAPS  H17X  527   1.400   4.945   8.733  0.4254  1.0829  0.6867
    4SAPS  H17Y  528   1.297   5.092   8.714  0.6634 -0.4196 -0.0254
    4SAPS  C318  529   1.189   4.900   8.778  0.0057  0.0705 -0.3362
    4SAPS  H18X  530   1.102   4.943   8.832 -0.2479 -0.4994 -0.2818
    4SAPS  H18Y  531   1.213   4.808   8.836 -2.5423 -0.3752  0.1348
    4SAPS  H18Z  532   1.156   4.861   8.679 -0.3268 -0.1604 -0.1391
    5SAPS     N  533   4.792   5.317  11.173  0.1018 -0.1866  0.1035
    5SAPS   HN1  534   4.742   5.404  11.200  0.9696  0.4542 -0.2871
    5SAPS   HN2  535   4.772   5.234  11.231 -3.3572  0.4527  0.0304
    5SAPS   HN3  536   4.893   5.343  11.169  0.2597 -0.9046 -1.3546
    5SAPS   C12  537   4.768   5.260  11.032  0.5495 -0.0176 -0.0942
    5SAPS  H12A  538   4.831   5.316  10.965  0.6382  0.3548  0.2988
    5SAPS   C13  539   4.811   5.114  11.006 -0.1449  0.1278 -0.4564
    5SAPS  O13A  540   4.860   5.051  11.106  0.0337  0.6491 -0.0358
    5SAPS  O13B  541   4.796   5.060  10.893 -0.3496 -0.0123  0.7038
    5SAPS   C11  542   4.622   5.277  10.998  0.4096 -0.3614 -0.7650
    5SAPS  H11A  543   4.564   5.268  11.092  0.9111  0.6954 -0.3459
    5SAPS  H11B  544   4.576   5.200  10.932  0.3869 -2.0493  1.1059
    5SAPS     P  545   4.483   5.436  10.839  0.3271  0.3130 -0.1127
    5SAPS   O13  546   4.389   5.324  10.856 -0.0957 -0.2499  0.1735
    5SAPS   O14  547   4.434   5.574  10.869 -0.2909 -0.0510 -0.3086
    5SAPS   O12  548   4.592   5.412  10.954 -0.6699 -0.5815  0.5271
    5SAPS   O11  549   4.550   5.434  10.698  0.4032 -0.9357 -0.2329
    5SAPS    C1  550   4.668   5.362  10.663 -0.1832  0.3058 -0.0742
    5SAPS    HA  551   4.743   5.387  10.742 -1.2432 -0.8561  1.3578
    5SAPS    HB  552   4.647   5.253  10.667  1.3204 -0.1007 -2.1203
    5SAPS    C2  553   4.710   5.410  10.523  0.3321  0.4527 -0.5964
    5SAPS    HS  554   4.705   5.521  10.524 -1.7922  0.4333  2.2749
    5SAPS   O21  555   4.624   5.346  10.424  0.1056  0.9073 -0.2546
    5SAPS   C21  556   4.575   5.419  10.331  0.1493  0.1897  0.5298
    5SAPS   O22  557   4.586   5.540  10.323  0.5694  0.5455 -0.1633
    5SAPS   C22  558   4.495   5.332  10.237 -0.1403 -0.1567 -0.0585
    5SAPS   H2R  559   4.445   5.245  10.284 -1.0119  0.1328 -0.4359
    5SAPS   H2S  560   4.410   5.388  10.193 -0.8341 -0.3198  1.0333
    5SAPS    C3  561   4.844   5.349  10.498 -0.5139 -0.3610  0.6791
    5SAPS    HX  562   4.840   5.238  10.510  2.0932 -0.7431 -1.1598
    5SAPS    HY  563   4.917   5.385  10.573 -1.5828  2.4193  0.4798
    5SAPS   O31  564   4.893   5.376  10.361  0.2148  0.3287 -0.5360
    5SAPS   C31  565   5.002   5.299  10.326  1.1358 -0.7491  0.0188
    5SAPS   O32  566   5.059   5.220  10.400 -0.0642 -0.0757 -0.0732
    5SAPS   C32  567   5.022   5.310  10.178  0.6997 -0.1472 -0.3441
    5SAPS   H2X  568   5.071   5.409  10.169  0.2626 -0.0025 -1.2324
    5SAPS   H2Y  569   4.928   5.308  10.118  1.3069  1.6213 -1.4213
    5SAPS   C23  570   4.592   5.268  10.132  0.9419 -0.0091 -0.3673
    5SAPS   H3R  571   4.540   5.186  10.077  1.8304  0.2222 -1.5928
    5SAPS   H3S  572   4.671   5.218  10.192 -0.3000  0.5054  1.8221
    5SAPS   C24  573   4.655   5.364  10.031 -0.4290  0.2323  0.4146
    5SAPS   H4R  574   4.715   5.300   9.963  0.7126  0.0604  1.5481
    5SAPS   H4S  575   4.731   5.431  10.079  0.4341 -0.4074 -0.0356
    5SAPS   C25  576   4.548   5.444   9.961 -0.5605 -0.3547 -0.2060
    5SAPS   H5R  577   4.510   5.523  10.028 -1.9058 -1.1805  0.0274
    5SAPS   C26  578   4.505   5.435   9.833 -0.4910 -0.1769  0.6541
    5SAPS   H6R  579   4.430   5.508   9.798 -0.9657 -0.8888  0.1578
    5SAPS   C27  580   4.551   5.342   9.731 -0.8869  0.4133 -0.8520
    5SAPS   H7R  581   4.458   5.319   9.674 -2.2007  1.1010  0.9488
    5SAPS   H7S  582   4.590   5.252   9.784  3.7013  3.0241  0.7021
    5SAPS   C28  583   4.658   5.407   9.646  0.0021 -0.0421  0.2761
    5SAPS   H8R  584   4.755   5.423   9.693  0.6409 -0.2390 -0.9304
    5SAPS   C29  585   4.652   5.458   9.524  0.2790 -0.4326  0.7233
    5SAPS   H9R  586   4.739   5.509   9.479 -0.3191 -0.2852 -0.2992
    5SAPS  C210  587   4.528   5.443   9.437  0.0777  0.8919  0.1946
    5SAPS  H10R  588   4.516   5.542   9.388  0.1812 -0.0266 -1.8041
    5SAPS  H10S  589   4.436   5.412   9.491  2.0218 -2.4167  1.9063
    5SAPS  C211  590   4.554   5.349   9.318 -0.2036  0.6888  0.0634
    5SAPS  H11R  591   4.631   5.272   9.334  0.0153  1.0511  0.7725
    5SAPS  C212  592   4.483   5.342   9.205 -0.1075 -0.0408 -0.0102
    5SAPS  H12R  593   4.490   5.254   9.140 -0.3942 -0.4392  0.4949
    5SAPS  C213  594   4.369   5.431   9.174  0.4760 -0.6857 -0.1599
    5SAPS  H13R  595   4.349   5.494   9.263  1.6865 -0.3465 -0.1010
    5SAPS  H13S  596   4.271   5.382   9.158 -0.9929  2.3046 -1.1158
    5SAPS  C214  597   4.403   5.523   9.055 -0.5327  0.2473 -0.3789
    5SAPS  H14R  598   4.499   5.574   9.073 -0.0585 -1.2803  1.8672
    5SAPS  C215  599   4.337   5.539   8.941 -0.4119  0.3125  0.5366
    5SAPS  H15R  600   4.381   5.609   8.868 -0.0246 -0.8392 -0.3590
    5SAPS  C216  601   4.202   5.471   8.911 -0.1340 -0.4315 -0.1010
    5SAPS  H16R  602   4.119   5.528   8.958 -1.2272 -2.0228  0.0088
    5SAPS  H16S  603   4.205   5.364   8.942  4.2543 -0.5301 -0.3483
    5SAPS  C217  604   4.172   5.451   8.762 -0.6997 -0.1675 -0.2072
    5SAPS  H17R  605   4.096   5.371   8.758 -2.7164  1.3934  2.7328
    5SAPS  H17S  606   4.256   5.393   8.720 -1.5668  0.2371 -2.6527
    5SAPS  C218  607   4.138   5.572   8.687 -1.0702  0.0086  0.6663
    5SAPS  H18R  608   4.065   5.641   8.736  0.9158  2.9359 -0.2515
    5SAPS  H18S  609   4.229   5.633   8.674 -0.0275 -0.8868  3.1829
    5SAPS  C219  610   4.106   5.539   8.539 -0.5006 -0.0343 -0.7714
    5SAPS  H19R  611   4.021   5.468   8.548 -0.9105  0.3200 -1.7081
    5SAPS  H19S  612   4.191   5.479   8.499  0.4363 -0.0779  1.1934
    5SAPS  C220  613   4.062   5.652   8.460  0.0974 -0.3697  0.6874
    5SAPS  H20R  614   4.147   5.718   8.433 -1.3578  0.5588 -2.0677
    5SAPS  H20S  615   3.974   5.711   8.492  1.2185  1.8987 -0.1726
    5SAPS  H20T  616   4.040   5.617   8.357 -3.4709  0.3133  1.0812
    5SAPS   C33  617   5.107   5.203  10.118  0.6479 -0.5309 -0.5683
    5SAPS   H3X  618   5.064   5.101  10.127 -0.1954 -0.1335 -0.0346
    5SAPS   H3Y  619   5.200   5.194  10.178 -0.0161 -0.3025  0.5067
    5SAPS   C34  620   5.142   5.234   9.971 -0.6410  0.5975 -0.4109
    5SAPS   H4X  621   5.246   5.198   9.961  0.4028  3.2948 -0.1970
    5SAPS   H4Y  622   5.139   5.345   9.957 -0.5103  0.4847 -1.4382
    5SAPS   C35  623   5.043   5.166   9.876 -0.8006  0.1550 -0.4180
    5SAPS   H5X  624   4.944   5.211   9.896 -1.0548 -1.0514  1.2515
    5SAPS   H5Y  625   5.046   5.058   9.903 -2.9822  0.0224 -0.5847
    5SAPS   C36  626   5.076   5.189   9.724  0.1075 -0.1251 -0.2690
    5SAPS   H6X  627   4.995   5.146   9.661  0.9978 -0.6301 -1.0850
    5SAPS   H6Y  628   5.171   5.136   9.702  1.7599  1.1625  3.0406
    5SAPS   C37  629   5.098   5.334   9.681  0.4863 -0.5471 -0.0978
    5SAPS   H7X  630   5.186   5.377   9.733 -0.6634 -1.2497  2.5887
    5SAPS   H7Y  631   5.000   5.378   9.711  0.3737 -1.5378  1.0604
    5SAPS   C38  632   5.112   5.361   9.529 -0.2569  0.5054 -0.1134
    5SAPS   H8X  633   5.208   5.312   9.501  0.1954  0.6204  1.1795
    5SAPS   H8Y  634   5.132   5.469   9.513  0.1640  0.1719 -2.1378
    5SAPS   C39  635   5.003   5.306   9.441 -0.5860  0.1657 -0.4182
    5SAPS   H9X  636   4.909   5.365   9.455 -0.2961  0.0697  2.6296
    5SAPS   H9Y  637   4.986   5.199   9.464  3.9089 -0.4853  0.7994
    5SAPS  C310  638   5.036   5.306   9.294  0.0823  0.3497  0.3774
    5SAPS  H10X  639   5.146   5.302   9.279  0.3880 -0.8310  2.4869
    5SAPS  H10Y  640   5.001   5.407   9.265  0.1433  0.2717  0.0225
    5SAPS  C311  641   4.954   5.200   9.228  0.3622 -0.2322 -0.1033
    5SAPS  H11X  642   4.846   5.219   9.246  0.4882  0.0943  0.3150
    5SAPS  H11Y  643   4.975   5.105   9.283  0.7242  0.9499  1.8869
    5SAPS  C312  644   4.982   5.192   9.074 -0.3464  0.0945 -0.5783
    5SAPS  H12X  645   5.087   5.157   9.071 -0.2013  0.2980  1.1490
    5SAPS  H12Y  646   4.992   5.298   9.041 -0.8099  0.0271 -0.9394
    5SAPS  C313  647   4.879   5.103   8.995  0.7729 -0.7842  0.1520
    5SAPS  H13X  648   4.883   4.997   9.028  1.4253 -0.4732  1.1357
    5SAPS  H13Y  649   4.918   5.115   8.892  0.0816  4.0395  0.2286
    5SAPS  C314  650   4.734   5.163   8.989  0.2688 -0.2200  0.6167
    5SAPS  H14X  651   4.740   5.273   8.978  0.9210 -0.1152  1.7676
    5SAPS  H14Y  652   4.685   5.141   9.087  0.0019 -1.9490  0.1377
    5SAPS  C315  653   4.655   5.101   8.879  0.0604  0.1914  0.6789
    5SAPS  H15X  654   4.649   4.993   8.901  0.7064 -0.3515 -1.5485
    5SAPS  H15Y  655   4.713   5.095   8.784  0.0523 -2.8868  0.7742
    5SAPS  C316  656   4.518   5.165   8.850 -0.3124 -0.1785 -0.0641
    5SAPS  H16X  657   4.529   5.276   8.858  0.4832 -0.2311 -0.3640
    5SAPS  H16Y  658   4.457   5.138   8.938 -0.0112  3.8059  1.5994
    5SAPS  C317  659   4.453   5.124   8.720  0.0969  0.7708  0.1660
    5SAPS  H17X  660   4.345   5.149   8.728  0.4950  2.8001 -0.2042
    5SAPS  H17Y  661   4.450   5.017   8.692  0.8725  0.7317  0.2084
    5SAPS  C318  662   4.514   5.205   8.599  0.0222 -0.0655 -0.2140
    5SAPS  H18X  663   4.474   5.308   8.609  1.4308  0.6291 -1.3848
    5SAPS  H18Y  664   4.482   5.160   8.502 -0.8378  0.7466 -0.3127
    5SAPS  H18Z  665   4.625   5.211   8.599  0.0137  2.1430 -3.0884
    6SAPS     N  666   3.067   3.700  10.779 -0.6055 -0.3437 -0.0051
    6SAPS   HN1  667   3.110   3.794  10.793 -1.3711  0.0767 -0.4389
    6SAPS   HN2  668   3.144   3.635  10.753 -1.8041 -0.7868 -2.7702
    6SAPS   HN3  669   2.995   3.702  10.704 -0.0346 -1.4497 -0.6081
    6SAPS   C12  670   3.011   3.648  10.916  0.6358  0.0133 -0.1504
    6SAPS  H12A  671   3.071   3.681  11.000 -1.4623  0.6756  1.1650
    6SAPS   C13  672   2.869   3.691  10.943  0.0548 -0.3240  0.1800
    6SAPS  O13A  673   2.818   3.778  10.871 -0.1019 -0.7113  0.9849
    6SAPS  O13B  674   2.800   3.630  11.028  0.1875  0.4700  0.0317
    6SAPS   C11  675   3.003   3.490  10.918 -0.2400  0.2027  0.1018
    6SAPS  H11A  676   2.931   3.448  10.844  2.7670 -2.6418 -1.4469
    6SAPS  H11B  677   2.970   3.459  11.020 -0.1517 -0.1174  0.0343
    6SAPS     P  678   3.236   3.354  10.966 -0.1876 -0.8660 -0.5788
    6SAPS   O13  679   3.346   3.445  10.982 -0.0096 -0.0132 -0.1328
    6SAPS   O14  680   3.170   3.313  11.092  0.0276  0.5035  0.0342
    6SAPS   O12  681   3.127   3.433  10.874  0.7745 -0.6553  0.4489
    6SAPS   O11  682   3.282   3.227  10.886  0.0649 -0.3471 -0.0669
    6SAPS    C1  683   3.388   3.236  10.787  0.4117 -0.4352 -0.1446
    6SAPS    HA  684   3.479   3.268  10.842 -0.6447 -0.4880  1.7330
    6SAPS    HB  685   3.401   3.135  10.741 -0.8218 -0.8795  0.4276
    6SAPS    C2  686   3.349   3.331  10.675 -0.2398 -0.1769 -0.5666
    6SAPS    HS  687   3.365   3.436  10.708 -1.1515 -0.9423  2.6751
    6SAPS   O21  688   3.212   3.314  10.633 -0.3601  0.1831  0.1316
    6SAPS   C21  689   3.151   3.417  10.578  0.1563  0.6165  0.6001
    6SAPS   O22  690   3.187   3.533  10.586 -0.3360  0.2342  0.1278
    6SAPS   C22  691   3.022   3.366  10.521 -0.8996 -0.1297 -0.4058
    6SAPS   H2R  692   3.044   3.263  10.485 -0.1994 -0.1085 -0.0508
    6SAPS   H2S  693   2.942   3.358  10.598 -0.3995 -0.5453  0.0773
    6SAPS    C3  694   3.445   3.311  10.556  0.0477 -0.1389 -0.0416
    6SAPS    HX  695   3.548   3.333  10.592  0.0480  2.5192 -1.4102
    6SAPS    HY  696   3.433   3.394  10.483 -0.1777 -0.3334 -0.2279
    6SAPS   O31  697   3.420   3.180  10.496  0.4049 -0.0921  0.5458
    6SAPS   C31  698   3.500   3.148  10.393 -0.7051 -0.0391  0.1227
    6SAPS   O32  699   3.611   3.195  10.366 -0.3407  0.4255 -0.0632
    6SAPS   C32  700   3.439   3.024  10.315  0.0388  0.1630  0.0868
    6SAPS   H2X  701   3.367   2.971  10.381  2.1935 -0.2467  2.2757
    6SAPS   H2Y  702   3.524   2.953  10.302  0.1825 -0.4838  3.5839
    6SAPS   C23  703   2.976   3.451  10.398 -0.2976  0.1684 -0.4655
    6SAPS   H3R  704   2.948   3.552  10.436  1.9025 -0.4728  3.3466
    6SAPS   H3S  705   2.882   3.400  10.368 -0.4101 -0.7513  1.2987
    6SAPS   C24  706   3.078   3.454  10.285 -0.4217  0.1086  0.1734
    6SAPS   H4R  707   3.177   3.477  10.331 -0.7658  0.6089  0.6755
    6SAPS   H4S  708   3.039   3.544  10.231 -2.6656 -0.7597  0.2496
    6SAPS   C25  709   3.082   3.332  10.200  0.1092  0.0622 -0.2350
    6SAPS   H5R  710   3.106   3.238  10.252 -2.2304  0.4346  1.7151
    6SAPS   C26  711   3.081   3.326  10.065  0.3615  0.5619 -0.3897
    6SAPS   H6R  712   3.115   3.237  10.011 -0.9924 -0.4745  0.4154
    6SAPS   C27  713   3.072   3.442   9.964 -0.5240 -0.2334 -0.0155
    6SAPS   H7R  714   3.174   3.458   9.921 -1.7454  1.0597 -2.6216
    6SAPS   H7S  715   3.047   3.539  10.011 -0.1332 -0.3988  0.5545
    6SAPS   C28  716   2.970   3.398   9.858  0.4091 -0.1571 -0.2585
    6SAPS   H8R  717   2.868   3.434   9.878  0.5364  0.1308 -0.1180
    6SAPS   C29  718   2.998   3.319   9.758  0.2036 -0.6803  0.3848
    6SAPS   H9R  719   2.931   3.308   9.671 -0.3720 -0.5552  0.8063
    6SAPS  C210  720   3.146   3.276   9.716  0.2823 -0.1100  0.7217
    6SAPS  H10R  721   3.181   3.222   9.806  0.2187  0.4591  1.0918
    6SAPS  H10S  722   3.212   3.363   9.698 -0.6262  0.6200  0.7982
    6SAPS  C211  723   3.172   3.180   9.600  0.6140 -0.3806  0.4346
    6SAPS  H11R  724   3.224   3.087   9.624 -0.7051 -1.4274 -0.5757
    6SAPS  C212  725   3.148   3.192   9.465 -0.0374  0.4135 -0.4048
    6SAPS  H12R  726   3.180   3.112   9.396  3.2032  2.7962 -1.9837
    6SAPS  C213  727   3.080   3.309   9.399  0.6797  0.0301  0.1703
    6SAPS  H13R  728   3.014   3.362   9.470  1.4336  2.0927 -0.5924
    6SAPS  H13S  729   3.043   3.276   9.299  2.2589  0.9405 -0.7697
    6SAPS  C214  730   3.186   3.419   9.391  0.2574 -0.1539 -0.2290
    6SAPS  H14R  731   3.232   3.449   9.486 -0.4672 -0.4786  0.2402
    6SAPS  C215  732   3.217   3.478   9.273  0.5824  0.1039  0.8003
    6SAPS  H15R  733   3.286   3.563   9.279  1.2529 -0.5004  1.8470
    6SAPS  C216  734   3.161   3.436   9.135 -0.7675  0.6094 -0.5960
    6SAPS  H16R  735   3.051   3.423   9.139 -0.9114  1.9196  1.0837
    6SAPS  H16S  736   3.207   3.338   9.113  0.7661  0.2274  3.4398
    6SAPS  C217  737   3.187   3.558   9.041 -0.6653 -0.0999  0.1274
    6SAPS  H17R  738   3.294   3.583   9.025 -1.1014  0.8680 -1.5385
    6SAPS  H17S  739   3.130   3.639   9.094  1.8455  1.2897  0.8780
    6SAPS  C218  740   3.144   3.536   8.897 -0.2225 -0.7177  0.0032
    6SAPS  H18R  741   3.187   3.444   8.853 -2.5218 -0.2289 -3.7224
    6SAPS  H18S  742   3.178   3.624   8.838 -0.0768 -0.4514  0.4794
    6SAPS  C219  743   2.997   3.537   8.876 -0.1180  0.1296  0.9467
    6SAPS  H19R  744   2.956   3.629   8.924 -0.3534  1.5420 -1.7406
    6SAPS  H19S  745   2.939   3.457   8.927 -3.4239  0.8473 -1.3544
    6SAPS  C220  746   2.955   3.534   8.730  0.4383 -0.6257 -0.2854
    6SAPS  H20R  747   3.001   3.616   8.671  1.3709  0.3548  1.7218
    6SAPS  H20S  748   2.846   3.538   8.709  0.7062 -1.1143 -1.8697
    6SAPS  H20T  749   2.994   3.440   8.685  3.1602  0.9929 -1.6021
    6SAPS   C33  750   3.393   3.059  10.175 -0.1196 -0.3038  0.1275
    6SAPS   H3X  751   3.344   3.159  10.186  1.3084  0.2501  2.0332
    6SAPS   H3Y  752   3.313   2.986  10.152 -1.8486  1.3243  0.6815
    6SAPS   C34  753   3.510   3.062  10.081  0.8232 -0.3768  0.4272
    6SAPS   H4X  754   3.551   2.958  10.086  1.4643 -0.0934  1.2678
    6SAPS   H4Y  755   3.592   3.125  10.120  0.4138  0.1400  0.4636
    6SAPS   C35  756   3.458   3.105   9.944 -0.0362  0.3182  1.1052
    6SAPS   H5X  757   3.415   3.206   9.960 -0.8183  0.0723  0.5980
    6SAPS   H5Y  758   3.374   3.034   9.926 -0.0599  0.3295  1.1679
    6SAPS   C36  759   3.575   3.116   9.842  0.7802  1.2406 -0.0413
    6SAPS   H6X  760   3.633   3.021   9.853 -1.4733 -0.1484  0.3746
    6SAPS   H6Y  761   3.638   3.199   9.879  1.9171  0.3362  0.1190
    6SAPS   C37  762   3.537   3.122   9.697  0.6245  0.5309  0.2483
    6SAPS   H7X  763   3.455   3.196   9.697  0.2385  0.1152  0.8774
    6SAPS   H7Y  764   3.479   3.029   9.679 -0.5024  1.0306  1.1908
    6SAPS   C38  765   3.644   3.141   9.595 -0.4048 -1.1627 -0.5274
    6SAPS   H8X  766   3.723   3.062   9.601  0.1654 -0.5227  1.3553
    6SAPS   H8Y  767   3.688   3.240   9.616 -0.0118 -1.2752 -0.8132
    6SAPS   C39  768   3.591   3.128   9.457  0.6328  0.0624 -0.0587
    6SAPS   H9X  769   3.511   3.199   9.427 -1.0250 -1.3990  0.7299
    6SAPS   H9Y  770   3.554   3.025   9.438 -0.4308  0.6362 -1.2653
    6SAPS  C310  771   3.693   3.147   9.344 -1.0101  0.5895  0.2111
    6SAPS  H10X  772   3.767   3.064   9.345 -0.6323  0.8127 -2.4927
    6SAPS  H10Y  773   3.748   3.240   9.369 -1.6552  0.7858  0.9588
    6SAPS  C311  774   3.624   3.155   9.207 -0.0584 -0.2595  0.1857
    6SAPS  H11X  775   3.523   3.202   9.208  0.5393  1.0498  1.4932
    6SAPS  H11Y  776   3.622   3.052   9.165  1.0064  0.3085 -1.3522
    6SAPS  C312  777   3.709   3.248   9.112  0.3918 -0.6684 -0.3325
    6SAPS  H12X  778   3.809   3.201   9.107  1.9302  2.3443 -0.2467
    6SAPS  H12Y  779   3.701   3.351   9.153 -0.5381 -1.3842  1.4441
    6SAPS  C313  780   3.646   3.247   8.971  0.1345  0.2972  0.6172
    6SAPS  H13X  781   3.620   3.143   8.940 -4.3130  1.2070  0.7244
    6SAPS  H13Y  782   3.726   3.285   8.903 -0.4122 -0.4043 -0.4423
    6SAPS  C314  783   3.516   3.337   8.956  0.2271 -0.1865  0.0687
    6SAPS  H14X  784   3.535   3.445   8.974 -0.6448  0.3539 -1.9932
    6SAPS  H14Y  785   3.446   3.296   9.032 -0.4717 -1.1278 -1.0601
    6SAPS  C315  786   3.440   3.324   8.823 -0.1043 -0.5426 -0.3790
    6SAPS  H15X  787   3.334   3.312   8.856 -0.2866  1.4121 -0.1350
    6SAPS  H15Y  788   3.477   3.234   8.769  2.8943  0.6809 -0.5491
    6SAPS  C316  789   3.468   3.444   8.727 -0.0614  0.6749 -0.1256
    6SAPS  H16X  790   3.578   3.444   8.714 -0.1607  3.0697 -1.6618
    6SAPS  H16Y  791   3.435   3.535   8.783 -0.7933 -0.5214  1.4649
    6SAPS  C317  792   3.414   3.423   8.585  0.6821 -0.0338  0.6294
    6SAPS  H17X  793   3.475   3.351   8.527  1.2052  1.3792 -0.6149
    6SAPS  H17Y  794   3.439   3.515   8.529 -2.0746  0.0600 -0.6417
    6SAPS  C318  795   3.265   3.406   8.550  0.2611 -0.7083  1.2082
    6SAPS  H18X  796   3.249   3.427   8.442  2.2580  3.0263  1.4483
    6SAPS  H18Y  797   3.211   3.483   8.608  0.6882  2.6449 -2.4450
    6SAPS  H18Z  798   3.224   3.310   8.587  0.3282 -0.5037  1.8248
    7SAPS     N  799   6.229   5.149  10.812 -0.4532 -0.0999 -0.7076
    7SAPS   HN1  800   6.231   5.202  10.902 -0.0373 -0.4833 -0.4866
    7SAPS   HN2  801   6.136   5.105  10.808 -1.0895  1.1762 -0.5933
    7SAPS   HN3  802   6.309   5.082  10.808 -1.7937 -1.9028  0.8155
    7SAPS   C12  803   6.227   5.245  10.697 -0.0425  0.6149  0.0354
    7SAPS  H12A  804   6.230   5.186  10.606 -1.6948  0.0142  0.3414
    7SAPS   C13  805   6.094   5.335  10.705  0.4599  0.0499  0.6066
    7SAPS  O13A  806   6.026   5.327  10.810  0.5230  0.4065  0.7427
    7SAPS  O13B  807   6.072   5.420  10.616 -0.0181  0.2424  0.1976
    7SAPS   C11  808   6.352   5.332  10.715 -0.8476 -0.0369  0.1764
    7SAPS  H11A  809   6.339   5.385  10.811 -2.5137 -0.2425  0.0990
    7SAPS  H11B  810   6.354   5.409  10.635  0.9597  0.3016  0.5098
    7SAPS     P  811   6.612   5.344  10.701  0.0230 -0.0850 -0.2593
    7SAPS   O13  812   6.590   5.489  10.731  0.1558 -0.3982 -0.2701
    7SAPS   O14  813   6.724   5.275  10.767 -0.1103  0.5225  0.2101
    7SAPS   O12  814   6.475   5.258  10.725  0.0298 -0.6532  0.0648
    7SAPS   O11  815   6.623   5.326  10.544  0.1250 -0.3558 -0.1911
    7SAPS    C1  816   6.718   5.247  10.485 -0.5861 -0.0193  0.8433
    7SAPS    HA  817   6.743   5.154  10.539  2.0756  0.5351  0.7171
    7SAPS    HB  818   6.692   5.224  10.379  2.7235  3.2761 -0.9471
    7SAPS    C2  819   6.848   5.324  10.476 -0.2674 -0.2024 -0.6021
    7SAPS    HS  820   6.881   5.340  10.581 -0.7069 -0.0683 -0.4841
    7SAPS   O21  821   6.824   5.441  10.403  0.0187  0.0844 -0.6301
    7SAPS   C21  822   6.900   5.548  10.420 -0.2298  0.2671 -0.7213
    7SAPS   O22  823   6.994   5.549  10.498 -0.2760  0.1378  0.1364
    7SAPS   C22  824   6.837   5.646  10.323 -0.3693 -0.3732  0.4317
    7SAPS   H2R  825   6.762   5.593  10.261  0.7959  0.5384 -1.8886
    7SAPS   H2S  826   6.793   5.733  10.376  0.0333 -0.4714  0.9367
    7SAPS    C3  827   6.967   5.253  10.404 -1.0128 -0.5990 -0.2602
    7SAPS    HX  828   6.985   5.156  10.456 -1.2018 -0.1722  0.6220
    7SAPS    HY  829   7.057   5.315  10.423 -0.5539 -0.8559 -1.4953
    7SAPS   O31  830   6.956   5.255  10.259 -0.5674  0.0570  0.1284
    7SAPS   C31  831   6.892   5.142  10.215 -0.5833  0.2433  0.2442
    7SAPS   O32  832   6.851   5.053  10.286 -0.2529 -0.1347 -0.6162
    7SAPS   C32  833   6.877   5.151  10.063 -0.5882  0.0970  0.3919
    7SAPS   H2X  834   6.893   5.045  10.034  1.0940  0.1605  0.9635
    7SAPS   H2Y  835   6.961   5.215  10.028  0.4389 -0.4528  1.7172
    7SAPS   C23  836   6.948   5.708  10.238 -0.0416 -0.0969  0.9583
    7SAPS   H3R  837   7.025   5.744  10.310 -0.6693  1.9327  0.6683
    7SAPS   H3S  838   6.919   5.796  10.178 -1.3939  1.0114  3.1191
    7SAPS   C24  839   7.014   5.601  10.150 -0.7303 -1.5520  0.5682
    7SAPS   H4R  840   6.928   5.570  10.087 -1.7385  0.8264  0.6690
    7SAPS   H4S  841   7.054   5.508  10.197  0.2461 -1.7401 -0.5735
    7SAPS   C25  842   7.123   5.676  10.075 -0.6371  0.3267 -0.1656
    7SAPS   H5R  843   7.213   5.682  10.137 -0.7593 -1.4382  0.2359
    7SAPS   C26  844   7.113   5.733   9.957 -0.3081 -0.7332 -0.2602
    7SAPS   H6R  845   7.202   5.779   9.911 -0.8751  1.0583  0.3264
    7SAPS   C27  846   6.989   5.749   9.874 -0.5718  0.3469  0.1797
    7SAPS   H7R  847   6.905   5.767   9.945  0.0940  1.2690  0.7508
    7SAPS   H7S  848   6.967   5.650   9.828  1.2168  0.3857 -0.8421
    7SAPS   C28  849   7.004   5.853   9.768 -0.1414  0.3332  0.6934
    7SAPS   H8R  850   6.988   5.958   9.794 -1.7771  0.7078 -1.5377
    7SAPS   C29  851   7.034   5.823   9.634  0.5509  0.0191  0.1026
    7SAPS   H9R  852   7.057   5.908   9.569  0.8929 -1.5302 -1.9038
    7SAPS  C210  853   7.062   5.687   9.577  0.1306 -0.1650  0.1529
    7SAPS  H10R  854   7.114   5.616   9.645  0.8871  0.0132 -0.2288
    7SAPS  H10S  855   7.138   5.696   9.497  0.4737  2.9877  0.7075
    7SAPS  C211  856   6.943   5.626   9.523  0.5826  0.3897 -0.6092
    7SAPS  H11R  857   6.896   5.561   9.598 -2.4619  2.7369 -0.2744
    7SAPS  C212  858   6.878   5.656   9.409 -0.0184  0.1207 -0.0361
    7SAPS  H12R  859   6.781   5.608   9.388 -1.6724  3.4220 -0.7118
    7SAPS  C213  860   6.922   5.764   9.304 -0.3982  0.4593  0.1262
    7SAPS  H13R  861   6.960   5.849   9.365 -1.3005  0.3052  0.9334
    7SAPS  H13S  862   6.833   5.795   9.245  1.1333  1.5529 -1.7264
    7SAPS  C214  863   7.027   5.711   9.215  0.5555  0.5130 -0.0165
    7SAPS  H14R  864   7.108   5.659   9.268  1.5760  0.7827 -1.2720
    7SAPS  C215  865   7.028   5.715   9.081  0.5638 -0.5923 -0.4662
    7SAPS  H15R  866   7.105   5.650   9.038  2.4435  0.2003  1.5307
    7SAPS  C216  867   6.920   5.783   9.001  0.8484 -0.2889  0.1390
    7SAPS  H16R  868   6.815   5.775   9.036 -0.3707 -1.4691 -3.3434
    7SAPS  H16S  869   6.915   5.744   8.897  2.5539  0.9640 -0.4608
    7SAPS  C217  870   6.956   5.936   8.990  0.0717  0.6116  0.4231
    7SAPS  H17R  871   6.961   5.987   9.089 -0.7869 -0.1863  0.8981
    7SAPS  H17S  872   6.877   6.000   8.944 -0.1947  0.4443  0.6435
    7SAPS  C218  873   7.089   5.967   8.913 -0.1641  0.1212  0.1884
    7SAPS  H18R  874   7.108   5.908   8.820  2.5611  0.0852  0.6781
    7SAPS  H18S  875   7.171   5.939   8.983 -0.1866  1.4359  0.7639
    7SAPS  C219  876   7.100   6.118   8.886 -0.5496 -0.0119 -0.5181
    7SAPS  H19R  877   7.082   6.171   8.982 -2.1497  0.3474 -0.9898
    7SAPS  H19S  878   7.020   6.145   8.813  0.4142  0.3651 -1.4619
    7SAPS  C220  879   7.245   6.145   8.826  0.4364 -1.0034  0.3748
    7SAPS  H20R  880   7.293   6.217   8.895 -0.4286  0.7815 -0.7793
    7SAPS  H20S  881   7.242   6.188   8.723 -0.7256  0.9444  1.1682
    7SAPS  H20T  882   7.299   6.048   8.829 -1.6283 -2.2192  0.0444
    7SAPS   C33  883   6.730   5.177  10.021 -0.7512  0.0891 -0.2662
    7SAPS   H3X  884   6.666   5.103  10.073  0.2991  0.5049  1.7028
    7SAPS   H3Y  885   6.722   5.147   9.914  2.3564  0.5230 -0.7068
    7SAPS   C34  886   6.674   5.315  10.039  0.4876  0.5221  0.2728
    7SAPS   H4X  887   6.695   5.347  10.144  1.1798 -1.5878  0.8450
    7SAPS   H4Y  888   6.563   5.304  10.035  0.2165  2.8924  0.3066
    7SAPS   C35  889   6.726   5.421   9.942  0.0232 -0.0768 -0.1198
    7SAPS   H5X  890   6.834   5.447   9.950  0.0804  0.1035 -1.2342
    7SAPS   H5Y  891   6.674   5.514   9.972 -0.1669 -0.6642  1.4372
    7SAPS   C36  892   6.712   5.391   9.794  0.3686  0.5238 -0.1149
    7SAPS   H6X  893   6.782   5.307   9.776 -0.4807  0.3148 -3.0636
    7SAPS   H6Y  894   6.747   5.474   9.728 -0.1063  1.0584  0.3008
    7SAPS   C37  895   6.577   5.347   9.747 -0.2547 -0.3277 -0.3381
    7SAPS   H7X  896   6.505   5.411   9.801  0.3977 -1.0980  1.4987
    7SAPS   H7Y  897   6.561   5.241   9.775  0.4719 -0.4740 -0.4469
    7SAPS   C38  898   6.549   5.361   9.589 -0.4454 -0.6836 -0.1426
    7SAPS   H8X  899   6.626   5.301   9.535 -0.0602 -0.4512  0.1384
    7SAPS   H8Y  900   6.569   5.464   9.554  3.0636 -1.6438 -1.4082
    7SAPS   C39  901   6.407   5.336   9.554 -0.8002  0.3560 -0.5061
    7SAPS   H9X  902   6.342   5.400   9.617 -1.0221  1.3119 -1.6829
    7SAPS   H9Y  903   6.373   5.234   9.586 -0.8515  0.8822  1.2663
    7SAPS  C310  904   6.357   5.355   9.410 -0.7452 -0.3880 -0.2196
    7SAPS  H10X  905   6.397   5.453   9.376 -1.9543  0.8040  1.5896
    7SAPS  H10Y  906   6.246   5.361   9.399 -1.2997  0.8649  4.0075
    7SAPS  C311  907   6.411   5.256   9.300  0.2546 -0.8063  0.3326
    7SAPS  H11X  908   6.379   5.159   9.345 -2.4923 -0.6092 -0.9905
    7SAPS  H11Y  909   6.522   5.262   9.297  0.1864  0.6627  0.3014
    7SAPS  C312  910   6.337   5.263   9.167  0.0279 -0.2765  0.5835
    7SAPS  H12X  911   6.232   5.230   9.179  0.5431 -2.1584  0.1190
    7SAPS  H12Y  912   6.384   5.194   9.094 -0.5605  0.2448 -0.3110
    7SAPS  C313  913   6.339   5.402   9.109 -0.8625 -0.3803 -0.0418
    7SAPS  H13X  914   6.442   5.442   9.120 -0.6094 -1.2517  0.8823
    7SAPS  H13Y  915   6.278   5.470   9.172 -0.2632  0.2813 -0.1615
    7SAPS  C314  916   6.298   5.404   8.960  0.1310 -0.2289  0.1100
    7SAPS  H14X  917   6.196   5.361   8.949 -1.1995  1.7994  3.0158
    7SAPS  H14Y  918   6.378   5.355   8.901  0.3405 -0.0870  0.2753
    7SAPS  C315  919   6.287   5.546   8.902 -0.0468  0.6929 -0.2390
    7SAPS  H15X  920   6.389   5.586   8.921  1.3931 -2.8016  0.0994
    7SAPS  H15Y  921   6.210   5.603   8.957 -3.3360 -2.2308 -1.4392
    7SAPS  C316  922   6.241   5.545   8.759 -0.4168 -0.0059 -0.5991
    7SAPS  H16X  923   6.137   5.510   8.744 -0.2533 -0.5276 -0.5176
    7SAPS  H16Y  924   6.311   5.479   8.704 -0.7551 -1.7046  0.9102
    7SAPS  C317  925   6.246   5.691   8.703 -0.2210 -0.1412 -0.0204
    7SAPS  H17X  926   6.165   5.753   8.747 -2.2934 -0.2995 -3.2641
    7SAPS  H17Y  927   6.210   5.685   8.598 -3.7606 -1.3781  1.1232
    7SAPS  C318  928   6.383   5.768   8.708 -0.2589 -0.4591 -0.2289
    7SAPS  H18X  929   6.420   5.760   8.813 -2.9948 -0.5412  0.8058
    7SAPS  H18Y  930   6.372   5.875   8.682 -1.6472  0.0829  2.2574
    7SAPS  H18Z  931   6.454   5.734   8.629 -1.7869 -1.2225 -1.3082
    8SAPS     N  932   3.701   4.847  11.235 -0.4875  0.7080  0.4835
    8SAPS   HN1  933   3.787   4.829  11.180 -1.7875  0.2173 -1.5035
    8SAPS   HN2  934   3.706   4.901  11.323  1.1429  1.9457 -0.3128
    8SAPS   HN3  935   3.664   4.751  11.253  0.8489  0.0762  0.0216
    8SAPS   C12  936   3.609   4.915  11.136  0.1340  0.4677 -0.0555
    8SAPS  H12A  937   3.624   4.867  11.040 -0.2794 -0.8641  0.5363
    8SAPS   C13  938   3.455   4.903  11.167 -0.1627  0.5814  0.3178
    8SAPS  O13A  939   3.413   4.850  11.272  0.1212 -0.1815  0.4963
    8SAPS  O13B  940   3.375   4.947  11.077  0.4061 -0.0255 -0.0279
    8SAPS   C11  941   3.649   5.071  11.120  0.2355 -0.2311 -0.0043
    8SAPS  H11A  942   3.610   5.117  11.214 -2.2228 -1.5690 -0.2767
    8SAPS  H11B  943   3.583   5.118  11.044 -0.3352  0.8367  1.1157
    8SAPS     P  944   3.813   5.227  11.004 -0.4716 -0.1822 -0.0554
    8SAPS   O13  945   3.693   5.302  10.964  0.2601 -0.1557 -0.0649
    8SAPS   O14  946   3.927   5.313  11.053 -0.0491 -0.5511 -0.3290
    8SAPS   O12  947   3.788   5.103  11.091 -0.5064 -0.1126 -0.4377
    8SAPS   O11  948   3.876   5.154  10.878  0.6540 -0.1274 -0.8470
    8SAPS    C1  949   3.811   5.040  10.807 -0.1016 -0.6702 -0.7351
    8SAPS    HA  950   3.872   4.947  10.810  2.1411  0.6830 -2.0571
    8SAPS    HB  951   3.708   5.020  10.845 -0.6586 -1.1919 -2.4545
    8SAPS    C2  952   3.790   5.086  10.658 -0.3958  1.2879 -0.3207
    8SAPS    HS  953   3.732   5.004  10.610 -1.6074  1.3872  0.9143
    8SAPS   O21  954   3.921   5.091  10.592  0.3928  0.5151 -0.0498
    8SAPS   C21  955   3.966   4.980  10.542  0.3360  0.1036  0.7993
    8SAPS   O22  956   3.917   4.873  10.562  0.3326 -0.0236  0.7053
    8SAPS   C22  957   4.079   5.009  10.444  0.3558  0.2037 -0.9742
    8SAPS   H2R  958   4.109   5.116  10.447  2.3531 -0.3451  1.8618
    8SAPS   H2S  959   4.167   4.952  10.480 -0.0221  0.5027  0.4932
    8SAPS    C3  960   3.723   5.226  10.637 -0.3833  0.3879 -0.2403
    8SAPS    HX  961   3.790   5.306  10.675  0.1912  0.5871 -1.6241
    8SAPS    HY  962   3.635   5.238  10.703  0.8968  0.4775  1.5418
    8SAPS   O31  963   3.686   5.256  10.499 -0.2616  0.0991 -0.3284
    8SAPS   C31  964   3.579   5.196  10.451 -0.3885 -0.4285  0.4967
    8SAPS   O32  965   3.529   5.097  10.502 -0.3800  0.3938 -0.5665
    8SAPS   C32  966   3.538   5.262  10.319 -0.1930 -0.1844  0.1251
    8SAPS   H2X  967   3.443   5.314  10.344 -0.2928  1.3258 -2.8809
    8SAPS   H2Y  968   3.501   5.186  10.246  1.7984 -0.6376 -0.4536
    8SAPS   C23  969   4.042   4.963  10.303  0.3956 -0.0827 -0.7061
    8SAPS   H3R  970   3.968   5.035  10.262  0.3570  0.8595  0.9231
    8SAPS   H3S  971   4.023   4.854  10.306  1.4892 -0.2849 -0.8297
    8SAPS   C24  972   4.165   4.965  10.211  0.8494 -0.0925  0.2022
    8SAPS   H4R  973   4.134   4.913  10.118  0.7454 -1.0432  0.7644
    8SAPS   H4S  974   4.231   4.892  10.263 -1.1894 -1.1521  1.4237
    8SAPS   C25  975   4.221   5.100  10.165 -0.3004  0.3813 -0.1760
    8SAPS   H5R  976   4.217   5.180  10.241  1.1470  1.2015 -0.9139
    8SAPS   C26  977   4.282   5.121  10.046  0.4693 -0.6278  0.2160
    8SAPS   H6R  978   4.331   5.217  10.026  2.0897 -1.0236  1.9300
    8SAPS   C27  979   4.292   5.017   9.935  0.1425  0.3934  0.3300
    8SAPS   H7R  980   4.212   4.940   9.933  2.9243 -2.7378 -0.4757
    8SAPS   H7S  981   4.388   4.961   9.945  0.0883  0.1880 -0.2260
    8SAPS   C28  982   4.304   5.075   9.792 -0.3777  0.0289 -0.4497
    8SAPS   H8R  983   4.323   5.183   9.783 -1.0328  0.0198 -2.8678
    8SAPS   C29  984   4.290   5.005   9.676  0.3166  0.1816 -0.6616
    8SAPS   H9R  985   4.288   5.057   9.579 -0.7118  2.3492  0.4496
    8SAPS  C210  986   4.276   4.855   9.666  0.1324 -0.6160 -0.2925
    8SAPS  H10R  987   4.213   4.809   9.745 -1.0552  1.6817  0.1664
    8SAPS  H10S  988   4.378   4.810   9.668  1.1019  1.5134  0.6919
    8SAPS  C211  989   4.210   4.830   9.532 -0.3249  0.8267  0.3973
    8SAPS  H11R  990   4.116   4.775   9.547 -0.5819  1.5583  1.6782
    8SAPS  C212  991   4.241   4.865   9.405  0.1722 -0.0284  0.3122
    8SAPS  H12R  992   4.171   4.824   9.331 -0.4094 -0.0838  0.8894
    8SAPS  C213  993   4.356   4.938   9.338  0.6881 -0.5813  0.1152
    8SAPS  H13R  994   4.404   4.870   9.264  0.0706 -0.0626 -0.7886
    8SAPS  H13S  995   4.434   4.966   9.412  2.5794 -0.4953 -1.8215
    8SAPS  C214  996   4.300   5.063   9.264  0.4338  0.5115  0.5194
    8SAPS  H14R  997   4.313   5.158   9.318 -3.3620  1.6067 -0.1866
    8SAPS  C215  998   4.249   5.071   9.135  0.1710 -1.0362 -0.0085
    8SAPS  H15R  999   4.220   5.164   9.085  1.6395 -1.7293 -2.3076
    8SAPS  C216 1000   4.212   4.954   9.048  0.1894  0.6483  0.0361
    8SAPS  H16R 1001   4.213   4.862   9.110  1.2929  0.8640  0.3696
    8SAPS  H16S 1002   4.293   4.947   8.972  1.7317  1.2708  1.5410
    8SAPS  C217 1003   4.077   4.957   8.977 -0.6863 -0.3623  0.4885
    8SAPS  H17R 1004   3.998   4.995   9.046 -0.0451  1.3938  0.3082
    8SAPS  H17S 1005   4.056   4.855   8.938  0.1348  0.1980 -1.5408
    8SAPS  C218 1006   4.074   5.043   8.846 -0.0745 -0.3269  0.3889
    8SAPS  H18R 1007   4.142   5.003   8.768 -0.1065  0.8164 -0.2401
    8SAPS  H18S 1008   4.107   5.148   8.860  1.7066 -0.5621 -1.6204
    8SAPS  C219 1009   3.932   5.057   8.786 -0.0774 -0.1770 -0.0284
    8SAPS  H19R 1010   3.944   5.098   8.683 -0.6428  2.2706  0.7922
    8SAPS  H19S 1011   3.872   5.130   8.844 -0.2919 -0.4070  0.0393
    8SAPS  C220 1012   3.849   4.929   8.773  0.5421  0.8063  0.3256
    8SAPS  H20R 1013   3.757   4.958   8.718 -0.9318 -1.5751  1.3520
    8SAPS  H20S 1014   3.810   4.887   8.869 -1.8347 -1.9675 -1.6495
    8SAPS  H20T 1015   3.901   4.848   8.719 -0.9346  0.0710 -0.0636
    8SAPS   C33 1016   3.638   5.364  10.258 -0.9917 -0.1926  0.4063
    8SAPS   H3X 1017   3.744   5.335  10.274 -0.2488  1.5441 -1.1356
    8SAPS   H3Y 1018   3.617   5.459  10.312 -2.3088  0.7533 -1.6616
    8SAPS   C34 1019   3.615   5.390  10.111 -0.5228  0.0296  0.1744
    8SAPS   H4X 1020   3.600   5.290  10.065  1.2253 -0.0443 -0.3374
    8SAPS   H4Y 1021   3.713   5.422  10.070 -0.7560 -2.5430 -2.7557
    8SAPS   C35 1022   3.500   5.485  10.084  0.5512  0.4928 -0.0612
    8SAPS   H5X 1023   3.521   5.594  10.094  0.3890  0.4816  0.4046
    8SAPS   H5Y 1024   3.410   5.468  10.146  0.2964 -1.0602 -0.8108
    8SAPS   C36 1025   3.454   5.475   9.933  0.3352 -0.0706  0.0518
    8SAPS   H6X 1026   3.364   5.540   9.921 -0.7107 -1.6799 -1.2839
    8SAPS   H6Y 1027   3.430   5.368   9.914 -0.8863  0.1346  0.3392
    8SAPS   C37 1028   3.576   5.497   9.833  0.0114 -0.4091  0.4070
    8SAPS   H7X 1029   3.645   5.410   9.843 -1.3177 -1.5738 -0.1146
    8SAPS   H7Y 1030   3.616   5.599   9.850 -1.2446  0.0793  0.5558
    8SAPS   C38 1031   3.525   5.483   9.686 -0.2938 -0.2273 -0.1404
    8SAPS   H8X 1032   3.450   5.562   9.666 -0.3824  0.3149  2.1031
    8SAPS   H8Y 1033   3.478   5.382   9.693  1.3007 -0.9577  0.6259
    8SAPS   C39 1034   3.632   5.489   9.586  0.4616 -0.1723  0.6771
    8SAPS   H9X 1035   3.687   5.394   9.601  0.4804 -0.0379  1.4920
    8SAPS   H9Y 1036   3.688   5.584   9.605 -0.6559  0.5854  0.3026
    8SAPS  C310 1037   3.583   5.498   9.443  0.7332 -0.0514  0.5239
    8SAPS  H10X 1038   3.516   5.587   9.437  0.5644 -0.1533  0.8950
    8SAPS  H10Y 1039   3.531   5.410   9.399 -1.4955  1.4913 -0.1321
    8SAPS  C311 1040   3.696   5.521   9.336  0.2738 -0.3730  0.2552
    8SAPS  H11X 1041   3.776   5.444   9.340  0.0568 -0.6034  0.1576
    8SAPS  H11Y 1042   3.742   5.620   9.358  1.8392 -1.0737  0.2733
    8SAPS  C312 1043   3.630   5.541   9.195  0.2210  0.2389  0.5410
    8SAPS  H12X 1044   3.621   5.650   9.175  1.9124  0.8487  2.6945
    8SAPS  H12Y 1045   3.525   5.507   9.202  0.2492 -0.4914 -1.6893
    8SAPS  C313 1046   3.706   5.455   9.090  0.0882 -0.2616  0.1787
    8SAPS  H13X 1047   3.813   5.458   9.120 -0.4278  1.5405  2.0492
    8SAPS  H13Y 1048   3.691   5.507   8.993  3.3413  0.2464 -0.1895
    8SAPS  C314 1049   3.657   5.305   9.079  0.9441  0.2860 -0.2767
    8SAPS  H14X 1050   3.639   5.257   9.178 -0.8945 -0.8548 -1.1094
    8SAPS  H14Y 1051   3.730   5.245   9.021  1.1585  1.0565 -0.8289
    8SAPS  C315 1052   3.517   5.294   9.015 -0.0565 -0.6737  0.7346
    8SAPS  H15X 1053   3.508   5.377   8.942  0.8232 -1.3469 -0.1780
    8SAPS  H15Y 1054   3.439   5.297   9.094  2.0935  1.1710  2.9138
    8SAPS  C316 1055   3.493   5.157   8.939  0.0543  0.1670  0.0540
    8SAPS  H16X 1056   3.536   5.074   8.999  0.8505 -0.9144 -1.9280
    8SAPS  H16Y 1057   3.549   5.150   8.844  1.0137 -0.0130  0.6256
    8SAPS  C317 1058   3.350   5.115   8.908 -0.2639  0.2959 -0.6189
    8SAPS  H17X 1059   3.288   5.185   8.848 -1.5458  0.2654  0.6226
    8SAPS  H17Y 1060   3.289   5.105   9.000 -0.0624 -2.0052 -0.6918
    8SAPS  C318 1061   3.349   4.979   8.843  0.5657 -0.3766  0.3490
    8SAPS  H18X 1062   3.389   4.901   8.911 -0.3635 -0.8899  0.3209
    8SAPS  H18Y 1063   3.414   4.982   8.753 -1.2735 -0.3893 -1.0370
    8SAPS  H18Z 1064   3.243   4.954   8.818  0.9173  0.7623 -2.7217
    9SAPS     N 1065   5.608   0.687   6.323 -0.1985 -0.0167  0.1923
    9SAPS   HN1 1066   5.524   0.705   6.382 -1.4119 -0.7990 -1.2283
    9SAPS   HN2 1067   5.595   0.588   6.293  0.6320 -0.8187  2.2718
    9SAPS   HN3 1068   5.697   0.700   6.375  0.5741  0.4293 -1.1850
    9SAPS   C12 1069   5.617   0.786   6.210 -0.2356  0.4759 -0.7083
    9SAPS  H12A 1070   5.719   0.795   6.176  0.3156 -0.4343  0.6207
    9SAPS   C13 1071   5.521   0.754   6.094 -0.2316  0.1610 -0.4905
    9SAPS  O13A 1072   5.458   0.648   6.098  0.0942  0.1055 -0.3390
    9SAPS  O13B 1073   5.539   0.814   5.984  0.4598 -0.3737 -0.5865
    9SAPS   C11 1074   5.591   0.931   6.273 -0.1656 -0.0594 -0.4745
    9SAPS  H11A 1075   5.578   0.983   6.175 -0.9496 -0.9178 -0.8344
    9SAPS  H11B 1076   5.679   0.965   6.331  0.2866 -1.7563 -0.1221
    9SAPS     P 1077   5.434   1.082   6.428 -0.2863  0.1044  0.6102
    9SAPS   O13 1078   5.441   1.188   6.331  0.3098 -0.8792  0.3364
    9SAPS   O14 1079   5.306   1.061   6.495 -0.0738  0.8186 -0.3257
    9SAPS   O12 1080   5.469   0.943   6.344 -0.8721  0.0188 -0.7751
    9SAPS   O11 1081   5.538   1.108   6.539 -0.6283  0.5034 -0.3200
    9SAPS    C1 1082   5.600   1.006   6.622 -0.3164  0.2863 -0.2471
    9SAPS    HA 1083   5.526   0.941   6.672  1.0521 -0.8317  0.4003
    9SAPS    HB 1084   5.685   0.950   6.578  0.5669  1.8935 -0.6729
    9SAPS    C2 1085   5.683   1.074   6.739  0.4943  0.1111  0.1541
    9SAPS    HS 1086   5.768   1.011   6.771  1.5872  1.3479 -0.2120
    9SAPS   O21 1087   5.600   1.110   6.851  0.2899  0.2852  0.6268
    9SAPS   C21 1088   5.577   1.009   6.935 -0.2831  0.0013  0.0391
    9SAPS   O22 1089   5.624   0.900   6.925  0.3687  0.2199 -0.1299
    9SAPS   C22 1090   5.477   1.044   7.042 -0.0752  0.2898 -0.2584
    9SAPS   H2R 1091   5.490   1.150   7.075  0.0054 -0.0414  0.8172
    9SAPS   H2S 1092   5.379   1.029   6.993  0.7201 -0.2335 -1.7795
    9SAPS    C3 1093   5.752   1.201   6.684  0.6203 -0.6843 -0.4922
    9SAPS    HX 1094   5.672   1.272   6.653 -0.0821 -0.4998  1.5897
    9SAPS    HY 1095   5.806   1.175   6.591  2.1915 -0.8173  0.4305
    9SAPS   O31 1096   5.833   1.267   6.784  0.4027  0.1200 -0.0276
    9SAPS   C31 1097   5.779   1.371   6.846 -0.0791 -0.9148  0.3164
    9SAPS   O32 1098   5.704   1.453   6.798 -0.0964  0.1051 -0.2722
    9SAPS   C32 1099   5.823   1.377   6.988 -0.2616 -0.7248 -0.1186
    9SAPS   H2X 1100   5.934   1.379   6.981 -0.2980 -2.6668 -2.0791
    9SAPS   H2Y 1101   5.790   1.281   7.034  0.7391 -2.1061 -2.1772
    9SAPS   C23 1102   5.490   0.952   7.163  0.3548 -0.0300  0.3763
    9SAPS   H3R 1103   5.591   0.955   7.210  0.5995  0.9058 -0.1676
    9SAPS   H3S 1104   5.473   0.851   7.122  0.0010  0.7452 -1.4968
    9SAPS   C24 1105   5.365   0.978   7.251  0.5042 -0.2220 -0.2824
    9SAPS   H4R 1106   5.266   0.964   7.203  0.2186  0.9764 -0.0610
    9SAPS   H4S 1107   5.368   1.087   7.271  2.5777 -0.4474  0.9420
    9SAPS   C25 1108   5.346   0.902   7.379 -0.5286 -0.0624 -0.6086
    9SAPS   H5R 1109   5.288   0.808   7.372 -0.5232 -0.0980 -0.2014
    9SAPS   C26 1110   5.392   0.931   7.502  0.0224 -0.3897 -0.2411
    9SAPS   H6R 1111   5.369   0.860   7.582 -1.6364 -0.6511 -0.9172
    9SAPS   C27 1112   5.473   1.051   7.540 -0.6246 -0.7525 -0.8186
    9SAPS   H7R 1113   5.527   1.088   7.450 -0.1276  0.0514 -0.1969
    9SAPS   H7S 1114   5.554   1.029   7.613 -0.1121  0.7918 -0.8862
    9SAPS   C28 1115   5.378   1.164   7.579 -0.7416  0.2376  0.7211
    9SAPS   H8R 1116   5.284   1.173   7.523 -0.2197  3.1103  0.1829
    9SAPS   C29 1117   5.393   1.244   7.685 -0.0604 -0.2136 -0.1748
    9SAPS   H9R 1118   5.307   1.311   7.701 -1.2624 -1.6676 -0.3368
    9SAPS  C210 1119   5.501   1.255   7.794  0.4067  0.8794  0.9909
    9SAPS  H10R 1120   5.518   1.360   7.827 -0.5809  1.4275 -0.1491
    9SAPS  H10S 1121   5.593   1.207   7.755 -0.2964  0.7457 -0.5439
    9SAPS  C211 1122   5.457   1.170   7.903  0.8195  0.5264 -0.7242
    9SAPS  H11R 1123   5.475   1.064   7.879 -0.5409  0.1033  0.0313
    9SAPS  C212 1124   5.426   1.206   8.027  0.6541 -0.0696  0.3848
    9SAPS  H12R 1125   5.371   1.137   8.092 -0.1324  0.1680 -0.0140
    9SAPS  C213 1126   5.425   1.344   8.091 -0.3462  0.6109  1.0684
    9SAPS  H13R 1127   5.337   1.346   8.160 -0.1098  3.1812  1.4053
    9SAPS  H13S 1128   5.409   1.423   8.015 -1.2627 -0.9179 -0.3795
    9SAPS  C214 1129   5.560   1.372   8.158 -0.1172 -0.2096  0.0196
    9SAPS  H14R 1130   5.649   1.344   8.100 -0.3701  0.6915 -0.8425
    9SAPS  C215 1131   5.571   1.422   8.281  0.0970  0.3987  0.3070
    9SAPS  H15R 1132   5.673   1.430   8.322  0.7550 -1.1893 -0.8980
    9SAPS  C216 1133   5.453   1.458   8.371  0.0402 -0.6328  0.1512
    9SAPS  H16R 1134   5.365   1.394   8.351  1.0769 -1.0468 -3.7507
    9SAPS  H16S 1135   5.423   1.562   8.348  3.5187  1.0639  2.2974
    9SAPS  C217 1136   5.505   1.451   8.517  0.8955 -0.6604 -0.8544
    9SAPS  H17R 1137   5.434   1.516   8.572  1.0124 -0.8752 -0.4446
    9SAPS  H17S 1138   5.605   1.497   8.533  0.3367  0.9999 -1.9228
    9SAPS  C218 1139   5.473   1.315   8.576 -0.2054 -0.4339 -0.5378
    9SAPS  H18R 1140   5.489   1.230   8.507  1.6594  0.0172 -0.7134
    9SAPS  H18S 1141   5.363   1.317   8.594 -0.1415 -1.4489  0.0652
    9SAPS  C219 1142   5.568   1.291   8.695  0.7961 -0.0634  0.3016
    9SAPS  H19R 1143   5.665   1.267   8.646  0.0710  0.9086 -1.7398
    9SAPS  H19S 1144   5.529   1.208   8.758  2.2127  1.0893  2.8305
    9SAPS  C220 1145   5.581   1.416   8.789  0.1418 -0.3043  0.0451
    9SAPS  H20R 1146   5.635   1.388   8.881  0.6289  1.9275  0.4845
    9SAPS  H20S 1147   5.475   1.442   8.813 -1.5211 -4.0001 -2.2406
    9SAPS  H20T 1148   5.622   1.509   8.746 -0.1181 -0.4706 -0.5824
    9SAPS   C33 1149   5.768   1.484   7.082  0.2172  0.0955  0.2117
    9SAPS   H3X 1150   5.772   1.586   7.037 -1.3057 -0.1632 -0.6106
    9SAPS   H3Y 1151   5.826   1.484   7.176  1.4156 -0.8666 -0.4960
    9SAPS   C34 1152   5.617   1.454   7.114  0.3708  0.0572 -0.0196
    9SAPS   H4X 1153   5.610   1.349   7.151 -1.6622  0.5458  1.1477
    9SAPS   H4Y 1154   5.562   1.456   7.017  0.0743 -2.7548 -0.0092
    9SAPS   C35 1155   5.553   1.549   7.212 -0.2078  1.3896 -0.2370
    9SAPS   H5X 1156   5.443   1.536   7.218 -0.3817  0.8301 -3.1382
    9SAPS   H5Y 1157   5.574   1.651   7.173  0.1897  0.0902 -3.7413
    9SAPS   C36 1158   5.606   1.534   7.362 -0.4028 -0.3917 -0.7093
    9SAPS   H6X 1159   5.717   1.534   7.370 -0.2901 -2.1743 -1.7366
    9SAPS   H6Y 1160   5.575   1.433   7.397 -0.3755  0.4342  1.8777
    9SAPS   C37 1161   5.537   1.629   7.458  0.7455 -0.0378 -1.3667
    9SAPS   H7X 1162   5.430   1.635   7.430  0.8273  3.4482 -1.3916
    9SAPS   H7Y 1163   5.584   1.726   7.429 -2.1781  1.6029 -0.9473
    9SAPS   C38 1164   5.567   1.596   7.609 -0.1958  1.0756  0.6259
    9SAPS   H8X 1165   5.677   1.605   7.623  0.4262 -0.6086 -2.3989
    9SAPS   H8Y 1166   5.522   1.498   7.636  1.8304  0.0689  0.4953
    9SAPS   C39 1167   5.514   1.705   7.706 -0.0807 -1.1054  0.2590
    9SAPS   H9X 1168   5.404   1.716   7.699  0.0281  0.6237  0.8003
    9SAPS   H9Y 1169   5.556   1.804   7.678 -0.0621 -1.2234 -0.1440
    9SAPS  C310 1170   5.525   1.662   7.856 -0.0393  0.6479 -0.2755
    9SAPS  H10X 1171   5.631   1.648   7.885 -0.5022 -0.7243  0.8568
    9SAPS  H10Y 1172   5.477   1.566   7.883  0.5149  0.6002  0.5711
    9SAPS  C311 1173   5.473   1.784   7.938  0.2741 -0.0145  0.3659
    9SAPS  H11X 1174   5.365   1.801   7.915  0.5508  0.2472 -0.8173
    9SAPS  H11Y 1175   5.525   1.878   7.908  2.2061 -0.3583  2.4017
    9SAPS  C312 1176   5.504   1.772   8.091 -0.4188  0.3162 -0.2268
    9SAPS  H12X 1177   5.615   1.770   8.101 -0.1138  1.2721 -2.6566
    9SAPS  H12Y 1178   5.465   1.673   8.121  0.6584 -0.5664 -1.6052
    9SAPS  C313 1179   5.459   1.889   8.177 -0.0067 -0.0785 -0.3865
    9SAPS  H13X 1180   5.352   1.910   8.155  0.2737  0.8927 -0.8945
    9SAPS  H13Y 1181   5.514   1.984   8.160  1.4938 -0.7958  0.2640
    9SAPS  C314 1182   5.471   1.864   8.328  0.0047  0.4364 -0.1108
    9SAPS  H14X 1183   5.579   1.855   8.355 -0.2827 -1.2510  0.6082
    9SAPS  H14Y 1184   5.427   1.768   8.361  3.9222 -0.6001  2.8953
    9SAPS  C315 1185   5.415   1.973   8.426 -0.1609  0.1928  0.1578
    9SAPS  H15X 1186   5.308   1.959   8.398 -0.5560 -0.8399  2.0116
    9SAPS  H15Y 1187   5.447   2.075   8.396  1.6117 -0.3861 -0.0090
    9SAPS  C316 1188   5.432   1.950   8.576 -0.4049  0.6462  0.1948
    9SAPS  H16X 1189   5.375   2.019   8.641  1.1265  1.4647  0.7074
    9SAPS  H16Y 1190   5.535   1.974   8.611 -0.0270 -0.1045 -0.3673
    9SAPS  C317 1191   5.416   1.803   8.611 -0.0122  0.2367  0.0311
    9SAPS  H17X 1192   5.497   1.734   8.581 -1.7058 -1.0382 -1.8279
    9SAPS  H17Y 1193   5.326   1.764   8.559  0.8404  0.4128 -1.6529
    9SAPS  C318 1194   5.390   1.775   8.758  0.2334  0.1238 -0.3738
    9SAPS  H18X 1195   5.290   1.818   8.781  0.1590 -0.8626  1.3283
    9SAPS  H18Y 1196   5.463   1.827   8.823 -0.3555 -1.2707  1.4975
    9SAPS  H18Z 1197   5.377   1.666   8.777  0.3422 -0.1704 -1.8757
   10SAPS     N 1198   6.438   2.034   5.984 -0.8007  0.5855  0.3644
   10SAPS   HN1 1199   6.422   2.056   5.884 -0.8549  0.5321  0.3614
   10SAPS   HN2 1200   6.500   1.950   5.982 -0.5615  0.7792 -1.0986
   10SAPS   HN3 1201   6.350   1.998   6.024  0.1302 -0.2126  1.7875
   10SAPS   C12 1202   6.490   2.138   6.077 -0.2346  0.2906 -0.1196
   10SAPS  H12A 1203   6.581   2.173   6.032 -0.2499 -0.8646 -1.0999
   10SAPS   C13 1204   6.397   2.261   6.112 -0.4950  0.6867  0.1149
   10SAPS  O13A 1205   6.296   2.298   6.050 -0.3340 -0.0357  0.2169
   10SAPS  O13B 1206   6.461   2.345   6.181  0.2601  0.4247 -0.3349
   10SAPS   C11 1207   6.529   2.056   6.208 -0.3804 -0.2653 -0.2763
   10SAPS  H11A 1208   6.441   2.009   6.257  0.6948 -1.5880  0.4526
   10SAPS  H11B 1209   6.578   2.126   6.278  1.4192 -0.3681 -1.3498
   10SAPS     P 1210   6.771   1.941   6.203  0.0867  0.2124  0.2409
   10SAPS   O13 1211   6.806   1.810   6.159  0.0999  0.0133 -0.2785
   10SAPS   O14 1212   6.830   2.059   6.132 -0.1522  0.0471  0.2637
   10SAPS   O12 1213   6.617   1.945   6.180  0.4932 -0.0793  0.3041
   10SAPS   O11 1214   6.791   1.954   6.356 -0.0822 -0.0479 -0.3070
   10SAPS    C1 1215   6.764   1.844   6.441 -0.1592 -0.0883 -0.3699
   10SAPS    HA 1216   6.770   1.746   6.389 -0.3903 -0.2058 -0.1717
   10SAPS    HB 1217   6.841   1.845   6.521  0.5158  0.4891 -1.0031
   10SAPS    C2 1218   6.625   1.855   6.515  0.6598 -0.1527 -0.4214
   10SAPS    HS 1219   6.553   1.878   6.434 -0.8783  0.5820  1.1176
   10SAPS   O21 1220   6.640   1.969   6.599  0.1486 -0.2700  0.3233
   10SAPS   C21 1221   6.535   2.018   6.645 -0.0182  0.1459 -0.1831
   10SAPS   O22 1222   6.419   2.006   6.608  0.1070 -0.4087  0.4569
   10SAPS   C22 1223   6.570   2.105   6.766  0.3805  0.0780  1.3141
   10SAPS   H2R 1224   6.600   2.040   6.851  0.9654 -0.2724  0.8442
   10SAPS   H2S 1225   6.650   2.170   6.724 -0.1611 -0.3551 -0.4659
   10SAPS    C3 1226   6.589   1.729   6.598 -0.3934  0.0134  0.1933
   10SAPS    HX 1227   6.652   1.648   6.556  1.3528  2.1460 -1.5402
   10SAPS    HY 1228   6.482   1.706   6.581 -0.2154 -0.0599 -0.9187
   10SAPS   O31 1229   6.606   1.748   6.740 -0.1059 -0.1114 -1.0329
   10SAPS   C31 1230   6.714   1.702   6.791  0.4755  0.2489 -0.4228
   10SAPS   O32 1231   6.815   1.664   6.730 -0.2293  0.1561  0.1932
   10SAPS   C32 1232   6.693   1.693   6.943  0.4571  0.4075 -0.3121
   10SAPS   H2X 1233   6.586   1.692   6.973  0.5803 -2.0107  0.2453
   10SAPS   H2Y 1234   6.736   1.785   6.988  0.5040 -0.3297  1.1936
   10SAPS   C23 1235   6.455   2.193   6.819  0.4040  0.0350  0.0534
   10SAPS   H3R 1236   6.364   2.128   6.819  0.6097 -0.2549 -0.2096
   10SAPS   H3S 1237   6.421   2.268   6.744 -1.4441 -1.3653 -0.5933
   10SAPS   C24 1238   6.474   2.241   6.960  0.5578 -0.5185 -0.4428
   10SAPS   H4R 1239   6.579   2.278   6.970 -0.2385  1.4707  1.4355
   10SAPS   H4S 1240   6.479   2.156   7.031 -0.2785  0.3746  0.7224
   10SAPS   C25 1241   6.371   2.337   7.007  0.4257  0.7089  0.0965
   10SAPS   H5R 1242   6.267   2.321   6.973  0.6285  1.2857 -0.8278
   10SAPS   C26 1243   6.398   2.437   7.094  0.3523  0.1649  0.2700
   10SAPS   H6R 1244   6.316   2.505   7.122 -0.9024 -2.2257  2.9527
   10SAPS   C27 1245   6.528   2.455   7.173 -0.0285  0.0409 -0.1280
   10SAPS   H7R 1246   6.620   2.426   7.120 -0.3747 -2.3707  0.5015
   10SAPS   H7S 1247   6.527   2.398   7.268  1.6764  0.8738  0.4262
   10SAPS   C28 1248   6.536   2.600   7.203  0.3500 -0.0192  0.0963
   10SAPS   H8R 1249   6.531   2.666   7.116  3.0214 -0.6582 -0.6257
   10SAPS   C29 1250   6.561   2.655   7.323  0.0735 -0.5512 -0.0388
   10SAPS   H9R 1251   6.557   2.765   7.330 -0.0024 -0.5866  0.5307
   10SAPS  C210 1252   6.582   2.586   7.453  0.4333 -0.5075  0.0277
   10SAPS  H10R 1253   6.675   2.632   7.492 -0.8482  1.5956  0.7747
   10SAPS  H10S 1254   6.608   2.479   7.439  1.4712 -0.5179  1.7696
   10SAPS  C211 1255   6.474   2.602   7.552  0.4046  0.6398  0.2457
   10SAPS  H11R 1256   6.372   2.580   7.518 -0.1343 -0.0322  2.1636
   10SAPS  C212 1257   6.494   2.637   7.675  0.4462  0.3082 -0.8614
   10SAPS  H12R 1258   6.408   2.641   7.743  0.0638  1.2034 -1.3751
   10SAPS  C213 1259   6.622   2.671   7.745 -0.1332 -0.1127 -0.6417
   10SAPS  H13R 1260   6.680   2.746   7.686  1.1246  0.8470  1.6472
   10SAPS  H13S 1261   6.692   2.586   7.759 -0.1932  0.1083  1.2534
   10SAPS  C214 1262   6.602   2.749   7.877  0.0730 -0.2603  0.4932
   10SAPS  H14R 1263   6.612   2.859   7.873 -1.7241 -0.0304  1.3975
   10SAPS  C215 1264   6.570   2.689   8.000 -0.3708  0.0892 -0.0537
   10SAPS  H15R 1265   6.550   2.758   8.084  5.1337  2.1696 -0.0644
   10SAPS  C216 1266   6.559   2.536   8.015  0.0295  0.0921  0.5389
   10SAPS  H16R 1267   6.530   2.488   7.919  2.3245  2.6898 -1.6596
   10SAPS  H16S 1268   6.473   2.512   8.082  0.6370 -0.5496  1.0946
   10SAPS  C217 1269   6.688   2.478   8.074  0.6331 -0.0945 -0.3989
   10SAPS  H17R 1270   6.703   2.520   8.176 -0.3023 -1.6173  0.3981
   10SAPS  H17S 1271   6.780   2.512   8.022  0.3088 -1.2730 -1.7830
   10SAPS  C218 1272   6.684   2.326   8.095  0.0862 -0.4029 -0.3968
   10SAPS  H18R 1273   6.787   2.285   8.106  0.3132  0.1900 -0.2699
   10SAPS  H18S 1274   6.640   2.277   8.005 -0.6939  0.1970 -0.3508
   10SAPS  C219 1275   6.607   2.292   8.224 -0.4976 -0.4277  0.7118
   10SAPS  H19R 1276   6.500   2.322   8.218 -0.5188  0.1397  2.9285
   10SAPS  H19S 1277   6.645   2.342   8.316 -0.1428 -2.7025  1.8859
   10SAPS  C220 1278   6.603   2.140   8.251 -0.2406 -0.2482  0.3853
   10SAPS  H20R 1279   6.512   2.094   8.293 -0.0100  0.0218  1.1922
   10SAPS  H20S 1280   6.694   2.108   8.307  1.6378 -0.1746 -2.3976
   10SAPS  H20T 1281   6.601   2.079   8.158 -0.8560  0.2123  0.0867
   10SAPS   C33 1282   6.753   1.560   7.000 -0.1659  0.5328  0.1312
   10SAPS   H3X 1283   6.862   1.577   6.988 -0.0441 -0.6310 -0.5235
   10SAPS   H3Y 1284   6.718   1.466   6.953 -0.3373 -0.7758  2.6799
   10SAPS   C34 1285   6.720   1.534   7.149 -0.4549 -0.8281  0.3573
   10SAPS   H4X 1286   6.753   1.435   7.186 -0.2960 -0.5774  0.9066
   10SAPS   H4Y 1287   6.611   1.551   7.159 -0.3246 -0.8131  2.2112
   10SAPS   C35 1288   6.796   1.634   7.239 -0.1599  0.2768 -0.1688
   10SAPS   H5X 1289   6.747   1.733   7.225 -1.2147  0.0665  1.6597
   10SAPS   H5Y 1290   6.905   1.630   7.218  0.2899 -0.1702  1.9848
   10SAPS   C36 1291   6.780   1.603   7.392 -0.2495  0.0369  0.3451
   10SAPS   H6X 1292   6.817   1.500   7.412 -2.3217 -1.4401 -2.6082
   10SAPS   H6Y 1293   6.670   1.594   7.408 -0.6764  0.8987 -1.7481
   10SAPS   C37 1294   6.845   1.715   7.473  0.5586 -0.0939 -0.1142
   10SAPS   H7X 1295   6.787   1.805   7.444 -0.0266 -1.2429 -2.8033
   10SAPS   H7Y 1296   6.954   1.724   7.454  0.9828 -0.5165  1.8829
   10SAPS   C38 1297   6.821   1.711   7.628 -0.6433 -0.3354 -0.2256
   10SAPS   H8X 1298   6.875   1.621   7.666 -0.8160  0.2784  1.5948
   10SAPS   H8Y 1299   6.717   1.690   7.661 -0.3559 -0.4443  0.6608
   10SAPS   C39 1300   6.884   1.821   7.712 -0.2778  1.2123  0.2599
   10SAPS   H9X 1301   6.825   1.912   7.691 -0.7657  1.0234  0.7769
   10SAPS   H9Y 1302   6.990   1.833   7.684 -0.2200 -0.3823 -0.3305
   10SAPS  C310 1303   6.871   1.804   7.867  0.0536  0.2360  0.7117
   10SAPS  H10X 1304   6.909   1.899   7.912  1.3103  0.5336 -0.8612
   10SAPS  H10Y 1305   6.934   1.717   7.895  1.6727  0.7348 -1.1348
   10SAPS  C311 1306   6.736   1.774   7.921  0.1912  0.3191  0.1915
   10SAPS  H11X 1307   6.726   1.664   7.907  1.1511  0.1792  0.5512
   10SAPS  H11Y 1308   6.667   1.842   7.866  0.7018 -1.2642 -2.5476
   10SAPS  C312 1309   6.729   1.794   8.082  0.8184  0.7593  0.4081
   10SAPS  H12X 1310   6.630   1.769   8.126  2.1209 -0.4823  2.7863
   10SAPS  H12Y 1311   6.736   1.904   8.099 -0.7912  0.6261  2.2641
   10SAPS  C313 1312   6.832   1.717   8.165  0.0165  0.2089  0.1022
   10SAPS  H13X 1313   6.925   1.761   8.123  0.4392 -0.3547  0.4314
   10SAPS  H13Y 1314   6.823   1.608   8.143  0.5896 -0.0304  0.9920
   10SAPS  C314 1315   6.829   1.751   8.312  0.3445  0.0441  0.3850
   10SAPS  H14X 1316   6.723   1.753   8.345 -0.2646 -0.5642 -1.4374
   10SAPS  H14Y 1317   6.862   1.855   8.331 -1.7402  0.4791  2.0656
   10SAPS  C315 1318   6.902   1.654   8.402 -0.1509 -0.7034 -0.2935
   10SAPS  H15X 1319   6.892   1.688   8.507  0.0471 -0.5826 -0.3137
   10SAPS  H15Y 1320   7.010   1.650   8.373  0.0777  1.9454 -0.0344
   10SAPS  C316 1321   6.855   1.508   8.395  0.1101 -0.7222  0.3240
   10SAPS  H16X 1322   6.888   1.453   8.304  5.1553  2.0209  0.1193
   10SAPS  H16Y 1323   6.745   1.503   8.406  0.1824  0.4000  1.9101
   10SAPS  C317 1324   6.912   1.416   8.503 -0.0454 -0.6812 -0.2849
   10SAPS  H17X 1325   6.872   1.454   8.600 -1.9155 -1.7800 -0.5656
   10SAPS  H17Y 1326   7.023   1.424   8.501 -0.0654  0.1998 -3.0580
   10SAPS  C318 1327   6.873   1.277   8.487 -0.3287  0.2207 -0.2867
   10SAPS  H18X 1328   6.908   1.236   8.390 -2.2838 -1.1860 -0.4559
   10SAPS  H18Y 1329   6.764   1.255   8.496 -0.2793 -0.2089 -0.7107
   10SAPS  H18Z 1330   6.927   1.210   8.558  2.6040  2.6127 -0.0364
   11SAPS     N 1331   1.116   5.790   5.847 -0.3945  0.0917  0.5338
   11SAPS   HN1 1332   1.072   5.790   5.754  1.6352  1.6583 -0.5123
   11SAPS   HN2 1333   1.032   5.782   5.908 -1.0532 -2.0640 -0.5562
   11SAPS   HN3 1334   1.164   5.882   5.856  0.9277 -0.3968 -1.0377
   11SAPS   C12 1335   1.209   5.675   5.861 -0.6328  0.2590 -0.5305
   11SAPS  H12A 1336   1.180   5.599   5.789  0.2953  1.1083 -1.8499
   11SAPS   C13 1337   1.360   5.705   5.832 -0.2622 -0.3111  0.2722
   11SAPS  O13A 1338   1.386   5.831   5.820  0.3769 -0.1579 -0.7358
   11SAPS  O13B 1339   1.447   5.617   5.866  0.4956 -0.1048  0.5752
   11SAPS   C11 1340   1.198   5.608   6.000  0.7541 -0.8043 -0.2294
   11SAPS  H11A 1341   1.219   5.685   6.078  1.3341 -0.3423 -0.8363
   11SAPS  H11B 1342   1.277   5.531   6.013 -2.0006 -3.5250  2.0885
   11SAPS     P 1343   0.959   5.609   6.113  0.0411  0.0061 -0.1024
   11SAPS   O13 1344   0.938   5.743   6.059  0.3837  0.1340  0.4760
   11SAPS   O14 1345   0.845   5.517   6.115 -0.0863 -0.4563  0.1801
   11SAPS   O12 1346   1.070   5.545   6.028 -0.3857 -0.2929  0.7021
   11SAPS   O11 1347   1.023   5.633   6.252 -0.9832  0.6030 -0.6158
   11SAPS    C1 1348   0.982   5.567   6.372  0.1903  0.1609 -0.1777
   11SAPS    HA 1349   0.958   5.461   6.349 -0.0008  0.4484 -1.4147
   11SAPS    HB 1350   1.071   5.554   6.436  0.0128 -1.0492 -0.1546
   11SAPS    C2 1351   0.867   5.651   6.435 -0.1269 -0.4860 -0.6743
   11SAPS    HS 1352   0.793   5.667   6.354 -0.5751  2.1661  0.1786
   11SAPS   O21 1353   0.922   5.778   6.487  0.6393 -0.7707  0.7075
   11SAPS   C21 1354   0.826   5.871   6.502 -0.1590 -0.0692  0.3655
   11SAPS   O22 1355   0.716   5.858   6.456 -0.5326  0.2803  0.2672
   11SAPS   C22 1356   0.879   5.996   6.570 -0.5770 -0.5778  0.3909
   11SAPS   H2R 1357   0.897   5.953   6.671 -0.7862 -1.6100  0.0071
   11SAPS   H2S 1358   0.975   6.024   6.520 -1.6243 -1.1360 -2.1022
   11SAPS    C3 1359   0.792   5.575   6.547  1.0153 -0.0257 -0.0818
   11SAPS    HX 1360   0.743   5.490   6.494  1.3147  0.3803 -1.0326
   11SAPS    HY 1361   0.726   5.644   6.604 -1.0689 -2.6410  0.8642
   11SAPS   O31 1362   0.882   5.515   6.641 -0.4413  0.1005  0.3467
   11SAPS   C31 1363   0.831   5.487   6.757 -0.7501  0.4076  0.2656
   11SAPS   O32 1364   0.715   5.513   6.789 -0.1810 -0.2042  0.1489
   11SAPS   C32 1365   0.938   5.416   6.839  0.3780  0.2107 -0.6046
   11SAPS   H2X 1366   1.038   5.430   6.793  0.8470 -1.4780 -0.1866
   11SAPS   H2Y 1367   0.911   5.309   6.828 -0.1665  0.3641 -0.8220
   11SAPS   C23 1368   0.786   6.118   6.574  0.1808 -0.0528  0.0426
   11SAPS   H3R 1369   0.688   6.069   6.593  1.7890 -2.5656  2.8492
   11SAPS   H3S 1370   0.781   6.177   6.480 -1.4262 -0.9774 -0.5055
   11SAPS   C24 1371   0.811   6.222   6.689 -0.6350  0.1783 -0.7194
   11SAPS   H4R 1372   0.789   6.173   6.786  0.7753  1.3108  0.2006
   11SAPS   H4S 1373   0.734   6.301   6.675  0.5248  1.1022 -2.1689
   11SAPS   C25 1374   0.946   6.293   6.679 -0.4169  0.2244  0.2246
   11SAPS   H5R 1375   0.949   6.354   6.588 -0.5242 -1.2231 -0.7707
   11SAPS   C26 1376   1.049   6.283   6.766  0.3713  0.6544  0.2489
   11SAPS   H6R 1377   1.142   6.340   6.752  1.2732 -0.5734  1.0346
   11SAPS   C27 1378   1.045   6.210   6.896 -0.3257  0.4799 -1.1815
   11SAPS   H7R 1379   0.976   6.128   6.870  0.3731  0.8452 -4.6942
   11SAPS   H7S 1380   0.986   6.273   6.966 -1.4049 -0.1884 -1.4645
   11SAPS   C28 1381   1.165   6.133   6.949  0.3536 -0.2972  0.0951
   11SAPS   H8R 1382   1.210   6.057   6.883  2.4354 -1.4993  2.6977
   11SAPS   C29 1383   1.214   6.145   7.071 -0.2401  0.1897  0.1663
   11SAPS   H9R 1384   1.298   6.078   7.089  0.1956 -0.9542 -4.6646
   11SAPS  C210 1385   1.180   6.234   7.189  0.3276  0.4542 -0.4351
   11SAPS  H10R 1386   1.125   6.316   7.137  0.0581  0.4465 -0.1644
   11SAPS  H10S 1387   1.271   6.270   7.242 -0.4032  0.3483  0.9372
   11SAPS  C211 1388   1.088   6.170   7.293 -0.0733  0.0572 -0.4333
   11SAPS  H11R 1389   0.989   6.145   7.252 -0.8563 -1.4512  2.1730
   11SAPS  C212 1390   1.109   6.143   7.424  0.2401  0.3149  0.4957
   11SAPS  H12R 1391   1.028   6.088   7.472 -0.5713  0.2652 -0.8546
   11SAPS  C213 1392   1.232   6.170   7.501 -0.0254  0.1203  0.2893
   11SAPS  H13R 1393   1.317   6.134   7.438 -0.6977  0.6008 -0.9427
   11SAPS  H13S 1394   1.224   6.126   7.602 -1.9295  2.3684  1.1991
   11SAPS  C214 1395   1.265   6.314   7.529  0.4598  0.2432 -0.2884
   11SAPS  H14R 1396   1.356   6.352   7.480  1.1693  0.4724  1.1412
   11SAPS  C215 1397   1.213   6.398   7.619  0.0878 -0.0590 -0.3024
   11SAPS  H15R 1398   1.249   6.502   7.617  2.0670 -0.6976 -0.1615
   11SAPS  C216 1399   1.094   6.366   7.708 -0.9309 -0.2046 -0.9206
   11SAPS  H16R 1400   1.122   6.344   7.813  0.2735 -0.4197 -1.2747
   11SAPS  H16S 1401   1.045   6.272   7.674  3.4534 -3.2386  0.3507
   11SAPS  C217 1402   0.991   6.478   7.688 -0.3574  0.5737  0.6608
   11SAPS  H17R 1403   1.038   6.574   7.717  1.5671 -0.3102  0.5691
   11SAPS  H17S 1404   0.924   6.459   7.774 -1.4948  2.0853  0.1734
   11SAPS  C218 1405   0.919   6.489   7.554 -0.4691 -0.2707 -0.0174
   11SAPS  H18R 1406   0.858   6.398   7.533 -0.1095 -0.7797  1.0815
   11SAPS  H18S 1407   0.993   6.487   7.471  0.5601  2.3977  0.7401
   11SAPS  C219 1408   0.836   6.613   7.533 -0.0803 -0.2375 -0.3210
   11SAPS  H19R 1409   0.797   6.624   7.430  2.2275 -1.8344 -1.4751
   11SAPS  H19S 1410   0.894   6.703   7.564 -0.0091  0.0449 -1.2539
   11SAPS  C220 1411   0.714   6.609   7.624  0.4011  0.0192 -0.3198
   11SAPS  H20R 1412   0.674   6.506   7.628  0.3284  0.0748  0.6309
   11SAPS  H20S 1413   0.632   6.681   7.600  0.3324  0.0179 -0.0938
   11SAPS  H20T 1414   0.740   6.643   7.727 -2.5544  0.8834  0.2540
   11SAPS   C33 1415   0.929   5.449   6.991  0.1515  0.6975 -0.0986
   11SAPS   H3X 1416   0.843   5.397   7.038 -0.7507 -0.1168 -2.5088
   11SAPS   H3Y 1417   0.935   5.556   7.020 -0.3023  0.8399 -0.5379
   11SAPS   C34 1418   1.063   5.391   7.054 -0.3684 -0.0317 -1.1755
   11SAPS   H4X 1419   1.150   5.452   7.023  2.1005 -3.6236 -1.9996
   11SAPS   H4Y 1420   1.090   5.295   7.005 -1.2851 -0.7661 -0.2925
   11SAPS   C35 1421   1.058   5.388   7.210 -0.0781 -0.0849 -0.2315
   11SAPS   H5X 1422   1.004   5.298   7.247 -0.1225 -0.0087 -0.1111
   11SAPS   H5Y 1423   1.004   5.475   7.254 -1.1208 -1.4306  1.2354
   11SAPS   C36 1424   1.198   5.369   7.271 -0.6121 -0.1179  0.3889
   11SAPS   H6X 1425   1.264   5.438   7.214 -0.3394 -0.7900 -0.1189
   11SAPS   H6Y 1426   1.238   5.267   7.254 -1.6892 -0.4396 -0.3023
   11SAPS   C37 1427   1.208   5.399   7.421  0.4695 -0.5441  0.3841
   11SAPS   H7X 1428   1.182   5.507   7.423 -1.2321 -0.8135 -2.1254
   11SAPS   H7Y 1429   1.313   5.387   7.455 -0.0334 -0.5942  1.9980
   11SAPS   C38 1430   1.104   5.318   7.498 -0.3923 -0.3905 -0.0164
   11SAPS   H8X 1431   1.122   5.210   7.484  1.8451  0.1939 -2.4986
   11SAPS   H8Y 1432   1.006   5.349   7.457 -0.2079 -0.5418 -0.5783
   11SAPS   C39 1433   1.108   5.354   7.647  0.1875  0.4925 -0.0562
   11SAPS   H9X 1434   1.038   5.290   7.705 -0.6638 -0.2281 -1.8294
   11SAPS   H9Y 1435   1.075   5.460   7.658  1.1509  0.7277  0.8351
   11SAPS  C310 1436   1.253   5.336   7.705  0.3921 -0.3173  0.4209
   11SAPS  H10X 1437   1.318   5.416   7.663  0.0934  0.5012  1.4647
   11SAPS  H10Y 1438   1.281   5.234   7.669 -1.8234 -0.7618 -0.1870
   11SAPS  C311 1439   1.261   5.338   7.861 -0.9457 -1.2010 -0.5654
   11SAPS  H11X 1440   1.371   5.326   7.875 -0.2219  2.9767 -1.3813
   11SAPS  H11Y 1441   1.195   5.261   7.907 -1.6186 -1.0801 -1.3071
   11SAPS  C312 1442   1.215   5.476   7.921  0.2115  0.9432  0.2624
   11SAPS  H12X 1443   1.104   5.470   7.924  0.1294  1.9985  3.4188
   11SAPS  H12Y 1444   1.246   5.565   7.861  1.8268 -0.0080 -0.3588
   11SAPS  C313 1445   1.276   5.499   8.063  0.3698  0.3629  0.2313
   11SAPS  H13X 1446   1.265   5.410   8.128 -0.8184 -1.2880 -2.0761
   11SAPS  H13Y 1447   1.210   5.569   8.119 -1.6856 -1.1810 -0.1423
   11SAPS  C314 1448   1.422   5.543   8.051  0.0893  0.2077  0.2312
   11SAPS  H14X 1449   1.447   5.565   7.945  2.1257  2.1298  1.0172
   11SAPS  H14Y 1450   1.484   5.463   8.097 -0.5887  0.2391  1.2198
   11SAPS  C315 1451   1.450   5.670   8.142  0.3610  0.5678 -0.1148
   11SAPS  H15X 1452   1.384   5.758   8.127 -0.1610  0.1620 -0.2165
   11SAPS  H15Y 1453   1.548   5.695   8.096  0.6949  0.8977  0.7503
   11SAPS  C316 1454   1.462   5.633   8.296 -0.2987 -0.0478  1.3581
   11SAPS  H16X 1455   1.534   5.548   8.302 -0.2427  0.0105  1.5041
   11SAPS  H16Y 1456   1.362   5.591   8.320 -0.5765 -0.6091 -0.5698
   11SAPS  C317 1457   1.506   5.746   8.387  0.0297  0.1690  0.8489
   11SAPS  H17X 1458   1.450   5.837   8.358 -2.3074 -1.7603 -1.2416
   11SAPS  H17Y 1459   1.616   5.753   8.371  0.1491 -1.8756  0.4442
   11SAPS  C318 1460   1.476   5.716   8.531 -0.6281  0.2612 -0.3234
   11SAPS  H18X 1461   1.369   5.698   8.557 -1.0517  1.2270 -1.2992
   11SAPS  H18Y 1462   1.508   5.790   8.607 -0.3032  0.0471 -0.2509
   11SAPS  H18Z 1463   1.540   5.627   8.549 -0.8084  0.4403  1.3628
   12SAPS     N 1464   1.224   4.358   5.897 -0.2397  0.3987 -0.1438
   12SAPS   HN1 1465   1.188   4.397   5.808 -1.2632 -3.0625 -1.3914
   12SAPS   HN2 1466   1.144   4.350   5.963  0.7216  1.9436  1.3086
   12SAPS   HN3 1467   1.293   4.425   5.939  1.4986 -1.3648 -0.0478
   12SAPS   C12 1468   1.303   4.239   5.861 -0.3175 -0.0492  0.7664
   12SAPS  H12A 1469   1.239   4.166   5.813 -2.6532  2.6929 -0.5786
   12SAPS   C13 1470   1.427   4.275   5.768  0.6062 -0.4326 -0.0055
   12SAPS  O13A 1471   1.467   4.389   5.739  0.5241 -0.1505 -0.1016
   12SAPS  O13B 1472   1.498   4.183   5.728  0.3094  0.5561 -0.4947
   12SAPS   C11 1473   1.354   4.164   5.993 -0.2979  0.0977  0.0964
   12SAPS  H11A 1474   1.392   4.238   6.067 -1.1670  1.3088 -0.6255
   12SAPS  H11B 1475   1.439   4.101   5.962  0.1571  0.7764 -0.0551
   12SAPS     P 1476   1.186   3.954   6.026  0.0188  0.2510 -0.3473
   12SAPS   O13 1477   1.100   3.964   5.906  0.0417 -0.5463  0.1035
   12SAPS   O14 1478   1.289   3.850   6.028 -0.2431 -0.5252 -0.2202
   12SAPS   O12 1479   1.249   4.096   6.057 -0.8437  0.8540  0.9061
   12SAPS   O11 1480   1.100   3.941   6.154 -0.1455  0.0842  0.1830
   12SAPS    C1 1481   1.127   3.996   6.284 -1.0344  0.5323  0.0481
   12SAPS    HA 1482   1.069   3.946   6.365  2.4440 -2.0721  1.1420
   12SAPS    HB 1483   1.235   3.988   6.306 -0.8479  2.5494  0.0605
   12SAPS    C2 1484   1.101   4.142   6.301  0.1058 -0.5877  0.2929
   12SAPS    HS 1485   1.174   4.205   6.245 -0.3158 -0.7461 -0.4550
   12SAPS   O21 1486   1.101   4.171   6.443 -0.5005 -0.2747 -0.4194
   12SAPS   C21 1487   1.121   4.301   6.473  0.6808  0.3734  0.0069
   12SAPS   O22 1488   1.143   4.395   6.397 -0.3937  0.1973  0.1445
   12SAPS   C22 1489   1.090   4.330   6.615  0.6213  1.3673 -1.0397
   12SAPS   H2R 1490   1.086   4.439   6.634  0.0483  1.0080  1.1600
   12SAPS   H2S 1491   0.995   4.281   6.646  0.2056  1.6187 -1.8888
   12SAPS    C3 1492   0.964   4.182   6.234  0.2851  0.5904  0.1587
   12SAPS    HX 1493   0.980   4.172   6.124 -1.5661  0.7084 -0.1619
   12SAPS    HY 1494   0.936   4.289   6.244  0.0503  0.4924  0.5495
   12SAPS   O31 1495   0.864   4.087   6.271  0.1107  0.2331  0.0137
   12SAPS   C31 1496   0.801   4.111   6.385 -0.6208  0.3479 -0.4482
   12SAPS   O32 1497   0.801   4.216   6.447  0.2443  0.1346  0.3196
   12SAPS   C32 1498   0.708   3.990   6.422  0.1264 -0.4150  0.6154
   12SAPS   H2X 1499   0.647   3.964   6.333  0.4329  0.6831  0.0693
   12SAPS   H2Y 1500   0.639   4.039   6.495 -0.5998 -0.7310  0.1510
   12SAPS   C23 1501   1.199   4.267   6.713 -0.5732 -0.4547  0.2982
   12SAPS   H3R 1502   1.294   4.287   6.660  0.2561  0.9358  2.1930
   12SAPS   H3S 1503   1.186   4.157   6.719 -2.7834 -0.2893 -0.3753
   12SAPS   C24 1504   1.213   4.326   6.850  0.2810 -0.2823 -0.3819
   12SAPS   H4R 1505   1.286   4.257   6.897  1.2380 -0.8838 -2.6317
   12SAPS   H4S 1506   1.127   4.315   6.920  0.8873  0.6353  0.5392
   12SAPS   C25 1507   1.277   4.460   6.864 -0.1083 -0.2680  1.1285
   12SAPS   H5R 1508   1.287   4.515   6.769 -0.9620 -1.0809  0.5482
   12SAPS   C26 1509   1.313   4.523   6.975 -0.6226 -0.2708  0.9590
   12SAPS   H6R 1510   1.358   4.622   6.962 -0.6234 -0.2712  0.9526
   12SAPS   C27 1511   1.300   4.469   7.112  0.2428 -0.2575  0.4571
   12SAPS   H7R 1512   1.301   4.358   7.110  2.5563 -0.2726 -1.4875
   12SAPS   H7S 1513   1.209   4.513   7.160 -1.3914 -3.0671  0.1690
   12SAPS   C28 1514   1.430   4.504   7.184  0.5403 -0.2349  0.6389
   12SAPS   H8R 1515   1.516   4.452   7.140 -0.5851 -3.2362  1.6831
   12SAPS   C29 1516   1.452   4.591   7.286  0.0944  0.2000  0.0050
   12SAPS   H9R 1517   1.552   4.605   7.330  0.9860 -0.1762 -1.7956
   12SAPS  C210 1518   1.346   4.677   7.350  0.8285 -0.0104  0.4479
   12SAPS  H10R 1519   1.361   4.674   7.460  2.3879  1.0394  0.2959
   12SAPS  H10S 1520   1.249   4.627   7.330  0.7325  1.3377 -3.2550
   12SAPS  C211 1521   1.344   4.818   7.294 -0.2560  0.0333  0.5272
   12SAPS  H11R 1522   1.341   4.832   7.185 -2.1901  2.3295  0.7802
   12SAPS  C212 1523   1.355   4.926   7.368 -0.7197 -0.4617  0.2406
   12SAPS  H12R 1524   1.343   5.022   7.316  0.1002 -1.1811 -1.3412
   12SAPS  C213 1525   1.368   4.943   7.516 -0.1272  0.3176  0.7756
   12SAPS  H13R 1526   1.322   4.852   7.560 -0.1387  0.2312  0.5828
   12SAPS  H13S 1527   1.315   5.034   7.551  2.4994  2.4508 -0.4275
   12SAPS  C214 1528   1.509   4.963   7.560 -0.1155  0.3321  0.4340
   12SAPS  H14R 1529   1.577   5.018   7.493 -2.5097  2.9263 -0.0602
   12SAPS  C215 1530   1.558   4.916   7.679 -0.0665 -0.3749  0.0310
   12SAPS  H15R 1531   1.664   4.942   7.697 -0.4049  1.5715 -0.5522
   12SAPS  C216 1532   1.480   4.849   7.792 -0.2032  0.4215 -0.0863
   12SAPS  H16R 1533   1.556   4.816   7.865  1.4402 -0.1690 -1.9613
   12SAPS  H16S 1534   1.432   4.757   7.754  2.3151 -1.2325  0.5104
   12SAPS  C217 1535   1.386   4.947   7.862  0.3354  0.1907 -0.3383
   12SAPS  H17R 1536   1.287   4.937   7.811 -0.8334 -0.4045  1.9063
   12SAPS  H17S 1537   1.422   5.051   7.853 -0.5293  0.4918 -0.4518
   12SAPS  C218 1538   1.374   4.903   8.008 -0.1513  0.5822 -0.2618
   12SAPS  H18R 1539   1.464   4.930   8.068  0.8006 -0.0338 -1.3567
   12SAPS  H18S 1540   1.381   4.793   7.996  0.6015  0.6975 -1.0134
   12SAPS  C219 1541   1.258   4.961   8.087  0.0906 -0.1370 -0.2244
   12SAPS  H19R 1542   1.159   4.961   8.039 -0.1506 -1.7543  0.2328
   12SAPS  H19S 1543   1.279   5.068   8.110  0.3424 -0.3840  0.7553
   12SAPS  C220 1544   1.243   4.891   8.229  0.0357  0.0558  0.8437
   12SAPS  H20R 1545   1.200   4.790   8.210 -3.7452  1.4659  1.0927
   12SAPS  H20S 1546   1.171   4.947   8.293  0.6232  0.5801  1.0529
   12SAPS  H20T 1547   1.346   4.875   8.267  0.1908  0.5736  0.6511
   12SAPS   C33 1548   0.779   3.865   6.481 -0.5037 -0.7458  0.0885
   12SAPS   H3X 1549   0.868   3.834   6.421  0.6923  1.4801  0.5918
   12SAPS   H3Y 1550   0.700   3.787   6.473 -1.7437  0.4866 -0.0473
   12SAPS   C34 1551   0.821   3.871   6.632 -0.1663 -0.4589  0.3377
   12SAPS   H4X 1552   0.830   3.770   6.677 -0.2967 -0.0742  1.2478
   12SAPS   H4Y 1553   0.736   3.917   6.687 -0.5137  0.2565 -0.7614
   12SAPS   C35 1554   0.948   3.950   6.659  0.1840  0.9105  0.2346
   12SAPS   H5X 1555   0.939   4.052   6.616  1.1318  1.0080  0.2520
   12SAPS   H5Y 1556   1.016   3.896   6.590 -0.6043 -2.0321  1.5695
   12SAPS   C36 1557   0.969   3.955   6.813 -0.3254  0.4971  0.2778
   12SAPS   H6X 1558   1.069   4.001   6.822 -0.2237  0.2477  0.4380
   12SAPS   H6Y 1559   0.979   3.855   6.862  1.8723  0.2628 -0.5800
   12SAPS   C37 1560   0.859   4.030   6.884 -0.2311 -0.2239 -0.1158
   12SAPS   H7X 1561   0.768   3.967   6.891 -0.1593 -0.8261 -3.3133
   12SAPS   H7Y 1562   0.822   4.119   6.830  0.4143 -0.6110 -1.2271
   12SAPS   C38 1563   0.898   4.079   7.024 -0.5533 -0.0235  0.0878
   12SAPS   H8X 1564   0.993   4.136   7.018  0.1811 -1.1563  0.5234
   12SAPS   H8Y 1565   0.937   3.997   7.088  0.4026  2.0447  2.3037
   12SAPS   C39 1566   0.806   4.162   7.116  0.0251  0.1526 -0.3073
   12SAPS   H9X 1567   0.719   4.101   7.150 -1.1243  1.9328  0.0488
   12SAPS   H9Y 1568   0.756   4.249   7.069  2.2830  1.0903 -1.1170
   12SAPS  C310 1569   0.875   4.214   7.244 -0.1490  0.7948  0.1448
   12SAPS  H10X 1570   0.970   4.272   7.241 -0.2230  1.2769  3.3262
   12SAPS  H10Y 1571   0.893   4.122   7.304 -0.1372 -0.4330 -1.6874
   12SAPS  C311 1572   0.784   4.305   7.318 -0.2376 -0.8976 -0.5671
   12SAPS  H11X 1573   0.675   4.292   7.298 -0.3545  2.7543 -3.1284
   12SAPS  H11Y 1574   0.792   4.410   7.284 -0.8742 -0.2903  1.0428
   12SAPS  C312 1575   0.815   4.306   7.464 -0.3616  0.1790 -0.5936
   12SAPS  H12X 1576   0.908   4.364   7.478 -0.1194 -0.3990  0.2582
   12SAPS  H12Y 1577   0.841   4.204   7.497 -0.9333  0.2771  0.1992
   12SAPS  C313 1578   0.716   4.354   7.577  0.1702  0.4605  0.3324
   12SAPS  H13X 1579   0.628   4.288   7.592  1.3805 -1.3675 -0.3173
   12SAPS  H13Y 1580   0.671   4.451   7.546 -2.6005 -0.7149  0.3221
   12SAPS  C314 1581   0.789   4.374   7.720  0.4420  0.0007 -0.0347
   12SAPS  H14X 1582   0.740   4.457   7.776  1.7956 -0.3349  1.7425
   12SAPS  H14Y 1583   0.889   4.413   7.693  1.8165 -1.5957  2.3987
   12SAPS  C315 1584   0.806   4.244   7.800 -0.0054 -0.8715 -0.7043
   12SAPS  H15X 1585   0.869   4.189   7.727  0.8097 -1.0305  0.1008
   12SAPS  H15Y 1586   0.712   4.191   7.826  0.4996 -1.9074 -0.9490
   12SAPS  C316 1587   0.880   4.274   7.930  0.1556 -0.7988  0.1691
   12SAPS  H16X 1588   0.969   4.340   7.925 -0.5732  0.1935 -0.0764
   12SAPS  H16Y 1589   0.906   4.177   7.976 -1.5944 -1.5373 -0.2977
   12SAPS  C317 1590   0.788   4.330   8.043 -0.3217 -0.6552  0.4640
   12SAPS  H17X 1591   0.688   4.282   8.032 -0.1633 -0.9733  0.4065
   12SAPS  H17Y 1592   0.771   4.435   8.013 -0.0232 -1.3343 -2.3811
   12SAPS  C318 1593   0.843   4.319   8.186  0.0769  0.7347 -0.2319
   12SAPS  H18X 1594   0.940   4.371   8.194  0.8062 -0.4811 -0.7852
   12SAPS  H18Y 1595   0.870   4.217   8.221  0.9429  0.8628 -0.5113
   12SAPS  H18Z 1596   0.758   4.360   8.243  0.0601 -0.1638  0.4065
   13SAPS     N 1597   1.287   1.788   6.311 -0.6143 -0.3429  0.5899
   13SAPS   HN1 1598   1.296   1.707   6.247 -1.4494 -0.2977  0.4088
   13SAPS   HN2 1599   1.302   1.748   6.406 -0.7837 -0.1694  0.6915
   13SAPS   HN3 1600   1.187   1.816   6.313 -1.3151 -2.6261  1.6826
   13SAPS   C12 1601   1.381   1.900   6.272  0.5056 -0.5343 -0.1726
   13SAPS  H12A 1602   1.449   1.906   6.356 -2.4249  2.3344  2.3141
   13SAPS   C13 1603   1.456   1.888   6.137  0.8546 -0.4962  0.4023
   13SAPS  O13A 1604   1.424   1.796   6.052  0.4179 -0.0633  0.6949
   13SAPS  O13B 1605   1.541   1.969   6.112 -0.4177 -0.6357  0.1493
   13SAPS   C11 1606   1.312   2.046   6.284 -0.1991  0.3417  0.9913
   13SAPS  H11A 1607   1.246   2.048   6.194 -0.6023 -3.0729  1.0516
   13SAPS  H11B 1608   1.393   2.121   6.272  0.6574 -0.5780  0.8750
   13SAPS     P 1609   1.155   2.178   6.445  0.1573 -0.2087  0.1088
   13SAPS   O13 1610   1.226   2.304   6.425 -0.2945 -0.1113  0.4772
   13SAPS   O14 1611   1.034   2.154   6.361  0.4245 -0.0668 -0.0312
   13SAPS   O12 1612   1.250   2.054   6.418  0.1366  0.0228  0.4341
   13SAPS   O11 1613   1.115   2.168   6.598  0.3001 -0.0348 -0.3844
   13SAPS    C1 1614   1.200   2.092   6.688  0.5953 -0.6503 -0.3762
   13SAPS    HA 1615   1.175   1.984   6.695  1.8548 -1.1077 -2.3100
   13SAPS    HB 1616   1.309   2.083   6.669  0.8873 -0.9862  1.2376
   13SAPS    C2 1617   1.189   2.155   6.832  0.1497  0.1451  0.0132
   13SAPS    HS 1618   1.267   2.113   6.899  0.5818  0.2575 -0.4105
   13SAPS   O21 1619   1.067   2.118   6.898 -0.2006 -0.2079 -0.1132
   13SAPS   C21 1620   1.049   1.997   6.947  0.3664  0.5065  0.2876
   13SAPS   O22 1621   1.130   1.907   6.930 -0.0547 -0.0958 -0.3830
   13SAPS   C22 1622   0.919   1.977   7.023 -0.3181 -0.5230  0.3851
   13SAPS   H2R 1623   0.842   2.020   6.956 -0.5885 -2.7322 -0.8224
   13SAPS   H2S 1624   0.886   1.871   7.026  1.9965 -1.2843  0.6284
   13SAPS    C3 1625   1.200   2.306   6.808  0.1290  0.6134 -1.4531
   13SAPS    HX 1626   1.115   2.345   6.747 -1.5219  0.0418  0.3790
   13SAPS    HY 1627   1.291   2.322   6.746  0.3993  1.1747 -0.9282
   13SAPS   O31 1628   1.219   2.373   6.938 -0.1478  0.4807  0.6671
   13SAPS   C31 1629   1.133   2.461   6.981  0.1477 -0.0498 -0.2210
   13SAPS   O32 1630   1.021   2.481   6.931 -0.0079 -0.1198 -0.5586
   13SAPS   C32 1631   1.186   2.516   7.117  1.0211 -0.4223 -0.2688
   13SAPS   H2X 1632   1.294   2.537   7.108  0.6512  1.6067 -0.4261
   13SAPS   H2Y 1633   1.175   2.429   7.186  1.6635  0.7412  1.3739
   13SAPS   C23 1634   0.912   2.035   7.164  0.0750 -0.5260 -0.8490
   13SAPS   H3R 1635   0.804   2.045   7.188  0.4517  1.4063  0.2736
   13SAPS   H3S 1636   0.949   2.139   7.172 -0.0167 -0.5255 -0.4095
   13SAPS   C24 1637   0.991   1.960   7.268  0.4484 -0.2914  0.1696
   13SAPS   H4R 1638   1.017   2.034   7.347 -1.8239 -0.3296  1.0295
   13SAPS   H4S 1639   1.088   1.920   7.229  0.7158 -1.6236  2.0596
   13SAPS   C25 1640   0.920   1.844   7.328 -0.1362  0.7274 -0.1116
   13SAPS   H5R 1641   0.902   1.762   7.258  0.3273  0.7315 -0.2359
   13SAPS   C26 1642   0.887   1.831   7.455 -0.5118  0.1437  0.2662
   13SAPS   H6R 1643   0.854   1.729   7.481 -0.0596 -0.4965 -1.5083
   13SAPS   C27 1644   0.924   1.928   7.568 -0.0085  0.0320  0.4656
   13SAPS   H7R 1645   0.874   1.888   7.658 -1.4860  1.9969  0.5941
   13SAPS   H7S 1646   0.868   2.024   7.567 -2.1847 -1.1556 -1.1720
   13SAPS   C28 1647   1.075   1.938   7.598 -0.4328 -0.0193  0.6900
   13SAPS   H8R 1648   1.132   1.843   7.600 -1.4862 -0.6998  3.5875
   13SAPS   C29 1649   1.145   2.048   7.628  0.4064  0.4385 -0.7333
   13SAPS   H9R 1650   1.252   2.037   7.653  0.1864 -2.3493 -0.6593
   13SAPS  C210 1651   1.095   2.184   7.632  0.2623 -0.3808 -0.0990
   13SAPS  H10R 1652   1.107   2.240   7.728 -1.0176  0.2667 -0.2818
   13SAPS  H10S 1653   0.984   2.189   7.636  0.3049  0.1009  1.0196
   13SAPS  C211 1654   1.130   2.270   7.513  0.6926  0.2866  0.3835
   13SAPS  H11R 1655   1.107   2.229   7.413 -1.7512 -0.6899  1.2581
   13SAPS  C212 1656   1.189   2.390   7.514 -0.2902  0.6888  0.3101
   13SAPS  H12R 1657   1.202   2.449   7.422 -0.1392  1.1237  0.6076
   13SAPS  C213 1658   1.235   2.464   7.638  0.1904 -0.9574  0.2229
   13SAPS  H13R 1659   1.344   2.484   7.632 -0.1220  2.0340  2.4031
   13SAPS  H13S 1660   1.218   2.404   7.730 -0.9234  2.2283  2.2394
   13SAPS  C214 1661   1.165   2.599   7.666  0.0645  0.0467 -0.2473
   13SAPS  H14R 1662   1.084   2.631   7.599 -2.5849  1.0163  3.1102
   13SAPS  C215 1663   1.195   2.682   7.769  0.1034 -0.3250 -0.0788
   13SAPS  H15R 1664   1.156   2.785   7.769 -0.3236 -0.4223  2.1737
   13SAPS  C216 1665   1.305   2.657   7.869  0.3607 -0.4768  0.3699
   13SAPS  H16R 1666   1.370   2.747   7.862  0.5238 -0.6234  0.0033
   13SAPS  H16S 1667   1.382   2.582   7.842  0.7704 -0.4815  1.4786
   13SAPS  C217 1668   1.273   2.617   8.013 -0.0564 -0.9002  0.3131
   13SAPS  H17R 1669   1.374   2.612   8.060  0.5125  1.6157 -0.4755
   13SAPS  H17S 1670   1.219   2.521   8.020 -0.9988 -0.6401 -2.3882
   13SAPS  C218 1671   1.183   2.717   8.087  0.5546  0.1944 -0.3977
   13SAPS  H18R 1672   1.074   2.698   8.082  0.6892 -1.2927  1.2499
   13SAPS  H18S 1673   1.208   2.822   8.061 -0.4837  0.3265 -0.8869
   13SAPS  C219 1674   1.228   2.702   8.232  0.0739  0.4583 -0.6500
   13SAPS  H19R 1675   1.335   2.720   8.256 -0.5579 -0.4182  3.5442
   13SAPS  H19S 1676   1.213   2.592   8.236  1.8052  0.0016 -3.4077
   13SAPS  C220 1677   1.140   2.783   8.336 -0.6949  0.6716  0.6917
   13SAPS  H20R 1678   1.187   2.774   8.436  1.3087  0.3887 -0.2297
   13SAPS  H20S 1679   1.033   2.756   8.327 -0.7077  0.7323  0.6647
   13SAPS  H20T 1680   1.145   2.887   8.299  0.8009  0.5253  0.4204
   13SAPS   C33 1681   1.099   2.644   7.168  0.5068 -0.2492  0.1186
   13SAPS   H3X 1682   1.092   2.719   7.087 -2.6076 -1.2384 -0.6658
   13SAPS   H3Y 1683   1.164   2.677   7.252  3.0609  0.2172 -1.8823
   13SAPS   C34 1684   0.962   2.608   7.217  0.6032 -0.2656  0.0837
   13SAPS   H4X 1685   0.955   2.514   7.275 -3.3973 -0.1440  0.0666
   13SAPS   H4Y 1686   0.886   2.587   7.139  1.2356 -1.2810 -0.2831
   13SAPS   C35 1687   0.924   2.712   7.325  0.2893 -0.0578  0.9782
   13SAPS   H5X 1688   0.932   2.812   7.277  3.7898 -0.5057  0.3470
   13SAPS   H5Y 1689   1.011   2.707   7.394  0.3779 -0.5221  0.8314
   13SAPS   C36 1690   0.804   2.693   7.407  0.2284 -0.1816  0.3717
   13SAPS   H6X 1691   0.797   2.591   7.452  0.4798  0.0437  0.9293
   13SAPS   H6Y 1692   0.703   2.704   7.364 -0.7518 -2.1938  1.9948
   13SAPS   C37 1693   0.802   2.792   7.530 -0.8168 -0.2128  0.0483
   13SAPS   H7X 1694   0.816   2.900   7.507 -0.5203 -0.4087 -0.7074
   13SAPS   H7Y 1695   0.904   2.774   7.570 -0.5834 -0.4935 -0.6502
   13SAPS   C38 1696   0.695   2.767   7.630  0.0872  0.5587 -0.3212
   13SAPS   H8X 1697   0.641   2.670   7.620  1.2488  0.0700 -2.4106
   13SAPS   H8Y 1698   0.624   2.853   7.624 -1.2700 -0.5972 -2.7392
   13SAPS   C39 1699   0.742   2.774   7.777 -0.1008 -0.3409  0.0801
   13SAPS   H9X 1700   0.807   2.685   7.791 -0.5502 -0.5516  0.8607
   13SAPS   H9Y 1701   0.660   2.770   7.852 -0.9338  1.3040 -0.6979
   13SAPS  C310 1702   0.835   2.898   7.810 -0.1657  0.8523 -0.1386
   13SAPS  H10X 1703   0.778   2.991   7.791 -0.5364  1.0020  1.5075
   13SAPS  H10Y 1704   0.927   2.899   7.748  1.7540  0.4588  2.5147
   13SAPS  C311 1705   0.859   2.897   7.960 -1.1680 -0.4496  0.2367
   13SAPS  H11X 1706   0.923   2.811   7.989  3.5087  2.1133 -1.3924
   13SAPS  H11Y 1707   0.767   2.901   8.021 -1.6412 -2.1842 -0.3285
   13SAPS  C312 1708   0.936   3.029   8.004  0.7796  0.0645  0.4276
   13SAPS  H12X 1709   0.893   3.116   7.950  0.2000 -0.2136  0.4373
   13SAPS  H12Y 1710   1.042   3.028   7.970  0.5301  0.4291 -0.3949
   13SAPS  C313 1711   0.932   3.054   8.156 -0.6609  0.2406  0.0055
   13SAPS  H13X 1712   0.941   2.955   8.204  1.8862  0.7724  0.7953
   13SAPS  H13Y 1713   0.833   3.087   8.195 -0.2064  0.1318  1.3146
   13SAPS  C314 1714   1.028   3.157   8.218  0.4652  0.5319  0.2159
   13SAPS  H14X 1715   1.014   3.253   8.165 -1.8512 -0.0075 -0.2710
   13SAPS  H14Y 1716   1.132   3.122   8.199  0.7575  1.6992 -0.4112
   13SAPS  C315 1717   0.999   3.166   8.371  0.2049 -0.5879 -0.4288
   13SAPS  H15X 1718   0.984   3.065   8.417 -2.4475  0.5693  1.4759
   13SAPS  H15Y 1719   0.908   3.225   8.396 -0.6608 -1.5481 -1.2398
   13SAPS  C316 1720   1.110   3.246   8.452 -0.1335 -0.7951  0.0016
   13SAPS  H16X 1721   1.106   3.356   8.434 -1.6758 -0.8103  0.1092
   13SAPS  H16Y 1722   1.207   3.210   8.412  0.2433  0.1045  0.0712
   13SAPS  C317 1723   1.107   3.228   8.611  0.0995  0.5890  0.0359
   13SAPS  H17X 1724   1.124   3.122   8.637  0.4813  1.0199  1.6305
   13SAPS  H17Y 1725   1.006   3.247   8.652  0.2302 -0.2709  0.7817
   13SAPS  C318 1726   1.216   3.314   8.666  0.0646  0.0028 -0.4974
   13SAPS  H18X 1727   1.220   3.416   8.624  1.5660  0.4395  0.5916
   13SAPS  H18Y 1728   1.311   3.267   8.631  0.0500  1.4576 -2.6601
   13SAPS  H18Z 1729   1.217   3.328   8.777  0.7429  1.7709 -0.7030
   14SAPS     N 1730   1.718   4.411   5.862  0.1041 -0.2937 -0.5886
   14SAPS   HN1 1731   1.635   4.391   5.803 -0.4918 -1.6608  0.6687
   14SAPS   HN2 1732   1.722   4.346   5.943  3.9072  0.0839 -0.2788
   14SAPS   HN3 1733   1.698   4.508   5.895  1.0659  0.1215 -1.1542
   14SAPS   C12 1734   1.841   4.415   5.785 -0.1191  0.1478  0.0901
   14SAPS  H12A 1735   1.839   4.338   5.709  0.6301  0.8146 -0.6404
   14SAPS   C13 1736   1.858   4.552   5.720 -0.0704  0.5315 -0.3166
   14SAPS  O13A 1737   1.772   4.640   5.749 -0.1360 -0.0956  0.5421
   14SAPS  O13B 1738   1.939   4.570   5.629 -0.0580 -0.5295 -0.8225
   14SAPS   C11 1739   1.957   4.394   5.883  0.7264  0.0684  0.3196
   14SAPS  H11A 1740   1.949   4.480   5.953  0.1442  2.6707 -2.7012
   14SAPS  H11B 1741   2.049   4.399   5.821  0.9014 -1.6553  0.3775
   14SAPS     P 1742   1.979   4.229   6.085 -0.0240 -0.3760  0.3326
   14SAPS   O13 1743   1.911   4.338   6.160  0.1358  0.3115  0.2871
   14SAPS   O14 1744   1.946   4.087   6.110  0.8220 -0.0066  0.2047
   14SAPS   O12 1745   1.943   4.260   5.938  0.1551 -0.2148 -0.0701
   14SAPS   O11 1746   2.134   4.254   6.072 -0.1512 -0.2612  0.0880
   14SAPS    C1 1747   2.248   4.168   6.112 -0.6317 -0.0550  0.2182
   14SAPS    HA 1748   2.214   4.066   6.139 -0.7718 -0.0276  0.1482
   14SAPS    HB 1749   2.322   4.160   6.030 -0.8510 -0.6556  0.0769
   14SAPS    C2 1750   2.315   4.232   6.239 -0.5167  0.1233  0.4438
   14SAPS    HS 1751   2.356   4.147   6.298  1.7586 -0.3998 -1.7036
   14SAPS   O21 1752   2.217   4.310   6.309  0.8272 -0.0255 -0.0387
   14SAPS   C21 1753   2.146   4.238   6.393 -0.2065  0.2163 -0.6048
   14SAPS   O22 1754   2.158   4.116   6.410  0.2238 -0.3443 -0.1957
   14SAPS   C22 1755   2.067   4.336   6.479  0.9641  1.0838  0.3304
   14SAPS   H2R 1756   2.141   4.370   6.555  0.6229 -2.2541  2.3385
   14SAPS   H2S 1757   2.025   4.420   6.420 -0.0698  0.7193  0.5392
   14SAPS    C3 1758   2.439   4.317   6.193 -0.2885 -0.0754  0.0505
   14SAPS    HX 1759   2.419   4.396   6.118  2.1328  0.9569  0.3654
   14SAPS    HY 1760   2.517   4.254   6.146 -2.0573 -1.7715 -0.7061
   14SAPS   O31 1761   2.494   4.379   6.306  0.0679  0.3815 -0.2770
   14SAPS   C31 1762   2.445   4.494   6.344 -0.2514  0.3198  0.0542
   14SAPS   O32 1763   2.354   4.561   6.293  0.0317  0.2388  0.6283
   14SAPS   C32 1764   2.510   4.538   6.476 -0.3426  0.6920 -0.6203
   14SAPS   H2X 1765   2.582   4.619   6.452 -2.9476  2.4360 -3.2727
   14SAPS   H2Y 1766   2.569   4.450   6.509 -1.4292 -0.1758 -0.9464
   14SAPS   C23 1767   1.947   4.276   6.563 -0.3857 -0.3137  0.0549
   14SAPS   H3R 1768   1.984   4.189   6.620  1.4873  0.3081 -0.1194
   14SAPS   H3S 1769   1.872   4.236   6.492  0.0640 -1.6050  0.2881
   14SAPS   C24 1770   1.880   4.365   6.667 -0.0352  0.5288 -0.2494
   14SAPS   H4R 1771   1.802   4.307   6.720  0.0914  2.1904  1.8882
   14SAPS   H4S 1772   1.826   4.444   6.609 -1.4567 -1.3073 -1.5812
   14SAPS   C25 1773   1.974   4.437   6.759 -0.5748 -0.3009  0.4397
   14SAPS   H5R 1774   2.030   4.522   6.716 -0.0076 -1.0863 -0.4049
   14SAPS   C26 1775   2.006   4.396   6.888  0.2424  0.1159  0.2369
   14SAPS   H6R 1776   2.071   4.464   6.944 -0.7282  1.0225  0.2915
   14SAPS   C27 1777   1.945   4.279   6.952  0.5777 -0.3797 -0.7889
   14SAPS   H7R 1778   2.029   4.243   7.015 -0.0731 -0.5297  0.0183
   14SAPS   H7S 1779   1.916   4.197   6.882 -0.6362  0.1546 -0.9428
   14SAPS   C28 1780   1.826   4.331   7.028 -0.2621 -0.6540 -0.5520
   14SAPS   H8R 1781   1.767   4.402   6.968 -2.0627 -2.3553 -0.9152
   14SAPS   C29 1782   1.784   4.300   7.153  0.6289  0.0581 -0.1719
   14SAPS   H9R 1783   1.698   4.338   7.208  0.3669 -1.6853  0.6978
   14SAPS  C210 1784   1.853   4.192   7.226 -0.4966 -0.4450 -0.9378
   14SAPS  H10R 1785   1.871   4.233   7.327 -0.9650  2.2854 -1.8836
   14SAPS  H10S 1786   1.958   4.178   7.193 -0.2910  1.5950 -1.2600
   14SAPS  C211 1787   1.766   4.065   7.240 -0.5135 -0.0143  0.2057
   14SAPS  H11R 1788   1.758   4.013   7.143  1.1548  0.8470 -0.4435
   14SAPS  C212 1789   1.723   4.004   7.354 -0.5322 -0.6777  0.6760
   14SAPS  H12R 1790   1.669   3.908   7.355  0.3728 -1.2468 -0.7452
   14SAPS  C213 1791   1.749   4.049   7.496 -0.2042 -0.1773 -0.8509
   14SAPS  H13R 1792   1.726   4.158   7.494 -0.0262 -0.1436 -1.1772
   14SAPS  H13S 1793   1.858   4.042   7.520 -0.7298  1.3356  2.4789
   14SAPS  C214 1794   1.677   3.980   7.604 -0.3212 -0.0541 -0.1240
   14SAPS  H14R 1795   1.569   3.964   7.589 -0.7070  1.4847  0.8121
   14SAPS  C215 1796   1.732   3.935   7.720  0.1792  0.6195 -0.7276
   14SAPS  H15R 1797   1.666   3.896   7.798 -0.9519  0.5020 -1.7189
   14SAPS  C216 1798   1.874   3.965   7.764  0.0510 -0.4426 -0.4847
   14SAPS  H16R 1799   1.946   3.947   7.682 -0.1131  1.2434 -1.0364
   14SAPS  H16S 1800   1.907   3.888   7.836 -0.7503  1.0039  1.5360
   14SAPS  C217 1801   1.886   4.101   7.839 -0.2114 -0.8146  0.2034
   14SAPS  H17R 1802   1.799   4.168   7.819 -0.6727 -2.1025 -2.6925
   14SAPS  H17S 1803   1.957   4.167   7.784 -0.4333 -0.9228 -0.2253
   14SAPS  C218 1804   1.918   4.108   7.992  0.4592  0.5057  0.7579
   14SAPS  H18R 1805   2.012   4.049   8.001  0.6429  0.8844  1.4205
   14SAPS  H18S 1806   1.845   4.057   8.059  2.1942  0.7358  2.9178
   14SAPS  C219 1807   1.944   4.256   8.031 -0.0918 -0.0039 -0.4747
   14SAPS  H19R 1808   1.953   4.257   8.142 -0.8438 -3.3138 -0.2591
   14SAPS  H19S 1809   1.849   4.313   8.020 -1.4151 -1.7700  1.0564
   14SAPS  C220 1810   2.072   4.315   7.967  0.5983  0.0845  0.2433
   14SAPS  H20R 1811   2.078   4.310   7.856 -0.7640  1.3797  0.0772
   14SAPS  H20S 1812   2.162   4.264   8.007 -0.0439 -1.0358  0.2924
   14SAPS  H20T 1813   2.079   4.425   7.987  0.9779  0.1748 -0.3750
   14SAPS   C33 1814   2.419   4.580   6.586  0.7643 -0.2987 -0.0179
   14SAPS   H3X 1815   2.355   4.490   6.585  3.0143 -2.0039 -1.3690
   14SAPS   H3Y 1816   2.362   4.671   6.560  1.1340 -0.1466 -0.3162
   14SAPS   C34 1817   2.482   4.610   6.727 -0.3979  0.0005 -0.1602
   14SAPS   H4X 1818   2.546   4.700   6.738 -0.4478 -0.1192  1.2993
   14SAPS   H4Y 1819   2.532   4.521   6.770  0.2216  1.2777  1.9100
   14SAPS   C35 1820   2.369   4.642   6.828  0.3985 -0.2114  0.4621
   14SAPS   H5X 1821   2.302   4.553   6.821 -1.2083  0.9178  0.8193
   14SAPS   H5Y 1822   2.306   4.722   6.782  1.5310  0.9487  0.8948
   14SAPS   C36 1823   2.426   4.665   6.968  0.0017  0.3032  0.1722
   14SAPS   H6X 1824   2.517   4.727   6.950  1.3073 -2.1336 -2.4025
   14SAPS   H6Y 1825   2.457   4.568   7.012  2.2498  0.4809 -0.8666
   14SAPS   C37 1826   2.327   4.713   7.072 -0.6784 -0.0107  0.1823
   14SAPS   H7X 1827   2.254   4.636   7.106 -2.1430  0.9360 -0.6675
   14SAPS   H7Y 1828   2.278   4.800   7.022  2.7983  0.7602 -2.2436
   14SAPS   C38 1829   2.398   4.762   7.194  0.1518 -0.1136  0.0839
   14SAPS   H8X 1830   2.472   4.842   7.173 -0.5315  0.5246  0.1087
   14SAPS   H8Y 1831   2.454   4.674   7.233  0.4006  0.1811  0.3956
   14SAPS   C39 1832   2.296   4.813   7.306  0.1741 -0.1400 -0.0489
   14SAPS   H9X 1833   2.211   4.742   7.311  0.7743 -1.3233 -3.4791
   14SAPS   H9Y 1834   2.255   4.907   7.264 -0.8575 -0.4078  0.3297
   14SAPS  C310 1835   2.358   4.829   7.449  0.1675  0.2139  0.2506
   14SAPS  H10X 1836   2.425   4.743   7.471  0.0805  0.3114  0.9236
   14SAPS  H10Y 1837   2.284   4.829   7.532  1.2257  2.2308  1.2810
   14SAPS  C311 1838   2.444   4.953   7.459  0.4292  0.7288 -0.0479
   14SAPS  H11X 1839   2.372   5.037   7.449 -1.0382 -0.3313  1.1162
   14SAPS  H11Y 1840   2.524   4.953   7.382  2.4291 -2.7296  1.7813
   14SAPS  C312 1841   2.518   4.951   7.596 -0.0726 -0.1275  0.2541
   14SAPS  H12X 1842   2.587   5.038   7.584 -2.0905  1.4358 -0.7256
   14SAPS  H12Y 1843   2.566   4.852   7.605  0.3549 -0.0136 -0.6843
   14SAPS  C313 1844   2.432   4.978   7.718 -0.4972  1.2360  0.0384
   14SAPS  H13X 1845   2.371   4.886   7.723  1.7074 -0.2652  0.5745
   14SAPS  H13Y 1846   2.369   5.068   7.700 -0.6534  1.0318 -0.4580
   14SAPS  C314 1847   2.516   4.999   7.848 -0.1066  0.9725  0.5055
   14SAPS  H14X 1848   2.592   5.079   7.833 -0.6434  1.4774  0.3908
   14SAPS  H14Y 1849   2.553   4.898   7.874  1.3082  0.8939 -1.6205
   14SAPS  C315 1850   2.431   5.034   7.980  0.3669 -0.3380  0.1373
   14SAPS  H15X 1851   2.363   5.117   7.951  1.0207 -0.9264 -3.5210
   14SAPS  H15Y 1852   2.503   5.087   8.047  0.3040 -1.4895  1.1532
   14SAPS  C316 1853   2.362   4.919   8.050  0.1788  0.0938 -0.0487
   14SAPS  H16X 1854   2.424   4.828   8.069 -2.6449 -2.0685 -0.5820
   14SAPS  H16Y 1855   2.277   4.888   7.986 -1.7377  0.5622  2.1792
   14SAPS  C317 1856   2.299   4.946   8.185  0.5054 -0.1217 -0.9729
   14SAPS  H17X 1857   2.221   4.871   8.210  0.6180  0.2178  0.4622
   14SAPS  H17Y 1858   2.250   5.046   8.192  3.4052  1.2680  2.6678
   14SAPS  C318 1859   2.411   4.942   8.298  0.4427  0.0368 -0.0393
   14SAPS  H18X 1860   2.455   4.840   8.296  0.4998  0.0714 -1.2705
   14SAPS  H18Y 1861   2.373   4.966   8.400  0.8892 -1.9363  0.6389
   14SAPS  H18Z 1862   2.495   5.012   8.279 -0.8134  1.0023 -2.3912
   15SAPS     N 1863   1.387   3.632   5.870  0.1929  0.3170  0.0573
   15SAPS   HN1 1864   1.481   3.673   5.883  1.2943 -2.0410  0.1686
   15SAPS   HN2 1865   1.390   3.618   5.767  0.3238 -2.3212  0.3315
   15SAPS   HN3 1866   1.314   3.702   5.894 -1.3247 -0.7452 -1.2093
   15SAPS   C12 1867   1.367   3.497   5.923  0.1655  0.0025 -0.5049
   15SAPS  H12A 1868   1.315   3.439   5.848 -1.4410  0.9142 -0.1365
   15SAPS   C13 1869   1.495   3.414   5.969  0.5057 -0.1968  0.0901
   15SAPS  O13A 1870   1.607   3.454   5.925  0.2663  0.0278 -0.3984
   15SAPS  O13B 1871   1.471   3.301   6.020  0.9383  0.1548 -0.3480
   15SAPS   C11 1872   1.286   3.515   6.050  0.2290  0.3645  0.3241
   15SAPS  H11A 1873   1.349   3.574   6.121 -2.0370  1.2147  1.7334
   15SAPS  H11B 1874   1.273   3.418   6.103 -1.2617 -0.5033 -1.5529
   15SAPS     P 1875   1.019   3.536   6.019  0.0997  0.0000 -0.2096
   15SAPS   O13 1876   0.922   3.646   6.019  0.4425 -0.2521 -0.0671
   15SAPS   O14 1877   1.019   3.454   5.895 -0.7977 -0.0844 -0.8130
   15SAPS   O12 1878   1.170   3.593   6.042  0.2211 -0.0380  0.2633
   15SAPS   O11 1879   1.000   3.446   6.137 -0.5607 -0.4525 -0.8248
   15SAPS    C1 1880   0.937   3.492   6.256  0.3216 -0.2363  0.9885
   15SAPS    HA 1881   0.873   3.582   6.242  0.9975  0.3477  1.6476
   15SAPS    HB 1882   0.857   3.419   6.282 -1.3759 -0.0237 -2.8001
   15SAPS    C2 1883   1.039   3.506   6.362 -0.0259 -0.4397 -0.5087
   15SAPS    HS 1884   1.111   3.421   6.352  0.8640  0.0414  1.4913
   15SAPS   O21 1885   0.951   3.482   6.477  0.0580 -0.6535 -0.1992
   15SAPS   C21 1886   0.931   3.352   6.512 -0.1317 -0.4585 -0.1148
   15SAPS   O22 1887   0.990   3.259   6.470  0.0817 -0.7275 -0.1520
   15SAPS   C22 1888   0.811   3.348   6.610 -1.0034 -0.0444  0.6745
   15SAPS   H2R 1889   0.858   3.345   6.711  1.5791  0.1206 -0.4314
   15SAPS   H2S 1890   0.762   3.447   6.595 -1.8039 -0.6388 -0.8361
   15SAPS    C3 1891   1.116   3.646   6.355  0.5831 -0.5523  0.0308
   15SAPS    HX 1892   1.050   3.723   6.310 -0.1624 -0.9273  0.4756
   15SAPS    HY 1893   1.200   3.641   6.281 -1.1786  1.6531 -2.3022
   15SAPS   O31 1894   1.150   3.693   6.491 -0.2767  0.3859 -0.2230
   15SAPS   C31 1895   1.250   3.618   6.540 -0.3599  0.3374  0.4868
   15SAPS   O32 1896   1.304   3.514   6.495  0.2620 -0.3450  0.4244
   15SAPS   C32 1897   1.285   3.672   6.675  0.0398  0.3483 -0.4601
   15SAPS   H2X 1898   1.313   3.780   6.667  2.1570 -0.1725 -0.6857
   15SAPS   H2Y 1899   1.372   3.613   6.710  1.2864  0.2967 -3.3509
   15SAPS   C23 1900   0.701   3.231   6.591 -0.4775 -0.9345  0.1932
   15SAPS   H3R 1901   0.756   3.142   6.553  0.4314 -0.7251  0.9749
   15SAPS   H3S 1902   0.631   3.264   6.512  0.6754  3.8827  0.8627
   15SAPS   C24 1903   0.637   3.187   6.721 -0.7432 -0.0520  0.1613
   15SAPS   H4R 1904   0.724   3.173   6.788  0.4630  0.3441 -1.2650
   15SAPS   H4S 1905   0.578   3.096   6.697 -1.3854 -0.3644  2.6924
   15SAPS   C25 1906   0.535   3.290   6.754 -0.2335 -0.4609  0.8742
   15SAPS   H5R 1907   0.448   3.298   6.687  0.2360  0.4502  0.3575
   15SAPS   C26 1908   0.539   3.376   6.862 -0.5731  0.6202 -0.7867
   15SAPS   H6R 1909   0.460   3.450   6.878  0.0882  0.6512  3.4616
   15SAPS   C27 1910   0.643   3.365   6.973  0.5497  0.1742 -0.1790
   15SAPS   H7R 1911   0.728   3.433   6.955  1.4385 -0.8254  0.1665
   15SAPS   H7S 1912   0.680   3.261   6.970  1.2801  0.4491 -1.3161
   15SAPS   C28 1913   0.575   3.392   7.110 -0.2242 -0.0153  0.6229
   15SAPS   H8R 1914   0.517   3.309   7.153 -2.1375  2.1480  2.4695
   15SAPS   C29 1915   0.589   3.501   7.193 -0.3649  0.2932  0.2896
   15SAPS   H9R 1916   0.562   3.509   7.299  2.4629 -0.6053  1.1589
   15SAPS  C210 1917   0.671   3.619   7.154 -0.1696  0.6206  0.5822
   15SAPS  H10R 1918   0.680   3.628   7.044  2.2828 -0.2944  0.6331
   15SAPS  H10S 1919   0.770   3.599   7.202 -1.0216 -1.6737  1.5675
   15SAPS  C211 1920   0.592   3.743   7.191 -0.9725 -0.0366 -0.0052
   15SAPS  H11R 1921   0.491   3.756   7.150 -1.3779  0.3683  1.0823
   15SAPS  C212 1922   0.632   3.833   7.283  0.7988  0.0192 -0.4143
   15SAPS  H12R 1923   0.571   3.923   7.301 -2.4203 -1.9792 -0.5392
   15SAPS  C213 1924   0.763   3.831   7.354  0.5765  0.5587  0.2937
   15SAPS  H13R 1925   0.779   3.935   7.389  1.3716  0.1116  1.3230
   15SAPS  H13S 1926   0.842   3.813   7.278 -0.4674 -2.6314 -0.1692
   15SAPS  C214 1927   0.779   3.741   7.472 -0.3890 -0.8424  0.2784
   15SAPS  H14R 1928   0.721   3.647   7.470  2.0517 -2.4360 -0.8996
   15SAPS  C215 1929   0.874   3.755   7.571  0.5275 -0.0827  0.3033
   15SAPS  H15R 1930   0.881   3.676   7.647  0.2001 -0.0023  0.4216
   15SAPS  C216 1931   0.969   3.872   7.599 -0.1587  0.0822 -0.0845
   15SAPS  H16R 1932   0.906   3.964   7.596 -2.3381 -1.3217  0.5954
   15SAPS  H16S 1933   1.056   3.871   7.530  0.0303 -3.8940 -0.0173
   15SAPS  C217 1934   1.032   3.855   7.740 -0.0197 -0.3310 -0.2541
   15SAPS  H17R 1935   1.063   3.748   7.744 -1.2127 -0.7545 -1.4722
   15SAPS  H17S 1936   0.959   3.888   7.817  0.1426  0.0960 -0.2798
   15SAPS  C218 1937   1.148   3.953   7.752 -0.1506 -0.0430  0.2615
   15SAPS  H18R 1938   1.130   4.062   7.740 -0.0674 -0.2172 -1.8089
   15SAPS  H18S 1939   1.215   3.925   7.668  1.6373  2.7431  0.6598
   15SAPS  C219 1940   1.238   3.943   7.869 -0.1362  0.3981  0.4215
   15SAPS  H19R 1941   1.251   3.834   7.887 -1.4229  0.2097  0.3362
   15SAPS  H19S 1942   1.181   3.971   7.960 -3.1409 -0.0391 -1.1833
   15SAPS  C220 1943   1.372   4.019   7.867  0.1805 -0.1459  0.1794
   15SAPS  H20R 1944   1.428   3.996   7.960 -3.0958 -1.6038  1.9338
   15SAPS  H20S 1945   1.347   4.127   7.875  0.3436 -0.1906  1.5313
   15SAPS  H20T 1946   1.429   3.997   7.774  1.2335  0.5659  0.6388
   15SAPS   C33 1947   1.162   3.654   6.772 -0.6117 -0.0108  0.5312
   15SAPS   H3X 1948   1.069   3.683   6.719 -1.0466 -3.0129 -0.5213
   15SAPS   H3Y 1949   1.177   3.724   6.857 -1.5299  0.1593  0.5663
   15SAPS   C34 1950   1.136   3.519   6.833 -0.2087  0.4138 -0.1333
   15SAPS   H4X 1951   1.228   3.486   6.887  0.3955 -2.6043 -2.6733
   15SAPS   H4Y 1952   1.122   3.452   6.745 -0.2346  1.8647 -1.2662
   15SAPS   C35 1953   1.023   3.513   6.934  0.4905  0.0955 -0.0676
   15SAPS   H5X 1954   0.973   3.413   6.935  0.8521 -0.1022  1.5975
   15SAPS   H5Y 1955   0.943   3.586   6.910 -0.0592 -0.4709 -0.0210
   15SAPS   C36 1956   1.052   3.543   7.083 -0.1205 -0.5023  0.6943
   15SAPS   H6X 1957   1.140   3.476   7.103 -0.5859 -1.1706  0.5390
   15SAPS   H6Y 1958   0.970   3.519   7.155 -1.1173 -1.5137 -0.7329
   15SAPS   C37 1959   1.110   3.688   7.118  0.4585 -0.4723 -0.5946
   15SAPS   H7X 1960   1.044   3.766   7.076  1.7519  0.4881 -0.9029
   15SAPS   H7Y 1961   1.209   3.704   7.071  0.3555 -1.4601 -1.1759
   15SAPS   C38 1962   1.110   3.702   7.273 -0.3462  0.3858  0.1966
   15SAPS   H8X 1963   1.016   3.662   7.316 -0.1190 -2.8564 -2.0153
   15SAPS   H8Y 1964   1.117   3.809   7.304 -0.8213  0.6894 -0.6768
   15SAPS   C39 1965   1.220   3.619   7.346  0.4541  0.1892 -0.0456
   15SAPS   H9X 1966   1.302   3.625   7.271 -0.3043  0.9412 -0.8445
   15SAPS   H9Y 1967   1.172   3.519   7.353 -1.6723  1.2833  4.2046
   15SAPS  C310 1968   1.261   3.660   7.483 -0.8988 -0.2884  0.5546
   15SAPS  H10X 1969   1.178   3.663   7.556 -1.9056 -1.0614 -0.5159
   15SAPS  H10Y 1970   1.310   3.759   7.492 -1.2737 -0.2388  2.2284
   15SAPS  C311 1971   1.353   3.552   7.548  0.0564  0.0180 -1.0152
   15SAPS  H11X 1972   1.413   3.504   7.467  1.9276 -2.7260  1.7420
   15SAPS  H11Y 1973   1.303   3.466   7.598  0.1078  1.2145  1.2360
   15SAPS  C312 1974   1.444   3.614   7.658  0.5654 -0.3492  0.1630
   15SAPS  H12X 1975   1.401   3.680   7.736 -0.3137 -0.5703 -0.1111
   15SAPS  H12Y 1976   1.513   3.678   7.600 -2.0104  1.4794 -1.1128
   15SAPS  C313 1977   1.531   3.511   7.738  0.4566  0.3652  0.0183
   15SAPS  H13X 1978   1.589   3.457   7.660  0.2435 -0.2950  0.3175
   15SAPS  H13Y 1979   1.476   3.442   7.805 -1.7163 -1.0598 -2.9992
   15SAPS  C314 1980   1.640   3.585   7.821 -0.1636  0.2744  0.3795
   15SAPS  H14X 1981   1.709   3.652   7.766  0.9810  0.0315  1.4671
   15SAPS  H14Y 1982   1.717   3.515   7.861  0.4878  1.3791  1.0788
   15SAPS  C315 1983   1.582   3.649   7.945  0.1054 -0.1184 -0.3073
   15SAPS  H15X 1984   1.509   3.584   7.998 -1.7365  2.5241  0.6192
   15SAPS  H15Y 1985   1.528   3.744   7.922  0.8555  0.1221 -1.1144
   15SAPS  C316 1986   1.696   3.692   8.038 -0.4948  0.1298  0.3488
   15SAPS  H16X 1987   1.748   3.776   7.987  1.1389 -0.8864  0.2572
   15SAPS  H16Y 1988   1.777   3.615   8.039 -2.0562 -1.5805  1.4192
   15SAPS  C317 1989   1.658   3.732   8.183  0.7090  0.5544 -0.6805
   15SAPS  H17X 1990   1.630   3.635   8.229 -0.5509  1.1602 -0.1363
   15SAPS  H17Y 1991   1.580   3.810   8.189 -0.3171 -0.4644 -0.5596
   15SAPS  C318 1992   1.783   3.784   8.262  0.0017 -0.8002  0.2010
   15SAPS  H18X 1993   1.757   3.782   8.370 -0.6025  0.0705  0.0860
   15SAPS  H18Y 1994   1.788   3.893   8.238  0.1578 -1.1504 -1.4612
   15SAPS  H18Z 1995   1.873   3.723   8.241  2.7236  2.0505  2.4973
   16SAPS     N 1996   4.644   5.594   5.939 -0.1249 -0.4229 -0.4140
   16SAPS   HN1 1997   4.605   5.535   5.863 -3.5674 -0.5943  1.2718
   16SAPS   HN2 1998   4.652   5.693   5.907 -1.4430  0.5871  2.0244
   16SAPS   HN3 1999   4.744   5.577   5.963 -0.3857  0.2532  1.3718
   16SAPS   C12 2000   4.564   5.572   6.063 -0.4695 -0.2114  0.2858
   16SAPS  H12A 2001   4.589   5.651   6.131  3.0469 -1.6343  0.8676
   16SAPS   C13 2002   4.411   5.566   6.028 -0.2589 -0.1274 -0.4305
   16SAPS  O13A 2003   4.370   5.650   5.938 -0.4447  0.0156 -0.0822
   16SAPS  O13B 2004   4.325   5.526   6.112 -0.1579  0.1126 -0.0956
   16SAPS   C11 2005   4.602   5.432   6.121  0.7253 -0.0652  0.1877
   16SAPS  H11A 2006   4.568   5.368   6.036 -1.2675  1.2721 -0.0870
   16SAPS  H11B 2007   4.537   5.409   6.207 -2.1378 -2.4235 -2.3620
   16SAPS     P 2008   4.795   5.287   6.207  0.1329  0.2908  0.4577
   16SAPS   O13 2009   4.765   5.173   6.116 -0.4025 -0.2169  0.4365
   16SAPS   O14 2010   4.937   5.308   6.241  0.4279 -0.0219 -0.6028
   16SAPS   O12 2011   4.739   5.418   6.145  0.0014 -0.4796  0.1392
   16SAPS   O11 2012   4.717   5.274   6.344  0.1571  0.1433 -0.3444
   16SAPS    C1 2013   4.710   5.378   6.444  0.2482 -0.7688  0.4218
   16SAPS    HA 2014   4.812   5.421   6.455 -0.1496  0.4233 -0.3813
   16SAPS    HB 2015   4.643   5.457   6.406 -0.1367 -1.7672 -1.0916
   16SAPS    C2 2016   4.644   5.331   6.574 -0.8283 -0.0292 -0.2025
   16SAPS    HS 2017   4.614   5.423   6.629  2.1305 -0.5004  2.5533
   16SAPS   O21 2018   4.730   5.249   6.656 -0.7919  0.0417  0.1252
   16SAPS   C21 2019   4.833   5.305   6.707  0.2956 -0.2666  0.0330
   16SAPS   O22 2020   4.855   5.422   6.721 -0.2605 -0.1765  0.2928
   16SAPS   C22 2021   4.930   5.194   6.773 -0.5561 -0.2649  0.9693
   16SAPS   H2R 2022   4.982   5.142   6.690  1.5816  0.0676  2.0414
   16SAPS   H2S 2023   5.008   5.260   6.816 -0.9617  0.7785  0.1572
   16SAPS    C3 2024   4.517   5.244   6.538  0.4790  0.2155 -0.3317
   16SAPS    HX 2025   4.551   5.165   6.468  0.8626 -1.0567  1.2173
   16SAPS    HY 2026   4.438   5.294   6.478 -1.3492 -2.6760 -0.5259
   16SAPS   O31 2027   4.450   5.195   6.659  0.6497 -0.2441  0.4490
   16SAPS   C31 2028   4.482   5.078   6.697 -0.1285  0.7900  0.1839
   16SAPS   O32 2029   4.575   5.007   6.653  0.0733 -0.0971 -0.2204
   16SAPS   C32 2030   4.400   5.043   6.817 -0.0138  0.2166 -0.4170
   16SAPS   H2X 2031   4.294   5.073   6.808  0.3192  1.0470 -1.8578
   16SAPS   H2Y 2032   4.449   5.109   6.891 -1.0115  0.1774  0.3011
   16SAPS   C23 2033   4.857   5.109   6.869 -0.0647  0.0224 -0.4606
   16SAPS   H3R 2034   4.927   5.041   6.921 -0.9896 -0.5776  0.0418
   16SAPS   H3S 2035   4.779   5.049   6.817  2.2355 -1.7363 -2.0490
   16SAPS   C24 2036   4.781   5.186   6.981  0.8342  0.3426  0.4113
   16SAPS   H4R 2037   4.737   5.107   7.046 -1.8260  1.0474 -0.3697
   16SAPS   H4S 2038   4.696   5.240   6.933 -0.0150 -1.9075 -0.7629
   16SAPS   C25 2039   4.860   5.277   7.065 -0.3275 -0.2775  0.1953
   16SAPS   H5R 2040   4.859   5.383   7.035  3.8831 -0.0323  0.2143
   16SAPS   C26 2041   4.937   5.255   7.169  0.6169  0.6102 -0.0666
   16SAPS   H6R 2042   4.964   5.342   7.230  1.0973  0.9342 -0.7380
   16SAPS   C27 2043   4.959   5.121   7.242 -0.0701 -0.2212 -0.4119
   16SAPS   H7R 2044   5.059   5.123   7.290 -0.1719  0.8711 -0.2044
   16SAPS   H7S 2045   4.975   5.046   7.162  0.0013 -0.4510 -0.1845
   16SAPS   C28 2046   4.845   5.079   7.340 -0.3477 -0.6925 -0.3916
   16SAPS   H8R 2047   4.812   4.974   7.338  0.6147 -1.0086 -0.3690
   16SAPS   C29 2048   4.793   5.157   7.442  0.1122 -0.1318  0.0335
   16SAPS   H9R 2049   4.724   5.110   7.514 -2.9679  1.4612 -1.7058
   16SAPS  C210 2050   4.834   5.299   7.485 -0.6410  0.1990  0.0486
   16SAPS  H10R 2051   4.774   5.324   7.575 -0.4817  0.8536 -0.0255
   16SAPS  H10S 2052   4.811   5.373   7.405 -0.0130  1.4845  1.0220
   16SAPS  C211 2053   4.975   5.307   7.530 -0.0861 -0.2953 -0.6209
   16SAPS  H11R 2054   5.032   5.219   7.496  0.3897  0.9322 -3.2606
   16SAPS  C212 2055   5.021   5.404   7.610 -0.6332  0.3763  0.1123
   16SAPS  H12R 2056   5.129   5.418   7.626 -0.9076  0.0492  2.5429
   16SAPS  C213 2057   4.934   5.521   7.645 -0.1454  0.0734 -0.3955
   16SAPS  H13R 2058   4.866   5.501   7.731 -1.8144  1.7953 -1.2278
   16SAPS  H13S 2059   4.862   5.558   7.570 -2.0872  1.2786  1.9043
   16SAPS  C214 2060   5.023   5.636   7.689  0.0589 -0.6371 -0.0656
   16SAPS  H14R 2061   5.038   5.644   7.797 -0.3296 -0.1125 -0.0462
   16SAPS  C215 2062   5.069   5.736   7.608 -0.0618 -0.5009  0.0460
   16SAPS  H15R 2063   5.126   5.816   7.655 -0.2770 -0.5293  0.3583
   16SAPS  C216 2064   5.041   5.737   7.461 -0.0711  0.3238 -0.2698
   16SAPS  H16R 2065   5.040   5.632   7.422 -0.5782  0.0807  0.3870
   16SAPS  H16S 2066   5.129   5.775   7.405 -0.9658  0.9712 -1.2667
   16SAPS  C217 2067   4.915   5.809   7.430 -0.5674 -0.2656  0.6280
   16SAPS  H17R 2068   4.925   5.919   7.438  0.8436 -0.1689 -1.6116
   16SAPS  H17S 2069   4.826   5.770   7.485 -0.6054 -0.8383  0.1744
   16SAPS  C218 2070   4.880   5.796   7.277 -0.2418  0.0952  0.1878
   16SAPS  H18R 2071   4.972   5.811   7.217 -0.7288  1.9100 -0.1457
   16SAPS  H18S 2072   4.811   5.881   7.259 -2.0072 -1.1599  0.7349
   16SAPS  C219 2073   4.812   5.669   7.236  1.0012 -0.3745 -0.1184
   16SAPS  H19R 2074   4.735   5.639   7.310 -0.8856  1.4792 -1.2167
   16SAPS  H19S 2075   4.893   5.595   7.251 -0.0288 -1.4222  0.4094
   16SAPS  C220 2076   4.763   5.659   7.095  0.8888 -0.6762 -0.3790
   16SAPS  H20R 2077   4.699   5.570   7.082 -1.7323  0.6999  2.0222
   16SAPS  H20S 2078   4.849   5.657   7.024  2.8206 -1.0667  1.8273
   16SAPS  H20T 2079   4.697   5.740   7.058  1.2630 -0.1871  0.0024
   16SAPS   C33 2080   4.421   4.892   6.862 -0.0782 -0.9686  0.1002
   16SAPS   H3X 2081   4.515   4.849   6.821  0.3668  0.6496 -0.7005
   16SAPS   H3Y 2082   4.349   4.821   6.817  1.3088 -1.8721 -0.7833
   16SAPS   C34 2083   4.420   4.888   7.012  0.2683 -1.4534 -0.6140
   16SAPS   H4X 2084   4.512   4.927   7.061  0.2077 -1.6839 -0.3174
   16SAPS   H4Y 2085   4.402   4.785   7.048 -0.7710 -1.2161 -0.4021
   16SAPS   C35 2086   4.306   4.965   7.078 -1.4170  0.5379 -0.1319
   16SAPS   H5X 2087   4.215   4.942   7.018 -0.7278 -0.5562 -0.7989
   16SAPS   H5Y 2088   4.329   5.074   7.072 -2.3085  0.7124 -0.6000
   16SAPS   C36 2089   4.286   4.913   7.219 -0.5084 -0.0937  0.0695
   16SAPS   H6X 2090   4.271   4.804   7.207 -1.0842 -0.2140  1.6777
   16SAPS   H6Y 2091   4.195   4.953   7.269 -2.8190 -5.4366  0.8324
   16SAPS   C37 2092   4.397   4.925   7.320 -0.3346 -0.2301 -0.8594
   16SAPS   H7X 2093   4.431   5.030   7.333  0.4941 -0.7527  1.7506
   16SAPS   H7Y 2094   4.486   4.872   7.281 -0.8173 -0.3586 -1.8364
   16SAPS   C38 2095   4.371   4.870   7.463  0.5168 -0.4775  0.7023
   16SAPS   H8X 2096   4.337   4.764   7.461 -1.6840  0.1746  0.3544
   16SAPS   H8Y 2097   4.286   4.931   7.500  0.6790 -1.0026  1.9623
   16SAPS   C39 2098   4.494   4.899   7.568 -0.1469 -0.5668  0.9425
   16SAPS   H9X 2099   4.500   5.010   7.574  1.9808 -0.5448 -0.4721
   16SAPS   H9Y 2100   4.586   4.871   7.512 -0.8286  0.8035 -0.9411
   16SAPS  C310 2101   4.495   4.826   7.700  0.3266  0.0549  0.2933
   16SAPS  H10X 2102   4.594   4.852   7.742  1.5122  0.1360 -2.3131
   16SAPS  H10Y 2103   4.489   4.715   7.685  0.7724 -0.1793  1.7614
   16SAPS  C311 2104   4.375   4.844   7.787 -0.2119  0.4019  0.8433
   16SAPS  H11X 2105   4.292   4.778   7.753  1.8141 -2.6755  1.4188
   16SAPS  H11Y 2106   4.347   4.951   7.796 -1.3282  0.1462  0.6058
   16SAPS  C312 2107   4.397   4.801   7.926  0.0457  0.1569 -0.9892
   16SAPS  H12X 2108   4.401   4.690   7.935 -3.1087 -0.1177 -1.8262
   16SAPS  H12Y 2109   4.309   4.821   7.990  0.6802  0.2635 -0.1243
   16SAPS  C313 2110   4.521   4.866   7.992  0.3851  0.0202 -0.2214
   16SAPS  H13X 2111   4.537   4.974   7.972 -1.3265  0.8874  2.5452
   16SAPS  H13Y 2112   4.610   4.809   7.957 -0.6969 -0.6055 -2.1109
   16SAPS  C314 2113   4.520   4.850   8.149  0.3372 -0.3257 -0.2644
   16SAPS  H14X 2114   4.464   4.755   8.161 -0.9682  0.2981 -1.1180
   16SAPS  H14Y 2115   4.459   4.931   8.195  0.7434 -1.0672  1.6920
   16SAPS  C315 2116   4.660   4.844   8.206  0.3520  0.1489 -0.3969
   16SAPS  H15X 2117   4.715   4.933   8.168  1.3185 -1.2167 -2.4383
   16SAPS  H15Y 2118   4.707   4.758   8.153  0.7713  0.5876 -0.7438
   16SAPS  C316 2119   4.660   4.831   8.364 -0.2790 -0.2666 -0.3019
   16SAPS  H16X 2120   4.587   4.754   8.397  0.5164  0.2281  2.9420
   16SAPS  H16Y 2121   4.624   4.927   8.407  0.3971  0.8126 -2.0035
   16SAPS  C317 2122   4.798   4.793   8.410 -0.2697  0.2010 -0.2324
   16SAPS  H17X 2123   4.835   4.733   8.324 -1.5111 -0.4685 -0.3147
   16SAPS  H17Y 2124   4.801   4.731   8.502  0.4965  1.7559  0.8380
   16SAPS  C318 2125   4.902   4.908   8.411  0.2774 -0.0738 -0.4657
   16SAPS  H18X 2126   4.882   4.981   8.330  2.1705  1.0843  0.0552
   16SAPS  H18Y 2127   5.008   4.878   8.406 -0.0379 -0.9527 -2.9061
   16SAPS  H18Z 2128   4.897   4.957   8.511 -0.4181 -0.9034 -0.0799
   17SAPC     N 2129   1.060   3.860  10.461 -0.0646  0.2492  0.3232
   17SAPC   C12 2130   1.000   3.770  10.350 -0.0605  0.1042  0.2971
   17SAPC  H12A 2131   0.982   3.668  10.382 -0.0618  0.0783  0.2146
   17SAPC  H12B 2132   1.064   3.759  10.263 -1.4880 -0.9595 -0.6553
   17SAPC   C13 2133   1.082   4.002  10.411 -0.6291  0.0021  0.3156
   17SAPC  H13A 2134   1.003   4.018  10.340  0.1094 -1.1931 -0.8240
   17SAPC  H13B 2135   1.083   4.077  10.489 -1.0474  1.1729 -0.7747
   17SAPC  H13C 2136   1.173   4.006  10.352 -2.1534 -0.7115 -2.2418
   17SAPC   C14 2137   0.960   3.866  10.576 -0.7156  0.2508 -0.8247
   17SAPC  H14A 2138   1.004   3.934  10.648 -1.8405 -2.8449  3.1212
   17SAPC  H14B 2139   0.864   3.906  10.549 -0.1280  0.4558 -2.7484
   17SAPC  H14C 2140   0.961   3.768  10.622  0.6948  0.4619 -0.3325
   17SAPC   C15 2141   1.182   3.803  10.525 -0.6429 -0.4615  0.8216
   17SAPC  H15A 2142   1.205   3.851  10.619 -0.4664 -1.1201  1.1202
   17SAPC  H15B 2143   1.158   3.700  10.545 -0.2310 -0.7958 -0.3095
   17SAPC  H15C 2144   1.268   3.794  10.459  0.8577 -1.0019  2.7685
   17SAPC   C11 2145   0.868   3.829  10.295  0.3005  0.3886 -0.0129
   17SAPC  H11A 2146   0.836   3.764  10.211  0.5017  0.0600  0.1623
   17SAPC  H11B 2147   0.878   3.930  10.249  1.0461  0.2154 -0.2578
   17SAPC     P 2148   0.622   3.863  10.383  0.1076 -0.1018  0.1809
   17SAPC   O13 2149   0.544   3.770  10.297  0.4571  0.1758  0.6838
   17SAPC   O14 2150   0.566   3.890  10.520 -0.1840  0.6492 -0.1565
   17SAPC   O12 2151   0.763   3.814  10.397 -0.1821 -0.2767 -0.0934
   17SAPC   O11 2152   0.640   3.994  10.313 -0.2043 -0.2081 -0.3884
   17SAPC    C1 2153   0.535   4.091  10.294 -0.1684  0.3191 -0.3368
   17SAPC    HA 2154   0.435   4.047  10.310  0.1203 -0.3406 -0.3140
   17SAPC    HB 2155   0.542   4.175  10.366 -0.5477  1.3926 -1.5116
   17SAPC    C2 2156   0.529   4.144  10.152  0.3830 -0.2627 -0.1988
   17SAPC    HS 2157   0.432   4.199  10.154  0.3121 -0.3896  1.1675
   17SAPC   O21 2158   0.540   4.045  10.050 -0.1459  0.5798 -0.2889
   17SAPC   C21 2159   0.420   3.980  10.044 -0.3747 -0.0680  0.8693
   17SAPC   O22 2160   0.319   4.002  10.110  0.2753  0.1066 -0.2184
   17SAPC   C22 2161   0.440   3.882   9.928 -0.1459  0.6823  0.5132
   17SAPC   H2R 2162   0.483   3.925   9.835  0.6251 -0.8756  0.1164
   17SAPC   H2S 2163   0.515   3.804   9.954 -0.4877  0.1951  0.0508
   17SAPC    C3 2164   0.646   4.248  10.133 -0.3785 -0.2108 -0.4122
   17SAPC    HX 2165   0.746   4.201  10.142  0.6098  1.9801  0.7791
   17SAPC    HY 2166   0.625   4.326  10.209 -3.4447 -0.4187 -0.9070
   17SAPC   O31 2167   0.646   4.310  10.003 -0.7548  0.2141 -0.2201
   17SAPC   C31 2168   0.564   4.406   9.980 -0.5669  0.0276 -0.1019
   17SAPC   O32 2169   0.465   4.439  10.046 -0.2312  0.1604 -0.0573
   17SAPC   C32 2170   0.594   4.480   9.850  0.4897  0.4769  0.7013
   17SAPC   H2X 2171   0.677   4.551   9.874  0.5145 -0.0593  2.2934
   17SAPC   H2Y 2172   0.502   4.536   9.823  1.3981  2.0371  0.6818
   17SAPC   C23 2173   0.297   3.824   9.904 -0.1886  0.4675 -0.0876
   17SAPC   H3R 2174   0.228   3.903   9.868  1.1669  1.3608 -0.8183
   17SAPC   H3S 2175   0.251   3.774   9.992 -1.1516  0.0023 -0.8417
   17SAPC   C24 2176   0.285   3.711   9.797 -0.7621  0.6736  0.3542
   17SAPC   H4R 2177   0.341   3.745   9.707 -1.0886  2.0893  0.6577
   17SAPC   H4S 2178   0.180   3.690   9.765 -0.2645 -1.0602 -0.2633
   17SAPC   C25 2179   0.344   3.580   9.847 -0.5807 -0.0395 -0.0758
   17SAPC   H5R 2180   0.448   3.596   9.881  0.1582 -0.4299 -2.0187
   17SAPC   C26 2181   0.279   3.465   9.873  0.4120  0.6540  0.8267
   17SAPC   H6R 2182   0.327   3.382   9.927 -1.0263 -0.5438  0.3285
   17SAPC   C27 2183   0.132   3.460   9.832  0.7615 -0.0230 -0.5906
   17SAPC   H7R 2184   0.117   3.463   9.722 -1.6169 -0.0350 -0.3247
   17SAPC   H7S 2185   0.079   3.552   9.863 -0.4004 -0.8812  0.0768
   17SAPC   C28 2186   0.046   3.348   9.894 -0.3442  1.2955 -0.9866
   17SAPC   H8R 2187   0.074   3.323   9.997 -0.2817  1.5215 -0.9483
   17SAPC   C29 2188  -0.072   3.309   9.851 -0.5726  0.5903 -0.7939
   17SAPC   H9R 2189  -0.126   3.235   9.913  1.8679 -1.2636 -0.7568
   17SAPC  C210 2190  -0.148   3.359   9.730  0.7322  0.1310 -0.0588
   17SAPC  H10R 2191  -0.150   3.271   9.662  0.3154  1.1521 -1.4349
   17SAPC  H10S 2192  -0.099   3.431   9.660 -0.2635  0.1484 -0.7670
   17SAPC  C211 2193  -0.290   3.405   9.765  0.4821 -1.1026  0.1620
   17SAPC  H11R 2194  -0.324   3.392   9.869  0.7697 -2.0070  0.1488
   17SAPC  C212 2195  -0.383   3.468   9.681  0.1348 -0.0538 -0.5011
   17SAPC  H12R 2196  -0.482   3.480   9.727  0.4699 -0.7449  0.4265
   17SAPC  C213 2197  -0.369   3.496   9.532 -0.2492  1.1596  0.0099
   17SAPC  H13R 2198  -0.262   3.488   9.500 -0.2218  1.0984  0.1169
   17SAPC  H13S 2199  -0.402   3.600   9.511  2.1695  2.0736  0.3646
   17SAPC  C214 2200  -0.451   3.409   9.428  0.4293  0.0710  0.1179
   17SAPC  H14R 2201  -0.503   3.323   9.472  1.1780 -0.2200  0.4642
   17SAPC  C215 2202  -0.471   3.438   9.296 -0.3320  1.1386  0.8245
   17SAPC  H15R 2203  -0.524   3.368   9.228  0.8621  2.4335 -1.5470
   17SAPC  C216 2204  -0.408   3.562   9.230 -0.6331  0.1377 -0.4423
   17SAPC  H16R 2205  -0.321   3.597   9.289 -1.7598  3.4048 -0.5072
   17SAPC  H16S 2206  -0.490   3.636   9.243 -2.5552 -2.0702  0.7742
   17SAPC  C217 2207  -0.377   3.545   9.078 -0.2420 -0.4687  0.0875
   17SAPC  H17R 2208  -0.305   3.461   9.068 -0.0693 -0.4060  0.7514
   17SAPC  H17S 2209  -0.321   3.636   9.046 -1.1698 -0.5431 -1.9041
   17SAPC  C218 2210  -0.500   3.524   9.000  0.1425 -0.0108  1.3612
   17SAPC  H18R 2211  -0.592   3.583   9.019  0.8697  2.0308 -0.8604
   17SAPC  H18S 2212  -0.538   3.425   9.033 -0.9615  0.3260  1.1367
   17SAPC  C219 2213  -0.483   3.524   8.842 -0.3005 -0.6827 -0.5296
   17SAPC  H19R 2214  -0.486   3.632   8.815 -1.5396 -0.6000 -0.1384
   17SAPC  H19S 2215  -0.578   3.474   8.813 -0.6553 -0.1546 -0.3014
   17SAPC  C220 2216  -0.367   3.453   8.782 -0.5332 -0.2891 -0.2627
   17SAPC  H20R 2217  -0.272   3.477   8.835  0.1977 -1.7226 -0.8592
   17SAPC  H20S 2218  -0.364   3.456   8.671  0.4445 -0.4743 -0.2529
   17SAPC  H20T 2219  -0.389   3.347   8.809 -3.3315  0.5931  1.2347
   17SAPC   C33 2220   0.647   4.392   9.730 -1.1360 -0.5340 -0.2912
   17SAPC   H3X 2221   0.574   4.309   9.717  0.5166 -1.9753 -0.7142
   17SAPC   H3Y 2222   0.747   4.354   9.759 -1.1642 -0.0683  0.4659
   17SAPC   C34 2223   0.659   4.467   9.597  0.5207 -0.8643 -0.3566
   17SAPC   H4X 2224   0.738   4.544   9.607  0.1430 -0.4140 -0.7687
   17SAPC   H4Y 2225   0.567   4.525   9.571  1.0177 -0.4056 -1.1665
   17SAPC   C35 2226   0.668   4.368   9.487 -0.2876 -0.9123 -0.1923
   17SAPC   H5X 2227   0.585   4.297   9.502  0.6388 -1.7991  0.9495
   17SAPC   H5Y 2228   0.760   4.306   9.494  1.2874  1.4845  3.1578
   17SAPC   C36 2229   0.653   4.437   9.352  0.6300  0.1388 -0.2498
   17SAPC   H6X 2230   0.738   4.507   9.338  0.7957 -0.4457 -2.8230
   17SAPC   H6Y 2231   0.553   4.486   9.358 -0.8467 -2.6043 -0.5779
   17SAPC   C37 2232   0.670   4.343   9.236  0.3942  0.2387  0.1772
   17SAPC   H7X 2233   0.652   4.403   9.144  0.8070  0.6164  0.3367
   17SAPC   H7Y 2234   0.596   4.261   9.237  0.2815  0.3378  1.7017
   17SAPC   C38 2235   0.813   4.286   9.231  0.2333  0.7953 -0.2403
   17SAPC   H8X 2236   0.835   4.236   9.327 -0.3639  1.4822  0.2660
   17SAPC   H8Y 2237   0.879   4.375   9.218 -0.6384  1.3406 -1.1192
   17SAPC   C39 2238   0.837   4.176   9.125  0.2390  1.4042  0.2471
   17SAPC   H9X 2239   0.759   4.097   9.137 -0.7289  2.5086  1.5729
   17SAPC   H9Y 2240   0.933   4.130   9.156 -1.1525 -0.5475  1.9975
   17SAPC  C310 2241   0.834   4.220   8.981  0.3008  0.1327  1.1141
   17SAPC  H10X 2242   0.930   4.270   8.959  0.7657 -1.5164 -0.9169
   17SAPC  H10Y 2243   0.749   4.288   8.958  0.2211 -0.3702 -0.1640
   17SAPC  C311 2244   0.832   4.106   8.872 -0.3223  0.1225 -0.3669
   17SAPC  H11X 2245   0.877   4.022   8.930  0.6192  1.3199  0.6874
   17SAPC  H11Y 2246   0.905   4.137   8.794 -0.9103  0.6146 -0.7304
   17SAPC  C312 2247   0.691   4.060   8.809  0.2463 -0.8160 -0.3965
   17SAPC  H12X 2248   0.632   4.154   8.810  0.4842 -0.5169  3.7371
   17SAPC  H12Y 2249   0.635   4.002   8.885 -0.9212  0.8508  0.0599
   17SAPC  C313 2250   0.695   3.981   8.675 -0.3976 -0.0991 -0.8555
   17SAPC  H13X 2251   0.750   3.886   8.690  1.8236  1.2241 -0.2962
   17SAPC  H13Y 2252   0.753   4.036   8.598  1.9692  0.7152  1.3741
   17SAPC  C314 2253   0.560   3.937   8.621 -0.1608  1.4188 -0.0303
   17SAPC  H14X 2254   0.489   3.897   8.697 -1.0746  2.9744 -0.0166
   17SAPC  H14Y 2255   0.588   3.859   8.546 -2.3768  1.2286 -0.7402
   17SAPC  C315 2256   0.490   4.051   8.549 -0.7353 -0.4462  0.1367
   17SAPC  H15X 2257   0.559   4.109   8.485 -1.0679 -0.7198 -0.4790
   17SAPC  H15Y 2258   0.450   4.107   8.636  0.3862  0.3370  0.1740
   17SAPC  C316 2259   0.369   3.995   8.469 -0.6007  0.1285  0.3042
   17SAPC  H16X 2260   0.305   3.938   8.540 -0.1565 -0.1219  0.5085
   17SAPC  H16Y 2261   0.402   3.933   8.383 -1.7846 -0.5549  0.3226
   17SAPC  C317 2262   0.284   4.112   8.408 -0.8714  0.0420 -0.4324
   17SAPC  H17X 2263   0.197   4.077   8.349 -1.2715  0.9019 -0.3646
   17SAPC  H17Y 2264   0.342   4.177   8.339 -1.5391  1.2319  0.1007
   17SAPC  C318 2265   0.226   4.201   8.518 -0.8162  0.6557  0.0470
   17SAPC  H18X 2266   0.304   4.250   8.581 -0.9001  0.4033  0.3453
   17SAPC  H18Y 2267   0.184   4.289   8.465 -1.8037 -1.0973 -2.2804
   17SAPC  H18Z 2268   0.155   4.144   8.581  3.3864 -2.9984  2.0776
   18SAPC     N 2269   2.160   1.410  10.691  0.2104  0.0956 -0.3986
   18SAPC   C12 2270   2.212   1.280  10.638 -0.3882 -0.0982 -0.0914
   18SAPC  H12A 2271   2.132   1.223  10.593  1.4586 -1.6750 -1.6037
   18SAPC  H12B 2272   2.263   1.229  10.718 -3.1975 -0.0514  1.8827
   18SAPC   C13 2273   2.267   1.504  10.745 -0.0956  0.3137 -0.7164
   18SAPC  H13A 2274   2.237   1.583  10.813 -0.9120 -0.9052  0.3845
   18SAPC  H13B 2275   2.333   1.445  10.806 -1.4666 -1.1690 -0.6210
   18SAPC  H13C 2276   2.325   1.549  10.666  0.6893 -0.6736 -0.7046
   18SAPC   C14 2277   2.067   1.467  10.585 -0.0152 -0.2469  0.7238
   18SAPC  H14A 2278   1.989   1.401  10.550 -2.2589  3.3495 -1.6914
   18SAPC  H14B 2279   2.007   1.543  10.633  1.4279  1.8795 -0.6716
   18SAPC  H14C 2280   2.118   1.525  10.510 -0.4973 -1.7520 -0.8466
   18SAPC   C15 2281   2.073   1.375  10.815  0.0660 -0.0712  0.5086
   18SAPC  H15A 2282   1.991   1.307  10.799  1.4963 -1.7634  0.0202
   18SAPC  H15B 2283   2.136   1.331  10.892  2.1123  0.1757 -0.9278
   18SAPC  H15C 2284   2.036   1.466  10.860 -1.6549  0.8305 -2.4881
   18SAPC   C11 2285   2.311   1.308  10.524  0.1899 -0.1775 -0.3556
   18SAPC  H11A 2286   2.291   1.408  10.480  1.0122  0.9442  1.6848
   18SAPC  H11B 2287   2.298   1.239  10.438 -1.2481 -2.0045  1.2522
   18SAPC     P 2288   2.523   1.177  10.603 -0.1111  0.5001 -0.5088
   18SAPC   O13 2289   2.657   1.210  10.658 -0.4833 -0.2534  0.0030
   18SAPC   O14 2290   2.441   1.084  10.686 -0.2820  0.9216  0.0255
   18SAPC   O12 2291   2.438   1.315  10.577  0.0702 -0.0732 -0.1311
   18SAPC   O11 2292   2.536   1.117  10.461  0.7415  0.1114  0.2181
   18SAPC    C1 2293   2.636   1.167  10.365 -0.1459 -0.4305 -1.0968
   18SAPC    HA 2294   2.734   1.172  10.416 -0.9570  1.8131  0.4270
   18SAPC    HB 2295   2.647   1.088  10.288 -1.4053 -1.7808  0.0274
   18SAPC    C2 2296   2.592   1.301  10.287  0.5123  0.7700 -0.0592
   18SAPC    HS 2297   2.571   1.380  10.362 -2.2117 -0.2334  0.3659
   18SAPC   O21 2298   2.472   1.264  10.210  0.6304 -0.1382  0.6823
   18SAPC   C21 2299   2.419   1.371  10.157 -0.2681 -0.3045  0.4972
   18SAPC   O22 2300   2.435   1.485  10.200  0.3091 -0.1724  0.2347
   18SAPC   C22 2301   2.311   1.333  10.046  0.3934  0.2688 -0.1393
   18SAPC   H2R 2302   2.322   1.394   9.953  1.7836 -1.5285 -1.2128
   18SAPC   H2S 2303   2.336   1.231  10.010  0.4342  0.0862  0.4008
   18SAPC    C3 2304   2.714   1.352  10.209 -0.1422 -0.4591  0.3654
   18SAPC    HX 2305   2.800   1.375  10.275 -0.4478 -0.8900  0.9261
   18SAPC    HY 2306   2.683   1.445  10.157  0.6968 -0.8757 -0.9184
   18SAPC   O31 2307   2.758   1.252  10.116 -0.3674 -0.2124  0.1635
   18SAPC   C31 2308   2.699   1.251   9.999 -0.5431  0.1542  0.4193
   18SAPC   O32 2309   2.617   1.330   9.959  0.0126  0.2840 -0.9887
   18SAPC   C32 2310   2.727   1.121   9.928  0.4324  0.1603  0.6333
   18SAPC   H2X 2311   2.688   1.047  10.001  1.0180  0.5779  1.3762
   18SAPC   H2Y 2312   2.836   1.100   9.929  0.1649 -1.6584 -1.3311
   18SAPC   C23 2313   2.166   1.348  10.109  0.0341  0.4818  0.4712
   18SAPC   H3R 2314   2.166   1.434  10.179  1.9615  0.6679  0.3145
   18SAPC   H3S 2315   2.133   1.257  10.163  1.1189  0.5316  1.2658
   18SAPC   C24 2316   2.066   1.402  10.002 -1.7186 -0.5832 -0.1397
   18SAPC   H4R 2317   2.116   1.492   9.959  1.0926 -1.9528  0.0082
   18SAPC   H4S 2318   1.969   1.432  10.046 -1.0121  0.1366  0.9890
   18SAPC   C25 2319   2.034   1.301   9.899  0.7661 -0.3488 -0.4653
   18SAPC   H5R 2320   1.994   1.207   9.941 -0.2439  0.7039  1.0614
   18SAPC   C26 2321   2.065   1.304   9.768  0.3216  0.2445 -0.1778
   18SAPC   H6R 2322   2.058   1.207   9.715  2.1433  0.0633 -0.1495
   18SAPC   C27 2323   2.145   1.415   9.687  0.2144 -0.3599 -0.4380
   18SAPC   H7R 2324   2.140   1.512   9.741  1.3067 -0.0867 -0.7939
   18SAPC   H7S 2325   2.105   1.442   9.587 -4.6862 -1.3077  1.0326
   18SAPC   C28 2326   2.274   1.356   9.674  0.1059  0.2183 -0.5206
   18SAPC   H8R 2327   2.335   1.354   9.766 -0.9975  1.8255  0.3024
   18SAPC   C29 2328   2.321   1.307   9.558 -0.3010  0.6247  0.1163
   18SAPC   H9R 2329   2.415   1.250   9.559 -1.7156 -1.8210  1.1685
   18SAPC  C210 2330   2.244   1.306   9.423 -0.2610 -0.5947  0.0866
   18SAPC  H10R 2331   2.312   1.295   9.335 -2.5949 -2.0591 -1.6646
   18SAPC  H10S 2332   2.198   1.404   9.399  0.7504 -0.0877  0.1235
   18SAPC  C211 2333   2.137   1.202   9.402  0.1572 -0.2405 -0.2845
   18SAPC  H11R 2334   2.114   1.152   9.497 -0.7042  1.6808  0.5925
   18SAPC  C212 2335   2.049   1.184   9.298 -0.2781 -0.3335  0.0033
   18SAPC  H12R 2336   1.978   1.100   9.301 -1.2625  0.3872 -1.7554
   18SAPC  C213 2337   2.061   1.271   9.173  0.7667 -0.0518  0.1236
   18SAPC  H13R 2338   2.076   1.380   9.184  1.4398  0.0353 -1.4795
   18SAPC  H13S 2339   1.963   1.260   9.124  0.1392 -1.9176  1.6312
   18SAPC  C214 2340   2.171   1.217   9.087 -0.1311  0.1445 -0.1011
   18SAPC  H14R 2341   2.268   1.269   9.092 -0.4523  0.6688  0.9008
   18SAPC  C215 2342   2.168   1.109   9.002 -0.3303  0.2488 -0.7379
   18SAPC  H15R 2343   2.256   1.079   8.944 -1.0367 -0.3865 -1.5028
   18SAPC  C216 2344   2.042   1.026   8.985 -0.9579  0.4703 -0.2892
   18SAPC  H16R 2345   1.959   1.060   9.051 -1.4591  1.4252 -1.3673
   18SAPC  H16S 2346   2.065   0.921   9.011  0.8597  0.4523 -1.7644
   18SAPC  C217 2347   1.979   1.022   8.840  0.0439 -0.5212 -0.0253
   18SAPC  H17R 2348   1.890   0.956   8.850  0.1927 -0.8873 -1.0326
   18SAPC  H17S 2349   2.045   0.986   8.758  1.7414  0.9395  0.6464
   18SAPC  C218 2350   1.916   1.161   8.806  0.5970 -0.0020 -0.7772
   18SAPC  H18R 2351   1.996   1.236   8.796  0.7111  0.6893  3.5724
   18SAPC  H18S 2352   1.851   1.180   8.895 -0.8848 -0.7913 -1.6450
   18SAPC  C219 2353   1.827   1.167   8.683  0.0303 -0.4615  0.2597
   18SAPC  H19R 2354   1.865   1.103   8.601  2.5511  0.2487  0.7832
   18SAPC  H19S 2355   1.836   1.270   8.640 -0.1000 -0.5123  0.1086
   18SAPC  C220 2356   1.680   1.137   8.706  0.2253 -0.5397  0.1965
   18SAPC  H20R 2357   1.685   1.035   8.749  1.5262 -1.5720 -2.2108
   18SAPC  H20S 2358   1.609   1.136   8.620 -0.9003 -1.7748  1.0980
   18SAPC  H20T 2359   1.639   1.204   8.784 -1.0908 -1.6219  0.4804
   18SAPC   C33 2360   2.664   1.116   9.784 -0.1257  0.2473  0.0969
   18SAPC   H3X 2361   2.568   1.172   9.780 -0.3533  0.2905  3.4125
   18SAPC   H3Y 2362   2.647   1.014   9.745  0.4473 -0.1607  0.8818
   18SAPC   C34 2363   2.773   1.176   9.686  0.2723  0.2649  0.8669
   18SAPC   H4X 2364   2.862   1.110   9.687  0.5343  0.5333 -0.7845
   18SAPC   H4Y 2365   2.797   1.276   9.726 -0.7816  0.6089  0.6694
   18SAPC   C35 2366   2.710   1.179   9.543 -0.1699 -0.1300  0.2913
   18SAPC   H5X 2367   2.768   1.244   9.473  0.1480 -0.3239  0.3713
   18SAPC   H5Y 2368   2.608   1.221   9.553 -0.7285 -1.3552 -0.0986
   18SAPC   C36 2369   2.700   1.038   9.488  0.2289  0.8352  0.4411
   18SAPC   H6X 2370   2.612   0.978   9.520  0.5275  0.1129 -0.0678
   18SAPC   H6Y 2371   2.790   0.984   9.526  0.2009  0.2590 -0.2883
   18SAPC   C37 2372   2.707   1.031   9.338  0.4676 -0.1290  0.0592
   18SAPC   H7X 2373   2.692   0.927   9.301 -1.3447  0.0669  0.1687
   18SAPC   H7Y 2374   2.807   1.059   9.298 -0.0668 -1.6395 -2.6076
   18SAPC   C38 2375   2.599   1.118   9.274  0.4821 -0.7127 -0.5086
   18SAPC   H8X 2376   2.606   1.218   9.322  0.4829 -2.1717  2.8425
   18SAPC   H8Y 2377   2.497   1.090   9.310  0.9464  0.6836  2.1483
   18SAPC   C39 2378   2.616   1.138   9.125  1.1742  0.3314 -0.1098
   18SAPC   H9X 2379   2.708   1.193   9.093  1.9820 -1.0171 -0.1687
   18SAPC   H9Y 2380   2.539   1.210   9.089  1.1748  1.0654  1.2900
   18SAPC  C310 2381   2.614   1.015   9.036 -0.9595 -0.0568  0.1175
   18SAPC  H10X 2382   2.541   0.936   9.065  0.2666 -2.0560 -1.9394
   18SAPC  H10Y 2383   2.716   0.972   9.049 -1.2034 -0.4979  0.6587
   18SAPC  C311 2384   2.584   1.054   8.890  0.0936 -0.5013  0.4721
   18SAPC  H11X 2385   2.498   1.124   8.889  0.7134  0.5051 -3.9512
   18SAPC  H11Y 2386   2.549   0.965   8.834  1.6412 -0.0573 -1.3237
   18SAPC  C312 2387   2.703   1.094   8.803  0.3832 -0.5479  0.7279
   18SAPC  H12X 2388   2.799   1.039   8.809  1.9219  1.7270 -1.1033
   18SAPC  H12Y 2389   2.725   1.199   8.832 -2.3117  0.6426 -1.1268
   18SAPC  C313 2390   2.671   1.088   8.657 -0.0584  0.5638  0.7565
   18SAPC  H13X 2391   2.581   1.152   8.643  0.2425  0.8199 -0.0975
   18SAPC  H13Y 2392   2.649   0.980   8.648  2.7473  0.0070 -0.8386
   18SAPC  C314 2393   2.777   1.129   8.556 -0.7881 -0.2090 -0.0597
   18SAPC  H14X 2394   2.878   1.088   8.577 -0.2964  0.9784 -0.0705
   18SAPC  H14Y 2395   2.781   1.237   8.580  1.8854  0.0688 -1.3824
   18SAPC  C315 2396   2.729   1.106   8.411  0.7671  0.0469 -0.6435
   18SAPC  H15X 2397   2.772   1.187   8.348 -1.6562  2.3120  0.3921
   18SAPC  H15Y 2398   2.619   1.119   8.403  0.3668 -1.3605  1.5866
   18SAPC  C316 2399   2.770   0.964   8.361  0.6591 -0.5518 -0.6865
   18SAPC  H16X 2400   2.813   0.909   8.448 -1.8386 -0.6645  0.5512
   18SAPC  H16Y 2401   2.838   0.978   8.274  0.2405  1.4832 -0.7312
   18SAPC  C317 2402   2.654   0.877   8.315  0.4899  0.1032  0.1204
   18SAPC  H17X 2403   2.616   0.925   8.222  0.2616 -2.0821 -0.9788
   18SAPC  H17Y 2404   2.578   0.871   8.397 -0.3218 -0.9463 -0.6840
   18SAPC  C318 2405   2.708   0.742   8.273  0.2946 -0.5087 -0.5830
   18SAPC  H18X 2406   2.773   0.758   8.185  0.3341  2.1158 -0.1576
   18SAPC  H18Y 2407   2.623   0.676   8.243 -0.9039 -0.0700  1.5935
   18SAPC  H18Z 2408   2.752   0.675   8.350 -0.6318 -0.7116 -0.2112
   19SAPC     N 2409   0.747   4.523  10.746 -0.4047 -0.0397 -0.0284
   19SAPC   C12 2410   0.843   4.527  10.630  0.1446  0.2378  0.3105
   19SAPC  H12A 2411   0.857   4.429  10.586  0.2678 -0.7706  2.4533
   19SAPC  H12B 2412   0.942   4.552  10.667  0.0388  0.9570  0.1340
   19SAPC   C13 2413   0.754   4.649  10.833 -0.1121 -0.0694 -0.0060
   19SAPC  H13A 2414   0.735   4.737  10.775 -0.9186 -0.0842  0.2223
   19SAPC  H13B 2415   0.687   4.642  10.918  0.2388  0.4476  0.3210
   19SAPC  H13C 2416   0.852   4.660  10.878 -0.6895  0.6523  1.1219
   19SAPC   C14 2417   0.607   4.497  10.699 -0.2869  0.0401  0.6275
   19SAPC  H14A 2418   0.529   4.483  10.773 -2.3748 -0.3861 -1.5366
   19SAPC  H14B 2419   0.571   4.580  10.639  2.2305  0.8916  0.1986
   19SAPC  H14C 2420   0.600   4.408  10.638  1.1145 -0.1608  0.7314
   19SAPC   C15 2421   0.782   4.410  10.844 -0.4078  0.2118  0.0171
   19SAPC  H15A 2422   0.762   4.317  10.793 -0.4601  1.8594 -3.2445
   19SAPC  H15B 2423   0.885   4.420  10.874 -0.3859  2.1920 -0.5360
   19SAPC  H15C 2424   0.723   4.418  10.934  3.0858  0.9323  2.4352
   19SAPC   C11 2425   0.812   4.614  10.507 -0.4617 -0.7727  0.0848
   19SAPC  H11A 2426   0.710   4.586  10.473 -0.7638 -2.2389  2.0152
   19SAPC  H11B 2427   0.879   4.592  10.422  1.8117 -0.5738  1.7288
   19SAPC     P 2428   0.958   4.816  10.543 -0.6558 -0.4090 -0.1253
   19SAPC   O13 2429   0.955   4.945  10.618 -0.1361  0.0498  0.9712
   19SAPC   O14 2430   1.068   4.719  10.581 -0.1420 -0.4686  0.2304
   19SAPC   O12 2431   0.817   4.749  10.554 -0.0597  0.0256 -0.3879
   19SAPC   O11 2432   0.969   4.834  10.387  0.0222 -0.2431  0.3419
   19SAPC    C1 2433   0.869   4.898  10.303 -0.2169  0.4997 -0.4686
   19SAPC    HA 2434   0.792   4.937  10.373  2.2856 -1.7928  4.0338
   19SAPC    HB 2435   0.914   4.976  10.238  1.9377 -1.8417 -1.9679
   19SAPC    C2 2436   0.793   4.795  10.216  0.0954 -0.5014  0.7950
   19SAPC    HS 2437   0.757   4.710  10.277  0.1257 -1.0578  0.0504
   19SAPC   O21 2438   0.894   4.752  10.118 -0.3893 -0.3618  0.1635
   19SAPC   C21 2439   0.878   4.628  10.075 -0.4575  0.6195  0.6043
   19SAPC   O22 2440   0.798   4.547  10.119 -0.0953 -0.3057  0.2716
   19SAPC   C22 2441   0.980   4.599   9.954  0.9307  0.1159 -0.3364
   19SAPC   H2R 2442   0.916   4.630   9.868  1.1218  0.2887 -0.4153
   19SAPC   H2S 2443   1.061   4.674   9.966 -0.6435  1.9176 -0.2816
   19SAPC    C3 2444   0.668   4.860  10.134 -0.5090  0.4748 -0.6435
   19SAPC    HX 2445   0.590   4.878  10.211  2.0068 -0.9240  2.4306
   19SAPC    HY 2446   0.626   4.786  10.062  0.0001  0.5618 -1.0371
   19SAPC   O31 2447   0.703   4.976  10.058  0.4325  0.1587 -0.1326
   19SAPC   C31 2448   0.754   4.956   9.935  0.4930  0.7210  0.1499
   19SAPC   O32 2449   0.753   4.849   9.873  0.3580  0.1359  0.4195
   19SAPC   C32 2450   0.823   5.080   9.898 -0.9588  0.1306 -0.3698
   19SAPC   H2X 2451   0.926   5.044   9.878  0.4674  1.9477  2.8001
   19SAPC   H2Y 2452   0.839   5.146   9.987  1.9236  0.6049 -1.1227
   19SAPC   C23 2453   1.037   4.458   9.956  0.1658  0.0486 -0.7900
   19SAPC   H3R 2454   0.966   4.375   9.976  2.0273 -0.8395  3.2920
   19SAPC   H3S 2455   1.106   4.441  10.042 -3.4636 -1.9273  2.0721
   19SAPC   C24 2456   1.116   4.421   9.822 -0.1316  0.1133  0.2582
   19SAPC   H4R 2457   1.143   4.314   9.841 -0.0008  0.2362  0.7706
   19SAPC   H4S 2458   1.213   4.476   9.823  0.0518 -0.0963 -2.0066
   19SAPC   C25 2459   1.043   4.427   9.690  0.8921 -0.1065 -0.1908
   19SAPC   H5R 2460   1.003   4.528   9.670  0.5173 -0.0606  0.7448
   19SAPC   C26 2461   1.021   4.331   9.596  0.0431  0.2243 -0.0456
   19SAPC   H6R 2462   0.975   4.351   9.498  2.7440 -0.4346 -1.5485
   19SAPC   C27 2463   1.052   4.181   9.613 -0.4475 -0.2675 -0.0945
   19SAPC   H7R 2464   0.984   4.125   9.546 -0.6800 -0.8735  0.6349
   19SAPC   H7S 2465   1.023   4.144   9.714 -1.4325 -0.7008 -0.5239
   19SAPC   C28 2466   1.190   4.136   9.588 -0.8930  0.2830  0.1927
   19SAPC   H8R 2467   1.238   4.123   9.686  1.2563  0.0311 -0.8252
   19SAPC   C29 2468   1.248   4.101   9.472  0.3003 -0.5982  0.3820
   19SAPC   H9R 2469   1.358   4.094   9.469  0.3752  0.0914  1.0589
   19SAPC  C210 2470   1.183   4.112   9.337 -0.0777  0.3834 -0.0186
   19SAPC  H10R 2471   1.227   4.201   9.288  1.4149  0.2553  1.0218
   19SAPC  H10S 2472   1.073   4.118   9.336 -0.1826 -1.2005 -1.9117
   19SAPC  C211 2473   1.194   3.987   9.254  0.4590 -0.4668  0.3987
   19SAPC  H11R 2474   1.106   3.923   9.239 -1.5095  1.7753  1.5352
   19SAPC  C212 2475   1.308   3.957   9.189 -0.1885 -0.6062 -0.3066
   19SAPC  H12R 2476   1.310   3.871   9.121 -0.2521  0.0155 -1.1005
   19SAPC  C213 2477   1.443   4.031   9.200 -0.6923  0.0911  0.1460
   19SAPC  H13R 2478   1.486   4.005   9.299  0.0509 -0.9264 -0.4243
   19SAPC  H13S 2479   1.439   4.142   9.212  1.7276  0.1558  0.8614
   19SAPC  C214 2480   1.556   4.001   9.104  0.7280 -0.7040  0.1486
   19SAPC  H14R 2481   1.632   3.939   9.152  0.6971 -0.8463  0.0138
   19SAPC  C215 2482   1.553   4.006   8.969  0.8894  1.0807  0.8380
   19SAPC  H15R 2483   1.638   3.962   8.915 -0.6464  0.7174 -1.4221
   19SAPC  C216 2484   1.441   4.051   8.878  0.2984  0.2632 -0.2954
   19SAPC  H16R 2485   1.455   4.161   8.864 -0.4491  0.2219 -1.5016
   19SAPC  H16S 2486   1.336   4.050   8.913  0.9245  0.1534  1.6894
   19SAPC  C217 2487   1.447   3.992   8.729 -0.5384 -0.0138  0.3136
   19SAPC  H17R 2488   1.349   3.989   8.677 -1.6805 -0.2869  2.3630
   19SAPC  H17S 2489   1.479   3.886   8.736 -1.1151 -0.2144 -0.0360
   19SAPC  C218 2490   1.558   4.065   8.651 -0.1564 -0.3694 -0.4024
   19SAPC  H18R 2491   1.642   4.079   8.721  0.3292 -0.0831 -1.0366
   19SAPC  H18S 2492   1.516   4.165   8.623  0.3468 -0.6031 -2.0982
   19SAPC  C219 2493   1.596   4.007   8.519  0.1127  0.2537 -0.0106
   19SAPC  H19R 2494   1.628   3.900   8.526 -3.6100 -1.2311 -2.3090
   19SAPC  H19S 2495   1.671   4.073   8.472 -0.4037  0.8095 -0.0664
   19SAPC  C220 2496   1.464   3.994   8.430 -0.5091 -0.2256 -0.4448
   19SAPC  H20R 2497   1.487   3.945   8.333 -2.2574  3.0796 -2.6891
   19SAPC  H20S 2498   1.427   4.098   8.417  0.3489  0.3592  1.3450
   19SAPC  H20T 2499   1.399   3.930   8.494  0.2598  0.0488  0.6383
   19SAPC   C33 2500   0.758   5.135   9.771 -0.2354  0.8768 -0.0023
   19SAPC   H3X 2501   0.793   5.239   9.758  1.6646  0.0932 -1.5654
   19SAPC   H3Y 2502   0.648   5.153   9.778 -0.1534  1.8598 -1.0336
   19SAPC   C34 2503   0.808   5.064   9.645  0.5695 -0.3607  0.4019
   19SAPC   H4X 2504   0.788   4.955   9.642 -0.1964 -0.2293  0.3043
   19SAPC   H4Y 2505   0.919   5.068   9.644  0.6524 -1.6791 -1.5342
   19SAPC   C35 2506   0.766   5.134   9.512 -0.0851 -0.3078 -0.8443
   19SAPC   H5X 2507   0.784   5.244   9.513 -2.1691  0.0987  0.9615
   19SAPC   H5Y 2508   0.656   5.119   9.506 -0.4112  0.2786  2.1153
   19SAPC   C36 2509   0.829   5.075   9.388  0.4212  0.1145  0.5317
   19SAPC   H6X 2510   0.938   5.060   9.401  0.6150  0.5749 -0.4843
   19SAPC   H6Y 2511   0.817   5.137   9.297  4.7686  0.3250 -0.0916
   19SAPC   C37 2512   0.765   4.944   9.343  0.3610  0.3353  0.0728
   19SAPC   H7X 2513   0.654   4.953   9.331  0.4457 -0.7172 -1.8580
   19SAPC   H7Y 2514   0.769   4.872   9.427  0.2289  1.3537  0.9668
   19SAPC   C38 2515   0.822   4.890   9.214  0.3669 -0.2552  0.1982
   19SAPC   H8X 2516   0.923   4.933   9.197  0.5643 -0.3547  1.0875
   19SAPC   H8Y 2517   0.760   4.922   9.127 -1.0555 -3.4951 -0.1551
   19SAPC   C39 2518   0.836   4.735   9.212  0.7676 -0.7782  0.1548
   19SAPC   H9X 2519   0.738   4.691   9.239  0.5494 -1.3578 -1.4463
   19SAPC   H9Y 2520   0.917   4.720   9.287  0.0069 -0.8210  0.9778
   19SAPC  C310 2521   0.860   4.675   9.074 -0.0048  0.3392  0.5101
   19SAPC  H10X 2522   0.879   4.566   9.082 -0.2295  0.3157  0.7114
   19SAPC  H10Y 2523   0.960   4.715   9.044 -0.6224 -0.8949 -3.9251
   19SAPC  C311 2524   0.754   4.703   8.963 -0.9608 -0.1659 -0.5171
   19SAPC  H11X 2525   0.731   4.811   8.952 -0.5027 -0.1130 -0.9742
   19SAPC  H11Y 2526   0.658   4.661   9.000 -1.6874  1.4776 -0.4158
   19SAPC  C312 2527   0.783   4.647   8.822 -0.0917  0.2974 -0.3496
   19SAPC  H12X 2528   0.700   4.679   8.755  0.6327  0.9310 -0.9571
   19SAPC  H12Y 2529   0.786   4.536   8.827 -1.8236  0.2469  0.3507
   19SAPC  C313 2530   0.904   4.712   8.760  0.2963  0.0632  0.3608
   19SAPC  H13X 2531   0.993   4.701   8.825  0.7876  0.3879 -0.2388
   19SAPC  H13Y 2532   0.890   4.822   8.758 -0.4094 -0.0222 -0.7008
   19SAPC  C314 2533   0.946   4.646   8.626  0.2388  0.1292 -0.6036
   19SAPC  H14X 2534   1.023   4.705   8.572  4.0251 -2.6885  1.2268
   19SAPC  H14Y 2535   0.850   4.633   8.571 -0.1116 -2.8548  0.5094
   19SAPC  C315 2536   1.002   4.505   8.643 -0.1930 -0.0229 -0.4609
   19SAPC  H15X 2537   0.927   4.445   8.697  0.7806  0.8389  2.0130
   19SAPC  H15Y 2538   1.091   4.507   8.709 -0.3871 -0.1804 -0.1927
   19SAPC  C316 2539   1.021   4.441   8.502  0.1222 -0.3018 -0.0115
   19SAPC  H16X 2540   1.100   4.495   8.445  0.0545  2.8373  2.5903
   19SAPC  H16Y 2541   0.920   4.453   8.458 -0.7192 -0.5374  1.7510
   19SAPC  C317 2542   1.047   4.290   8.502  0.4847  0.5963 -0.2821
   19SAPC  H17X 2543   1.049   4.265   8.394 -0.3439  1.5235 -0.5315
   19SAPC  H17Y 2544   0.962   4.230   8.541  0.5395 -0.0697 -1.1616
   19SAPC  C318 2545   1.176   4.238   8.570 -0.2460  0.5401 -0.5928
   19SAPC  H18X 2546   1.200   4.130   8.565 -1.0898  0.3219 -0.0204
   19SAPC  H18Y 2547   1.171   4.259   8.679  2.1637 -1.0142 -0.1121
   19SAPC  H18Z 2548   1.262   4.298   8.531  1.2518 -1.2333 -0.1650
   20SAPC     N 2549   1.966   6.012  10.990 -0.2642  0.1437  0.0399
   20SAPC   C12 2550   1.987   6.087  10.863 -0.0667 -0.8280  0.0037
   20SAPC  H12A 2551   1.894   6.098  10.808 -0.0952  0.0992  0.2209
   20SAPC  H12B 2552   2.056   6.033  10.800  0.8778 -0.6941  0.8961
   20SAPC   C13 2553   2.084   6.002  11.080  0.3084 -0.5183 -0.1313
   20SAPC  H13A 2554   2.158   5.952  11.019 -0.2825  0.0704 -1.3635
   20SAPC  H13B 2555   2.121   6.102  11.097  0.4592 -0.7748  1.1403
   20SAPC  H13C 2556   2.070   5.960  11.178  2.1977  2.1725  1.4064
   20SAPC   C14 2557   1.859   6.082  11.076 -0.7037 -0.3228 -0.2988
   20SAPC  H14A 2558   1.901   6.177  11.107  1.8559 -1.6081  0.4846
   20SAPC  H14B 2559   1.768   6.106  11.023 -0.4441 -0.8092 -0.9815
   20SAPC  H14C 2560   1.842   6.035  11.171 -0.2122 -1.1903 -0.6307
   20SAPC   C15 2561   1.921   5.876  10.953 -0.1343 -0.2973  0.3577
   20SAPC  H15A 2562   1.824   5.876  10.907 -0.4568  0.4307  1.0078
   20SAPC  H15B 2563   1.982   5.832  10.876  1.0350  0.4415  0.8202
   20SAPC  H15C 2564   1.921   5.811  11.039  0.7749 -0.4164  0.2839
   20SAPC   C11 2565   2.038   6.228  10.865  0.4660  0.8358 -0.5151
   20SAPC  H11A 2566   1.984   6.278  10.949  0.6500  0.1181  0.0338
   20SAPC  H11B 2567   1.999   6.293  10.784 -1.1540  3.0257  1.8379
   20SAPC     P 2568   2.278   6.207  10.786 -0.1877 -0.0329  0.4632
   20SAPC   O13 2569   2.413   6.260  10.828  0.2055 -0.3186  0.1131
   20SAPC   O14 2570   2.267   6.061  10.747 -0.3680 -0.1217 -0.3240
   20SAPC   O12 2571   2.177   6.246  10.899  0.2352  0.4064  0.1549
   20SAPC   O11 2572   2.234   6.291  10.663 -0.3384  0.2998 -0.1002
   20SAPC    C1 2573   2.314   6.297  10.542 -0.0121 -0.2739 -0.6078
   20SAPC    HA 2574   2.277   6.382  10.482 -1.2222  0.2249  0.7805
   20SAPC    HB 2575   2.422   6.318  10.563  0.5369 -0.0563 -3.3001
   20SAPC    C2 2576   2.307   6.172  10.450 -0.0740 -0.2454  0.5667
   20SAPC    HS 2577   2.353   6.085  10.501  0.5651 -0.5827 -0.5408
   20SAPC   O21 2578   2.371   6.205  10.326  0.2764 -0.0595  0.3826
   20SAPC   C21 2579   2.436   6.116  10.259 -0.1240  0.2579  0.2090
   20SAPC   O22 2580   2.444   5.998  10.295  0.0089 -0.2218  0.1662
   20SAPC   C22 2581   2.494   6.172  10.123 -0.5368 -0.4652  0.7075
   20SAPC   H2R 2582   2.422   6.231  10.063 -2.0780 -1.4813  1.4900
   20SAPC   H2S 2583   2.587   6.231  10.134 -0.2677 -0.5015 -1.1063
   20SAPC    C3 2584   2.164   6.133  10.422 -0.4531 -0.0622 -0.0704
   20SAPC    HX 2585   2.113   6.232  10.408  1.3923  0.9490  0.0576
   20SAPC    HY 2586   2.112   6.102  10.516 -0.2921  0.9748  0.3806
   20SAPC   O31 2587   2.138   6.043  10.310 -0.1351 -0.3850 -0.3411
   20SAPC   C31 2588   2.156   5.918  10.348 -0.4191  0.4445 -0.5862
   20SAPC   O32 2589   2.180   5.874  10.458  0.2619 -0.1211  0.0824
   20SAPC   C32 2590   2.131   5.825  10.230 -0.1700 -0.3576 -1.2122
   20SAPC   H2X 2591   2.212   5.750  10.220  1.2868  1.1981 -1.4818
   20SAPC   H2Y 2592   2.157   5.891  10.144  1.0720  0.0934 -0.5080
   20SAPC   C23 2593   2.531   6.053  10.027  0.0354  0.7113 -0.0704
   20SAPC   H3R 2594   2.444   5.986  10.011 -0.0373  1.4099 -3.2917
   20SAPC   H3S 2595   2.605   5.986  10.076  0.0728  1.7612  1.3840
   20SAPC   C24 2596   2.589   6.104   9.890 -0.5235  0.1296 -0.4635
   20SAPC   H4R 2597   2.677   6.041   9.864  1.0113  1.2123  1.8278
   20SAPC   H4S 2598   2.608   6.213   9.902 -1.4839  0.3178 -0.5133
   20SAPC   C25 2599   2.472   6.093   9.792 -0.4354 -0.1572 -0.3585
   20SAPC   H5R 2600   2.370   6.105   9.832 -0.6624 -0.9020 -0.7042
   20SAPC   C26 2601   2.480   6.060   9.659 -0.4957 -0.3913 -0.0087
   20SAPC   H6R 2602   2.388   6.060   9.599 -0.2823 -1.2283 -0.3487
   20SAPC   C27 2603   2.607   6.042   9.586  0.4895 -0.0923 -0.2618
   20SAPC   H7R 2604   2.597   5.938   9.547 -1.3014  0.7195 -2.1455
   20SAPC   H7S 2605   2.696   6.056   9.651  1.0748  2.7618 -1.5359
   20SAPC   C28 2606   2.623   6.141   9.472  1.1407 -0.6365  0.1002
   20SAPC   H8R 2607   2.690   6.227   9.489  0.5458  0.0134 -0.7577
   20SAPC   C29 2608   2.569   6.130   9.349  0.0774  0.1876 -0.2595
   20SAPC   H9R 2609   2.603   6.199   9.272  0.3371  0.2357 -0.1035
   20SAPC  C210 2610   2.478   6.022   9.285  0.6022 -0.0477  0.1762
   20SAPC  H10R 2611   2.376   6.065   9.283 -0.5914 -2.5857  1.4354
   20SAPC  H10S 2612   2.465   5.937   9.356  2.0827  0.4520  1.0984
   20SAPC  C211 2613   2.537   5.974   9.156  0.8396 -0.8116 -0.0794
   20SAPC  H11R 2614   2.623   5.905   9.157  0.7900 -0.8725  1.0497
   20SAPC  C212 2615   2.486   6.017   9.037 -0.4707  0.3802  0.0305
   20SAPC  H12R 2616   2.532   5.978   8.945  0.6792  1.6034  0.0520
   20SAPC  C213 2617   2.375   6.118   9.003 -0.1289  0.4561  0.2014
   20SAPC  H13R 2618   2.273   6.087   9.033 -0.2844  2.9579  2.6660
   20SAPC  H13S 2619   2.378   6.136   8.894  0.0162  0.6224  0.2317
   20SAPC  C214 2620   2.386   6.261   9.057  0.4174 -0.2839  0.1481
   20SAPC  H14R 2621   2.432   6.258   9.157  1.0865  0.8577 -0.0994
   20SAPC  C215 2622   2.366   6.382   8.998 -0.4780 -0.2190  0.8523
   20SAPC  H15R 2623   2.368   6.469   9.066 -3.9845 -0.6316  1.6470
   20SAPC  C216 2624   2.342   6.415   8.849  0.5274  0.5664  0.5135
   20SAPC  H16R 2625   2.277   6.503   8.828  0.0414  0.0029 -0.4121
   20SAPC  H16S 2626   2.290   6.324   8.812 -0.3837  0.7664  1.2588
   20SAPC  C217 2627   2.458   6.432   8.755  0.6278  0.5788  0.2037
   20SAPC  H17R 2628   2.513   6.335   8.762 -0.2036  0.0537 -0.3663
   20SAPC  H17S 2629   2.532   6.507   8.790  0.8910 -0.2982  1.6134
   20SAPC  C218 2630   2.413   6.456   8.610 -0.3702 -0.0866  0.4329
   20SAPC  H18R 2631   2.491   6.524   8.572  0.6529  1.0986  4.2433
   20SAPC  H18S 2632   2.316   6.510   8.614 -0.0984  0.5157 -0.7604
   20SAPC  C219 2633   2.403   6.321   8.522 -0.3168 -0.5582  0.2865
   20SAPC  H19R 2634   2.502   6.273   8.535  0.4698  0.6983 -0.8704
   20SAPC  H19S 2635   2.408   6.352   8.416 -0.1406  0.6548  0.6436
   20SAPC  C220 2636   2.278   6.239   8.550 -0.1158 -0.2106 -0.2354
   20SAPC  H20R 2637   2.281   6.200   8.654  1.2145 -1.2403 -0.6199
   20SAPC  H20S 2638   2.269   6.151   8.482 -0.2036  0.2015 -0.7619
   20SAPC  H20T 2639   2.187   6.301   8.554  0.0120 -0.1005  1.5519
   20SAPC   C33 2640   1.986   5.784  10.229  0.8617  0.4871  0.2355
   20SAPC   H3X 2641   1.917   5.867  10.206  1.8760  0.8015 -2.0075
   20SAPC   H3Y 2642   1.956   5.746  10.329  1.4573  0.7549  0.5229
   20SAPC   C34 2643   1.957   5.670  10.124  0.5959 -0.0976  0.5999
   20SAPC   H4X 2644   1.854   5.632  10.138  1.1427 -2.1196 -0.4807
   20SAPC   H4Y 2645   2.025   5.583  10.140  1.8697  0.8548  0.5547
   20SAPC   C35 2646   1.951   5.731   9.980 -1.0604 -1.1072  0.0187
   20SAPC   H5X 2647   2.046   5.780   9.950 -0.6539 -1.2741  0.9995
   20SAPC   H5Y 2648   1.882   5.818   9.982  0.4465  0.1172  2.0878
   20SAPC   C36 2649   1.936   5.631   9.862  0.3355 -0.5105 -0.3962
   20SAPC   H6X 2650   1.846   5.569   9.883 -0.3399  0.6471  0.2166
   20SAPC   H6Y 2651   2.020   5.560   9.850  0.3167 -0.2474 -2.3194
   20SAPC   C37 2652   1.915   5.691   9.729  0.8615 -0.0263 -0.3461
   20SAPC   H7X 2653   1.995   5.765   9.709  1.3025 -0.4635 -0.1984
   20SAPC   H7Y 2654   1.821   5.751   9.728  1.1674  0.4540 -0.8671
   20SAPC   C38 2655   1.912   5.590   9.608 -0.3798  0.0027  1.0379
   20SAPC   H8X 2656   2.007   5.535   9.591 -0.1682  0.9644 -1.3175
   20SAPC   H8Y 2657   1.905   5.658   9.520  1.0090  0.8133  1.5257
   20SAPC   C39 2658   1.793   5.498   9.606 -0.1859  0.0079  0.2276
   20SAPC   H9X 2659   1.704   5.560   9.630  0.2374  1.1756 -1.1083
   20SAPC   H9Y 2660   1.804   5.424   9.688  1.4833  3.1122  3.0905
   20SAPC  C310 2661   1.771   5.423   9.472  0.0019 -0.6104  0.1039
   20SAPC  H10X 2662   1.720   5.324   9.475  0.4091 -0.9869 -2.6045
   20SAPC  H10Y 2663   1.870   5.396   9.430  0.8628 -0.5570  2.0213
   20SAPC  C311 2664   1.682   5.502   9.372 -0.0304  0.6940 -0.8637
   20SAPC  H11X 2665   1.727   5.604   9.370  2.8887 -0.3772  1.5743
   20SAPC  H11Y 2666   1.579   5.496   9.412  0.0388 -1.4271 -0.9328
   20SAPC  C312 2667   1.687   5.431   9.237  0.1785  0.2779 -0.1186
   20SAPC  H12X 2668   1.658   5.323   9.232  1.2344  0.0002 -0.4149
   20SAPC  H12Y 2669   1.788   5.435   9.192 -0.2621  1.5403 -1.0362
   20SAPC  C313 2670   1.604   5.510   9.123  0.3824  0.3792 -1.0445
   20SAPC  H13X 2671   1.659   5.604   9.101  2.0059 -0.4531 -0.6978
   20SAPC  H13Y 2672   1.501   5.528   9.158  0.5349 -0.4520 -0.1154
   20SAPC  C314 2673   1.581   5.444   8.994  0.1538 -0.1275  0.1480
   20SAPC  H14X 2674   1.519   5.508   8.928 -2.0860 -1.0947  1.2393
   20SAPC  H14Y 2675   1.519   5.352   9.006  1.7838 -0.9370  4.0798
   20SAPC  C315 2676   1.716   5.412   8.927  0.5989 -0.9381  0.1360
   20SAPC  H15X 2677   1.768   5.325   8.974  1.4575 -2.5160 -3.4241
   20SAPC  H15Y 2678   1.782   5.500   8.942 -0.9476  0.0690  1.4084
   20SAPC  C316 2679   1.698   5.389   8.779  0.8108  0.5154 -0.2722
   20SAPC  H16X 2680   1.667   5.483   8.729 -0.8621  0.0232 -0.2255
   20SAPC  H16Y 2681   1.628   5.306   8.753  0.2702  1.2295 -1.1495
   20SAPC  C317 2682   1.831   5.339   8.715 -0.0982  0.1659 -0.5166
   20SAPC  H17X 2683   1.798   5.342   8.609 -2.2451  1.8796  0.1243
   20SAPC  H17Y 2684   1.852   5.232   8.735  1.3416  0.2872 -1.2398
   20SAPC  C318 2685   1.945   5.427   8.729 -0.4016 -0.8391  0.0153
   20SAPC  H18X 2686   1.980   5.426   8.834 -0.6978  0.2087  0.1346
   20SAPC  H18Y 2687   1.918   5.528   8.690 -0.4358 -0.2637  1.4847
   20SAPC  H18Z 2688   2.035   5.396   8.671  1.4992  0.5675  2.0399
   21SAPC     N 2689   2.827   5.344  11.027 -0.3165 -0.1782 -0.1241
   21SAPC   C12 2690   2.719   5.391  10.934 -0.6776 -0.3356 -0.5955
   21SAPC  H12A 2691   2.733   5.498  10.926 -1.9606 -0.0975  0.0693
   21SAPC  H12B 2692   2.622   5.365  10.974 -0.3111 -1.7259 -0.5598
   21SAPC   C13 2693   2.834   5.197  11.043 -1.1275  0.3183 -0.1186
   21SAPC  H13A 2694   2.739   5.163  11.082  0.2307 -0.7098  2.5968
   21SAPC  H13B 2695   2.874   5.132  10.966  1.8401  0.3882  1.2268
   21SAPC  H13C 2696   2.902   5.179  11.125 -1.8537 -1.5704  0.1346
   21SAPC   C14 2697   2.962   5.384  10.987 -0.9842 -0.2813 -0.1810
   21SAPC  H14A 2698   2.964   5.492  10.990 -1.8426 -0.2542 -0.3707
   21SAPC  H14B 2699   3.040   5.338  11.046 -1.7359 -1.6265 -0.1872
   21SAPC  H14C 2700   2.971   5.357  10.883  0.1427 -1.6404  0.2365
   21SAPC   C15 2701   2.804   5.415  11.160  0.4222  0.0122 -0.1197
   21SAPC  H15A 2702   2.795   5.522  11.150 -2.2100  0.0410  1.5409
   21SAPC  H15B 2703   2.722   5.367  11.211  1.1490 -0.1903  0.8949
   21SAPC  H15C 2704   2.887   5.394  11.225  0.0864  1.9293  0.9883
   21SAPC   C11 2705   2.711   5.324  10.790  0.2254 -0.1784 -0.8608
   21SAPC  H11A 2706   2.611   5.333  10.743 -0.9193  0.6763  1.5516
   21SAPC  H11B 2707   2.722   5.215  10.807  1.1468  0.2575  1.9102
   21SAPC     P 2708   2.808   5.504  10.634  0.0774 -0.3461  0.2045
   21SAPC   O13 2709   2.710   5.588  10.698  0.1008 -0.1497  0.5912
   21SAPC   O14 2710   2.941   5.562  10.617 -0.3999 -0.4710  0.3954
   21SAPC   O12 2711   2.823   5.366  10.711  0.9302  0.4095 -0.1089
   21SAPC   O11 2712   2.759   5.461  10.489  0.6788  0.1936  0.2427
   21SAPC    C1 2713   2.685   5.340  10.461  0.5891  0.4376 -0.1724
   21SAPC    HA 2714   2.751   5.259  10.499  1.0822  1.5684  1.5217
   21SAPC    HB 2715   2.589   5.338  10.516  0.6048  1.3658 -0.0987
   21SAPC    C2 2716   2.660   5.334  10.308  0.1562 -0.3541 -0.2150
   21SAPC    HS 2717   2.762   5.338  10.263  0.3720 -0.1620  0.2925
   21SAPC   O21 2718   2.579   5.445  10.275 -0.6772 -0.7716 -0.1081
   21SAPC   C21 2719   2.609   5.506  10.163  0.1434 -0.5141  0.1393
   21SAPC   O22 2720   2.713   5.501  10.099 -0.1479 -0.3141  0.1292
   21SAPC   C22 2721   2.487   5.584  10.125 -0.6618 -0.3898 -0.4937
   21SAPC   H2R 2722   2.401   5.515  10.110 -1.2588  0.1358  0.4086
   21SAPC   H2S 2723   2.443   5.638  10.211 -0.3210 -1.3468  0.2898
   21SAPC    C3 2724   2.603   5.198  10.270 -0.1900 -0.4785  0.8999
   21SAPC    HX 2725   2.511   5.187  10.331  0.4303  0.0689  1.9701
   21SAPC    HY 2726   2.676   5.121  10.306 -0.3452 -0.5354  1.0929
   21SAPC   O31 2727   2.587   5.201  10.134  0.6127 -0.3949  0.6937
   21SAPC   C31 2728   2.700   5.182  10.056 -0.2305 -0.0263  0.3556
   21SAPC   O32 2729   2.801   5.135  10.092  0.2637  0.4136 -0.2793
   21SAPC   C32 2730   2.674   5.227   9.912 -0.1213 -0.4499  0.1804
   21SAPC   H2X 2731   2.695   5.336   9.907  1.0615 -0.6162  1.0082
   21SAPC   H2Y 2732   2.569   5.206   9.883 -0.3432  0.2694  0.4609
   21SAPC   C23 2733   2.508   5.679  10.009  0.0587  0.6150 -0.8097
   21SAPC   H3R 2734   2.599   5.742  10.022 -0.6542  1.2986  1.1485
   21SAPC   H3S 2735   2.420   5.747  10.010 -0.3081  0.1457 -0.8829
   21SAPC   C24 2736   2.511   5.609   9.868 -0.4205 -0.6570 -0.1537
   21SAPC   H4R 2737   2.421   5.544   9.864 -0.2819 -0.8671  0.1189
   21SAPC   H4S 2738   2.590   5.532   9.880 -0.6762 -0.9610 -0.3967
   21SAPC   C25 2739   2.523   5.701   9.745 -0.4656  0.3156  0.0405
   21SAPC   H5R 2740   2.561   5.802   9.761 -0.6677  0.5147 -0.6914
   21SAPC   C26 2741   2.456   5.681   9.630  0.1766 -0.4834  0.9807
   21SAPC   H6R 2742   2.474   5.752   9.548  0.3940 -0.2426  1.2321
   21SAPC   C27 2743   2.376   5.562   9.608  0.4676  0.6250  0.4401
   21SAPC   H7R 2744   2.268   5.589   9.614  0.1138 -0.5473 -0.1998
   21SAPC   H7S 2745   2.399   5.474   9.672 -0.1939  0.2283  0.1451
   21SAPC   C28 2746   2.400   5.522   9.458 -0.1272 -0.4428 -0.2252
   21SAPC   H8R 2747   2.485   5.455   9.435 -0.0037 -0.0037 -1.0797
   21SAPC   C29 2748   2.322   5.565   9.354  0.1040 -0.3996  0.1948
   21SAPC   H9R 2749   2.338   5.519   9.255 -0.4173  1.8542 -0.9900
   21SAPC  C210 2750   2.207   5.666   9.361  0.5866 -0.1151  0.3966
   21SAPC  H10R 2751   2.237   5.766   9.324 -2.2522  1.0706  0.9567
   21SAPC  H10S 2752   2.186   5.696   9.466  1.1054  0.5488  0.3145
   21SAPC  C211 2753   2.087   5.627   9.279 -0.1700 -0.4503  0.2895
   21SAPC  H11R 2754   2.014   5.554   9.318 -2.4806  2.0661  0.9805
   21SAPC  C212 2755   2.080   5.668   9.156 -0.2083 -0.5832  0.6405
   21SAPC  H12R 2756   1.991   5.649   9.094  0.2389  1.5234 -0.7474
   21SAPC  C213 2757   2.176   5.751   9.072 -0.1811  0.0076  0.9341
   21SAPC  H13R 2758   2.225   5.831   9.132 -0.3354  0.5022  0.4179
   21SAPC  H13S 2759   2.119   5.812   8.998  0.7229 -0.7173 -0.4030
   21SAPC  C214 2760   2.283   5.657   9.012 -0.3775  0.0891  0.4114
   21SAPC  H14R 2761   2.334   5.605   9.095 -0.7962 -1.4481 -0.2485
   21SAPC  C215 2762   2.320   5.634   8.886 -0.3166 -0.1888 -0.0531
   21SAPC  H15R 2763   2.391   5.551   8.877  0.0162  0.0289  0.5112
   21SAPC  C216 2764   2.260   5.701   8.763 -0.6727  1.1810  0.0729
   21SAPC  H16R 2765   2.158   5.734   8.790 -0.2165  0.7532  2.5582
   21SAPC  H16S 2766   2.255   5.620   8.687  0.8564 -0.3577  1.5233
   21SAPC  C217 2767   2.345   5.802   8.699 -0.1068 -0.1624 -0.6522
   21SAPC  H17R 2768   2.392   5.864   8.779  1.2992 -2.4796  0.4328
   21SAPC  H17S 2769   2.278   5.873   8.647  0.6503  1.0256 -0.0655
   21SAPC  C218 2770   2.451   5.744   8.612  0.3692  0.0643 -0.3546
   21SAPC  H18R 2771   2.402   5.683   8.533 -0.5400  0.7762 -0.3520
   21SAPC  H18S 2772   2.523   5.679   8.667 -1.6135 -2.7693 -0.9009
   21SAPC  C219 2773   2.541   5.848   8.541 -0.4784 -0.3590 -0.0522
   21SAPC  H19R 2774   2.489   5.904   8.460 -2.6202 -1.2996  0.5792
   21SAPC  H19S 2775   2.612   5.782   8.486  0.6960 -0.5558  1.6307
   21SAPC  C220 2776   2.617   5.947   8.629  0.2385  0.5542 -0.1044
   21SAPC  H20R 2777   2.653   5.906   8.726 -0.2911  0.4672  0.0565
   21SAPC  H20S 2778   2.550   6.028   8.666  0.9713  1.8675 -1.5386
   21SAPC  H20T 2779   2.701   5.999   8.579  0.4115  0.0512 -0.3473
   21SAPC   C33 2780   2.774   5.159   9.811  0.8722 -0.6333 -0.1094
   21SAPC   H3X 2781   2.775   5.050   9.829 -0.0216 -0.4996  0.8813
   21SAPC   H3Y 2782   2.877   5.195   9.831  1.4321 -1.7542 -0.8908
   21SAPC   C34 2783   2.741   5.201   9.667  0.1149 -0.1580 -0.4682
   21SAPC   H4X 2784   2.739   5.312   9.666  0.5098 -0.0820  1.8487
   21SAPC   H4Y 2785   2.637   5.172   9.641  0.4767 -1.9850 -0.0588
   21SAPC   C35 2786   2.823   5.136   9.560  0.2616 -0.2610 -0.4953
   21SAPC   H5X 2787   2.836   5.032   9.596 -1.5311  0.0766  1.2843
   21SAPC   H5Y 2788   2.925   5.180   9.556  0.5084 -0.2868  2.8857
   21SAPC   C36 2789   2.757   5.143   9.418  0.0915 -0.0002  0.2835
   21SAPC   H6X 2790   2.658   5.093   9.423 -0.3621  1.0051  1.9430
   21SAPC   H6Y 2791   2.817   5.074   9.354 -0.9981 -1.1290  0.4578
   21SAPC   C37 2792   2.742   5.275   9.339 -1.3350 -0.2419 -0.0777
   21SAPC   H7X 2793   2.845   5.310   9.315 -1.4453  1.0203  1.1685
   21SAPC   H7Y 2794   2.709   5.352   9.412 -2.0256 -1.3328  0.7823
   21SAPC   C38 2795   2.646   5.268   9.220  0.3905  0.0345  0.1165
   21SAPC   H8X 2796   2.551   5.236   9.268 -0.3326  1.0753 -0.5847
   21SAPC   H8Y 2797   2.684   5.188   9.152 -1.0517 -1.2918  0.7939
   21SAPC   C39 2798   2.618   5.405   9.155 -0.1110  0.2444 -0.0438
   21SAPC   H9X 2799   2.583   5.465   9.242  0.5766 -1.2725  1.3291
   21SAPC   H9Y 2800   2.542   5.395   9.075 -1.4642  1.8429  0.9451
   21SAPC  C310 2801   2.734   5.464   9.086  0.1884  0.2518  0.8331
   21SAPC  H10X 2802   2.761   5.391   9.007  1.4336  1.2666  0.2693
   21SAPC  H10Y 2803   2.819   5.472   9.157  1.4605  0.9357 -0.7048
   21SAPC  C311 2804   2.704   5.603   9.022 -0.3400  0.6892  0.6386
   21SAPC  H11X 2805   2.684   5.667   9.110  0.8395  0.1259  1.3483
   21SAPC  H11Y 2806   2.614   5.602   8.957 -1.7160 -1.6038  2.4059
   21SAPC  C312 2807   2.830   5.640   8.934 -0.2857  0.1423 -0.0107
   21SAPC  H12X 2808   2.911   5.654   9.008  1.1832 -2.1898 -1.0337
   21SAPC  H12Y 2809   2.816   5.742   8.894  1.6160  0.2320 -0.5417
   21SAPC  C313 2810   2.876   5.539   8.823  0.0138  0.3739  0.3653
   21SAPC  H13X 2811   2.912   5.445   8.869 -1.9028 -0.4702  0.2534
   21SAPC  H13Y 2812   2.960   5.582   8.765 -0.4917  1.5197  0.4564
   21SAPC  C314 2813   2.769   5.512   8.724  0.7076  0.4505  1.3949
   21SAPC  H14X 2814   2.726   5.608   8.687 -1.1668 -0.9480 -0.2777
   21SAPC  H14Y 2815   2.681   5.460   8.765 -0.2742  1.1270  0.2236
   21SAPC  C315 2816   2.826   5.419   8.608  0.1140 -0.1661  0.3562
   21SAPC  H15X 2817   2.923   5.371   8.636  1.6719  2.0516 -0.9171
   21SAPC  H15Y 2818   2.846   5.485   8.521  0.2016 -2.2956 -1.3416
   21SAPC  C316 2819   2.729   5.313   8.555  0.6089 -0.1013 -0.1604
   21SAPC  H16X 2820   2.722   5.235   8.634 -1.0583 -1.3119 -1.4486
   21SAPC  H16Y 2821   2.764   5.272   8.458  1.3775  1.4369 -0.5852
   21SAPC  C317 2822   2.586   5.368   8.525 -0.2526  0.3896 -0.6216
   21SAPC  H17X 2823   2.586   5.456   8.457  1.1592  1.7038  1.0046
   21SAPC  H17Y 2824   2.544   5.408   8.620  2.2734 -1.0003  1.2024
   21SAPC  C318 2825   2.490   5.261   8.460  0.0213 -0.3534  0.1978
   21SAPC  H18X 2826   2.391   5.312   8.453  1.5256  2.5589 -1.7653
   21SAPC  H18Y 2827   2.487   5.159   8.505 -0.6935 -1.8973 -2.9969
   21SAPC  H18Z 2828   2.514   5.240   8.353 -2.3637 -0.2757 -0.4064
   22SAPC     N 2829   1.273   2.539  10.581  0.1201  0.0407  0.0706
   22SAPC   C12 2830   1.255   2.641  10.477  0.7089  0.1512  0.1663
   22SAPC  H12A 2831   1.172   2.704  10.503 -0.8755 -1.8041  0.1259
   22SAPC  H12B 2832   1.224   2.578  10.394 -0.5411 -0.0262  0.7421
   22SAPC   C13 2833   1.298   2.595  10.720 -0.0934  0.1227 -0.1920
   22SAPC  H13A 2834   1.398   2.631  10.738  0.2610 -0.9113  0.0051
   22SAPC  H13B 2835   1.232   2.679  10.735  1.6300  1.4465  0.3384
   22SAPC  H13C 2836   1.275   2.516  10.790  0.8204 -0.6701 -0.7466
   22SAPC   C14 2837   1.146   2.451  10.575 -0.0063  0.2772  0.2909
   22SAPC  H14A 2838   1.058   2.510  10.596 -0.1913 -0.4255  1.6511
   22SAPC  H14B 2839   1.145   2.416  10.473  3.4395 -0.8148  0.5143
   22SAPC  H14C 2840   1.151   2.368  10.644 -3.0879  0.1641  0.5233
   22SAPC   C15 2841   1.388   2.450  10.552 -0.3955  0.3214 -0.5488
   22SAPC  H15A 2842   1.394   2.366  10.619 -0.8225  0.8746  0.1853
   22SAPC  H15B 2843   1.382   2.418  10.449 -1.6960 -0.7901 -0.1562
   22SAPC  H15C 2844   1.482   2.500  10.570 -0.7094 -0.0367  2.6508
   22SAPC   C11 2845   1.375   2.728  10.444 -0.9476  0.0929  0.1064
   22SAPC  H11A 2846   1.357   2.784  10.349 -1.4324 -1.1249 -0.5466
   22SAPC  H11B 2847   1.468   2.671  10.422 -0.8162  1.0822 -2.1901
   22SAPC     P 2848   1.313   2.945  10.580 -0.0035  0.2843 -0.5366
   22SAPC   O13 2849   1.175   2.914  10.528 -0.3404 -0.0189 -0.2757
   22SAPC   O14 2850   1.331   3.001  10.716 -0.1559  0.2254 -0.8974
   22SAPC   O12 2851   1.396   2.813  10.555 -0.1103 -0.4745 -0.5314
   22SAPC   O11 2852   1.371   3.051  10.477  0.2168  0.1521  0.4363
   22SAPC    C1 2853   1.506   3.042  10.435  0.0473 -0.1249  0.0438
   22SAPC    HA 2854   1.566   3.104  10.505  2.8761 -1.0729 -1.3752
   22SAPC    HB 2855   1.540   2.937  10.425 -0.5036 -0.3228  0.2397
   22SAPC    C2 2856   1.550   3.113  10.308  0.7398  0.0739  0.1497
   22SAPC    HS 2857   1.530   3.222  10.312  4.0332  0.7619  2.5596
   22SAPC   O21 2858   1.476   3.036  10.212 -0.9409 -0.7661  0.9415
   22SAPC   C21 2859   1.443   3.096  10.100  1.1293 -0.0247  0.1510
   22SAPC   O22 2860   1.466   3.208  10.067  0.5819 -0.1903 -0.0235
   22SAPC   C22 2861   1.373   2.985  10.020 -0.2283 -0.3666  0.9673
   22SAPC   H2R 2862   1.454   2.912  10.000  0.6597  0.6257  0.8404
   22SAPC   H2S 2863   1.293   2.937  10.079 -1.1584 -2.0527 -1.5278
   22SAPC    C3 2864   1.699   3.105  10.276 -0.2808  0.0741  1.0062
   22SAPC    HX 2865   1.718   2.996  10.282  1.4173  0.3153  0.6283
   22SAPC    HY 2866   1.765   3.149  10.353  0.7488 -0.5080  0.4834
   22SAPC   O31 2867   1.730   3.156  10.138  0.4642 -0.6730  0.0392
   22SAPC   C31 2868   1.739   3.294  10.131 -0.3524 -0.5582 -0.0345
   22SAPC   O32 2869   1.712   3.372  10.224  0.4635  0.0020  0.8209
   22SAPC   C32 2870   1.797   3.334   9.995 -1.5538 -0.3498  0.5455
   22SAPC   H2X 2871   1.899   3.290   9.991 -2.4585 -2.5090 -0.1713
   22SAPC   H2Y 2872   1.803   3.445   9.990 -0.1069 -0.4298  0.0266
   22SAPC   C23 2873   1.312   3.055   9.893 -0.4335 -0.5233  0.6267
   22SAPC   H3R 2874   1.389   3.114   9.839 -1.7801  1.4817  0.8122
   22SAPC   H3S 2875   1.239   3.132   9.924 -0.1019 -0.3094  0.8873
   22SAPC   C24 2876   1.246   2.948   9.806 -0.0775  0.2997  0.3887
   22SAPC   H4R 2877   1.160   2.994   9.753  1.3980  2.1267 -0.5810
   22SAPC   H4S 2878   1.206   2.865   9.868 -2.9889 -1.8568 -3.8784
   22SAPC   C25 2879   1.337   2.891   9.694 -0.0536 -0.5361  0.1672
   22SAPC   H5R 2880   1.408   2.815   9.730  1.7115  1.0036  0.1157
   22SAPC   C26 2881   1.332   2.919   9.563  0.0025 -1.0847 -0.3864
   22SAPC   H6R 2882   1.406   2.873   9.496 -1.3906  0.5061 -3.2028
   22SAPC   C27 2883   1.239   3.018   9.497  0.1074  0.3672 -0.0706
   22SAPC   H7R 2884   1.193   3.104   9.551 -0.0945  1.2203 -1.5470
   22SAPC   H7S 2885   1.149   2.961   9.467  0.6109 -0.4595 -0.0357
   22SAPC   C28 2886   1.302   3.085   9.380  0.1586 -0.1900 -0.1283
   22SAPC   H8R 2887   1.367   3.169   9.409 -0.8799 -0.4504  3.4941
   22SAPC   C29 2888   1.302   3.049   9.248 -0.0694 -0.0406  0.2469
   22SAPC   H9R 2889   1.363   3.104   9.175 -0.8606  0.1623 -0.2667
   22SAPC  C210 2890   1.225   2.931   9.196  0.1345 -0.3803  0.3235
   22SAPC  H10R 2891   1.166   2.869   9.266 -0.8329  0.0996 -0.0466
   22SAPC  H10S 2892   1.306   2.873   9.146  3.6584  2.8328  1.8162
   22SAPC  C211 2893   1.134   2.990   9.087  0.2904 -0.6928 -0.2321
   22SAPC  H11R 2894   1.052   3.042   9.138  3.5269  2.0466  2.7663
   22SAPC  C212 2895   1.141   2.988   8.953  0.6089 -0.1335  0.4034
   22SAPC  H12R 2896   1.067   3.048   8.899 -1.8888 -0.8429  2.8266
   22SAPC  C213 2897   1.252   2.922   8.873  0.3276 -0.3078  0.2227
   22SAPC  H13R 2898   1.206   2.889   8.777 -0.5204 -0.0154  0.5181
   22SAPC  H13S 2899   1.286   2.831   8.928  1.3890 -0.4301 -0.6163
   22SAPC  C214 2900   1.374   3.002   8.849 -0.4624  0.2623 -0.9170
   22SAPC  H14R 2901   1.408   3.057   8.938  2.7147 -2.0123 -0.5609
   22SAPC  C215 2902   1.438   3.014   8.734  0.2856 -0.1810  0.2434
   22SAPC  H15R 2903   1.529   3.077   8.732  1.4760 -1.7879  0.9490
   22SAPC  C216 2904   1.405   2.942   8.607  0.3540 -0.3978 -0.0071
   22SAPC  H16R 2905   1.326   2.990   8.546 -0.1163  0.1503  1.0020
   22SAPC  H16S 2906   1.378   2.836   8.625  0.8446 -0.4664  0.3412
   22SAPC  C217 2907   1.529   2.955   8.519 -0.7116  0.6997  0.4875
   22SAPC  H17R 2908   1.618   2.925   8.579  0.5191  1.6502 -0.7829
   22SAPC  H17S 2909   1.534   3.060   8.485  0.0273 -0.0985 -2.1286
   22SAPC  C218 2910   1.528   2.866   8.396  0.2920  0.4681  0.8770
   22SAPC  H18R 2911   1.449   2.904   8.327 -0.0020  1.1070  1.5517
   22SAPC  H18S 2912   1.502   2.760   8.416  3.4040 -0.3034  1.3468
   22SAPC  C219 2913   1.659   2.862   8.309  0.1674 -0.6074 -0.2377
   22SAPC  H19R 2914   1.738   2.797   8.352  0.2162 -1.6751 -1.8295
   22SAPC  H19S 2915   1.703   2.962   8.290  0.6435 -1.0451 -1.5843
   22SAPC  C220 2916   1.638   2.816   8.162 -0.0965  0.0649 -0.4356
   22SAPC  H20R 2917   1.596   2.714   8.174  1.7004 -0.4294  2.7898
   22SAPC  H20S 2918   1.728   2.803   8.099  1.1335  1.4690  0.9413
   22SAPC  H20T 2919   1.564   2.875   8.104 -2.3279  0.0631  2.1944
   22SAPC   C33 2920   1.710   3.272   9.881  0.1527  0.0660 -0.3496
   22SAPC   H3X 2921   1.609   3.319   9.889  0.6187  1.3480 -1.5756
   22SAPC   H3Y 2922   1.693   3.166   9.908 -0.7641  0.3044  0.0609
   22SAPC   C34 2923   1.766   3.267   9.743 -0.0440 -0.0725  0.8864
   22SAPC   H4X 2924   1.851   3.195   9.745 -0.2799 -0.3513  2.7523
   22SAPC   H4Y 2925   1.813   3.364   9.715  1.1609 -0.4597  1.4625
   22SAPC   C35 2926   1.679   3.226   9.620 -0.4504 -0.2217  0.0862
   22SAPC   H5X 2927   1.583   3.280   9.634  0.7137  1.7147  1.0232
   22SAPC   H5Y 2928   1.652   3.119   9.629  0.6040 -0.4905  0.1393
   22SAPC   C36 2929   1.741   3.245   9.481  1.0914 -0.1728  0.0262
   22SAPC   H6X 2930   1.839   3.194   9.483  2.0347  1.5434 -0.5818
   22SAPC   H6Y 2931   1.746   3.354   9.459 -0.8453 -0.2678 -1.0986
   22SAPC   C37 2932   1.657   3.191   9.371 -0.5015  0.4967 -0.5965
   22SAPC   H7X 2933   1.584   3.269   9.341 -2.2939 -1.9468 -3.1555
   22SAPC   H7Y 2934   1.600   3.100   9.401 -1.2011  1.2946  0.5536
   22SAPC   C38 2935   1.732   3.157   9.241 -0.1270 -0.6808 -0.2866
   22SAPC   H8X 2936   1.799   3.076   9.276  1.8602  1.8270  2.2087
   22SAPC   H8Y 2937   1.785   3.250   9.211 -1.3845  0.1738  0.0369
   22SAPC   C39 2938   1.636   3.116   9.128 -0.4821  0.6876  0.2085
   22SAPC   H9X 2939   1.571   3.202   9.101  3.1226  2.7121 -3.1213
   22SAPC   H9Y 2940   1.580   3.026   9.161  0.2428  0.2410  0.2305
   22SAPC  C310 2941   1.719   3.080   8.998  0.4927 -0.0866  0.2850
   22SAPC  H10X 2942   1.647   3.037   8.925  0.3915 -0.8585  0.8265
   22SAPC  H10Y 2943   1.795   3.002   9.018  2.3727  1.9063  1.4367
   22SAPC  C311 2944   1.797   3.196   8.933  0.5490 -0.6286 -0.2344
   22SAPC  H11X 2945   1.887   3.213   8.996 -1.7274  0.1286  3.1184
   22SAPC  H11Y 2946   1.728   3.284   8.927 -1.2112 -1.9917 -0.8649
   22SAPC  C312 2947   1.844   3.163   8.795  0.7579  0.5445  0.3251
   22SAPC  H12X 2948   1.753   3.170   8.731 -0.2438 -1.5276  1.3786
   22SAPC  H12Y 2949   1.885   3.060   8.802  0.0177  0.2017 -0.1851
   22SAPC  C313 2950   1.936   3.271   8.733 -0.1955 -0.1155 -0.7609
   22SAPC  H13X 2951   2.031   3.265   8.791 -1.1967  0.5331  1.0396
   22SAPC  H13Y 2952   1.878   3.362   8.759 -1.0702 -0.4962 -1.3440
   22SAPC  C314 2953   1.944   3.255   8.580 -0.4985 -0.6198 -0.3643
   22SAPC  H14X 2954   1.853   3.213   8.533 -0.0173 -1.0195 -0.9625
   22SAPC  H14Y 2955   2.028   3.186   8.556 -0.1225  0.3382 -1.8940
   22SAPC  C315 2956   1.989   3.386   8.508 -0.4218 -0.1887 -0.5161
   22SAPC  H15X 2957   1.915   3.464   8.534 -1.1973 -0.6630 -1.2738
   22SAPC  H15Y 2958   1.995   3.370   8.398  0.5000  2.0557 -0.8494
   22SAPC  C316 2959   2.131   3.439   8.550 -0.7914  0.0261  0.4189
   22SAPC  H16X 2960   2.208   3.384   8.493  0.9171  0.3262  2.3009
   22SAPC  H16Y 2961   2.153   3.419   8.658 -0.5306 -1.1057  0.1698
   22SAPC  C317 2962   2.157   3.591   8.528  0.2806  0.4958 -1.1110
   22SAPC  H17X 2963   2.072   3.649   8.568 -0.9441 -2.0241  0.1824
   22SAPC  H17Y 2964   2.151   3.606   8.418  0.5316  2.1198 -0.9182
   22SAPC  C318 2965   2.286   3.642   8.584 -0.2530 -0.1177  0.0406
   22SAPC  H18X 2966   2.290   3.753   8.584  0.5877 -0.1434  0.3481
   22SAPC  H18Y 2967   2.374   3.604   8.528 -0.6832  1.4930 -1.8265
   22SAPC  H18Z 2968   2.316   3.612   8.687  2.1442  0.4093 -0.4645
   23SAPC     N 2969   2.967   5.943  10.580  0.4931 -0.1670 -0.0030
   23SAPC   C12 2970   3.057   5.923  10.459 -0.0378 -0.2410 -0.3135
   23SAPC  H12A 2971   3.031   5.998  10.386  1.0858  1.2115  0.7251
   23SAPC  H12B 2972   3.029   5.828  10.416 -0.4491 -0.0651 -0.4352
   23SAPC   C13 2973   2.997   5.839  10.685 -0.2569  0.2861 -0.5076
   23SAPC  H13A 2974   3.091   5.847  10.738 -2.5984 -0.1684  4.1794
   23SAPC  H13B 2975   2.922   5.849  10.762  1.2147 -0.8404  1.1579
   23SAPC  H13C 2976   2.996   5.738  10.646 -0.3980  0.1112 -0.0543
   23SAPC   C14 2977   2.995   6.079  10.640 -0.0589  0.9059  0.5284
   23SAPC  H14A 2978   2.972   6.159  10.571  1.9988  2.5965  1.6823
   23SAPC  H14B 2979   2.942   6.091  10.734 -0.2637  0.6567  0.4475
   23SAPC  H14C 2980   3.101   6.079  10.661  0.5851 -2.0082 -2.0455
   23SAPC   C15 2981   2.822   5.927  10.551  0.7952  0.5058  0.0206
   23SAPC  H15A 2982   2.780   5.991  10.474  0.2409 -1.1280 -1.0845
   23SAPC  H15B 2983   2.801   5.824  10.527  2.1053 -0.5416  2.9239
   23SAPC  H15C 2984   2.771   5.950  10.644  1.2741  1.4648  0.0537
   23SAPC   C11 2985   3.208   5.916  10.485  0.5642  0.0891 -0.2575
   23SAPC  H11A 2986   3.262   5.899  10.390 -0.2234 -1.4672 -0.4627
   23SAPC  H11B 2987   3.234   5.825  10.544  2.9145  0.2460 -0.9610
   23SAPC     P 2988   3.310   6.171  10.479  0.1225 -0.3273  0.5981
   23SAPC   O13 2989   3.181   6.235  10.430 -0.3055  0.4597 -0.1903
   23SAPC   O14 2990   3.395   6.244  10.577  0.2705 -0.0354 -0.0648
   23SAPC   O12 2991   3.260   6.034  10.554 -0.7704 -1.1586  0.0321
   23SAPC   O11 2992   3.394   6.109  10.357  0.3171  0.0889 -0.0396
   23SAPC    C1 2993   3.515   6.043  10.385 -0.4239 -0.4318 -0.3557
   23SAPC    HA 2994   3.570   6.109  10.455 -1.1137  0.3600 -0.5368
   23SAPC    HB 2995   3.505   5.945  10.437  0.5421 -0.7842 -0.8097
   23SAPC    C2 2996   3.604   6.029  10.265 -0.4040  0.1652 -0.0580
   23SAPC    HS 2997   3.704   5.987  10.289 -0.5390 -1.3370 -1.8153
   23SAPC   O21 2998   3.611   6.149  10.188  0.4487  0.3090 -0.2221
   23SAPC   C21 2999   3.675   6.248  10.232 -1.0224  1.1654  0.0086
   23SAPC   O22 3000   3.746   6.253  10.333 -0.1541 -0.2566 -0.2205
   23SAPC   C22 3001   3.629   6.364  10.134 -0.0708 -0.1385  1.2292
   23SAPC   H2R 3002   3.672   6.335  10.036  3.1696  0.5588  2.3289
   23SAPC   H2S 3003   3.518   6.362  10.131 -0.0449 -0.2767 -0.4845
   23SAPC    C3 3004   3.542   5.927  10.165 -0.3666  0.5081 -0.7571
   23SAPC    HX 3005   3.433   5.949  10.168 -0.3086  0.7072  0.3421
   23SAPC    HY 3006   3.552   5.821  10.197 -0.9578  0.1896 -1.5758
   23SAPC   O31 3007   3.579   5.937  10.023 -0.1005  0.4043  0.4464
   23SAPC   C31 3008   3.701   5.908   9.987  0.6768 -0.5800 -0.2787
   23SAPC   O32 3009   3.788   5.871  10.064 -0.4505 -0.1311  0.6350
   23SAPC   C32 3010   3.710   5.913   9.840  0.1631  0.1180 -0.5142
   23SAPC   H2X 3011   3.713   6.020   9.810  2.6358 -0.0775 -1.1706
   23SAPC   H2Y 3012   3.620   5.868   9.791  1.2662 -0.0740 -2.4654
   23SAPC   C23 3013   3.704   6.497  10.170  0.5258 -0.2270  0.2687
   23SAPC   H3R 3014   3.814   6.485  10.172  0.5406 -0.3056  3.0973
   23SAPC   H3S 3015   3.670   6.529  10.272 -2.2123 -1.3013 -0.2106
   23SAPC   C24 3016   3.650   6.609  10.075  0.0596 -0.2999  0.0627
   23SAPC   H4R 3017   3.694   6.701  10.119 -0.0508 -1.1992  2.1846
   23SAPC   H4S 3018   3.539   6.609  10.090 -0.5199 -0.9028 -3.5322
   23SAPC   C25 3019   3.684   6.586   9.925  0.8475 -0.1921 -0.5008
   23SAPC   H5R 3020   3.606   6.530   9.870  1.8337  0.6268 -2.8633
   23SAPC   C26 3021   3.785   6.632   9.850  1.1638  1.2286  0.2412
   23SAPC   H6R 3022   3.785   6.577   9.754  1.0973 -0.5672  1.2267
   23SAPC   C27 3023   3.904   6.715   9.878 -1.0830 -0.5182 -0.4452
   23SAPC   H7R 3024   3.928   6.703   9.986 -1.2040  3.0823  0.0856
   23SAPC   H7S 3025   3.867   6.819   9.864  0.6147 -0.2501 -4.2844
   23SAPC   C28 3026   4.023   6.714   9.788 -0.7478  0.7530 -0.8720
   23SAPC   H8R 3027   4.110   6.677   9.844  0.7658  3.3173 -1.3465
   23SAPC   C29 3028   4.033   6.740   9.657  0.3550 -0.3431  0.5452
   23SAPC   H9R 3029   4.132   6.740   9.609  0.8142 -1.3007  1.4491
   23SAPC  C210 3030   3.915   6.788   9.570 -0.8379 -0.3651  0.2700
   23SAPC  H10R 3031   3.822   6.819   9.622  0.3922 -1.3244  3.2773
   23SAPC  H10S 3032   3.869   6.694   9.533 -0.9420  0.1393 -0.9310
   23SAPC  C211 3033   3.957   6.889   9.469 -0.2599  0.1451 -0.5727
   23SAPC  H11R 3034   3.994   6.981   9.517  1.3592  0.0192 -1.4892
   23SAPC  C212 3035   3.969   6.868   9.333  0.1555 -0.4731 -0.2797
   23SAPC  H12R 3036   4.022   6.945   9.274  1.8079 -1.3458  0.0181
   23SAPC  C213 3037   3.927   6.747   9.258 -0.3975  0.2954 -0.8399
   23SAPC  H13R 3038   3.825   6.773   9.221 -0.4340  0.0542 -0.9168
   23SAPC  H13S 3039   3.913   6.663   9.330  1.7108  2.0772  1.7905
   23SAPC  C214 3040   3.996   6.681   9.146  0.3661 -0.0805  0.2373
   23SAPC  H14R 3041   4.006   6.573   9.168  1.6942  0.2151  1.1432
   23SAPC  C215 3042   4.054   6.731   9.033  0.2908  0.5612 -0.6679
   23SAPC  H15R 3043   4.099   6.658   8.964  0.1541  1.6788 -1.9930
   23SAPC  C216 3044   4.060   6.874   8.988  0.4546  0.1130 -0.0003
   23SAPC  H16R 3045   3.976   6.929   9.035 -1.1173 -2.3890  0.3021
   23SAPC  H16S 3046   4.052   6.891   8.878 -0.0989  1.9594  0.2941
   23SAPC  C217 3047   4.185   6.950   9.024  0.2287  0.2443  0.1755
   23SAPC  H17R 3048   4.269   6.917   8.959  0.7980 -2.3759  2.0775
   23SAPC  H17S 3049   4.221   6.930   9.127  0.9761 -1.4838 -0.3742
   23SAPC  C218 3050   4.166   7.101   8.999  0.1309  0.1833  0.1620
   23SAPC  H18R 3051   4.087   7.137   9.069 -1.6565 -0.6940 -1.3016
   23SAPC  H18S 3052   4.132   7.115   8.894  0.8524  0.9894  0.0268
   23SAPC  C219 3053   4.296   7.175   9.016  0.9358 -0.4844 -0.3722
   23SAPC  H19R 3054   4.370   7.121   8.954  0.2382 -1.3485 -0.4667
   23SAPC  H19S 3055   4.326   7.186   9.122  0.7690 -0.0013 -0.3709
   23SAPC  C220 3056   4.272   7.322   8.969 -0.0613  0.9832  0.0069
   23SAPC  H20R 3057   4.253   7.322   8.860  0.6766  1.9855 -0.1356
   23SAPC  H20S 3058   4.357   7.394   8.971  0.5545  0.2620  0.2129
   23SAPC  H20T 3059   4.184   7.360   9.026 -0.3770  2.9565 -1.6967
   23SAPC   C33 3060   3.834   5.836   9.784  0.3526 -0.5553  0.6408
   23SAPC   H3X 3061   3.830   5.730   9.817 -1.0744 -1.1731 -1.2706
   23SAPC   H3Y 3062   3.917   5.894   9.827 -1.2713  1.0460  1.7560
   23SAPC   C34 3063   3.835   5.838   9.630  0.2387  0.5367  0.2144
   23SAPC   H4X 3064   3.828   5.947   9.611  0.6973  0.5285 -0.0161
   23SAPC   H4Y 3065   3.758   5.776   9.580  0.0050 -0.0335  1.2543
   23SAPC   C35 3066   3.970   5.798   9.577  0.0388 -0.2748 -0.1443
   23SAPC   H5X 3067   3.992   5.699   9.622  0.6307 -0.4928 -0.8775
   23SAPC   H5Y 3068   4.036   5.880   9.612 -2.1629  1.6475 -0.2569
   23SAPC   C36 3069   3.978   5.791   9.421  0.1011 -0.2524  0.0175
   23SAPC   H6X 3070   3.918   5.704   9.385 -2.2833  1.7658 -1.2658
   23SAPC   H6Y 3071   4.083   5.768   9.394 -0.2110 -2.0006  0.1439
   23SAPC   C37 3072   3.931   5.920   9.350 -0.1629 -0.7293 -0.3371
   23SAPC   H7X 3073   3.988   5.999   9.403 -1.0445 -0.5937  0.4488
   23SAPC   H7Y 3074   3.825   5.953   9.362  0.5028  1.4382 -0.0206
   23SAPC   C38 3075   3.963   5.924   9.196 -0.9542  0.3429 -0.2690
   23SAPC   H8X 3076   4.067   5.889   9.182 -1.7092 -2.2148  0.0378
   23SAPC   H8Y 3077   3.962   6.030   9.162 -2.1430  0.4202 -0.0387
   23SAPC   C39 3078   3.874   5.833   9.111 -0.2302  0.4263 -0.3427
   23SAPC   H9X 3079   3.776   5.884   9.116 -0.2900  0.4128 -1.3006
   23SAPC   H9Y 3080   3.869   5.730   9.153 -1.3060 -0.0246 -1.5309
   23SAPC  C310 3081   3.917   5.830   8.963  0.4931 -0.9785 -0.1491
   23SAPC  H10X 3082   4.020   5.789   8.952  0.5845 -1.6176  2.4758
   23SAPC  H10Y 3083   3.936   5.938   8.940 -2.0434 -0.0851  1.5182
   23SAPC  C311 3084   3.815   5.769   8.868 -0.4982  0.1770 -0.9977
   23SAPC  H11X 3085   3.753   5.706   8.935  1.3138  1.5470  2.1596
   23SAPC  H11Y 3086   3.851   5.704   8.785  0.1188  1.0761 -1.4548
   23SAPC  C312 3087   3.724   5.871   8.806  0.1397 -0.1987  0.0405
   23SAPC  H12X 3088   3.711   5.954   8.879  0.7453 -0.0681 -0.0020
   23SAPC  H12Y 3089   3.629   5.814   8.796  0.0619 -0.7290  3.0045
   23SAPC  C313 3090   3.777   5.924   8.665 -0.5192 -0.4698  0.2722
   23SAPC  H13X 3091   3.689   5.941   8.599 -0.8345  0.7109  0.9609
   23SAPC  H13Y 3092   3.836   5.842   8.620 -0.6250 -1.5320  1.9796
   23SAPC  C314 3093   3.860   6.057   8.667  0.3634  0.1684 -0.6116
   23SAPC  H14X 3094   3.940   6.053   8.744 -1.5606  0.5422  1.5299
   23SAPC  H14Y 3095   3.789   6.133   8.707 -1.4966 -1.6394 -0.2997
   23SAPC  C315 3096   3.913   6.112   8.534 -0.1972 -0.1121 -0.4718
   23SAPC  H15X 3097   3.950   6.215   8.548  0.4443 -0.3146 -0.6552
   23SAPC  H15Y 3098   3.824   6.112   8.468 -0.4434 -1.3012 -0.1676
   23SAPC  C316 3099   4.010   6.015   8.474 -0.8136 -0.1970  0.2524
   23SAPC  H16X 3100   3.950   5.924   8.448 -0.4678  0.2270 -2.2724
   23SAPC  H16Y 3101   4.078   5.983   8.555 -0.5804  1.7106  0.8516
   23SAPC  C317 3102   4.095   6.063   8.358  0.0137 -0.2330  0.0761
   23SAPC  H17X 3103   4.113   6.170   8.380 -2.2251 -0.1005  1.5165
   23SAPC  H17Y 3104   4.023   6.065   8.273 -0.8893 -2.9556  0.6626
   23SAPC  C318 3105   4.226   5.987   8.330  0.2390 -0.2279 -0.1827
   23SAPC  H18X 3106   4.198   5.887   8.292 -1.5860  1.4028 -3.4940
   23SAPC  H18Y 3107   4.286   5.992   8.424 -0.0287  0.7964 -0.0442
   23SAPC  H18Z 3108   4.280   6.040   8.249  1.1991 -1.3424 -0.3004
   24SAPC     N 3109   0.375   0.576  11.290  0.9907  0.3051 -0.4261
   24SAPC   C12 3110   0.491   0.637  11.217  0.0374  0.4569 -0.1594
   24SAPC  H12A 3111   0.559   0.558  11.188  0.5477  0.2150  1.5600
   24SAPC  H12B 3112   0.541   0.701  11.289  1.3451 -2.4352  1.7049
   24SAPC   C13 3113   0.417   0.476  11.397 -0.5589  0.9881  0.6866
   24SAPC  H13A 3114   0.460   0.534  11.477 -0.0311  0.8304  0.5220
   24SAPC  H13B 3115   0.333   0.418  11.432 -0.6330  1.1657  0.8012
   24SAPC  H13C 3116   0.490   0.403  11.366  0.8236  1.9639  1.5487
   24SAPC   C14 3117   0.288   0.681  11.359  0.6070  0.0641  0.1613
   24SAPC  H14A 3118   0.206   0.628  11.405  1.0922 -2.2641 -1.4852
   24SAPC  H14B 3119   0.341   0.733  11.437 -0.6998 -0.4243  1.4130
   24SAPC  H14C 3120   0.240   0.752  11.293 -0.4726  0.4582  1.3323
   24SAPC   C15 3121   0.294   0.504  11.184  0.4616 -0.7520 -0.0451
   24SAPC  H15A 3122   0.345   0.424  11.133  1.8057 -0.2476  0.4670
   24SAPC  H15B 3123   0.201   0.468  11.226 -0.4460  1.4195 -0.0883
   24SAPC  H15C 3124   0.262   0.581  11.115 -1.2684 -0.2116  1.2864
   24SAPC   C11 3125   0.459   0.734  11.092  0.4091 -0.3822 -0.0943
   24SAPC  H11A 3126   0.558   0.762  11.050  0.1474 -1.0601 -1.1944
   24SAPC  H11B 3127   0.405   0.814  11.148  0.4342 -0.9235  0.7277
   24SAPC     P 3128   0.266   0.766  10.924  0.0331 -0.1467 -0.0821
   24SAPC   O13 3129   0.150   0.784  11.014 -0.2307  0.7649 -0.5147
   24SAPC   O14 3130   0.330   0.888  10.872  0.1391 -0.2517  0.0647
   24SAPC   O12 3131   0.377   0.677  10.991 -0.1599 -0.0238  0.3491
   24SAPC   O11 3132   0.211   0.675  10.813 -0.4834  0.0708 -0.0018
   24SAPC    C1 3133   0.281   0.628  10.695 -0.1507 -1.0523 -0.8293
   24SAPC    HA 3134   0.392   0.625  10.709 -0.2853  0.0618  0.8650
   24SAPC    HB 3135   0.243   0.528  10.667  1.3916 -1.4417 -1.6177
   24SAPC    C2 3136   0.242   0.717  10.580 -0.6851  0.5320  0.0041
   24SAPC    HS 3137   0.273   0.820  10.610  2.4244 -0.0756 -0.7610
   24SAPC   O21 3138   0.098   0.702  10.561  0.0267  0.5950  0.3360
   24SAPC   C21 3139   0.032   0.808  10.544 -0.2651  0.0151  0.3513
   24SAPC   O22 3140   0.073   0.923  10.529 -0.4122  0.4106  0.8776
   24SAPC   C22 3141  -0.114   0.770  10.551  0.0209 -0.0016  0.1638
   24SAPC   H2R 3142  -0.123   0.702  10.464 -0.4841 -0.4063  0.5240
   24SAPC   H2S 3143  -0.135   0.704  10.638 -0.3686 -1.1982 -0.8140
   24SAPC    C3 3144   0.311   0.656  10.459  0.7580 -0.4982  0.0938
   24SAPC    HX 3145   0.276   0.553  10.436  1.8975 -0.5716 -1.4309
   24SAPC    HY 3146   0.420   0.672  10.478  0.5552  2.8091 -0.9453
   24SAPC   O31 3147   0.266   0.737  10.355 -1.1380 -0.4409 -0.4943
   24SAPC   C31 3148   0.317   0.862  10.341 -0.0940 -0.5571 -0.2871
   24SAPC   O32 3149   0.401   0.912  10.416  0.1349  0.0690  0.1654
   24SAPC   C32 3150   0.262   0.930  10.220 -0.2449 -0.0843 -0.0007
   24SAPC   H2X 3151   0.224   1.030  10.249 -0.1817  0.2612 -1.0880
   24SAPC   H2Y 3152   0.171   0.876  10.186 -0.8422  0.6420  0.4071
   24SAPC   C23 3153  -0.216   0.887  10.560 -0.5421  0.0897  0.4613
   24SAPC   H3R 3154  -0.187   0.960  10.639 -2.8716 -0.6505  2.1313
   24SAPC   H3S 3155  -0.310   0.851  10.608 -0.2330  1.6901  2.4001
   24SAPC   C24 3156  -0.244   0.967  10.430 -0.2310  0.2929 -0.2103
   24SAPC   H4R 3157  -0.147   1.013  10.398  1.0000 -0.9960  1.4982
   24SAPC   H4S 3158  -0.302   1.053  10.470 -1.2158 -1.9213  3.5683
   24SAPC   C25 3159  -0.320   0.880  10.331 -0.7157 -0.3493  0.4645
   24SAPC   H5R 3160  -0.427   0.862  10.345 -0.7361 -0.5574  0.0392
   24SAPC   C26 3161  -0.264   0.810  10.228 -0.4130 -0.8167  0.0698
   24SAPC   H6R 3162  -0.330   0.760  10.155 -1.0052  1.2219 -0.8494
   24SAPC   C27 3163  -0.115   0.816  10.190  0.2185 -0.0154 -0.5975
   24SAPC   H7R 3164  -0.055   0.777  10.275 -0.5293  2.2010  1.0516
   24SAPC   H7S 3165  -0.081   0.922  10.184  3.1696 -0.7354  1.4574
   24SAPC   C28 3166  -0.072   0.738  10.068 -0.6751  0.7572  0.1312
   24SAPC   H8R 3167  -0.041   0.634  10.087 -0.5145  0.6978 -0.4610
   24SAPC   C29 3168  -0.051   0.788   9.947 -1.0348  0.0064 -0.4288
   24SAPC   H9R 3169  -0.016   0.715   9.872  2.9565  0.7135  0.5575
   24SAPC  C210 3170  -0.076   0.927   9.905  0.5335 -0.7697  0.9612
   24SAPC  H10R 3171   0.017   0.988   9.912  1.6072 -2.1106 -0.9102
   24SAPC  H10S 3172  -0.138   0.976   9.983  0.3265  1.1737 -0.3516
   24SAPC  C211 3173  -0.124   0.957   9.767 -0.6532  0.7640  0.1373
   24SAPC  H11R 3174  -0.037   0.957   9.698 -0.3823  1.2455  0.4677
   24SAPC  C212 3175  -0.248   0.979   9.724  0.6032 -0.0235  0.0139
   24SAPC  H12R 3176  -0.249   1.012   9.619  0.6480  0.9449  0.3109
   24SAPC  C213 3177  -0.367   0.984   9.815 -0.4687  0.1316  0.8465
   24SAPC  H13R 3178  -0.360   1.071   9.884 -0.2962  0.3329  0.5788
   24SAPC  H13S 3179  -0.371   0.890   9.874 -1.1911  1.0134  2.2564
   24SAPC  C214 3180  -0.492   0.999   9.732  0.7352  0.0522 -0.3386
   24SAPC  H14R 3181  -0.558   0.912   9.746  1.0367  0.0784  1.4099
   24SAPC  C215 3182  -0.533   1.102   9.649 -0.1401 -0.0583  0.8060
   24SAPC  H15R 3183  -0.628   1.087   9.595 -0.6979  0.2253  1.6837
   24SAPC  C216 3184  -0.466   1.235   9.623  0.1903  0.5922  0.5866
   24SAPC  H16R 3185  -0.376   1.245   9.688 -0.9869 -0.9594  2.5953
   24SAPC  H16S 3186  -0.539   1.316   9.646 -0.5505  0.8168 -2.2208
   24SAPC  C217 3187  -0.438   1.246   9.476  0.0079  0.3384 -1.6133
   24SAPC  H17R 3188  -0.522   1.207   9.414 -0.0196 -0.2567 -1.2116
   24SAPC  H17S 3189  -0.347   1.187   9.452 -0.2049 -1.3325  1.1794
   24SAPC  C218 3190  -0.412   1.392   9.434  0.4492 -0.2265  0.0024
   24SAPC  H18R 3191  -0.321   1.424   9.489  0.6636  0.3132 -0.6547
   24SAPC  H18S 3192  -0.498   1.449   9.476 -0.1190 -0.6701 -0.5579
   24SAPC  C219 3193  -0.403   1.426   9.285 -0.2427 -0.3095  0.3029
   24SAPC  H19R 3194  -0.495   1.405   9.226 -1.2525  0.0689  1.6905
   24SAPC  H19S 3195  -0.328   1.355   9.245 -2.9549 -2.4525 -1.4329
   24SAPC  C220 3196  -0.367   1.573   9.265 -0.8240 -0.2110  0.3568
   24SAPC  H20R 3197  -0.265   1.597   9.299 -0.2626  0.2500 -1.5802
   24SAPC  H20S 3198  -0.446   1.639   9.306 -1.6292 -0.8056 -0.1991
   24SAPC  H20T 3199  -0.367   1.601   9.158 -0.5505 -1.6077 -0.0363
   24SAPC   C33 3200   0.370   0.961  10.111 -0.1444  0.2386 -0.3190
   24SAPC   H3X 3201   0.403   0.863  10.070 -0.7034  0.4800 -1.3782
   24SAPC   H3Y 3202   0.447   1.021  10.164 -1.4522  0.7422  1.0841
   24SAPC   C34 3203   0.293   1.033   9.997  0.2468 -0.1178  0.1507
   24SAPC   H4X 3204   0.257   1.127  10.043  0.8316 -0.5920  1.6134
   24SAPC   H4Y 3205   0.206   0.975   9.959  2.3573 -2.8508 -0.8637
   24SAPC   C35 3206   0.390   1.069   9.877 -0.6320  0.5069 -0.5742
   24SAPC   H5X 3207   0.418   0.978   9.819 -0.5242 -0.9133  1.6034
   24SAPC   H5Y 3208   0.472   1.136   9.913  1.3833 -0.9164 -2.2587
   24SAPC   C36 3209   0.322   1.148   9.766  0.1124  0.2608  0.4827
   24SAPC   H6X 3210   0.271   1.243   9.792 -0.1426  0.3218 -0.2375
   24SAPC   H6Y 3211   0.243   1.075   9.738  1.0265 -0.2721 -0.8352
   24SAPC   C37 3212   0.408   1.157   9.647 -0.5266 -0.5594  0.1605
   24SAPC   H7X 3213   0.476   1.070   9.631 -1.8258 -1.4198 -0.8612
   24SAPC   H7Y 3214   0.472   1.246   9.666  0.0182 -1.4507  2.9415
   24SAPC   C38 3215   0.314   1.176   9.529  0.0737 -0.7851  0.0181
   24SAPC   H8X 3216   0.236   1.249   9.560 -0.0089 -1.3538  1.1664
   24SAPC   H8Y 3217   0.253   1.086   9.511 -1.3540  0.4204 -1.5064
   24SAPC   C39 3218   0.375   1.209   9.385  0.0027  0.1840 -0.1393
   24SAPC   H9X 3219   0.399   1.317   9.369 -0.6287  0.1395 -1.5029
   24SAPC   H9Y 3220   0.292   1.201   9.311  0.0625 -2.5399 -0.0069
   24SAPC  C310 3221   0.494   1.123   9.360 -0.6964  0.0108 -0.1085
   24SAPC  H10X 3222   0.465   1.017   9.377  0.8435 -0.7952 -2.2068
   24SAPC  H10Y 3223   0.577   1.148   9.429 -0.8198  0.9103 -0.2816
   24SAPC  C311 3224   0.547   1.118   9.222  0.1666 -0.4640 -0.1341
   24SAPC  H11X 3225   0.640   1.058   9.228 -1.1143 -2.8274 -2.0400
   24SAPC  H11Y 3226   0.583   1.221   9.198  2.9834 -1.5830 -1.1040
   24SAPC  C312 3227   0.447   1.067   9.118  0.2509  0.1271  0.4836
   24SAPC  H12X 3228   0.357   1.128   9.137  0.7691  1.1128 -0.1483
   24SAPC  H12Y 3229   0.418   0.961   9.137 -1.8329  0.0577 -2.3947
   24SAPC  C313 3230   0.508   1.058   8.974  0.2590  0.9455 -0.3889
   24SAPC  H13X 3231   0.605   1.003   8.970  0.0508  0.4109  1.1251
   24SAPC  H13Y 3232   0.530   1.157   8.929  0.0550 -0.0277 -2.7683
   24SAPC  C314 3233   0.411   0.997   8.874 -0.0521  1.0438 -0.1061
   24SAPC  H14X 3234   0.424   0.887   8.879 -0.4038  1.0392  1.4295
   24SAPC  H14Y 3235   0.449   1.019   8.773 -2.1349  0.5596 -1.0471
   24SAPC  C315 3236   0.265   1.037   8.882  0.0372  0.7257  0.2516
   24SAPC  H15X 3237   0.253   1.145   8.906 -0.8074  1.1606 -1.8724
   24SAPC  H15Y 3238   0.230   0.975   8.967 -1.4391 -0.7937 -1.3984
   24SAPC  C316 3239   0.200   0.983   8.761 -0.0189  0.0679  0.1567
   24SAPC  H16X 3240   0.232   0.878   8.746  3.6237  1.2128 -1.2307
   24SAPC  H16Y 3241   0.226   1.043   8.670  0.9609  1.1757  1.1356
   24SAPC  C317 3242   0.044   0.998   8.761 -0.1690 -0.4494  0.2101
   24SAPC  H17X 3243   0.004   1.018   8.660 -2.2164  3.3850  1.5564
   24SAPC  H17Y 3244   0.023   1.094   8.812 -0.3732 -0.4723  0.1692
   24SAPC  C318 3245  -0.034   0.872   8.813 -0.3587  0.1330  0.1132
   24SAPC  H18X 3246  -0.130   0.859   8.759  1.2399 -3.2947 -2.2885
   24SAPC  H18Y 3247  -0.056   0.876   8.922  1.1629 -2.2459  0.5918
   24SAPC  H18Z 3248   0.010   0.776   8.778  0.7811  0.9454 -0.7409
   25SAPC     N 3249   1.594   4.982   5.961  0.6984 -0.0217  0.0043
   25SAPC   C12 3250   1.621   4.911   6.094 -0.0021  0.4407 -0.2847
   25SAPC  H12A 3251   1.667   4.977   6.166 -0.3655  1.6610 -1.1411
   25SAPC  H12B 3252   1.694   4.835   6.071  0.1451  1.4135 -3.6350
   25SAPC   C13 3253   1.532   4.885   5.861  0.2523 -0.5304 -0.8390
   25SAPC  H13A 3254   1.503   4.932   5.768 -2.0930  1.4487  0.7686
   25SAPC  H13B 3255   1.588   4.793   5.847 -1.9997 -1.8908 -1.6071
   25SAPC  H13C 3256   1.438   4.846   5.899 -1.0729  1.2109 -2.1675
   25SAPC   C14 3257   1.496   5.093   5.979  0.1797  0.5629  0.0643
   25SAPC  H14A 3258   1.538   5.191   5.996 -0.3466  1.2980 -2.3843
   25SAPC  H14B 3259   1.458   5.112   5.879  0.5252 -1.8401 -0.5854
   25SAPC  H14C 3260   1.413   5.072   6.044  0.2655  0.7838  0.2447
   25SAPC   C15 3261   1.725   5.026   5.892  0.1887  0.1964  0.4275
   25SAPC  H15A 3262   1.694   5.100   5.819  0.1774  0.2195  0.4557
   25SAPC  H15B 3263   1.791   5.077   5.961 -0.8807  1.7152  0.3807
   25SAPC  H15C 3264   1.782   4.948   5.843  2.2579  1.1671  1.1566
   25SAPC   C11 3265   1.503   4.855   6.170 -0.1331 -0.8179  0.1622
   25SAPC  H11A 3266   1.434   4.938   6.197 -0.8570 -0.8857 -1.3865
   25SAPC  H11B 3267   1.557   4.819   6.260  3.3161  2.4416 -0.3011
   25SAPC     P 3268   1.493   4.606   6.101  0.2181  0.1591  0.0109
   25SAPC   O13 3269   1.398   4.516   6.034  0.1562  0.0384  0.0012
   25SAPC   O14 3270   1.630   4.608   6.046  0.2437  0.2519 -0.1642
   25SAPC   O12 3271   1.429   4.752   6.107  0.3336  0.0174 -0.0050
   25SAPC   O11 3272   1.508   4.581   6.256  0.1273 -0.0156 -0.1848
   25SAPC    C1 3273   1.400   4.530   6.336  0.2520  0.8117 -0.2806
   25SAPC    HA 3274   1.330   4.615   6.354  0.7651  1.0941  0.4597
   25SAPC    HB 3275   1.348   4.443   6.292  2.1721 -3.6978  5.1201
   25SAPC    C2 3276   1.452   4.474   6.466 -0.1441  0.0173  0.1000
   25SAPC    HS 3277   1.367   4.446   6.532 -0.4143 -2.5502 -1.2096
   25SAPC   O21 3278   1.528   4.572   6.536 -0.5164 -0.1383  0.5220
   25SAPC   C21 3279   1.469   4.677   6.593 -0.0106  0.6104  0.3783
   25SAPC   O22 3280   1.351   4.694   6.602  0.1179  0.8712 -0.3755
   25SAPC   C22 3281   1.586   4.771   6.645  0.4830  0.1915 -0.2676
   25SAPC   H2R 3282   1.619   4.814   6.547 -2.1784 -1.1386 -1.8527
   25SAPC   H2S 3283   1.531   4.844   6.708 -0.7064 -0.1183 -0.9212
   25SAPC    C3 3284   1.531   4.343   6.447  0.3888  0.1589  0.1115
   25SAPC    HX 3285   1.623   4.357   6.386  0.4646 -1.1628 -0.1206
   25SAPC    HY 3286   1.463   4.276   6.389  0.4598 -0.9327  1.2391
   25SAPC   O31 3287   1.559   4.279   6.569 -0.0333 -0.0247 -0.3102
   25SAPC   C31 3288   1.508   4.170   6.602  0.1554 -0.0903 -0.3321
   25SAPC   O32 3289   1.428   4.104   6.531 -0.4610 -0.7811  0.0072
   25SAPC   C32 3290   1.550   4.136   6.741 -0.2672  0.0638 -0.2706
   25SAPC   H2X 3291   1.506   4.226   6.788 -0.3462  0.3306 -0.8499
   25SAPC   H2Y 3292   1.661   4.137   6.744 -0.1554 -2.7273 -0.4493
   25SAPC   C23 3293   1.721   4.709   6.699  1.0012 -0.1103 -0.4284
   25SAPC   H3R 3294   1.802   4.783   6.719  2.0789 -1.8865  2.5170
   25SAPC   H3S 3295   1.762   4.632   6.632  1.4907 -0.0770 -0.1718
   25SAPC   C24 3296   1.697   4.643   6.841 -0.4511  0.2164  0.4163
   25SAPC   H4R 3297   1.796   4.605   6.875 -0.5184 -1.7978 -1.4632
   25SAPC   H4S 3298   1.635   4.553   6.825 -0.6818  0.6849 -1.6234
   25SAPC   C25 3299   1.637   4.736   6.945  0.0852  0.1999 -0.1286
   25SAPC   H5R 3300   1.527   4.742   6.940  0.1824  1.6281 -2.9884
   25SAPC   C26 3301   1.703   4.811   7.040  0.0149  0.0791  0.6016
   25SAPC   H6R 3302   1.641   4.870   7.110  2.1576  0.9276  1.8782
   25SAPC   C27 3303   1.853   4.814   7.061  0.1677  0.3494 -0.5991
   25SAPC   H7R 3304   1.886   4.917   7.087 -1.9398  0.8641  0.1742
   25SAPC   H7S 3305   1.904   4.793   6.964  1.2932  1.1356 -0.2066
   25SAPC   C28 3306   1.891   4.720   7.172  0.0986  0.3164 -0.0173
   25SAPC   H8R 3307   1.931   4.621   7.143 -0.4659  0.2579 -0.6117
   25SAPC   C29 3308   1.881   4.754   7.305 -0.4971  0.6063  0.0470
   25SAPC   H9R 3309   1.915   4.688   7.386 -0.5012 -0.5881 -0.8909
   25SAPC  C210 3310   1.836   4.891   7.360 -0.0813 -0.1749 -0.2432
   25SAPC  H10R 3311   1.773   4.882   7.450 -1.3183  3.1699 -0.6223
   25SAPC  H10S 3312   1.772   4.940   7.283  1.0359  2.0235  0.1367
   25SAPC  C211 3313   1.952   4.977   7.387 -0.5571  0.1001  0.6261
   25SAPC  H11R 3314   1.969   5.059   7.316 -0.5704  0.0648  0.5826
   25SAPC  C212 3315   2.025   4.978   7.502 -0.6110 -0.9294  0.4687
   25SAPC  H12R 3316   2.111   5.046   7.506 -2.2561  1.4562 -1.7315
   25SAPC  C213 3317   2.006   4.888   7.615 -0.3010 -0.4025  0.0823
   25SAPC  H13R 3318   2.081   4.806   7.616 -0.0580 -0.2021 -0.6415
   25SAPC  H13S 3319   1.905   4.841   7.614 -0.5937  0.1764  1.1394
   25SAPC  C214 3320   2.007   4.960   7.752 -0.4266 -0.3436  1.0955
   25SAPC  H14R 3321   1.986   5.066   7.735 -0.4024 -0.2680  1.5163
   25SAPC  C215 3322   2.016   4.911   7.873  0.3469  0.7058 -0.3288
   25SAPC  H15R 3323   2.006   4.975   7.962 -1.0545  0.3171 -0.1959
   25SAPC  C216 3324   2.028   4.765   7.912 -0.4139 -0.0561  0.6304
   25SAPC  H16R 3325   2.087   4.752   8.005 -0.0411 -2.2690  0.1429
   25SAPC  H16S 3326   2.085   4.722   7.827 -1.1719 -1.8879  1.0111
   25SAPC  C217 3327   1.902   4.676   7.929 -0.7621  0.1468  0.2300
   25SAPC  H17R 3328   1.932   4.571   7.905 -0.7445 -0.2785  1.9951
   25SAPC  H17S 3329   1.828   4.706   7.852 -0.9711  1.9443  1.0866
   25SAPC  C218 3330   1.833   4.658   8.069  0.1790  0.0757  0.6631
   25SAPC  H18R 3331   1.757   4.577   8.059  0.4882 -0.2077  0.5779
   25SAPC  H18S 3332   1.769   4.744   8.098 -1.0183  0.4455 -2.5897
   25SAPC  C219 3333   1.927   4.611   8.172 -0.2505 -0.5829  0.0286
   25SAPC  H19R 3334   1.990   4.699   8.197 -0.2449 -0.4591 -0.4150
   25SAPC  H19S 3335   1.987   4.522   8.145  1.2642 -0.1452  1.7735
   25SAPC  C220 3336   1.854   4.571   8.296 -1.0742  0.1309  0.0525
   25SAPC  H20R 3337   1.824   4.652   8.367  2.3411 -0.1861  2.1173
   25SAPC  H20S 3338   1.913   4.505   8.364 -2.1813 -1.9073 -0.9028
   25SAPC  H20T 3339   1.768   4.503   8.281 -0.7618 -1.1485  3.2259
   25SAPC   C33 3340   1.490   4.002   6.789  0.0718  0.0400 -1.0442
   25SAPC   H3X 3341   1.555   3.919   6.755 -1.0813 -2.3678  2.1701
   25SAPC   H3Y 3342   1.390   3.993   6.742  0.4468 -0.8187 -1.7130
   25SAPC   C34 3343   1.498   3.978   6.937  0.8529 -0.3472 -0.3810
   25SAPC   H4X 3344   1.554   4.055   6.995 -0.1405 -0.2728  0.5063
   25SAPC   H4Y 3345   1.553   3.885   6.961  0.1617 -0.6690 -0.0491
   25SAPC   C35 3346   1.357   3.955   6.995 -0.1602 -0.5736 -0.5409
   25SAPC   H5X 3347   1.335   3.856   6.948  2.8430 -0.8592 -1.5608
   25SAPC   H5Y 3348   1.282   4.034   6.975 -1.1596 -0.5935  2.5785
   25SAPC   C36 3349   1.365   3.941   7.156  0.7196  0.0941  1.5013
   25SAPC   H6X 3350   1.458   3.890   7.187  0.0232 -0.1558  3.3050
   25SAPC   H6Y 3351   1.287   3.873   7.195 -0.2499  1.7888  2.6785
   25SAPC   C37 3352   1.353   4.069   7.239 -0.5361 -0.1160 -0.5506
   25SAPC   H7X 3353   1.268   4.130   7.202 -1.4711 -0.9955  0.1039
   25SAPC   H7Y 3354   1.444   4.132   7.231 -1.1083  1.0103  1.3110
   25SAPC   C38 3355   1.336   4.029   7.388  0.3082 -0.0770 -0.0148
   25SAPC   H8X 3356   1.424   3.962   7.395 -0.4291 -1.6913 -3.8149
   25SAPC   H8Y 3357   1.247   3.965   7.401  0.8288 -1.0927 -1.2059
   25SAPC   C39 3358   1.341   4.139   7.495  0.5588  0.1536  0.1205
   25SAPC   H9X 3359   1.437   4.192   7.476  1.2210 -1.1314 -0.2478
   25SAPC   H9Y 3360   1.342   4.097   7.598  1.7453 -1.6639 -0.5630
   25SAPC  C310 3361   1.226   4.233   7.482 -0.6015 -0.8209  0.0008
   25SAPC  H10X 3362   1.137   4.199   7.538 -0.7383  1.0295  0.9814
   25SAPC  H10Y 3363   1.209   4.252   7.374  1.7119  1.2458 -0.0808
   25SAPC  C311 3364   1.245   4.374   7.538  0.0138 -0.4657 -0.3236
   25SAPC  H11X 3365   1.171   4.441   7.490 -0.0367 -1.8613 -2.2981
   25SAPC  H11Y 3366   1.343   4.411   7.499  0.4200 -0.7747  0.3861
   25SAPC  C312 3367   1.229   4.375   7.692  0.2605 -0.4688  0.2578
   25SAPC  H12X 3368   1.307   4.304   7.727  1.1403  1.8099  3.2984
   25SAPC  H12Y 3369   1.130   4.337   7.727 -1.3271  1.1726 -2.1476
   25SAPC  C313 3370   1.251   4.515   7.746 -0.2590  0.1899  0.2602
   25SAPC  H13X 3371   1.160   4.567   7.708 -2.0778 -2.9769 -0.0336
   25SAPC  H13Y 3372   1.340   4.555   7.692 -1.0591 -0.5602 -1.6939
   25SAPC  C314 3373   1.268   4.516   7.894 -0.3194 -0.0374 -0.7341
   25SAPC  H14X 3374   1.167   4.496   7.935 -0.3954 -1.3337 -1.4915
   25SAPC  H14Y 3375   1.301   4.619   7.917  0.9690 -0.0076 -2.5047
   25SAPC  C315 3376   1.359   4.402   7.951  0.1480 -0.5772 -0.9026
   25SAPC  H15X 3377   1.448   4.382   7.886  1.3525 -1.2877  0.8891
   25SAPC  H15Y 3378   1.303   4.310   7.978  0.3962  0.2105  2.8701
   25SAPC  C316 3379   1.422   4.456   8.083 -0.2002  0.0647  0.4836
   25SAPC  H16X 3380   1.339   4.481   8.152  1.0502  1.6552  1.4944
   25SAPC  H16Y 3381   1.473   4.548   8.049 -2.0366  0.6705 -0.7623
   25SAPC  C317 3382   1.517   4.360   8.146  0.5018  0.7325  0.2112
   25SAPC  H17X 3383   1.622   4.391   8.124  1.3055 -3.4416 -3.1174
   25SAPC  H17Y 3384   1.497   4.266   8.090  1.8772  1.2380 -1.2169
   25SAPC  C318 3385   1.495   4.344   8.293  0.2494 -0.3003  0.2530
   25SAPC  H18X 3386   1.534   4.435   8.344  1.4443 -0.7432  0.1568
   25SAPC  H18Y 3387   1.552   4.270   8.352  1.2609 -0.1935 -0.5701
   25SAPC  H18Z 3388   1.385   4.336   8.309  0.0047  0.3007 -1.0356
   26SAPC     N 3389   1.721   5.981   5.910  0.3323 -0.2653  0.5648
   26SAPC   C12 3390   1.632   6.077   5.995 -0.0591 -0.3133 -0.1479
   26SAPC  H12A 3391   1.627   6.036   6.095 -0.0832 -0.6405 -0.2812
   26SAPC  H12B 3392   1.529   6.066   5.962 -0.4573  1.2933  0.4810
   26SAPC   C13 3393   1.860   5.979   5.961  0.3510  0.1903  0.4589
   26SAPC  H13A 3394   1.870   5.966   6.067  2.7372 -0.0934  0.2666
   26SAPC  H13B 3395   1.918   5.898   5.918  1.1050  2.2113 -2.6969
   26SAPC  H13C 3396   1.915   6.071   5.948  1.6447 -0.8119 -1.8398
   26SAPC   C14 3397   1.650   5.848   5.921 -0.1987 -0.1370 -0.0455
   26SAPC  H14A 3398   1.701   5.776   5.858  2.1447  2.0928 -0.8353
   26SAPC  H14B 3399   1.661   5.808   6.021  0.5829 -0.4781 -0.2624
   26SAPC  H14C 3400   1.542   5.846   5.912 -0.2823 -1.6711  0.8357
   26SAPC   C15 3401   1.717   6.025   5.769  0.7206  0.4762 -0.1136
   26SAPC  H15A 3402   1.619   6.048   5.729 -0.3235  1.8405  2.9267
   26SAPC  H15B 3403   1.770   6.118   5.753  0.9460  0.3252 -0.2651
   26SAPC  H15C 3404   1.753   5.950   5.700  2.1530 -0.6686  1.7795
   26SAPC   C11 3405   1.682   6.221   6.006  0.2728  0.0973  0.3125
   26SAPC  H11A 3406   1.602   6.278   6.058 -2.6243 -1.4456 -2.1055
   26SAPC  H11B 3407   1.691   6.267   5.905  2.4495  3.5396  1.8883
   26SAPC     P 3408   1.843   6.234   6.214  0.1061 -0.0070 -0.2918
   26SAPC   O13 3409   1.986   6.228   6.243 -0.2923  0.3095  0.3155
   26SAPC   O14 3410   1.769   6.345   6.278  0.5892  0.2231 -0.4217
   26SAPC   O12 3411   1.807   6.237   6.068 -0.0538  0.7251  0.7171
   26SAPC   O11 3412   1.780   6.099   6.265  0.1588 -0.5915 -0.1798
   26SAPC    C1 3413   1.742   6.090   6.408 -0.1750  0.0599 -0.1447
   26SAPC    HA 3414   1.797   6.163   6.471 -0.0405 -1.6404  1.8056
   26SAPC    HB 3415   1.637   6.124   6.420  0.3285  0.8982  2.7781
   26SAPC    C2 3416   1.739   5.943   6.460  0.2710 -0.6271 -0.1110
   26SAPC    HS 3417   1.670   5.944   6.547 -0.1398  1.0941 -0.4233
   26SAPC   O21 3418   1.876   5.904   6.491  0.1267 -0.0451 -0.0903
   26SAPC   C21 3419   1.913   5.959   6.610  0.8260 -0.1752 -0.1796
   26SAPC   O22 3420   1.845   6.032   6.678 -0.0887 -0.2326  0.2480
   26SAPC   C22 3421   2.062   5.913   6.636 -0.1427 -0.4729 -0.1076
   26SAPC   H2R 3422   2.073   5.805   6.661  1.0876 -0.5360 -0.8289
   26SAPC   H2S 3423   2.119   5.946   6.547  0.6820 -1.1482  0.1517
   26SAPC    C3 3424   1.670   5.849   6.362 -0.1647 -0.0941  0.5279
   26SAPC    HX 3425   1.731   5.842   6.269 -0.0305  1.1533  0.5056
   26SAPC    HY 3426   1.573   5.900   6.345  0.8362  1.0712 -2.3990
   26SAPC   O31 3427   1.652   5.722   6.431  0.0697  0.7516  0.4348
   26SAPC   C31 3428   1.712   5.609   6.391 -0.5572  0.4588  0.6477
   26SAPC   O32 3429   1.796   5.606   6.299 -0.5163  0.2702  0.0308
   26SAPC   C32 3430   1.655   5.478   6.457 -0.3824 -0.4497  0.2972
   26SAPC   H2X 3431   1.732   5.398   6.452 -0.4725 -0.6027  1.1673
   26SAPC   H2Y 3432   1.583   5.433   6.385 -0.8035 -2.1256  1.7064
   26SAPC   C23 3433   2.098   5.997   6.758  0.0366 -0.0359 -0.3477
   26SAPC   H3R 3434   2.067   5.947   6.853 -0.8647  1.0185 -0.0638
   26SAPC   H3S 3435   2.065   6.103   6.757 -0.6371 -0.2106 -3.1873
   26SAPC   C24 3436   2.255   6.030   6.765  0.6450 -0.3752 -0.4858
   26SAPC   H4R 3437   2.270   6.083   6.861  1.5805  1.6182 -1.6780
   26SAPC   H4S 3438   2.285   6.096   6.681  0.8929 -0.1856 -0.2452
   26SAPC   C25 3439   2.351   5.908   6.753 -0.0156 -1.2662 -0.2763
   26SAPC   H5R 3440   2.351   5.867   6.651  2.2625 -0.3183 -0.7213
   26SAPC   C26 3441   2.426   5.849   6.845  0.6649 -0.1109  0.1322
   26SAPC   H6R 3442   2.477   5.759   6.808  0.0920  0.1100 -1.2434
   26SAPC   C27 3443   2.451   5.890   6.985 -0.1725  0.2469 -0.4446
   26SAPC   H7R 3444   2.435   5.999   7.000 -1.3747 -0.3728  4.7820
   26SAPC   H7S 3445   2.557   5.877   7.016 -0.3443  0.0067  0.0481
   26SAPC   C28 3446   2.368   5.813   7.087  1.0198 -0.6645 -0.0585
   26SAPC   H8R 3447   2.378   5.705   7.100  0.1620 -0.7395  0.0491
   26SAPC   C29 3448   2.292   5.885   7.179  0.3370 -0.0834  0.2434
   26SAPC   H9R 3449   2.219   5.833   7.242  0.2157  0.2244  0.3596
   26SAPC  C210 3450   2.285   6.031   7.189  0.7095 -0.6930 -0.2444
   26SAPC  H10R 3451   2.249   6.086   7.100 -0.8614  0.0653  0.8144
   26SAPC  H10S 3452   2.385   6.064   7.226  0.2374 -0.6296  1.0473
   26SAPC  C211 3453   2.188   6.066   7.304 -0.2327  0.0479  0.3923
   26SAPC  H11R 3454   2.084   6.081   7.273  0.7639  1.7085 -2.5924
   26SAPC  C212 3455   2.214   6.056   7.436 -0.1507  0.1348  0.2443
   26SAPC  H12R 3456   2.135   6.099   7.500 -0.0723  1.0416 -0.2586
   26SAPC  C213 3457   2.345   6.008   7.509 -0.1651  0.2279  0.4011
   26SAPC  H13R 3458   2.413   6.093   7.531  3.4034 -2.1894 -0.4203
   26SAPC  H13S 3459   2.407   5.946   7.440 -1.0241  0.5294 -0.6632
   26SAPC  C214 3460   2.322   5.924   7.637 -0.1693  0.0159  0.2648
   26SAPC  H14R 3461   2.360   5.821   7.626 -0.5422  0.0369 -1.5098
   26SAPC  C215 3462   2.266   5.963   7.755  0.0349 -0.1721 -0.5024
   26SAPC  H15R 3463   2.266   5.882   7.829  0.3514 -1.5497 -1.9401
   26SAPC  C216 3464   2.233   6.104   7.791  0.3483 -0.3635  0.1836
   26SAPC  H16R 3465   2.176   6.161   7.715 -1.7640 -0.8044  1.3375
   26SAPC  H16S 3466   2.330   6.157   7.804  0.3365 -0.2949 -0.0127
   26SAPC  C217 3467   2.139   6.114   7.914  0.5194  0.3627 -0.4439
   26SAPC  H17R 3468   2.056   6.040   7.908  0.9117 -0.2515  1.3697
   26SAPC  H17S 3469   2.089   6.213   7.899  3.0533  1.8478  0.4546
   26SAPC  C218 3470   2.203   6.121   8.059  0.8796 -0.3538  0.9767
   26SAPC  H18R 3471   2.109   6.132   8.118 -0.5888 -0.5134 -1.2113
   26SAPC  H18S 3472   2.274   6.205   8.071  4.9332 -2.9449 -2.2308
   26SAPC  C219 3473   2.260   5.985   8.113 -0.3321 -1.0739 -0.0242
   26SAPC  H19R 3474   2.354   5.975   8.055  0.9253  2.0798  1.2595
   26SAPC  H19S 3475   2.181   5.915   8.077  1.0116 -3.3680  1.2645
   26SAPC  C220 3476   2.297   5.979   8.255 -0.1326 -0.2100 -0.6706
   26SAPC  H20R 3477   2.392   6.035   8.270  1.3780 -3.0056  1.0440
   26SAPC  H20S 3478   2.314   5.874   8.286  1.0694  0.1195 -0.1639
   26SAPC  H20T 3479   2.214   6.008   8.323 -0.1165 -1.0962 -0.2556
   26SAPC   C33 3480   1.602   5.495   6.599 -0.9134 -0.1783 -0.6631
   26SAPC   H3X 3481   1.580   5.393   6.635  1.2662 -0.7246 -0.7432
   26SAPC   H3Y 3482   1.507   5.553   6.598 -1.2245 -0.6831 -0.9314
   26SAPC   C34 3483   1.702   5.552   6.693 -0.5152  0.4561  0.0738
   26SAPC   H4X 3484   1.654   5.548   6.794 -2.9983 -2.4691 -1.0591
   26SAPC   H4Y 3485   1.713   5.660   6.667  0.9354 -0.1423 -1.9970
   26SAPC   C35 3486   1.846   5.486   6.707  0.7315 -0.2992  1.5939
   26SAPC   H5X 3487   1.896   5.505   6.610 -1.5244 -0.4271  0.3357
   26SAPC   H5Y 3488   1.844   5.375   6.718  0.7127 -0.8002 -2.0634
   26SAPC   C36 3489   1.930   5.562   6.811 -0.5290 -0.8787  0.5269
   26SAPC   H6X 3490   1.941   5.664   6.767  0.1539 -1.8734 -1.7968
   26SAPC   H6Y 3491   2.036   5.530   6.808 -0.6724 -1.3412 -1.8208
   26SAPC   C37 3492   1.869   5.556   6.956  0.3789  0.1441 -0.4052
   26SAPC   H7X 3493   1.851   5.447   6.963  3.2080 -0.4694 -1.2993
   26SAPC   H7Y 3494   1.779   5.620   6.952  2.0318  2.6577  0.2918
   26SAPC   C38 3495   1.964   5.619   7.062 -0.6681  0.1478  0.2271
   26SAPC   H8X 3496   1.993   5.719   7.025  0.1098 -0.7189 -1.6372
   26SAPC   H8Y 3497   2.052   5.552   7.074 -1.9250 -1.8659 -1.0881
   26SAPC   C39 3498   1.899   5.620   7.209 -0.0693 -0.4287  0.0328
   26SAPC   H9X 3499   1.894   5.515   7.245  1.5942 -0.8541 -0.8649
   26SAPC   H9Y 3500   1.797   5.662   7.195 -0.6019 -1.2299  1.2926
   26SAPC  C310 3501   1.965   5.709   7.312 -0.3332  0.2957  0.6289
   26SAPC  H10X 3502   1.970   5.817   7.285 -1.8156 -0.4553 -3.3775
   26SAPC  H10Y 3503   2.070   5.672   7.313 -0.1364  0.6947  3.7321
   26SAPC  C311 3504   1.903   5.678   7.448 -0.1286  0.3333 -0.8013
   26SAPC  H11X 3505   1.904   5.572   7.483  1.4624  1.2052  2.1868
   26SAPC  H11Y 3506   1.803   5.725   7.446 -0.4405 -0.0543  1.8375
   26SAPC  C312 3507   1.970   5.761   7.561 -0.5776 -0.1144 -0.3649
   26SAPC  H12X 3508   1.945   5.869   7.546 -1.9412 -0.6044 -1.9196
   26SAPC  H12Y 3509   2.081   5.759   7.555 -0.4843  3.2898 -2.5762
   26SAPC  C313 3510   1.919   5.703   7.690  0.4441 -0.5233 -0.3100
   26SAPC  H13X 3511   1.941   5.594   7.686 -0.8452 -0.7854 -0.7769
   26SAPC  H13Y 3512   1.808   5.709   7.682  0.0160 -1.9359  2.9769
   26SAPC  C314 3513   1.964   5.772   7.819  0.1415 -0.0324  0.0507
   26SAPC  H14X 3514   1.938   5.877   7.792 -2.3311 -1.0019 -1.6201
   26SAPC  H14Y 3515   2.074   5.763   7.831  0.7376  1.4722 -3.1724
   26SAPC  C315 3516   1.891   5.716   7.937  0.0997 -0.2938  0.3795
   26SAPC  H15X 3517   1.893   5.605   7.926  2.1157 -0.2694  0.0644
   26SAPC  H15Y 3518   1.782   5.734   7.943 -0.2965 -2.6417  1.9723
   26SAPC  C316 3519   1.956   5.757   8.065 -0.1032  0.3669 -0.1518
   26SAPC  H16X 3520   1.949   5.868   8.073  0.8223  1.0052 -5.0019
   26SAPC  H16Y 3521   2.065   5.739   8.060  0.1823  1.2427  1.7822
   26SAPC  C317 3522   1.899   5.686   8.192  0.6931 -0.8711  0.0352
   26SAPC  H17X 3523   1.900   5.576   8.179  0.2251 -0.9419  0.5644
   26SAPC  H17Y 3524   1.792   5.714   8.202  0.7930 -0.6780  0.6066
   26SAPC  C318 3525   1.972   5.725   8.316 -0.1838  0.7131 -0.0897
   26SAPC  H18X 3526   2.083   5.717   8.305 -0.3111  0.0577 -1.0829
   26SAPC  H18Y 3527   1.937   5.653   8.393 -3.2983  1.1418 -0.9826
   26SAPC  H18Z 3528   1.954   5.831   8.343  0.5668  0.9145 -0.3483
   27SAPC     N 3529   4.501   6.535   6.174 -0.1255 -0.0897 -0.6732
   27SAPC   C12 3530   4.405   6.483   6.277 -0.2555 -0.2427  0.6901
   27SAPC  H12A 3531   4.335   6.416   6.230  0.3770  0.6473 -1.6243
   27SAPC  H12B 3532   4.341   6.566   6.302 -2.5442 -1.7649  0.1466
   27SAPC   C13 3533   4.438   6.648   6.089  0.2570  0.2186 -0.0133
   27SAPC  H13A 3534   4.505   6.685   6.013  2.4297 -2.4331  0.4520
   27SAPC  H13B 3535   4.354   6.607   6.033  0.0650  0.6414 -0.0408
   27SAPC  H13C 3536   4.420   6.733   6.153  0.8097 -1.3827  2.3804
   27SAPC   C14 3537   4.629   6.596   6.233 -0.2642 -0.1563 -0.2190
   27SAPC  H14A 3538   4.706   6.625   6.162  1.4218  0.1878  1.6541
   27SAPC  H14B 3539   4.607   6.686   6.289  2.9133  2.3478 -2.5831
   27SAPC  H14C 3540   4.671   6.526   6.303 -2.0242 -0.4611  0.5940
   27SAPC   C15 3541   4.554   6.426   6.085 -0.6090 -0.2716  0.2947
   27SAPC  H15A 3542   4.599   6.349   6.145 -1.8219 -1.0889  0.2136
   27SAPC  H15B 3543   4.479   6.387   6.017 -0.1086 -2.4693  0.9249
   27SAPC  H15C 3544   4.624   6.477   6.021  0.4652 -1.5383  0.4182
   27SAPC   C11 3545   4.462   6.416   6.399  0.1560 -0.9781  0.2371
   27SAPC  H11A 3546   4.544   6.468   6.453  0.9255 -1.5558 -0.3515
   27SAPC  H11B 3547   4.501   6.315   6.376  1.2948 -0.7420  1.0075
   27SAPC     P 3548   4.373   6.385   6.639  0.2399 -0.3045 -0.0391
   27SAPC   O13 3549   4.253   6.370   6.714  0.3134  0.2620 -0.3378
   27SAPC   O14 3550   4.474   6.277   6.653 -0.1208  1.3606  0.7561
   27SAPC   O12 3551   4.345   6.407   6.486 -0.0551  0.6815  0.6611
   27SAPC   O11 3552   4.443   6.520   6.674  0.3378  0.1281 -0.2237
   27SAPC    C1 3553   4.392   6.655   6.657 -0.4433  1.2504 -0.6364
   27SAPC    HA 3554   4.429   6.695   6.560 -0.4207  1.7026 -0.4428
   27SAPC    HB 3555   4.281   6.664   6.650 -0.7252 -2.0082 -2.0210
   27SAPC    C2 3556   4.443   6.750   6.771 -0.6288 -0.2726 -0.7863
   27SAPC    HS 3557   4.417   6.853   6.738  1.1515  0.1046 -1.1034
   27SAPC   O21 3558   4.584   6.729   6.786  0.6303 -0.2338 -0.8698
   27SAPC   C21 3559   4.647   6.822   6.863  0.0535  0.9514 -0.1381
   27SAPC   O22 3560   4.605   6.934   6.881 -0.2896 -0.2622 -0.2769
   27SAPC   C22 3561   4.774   6.757   6.919  0.4580 -0.4087  0.6333
   27SAPC   H2R 3562   4.762   6.647   6.925  0.4933 -0.5442 -1.2697
   27SAPC   H2S 3563   4.857   6.787   6.851 -0.2955 -0.1375 -0.1810
   27SAPC    C3 3564   4.367   6.713   6.900 -0.0867  0.2675  0.0120
   27SAPC    HX 3565   4.388   6.605   6.917  1.7697  0.6280  0.2118
   27SAPC    HY 3566   4.260   6.733   6.880  0.7681  3.5778 -2.1306
   27SAPC   O31 3567   4.407   6.773   7.020 -0.8047  0.3663 -0.5203
   27SAPC   C31 3568   4.356   6.892   7.053 -0.4236  0.0333  0.3193
   27SAPC   O32 3569   4.288   6.959   6.984  0.3906 -0.5198  0.2379
   27SAPC   C32 3570   4.389   6.916   7.199 -0.6366 -0.5488 -0.6633
   27SAPC   H2X 3571   4.492   6.956   7.206 -1.3162  1.3606 -0.8483
   27SAPC   H2Y 3572   4.382   6.818   7.250  1.1423 -1.6648 -2.4400
   27SAPC   C23 3573   4.789   6.810   7.065 -0.5429 -0.6194  0.5575
   27SAPC   H3R 3574   4.699   6.798   7.128 -0.5523  1.8344  1.0952
   27SAPC   H3S 3575   4.807   6.919   7.056 -0.1350 -0.8489 -2.5830
   27SAPC   C24 3576   4.913   6.757   7.143 -0.7415 -0.2352 -0.6807
   27SAPC   H4R 3577   4.945   6.655   7.114 -1.4319 -0.2998 -1.2498
   27SAPC   H4S 3578   4.879   6.760   7.248 -1.3125 -2.4656 -0.7563
   27SAPC   C25 3579   5.044   6.834   7.135 -0.2969 -0.1204  0.3444
   27SAPC   H5R 3580   5.065   6.865   7.031 -1.5089  0.0657  0.1379
   27SAPC   C26 3581   5.135   6.873   7.220 -0.0132 -0.4160  0.7322
   27SAPC   H6R 3582   5.223   6.927   7.181 -0.1223  0.8915  2.1945
   27SAPC   C27 3583   5.148   6.835   7.366 -0.2930 -0.7336  0.5164
   27SAPC   H7R 3584   5.113   6.730   7.374  0.3846 -0.9386  0.8263
   27SAPC   H7S 3585   5.077   6.906   7.413 -0.9138 -0.8981 -0.1468
   27SAPC   C28 3586   5.270   6.870   7.440 -0.4616  0.2954  0.1406
   27SAPC   H8R 3587   5.306   6.973   7.420  3.4440 -0.6437  1.4957
   27SAPC   C29 3588   5.315   6.806   7.549  0.2985 -0.7355  0.4300
   27SAPC   H9R 3589   5.407   6.845   7.595 -1.3527  3.5637  0.5447
   27SAPC  C210 3590   5.259   6.685   7.611  0.0197  0.1981 -0.0785
   27SAPC  H10R 3591   5.260   6.603   7.536  1.0111  0.7805 -0.7166
   27SAPC  H10S 3592   5.153   6.705   7.637  0.2039  1.0199  0.0539
   27SAPC  C211 3593   5.341   6.630   7.722 -0.4568  0.1652 -0.3791
   27SAPC  H11R 3594   5.432   6.594   7.671  0.0763  0.7214  0.1715
   27SAPC  C212 3595   5.312   6.629   7.852 -0.3389  0.4068  0.4052
   27SAPC  H12R 3596   5.387   6.577   7.913 -0.3868 -1.6762 -1.1653
   27SAPC  C213 3597   5.186   6.687   7.918  0.0002  0.4868  0.2528
   27SAPC  H13R 3598   5.142   6.759   7.846 -1.4390  0.1423  0.7377
   27SAPC  H13S 3599   5.215   6.744   8.009  1.6171 -0.8866  0.6433
   27SAPC  C214 3600   5.070   6.594   7.949 -0.0383  0.4547  0.2590
   27SAPC  H14R 3601   4.972   6.620   7.905  1.3983  4.8442 -0.8702
   27SAPC  C215 3602   5.082   6.475   8.021 -0.0308 -0.9356  0.1217
   27SAPC  H15R 3603   4.998   6.408   8.042 -1.2236 -0.9570 -3.8966
   27SAPC  C216 3604   5.211   6.444   8.095 -0.1287 -0.6053  0.1792
   27SAPC  H16R 3605   5.271   6.537   8.103  1.8777 -1.8478  0.5053
   27SAPC  H16S 3606   5.277   6.360   8.062  1.2748  0.5710 -0.0829
   27SAPC  C217 3607   5.197   6.423   8.251  0.0245  0.0123 -0.3459
   27SAPC  H17R 3608   5.145   6.515   8.286  0.7405  1.0385 -1.8552
   27SAPC  H17S 3609   5.296   6.412   8.300  0.3065  0.8809 -0.6960
   27SAPC  C218 3610   5.112   6.296   8.289  0.0536  0.0712 -0.3439
   27SAPC  H18R 3611   5.065   6.267   8.192  3.7202 -0.1035 -2.2312
   27SAPC  H18S 3612   5.024   6.324   8.351 -1.3935 -2.3847 -1.1447
   27SAPC  C219 3613   5.187   6.181   8.353  0.0796 -0.1825  0.0637
   27SAPC  H19R 3614   5.268   6.142   8.287 -0.4231 -0.9516 -0.1238
   27SAPC  H19S 3615   5.113   6.098   8.359 -2.7554  2.1786 -0.4893
   27SAPC  C220 3616   5.240   6.213   8.492  0.2369  0.5848 -0.1486
   27SAPC  H20R 3617   5.290   6.120   8.528  0.4357  0.3128 -1.1243
   27SAPC  H20S 3618   5.160   6.235   8.566  0.0437 -1.7950  0.4472
   27SAPC  H20T 3619   5.315   6.294   8.490  1.3985 -0.4730 -1.6372
   27SAPC   C33 3620   4.308   7.020   7.277  0.0573 -0.1355 -0.2530
   27SAPC   H3X 3621   4.198   7.004   7.268 -0.3211  1.5822  0.8306
   27SAPC   H3Y 3622   4.340   7.118   7.235 -0.5719 -0.7428 -2.2686
   27SAPC   C34 3623   4.323   7.005   7.434  0.9666  0.0414 -0.8158
   27SAPC   H4X 3624   4.434   7.003   7.441  1.0221 -0.4747 -1.6876
   27SAPC   H4Y 3625   4.275   6.911   7.470 -0.1430  0.3086 -1.5683
   27SAPC   C35 3626   4.275   7.108   7.539 -0.0193 -0.1295  0.5017
   27SAPC   H5X 3627   4.175   7.146   7.506  0.5347 -1.3192 -3.0013
   27SAPC   H5Y 3628   4.348   7.192   7.541  0.1193 -0.2260 -0.1631
   27SAPC   C36 3629   4.269   7.051   7.681  0.1510 -0.3191 -0.8157
   27SAPC   H6X 3630   4.363   7.019   7.730 -0.8087 -2.1122 -0.0752
   27SAPC   H6Y 3631   4.205   6.961   7.671 -1.3213  0.7746 -1.6313
   27SAPC   C37 3632   4.198   7.151   7.772  0.9380  0.0820 -1.0062
   27SAPC   H7X 3633   4.099   7.177   7.730  0.2005 -2.0729 -0.7468
   27SAPC   H7Y 3634   4.246   7.251   7.769 -1.8820  1.5246 -0.7678
   27SAPC   C38 3635   4.196   7.100   7.921 -0.2408  0.2739  0.7252
   27SAPC   H8X 3636   4.305   7.094   7.944 -0.0630  0.5343 -0.0322
   27SAPC   H8Y 3637   4.153   6.997   7.922 -1.1780  0.6567  0.5315
   27SAPC   C39 3638   4.117   7.174   8.027  0.1081 -0.5375  0.2027
   27SAPC   H9X 3639   4.011   7.174   7.993  0.1933  0.5509 -0.0987
   27SAPC   H9Y 3640   4.150   7.280   8.033  1.2495 -0.7442 -1.5526
   27SAPC  C310 3641   4.141   7.113   8.166 -0.0749  0.2558 -0.6471
   27SAPC  H10X 3642   4.247   7.084   8.181 -0.2565 -0.3529 -0.4939
   27SAPC  H10Y 3643   4.086   7.020   8.193  0.0680  0.2366 -0.4167
   27SAPC  C311 3644   4.121   7.216   8.279 -0.6351 -0.1228  0.2082
   27SAPC  H11X 3645   4.017   7.254   8.281 -0.5972  0.0118 -0.2383
   27SAPC  H11Y 3646   4.184   7.303   8.249 -0.8659  0.0036  0.0851
   27SAPC  C312 3647   4.172   7.164   8.419  0.4154  0.1625 -0.5474
   27SAPC  H12X 3648   4.163   7.242   8.497 -1.3275  0.3434 -0.8966
   27SAPC  H12Y 3649   4.277   7.130   8.406  0.8197  1.8163 -2.0220
   27SAPC  C313 3650   4.085   7.049   8.472  0.0772 -0.1465  0.6672
   27SAPC  H13X 3651   4.108   6.951   8.424  1.0836  0.1650  0.4845
   27SAPC  H13Y 3652   3.980   7.076   8.449 -0.8762 -3.7526  0.0560
   27SAPC  C314 3653   4.097   7.018   8.623 -0.1603 -0.1979 -0.7087
   27SAPC  H14X 3654   4.004   6.979   8.669  0.4625  0.3355  1.0630
   27SAPC  H14Y 3655   4.117   7.114   8.676 -0.0780  1.2937 -3.2666
   27SAPC  C315 3656   4.212   6.917   8.652 -0.4532 -0.5706 -0.7864
   27SAPC  H15X 3657   4.201   6.828   8.585 -0.9710 -2.0295  1.1401
   27SAPC  H15Y 3658   4.191   6.874   8.752 -1.9493  0.5636 -0.5795
   27SAPC  C316 3659   4.357   6.965   8.654  0.0264 -0.5208 -0.2531
   27SAPC  H16X 3660   4.368   7.030   8.744 -0.7550 -0.7929  0.0457
   27SAPC  H16Y 3661   4.382   7.028   8.566 -2.8268  2.1047  0.6075
   27SAPC  C317 3662   4.452   6.852   8.677 -0.3081 -0.1244  0.3218
   27SAPC  H17X 3663   4.464   6.800   8.579 -0.1768  0.2592  0.1313
   27SAPC  H17Y 3664   4.397   6.788   8.749  1.7383  0.7173  2.7688
   27SAPC  C318 3665   4.594   6.890   8.716  0.1974  0.4215  0.1114
   27SAPC  H18X 3666   4.595   6.948   8.811  0.7046  0.2184  0.2320
   27SAPC  H18Y 3667   4.640   6.948   8.633  1.4989 -1.1892 -0.3576
   27SAPC  H18Z 3668   4.645   6.791   8.720  0.8652  0.6972 -1.1319
   28SAPC     N 3669   3.803   2.738   6.305 -0.7807  0.0524 -0.1181
   28SAPC   C12 3670   3.831   2.861   6.383  0.2786  0.1503  0.4970
   28SAPC  H12A 3671   3.750   2.864   6.455 -0.2954 -1.2351 -0.0549
   28SAPC  H12B 3672   3.823   2.948   6.319 -1.6400 -0.7956 -0.6476
   28SAPC   C13 3673   3.701   2.761   6.199  0.0037  0.3981 -0.1576
   28SAPC  H13A 3674   3.599   2.785   6.228 -0.7369 -0.2062 -2.0659
   28SAPC  H13B 3675   3.729   2.849   6.142  1.4267 -0.7589 -1.3301
   28SAPC  H13C 3676   3.700   2.678   6.131 -0.6015  0.5797 -0.3788
   28SAPC   C14 3677   3.934   2.696   6.239  0.2290  0.0848  0.3071
   28SAPC  H14A 3678   4.005   2.655   6.310  0.9271  1.2742  0.3125
   28SAPC  H14B 3679   3.917   2.623   6.161  0.5320 -1.3039  1.4970
   28SAPC  H14C 3680   3.978   2.780   6.187  2.7057 -0.8324  0.8015
   28SAPC   C15 3681   3.748   2.624   6.394 -0.4208  0.1086  0.0229
   28SAPC  H15A 3682   3.757   2.524   6.352  1.2036 -0.1464  0.8980
   28SAPC  H15B 3683   3.810   2.618   6.482  0.3939  1.0910 -0.4771
   28SAPC  H15C 3684   3.644   2.635   6.423 -0.9797 -1.0778 -1.3734
   28SAPC   C11 3685   3.963   2.864   6.457 -0.7310 -0.6350  0.5948
   28SAPC  H11A 3686   3.968   2.776   6.524  0.1821 -1.5601 -0.6496
   28SAPC  H11B 3687   3.960   2.951   6.525 -0.7800 -1.4892  1.7069
   28SAPC     P 3688   4.131   3.001   6.310  0.2704 -0.1136  0.0428
   28SAPC   O13 3689   4.260   2.977   6.244  0.2903 -0.2020  0.1772
   28SAPC   O14 3690   4.028   3.043   6.218 -0.0724 -0.0026  0.2472
   28SAPC   O12 3691   4.087   2.872   6.378  0.3971  0.1402 -0.7175
   28SAPC   O11 3692   4.154   3.105   6.430  0.2813  0.2816 -0.2936
   28SAPC    C1 3693   4.287   3.136   6.478 -0.2015 -0.0790 -0.2355
   28SAPC    HA 3694   4.344   3.171   6.389 -0.3711 -0.7136 -0.6038
   28SAPC    HB 3695   4.285   3.227   6.540 -0.0571  0.7668 -1.4374
   28SAPC    C2 3696   4.365   3.018   6.550  0.7595 -0.1729 -0.0253
   28SAPC    HS 3697   4.400   2.950   6.470 -2.6384 -2.7150  0.3810
   28SAPC   O21 3698   4.260   2.942   6.620  0.1357 -0.0515 -0.3817
   28SAPC   C21 3699   4.300   2.817   6.644  0.6989  0.1247  0.6603
   28SAPC   O22 3700   4.400   2.760   6.598 -0.2854  0.2601 -0.7092
   28SAPC   C22 3701   4.204   2.743   6.743  0.3986 -0.1866  0.2643
   28SAPC   H2R 3702   4.123   2.711   6.675  1.4488  1.0760 -1.6874
   28SAPC   H2S 3703   4.255   2.648   6.771  2.7691  0.2900 -2.0018
   28SAPC    C3 3704   4.467   3.077   6.646 -0.5347 -0.5148 -0.5622
   28SAPC    HX 3705   4.425   3.154   6.713  0.5144  0.9106 -1.4863
   28SAPC    HY 3706   4.545   3.125   6.582 -1.1924 -0.1915 -1.1330
   28SAPC   O31 3707   4.533   2.979   6.724  0.1580  0.0180 -0.3708
   28SAPC   C31 3708   4.613   3.024   6.819 -0.5779  0.0607  0.0667
   28SAPC   O32 3709   4.637   3.141   6.841 -0.0824  0.2091 -0.2831
   28SAPC   C32 3710   4.677   2.907   6.893 -0.7950 -0.2129 -1.2133
   28SAPC   H2X 3711   4.775   2.879   6.848 -0.1281 -0.1185  0.1385
   28SAPC   H2Y 3712   4.606   2.822   6.886  1.2148 -1.8872 -2.2001
   28SAPC   C23 3713   4.156   2.825   6.864 -0.9494 -0.1883 -0.3169
   28SAPC   H3R 3714   4.124   2.755   6.945  1.0511 -1.0893 -0.2476
   28SAPC   H3S 3715   4.076   2.897   6.838  0.2797  3.1802  4.0443
   28SAPC   C24 3716   4.273   2.904   6.923  0.0004  0.6571 -0.2818
   28SAPC   H4R 3717   4.337   2.957   6.849  0.4171 -0.7427 -0.9624
   28SAPC   H4S 3718   4.224   2.990   6.974 -1.1748 -0.1390 -0.0311
   28SAPC   C25 3719   4.356   2.817   7.024 -0.0881  0.3452  0.7179
   28SAPC   H5R 3720   4.437   2.765   6.971 -1.8583 -0.7018 -1.1113
   28SAPC   C26 3721   4.340   2.799   7.158  0.5483 -0.1598  0.9875
   28SAPC   H6R 3722   4.422   2.739   7.201  1.4478 -1.3281 -2.1266
   28SAPC   C27 3723   4.245   2.871   7.248  1.0186 -0.2909  0.3216
   28SAPC   H7R 3724   4.251   2.833   7.352  1.0522 -0.3557  0.2964
   28SAPC   H7S 3725   4.137   2.858   7.227  0.7945  1.0416  0.5461
   28SAPC   C28 3726   4.267   3.021   7.257 -0.4062  0.8365  0.0555
   28SAPC   H8R 3727   4.224   3.077   7.173 -0.3043 -2.6188 -2.4866
   28SAPC   C29 3728   4.348   3.093   7.345  0.8085 -0.4149  0.4765
   28SAPC   H9R 3729   4.348   3.203   7.340 -0.4505 -0.1232  4.0187
   28SAPC  C210 3730   4.431   3.020   7.450  0.2337  0.4351 -0.7319
   28SAPC  H10R 3731   4.535   3.031   7.413  0.2756 -0.2118 -0.8134
   28SAPC  H10S 3732   4.417   2.911   7.468  0.0350  0.9667  3.4820
   28SAPC  C211 3733   4.420   3.096   7.583  0.6594 -0.2026  0.5442
   28SAPC  H11R 3734   4.491   3.180   7.586 -3.2243  3.5107 -0.9958
   28SAPC  C212 3735   4.336   3.074   7.691 -0.4676 -0.0829  0.4600
   28SAPC  H12R 3736   4.341   3.142   7.777  0.6111 -0.1116  0.4286
   28SAPC  C213 3737   4.230   2.965   7.699  0.4410  0.0797 -0.8205
   28SAPC  H13R 3738   4.209   2.917   7.601  3.7974 -0.1047 -1.5778
   28SAPC  H13S 3739   4.130   3.009   7.719  0.0328 -0.2233 -2.1109
   28SAPC  C214 3740   4.268   2.851   7.791  0.3398 -0.2951 -0.2088
   28SAPC  H14R 3741   4.299   2.762   7.735 -0.5119 -0.8424  0.1759
   28SAPC  C215 3742   4.261   2.839   7.924 -0.6427 -0.2149  0.1295
   28SAPC  H15R 3743   4.293   2.743   7.967  0.2565  0.3151  0.6850
   28SAPC  C216 3744   4.212   2.953   8.007 -0.0714 -0.4998 -0.0955
   28SAPC  H16R 3745   4.156   3.031   7.951 -0.8637  0.1461  1.5456
   28SAPC  H16S 3746   4.298   3.005   8.054  1.2257 -0.9327 -1.8632
   28SAPC  C217 3747   4.125   2.905   8.123 -0.0663 -0.3074  1.1715
   28SAPC  H17R 3748   4.167   2.814   8.171  3.7366 -0.6682 -2.2340
   28SAPC  H17S 3749   4.020   2.889   8.091  0.4038 -0.1114 -0.6042
   28SAPC  C218 3750   4.106   3.018   8.225 -0.1997  0.0199 -0.7185
   28SAPC  H18R 3751   4.017   2.992   8.287  1.6983 -0.3202  2.0612
   28SAPC  H18S 3752   4.079   3.113   8.173  0.7016  0.7465  0.1037
   28SAPC  C219 3753   4.221   3.041   8.319  0.3253  0.0285 -0.1200
   28SAPC  H19R 3754   4.317   3.069   8.271  0.9562  1.9430  2.0198
   28SAPC  H19S 3755   4.238   2.944   8.370 -0.5663 -1.2440 -2.1363
   28SAPC  C220 3756   4.193   3.158   8.409 -0.1193 -0.1845 -0.3204
   28SAPC  H20R 3757   4.198   3.252   8.349  0.4100 -1.4679 -2.3922
   28SAPC  H20S 3758   4.261   3.156   8.496  1.7708  0.2875 -1.7262
   28SAPC  H20T 3759   4.094   3.140   8.456  1.0672 -2.4391  1.4716
   28SAPC   C33 3760   4.699   2.934   7.051 -0.2548 -0.7386 -0.0912
   28SAPC   H3X 3761   4.607   2.984   7.088  0.2132 -0.7047  1.0822
   28SAPC   H3Y 3762   4.787   3.001   7.071 -0.3311 -0.7477  0.2920
   28SAPC   C34 3763   4.731   2.804   7.123  0.0897  0.4360 -0.2849
   28SAPC   H4X 3764   4.822   2.750   7.092 -0.0706 -0.7527  1.1961
   28SAPC   H4Y 3765   4.652   2.730   7.098  0.7305 -0.2923 -0.1870
   28SAPC   C35 3766   4.739   2.835   7.270  0.1881  0.0359  0.2641
   28SAPC   H5X 3767   4.645   2.794   7.312 -1.2429  2.7247 -0.0571
   28SAPC   H5Y 3768   4.738   2.946   7.282  0.8266 -0.1041  1.8436
   28SAPC   C36 3769   4.848   2.770   7.348 -0.2804  0.0437 -0.2281
   28SAPC   H6X 3770   4.950   2.776   7.304 -0.6711  2.4034 -0.9346
   28SAPC   H6Y 3771   4.832   2.660   7.353 -0.2040  0.0313 -0.2374
   28SAPC   C37 3772   4.848   2.808   7.501  0.3392  0.3120 -0.2210
   28SAPC   H7X 3773   4.902   2.735   7.564 -0.3454 -1.7244 -1.8973
   28SAPC   H7Y 3774   4.742   2.808   7.535 -0.9707 -0.6342 -3.8640
   28SAPC   C38 3775   4.909   2.947   7.527 -0.3193  0.1152 -0.1022
   28SAPC   H8X 3776   4.876   3.025   7.456 -2.4270 -0.1812  0.4734
   28SAPC   H8Y 3777   5.016   2.941   7.500 -0.0016  1.1924  0.8441
   28SAPC   C39 3778   4.897   2.992   7.674  0.0800  0.0315 -0.0252
   28SAPC   H9X 3779   4.980   3.059   7.705  0.7239 -0.7483 -0.0313
   28SAPC   H9Y 3780   4.914   2.911   7.748  0.2748 -0.4065 -0.5410
   28SAPC  C310 3781   4.767   3.058   7.718  0.0572  0.1263 -0.5807
   28SAPC  H10X 3782   4.679   3.004   7.677  1.9391 -1.4039 -2.8386
   28SAPC  H10Y 3783   4.765   3.153   7.660 -1.5694  0.3564 -0.2019
   28SAPC  C311 3784   4.755   3.076   7.872  0.1790 -0.4541 -0.4697
   28SAPC  H11X 3785   4.680   3.155   7.893  1.1871  0.2094  0.8136
   28SAPC  H11Y 3786   4.853   3.110   7.912 -0.1089 -1.7996  1.5325
   28SAPC  C312 3787   4.706   2.944   7.933  0.8851  0.0640 -0.4328
   28SAPC  H12X 3788   4.793   2.876   7.948  0.8052 -0.0019 -0.2624
   28SAPC  H12Y 3789   4.635   2.892   7.866  1.2309  0.3134 -0.9990
   28SAPC  C313 3790   4.633   2.958   8.077 -0.0892 -0.3497  0.0976
   28SAPC  H13X 3791   4.619   2.858   8.123 -1.2973 -1.8702 -3.2365
   28SAPC  H13Y 3792   4.528   2.996   8.070  0.6305  2.0767  1.1734
   28SAPC  C314 3793   4.710   3.045   8.180  0.1279  0.0608 -1.2939
   28SAPC  H14X 3794   4.819   3.026   8.167  0.4493  0.4361  0.5304
   28SAPC  H14Y 3795   4.673   3.003   8.276  1.1991  1.0227 -0.4384
   28SAPC  C315 3796   4.694   3.195   8.175  0.4212  0.2901 -0.2313
   28SAPC  H15X 3797   4.746   3.228   8.082  1.1525 -2.5293 -0.9400
   28SAPC  H15Y 3798   4.735   3.229   8.272 -2.3282 -1.5210  1.7208
   28SAPC  C316 3799   4.545   3.248   8.173  0.3578  0.0874 -0.6930
   28SAPC  H16X 3800   4.475   3.184   8.230 -1.1300  0.7850 -1.6816
   28SAPC  H16Y 3801   4.508   3.258   8.069  0.9649 -1.2482 -1.0539
   28SAPC  C317 3802   4.542   3.383   8.245  0.2444  0.3738  0.5364
   28SAPC  H17X 3803   4.633   3.447   8.234  0.8968 -0.9004 -3.2277
   28SAPC  H17Y 3804   4.532   3.358   8.352  0.3349 -0.5611  0.3365
   28SAPC  C318 3805   4.423   3.481   8.224 -0.4707  0.6390 -0.2949
   28SAPC  H18X 3806   4.443   3.540   8.132  0.4391 -0.5494 -0.8792
   28SAPC  H18Y 3807   4.421   3.545   8.315 -1.0150 -0.2473  0.3353
   28SAPC  H18Z 3808   4.326   3.427   8.224 -0.2481  0.2321 -1.0620
   29SAPC     N 3809   0.140   6.395   6.096 -0.7176  0.4728  0.0634
   29SAPC   C12 3810   0.216   6.448   6.215 -0.1562  0.4388 -0.4916
   29SAPC  H12A 3811   0.177   6.544   6.247 -0.5440  0.1458 -0.0773
   29SAPC  H12B 3812   0.318   6.464   6.185 -0.1123  0.4276 -0.3468
   29SAPC   C13 3813  -0.003   6.394   6.142  0.0416 -0.1283 -0.0509
   29SAPC  H13A 3814  -0.034   6.493   6.172  0.5457 -0.3439  1.2363
   29SAPC  H13B 3815  -0.066   6.331   6.081 -1.2931 -1.5782  2.6568
   29SAPC  H13C 3816  -0.013   6.339   6.234  0.0032 -2.1980 -1.2410
   29SAPC   C14 3817   0.150   6.486   5.977  0.1250  0.2299  0.8744
   29SAPC  H14A 3818   0.082   6.458   5.898  2.3129  0.2971 -1.1174
   29SAPC  H14B 3819   0.139   6.593   5.989 -1.7003  0.2680 -0.6880
   29SAPC  H14C 3820   0.251   6.480   5.940  0.7951  2.5183  2.1003
   29SAPC   C15 3821   0.180   6.257   6.054  0.0334 -0.2879 -0.6637
   29SAPC  H15A 3822   0.105   6.211   5.992  1.0163 -0.4465 -1.7736
   29SAPC  H15B 3823   0.272   6.246   5.998  0.2040 -1.2766 -0.2070
   29SAPC  H15C 3824   0.190   6.188   6.137 -0.5455 -0.5811 -0.8306
   29SAPC   C11 3825   0.223   6.360   6.341  0.1687 -0.5162 -0.7596
   29SAPC  H11A 3826   0.119   6.335   6.369 -0.5199  1.3265 -1.5168
   29SAPC  H11B 3827   0.277   6.416   6.421  0.3393 -1.2615 -0.3500
   29SAPC     P 3828   0.447   6.228   6.335 -0.2114  0.0972 -0.0394
   29SAPC   O13 3829   0.482   6.091   6.288 -0.3302 -0.3364 -0.2236
   29SAPC   O14 3830   0.512   6.339   6.262  0.1223  0.4453 -0.1062
   29SAPC   O12 3831   0.290   6.237   6.326 -0.1230  0.1851  0.0736
   29SAPC   O11 3832   0.481   6.242   6.491 -0.6168 -0.5630  0.4417
   29SAPC    C1 3833   0.424   6.152   6.582  0.0887  0.9174  0.1082
   29SAPC    HA 3834   0.421   6.045   6.552 -1.1308  0.1253  2.7616
   29SAPC    HB 3835   0.492   6.153   6.670 -0.1235 -0.3848  0.3013
   29SAPC    C2 3836   0.287   6.207   6.646 -0.0507 -0.1950  0.1497
   29SAPC    HS 3837   0.215   6.213   6.562  1.9877  0.9733 -1.6160
   29SAPC   O21 3838   0.302   6.342   6.697 -0.5961 -0.0550  0.2398
   29SAPC   C21 3839   0.201   6.415   6.712 -0.2948  0.0056 -0.1333
   29SAPC   O22 3840   0.087   6.395   6.665  0.1297 -0.2580 -0.6584
   29SAPC   C22 3841   0.236   6.520   6.821 -0.5524  0.5673  0.4343
   29SAPC   H2R 3842   0.320   6.582   6.784 -0.1395  0.4852  1.2274
   29SAPC   H2S 3843   0.143   6.580   6.833 -2.4672 -2.1811  0.4265
   29SAPC    C3 3844   0.224   6.107   6.746 -0.6569  0.4832 -0.4202
   29SAPC    HX 3845   0.207   6.013   6.690  0.7847 -1.9662  2.9381
   29SAPC    HY 3846   0.125   6.143   6.780 -1.0562  0.8018 -1.8343
   29SAPC   O31 3847   0.317   6.089   6.857 -0.1290  0.5202 -0.0698
   29SAPC   C31 3848   0.399   5.985   6.850 -0.0814  0.3283  0.4490
   29SAPC   O32 3849   0.403   5.902   6.761  0.4292 -0.0592 -0.0518
   29SAPC   C32 3850   0.500   5.995   6.958  0.5039 -0.3801 -0.5554
   29SAPC   H2X 3851   0.449   5.977   7.055  1.2588  0.9462  0.1354
   29SAPC   H2Y 3852   0.551   6.094   6.952  3.2728 -1.7308 -0.8281
   29SAPC   C23 3853   0.287   6.466   6.955  0.6578 -0.2149 -0.0761
   29SAPC   H3R 3854   0.351   6.547   6.995 -1.1998  1.6598 -0.6944
   29SAPC   H3S 3855   0.356   6.380   6.946 -0.2896 -0.8874 -1.3782
   29SAPC   C24 3856   0.174   6.439   7.048 -0.0629 -0.0891 -0.1561
   29SAPC   H4R 3857   0.104   6.372   6.993  0.1318 -0.3529 -0.0853
   29SAPC   H4S 3858   0.125   6.536   7.071  2.0047  0.9361  0.1409
   29SAPC   C25 3859   0.205   6.364   7.181  0.2542  0.3985 -0.4211
   29SAPC   H5R 3860   0.217   6.255   7.172  2.4946  0.4648  1.1384
   29SAPC   C26 3861   0.207   6.419   7.302  0.1681 -0.0628 -0.5946
   29SAPC   H6R 3862   0.232   6.362   7.392 -1.9672  0.5986  0.4792
   29SAPC   C27 3863   0.170   6.561   7.334 -0.0184 -0.3308 -0.1775
   29SAPC   H7R 3864   0.125   6.618   7.250  2.8115  0.7691 -1.0886
   29SAPC   H7S 3865   0.258   6.629   7.342  0.9051 -1.6046  0.7820
   29SAPC   C28 3866   0.077   6.566   7.457 -0.1314 -0.0258 -0.9189
   29SAPC   H8R 3867  -0.033   6.565   7.454 -0.2223  0.7235  0.7262
   29SAPC   C29 3868   0.120   6.573   7.588  0.2750  0.1326 -0.5183
   29SAPC   H9R 3869   0.055   6.576   7.677  3.0358  0.9132  1.6240
   29SAPC  C210 3870   0.264   6.576   7.626  0.0737  0.9605  0.5564
   29SAPC  H10R 3871   0.276   6.677   7.672  1.3470  1.0743  0.0116
   29SAPC  H10S 3872   0.329   6.570   7.537  0.3415 -4.9940  0.7877
   29SAPC  C211 3873   0.303   6.471   7.721 -0.0911 -0.3260  0.6242
   29SAPC  H11R 3874   0.347   6.380   7.680 -2.0277 -0.9590 -0.1420
   29SAPC  C212 3875   0.288   6.475   7.853  0.9552 -0.0362  0.1916
   29SAPC  H12R 3876   0.331   6.385   7.902 -0.8898 -1.3663 -0.5307
   29SAPC  C213 3877   0.208   6.586   7.925  0.0719  0.0977 -0.4923
   29SAPC  H13R 3878   0.114   6.546   7.970  0.7283 -2.9549 -1.6214
   29SAPC  H13S 3879   0.169   6.668   7.861  0.7027  1.6635  1.0532
   29SAPC  C214 3880   0.296   6.651   8.027 -0.4858  0.0559  0.2583
   29SAPC  H14R 3881   0.397   6.677   7.994  0.1916 -0.5024  1.7984
   29SAPC  C215 3882   0.268   6.672   8.158 -0.1562  0.1685 -0.1750
   29SAPC  H15R 3883   0.339   6.733   8.216  0.7997 -1.2655  0.2077
   29SAPC  C216 3884   0.140   6.643   8.235 -0.2770 -0.1248  0.8690
   29SAPC  H16R 3885   0.138   6.536   8.264 -1.0740 -0.1591  0.7323
   29SAPC  H16S 3886   0.062   6.658   8.157  0.9390 -1.1499 -0.6029
   29SAPC  C217 3887   0.124   6.734   8.351  0.2671 -0.3554  0.1057
   29SAPC  H17R 3888   0.128   6.840   8.318  0.1333 -0.2613  0.3828
   29SAPC  H17S 3889   0.205   6.724   8.427 -1.6326  2.4317  2.7448
   29SAPC  C218 3890  -0.011   6.702   8.412  0.2932 -0.2115 -0.3252
   29SAPC  H18R 3891  -0.021   6.595   8.436 -3.8385  0.0131 -0.2921
   29SAPC  H18S 3892  -0.102   6.714   8.349  1.2289 -2.2738 -2.1905
   29SAPC  C219 3893  -0.028   6.770   8.551 -1.6248 -0.2557  0.4045
   29SAPC  H19R 3894   0.012   6.873   8.539 -0.1993 -0.6205  1.6574
   29SAPC  H19S 3895   0.044   6.734   8.627  1.0201  0.0665 -1.7783
   29SAPC  C220 3896  -0.167   6.774   8.619  0.4601  0.0685  0.4003
   29SAPC  H20R 3897  -0.201   6.669   8.604 -0.5985  0.7046 -2.1389
   29SAPC  H20S 3898  -0.233   6.833   8.552  2.1382  1.2096 -0.3187
   29SAPC  H20T 3899  -0.159   6.802   8.726 -0.4812 -1.6529  0.9615
   29SAPC   C33 3900   0.613   5.885   6.939  0.7344  0.0353  0.3105
   29SAPC   H3X 3901   0.665   5.903   6.842  0.0891  1.4404  0.2051
   29SAPC   H3Y 3902   0.569   5.784   6.928  0.6504  0.2083 -1.2185
   29SAPC   C34 3903   0.705   5.891   7.062 -0.5919  0.4249  0.1149
   29SAPC   H4X 3904   0.661   5.845   7.153 -0.9894  0.0778 -0.2518
   29SAPC   H4Y 3905   0.714   5.999   7.087  0.1419  0.3749  0.1073
   29SAPC   C35 3906   0.846   5.830   7.036  0.0801 -0.3216 -0.4098
   29SAPC   H5X 3907   0.905   5.882   6.958  0.6045  2.6557  1.8044
   29SAPC   H5Y 3908   0.828   5.725   7.005 -1.4815 -0.4358  0.7510
   29SAPC   C36 3909   0.933   5.824   7.160 -0.0408  0.2389 -0.7301
   29SAPC   H6X 3910   0.943   5.924   7.207  0.4264  0.7923 -1.9607
   29SAPC   H6Y 3911   1.040   5.806   7.136  0.5146  2.6118 -0.3134
   29SAPC   C37 3912   0.878   5.727   7.271  0.4869 -0.5746  0.6078
   29SAPC   H7X 3913   0.876   5.622   7.236  0.2005  0.0099 -1.2627
   29SAPC   H7Y 3914   0.776   5.762   7.301  1.5611  2.2171  1.2723
   29SAPC   C38 3915   0.972   5.745   7.392 -0.0338  0.4072  0.3765
   29SAPC   H8X 3916   1.009   5.849   7.399 -0.4039  0.4604  1.7564
   29SAPC   H8Y 3917   1.059   5.679   7.367 -0.5521  0.1991 -0.9425
   29SAPC   C39 3918   0.913   5.716   7.530  0.3843 -0.0899 -0.6800
   29SAPC   H9X 3919   0.896   5.606   7.538  1.7634 -0.1385  3.4766
   29SAPC   H9Y 3920   0.815   5.766   7.546  0.5940  0.1313 -0.0705
   29SAPC  C310 3921   1.007   5.755   7.643  0.6934 -0.0389  0.3065
   29SAPC  H10X 3922   1.113   5.746   7.610  0.3417  2.1232 -1.6198
   29SAPC  H10Y 3923   0.984   5.680   7.723 -0.7503 -0.7763 -0.7616
   29SAPC  C311 3924   0.990   5.890   7.717 -0.6016  0.7437 -0.3870
   29SAPC  H11X 3925   0.902   5.876   7.783  0.0355  2.3444  0.8737
   29SAPC  H11Y 3926   0.995   5.983   7.657  1.3866  1.5709  0.9550
   29SAPC  C312 3927   1.099   5.901   7.830  0.0776 -0.0758 -0.2839
   29SAPC  H12X 3928   1.195   5.921   7.779  0.3277  1.0218  0.5704
   29SAPC  H12Y 3929   1.114   5.800   7.874  0.3347  0.2685  0.4467
   29SAPC  C313 3930   1.074   6.005   7.939 -0.8634 -0.6867  0.6396
   29SAPC  H13X 3931   0.974   5.982   7.983 -2.1217  1.2065 -1.0363
   29SAPC  H13Y 3932   1.082   6.110   7.904  1.7802  0.4158  4.0355
   29SAPC  C314 3933   1.183   6.009   8.051 -0.2168 -0.3746  0.5662
   29SAPC  H14X 3934   1.271   6.066   8.016 -0.6269 -0.3806 -0.5012
   29SAPC  H14Y 3935   1.226   5.907   8.060  2.3915  0.7609  2.2451
   29SAPC  C315 3936   1.137   6.074   8.187  0.2096 -0.2007  0.2476
   29SAPC  H15X 3937   1.044   6.033   8.231  0.3655 -0.9268 -0.0879
   29SAPC  H15Y 3938   1.118   6.181   8.165  1.6314 -0.4144 -2.4477
   29SAPC  C316 3939   1.253   6.060   8.279  0.4873  0.1156 -0.4447
   29SAPC  H16X 3940   1.342   6.105   8.230  0.6427 -0.5898 -0.8263
   29SAPC  H16Y 3941   1.272   5.951   8.288 -0.8824 -0.0527  0.7368
   29SAPC  C317 3942   1.213   6.126   8.414 -0.0029 -0.2210 -0.0907
   29SAPC  H17X 3943   1.127   6.068   8.455  0.3451 -1.1276 -0.6241
   29SAPC  H17Y 3944   1.175   6.227   8.388 -0.7931 -0.7867 -1.2541
   29SAPC  C318 3945   1.329   6.137   8.508 -0.0400  0.0159  0.0962
   29SAPC  H18X 3946   1.289   6.188   8.598 -1.1433  2.5496 -1.7048
   29SAPC  H18Y 3947   1.402   6.208   8.462  0.6642 -0.8852 -0.2099
   29SAPC  H18Z 3948   1.380   6.040   8.521  0.4998  0.5968  2.7311
   30SAPC     N 3949   2.514   5.018   6.152 -0.3196 -0.1246 -0.2718
   30SAPC   C12 3950   2.550   4.895   6.237 -0.1672  0.6662 -0.0013
   30SAPC  H12A 3951   2.466   4.853   6.290  0.7024  0.6171  1.3960
   30SAPC  H12B 3952   2.607   4.935   6.319 -2.4817  2.3017  0.9153
   30SAPC   C13 3953   2.633   5.093   6.110 -0.0793  0.2283 -0.4513
   30SAPC  H13A 3954   2.605   5.156   6.027 -1.0239 -1.4903 -1.5165
   30SAPC  H13B 3955   2.665   5.157   6.190 -0.1449 -0.3016  0.0004
   30SAPC  H13C 3956   2.714   5.026   6.082  0.4107  1.0647 -1.0716
   30SAPC   C14 3957   2.435   4.977   6.032  0.6908  0.4615  0.2289
   30SAPC  H14A 3958   2.483   4.895   5.981 -0.1025 -0.6712  1.2700
   30SAPC  H14B 3959   2.334   4.950   6.058  0.3566 -1.0067 -2.2874
   30SAPC  H14C 3960   2.419   5.059   5.963 -0.6911  0.0983  0.0939
   30SAPC   C15 3961   2.434   5.108   6.237 -1.0200 -0.4203 -0.7017
   30SAPC  H15A 3962   2.495   5.162   6.308  0.5594 -0.9889 -1.5703
   30SAPC  H15B 3963   2.388   5.187   6.180 -0.8001  0.3701  0.1860
   30SAPC  H15C 3964   2.348   5.060   6.281 -2.2681  0.7296 -1.8002
   30SAPC   C11 3965   2.629   4.775   6.175  0.2669  0.0955 -0.2206
   30SAPC  H11A 3966   2.596   4.758   6.070  0.1225 -1.2017  0.0150
   30SAPC  H11B 3967   2.610   4.684   6.237  0.9585 -2.0997 -3.0233
   30SAPC     P 3968   2.882   4.723   6.218  0.0265  0.3878 -0.1335
   30SAPC   O13 3969   2.845   4.584   6.204 -0.1267  0.3917  0.1734
   30SAPC   O14 3970   3.003   4.773   6.150 -0.0682 -0.2732 -0.0247
   30SAPC   O12 3971   2.763   4.816   6.173 -0.8658  0.3628 -0.0682
   30SAPC   O11 3972   2.887   4.762   6.371 -0.1618  0.2407  0.2211
   30SAPC    C1 3973   2.907   4.899   6.411  0.1785 -0.3690 -0.2843
   30SAPC    HA 3974   3.001   4.943   6.371 -0.3783 -1.5067 -3.0932
   30SAPC    HB 3975   2.837   4.968   6.360  2.2519 -0.0111 -2.8660
   30SAPC    C2 3976   2.911   4.917   6.566  0.0121 -0.2702  0.0895
   30SAPC    HS 3977   2.914   5.026   6.587 -2.1817  0.1262 -1.3174
   30SAPC   O21 3978   3.026   4.855   6.614  0.3096  0.6066  0.5058
   30SAPC   C21 3979   3.135   4.925   6.608 -0.3837  0.0192 -0.1253
   30SAPC   O22 3980   3.150   5.032   6.554  0.3017 -0.3781  0.3977
   30SAPC   C22 3981   3.246   4.846   6.678  0.7151  0.8895  0.2226
   30SAPC   H2R 3982   3.230   4.840   6.788  3.1612 -3.7562  0.5662
   30SAPC   H2S 3983   3.244   4.740   6.645  0.1564  1.2874 -1.0641
   30SAPC    C3 3984   2.786   4.852   6.620 -0.1762 -0.1619 -0.0617
   30SAPC    HX 3985   2.794   4.748   6.582  2.3558  0.1371 -0.4962
   30SAPC    HY 3986   2.701   4.894   6.562 -1.3923  0.2226  1.9049
   30SAPC   O31 3987   2.775   4.861   6.768 -0.1081  0.4411  0.2701
   30SAPC   C31 3988   2.733   4.987   6.803  0.4074 -0.8791  0.3248
   30SAPC   O32 3989   2.707   5.080   6.730  0.1597  0.2243  0.3023
   30SAPC   C32 3990   2.710   4.988   6.949 -0.2931 -0.1604  0.2150
   30SAPC   H2X 3991   2.644   4.900   6.969 -1.2798  0.6659  0.7034
   30SAPC   H2Y 3992   2.660   5.084   6.975 -1.0221  1.0645 -4.7515
   30SAPC   C23 3993   3.392   4.909   6.667  0.7026 -0.3153 -0.4645
   30SAPC   H3R 3994   3.391   5.003   6.726  0.1910 -1.2015  0.9817
   30SAPC   H3S 3995   3.410   4.940   6.561  1.0073  0.5434 -0.1746
   30SAPC   C24 3996   3.513   4.815   6.696 -0.2622  0.7134 -0.5339
   30SAPC   H4R 3997   3.535   4.752   6.607 -0.1121 -0.6747  0.4621
   30SAPC   H4S 3998   3.478   4.752   6.780  0.2608  1.0236 -0.0750
   30SAPC   C25 3999   3.624   4.900   6.731 -0.2845  0.3338 -0.0719
   30SAPC   H5R 4000   3.630   4.989   6.667 -2.5180 -0.3416 -1.3149
   30SAPC   C26 4001   3.700   4.886   6.843 -0.6734  0.3935  0.0956
   30SAPC   H6R 4002   3.776   4.965   6.850 -1.5740  1.4568 -1.4324
   30SAPC   C27 4003   3.697   4.787   6.955  0.1182  0.0808  0.7101
   30SAPC   H7R 4004   3.805   4.772   6.978  0.7318  0.8721 -1.4444
   30SAPC   H7S 4005   3.653   4.695   6.911 -1.6300  0.4501  1.5836
   30SAPC   C28 4006   3.604   4.841   7.061 -0.2429  0.1912  0.4343
   30SAPC   H8R 4007   3.508   4.880   7.024 -1.4409 -1.7820  1.3451
   30SAPC   C29 4008   3.627   4.839   7.195  0.5403 -0.2883 -0.0972
   30SAPC   H9R 4009   3.543   4.867   7.260  0.1749  2.0549 -1.4308
   30SAPC  C210 4010   3.749   4.784   7.262  0.0158 -0.8086  0.1522
   30SAPC  H10R 4011   3.816   4.717   7.204 -0.5830 -0.1273 -1.3767
   30SAPC  H10S 4012   3.709   4.719   7.343 -0.2433  0.4920  1.1071
   30SAPC  C211 4013   3.824   4.905   7.327  0.1620 -0.8656  0.4379
   30SAPC  H11R 4014   3.868   4.974   7.253  0.2240 -0.7655  0.5691
   30SAPC  C212 4015   3.850   4.933   7.458 -0.1881 -0.6191  0.2849
   30SAPC  H12R 4016   3.905   5.026   7.478  0.5140 -1.1378  0.7726
   30SAPC  C213 4017   3.814   4.852   7.581  0.3313 -0.3277  0.0293
   30SAPC  H13R 4018   3.897   4.801   7.634 -2.2761 -1.9333  2.8811
   30SAPC  H13S 4019   3.739   4.776   7.551 -1.1200  0.6649  1.0269
   30SAPC  C214 4020   3.747   4.939   7.681  0.2756 -0.6281  0.4859
   30SAPC  H14R 4021   3.643   4.957   7.652  0.1323 -2.2134 -0.0635
   30SAPC  C215 4022   3.796   4.995   7.791 -0.0988 -0.2132 -1.0328
   30SAPC  H15R 4023   3.725   5.058   7.847 -0.6533  0.2589 -2.2227
   30SAPC  C216 4024   3.933   4.969   7.846 -0.4194 -0.3806  0.1938
   30SAPC  H16R 4025   3.992   5.059   7.819  0.9010 -1.0823  0.6493
   30SAPC  H16S 4026   3.969   4.872   7.804 -0.6545  0.7122 -2.7424
   30SAPC  C217 4027   3.917   4.947   7.998  0.0369 -0.5602  0.7521
   30SAPC  H17R 4028   3.838   4.874   8.025 -0.1227 -0.3469  0.8597
   30SAPC  H17S 4029   3.906   5.038   8.060  0.8889 -0.3929  0.6777
   30SAPC  C218 4030   4.047   4.888   8.057 -0.3972 -0.5774 -0.5517
   30SAPC  H18R 4031   4.128   4.963   8.051 -0.2749 -0.6124  0.5562
   30SAPC  H18S 4032   4.071   4.803   7.989  0.3227 -0.4048 -0.5158
   30SAPC  C219 4033   4.027   4.853   8.205 -0.1976  0.1421  0.1646
   30SAPC  H19R 4034   3.954   4.770   8.212  1.9729 -2.1221 -1.9008
   30SAPC  H19S 4035   3.998   4.946   8.259  3.4121  0.9127  1.0014
   30SAPC  C220 4036   4.164   4.823   8.263  0.8781 -0.3222  0.2798
   30SAPC  H20R 4037   4.160   4.773   8.362  2.0171  1.0956  1.0694
   30SAPC  H20S 4038   4.219   4.918   8.273  0.3661 -0.0007  0.0646
   30SAPC  H20T 4039   4.226   4.754   8.201  0.8640 -0.2555  0.1907
   30SAPC   C33 4040   2.831   4.957   7.043 -0.2091  0.2550  0.3525
   30SAPC   H3X 4041   2.905   5.039   7.027 -0.8698  0.4238 -2.2355
   30SAPC   H3Y 4042   2.881   4.863   7.011  2.0653  0.2188  3.4831
   30SAPC   C34 4043   2.782   4.954   7.187  0.2907  0.6931 -0.3827
   30SAPC   H4X 4044   2.697   4.883   7.194 -0.2077  0.7950 -3.7051
   30SAPC   H4Y 4045   2.735   5.053   7.204 -1.9604 -0.6305  1.6517
   30SAPC   C35 4046   2.896   4.919   7.288 -0.4050 -0.0525  0.6582
   30SAPC   H5X 4047   2.982   4.989   7.277  1.5256 -2.3083  0.3802
   30SAPC   H5Y 4048   2.930   4.817   7.257 -0.6985 -0.3686  1.3673
   30SAPC   C36 4049   2.857   4.919   7.439  0.1995 -0.1602  0.9739
   30SAPC   H6X 4050   2.765   4.859   7.451 -0.7844  1.1892  0.4872
   30SAPC   H6Y 4051   2.835   5.017   7.486 -1.5552 -1.2688  2.5638
   30SAPC   C37 4052   2.970   4.852   7.518 -0.3293  0.1808 -0.8149
   30SAPC   H7X 4053   3.069   4.899   7.502  0.0910  0.2359  1.5244
   30SAPC   H7Y 4054   2.980   4.747   7.484 -2.8629  0.1248 -1.5733
   30SAPC   C38 4055   2.949   4.868   7.675  0.3915  0.3816  0.0573
   30SAPC   H8X 4056   2.847   4.825   7.686  0.0396  0.3853 -2.4090
   30SAPC   H8Y 4057   2.954   4.976   7.702 -0.9724  0.3759  0.4335
   30SAPC   C39 4058   3.059   4.783   7.741  0.8324 -0.2877 -0.0162
   30SAPC   H9X 4059   3.150   4.836   7.706  0.6887 -0.2558 -0.3550
   30SAPC   H9Y 4060   3.053   4.685   7.689 -1.6987  0.6625 -1.7401
   30SAPC  C310 4061   3.040   4.783   7.894  0.1786 -0.5560  0.3808
   30SAPC  H10X 4062   3.059   4.885   7.933 -1.1874  0.1488 -0.7030
   30SAPC  H10Y 4063   3.119   4.717   7.936  0.5557 -0.3599 -0.0255
   30SAPC  C311 4064   2.903   4.728   7.940 -0.1246 -0.4188 -0.3619
   30SAPC  H11X 4065   2.913   4.622   7.908  0.1841 -0.0140 -1.6797
   30SAPC  H11Y 4066   2.811   4.764   7.888 -0.7903  1.6194  2.0418
   30SAPC  C312 4067   2.873   4.733   8.088 -0.2612 -0.2352  0.1781
   30SAPC  H12X 4068   2.960   4.692   8.145 -1.1990 -2.6133  0.0035
   30SAPC  H12Y 4069   2.789   4.661   8.094  1.5422 -2.6005 -1.4807
   30SAPC  C313 4070   2.835   4.876   8.134 -0.3832  0.3007 -0.5827
   30SAPC  H13X 4071   2.757   4.899   8.058 -0.2060 -2.5812 -1.7544
   30SAPC  H13Y 4072   2.916   4.950   8.116 -0.3550  0.2430 -0.6911
   30SAPC  C314 4073   2.778   4.888   8.270  0.7643  0.4448 -0.3377
   30SAPC  H14X 4074   2.700   4.812   8.295 -0.5654  2.2885  1.4076
   30SAPC  H14Y 4075   2.724   4.984   8.278 -1.8036 -0.9210 -0.1047
   30SAPC  C315 4076   2.899   4.872   8.365 -0.0912 -1.2846 -0.6430
   30SAPC  H15X 4077   2.980   4.944   8.340 -1.3690 -0.2810 -2.0787
   30SAPC  H15Y 4078   2.953   4.776   8.353  0.9644 -1.2834  2.8709
   30SAPC  C316 4079   2.870   4.891   8.517  0.0160 -0.2141  0.7442
   30SAPC  H16X 4080   2.798   4.807   8.531  1.2918 -1.3224  0.8458
   30SAPC  H16Y 4081   2.816   4.988   8.521  0.8358  0.3348 -0.7476
   30SAPC  C317 4082   2.989   4.888   8.608 -0.5535  0.4774 -0.4359
   30SAPC  H17X 4083   3.053   4.972   8.573 -0.2572  0.8019  0.8247
   30SAPC  H17Y 4084   3.045   4.793   8.596 -0.4528  0.1066  2.3761
   30SAPC  C318 4085   2.963   4.910   8.750  0.1330  0.9091 -0.1029
   30SAPC  H18X 4086   3.048   4.885   8.816 -0.5044 -0.4499  0.2333
   30SAPC  H18Y 4087   2.879   4.842   8.779  0.2956  0.8346  0.1959
   30SAPC  H18Z 4088   2.946   5.018   8.772  0.4748  0.6517  1.5882
   31SAPC     N 4089   0.016   0.334   6.299 -0.6754  0.4113 -0.5924
   31SAPC   C12 4090   0.097   0.230   6.374 -0.4376  0.4005  0.3149
   31SAPC  H12A 4091   0.035   0.205   6.459 -1.0225  1.8046  0.3256
   31SAPC  H12B 4092   0.193   0.261   6.412  0.2805 -1.1609 -0.1074
   31SAPC   C13 4093  -0.114   0.286   6.250  0.0438  0.0542  0.1201
   31SAPC  H13A 4094  -0.188   0.268   6.326 -1.5555  1.2202 -1.0939
   31SAPC  H13B 4095  -0.160   0.358   6.184 -0.0479  1.0908  1.2826
   31SAPC  H13C 4096  -0.100   0.194   6.194 -0.0139  0.8348 -1.2104
   31SAPC   C14 4097  -0.011   0.454   6.380  0.0283 -1.0597 -0.0475
   31SAPC  H14A 4098  -0.066   0.525   6.320 -1.3712 -1.2758  0.9232
   31SAPC  H14B 4099  -0.077   0.433   6.463  0.0402 -0.1135  0.2160
   31SAPC  H14C 4100   0.076   0.499   6.427 -1.3526  0.5020  1.1232
   31SAPC   C15 4101   0.087   0.378   6.183 -0.1494  0.2001  0.7772
   31SAPC  H15A 4102   0.058   0.468   6.131  1.2040 -0.8196 -1.9221
   31SAPC  H15B 4103   0.187   0.409   6.211  0.3132  1.2449 -1.7510
   31SAPC  H15C 4104   0.087   0.302   6.106  1.1281 -0.3203  1.2452
   31SAPC   C11 4105   0.136   0.106   6.293  0.0264  0.2743  0.1016
   31SAPC  H11A 4106   0.186   0.037   6.364 -0.7745 -1.8185 -1.2673
   31SAPC  H11B 4107   0.207   0.136   6.212  0.6991 -0.2619  0.4792
   31SAPC     P 4108  -0.041  -0.074   6.308  0.1935  0.0243 -0.3655
   31SAPC   O13 4109  -0.159  -0.115   6.232  0.7848 -0.1026  0.7393
   31SAPC   O14 4110   0.055  -0.179   6.343  0.2770  0.2135 -0.2810
   31SAPC   O12 4111   0.025   0.042   6.226  0.9223  0.3581 -0.1270
   31SAPC   O11 4112  -0.085  -0.005   6.444 -0.4690 -0.0853 -0.2543
   31SAPC    C1 4113  -0.202   0.063   6.479 -0.3351  0.9165 -0.5598
   31SAPC    HA 4114  -0.185   0.173   6.489  1.0307  0.6077  0.8598
   31SAPC    HB 4115  -0.269   0.043   6.392  1.7705 -0.5510 -1.9387
   31SAPC    C2 4116  -0.257   0.016   6.615 -0.2875  0.0081 -0.8994
   31SAPC    HS 4117  -0.360   0.057   6.624 -1.4481 -2.6355 -1.1905
   31SAPC   O21 4118  -0.168   0.066   6.714 -0.3436 -0.0006  0.1035
   31SAPC   C21 4119  -0.222   0.095   6.836 -0.2903 -0.6743 -0.0786
   31SAPC   O22 4120  -0.342   0.123   6.857 -0.0567  0.4258 -0.1307
   31SAPC   C22 4121  -0.113   0.084   6.946  0.5353  0.0670  0.1849
   31SAPC   H2R 4122  -0.019   0.061   6.892  0.4663 -0.0444  0.1129
   31SAPC   H2S 4123  -0.098   0.187   6.986 -3.8511  2.4206 -3.3491
   31SAPC    C3 4124  -0.289  -0.136   6.627  0.0466 -0.5078  0.1217
   31SAPC    HX 4125  -0.192  -0.187   6.609  0.0517  0.0497 -1.6874
   31SAPC    HY 4126  -0.366  -0.167   6.553 -1.0505 -0.7989  1.3482
   31SAPC   O31 4127  -0.332  -0.166   6.764  0.3528  0.5541 -0.1698
   31SAPC   C31 4128  -0.462  -0.168   6.789 -0.4160  0.6391  0.2574
   31SAPC   O32 4129  -0.548  -0.157   6.700  0.2653  0.0751 -0.0263
   31SAPC   C32 4130  -0.483  -0.194   6.938  0.4481 -0.4343 -0.4339
   31SAPC   H2X 4131  -0.512  -0.098   6.987  3.6544 -0.3066  1.5506
   31SAPC   H2Y 4132  -0.382  -0.218   6.978  0.5827  0.8200  0.0494
   31SAPC   C23 4133  -0.135  -0.027   7.047 -0.1144  0.0797  0.4563
   31SAPC   H3R 4134  -0.035  -0.037   7.093  0.4666  1.6433 -0.3936
   31SAPC   H3S 4135  -0.153  -0.125   6.996  1.4896 -1.1567  2.1393
   31SAPC   C24 4136  -0.255   0.006   7.138  0.1472 -0.0392 -0.0668
   31SAPC   H4R 4137  -0.353   0.006   7.085 -0.2516 -0.8441  0.6510
   31SAPC   H4S 4138  -0.251   0.106   7.186 -0.3962 -1.1246  2.3779
   31SAPC   C25 4139  -0.257  -0.116   7.233 -0.0878 -0.1103  0.2637
   31SAPC   H5R 4140  -0.254  -0.217   7.188 -1.6055 -1.2898  2.6102
   31SAPC   C26 4141  -0.251  -0.105   7.364 -1.0038 -0.0984  0.3378
   31SAPC   H6R 4142  -0.263  -0.202   7.416 -0.6452  0.1671  0.9175
   31SAPC   C27 4143  -0.256   0.023   7.449 -1.0087  0.1830 -0.2765
   31SAPC   H7R 4144  -0.296   0.104   7.385  1.6244  0.5468 -1.6035
   31SAPC   H7S 4145  -0.153   0.056   7.473  0.4213 -1.2102 -3.7787
   31SAPC   C28 4146  -0.334  -0.008   7.575  0.4320 -0.2284 -0.8018
   31SAPC   H8R 4147  -0.434  -0.053   7.561 -0.3478  0.7770  1.1771
   31SAPC   C29 4148  -0.283  -0.005   7.699 -0.8683 -0.8360 -0.0047
   31SAPC   H9R 4149  -0.351  -0.031   7.781  0.7078 -1.1631  1.2379
   31SAPC  C210 4150  -0.144   0.037   7.728  0.4537 -0.1090  0.1203
   31SAPC  H10R 4151  -0.142   0.148   7.731 -2.8349  0.1164 -1.8907
   31SAPC  H10S 4152  -0.066   0.005   7.656  2.2435  2.2108  0.9061
   31SAPC  C211 4153  -0.096   0.001   7.868  0.8490 -0.5466  0.2894
   31SAPC  H11R 4154  -0.047  -0.097   7.878 -1.3533 -1.6552  0.8361
   31SAPC  C212 4155  -0.099   0.092   7.978  0.5612  0.4707 -0.3014
   31SAPC  H12R 4156  -0.060   0.055   8.074  2.5741 -1.2642 -1.6890
   31SAPC  C213 4157  -0.165   0.224   7.985 -0.5394 -0.0892 -0.5136
   31SAPC  H13R 4158  -0.236   0.238   7.900 -0.6446  0.0835 -0.3982
   31SAPC  H13S 4159  -0.085   0.300   7.976  0.1057 -0.6964  0.0246
   31SAPC  C214 4160  -0.244   0.253   8.111  0.3356  0.2405 -0.2052
   31SAPC  H14R 4161  -0.343   0.207   8.114  0.9390 -1.0558  1.1373
   31SAPC  C215 4162  -0.193   0.292   8.230 -0.0563 -0.0779 -0.1181
   31SAPC  H15R 4163  -0.251   0.329   8.315 -0.2853  1.4296 -0.8830
   31SAPC  C216 4164  -0.047   0.313   8.256  0.2382  0.1013 -0.0177
   31SAPC  H16R 4165   0.014   0.298   8.164 -0.0641  0.3055 -0.2543
   31SAPC  H16S 4166  -0.013   0.243   8.335 -1.6733 -1.2159 -0.2948
   31SAPC  C217 4167  -0.028   0.457   8.315  0.5660 -0.3704 -0.1485
   31SAPC  H17R 4168  -0.065   0.532   8.241  2.4088  1.8628  1.0733
   31SAPC  H17S 4169   0.080   0.475   8.334  0.0767  1.3417  1.2136
   31SAPC  C218 4170  -0.093   0.476   8.454  0.1192 -0.2690  0.2954
   31SAPC  H18R 4171  -0.046   0.401   8.521 -2.0882 -1.0237  1.0707
   31SAPC  H18S 4172  -0.204   0.474   8.454  0.0651  0.7252 -1.5372
   31SAPC  C219 4173  -0.059   0.605   8.519 -0.2510 -0.5982  0.4471
   31SAPC  H19R 4174   0.051   0.618   8.525 -0.4002 -0.2020  3.4298
   31SAPC  H19S 4175  -0.094   0.601   8.624  1.6812  1.6924  1.2403
   31SAPC  C220 4176  -0.126   0.730   8.447 -0.0109 -0.4824 -0.1726
   31SAPC  H20R 4177  -0.107   0.822   8.507 -0.1703 -1.4174  1.3650
   31SAPC  H20S 4178  -0.232   0.697   8.449  0.5650 -2.5236 -1.0141
   31SAPC  H20T 4179  -0.078   0.757   8.350  2.0568  0.8231  1.1340
   31SAPC   C33 4180  -0.594  -0.298   6.958  0.4014 -0.6652 -0.4075
   31SAPC   H3X 4181  -0.540  -0.394   6.973  0.4137 -0.6171 -0.1479
   31SAPC   H3Y 4182  -0.659  -0.298   6.867  1.8368 -0.6152 -1.4568
   31SAPC   C34 4183  -0.677  -0.275   7.089 -0.4630  0.3349  0.7875
   31SAPC   H4X 4184  -0.763  -0.341   7.111  0.7428 -1.7869 -0.4907
   31SAPC   H4Y 4185  -0.728  -0.176   7.077 -3.5531 -1.2329 -0.0579
   31SAPC   C35 4186  -0.598  -0.274   7.222  0.7031 -0.6225 -0.4841
   31SAPC   H5X 4187  -0.521  -0.194   7.219  1.8613 -1.6851 -0.0952
   31SAPC   H5Y 4188  -0.546  -0.369   7.248 -1.7246 -1.3259  2.3405
   31SAPC   C36 4189  -0.688  -0.236   7.350  0.0395  0.2781 -0.6019
   31SAPC   H6X 4190  -0.774  -0.306   7.347  1.6000 -1.6960 -1.8554
   31SAPC   H6Y 4191  -0.734  -0.135   7.342  0.5772  0.7000  1.1408
   31SAPC   C37 4192  -0.623  -0.251   7.492 -0.5965  0.1562 -0.0984
   31SAPC   H7X 4193  -0.520  -0.210   7.492 -0.3634 -0.3982 -0.7006
   31SAPC   H7Y 4194  -0.612  -0.362   7.498 -0.6110  0.1463 -0.2399
   31SAPC   C38 4195  -0.703  -0.196   7.606  0.0104 -0.6061 -0.5053
   31SAPC   H8X 4196  -0.796  -0.256   7.610  0.7085 -1.9126 -2.2090
   31SAPC   H8Y 4197  -0.725  -0.088   7.589  0.0842 -0.3681  0.8323
   31SAPC   C39 4198  -0.627  -0.214   7.736 -0.4384  0.4290  0.5124
   31SAPC   H9X 4199  -0.532  -0.156   7.738  0.6437 -1.2382 -0.1856
   31SAPC   H9Y 4200  -0.599  -0.322   7.741  0.6252  0.6066 -0.8632
   31SAPC  C310 4201  -0.709  -0.176   7.852 -0.0028  0.1134 -0.6407
   31SAPC  H10X 4202  -0.728  -0.067   7.861 -0.6105 -0.0846  0.7956
   31SAPC  H10Y 4203  -0.646  -0.203   7.940  0.3416  0.8590 -0.6524
   31SAPC  C311 4204  -0.842  -0.247   7.883 -0.3288  0.0515 -0.1881
   31SAPC  H11X 4205  -0.817  -0.356   7.885  1.8942  0.5087 -0.4473
   31SAPC  H11Y 4206  -0.914  -0.228   7.800 -1.7593 -0.1693  0.9628
   31SAPC  C312 4207  -0.896  -0.203   8.018 -0.0924  0.8026 -0.0572
   31SAPC  H12X 4208  -1.000  -0.239   8.038  0.7178 -0.4584  2.2488
   31SAPC  H12Y 4209  -0.908  -0.093   8.013 -1.1478  0.6746 -0.8694
   31SAPC  C313 4210  -0.813  -0.255   8.139  0.8412  0.0598  0.5698
   31SAPC  H13X 4211  -0.710  -0.212   8.133  0.8955 -0.2035 -0.7424
   31SAPC  H13Y 4212  -0.797  -0.363   8.122  2.1288 -0.0316  2.0391
   31SAPC  C314 4213  -0.865  -0.227   8.281 -0.8757  0.5231  0.9804
   31SAPC  H14X 4214  -0.958  -0.283   8.305 -1.0498  0.8680  1.1216
   31SAPC  H14Y 4215  -0.883  -0.117   8.286 -1.8579  0.3365  1.9256
   31SAPC  C315 4216  -0.762  -0.264   8.385 -0.6473 -0.0214 -0.0728
   31SAPC  H15X 4217  -0.658  -0.237   8.354 -1.5896  3.6444 -0.5534
   31SAPC  H15Y 4218  -0.756  -0.374   8.396 -0.1284  0.0435  0.3225
   31SAPC  C316 4219  -0.785  -0.206   8.525 -0.7011 -0.8123 -0.5210
   31SAPC  H16X 4220  -0.883  -0.244   8.561 -1.3959 -1.1418 -2.6625
   31SAPC  H16Y 4221  -0.792  -0.096   8.516  3.1521 -0.5765 -2.6922
   31SAPC  C317 4222  -0.678  -0.248   8.632  0.5088 -0.0302  0.0691
   31SAPC  H17X 4223  -0.711  -0.348   8.668 -2.8739 -0.5242 -3.6435
   31SAPC  H17Y 4224  -0.693  -0.185   8.722 -1.5582 -2.9777  1.9843
   31SAPC  C318 4225  -0.531  -0.253   8.586 -0.1606  0.1124 -1.2129
   31SAPC  H18X 4226  -0.508  -0.153   8.545  0.3398  0.4227 -0.2209
   31SAPC  H18Y 4227  -0.505  -0.337   8.518 -1.0531 -1.9651  0.8523
   31SAPC  H18Z 4228  -0.462  -0.249   8.674 -2.6362  0.0983  0.8511
   32SAPC     N 4229   3.807   0.708   5.742 -0.2485  0.4721  0.4639
   32SAPC   C12 4230   3.705   0.686   5.854  0.1757  0.3113 -0.4952
   32SAPC  H12A 4231   3.664   0.586   5.865 -0.1169  0.6679  2.5129
   32SAPC  H12B 4232   3.617   0.746   5.840  0.0323 -0.0662 -1.2858
   32SAPC   C13 4233   3.746   0.656   5.612 -0.1938 -0.1990 -0.4606
   32SAPC  H13A 4234   3.643   0.687   5.606 -0.1954  0.6438  2.5196
   32SAPC  H13B 4235   3.791   0.705   5.526  2.3396 -1.4347  0.0628
   32SAPC  H13C 4236   3.752   0.548   5.607  1.5138 -0.2113  0.9563
   32SAPC   C14 4237   3.840   0.855   5.734 -0.4481  0.1512 -1.0233
   32SAPC  H14A 4238   3.936   0.879   5.692  0.4401  1.1316  1.3854
   32SAPC  H14B 4239   3.764   0.913   5.683 -0.7979  0.2719 -0.3864
   32SAPC  H14C 4240   3.846   0.896   5.834 -1.4584  3.7696 -2.2653
   32SAPC   C15 4241   3.936   0.625   5.756 -0.2641 -0.7077 -0.5054
   32SAPC  H15A 4242   4.020   0.683   5.721 -0.7721  1.4967  1.6434
   32SAPC  H15B 4243   3.945   0.615   5.864 -3.7151 -0.7004 -0.1190
   32SAPC  H15C 4244   3.934   0.525   5.714  1.5210 -1.1338  0.2951
   32SAPC   C11 4245   3.756   0.708   5.993  0.2293 -0.0871  0.2753
   32SAPC  H11A 4246   3.790   0.814   6.003 -0.2817  0.0914  0.1342
   32SAPC  H11B 4247   3.854   0.659   6.009  0.2769 -0.3092 -0.6438
   32SAPC     P 4248   3.563   0.757   6.158 -0.1619  0.4323 -0.1817
   32SAPC   O13 4249   3.490   0.840   6.059 -0.1682  0.3490 -0.2365
   32SAPC   O14 4250   3.482   0.661   6.242 -0.3651  0.4349  0.5718
   32SAPC   O12 4251   3.657   0.658   6.076  0.0167  0.2351 -0.2883
   32SAPC   O11 4252   3.653   0.842   6.251 -0.1098  0.2514 -0.4198
   32SAPC    C1 4253   3.602   0.977   6.286 -0.3950  0.1941 -0.0396
   32SAPC    HA 4254   3.653   1.064   6.238 -0.2997  0.9989  1.4427
   32SAPC    HB 4255   3.494   0.991   6.268 -0.5750  0.2588  1.0082
   32SAPC    C2 4256   3.605   0.985   6.438 -0.0203 -1.0122  0.3263
   32SAPC    HS 4257   3.547   1.075   6.470  0.9143  0.4210 -1.7857
   32SAPC   O21 4258   3.738   0.997   6.485  0.4753 -0.7369  0.1665
   32SAPC   C21 4259   3.756   1.087   6.589 -0.6020  0.0067  0.7924
   32SAPC   O22 4260   3.668   1.148   6.648  0.0749  0.0662 -0.0947
   32SAPC   C22 4261   3.905   1.102   6.625 -0.5685 -0.6661  0.6493
   32SAPC   H2R 4262   3.970   1.013   6.613  1.4118  0.8800 -0.9183
   32SAPC   H2S 4263   3.954   1.184   6.568 -3.3083  0.6848  0.0739
   32SAPC    C3 4264   3.537   0.867   6.509  0.4113  1.1872 -1.0568
   32SAPC    HX 4265   3.593   0.771   6.504 -1.4099 -0.1307  1.5939
   32SAPC    HY 4266   3.448   0.836   6.451  0.6525  0.4875 -1.0699
   32SAPC   O31 4267   3.508   0.885   6.648  0.2613 -0.4209  0.1197
   32SAPC   C31 4268   3.391   0.943   6.675  0.6020 -1.0059 -0.4862
   32SAPC   O32 4269   3.301   0.958   6.598 -0.1104 -0.3352  0.2900
   32SAPC   C32 4270   3.390   0.959   6.829  0.0666  0.2829  0.1723
   32SAPC   H2X 4271   3.447   1.051   6.855 -0.6978  0.8289 -0.0476
   32SAPC   H2Y 4272   3.445   0.872   6.872 -1.8014 -0.8666  0.3332
   32SAPC   C23 4273   3.923   1.145   6.777 -0.1147 -0.2228  0.5804
   32SAPC   H3R 4274   3.852   1.227   6.800  1.0703  1.1454 -0.4440
   32SAPC   H3S 4275   4.025   1.182   6.797  0.5552 -1.4947 -0.2873
   32SAPC   C24 4276   3.920   1.022   6.876  0.2387 -0.3338  0.1044
   32SAPC   H4R 4277   3.968   1.043   6.974 -2.7348  0.8818  1.4151
   32SAPC   H4S 4278   3.969   0.938   6.821  0.2384 -0.5949  0.5038
   32SAPC   C25 4279   3.779   0.978   6.895  0.1906  0.2207 -0.5633
   32SAPC   H5R 4280   3.740   0.922   6.809 -1.7533  0.7294 -0.0614
   32SAPC   C26 4281   3.700   1.003   7.006 -0.2940  0.7246 -0.3021
   32SAPC   H6R 4282   3.594   0.976   7.016  0.1841 -0.5082  2.1895
   32SAPC   C27 4283   3.744   1.076   7.135 -0.2539  0.1227  0.4640
   32SAPC   H7R 4284   3.852   1.101   7.133 -0.3022  0.3878  1.0764
   32SAPC   H7S 4285   3.727   1.018   7.228 -1.1339 -2.4535 -1.2023
   32SAPC   C28 4286   3.693   1.215   7.123  0.7987 -0.8394 -0.6117
   32SAPC   H8R 4287   3.685   1.279   7.034  0.1840 -0.1801 -0.0961
   32SAPC   C29 4288   3.629   1.278   7.229 -0.0406 -0.2468 -0.0759
   32SAPC   H9R 4289   3.589   1.381   7.223  0.1913 -0.2318 -2.3550
   32SAPC  C210 4290   3.615   1.213   7.371  0.3593 -0.3348  0.5243
   32SAPC  H10R 4291   3.714   1.178   7.408 -0.5908 -2.9144  0.8762
   32SAPC  H10S 4292   3.539   1.133   7.361  0.5553 -0.3300 -1.1518
   32SAPC  C211 4293   3.581   1.324   7.477 -0.0463  0.3590  0.0626
   32SAPC  H11R 4294   3.646   1.413   7.475  1.4918 -0.7359 -0.7092
   32SAPC  C212 4295   3.494   1.316   7.574 -0.5227 -0.2964 -0.4318
   32SAPC  H12R 4296   3.473   1.394   7.648 -1.2509 -0.4156 -0.5093
   32SAPC  C213 4297   3.399   1.198   7.598 -0.8873  0.1106 -0.7171
   32SAPC  H13R 4298   3.400   1.168   7.705  3.5026 -3.3008 -1.4135
   32SAPC  H13S 4299   3.442   1.104   7.558  0.6708 -0.9743  3.0231
   32SAPC  C214 4300   3.265   1.197   7.540  0.4601  0.5586  0.7469
   32SAPC  H14R 4301   3.252   1.276   7.465 -0.2714  0.3585  0.6526
   32SAPC  C215 4302   3.156   1.121   7.563  0.0605  0.4755  0.5114
   32SAPC  H15R 4303   3.065   1.137   7.503 -1.6150 -2.2737  2.0810
   32SAPC  C216 4304   3.157   1.007   7.668  0.3293 -0.8638  0.2050
   32SAPC  H16R 4305   3.261   0.968   7.676  1.2033  1.1937 -0.2671
   32SAPC  H16S 4306   3.086   0.926   7.642 -0.5810 -0.6477  1.8663
   32SAPC  C217 4307   3.119   1.069   7.803  0.7405 -0.2087  0.4122
   32SAPC  H17R 4308   3.017   1.107   7.783  1.0232  1.0688  1.2348
   32SAPC  H17S 4309   3.182   1.156   7.831  1.4306 -0.1728 -1.1508
   32SAPC  C218 4310   3.105   0.967   7.913  0.0965  0.7094 -0.0473
   32SAPC  H18R 4311   3.036   0.883   7.893  1.6611 -0.3107 -1.3942
   32SAPC  H18S 4312   3.065   1.024   7.999 -0.6722  0.2474 -0.0909
   32SAPC  C219 4313   3.235   0.905   7.976  0.0074 -0.7533  0.0814
   32SAPC  H19R 4314   3.304   0.868   7.897  0.4169  0.0110  0.0733
   32SAPC  H19S 4315   3.197   0.830   8.049  1.2645  0.8477  2.5544
   32SAPC  C220 4316   3.311   1.011   8.055 -0.2947  0.3001 -0.6950
   32SAPC  H20R 4317   3.333   1.088   7.978 -1.0127 -0.8229 -2.0675
   32SAPC  H20S 4318   3.406   0.973   8.098 -1.5822 -1.7082  0.5272
   32SAPC  H20T 4319   3.247   1.067   8.127 -1.2163  1.8046 -2.5804
   32SAPC   C33 4320   3.256   0.959   6.894  0.1747  0.6728  0.5927
   32SAPC   H3X 4321   3.201   0.865   6.871  3.3895 -1.6925  1.8507
   32SAPC   H3Y 4322   3.189   1.037   6.851 -0.1098 -0.5201 -1.2297
   32SAPC   C34 4323   3.269   0.976   7.045  0.5354 -0.6016  0.5808
   32SAPC   H4X 4324   3.165   0.980   7.083  0.4751 -1.2890  0.5138
   32SAPC   H4Y 4325   3.323   1.069   7.070 -1.8921  1.5142 -1.5298
   32SAPC   C35 4326   3.331   0.854   7.116 -0.2583  0.3133  0.5119
   32SAPC   H5X 4327   3.430   0.835   7.069 -1.9855  0.0014 -3.4796
   32SAPC   H5Y 4328   3.266   0.766   7.099 -1.4019  0.6113  2.9645
   32SAPC   C36 4329   3.313   0.872   7.270 -0.5006  0.0648  1.0364
   32SAPC   H6X 4330   3.204   0.893   7.268 -0.3278  1.0571  1.5313
   32SAPC   H6Y 4331   3.368   0.951   7.324 -1.4938 -0.2807  2.6367
   32SAPC   C37 4332   3.338   0.741   7.339 -0.9313  0.4268 -0.1761
   32SAPC   H7X 4333   3.447   0.720   7.330 -0.7141  1.0438  0.7796
   32SAPC   H7Y 4334   3.291   0.655   7.287  0.4828  1.0276 -2.5946
   32SAPC   C38 4335   3.300   0.737   7.488 -0.2900  0.1872  0.0003
   32SAPC   H8X 4336   3.190   0.746   7.496 -0.2562  0.1899  0.4680
   32SAPC   H8Y 4337   3.357   0.814   7.544 -0.8922  1.2342 -0.7930
   32SAPC   C39 4338   3.344   0.609   7.566 -0.1845 -0.5307  0.4782
   32SAPC   H9X 4339   3.454   0.600   7.555 -0.0658 -0.3472  1.4930
   32SAPC   H9Y 4340   3.297   0.518   7.522 -1.1983 -0.6747  1.8025
   32SAPC  C310 4341   3.309   0.621   7.709  0.3993 -0.7204  0.6738
   32SAPC  H10X 4342   3.227   0.555   7.745 -0.6411  0.4984  0.6166
   32SAPC  H10Y 4343   3.290   0.729   7.729  2.2234 -0.1691 -0.3392
   32SAPC  C311 4344   3.423   0.601   7.814  0.3266  0.8226 -0.0683
   32SAPC  H11X 4345   3.380   0.611   7.916  0.6018 -2.0429  0.3929
   32SAPC  H11Y 4346   3.511   0.667   7.796  0.8942  0.7872  2.3260
   32SAPC  C312 4347   3.481   0.458   7.802  0.2584 -0.7738 -0.3188
   32SAPC  H12X 4348   3.519   0.441   7.699  2.5899 -2.3357  0.7272
   32SAPC  H12Y 4349   3.406   0.380   7.827 -1.5012  0.5818 -1.1551
   32SAPC  C313 4350   3.596   0.440   7.894  0.0528  0.0843 -0.1401
   32SAPC  H13X 4351   3.561   0.458   7.998  0.1350 -0.1461 -0.0707
   32SAPC  H13Y 4352   3.668   0.523   7.874 -0.3289  0.9621  1.8553
   32SAPC  C314 4353   3.683   0.314   7.881 -0.1730 -0.1209 -0.4771
   32SAPC  H14X 4354   3.792   0.315   7.902  0.2588 -1.9260 -2.3308
   32SAPC  H14Y 4355   3.692   0.278   7.776  3.3500  0.8567 -0.6533
   32SAPC  C315 4356   3.623   0.217   7.982 -0.0404 -0.6642 -0.6619
   32SAPC  H15X 4357   3.512   0.220   7.977 -0.1459 -2.0223  0.2965
   32SAPC  H15Y 4358   3.656   0.247   8.083  0.9961 -0.0423 -1.1734
   32SAPC  C316 4359   3.656   0.073   7.958 -0.7068 -0.4816  0.3740
   32SAPC  H16X 4360   3.764   0.064   7.983 -0.8010 -0.8726  0.6393
   32SAPC  H16Y 4361   3.632   0.036   7.856  2.0531  0.7154 -0.7997
   32SAPC  C317 4362   3.566   0.006   8.058  0.7573 -0.2085  0.0714
   32SAPC  H17X 4363   3.473  -0.032   8.011  1.0825 -0.4148 -0.4157
   32SAPC  H17Y 4364   3.547   0.075   8.143 -2.0508 -2.1330  1.1584
   32SAPC  C318 4365   3.635  -0.119   8.111  0.0476 -0.3825 -0.5170
   32SAPC  H18X 4366   3.739  -0.087   8.131  0.1532 -0.4133 -1.0121
   32SAPC  H18Y 4367   3.635  -0.207   8.044  2.1483 -0.8406  0.0288
   32SAPC  H18Z 4368   3.592  -0.142   8.211 -2.3532  2.1882 -0.7996
   33POPC     N 4369   3.163   6.590  10.741  0.3447 -0.1186  0.1589
   33POPC   C12 4370   3.066   6.680  10.679  0.1860  0.5975 -0.4107
   33POPC  H12A 4371   3.004   6.721  10.757  0.8250  1.2463 -0.2346
   33POPC  H12B 4372   2.992   6.618  10.630  0.0758 -0.2970  0.8408
   33POPC   C13 4373   3.260   6.665  10.823 -0.3143 -0.1831  0.0280
   33POPC  H13A 4374   3.325   6.601  10.880  2.5485  0.4942 -2.2532
   33POPC  H13B 4375   3.328   6.713  10.754 -0.5147 -2.0501 -1.5735
   33POPC  H13C 4376   3.210   6.726  10.897  2.8360 -0.4978  2.6143
   33POPC   C14 4377   3.079   6.508  10.836 -0.0587 -0.1791  0.0629
   33POPC  H14A 4378   3.021   6.575  10.898 -1.3086 -1.9691  0.9246
   33POPC  H14B 4379   3.005   6.453  10.778  0.6325 -0.0668 -0.9421
   33POPC  H14C 4380   3.149   6.447  10.891  2.9214  1.8131 -1.3017
   33POPC   C15 4381   3.232   6.499  10.643 -0.8959  0.1012  0.5781
   33POPC  H15A 4382   3.161   6.448  10.580  1.2082 -0.0701 -1.7908
   33POPC  H15B 4383   3.294   6.418  10.678  1.6045  2.2239  1.3302
   33POPC  H15C 4384   3.289   6.551  10.567 -1.4014 -2.1346 -1.4429
   33POPC   C11 4385   3.122   6.790  10.579  0.2256 -0.1502 -0.1438
   33POPC  H11A 4386   3.029   6.844  10.550 -0.8270 -1.7673  0.0811
   33POPC  H11B 4387   3.159   6.731  10.493 -1.2402 -1.3824  0.0226
   33POPC     P 4388   3.201   7.027  10.666 -0.0909 -0.5142  0.0038
   33POPC   O13 4389   3.332   7.093  10.664  0.1270 -0.2638  0.0900
   33POPC   O14 4390   3.112   7.052  10.781 -0.3820 -0.0608  0.1417
   33POPC   O12 4391   3.220   6.876  10.631  0.0552 -0.4719  0.0700
   33POPC   O11 4392   3.134   7.082  10.532 -0.3293 -0.4127  0.3599
   33POPC    C1 4393   3.194   7.062  10.404 -0.7221  0.3075  0.1379
   33POPC    HA 4394   3.290   7.117  10.392 -1.4899  1.6135 -0.2320
   33POPC    HB 4395   3.208   6.955  10.379  2.9445  1.0530 -1.9193
   33POPC    C2 4396   3.099   7.115  10.304  0.6990 -0.4572  1.0230
   33POPC    HS 4397   3.005   7.059  10.325  1.8329 -2.5702  0.6326
   33POPC   O21 4398   3.157   7.090  10.174  0.2709  0.0548 -0.0216
   33POPC   C21 4399   3.057   7.076  10.084  0.7302  0.3885 -0.5722
   33POPC   O22 4400   2.936   7.079  10.107 -0.5764  0.2617 -0.3284
   33POPC   C22 4401   3.114   7.023   9.954 -0.0138  0.1329 -0.0778
   33POPC   H2R 4402   3.149   6.920   9.973  0.3255  0.3066  0.2589
   33POPC   H2S 4403   3.203   7.086   9.931  0.9188 -1.3433 -0.6710
   33POPC    C3 4404   3.053   7.269  10.331 -0.6347 -0.1003 -0.9438
   33POPC    HX 4405   3.148   7.316  10.363 -0.0892 -1.9643  0.3212
   33POPC    HY 4406   2.996   7.279  10.425  0.4845 -1.4015 -0.0965
   33POPC   O31 4407   3.006   7.340  10.213 -0.3090 -0.1457  0.3967
   33POPC   C31 4408   2.873   7.368  10.212 -0.4640 -0.1402 -0.5091
   33POPC   O32 4409   2.792   7.343  10.299 -0.1105 -0.1002 -0.1984
   33POPC   C32 4410   2.837   7.417  10.069 -0.2968  0.2714 -0.2843
   33POPC   H2X 4411   2.827   7.321  10.013 -1.2169 -0.8358  1.6901
   33POPC   H2Y 4412   2.928   7.463  10.025 -0.3098 -0.2466 -0.8599
   33POPC   C23 4413   3.017   7.033   9.832 -0.1228  0.1350  0.7101
   33POPC   H3R 4414   2.951   7.122   9.818 -1.1872 -0.0302  3.9196
   33POPC   H3S 4415   2.941   6.952   9.842  0.5584 -0.3859  1.8110
   33POPC   C24 4416   3.095   7.004   9.705  0.4512  0.0317  0.4408
   33POPC   H4R 4417   3.150   6.910   9.727  1.3575  0.8764  1.9366
   33POPC   H4S 4418   3.182   7.072   9.690 -0.4364  0.6413 -2.6416
   33POPC   C25 4419   3.002   7.005   9.584  0.1190  0.5736  0.3700
   33POPC   H5R 4420   2.945   7.100   9.574 -1.2070 -0.2883 -0.7319
   33POPC   H5S 4421   2.928   6.922   9.586  2.0923 -1.3401 -1.4409
   33POPC   C26 4422   3.075   6.991   9.448 -0.0579 -0.2397 -0.0593
   33POPC   H6R 4423   3.113   6.889   9.428 -0.9110 -0.2549 -1.6950
   33POPC   H6S 4424   3.165   7.056   9.457  0.2709 -0.6161 -0.5436
   33POPC   C27 4425   2.996   7.037   9.327 -0.1335  0.1941  0.1984
   33POPC   H7R 4426   2.953   7.137   9.351  1.9923  1.1255  0.3525
   33POPC   H7S 4427   2.919   6.960   9.307 -0.5118  0.5480  0.2882
   33POPC   C28 4428   3.085   7.047   9.205  0.0773 -0.3397 -0.3926
   33POPC   H8R 4429   3.145   6.954   9.202  0.3543 -0.2383  1.1091
   33POPC   H8S 4430   3.148   7.131   9.242  0.3474 -0.8086  0.2114
   33POPC   C29 4431   3.009   7.080   9.080  0.1793  0.0125  0.6004
   33POPC   H91 4432   2.900   7.065   9.077 -0.3294  3.1653 -1.3734
   33POPC  C210 4433   3.071   7.125   8.971  0.0281  0.4375  0.0727
   33POPC  H101 4434   3.008   7.157   8.886 -0.4592  0.6127  0.5002
   33POPC  C211 4435   3.221   7.160   8.951  0.8457 -0.2528  0.6043
   33POPC  H11R 4436   3.286   7.132   9.037  0.6022 -1.0288  0.5461
   33POPC  H11S 4437   3.220   7.270   8.940 -4.8606  0.1372  2.0106
   33POPC  C212 4438   3.276   7.088   8.829 -1.5552 -0.5156  0.0351
   33POPC  H12R 4439   3.210   7.080   8.740 -2.0467 -0.0401  0.3472
   33POPC  H12S 4440   3.296   6.980   8.843 -2.0195 -1.2581 -3.9205
   33POPC  C213 4441   3.406   7.158   8.776 -1.2635 -0.1194  0.2351
   33POPC  H13R 4442   3.480   7.129   8.853 -2.5963 -1.6278  1.0309
   33POPC  H13S 4443   3.398   7.267   8.795  0.4140  0.0405  0.1699
   33POPC  C214 4444   3.437   7.126   8.632  0.6542  0.1207  0.2540
   33POPC  H14R 4445   3.344   7.147   8.574  0.4454 -2.7828 -0.6003
   33POPC  H14S 4446   3.427   7.016   8.618 -1.9560  0.4347 -1.0638
   33POPC  C215 4447   3.564   7.189   8.571 -0.6817  0.3731 -0.5926
   33POPC  H15R 4448   3.659   7.152   8.613  0.1600  0.7524 -2.0878
   33POPC  H15S 4449   3.554   7.297   8.596  0.0156 -0.0197  1.6008
   33POPC  C216 4450   3.586   7.162   8.415 -0.6219  0.1265  0.5351
   33POPC  H16R 4451   3.558   7.056   8.397  1.5546 -0.1415 -1.9099
   33POPC  H16S 4452   3.697   7.158   8.417 -0.6368 -0.0773  1.1960
   33POPC  C217 4453   3.522   7.263   8.327  0.5413  0.4557  0.0323
   33POPC  H17R 4454   3.412   7.276   8.340  0.6082  1.7832 -0.5449
   33POPC  H17S 4455   3.541   7.228   8.224 -1.8275 -2.3603  0.4135
   33POPC  C218 4456   3.573   7.401   8.349 -0.8505 -0.0099  0.0617
   33POPC  H18R 4457   3.551   7.478   8.271 -2.3255 -1.8791 -1.4684
   33POPC  H18S 4458   3.684   7.397   8.350 -0.7963  0.1493 -1.5497
   33POPC  H18T 4459   3.535   7.437   8.447  0.4628 -0.5248  0.7766
   33POPC   C33 4460   2.724   7.517  10.045  0.0791  0.4169  0.2948
   33POPC   H3X 4461   2.734   7.603  10.114  2.6623 -1.7792  2.8916
   33POPC   H3Y 4462   2.624   7.469  10.053  0.5749 -1.0033 -1.2950
   33POPC   C34 4463   2.731   7.569   9.900 -0.4073  0.3244  0.1113
   33POPC   H4X 4464   2.834   7.610   9.885  0.8006 -1.3374  2.9789
   33POPC   H4Y 4465   2.646   7.640   9.893 -2.0950 -1.6129  0.2825
   33POPC   C35 4466   2.700   7.458   9.797 -0.4884  0.1407 -0.2317
   33POPC   H5X 4467   2.596   7.429   9.822 -0.6895  0.2241 -0.9515
   33POPC   H5Y 4468   2.759   7.364   9.805  0.2443  0.5437 -0.7817
   33POPC   C36 4469   2.727   7.501   9.659 -0.3109 -0.0553 -0.6214
   33POPC   H6X 4470   2.836   7.521   9.650  0.3337 -0.9693  3.3171
   33POPC   H6Y 4471   2.674   7.598   9.646 -2.4574 -0.9779  0.7673
   33POPC   C37 4472   2.679   7.399   9.548  0.2241  0.5013  0.6079
   33POPC   H7X 4473   2.577   7.356   9.544  0.5180 -0.1138 -2.8934
   33POPC   H7Y 4474   2.742   7.309   9.531  0.7118  0.6475  1.5589
   33POPC   C38 4475   2.685   7.468   9.421 -0.1253 -0.9949  0.3354
   33POPC   H8X 4476   2.772   7.534   9.404 -0.2223 -0.4150  1.8776
   33POPC   H8Y 4477   2.604   7.544   9.421 -0.1202 -0.9873 -0.0871
   33POPC   C39 4478   2.681   7.370   9.305 -0.1767  0.9435 -0.0937
   33POPC   H9X 4479   2.600   7.295   9.319  1.2505 -0.4871  0.7739
   33POPC   H9Y 4480   2.776   7.319   9.329 -0.6190  1.4699  3.2481
   33POPC  C310 4481   2.688   7.445   9.173 -0.1124  0.7280 -0.3855
   33POPC  H10X 4482   2.774   7.514   9.162 -0.4886  0.9326 -2.3495
   33POPC  H10Y 4483   2.597   7.509   9.165  0.1191  0.8398 -2.6808
   33POPC  C311 4484   2.702   7.354   9.053 -0.4667  0.0478  0.7990
   33POPC  H11X 4485   2.646   7.258   9.060  1.1925 -1.3422 -2.6128
   33POPC  H11Y 4486   2.808   7.325   9.066 -0.1296  0.4516 -0.7841
   33POPC  C312 4487   2.679   7.426   8.913 -0.0958  0.1565 -0.4297
   33POPC  H12X 4488   2.734   7.522   8.920  1.2114 -0.5330 -0.7714
   33POPC  H12Y 4489   2.573   7.457   8.904 -0.5203 -0.8960  0.6747
   33POPC  C313 4490   2.746   7.342   8.804  0.0977 -0.2557  0.0737
   33POPC  H13X 4491   2.694   7.245   8.815 -0.3224 -0.2584 -1.6457
   33POPC  H13Y 4492   2.854   7.322   8.817  0.1029 -0.0761  0.3147
   33POPC  C314 4493   2.727   7.393   8.660  0.1812 -0.5268 -0.1436
   33POPC  H14X 4494   2.802   7.473   8.643  0.1161  0.1778  2.4276
   33POPC  H14Y 4495   2.625   7.435   8.645 -0.2549 -1.5250 -0.1252
   33POPC  C315 4496   2.746   7.277   8.560 -0.0226 -0.0979  0.3448
   33POPC  H15X 4497   2.726   7.314   8.457  1.3804 -1.3124 -0.3983
   33POPC  H15Y 4498   2.668   7.201   8.581  1.1791 -1.0944  1.3634
   33POPC  C316 4499   2.880   7.204   8.562 -0.1380 -0.1023  0.1612
   33POPC  H16X 4500   2.934   7.209   8.659 -0.5491 -3.5238  0.6960
   33POPC  H16Y 4501   2.947   7.260   8.494 -0.2821  0.7362  0.7020
   33POPC  H16Z 4502   2.869   7.096   8.536 -1.3961 -0.8258  3.2148
   34POPC     N 4503   5.490   4.877  10.906 -0.0550  0.5026 -0.0363
   34POPC   C12 4504   5.618   4.801  10.949 -0.3810 -0.1760 -0.6647
   34POPC  H12A 4505   5.582   4.699  10.948 -1.7907  0.3067 -1.2421
   34POPC  H12B 4506   5.623   4.816  11.056  0.2185 -0.2083 -0.6842
   34POPC   C13 4507   5.471   4.859  10.762  0.1901 -0.1996 -0.7363
   34POPC  H13A 4508   5.566   4.882  10.716  1.1684 -1.9507  0.2887
   34POPC  H13B 4509   5.444   4.756  10.746  1.4454 -1.7705  4.9662
   34POPC  H13C 4510   5.389   4.917  10.724  1.0295  2.0005  0.5758
   34POPC   C14 4511   5.376   4.820  10.988  0.3554  0.5762  0.1813
   34POPC  H14A 4512   5.347   4.725  10.947 -0.5154  0.7088  0.4577
   34POPC  H14B 4513   5.411   4.804  11.089 -0.2742 -0.2368  0.2754
   34POPC  H14C 4514   5.292   4.889  10.988  0.7693  1.0906 -0.0704
   34POPC   C15 4515   5.503   5.030  10.929  0.1963 -0.1612 -0.5708
   34POPC  H15A 4516   5.551   5.044  11.024  0.8105 -1.1502 -0.7222
   34POPC  H15B 4517   5.411   5.086  10.920 -1.6087 -2.8048  0.0728
   34POPC  H15C 4518   5.567   5.067  10.850  1.7557 -0.1653  0.6454
   34POPC   C11 4519   5.747   4.808  10.869  0.2817 -0.2262  0.1980
   34POPC  H11A 4520   5.725   4.748  10.778 -0.0860  0.7840 -0.4016
   34POPC  H11B 4521   5.834   4.774  10.928 -2.1156 -0.4521  3.8915
   34POPC     P 4522   5.880   4.971  10.716  0.1816  0.1640 -0.0044
   34POPC   O13 4523   6.012   4.984  10.783  0.7587 -0.2496  0.4217
   34POPC   O14 4524   5.833   5.078  10.631 -0.1913 -0.6670 -0.1589
   34POPC   O12 4525   5.773   4.942  10.827  0.4970 -0.5959 -0.6060
   34POPC   O11 4526   5.884   4.835  10.632 -0.0908 -0.4440  0.0254
   34POPC    C1 4527   5.996   4.756  10.604 -0.1641 -0.0454 -0.0033
   34POPC    HA 4528   5.961   4.653  10.582  2.2471 -0.3689 -3.0794
   34POPC    HB 4529   6.063   4.749  10.692  0.4522 -1.3676 -0.5550
   34POPC    C2 4530   6.087   4.799  10.482 -0.4553  0.0150 -0.5807
   34POPC    HS 4531   6.114   4.900  10.520 -1.2161 -0.3241  0.9402
   34POPC   O21 4532   6.013   4.802  10.365 -0.4762 -0.7210  0.7191
   34POPC   C21 4533   6.044   4.910  10.287 -0.0148 -0.0787 -0.3562
   34POPC   O22 4534   6.118   5.000  10.317 -1.2131 -0.3405 -0.2010
   34POPC   C22 4535   5.974   4.904  10.153  0.8919 -0.0151 -0.5951
   34POPC   H2R 4536   6.009   4.989  10.091 -0.8673  1.3759  0.2211
   34POPC   H2S 4537   5.866   4.923  10.173  1.0681  2.7720 -1.8678
   34POPC    C3 4538   6.208   4.699  10.473 -0.0161 -0.3936  0.3263
   34POPC    HX 4539   6.167   4.612  10.416  0.9902  1.1130 -2.9483
   34POPC    HY 4540   6.247   4.661  10.570 -0.6119  1.4645  1.3346
   34POPC   O31 4541   6.313   4.757  10.397 -0.5889  0.8812  0.1504
   34POPC   C31 4542   6.387   4.856  10.443 -0.6996 -0.9986 -0.3616
   34POPC   O32 4543   6.382   4.903  10.552  0.1842 -1.1465 -0.3641
   34POPC   C32 4544   6.484   4.912  10.333  0.3672 -0.2245 -0.8515
   34POPC   H2X 4545   6.536   4.991  10.391 -1.3480  0.1868  0.2244
   34POPC   H2Y 4546   6.424   4.956  10.250 -1.6894 -0.2714  0.5225
   34POPC   C23 4547   5.987   4.769  10.080 -0.1780  0.4285  0.4086
   34POPC   H3R 4548   5.932   4.774   9.984  0.7197  2.8249 -0.0450
   34POPC   H3S 4549   5.946   4.686  10.141 -0.7235 -0.7201 -1.4709
   34POPC   C24 4550   6.129   4.729  10.054  0.0395 -0.4360 -0.1187
   34POPC   H4R 4551   6.137   4.630  10.003 -0.1097 -0.4455 -0.1240
   34POPC   H4S 4552   6.171   4.705  10.154  1.4401 -1.4863 -0.8994
   34POPC   C25 4553   6.211   4.826   9.968 -0.6407  0.5935 -0.8392
   34POPC   H5R 4554   6.311   4.784   9.943 -0.7529 -1.0279  1.2425
   34POPC   H5S 4555   6.224   4.926  10.015  1.0989  0.1592 -0.3483
   34POPC   C26 4556   6.139   4.843   9.830 -0.8981 -0.2863  0.4193
   34POPC   H6R 4557   6.059   4.919   9.841 -0.4430  0.1699  0.6214
   34POPC   H6S 4558   6.099   4.744   9.801 -0.5476 -0.4753  0.5832
   34POPC   C27 4559   6.217   4.906   9.715 -0.1411 -0.1648 -0.9618
   34POPC   H7R 4560   6.314   4.854   9.697  0.2989  0.8960 -1.7877
   34POPC   H7S 4561   6.244   5.008   9.751  3.4142 -1.3528  0.1276
   34POPC   C28 4562   6.131   4.914   9.587 -0.6335  0.0630  0.2473
   34POPC   H8R 4563   6.024   4.941   9.603 -1.7599 -1.6954 -3.2708
   34POPC   H8S 4564   6.127   4.808   9.553 -1.4592  0.6508 -1.6211
   34POPC   C29 4565   6.184   5.002   9.480  0.0369 -0.0308  0.1210
   34POPC   H91 4566   6.265   5.069   9.512  0.5364 -0.4741 -0.1946
   34POPC  C210 4567   6.162   4.984   9.348  0.0409  0.3463 -0.7071
   34POPC  H101 4568   6.214   5.053   9.280 -1.1416  2.3086  0.2773
   34POPC  C211 4569   6.066   4.875   9.297  0.3269 -0.2685  0.3819
   34POPC  H11R 4570   5.988   4.848   9.371  0.0182  2.5434  1.2164
   34POPC  H11S 4571   6.117   4.778   9.277  1.4139  0.4468 -0.4328
   34POPC  C212 4572   5.993   4.926   9.171 -0.2219 -0.0698 -0.9484
   34POPC  H12R 4573   5.940   5.020   9.198  0.6492 -0.3926  2.2555
   34POPC  H12S 4574   5.914   4.856   9.137 -1.9043  1.8987 -1.2854
   34POPC  C213 4575   6.087   4.957   9.056 -0.3951  0.2363  0.2590
   34POPC  H13R 4576   6.119   4.860   9.010  1.5867  0.7747  0.4205
   34POPC  H13S 4577   6.184   4.995   9.094  1.2764 -3.3759  0.0991
   34POPC  C214 4578   6.033   5.047   8.945  0.1248  0.0046  0.1599
   34POPC  H14R 4579   6.019   5.151   8.982  3.1776 -0.1057  1.9216
   34POPC  H14S 4580   5.936   5.008   8.907 -1.6419  2.8824  1.2932
   34POPC  C215 4581   6.154   5.068   8.845 -0.0776 -0.1105 -0.2750
   34POPC  H15R 4582   6.246   5.113   8.887 -1.3902  0.5292  2.1466
   34POPC  H15S 4583   6.120   5.153   8.781  2.0017  1.0482  0.0773
   34POPC  C216 4584   6.199   4.939   8.774 -0.4408 -0.2846 -0.1906
   34POPC  H16R 4585   6.106   4.898   8.728 -1.7779 -0.0498  2.1556
   34POPC  H16S 4586   6.234   4.857   8.841 -1.9278 -0.9809 -0.2259
   34POPC  C217 4587   6.310   4.960   8.658  0.5928  0.6066 -0.8928
   34POPC  H17R 4588   6.350   4.863   8.623 -1.8081 -0.3758 -1.1216
   34POPC  H17S 4589   6.390   5.014   8.712  1.3218 -4.4157  3.9811
   34POPC  C218 4590   6.248   5.033   8.542 -0.1245  0.2293 -0.1403
   34POPC  H18R 4591   6.196   5.124   8.578  0.6577  0.7574 -0.3180
   34POPC  H18S 4592   6.174   4.975   8.483 -0.2072  0.4716 -0.2791
   34POPC  H18T 4593   6.335   5.066   8.481  0.5255  1.6660  1.4817
   34POPC   C33 4594   6.584   4.808  10.283 -0.6587 -1.0477 -0.1188
   34POPC   H3X 4595   6.624   4.762  10.376  1.8087 -0.6416 -0.9070
   34POPC   H3Y 4596   6.667   4.865  10.235 -2.3485  1.0485 -0.7319
   34POPC   C34 4597   6.528   4.709  10.171  0.1858  0.6317 -0.1972
   34POPC   H4X 4598   6.481   4.779  10.099  0.5082  1.3439  0.2699
   34POPC   H4Y 4599   6.443   4.652  10.213  0.6570  1.8383  2.7147
   34POPC   C35 4600   6.638   4.620  10.106 -0.6070  1.1938 -0.1354
   34POPC   H5X 4601   6.573   4.539  10.065 -3.7834  3.1522  0.6612
   34POPC   H5Y 4602   6.706   4.586  10.186 -1.7212 -0.0184  0.3435
   34POPC   C36 4603   6.720   4.687   9.990 -0.2855  1.1706 -0.3583
   34POPC   H6X 4604   6.765   4.610   9.924  0.8221  0.7143  0.8821
   34POPC   H6Y 4605   6.814   4.724  10.037 -0.3121  1.0424 -0.2062
   34POPC   C37 4606   6.651   4.795   9.909 -0.2159  0.3845  0.2391
   34POPC   H7X 4607   6.643   4.877   9.984  1.0780  0.4525  0.3187
   34POPC   H7Y 4608   6.553   4.763   9.868  1.2626 -0.7277 -2.7428
   34POPC   C38 4609   6.729   4.838   9.781  0.4149 -0.3572  0.0332
   34POPC   H8X 4610   6.745   4.740   9.731  0.9711 -0.8973  1.2316
   34POPC   H8Y 4611   6.833   4.876   9.795  0.2350  1.3302 -2.6222
   34POPC   C39 4612   6.656   4.937   9.693 -0.1868 -0.5899  0.5883
   34POPC   H9X 4613   6.631   5.034   9.741 -0.2592 -0.2649 -0.0905
   34POPC   H9Y 4614   6.558   4.891   9.668 -0.9625  0.1025  2.1855
   34POPC  C310 4615   6.736   4.976   9.568 -0.2252  0.1848  0.4758
   34POPC  H10X 4616   6.806   4.895   9.540  1.5133  2.3063 -1.8162
   34POPC  H10Y 4617   6.792   5.071   9.582 -0.4203  0.3947 -0.1341
   34POPC  C311 4618   6.650   4.990   9.446 -0.1922  0.3874  0.1613
   34POPC  H11X 4619   6.713   5.043   9.372  0.4657 -1.7020 -0.8210
   34POPC  H11Y 4620   6.558   5.051   9.462 -1.1431 -0.2064 -2.5662
   34POPC  C312 4621   6.602   4.858   9.381  0.0997  0.8086 -0.1222
   34POPC  H12X 4622   6.535   4.801   9.449 -1.7300  1.2162 -1.5187
   34POPC  H12Y 4623   6.694   4.796   9.381 -0.4298 -0.0015 -0.3654
   34POPC  C313 4624   6.546   4.871   9.243  0.3329 -0.1685  0.5678
   34POPC  H13X 4625   6.457   4.938   9.246 -0.1216 -0.8060  1.9588
   34POPC  H13Y 4626   6.510   4.773   9.205  0.3636 -0.5607  1.5159
   34POPC  C314 4627   6.642   4.912   9.133 -0.3020  0.5708  0.3250
   34POPC  H14X 4628   6.700   4.822   9.105 -1.4111 -0.0673 -0.0075
   34POPC  H14Y 4629   6.700   5.004   9.157 -0.3763  0.6745  0.1156
   34POPC  C315 4630   6.568   4.944   8.999  0.2172  0.4911  0.6167
   34POPC  H15X 4631   6.550   5.053   9.007  3.7379  1.2013  0.3938
   34POPC  H15Y 4632   6.475   4.883   8.989 -0.2961  1.5801 -1.7124
   34POPC  C316 4633   6.658   4.919   8.877 -0.4519 -1.0345  0.3542
   34POPC  H16X 4634   6.746   4.982   8.901 -1.1836  0.7445 -1.3346
   34POPC  H16Y 4635   6.613   4.943   8.778 -3.1110 -3.8591  0.7276
   34POPC  H16Z 4636   6.693   4.813   8.876  4.2290  0.2845 -0.4784
   35POPC     N 4637   0.679   1.295  10.841  0.2185 -0.2537  0.5900
   35POPC   C12 4638   0.674   1.142  10.868  0.6174 -0.2444 -0.1017
   35POPC  H12A 4639   0.606   1.098  10.797 -1.6051  0.7515  1.2915
   35POPC  H12B 4640   0.619   1.124  10.959  1.7601 -2.7637  0.1765
   35POPC   C13 4641   0.536   1.341  10.818 -0.5740  0.1236  0.2753
   35POPC  H13A 4642   0.533   1.442  10.779  0.3249 -0.1791 -0.6039
   35POPC  H13B 4643   0.484   1.273  10.753 -0.0897  0.8022 -0.8630
   35POPC  H13C 4644   0.487   1.342  10.914  0.4353  2.2229  0.8438
   35POPC   C14 4645   0.726   1.358  10.966 -0.3577 -0.2563  0.5742
   35POPC  H14A 4646   0.830   1.335  10.986  0.9801  3.0431 -1.7012
   35POPC  H14B 4647   0.720   1.465  10.953 -1.1837 -0.4330 -0.6384
   35POPC  H14C 4648   0.671   1.338  11.056 -0.3074 -0.0483  0.6526
   35POPC   C15 4649   0.766   1.331  10.720  0.1133  0.1564  0.2141
   35POPC  H15A 4650   0.783   1.438  10.721  0.1667  0.1434  1.0557
   35POPC  H15B 4651   0.716   1.307  10.627  0.1805 -0.7602  0.4067
   35POPC  H15C 4652   0.861   1.282  10.725 -0.7494 -1.5084  0.8920
   35POPC   C11 4653   0.809   1.072  10.891 -0.1615  0.5879 -0.5386
   35POPC  H11A 4654   0.891   1.130  10.844 -0.6650  0.9990 -0.9218
   35POPC  H11B 4655   0.799   0.977  10.834 -2.1814  0.5852 -0.2570
   35POPC     P 4656   0.982   0.993  11.062 -0.3274 -0.1531 -0.1536
   35POPC   O13 4657   0.968   0.892  11.171 -0.2648 -0.3667 -0.3312
   35POPC   O14 4658   1.077   1.099  11.084 -0.5247  0.2437  0.3178
   35POPC   O12 4659   0.834   1.058  11.028 -1.1071  0.3494 -0.4211
   35POPC   O11 4660   1.025   0.917  10.934  0.7533 -0.3553  0.4515
   35POPC    C1 4661   1.152   0.905  10.875  0.0216  0.1291  0.2672
   35POPC    HA 4662   1.153   0.796  10.850 -3.8346  0.2630 -1.2233
   35POPC    HB 4663   1.232   0.937  10.945  0.8987 -1.2527 -0.0585
   35POPC    C2 4664   1.157   0.973  10.738 -0.9285  0.4326  0.3685
   35POPC    HS 4665   1.154   1.080  10.765  0.4630  0.4976  0.3154
   35POPC   O21 4666   1.046   0.924  10.665  0.2845  0.0509 -0.0120
   35POPC   C21 4667   0.995   1.026  10.579 -0.4081 -0.1057 -0.7408
   35POPC   O22 4668   1.036   1.139  10.578 -0.2144 -1.0236 -0.7995
   35POPC   C22 4669   0.883   0.967  10.503 -0.3652 -0.0072  0.3671
   35POPC   H2R 4670   0.809   0.908  10.561  0.0773  0.2784  1.2421
   35POPC   H2S 4671   0.920   0.886  10.437 -0.9381  0.7037 -0.8691
   35POPC    C3 4672   1.285   0.932  10.664  0.2864 -0.2619  0.1403
   35POPC    HX 4673   1.286   0.822  10.653  0.4475 -0.1948 -0.5680
   35POPC    HY 4674   1.383   0.940  10.715 -1.2353 -1.3208  3.5240
   35POPC   O31 4675   1.284   0.986  10.531  0.1803  0.2678  0.4769
   35POPC   C31 4676   1.345   1.105  10.513  0.0100 -0.3463 -0.5396
   35POPC   O32 4677   1.386   1.173  10.602  0.0305  0.4657 -0.2539
   35POPC   C32 4678   1.341   1.151  10.364 -0.2982  0.8294  0.3317
   35POPC   H2X 4679   1.254   1.092  10.328 -0.0528  1.7904 -2.0115
   35POPC   H2Y 4680   1.441   1.123  10.326 -0.2326  1.8486 -0.2719
   35POPC   C23 4681   0.817   1.086  10.418  0.0261  0.3261  0.3239
   35POPC   H3R 4682   0.894   1.158  10.384  1.1669 -1.1222 -0.2583
   35POPC   H3S 4683   0.736   1.129  10.481 -1.0407  0.0586 -0.8309
   35POPC   C24 4684   0.736   1.034  10.299 -0.1778  0.0785  0.1725
   35POPC   H4R 4685   0.647   1.097  10.279  0.3591  1.2413  1.3139
   35POPC   H4S 4686   0.682   0.944  10.334 -0.2677  0.8386  2.0988
   35POPC   C25 4687   0.818   1.013  10.173 -0.1720  0.0253  0.7631
   35POPC   H5R 4688   0.889   0.927  10.180  0.9730  0.9374  0.6101
   35POPC   H5S 4689   0.884   1.100  10.157  0.8167 -0.9268 -0.5486
   35POPC   C26 4690   0.730   0.987  10.044  0.2037 -0.5584  0.4036
   35POPC   H6R 4691   0.654   1.067  10.037  0.8533  0.1223  0.9143
   35POPC   H6S 4692   0.680   0.890  10.066  1.1282 -1.3064 -0.6694
   35POPC   C27 4693   0.823   0.981   9.920  1.1815  0.2640 -0.1207
   35POPC   H7R 4694   0.896   0.899   9.937 -0.3206 -0.8727  1.1293
   35POPC   H7S 4695   0.885   1.071   9.906  0.7787  0.3833 -1.2540
   35POPC   C28 4696   0.735   0.940   9.801  0.0042  0.0983  0.2345
   35POPC   H8R 4697   0.666   1.025   9.781  2.2478  1.5367 -2.1856
   35POPC   H8S 4698   0.673   0.853   9.830 -0.0611  0.4721  1.2258
   35POPC   C29 4699   0.816   0.929   9.668  0.2849  0.4752  0.4789
   35POPC   H91 4700   0.906   0.991   9.654 -0.5088  1.8852  1.3721
   35POPC  C210 4701   0.794   0.842   9.570 -0.8996 -0.0716  0.4890
   35POPC  H101 4702   0.867   0.839   9.488 -0.8632  0.8446  0.4725
   35POPC  C211 4703   0.684   0.734   9.561 -0.2088 -0.1939  0.0611
   35POPC  H11R 4704   0.600   0.788   9.513  0.2861 -0.1663 -0.8034
   35POPC  H11S 4705   0.647   0.696   9.658  0.9897 -2.0567 -0.1617
   35POPC  C212 4706   0.741   0.612   9.480  0.6608 -0.4771  0.0584
   35POPC  H12R 4707   0.823   0.575   9.545  1.1799  0.0350 -0.2918
   35POPC  H12S 4708   0.789   0.639   9.384 -1.1676 -1.7088 -1.2712
   35POPC  C213 4709   0.640   0.497   9.455 -0.7830  0.2314 -0.4891
   35POPC  H13R 4710   0.577   0.486   9.545  0.7503  2.9907  1.0596
   35POPC  H13S 4711   0.702   0.407   9.437 -1.0535  0.4122 -2.6545
   35POPC  C214 4712   0.548   0.522   9.332 -0.1295 -0.1694 -0.4522
   35POPC  H14R 4713   0.491   0.615   9.350  0.2102 -0.1737  0.7605
   35POPC  H14S 4714   0.476   0.437   9.331  1.2093 -1.3705  0.4858
   35POPC  C215 4715   0.630   0.512   9.203  0.0159  0.6521 -0.1175
   35POPC  H15R 4716   0.656   0.407   9.179  0.3611  0.4818  0.9653
   35POPC  H15S 4717   0.716   0.582   9.210  1.2013 -0.8428  0.8556
   35POPC  C216 4718   0.561   0.555   9.076 -0.1573  0.0500  0.1039
   35POPC  H16R 4719   0.616   0.510   8.991  1.9383 -1.9385  2.3180
   35POPC  H16S 4720   0.552   0.665   9.063 -1.0551 -0.0701 -0.4041
   35POPC  C217 4721   0.425   0.497   9.061 -0.6383  0.1883 -0.8423
   35POPC  H17R 4722   0.363   0.503   9.153 -1.0725  0.5037 -1.1474
   35POPC  H17S 4723   0.444   0.388   9.051  3.6322  0.4756  1.6274
   35POPC  C218 4724   0.352   0.550   8.947  0.0877  0.2653  0.4282
   35POPC  H18R 4725   0.242   0.531   8.953 -0.2519  1.9982  0.4089
   35POPC  H18S 4726   0.384   0.505   8.851 -2.5916 -2.1180  0.5151
   35POPC  H18T 4727   0.349   0.661   8.944  1.9624  0.3196 -0.9321
   35POPC   C33 4728   1.312   1.300  10.344  0.1989  0.3476 -0.5146
   35POPC   H3X 4729   1.391   1.363  10.391 -0.6166  1.9717 -1.2411
   35POPC   H3Y 4730   1.217   1.315  10.401 -0.2388  0.5358 -1.2782
   35POPC   C34 4731   1.285   1.342  10.199  0.3073 -0.2000  0.0583
   35POPC   H4X 4732   1.377   1.329  10.139 -0.1951  0.1495 -0.8006
   35POPC   H4Y 4733   1.261   1.450  10.197 -1.7016 -0.6168 -1.9421
   35POPC   C35 4734   1.176   1.257  10.134 -0.3743 -0.3177  0.1615
   35POPC   H5X 4735   1.086   1.261  10.199  1.0587 -0.0510  2.2253
   35POPC   H5Y 4736   1.201   1.150  10.120 -1.0700 -0.5754  0.8329
   35POPC   C36 4737   1.149   1.313   9.996  0.6746 -0.3760  0.8379
   35POPC   H6X 4738   1.203   1.409   9.981 -1.3251  0.6956  0.1083
   35POPC   H6Y 4739   1.041   1.339   9.983  0.9842  2.0219  2.4217
   35POPC   C37 4740   1.204   1.224   9.880  0.1152 -0.1632 -0.4145
   35POPC   H7X 4741   1.160   1.124   9.897  0.6721 -0.8968 -2.8219
   35POPC   H7Y 4742   1.315   1.227   9.884  0.0795  1.3614  0.1821
   35POPC   C38 4743   1.171   1.282   9.737 -0.0693  0.0118  0.0425
   35POPC   H8X 4744   1.171   1.393   9.732  2.3308  0.1222  1.3598
   35POPC   H8Y 4745   1.072   1.245   9.700 -0.4399  0.5827  0.4550
   35POPC   C39 4746   1.270   1.209   9.647 -0.2514 -0.5155 -0.0193
   35POPC   H9X 4747   1.242   1.101   9.650 -1.4278 -0.1995  1.6005
   35POPC   H9Y 4748   1.373   1.233   9.683  0.4107 -0.7063 -1.6902
   35POPC  C310 4749   1.280   1.249   9.507  0.7229  0.4735 -0.0435
   35POPC  H10X 4750   1.367   1.196   9.464  0.1281  0.0195 -0.7085
   35POPC  H10Y 4751   1.303   1.357   9.496  2.3087 -0.0353 -2.3035
   35POPC  C311 4752   1.150   1.236   9.433 -0.0491 -0.2701  0.3836
   35POPC  H11X 4753   1.146   1.302   9.344 -0.3987  1.1474  1.4235
   35POPC  H11Y 4754   1.068   1.264   9.502  0.9660  1.5115  0.9306
   35POPC  C312 4755   1.120   1.089   9.384 -0.2668  0.0036  0.6004
   35POPC  H12X 4756   1.091   1.026   9.470 -0.5881  1.9711  2.0019
   35POPC  H12Y 4757   1.213   1.056   9.332  1.1704  3.9102  0.3315
   35POPC  C313 4758   1.013   1.089   9.269  0.8162  0.1650  0.3517
   35POPC  H13X 4759   1.058   1.144   9.183  1.6332 -2.1457 -0.7873
   35POPC  H13Y 4760   0.919   1.142   9.295  0.7307 -0.2323  0.8850
   35POPC  C314 4761   0.991   0.954   9.208  0.5539 -0.1301 -0.6087
   35POPC  H14X 4762   0.930   0.891   9.276  1.4868  1.3184  1.6766
   35POPC  H14Y 4763   1.086   0.900   9.190 -0.0528 -1.8070  0.9221
   35POPC  C315 4764   0.912   0.960   9.076 -0.6964 -0.6647  0.6290
   35POPC  H15X 4765   0.959   1.029   9.004 -1.5419 -0.5138  0.2091
   35POPC  H15Y 4766   0.828   1.024   9.110  0.7309  1.6942 -0.0557
   35POPC  C316 4767   0.873   0.824   9.009  0.4544  0.3747 -0.5200
   35POPC  H16X 4768   0.960   0.762   8.979  0.0410 -0.0874 -0.7715
   35POPC  H16Y 4769   0.800   0.837   8.927  0.1189  0.5743 -0.1931
   35POPC  H16Z 4770   0.814   0.754   9.073  0.8007 -0.5357 -1.1730
   36POPC     N 4771   0.336   6.032  10.743 -0.4446  0.3215  0.1947
   36POPC   C12 4772   0.477   6.086  10.756  0.0633  0.9018  0.7537
   36POPC  H12A 4773   0.519   6.068  10.854  0.9381  0.0086  0.2413
   36POPC  H12B 4774   0.465   6.190  10.731 -2.2035  0.8490  1.4379
   36POPC   C13 4775   0.334   5.885  10.781  0.1177  0.3871 -0.4235
   36POPC  H13A 4776   0.386   5.823  10.709  0.8864 -1.1163  1.3389
   36POPC  H13B 4777   0.371   5.876  10.882 -1.0153 -1.1435 -0.1019
   36POPC  H13C 4778   0.234   5.843  10.784  1.6970 -3.8687  0.8062
   36POPC   C14 4779   0.249   6.106  10.844 -0.4631 -0.0858  0.3364
   36POPC  H14A 4780   0.268   6.085  10.949 -1.1411  2.6397  1.0828
   36POPC  H14B 4781   0.244   6.211  10.821  1.2450  0.2174  1.2062
   36POPC  H14C 4782   0.150   6.071  10.818 -0.4067  0.5310 -0.7613
   36POPC   C15 4783   0.281   6.054  10.603  0.0263 -0.6256 -0.0881
   36POPC  H15A 4784   0.306   6.154  10.570  1.8444 -1.1029 -0.2641
   36POPC  H15B 4785   0.173   6.042  10.596 -0.1703  0.3600  0.9267
   36POPC  H15C 4786   0.328   5.981  10.539  0.5661 -1.3874  1.1437
   36POPC   C11 4787   0.578   6.011  10.659  0.8335  0.6983 -0.3209
   36POPC  H11A 4788   0.679   6.057  10.671 -0.2063  2.7852  1.1143
   36POPC  H11B 4789   0.540   6.034  10.557 -1.1829  1.6932  0.6012
   36POPC     P 4790   0.685   5.799  10.770 -0.0841 -0.2738  0.2204
   36POPC   O13 4791   0.618   5.677  10.820 -0.5845  0.3582 -0.2538
   36POPC   O14 4792   0.742   5.887  10.873  0.4532  0.4552 -0.5121
   36POPC   O12 4793   0.590   5.874  10.673  0.1245 -0.0834 -0.7589
   36POPC   O11 4794   0.811   5.762  10.675 -0.2940  0.3389 -0.6279
   36POPC    C1 4795   0.793   5.705  10.548  0.1704 -0.2859  0.1199
   36POPC    HA 4796   0.704   5.639  10.545 -0.8887  1.1285 -0.6036
   36POPC    HB 4797   0.884   5.646  10.523  1.2462  1.0277  0.8354
   36POPC    C2 4798   0.774   5.804  10.431  0.0870 -0.6133 -0.6646
   36POPC    HS 4799   0.677   5.858  10.444  1.5682  1.8361  1.1377
   36POPC   O21 4800   0.785   5.709  10.317  0.5658  0.2846 -0.1611
   36POPC   C21 4801   0.694   5.720  10.225  0.0400 -0.5905  0.2944
   36POPC   O22 4802   0.595   5.791  10.228  0.0798  0.1150 -0.1564
   36POPC   C22 4803   0.737   5.643  10.103 -0.1159  0.3432  0.4300
   36POPC   H2R 4804   0.741   5.539  10.142  0.4014 -0.8593 -2.5836
   36POPC   H2S 4805   0.841   5.670  10.078  0.3193 -1.8676 -0.4055
   36POPC    C3 4806   0.879   5.914  10.425  0.4741 -0.1686 -0.9074
   36POPC    HX 4807   0.981   5.870  10.426 -0.2586 -2.1114  2.7332
   36POPC    HY 4808   0.873   5.965  10.523  0.0023 -0.0073 -1.0157
   36POPC   O31 4809   0.843   6.001  10.321 -0.0321  0.3634  0.0046
   36POPC   C31 4810   0.774   6.106  10.344  0.4783 -0.0398  0.6535
   36POPC   O32 4811   0.746   6.141  10.460 -0.1937 -0.4981  0.1804
   36POPC   C32 4812   0.752   6.194  10.219  0.6271 -0.0716 -0.8328
   36POPC   H2X 4813   0.817   6.284  10.215 -2.0373  2.0389  0.2037
   36POPC   H2Y 4814   0.652   6.239  10.239 -0.0625 -1.9313  0.1569
   36POPC   C23 4815   0.651   5.660   9.979 -0.1348 -0.1545  0.2303
   36POPC   H3R 4816   0.645   5.769   9.954 -3.5546 -0.1718  0.4862
   36POPC   H3S 4817   0.548   5.625  10.002 -0.6487  1.0875 -0.0753
   36POPC   C24 4818   0.704   5.580   9.858  0.1458  0.2560 -0.4738
   36POPC   H4R 4819   0.695   5.473   9.887 -0.3042  0.7958  1.5540
   36POPC   H4S 4820   0.813   5.597   9.844  0.4239 -0.1124  1.0090
   36POPC   C25 4821   0.628   5.607   9.735  0.3892  0.7944  1.2160
   36POPC   H5R 4822   0.626   5.715   9.709 -1.6081  1.2666  3.0526
   36POPC   H5S 4823   0.526   5.569   9.759  0.6821 -0.6190  0.3517
   36POPC   C26 4824   0.690   5.529   9.616 -0.0414 -0.3359 -0.2086
   36POPC   H6R 4825   0.671   5.422   9.638 -2.6026  0.0012 -0.4674
   36POPC   H6S 4826   0.796   5.558   9.602 -0.5115  0.9060 -1.4078
   36POPC   C27 4827   0.618   5.567   9.488 -0.2268 -0.8421  0.1437
   36POPC   H7R 4828   0.635   5.674   9.463 -2.7811  0.2032  2.3576
   36POPC   H7S 4829   0.508   5.566   9.507 -0.2848  0.0771 -0.0888
   36POPC   C28 4830   0.650   5.473   9.371  0.5192  0.0362 -0.2053
   36POPC   H8R 4831   0.622   5.370   9.401 -1.1767  0.8295  1.1124
   36POPC   H8S 4832   0.758   5.468   9.348  0.2655  1.3449 -1.9196
   36POPC   C29 4833   0.567   5.501   9.245 -0.7087 -0.7475 -0.3611
   36POPC   H91 4834   0.508   5.594   9.247  0.4953  0.2098 -3.5410
   36POPC  C210 4835   0.568   5.440   9.125  0.3239 -0.1285  0.6762
   36POPC  H101 4836   0.515   5.483   9.038  1.4070 -0.3186 -0.0943
   36POPC  C211 4837   0.641   5.310   9.091  0.2964 -0.0501  0.0259
   36POPC  H11R 4838   0.564   5.230   9.088 -1.3572  1.5118 -0.9690
   36POPC  H11S 4839   0.715   5.287   9.171  0.0809 -0.9286 -0.0116
   36POPC  C212 4840   0.706   5.302   8.950  0.8388 -1.3998  0.5495
   36POPC  H12R 4841   0.790   5.374   8.937 -0.1401  0.1137  2.1578
   36POPC  H12S 4842   0.631   5.334   8.875 -0.4870 -1.0455  1.9770
   36POPC  C213 4843   0.750   5.166   8.914  0.6852  0.5313 -0.8841
   36POPC  H13R 4844   0.657   5.108   8.899  1.8803 -1.9451  0.6813
   36POPC  H13S 4845   0.798   5.126   9.006 -0.1242  1.8555  0.1450
   36POPC  C214 4846   0.840   5.151   8.794  0.4619  0.0957  0.2052
   36POPC  H14R 4847   0.843   5.040   8.783  2.9382  0.0358  0.9519
   36POPC  H14S 4848   0.939   5.193   8.818 -0.6965  2.6288  0.9016
   36POPC  C215 4849   0.794   5.205   8.655 -0.3278  0.2856  0.0897
   36POPC  H15R 4850   0.881   5.185   8.590 -1.1861 -1.0461 -0.6938
   36POPC  H15S 4851   0.766   5.313   8.657 -0.2485  0.3502 -1.3711
   36POPC  C216 4852   0.674   5.126   8.591  0.0089 -0.3020 -0.2690
   36POPC  H16R 4853   0.586   5.130   8.659 -0.4637 -1.3509 -0.8040
   36POPC  H16S 4854   0.686   5.017   8.572 -2.0076 -0.3899 -1.2785
   36POPC  C217 4855   0.622   5.175   8.458  0.2478 -0.2604 -0.0246
   36POPC  H17R 4856   0.680   5.132   8.373 -1.8987  0.3130 -1.8770
   36POPC  H17S 4857   0.627   5.285   8.467  3.4706 -0.3917  1.1404
   36POPC  C218 4858   0.473   5.135   8.436 -0.4678  0.3953 -0.7082
   36POPC  H18R 4859   0.431   5.166   8.338 -1.4440 -0.9416 -0.7346
   36POPC  H18S 4860   0.415   5.164   8.526 -0.1516 -0.8902 -0.0766
   36POPC  H18T 4861   0.467   5.025   8.435  1.1034  0.2738 -0.1082
   36POPC   C33 4862   0.745   6.131  10.078 -0.3808  0.2295  0.6594
   36POPC   H3X 4863   0.677   6.044  10.072  0.4788 -0.3992 -0.5025
   36POPC   H3Y 4864   0.850   6.100  10.060  0.3363  2.1991  1.1170
   36POPC   C34 4865   0.706   6.222   9.965 -0.8089  0.1102 -0.2337
   36POPC   H4X 4866   0.761   6.186   9.875 -0.6431  1.5550 -0.7387
   36POPC   H4Y 4867   0.749   6.325   9.965  1.4770 -0.7635 -1.9691
   36POPC   C35 4868   0.559   6.223   9.931  0.7025  0.5071  0.1583
   36POPC   H5X 4869   0.502   6.290   9.999  0.1965 -0.4266  0.6644
   36POPC   H5Y 4870   0.531   6.118   9.952 -0.7725  0.6495 -0.9566
   36POPC   C36 4871   0.539   6.246   9.781  0.0877  0.2180  0.2560
   36POPC   H6X 4872   0.602   6.326   9.737 -1.3189  1.6919  0.8235
   36POPC   H6Y 4873   0.433   6.276   9.768  0.0762  0.6678  1.2896
   36POPC   C37 4874   0.565   6.118   9.687 -0.0271  0.5087 -0.6819
   36POPC   H7X 4875   0.484   6.044   9.705  1.0880 -0.2211  1.7567
   36POPC   H7Y 4876   0.658   6.077   9.732 -0.6972 -0.0789  0.2010
   36POPC   C38 4877   0.576   6.146   9.536  0.1526 -0.0179  0.2410
   36POPC   H8X 4878   0.673   6.196   9.516 -0.3206  0.2794 -1.5334
   36POPC   H8Y 4879   0.504   6.215   9.486  3.2253  1.1384 -3.0070
   36POPC   C39 4880   0.564   6.016   9.459 -0.3015 -0.3913  0.3364
   36POPC   H9X 4881   0.464   5.969   9.469  0.5500 -1.9436  2.8830
   36POPC   H9Y 4882   0.629   5.945   9.516 -0.2262  0.4579  1.3393
   36POPC  C310 4883   0.604   6.025   9.309  0.0395 -0.1355 -0.3265
   36POPC  H10X 4884   0.696   6.086   9.297 -0.1267  0.1501 -0.1712
   36POPC  H10Y 4885   0.530   6.073   9.242 -0.1389 -0.4467 -0.3536
   36POPC  C311 4886   0.617   5.886   9.241 -0.0037 -0.3811  0.5846
   36POPC  H11X 4887   0.520   5.834   9.228  0.0590 -0.0068 -1.7615
   36POPC  H11Y 4888   0.694   5.833   9.301 -0.4190 -0.0089  1.4564
   36POPC  C312 4889   0.682   5.908   9.099  0.1744  0.3115  0.4091
   36POPC  H12X 4890   0.778   5.960   9.119  1.6516 -2.6633  1.7245
   36POPC  H12Y 4891   0.611   5.961   9.032 -1.6071 -2.2839  0.0715
   36POPC  C313 4892   0.708   5.773   9.040 -0.8846 -0.3750 -0.5712
   36POPC  H13X 4893   0.612   5.722   9.019 -0.1109 -2.3432  0.4025
   36POPC  H13Y 4894   0.763   5.709   9.113  1.0438 -0.4063 -1.9824
   36POPC  C314 4895   0.791   5.782   8.917  0.3960 -0.3369 -0.1244
   36POPC  H14X 4896   0.892   5.824   8.933  0.6774  0.4540 -3.2278
   36POPC  H14Y 4897   0.731   5.845   8.848  0.6827  0.3637  0.2632
   36POPC  C315 4898   0.810   5.640   8.863 -0.2524 -0.9676 -0.0544
   36POPC  H15X 4899   0.713   5.586   8.870 -0.1461 -1.0469  0.8476
   36POPC  H15Y 4900   0.887   5.594   8.929  1.7220  0.1615 -1.4675
   36POPC  C316 4901   0.865   5.622   8.717  0.5701 -0.0560 -0.4265
   36POPC  H16X 4902   0.882   5.513   8.701 -2.4518 -0.9225  1.3573
   36POPC  H16Y 4903   0.957   5.682   8.703 -0.4159  2.3795  2.5182
   36POPC  H16Z 4904   0.783   5.658   8.651 -1.2728  0.8378  2.1764
   37POPC     N 4905   5.730   0.137   6.000  0.3972 -0.1597 -0.3508
   37POPC   C12 4906   5.618   0.118   6.098 -0.4648 -0.5468  0.5626
   37POPC  H12A 4907   5.539   0.063   6.048 -0.7304 -0.0290  0.4029
   37POPC  H12B 4908   5.576   0.216   6.116  1.1710  0.6069 -1.5011
   37POPC   C13 4909   5.682   0.218   5.888  0.1395 -0.0958 -0.2199
   37POPC  H13A 4910   5.640   0.304   5.938 -0.5354  0.0669 -1.0398
   37POPC  H13B 4911   5.757   0.256   5.820  0.0763  0.1653 -0.1475
   37POPC  H13C 4912   5.607   0.169   5.827 -0.9031 -0.9185  1.6510
   37POPC   C14 4913   5.844   0.209   6.063 -0.0263  0.2567 -0.4467
   37POPC  H14A 4914   5.863   0.163   6.159  0.7681 -0.0721 -0.7540
   37POPC  H14B 4915   5.927   0.219   5.995  0.3374  0.6217  0.0479
   37POPC  H14C 4916   5.806   0.309   6.075  0.5994  0.9800 -3.5214
   37POPC   C15 4917   5.775   0.007   5.950  0.1705  0.8990  0.2592
   37POPC  H15A 4918   5.694  -0.044   5.900  0.6936  1.4557 -1.2257
   37POPC  H15B 4919   5.804  -0.068   6.022  0.4560  0.1558 -0.6033
   37POPC  H15C 4920   5.861   0.015   5.885 -0.3438  0.9656 -0.4307
   37POPC   C11 4921   5.660   0.048   6.230  0.1156 -0.3752 -0.5471
   37POPC  H11A 4922   5.722  -0.039   6.201 -2.7257 -2.6261 -0.3587
   37POPC  H11B 4923   5.572   0.001   6.280 -0.7599 -0.2400 -1.9123
   37POPC     P 4924   5.819   0.099   6.432 -0.3168 -0.7214 -0.3155
   37POPC   O13 4925   5.902   0.216   6.462  0.4450  0.4650  0.2147
   37POPC   O14 4926   5.894  -0.022   6.399  0.3765 -0.0561  0.5152
   37POPC   O12 4927   5.731   0.144   6.306  0.3266  0.0681 -0.5000
   37POPC   O11 4928   5.699   0.067   6.538 -0.4176 -0.6404  0.2196
   37POPC    C1 4929   5.614   0.172   6.579 -0.2182  0.2729  0.2712
   37POPC    HA 4930   5.510   0.135   6.570  0.8735 -2.9269 -0.7072
   37POPC    HB 4931   5.634   0.262   6.517 -0.3051  0.2681  0.2362
   37POPC    C2 4932   5.640   0.208   6.726 -0.2932  0.0616 -0.5925
   37POPC    HS 4933   5.750   0.226   6.731  0.0391 -1.9592  3.4234
   37POPC   O21 4934   5.620   0.092   6.807  0.5028 -0.0114 -0.4532
   37POPC   C21 4935   5.700   0.090   6.921 -0.4713  0.2255  0.0024
   37POPC   O22 4936   5.789   0.172   6.946  0.5169  0.0339  0.5957
   37POPC   C22 4937   5.642  -0.012   7.021  0.2241  0.1956 -0.1056
   37POPC   H2R 4938   5.728  -0.073   7.055 -0.0694  0.4284  1.0781
   37POPC   H2S 4939   5.569  -0.071   6.962  1.3146 -0.0603 -1.2436
   37POPC    C3 4940   5.563   0.338   6.778 -0.0612 -0.6194  0.7467
   37POPC    HX 4941   5.456   0.321   6.753  0.4073 -0.8716 -1.2274
   37POPC    HY 4942   5.592   0.415   6.704 -0.8247 -0.4718  0.5902
   37POPC   O31 4943   5.577   0.384   6.913  0.2669 -0.0109  0.9003
   37POPC   C31 4944   5.679   0.468   6.945 -0.4993  0.0222  0.3363
   37POPC   O32 4945   5.769   0.499   6.868 -0.6247 -0.6183 -0.6395
   37POPC   C32 4946   5.665   0.503   7.093  0.7520 -0.5636  0.0893
   37POPC   H2X 4947   5.621   0.409   7.133 -1.1044  0.2552  0.0567
   37POPC   H2Y 4948   5.585   0.579   7.091 -0.7948 -2.1271 -1.9213
   37POPC   C23 4949   5.576   0.069   7.134 -0.0078 -0.5883 -1.0358
   37POPC   H3R 4950   5.520  -0.011   7.188 -1.4105  0.8123 -0.3207
   37POPC   H3S 4951   5.503   0.138   7.086 -1.0118 -2.2040 -1.9620
   37POPC   C24 4952   5.667   0.130   7.239  0.0783  0.1134  0.3664
   37POPC   H4R 4953   5.596   0.148   7.322 -2.5721 -1.3298 -1.4248
   37POPC   H4S 4954   5.717   0.223   7.205 -1.4493 -0.0218 -2.6465
   37POPC   C25 4955   5.773   0.030   7.298  0.3978 -0.1862  0.0802
   37POPC   H5R 4956   5.855   0.051   7.226 -0.0417 -0.4855 -0.5096
   37POPC   H5S 4957   5.746  -0.075   7.275  0.1888 -0.1097 -0.0275
   37POPC   C26 4958   5.821   0.048   7.447 -0.1899  0.6007  0.3631
   37POPC   H6R 4959   5.831   0.159   7.456 -0.1481  0.5179  1.5006
   37POPC   H6S 4960   5.920  -0.001   7.454  0.4915  1.7759 -0.4828
   37POPC   C27 4961   5.731  -0.007   7.557 -0.1570 -0.1304 -0.6198
   37POPC   H7R 4962   5.738  -0.118   7.551  0.5139 -0.1176 -0.1832
   37POPC   H7S 4963   5.625   0.025   7.549  0.4744  2.3655  0.0900
   37POPC   C28 4964   5.774   0.038   7.700  0.2963 -0.2758  0.6698
   37POPC   H8R 4965   5.884   0.026   7.706  0.3453 -0.1531  0.0622
   37POPC   H8S 4966   5.732  -0.037   7.770 -1.0276 -1.1283 -0.9431
   37POPC   C29 4967   5.731   0.183   7.720 -0.1341 -0.1882  0.1194
   37POPC   H91 4968   5.697   0.243   7.635 -0.7703 -0.0788  0.4474
   37POPC  C210 4969   5.711   0.229   7.842 -0.1175 -0.6635  0.3097
   37POPC  H101 4970   5.663   0.328   7.851 -0.5440 -0.8741  0.3768
   37POPC  C211 4971   5.733   0.163   7.967 -0.8807 -0.4631  0.3731
   37POPC  H11R 4972   5.735   0.247   8.039 -1.3083  0.9529 -1.2131
   37POPC  H11S 4973   5.828   0.104   7.966  0.3047  1.2536  2.3476
   37POPC  C212 4974   5.618   0.076   8.009 -0.0426  0.2622 -0.0403
   37POPC  H12R 4975   5.590  -0.005   7.939  0.0334 -2.6062  2.9882
   37POPC  H12S 4976   5.534   0.147   8.024 -0.0704 -0.0439  1.4853
   37POPC  C213 4977   5.646   0.001   8.142 -0.3901 -0.2203  0.4611
   37POPC  H13R 4978   5.677   0.076   8.217  1.1728 -0.7363  0.3566
   37POPC  H13S 4979   5.727  -0.073   8.123  1.2122  1.3490  1.0224
   37POPC  C214 4980   5.517  -0.074   8.193 -0.2537 -0.3642 -0.0460
   37POPC  H14R 4981   5.481  -0.144   8.114  2.1580  0.1884 -1.7541
   37POPC  H14S 4982   5.437   0.000   8.208 -1.7958 -2.2063  1.3064
   37POPC  C215 4983   5.548  -0.158   8.321  0.4368 -0.8415  0.1395
   37POPC  H15R 4984   5.630  -0.228   8.297  2.0905  0.3466  2.0755
   37POPC  H15S 4985   5.454  -0.206   8.355 -1.2504  1.1228 -1.4404
   37POPC  C216 4986   5.602  -0.063   8.439 -0.4004 -0.0783 -0.1424
   37POPC  H16R 4987   5.525   0.016   8.454 -1.0421 -0.7124 -0.0366
   37POPC  H16S 4988   5.697  -0.015   8.408 -0.8581  0.5095 -0.6576
   37POPC  C217 4989   5.630  -0.146   8.566  0.3904 -0.8390  0.0580
   37POPC  H17R 4990   5.690  -0.233   8.531  0.9614 -1.2553  1.9095
   37POPC  H17S 4991   5.535  -0.179   8.614  0.3340  0.0231  0.5557
   37POPC  C218 4992   5.718  -0.075   8.669 -0.2037 -0.3947 -0.8305
   37POPC  H18R 4993   5.666   0.013   8.712  1.6830 -1.5354  4.4651
   37POPC  H18S 4994   5.808  -0.025   8.628  0.3160  0.1072  0.8593
   37POPC  H18T 4995   5.748  -0.140   8.754  1.3617  1.0159 -0.2629
   37POPC   C33 4996   5.794   0.535   7.173 -0.6952 -0.2376 -0.3315
   37POPC   H3X 4997   5.851   0.610   7.114  0.5119  0.3744  1.5254
   37POPC   H3Y 4998   5.851   0.439   7.175 -0.7367 -0.2604 -0.2620
   37POPC   C34 4999   5.778   0.595   7.315 -0.3698 -0.2417 -0.1120
   37POPC   H4X 5000   5.710   0.521   7.363 -2.5420  0.1192 -2.3692
   37POPC   H4Y 5001   5.720   0.689   7.301 -0.3621 -0.0971  0.8065
   37POPC   C35 5002   5.907   0.625   7.396  0.3497 -0.1935 -0.2563
   37POPC   H5X 5003   5.985   0.681   7.341  2.2469 -1.3438  1.1179
   37POPC   H5Y 5004   5.963   0.539   7.438  0.6196  0.0875 -0.0388
   37POPC   C36 5005   5.874   0.712   7.519  0.4346 -0.3481  0.5840
   37POPC   H6X 5006   5.763   0.710   7.527  0.3846 -1.5658 -0.1698
   37POPC   H6Y 5007   5.903   0.816   7.494  1.0153 -0.4050  1.0022
   37POPC   C37 5008   5.934   0.668   7.651  0.6576  1.1114  0.4410
   37POPC   H7X 5009   6.041   0.642   7.637 -0.2407 -2.4281 -0.9578
   37POPC   H7Y 5010   5.904   0.565   7.681  0.4495  0.9588 -0.2737
   37POPC   C38 5011   5.914   0.766   7.773  0.4430  0.4964  0.4880
   37POPC   H8X 5012   5.819   0.745   7.827  0.7791  1.6054  1.5520
   37POPC   H8Y 5013   5.917   0.869   7.734  2.0557 -0.2916 -1.6594
   37POPC   C39 5014   6.019   0.745   7.886 -0.1848  0.6156 -0.1471
   37POPC   H9X 5015   6.048   0.833   7.947  1.0767  1.3403 -1.7333
   37POPC   H9Y 5016   6.111   0.687   7.863 -1.5124 -2.1577  0.9519
   37POPC  C310 5017   5.954   0.657   7.993  0.2239 -0.3484 -0.6188
   37POPC  H10X 5018   6.036   0.622   8.059 -2.7363 -1.8038  2.6185
   37POPC  H10Y 5019   5.904   0.566   7.954 -1.1160  0.6951 -1.4275
   37POPC  C311 5020   5.876   0.744   8.096  0.7461  0.0791  0.0832
   37POPC  H11X 5021   5.780   0.773   8.048  0.6032 -0.7087 -0.1148
   37POPC  H11Y 5022   5.946   0.825   8.126 -0.0437  0.5312  0.7489
   37POPC  C312 5023   5.853   0.667   8.232  0.2058  0.6325  0.2014
   37POPC  H12X 5024   5.803   0.740   8.300 -0.4684  0.2101  0.1678
   37POPC  H12Y 5025   5.950   0.646   8.281  0.2758  1.2626  0.3406
   37POPC  C313 5026   5.758   0.548   8.209  0.4411  0.4123 -0.4227
   37POPC  H13X 5027   5.820   0.466   8.166  2.4711  1.4002  0.5127
   37POPC  H13Y 5028   5.676   0.593   8.148  0.9763  1.5051 -0.3483
   37POPC  C314 5029   5.708   0.504   8.351  0.1336  0.2384 -0.0227
   37POPC  H14X 5030   5.670   0.599   8.396 -2.2900 -1.2100  1.2123
   37POPC  H14Y 5031   5.788   0.465   8.418 -0.3562  0.4880  0.7245
   37POPC  C315 5032   5.587   0.414   8.356  0.2373 -0.1828 -0.1305
   37POPC  H15X 5033   5.620   0.312   8.327  0.4971 -0.3074  0.5913
   37POPC  H15Y 5034   5.516   0.464   8.287 -0.5758  0.3949  1.0898
   37POPC  C316 5035   5.522   0.394   8.489 -0.0953 -0.6766 -0.5726
   37POPC  H16X 5036   5.502   0.495   8.529  0.0558 -1.3305  1.2477
   37POPC  H16Y 5037   5.584   0.338   8.563  1.5636 -0.3321 -1.6447
   37POPC  H16Z 5038   5.427   0.342   8.463 -0.9059  0.1381  0.6755
   38POPC     N 5039   0.347   4.774   6.188 -0.5074  0.5110 -0.3738
   38POPC   C12 5040   0.205   4.782   6.231  0.2423 -0.0189 -0.8762
   38POPC  H12A 5041   0.200   4.834   6.325  0.2150  0.8848 -1.3622
   38POPC  H12B 5042   0.175   4.681   6.257 -0.3789  1.0006  2.8421
   38POPC   C13 5043   0.409   4.912   6.180  0.1024  0.1655  0.0409
   38POPC  H13A 5044   0.398   4.947   6.282  0.9876 -3.6790  1.6487
   38POPC  H13B 5045   0.510   4.911   6.143  0.0598 -0.2105 -0.0749
   38POPC  H13C 5046   0.349   4.969   6.111  0.8418 -2.5697 -3.1056
   38POPC   C14 5047   0.430   4.680   6.273  0.5661  0.1852  0.1991
   38POPC  H14A 5048   0.416   4.720   6.373  0.2921  1.9309 -0.5067
   38POPC  H14B 5049   0.394   4.578   6.269  3.1055 -0.7322 -1.7927
   38POPC  H14C 5050   0.538   4.681   6.263  0.5193  0.3317 -0.3066
   38POPC   C15 5051   0.359   4.710   6.049  0.6506  0.3711  1.2727
   38POPC  H15A 5052   0.306   4.616   6.047 -1.0547  1.2918 -0.7526
   38POPC  H15B 5053   0.462   4.687   6.025  0.1601  0.9952 -1.8243
   38POPC  H15C 5054   0.315   4.758   5.963 -0.3600 -4.0288 -1.0196
   38POPC   C11 5055   0.096   4.851   6.147 -0.2501  0.0313  0.2908
   38POPC  H11A 5056  -0.001   4.832   6.197  1.3999 -0.5971  3.4747
   38POPC  H11B 5057   0.084   4.786   6.058 -1.2195 -1.0494  1.1766
   38POPC     P 5058   0.100   5.091   6.226  0.2111 -0.5077 -0.3619
   38POPC   O13 5059  -0.038   5.148   6.236 -0.6139  0.3676  0.0064
   38POPC   O14 5060   0.203   5.193   6.205  0.4906 -0.9721  0.4937
   38POPC   O12 5061   0.126   4.985   6.120  0.1482 -0.0383  0.5960
   38POPC   O11 5062   0.137   5.029   6.371 -0.4169 -0.1901 -0.7250
   38POPC    C1 5063   0.036   4.976   6.463 -0.6267  0.1016 -0.5438
   38POPC    HA 5064   0.075   4.912   6.545 -0.3626  1.0490  0.0868
   38POPC    HB 5065  -0.036   4.912   6.408  0.3640 -1.3285 -0.2374
   38POPC    C2 5066  -0.037   5.094   6.537  0.3716  0.4327 -0.0033
   38POPC    HS 5067  -0.039   5.180   6.465  1.8565  0.2317 -0.3095
   38POPC   O21 5068   0.040   5.139   6.647 -0.1471  0.2165  0.5453
   38POPC   C21 5069  -0.001   5.250   6.712 -0.3013  0.0350 -0.4708
   38POPC   O22 5070  -0.091   5.320   6.676 -0.0896  0.2021  0.3047
   38POPC   C22 5071   0.085   5.266   6.835 -0.3404 -0.7820  0.4449
   38POPC   H2R 5072   0.070   5.169   6.887  1.0242 -2.6701 -2.3873
   38POPC   H2S 5073   0.039   5.345   6.898 -1.9703 -1.2739 -0.0869
   38POPC    C3 5074  -0.178   5.043   6.579 -0.2173  0.2433 -0.5380
   38POPC    HX 5075  -0.235   5.023   6.486 -0.6931 -1.1090  0.0096
   38POPC    HY 5076  -0.235   5.124   6.629 -1.4350 -0.5929 -0.5328
   38POPC   O31 5077  -0.188   4.922   6.657  0.2970 -0.1525  0.2708
   38POPC   C31 5078  -0.182   4.940   6.786  0.6159 -0.1208  0.1349
   38POPC   O32 5079  -0.174   5.050   6.847 -0.3553  0.0859  0.5727
   38POPC   C32 5080  -0.179   4.800   6.842  0.3524  0.2513 -0.3646
   38POPC   H2X 5081  -0.078   4.765   6.813  0.3563 -0.8129  0.8032
   38POPC   H2Y 5082  -0.259   4.741   6.792 -2.4506  2.1933  1.4930
   38POPC   C23 5083   0.224   5.301   6.814  0.4400  0.0708  0.1147
   38POPC   H3R 5084   0.228   5.395   6.754 -0.2869  0.0781  0.0748
   38POPC   H3S 5085   0.265   5.229   6.740 -3.5308 -2.5322  0.1612
   38POPC   C24 5086   0.310   5.327   6.942  0.6036 -0.1012 -0.3168
   38POPC   H4R 5087   0.357   5.228   6.963 -1.5455 -0.5250  3.3667
   38POPC   H4S 5088   0.250   5.344   7.034  0.6702 -2.4665  0.2331
   38POPC   C25 5089   0.410   5.434   6.927  0.5024  0.7503  0.0229
   38POPC   H5R 5090   0.362   5.530   6.899 -1.1363  0.1598  0.6683
   38POPC   H5S 5091   0.484   5.409   6.848  3.2823  2.5237  1.8992
   38POPC   C26 5092   0.489   5.451   7.060  0.2908  0.1848  0.6791
   38POPC   H6R 5093   0.594   5.475   7.036  0.7239 -1.6789  0.6057
   38POPC   H6S 5094   0.496   5.357   7.118  0.8378  0.4750  1.0920
   38POPC   C27 5095   0.434   5.560   7.155 -0.4217 -0.5486 -0.0776
   38POPC   H7R 5096   0.344   5.528   7.213 -0.7680  0.5550  0.0255
   38POPC   H7S 5097   0.417   5.653   7.097  0.6120  0.0031  0.4850
   38POPC   C28 5098   0.540   5.596   7.267 -0.2144  0.0498  0.3531
   38POPC   H8R 5099   0.635   5.636   7.228 -0.6451  0.3815 -0.3696
   38POPC   H8S 5100   0.556   5.503   7.327  0.0040 -0.1884 -0.0693
   38POPC   C29 5101   0.483   5.708   7.354  0.0716  0.3280 -0.3193
   38POPC   H91 5102   0.505   5.807   7.313 -0.9293  0.2869 -0.9960
   38POPC  C210 5103   0.444   5.703   7.481  0.3707 -0.1374 -0.0882
   38POPC  H101 5104   0.426   5.792   7.543  1.8996  0.2465 -0.1457
   38POPC  C211 5105   0.434   5.582   7.572 -0.3978  0.6648  0.4523
   38POPC  H11R 5106   0.442   5.490   7.509 -2.4085  0.1232  0.8893
   38POPC  H11S 5107   0.331   5.575   7.614  0.1139  3.1623  2.3082
   38POPC  C212 5108   0.531   5.587   7.682  0.1433  0.2685 -0.1642
   38POPC  H12R 5109   0.633   5.605   7.643 -0.6359  1.5896 -1.7481
   38POPC  H12S 5110   0.549   5.488   7.730  1.9971  1.3248  1.4129
   38POPC  C213 5111   0.513   5.687   7.794 -0.3765  0.2679  0.1339
   38POPC  H13R 5112   0.419   5.655   7.845 -0.4151 -0.3134 -0.2958
   38POPC  H13S 5113   0.499   5.790   7.757  0.6295  0.2254 -0.3795
   38POPC  C214 5114   0.624   5.687   7.901  0.1099 -0.3088 -0.5150
   38POPC  H14R 5115   0.716   5.731   7.858  0.9545 -1.7481 -0.2310
   38POPC  H14S 5116   0.647   5.581   7.925 -2.6163 -0.6832  0.8238
   38POPC  C215 5117   0.571   5.760   8.033  0.5308 -0.1372  0.8246
   38POPC  H15R 5118   0.465   5.732   8.052  0.4796 -1.1070 -0.6629
   38POPC  H15S 5119   0.566   5.868   8.005  0.4372 -0.8150 -2.1769
   38POPC  C216 5120   0.656   5.726   8.161  0.3930  0.1421  0.3734
   38POPC  H16R 5121   0.661   5.618   8.187 -0.0903 -0.1629 -0.7329
   38POPC  H16S 5122   0.605   5.789   8.237 -0.8127 -0.2280 -0.1097
   38POPC  C217 5123   0.800   5.784   8.144 -0.3057  0.1025  0.6258
   38POPC  H17R 5124   0.799   5.874   8.079  3.3943 -1.1802 -1.4997
   38POPC  H17S 5125   0.867   5.713   8.092 -1.2762 -0.1874 -0.2663
   38POPC  C218 5126   0.852   5.809   8.288  0.0939 -0.0432 -0.2657
   38POPC  H18R 5127   0.937   5.881   8.284  1.4109 -1.5503 -3.5467
   38POPC  H18S 5128   0.877   5.712   8.335  1.7123  0.3636 -0.2273
   38POPC  H18T 5129   0.773   5.860   8.347 -0.6473 -4.0163  2.5046
   38POPC   C33 5130  -0.199   4.805   7.004  0.7295 -0.2039  0.0017
   38POPC   H3X 5131  -0.305   4.836   7.020  1.4945  1.7132  1.8114
   38POPC   H3Y 5132  -0.129   4.882   7.043  0.0928 -0.3316  1.4869
   38POPC   C34 5133  -0.173   4.681   7.078 -0.0681  0.1890 -0.2477
   38POPC   H4X 5134  -0.071   4.645   7.054 -0.3366 -0.0582 -1.0670
   38POPC   H4Y 5135  -0.237   4.597   7.041 -0.1024  0.3717 -0.6114
   38POPC   C35 5136  -0.193   4.684   7.231  0.5158  0.9028 -0.2740
   38POPC   H5X 5137  -0.146   4.603   7.291  2.2189  1.3116 -1.0197
   38POPC   H5Y 5138  -0.300   4.671   7.258  0.9293 -1.0644  0.6521
   38POPC   C36 5139  -0.157   4.812   7.303 -0.1014  0.1955 -0.1278
   38POPC   H6X 5140  -0.208   4.896   7.251  0.0420 -0.0846 -0.7254
   38POPC   H6Y 5141  -0.049   4.820   7.279  0.6695  1.9373  3.2758
   38POPC   C37 5142  -0.188   4.809   7.454  0.0305  0.0467 -0.0560
   38POPC   H7X 5143  -0.157   4.716   7.506  0.6602 -0.8143 -1.8868
   38POPC   H7Y 5144  -0.298   4.798   7.463 -0.0149 -1.3594 -1.8628
   38POPC   C38 5145  -0.141   4.931   7.533 -0.1438 -0.1267 -0.0864
   38POPC   H8X 5146  -0.158   5.021   7.470  2.2427 -0.3435 -1.1275
   38POPC   H8Y 5147  -0.031   4.919   7.532  0.2875  2.4641  2.2861
   38POPC   C39 5148  -0.157   4.946   7.680  0.3772  0.9161  0.7843
   38POPC   H9X 5149  -0.104   5.037   7.713  3.5806 -0.7822  0.7040
   38POPC   H9Y 5150  -0.102   4.861   7.726  2.5027  2.0516  0.4371
   38POPC  C310 5151  -0.299   4.926   7.737 -0.1437 -0.1244  0.0658
   38POPC  H10X 5152  -0.332   4.829   7.693 -0.5855 -0.2497  0.6571
   38POPC  H10Y 5153  -0.357   5.013   7.700  3.4340  1.3189 -2.7155
   38POPC  C311 5154  -0.304   4.913   7.889  0.9991 -0.1418 -0.3894
   38POPC  H11X 5155  -0.242   4.996   7.929  2.0162 -0.5473 -1.0659
   38POPC  H11Y 5156  -0.259   4.817   7.923 -0.1218 -0.0274  1.5755
   38POPC  C312 5157  -0.455   4.930   7.935  0.7387 -0.3695 -0.2713
   38POPC  H12X 5158  -0.521   4.850   7.895 -0.2091  0.4030 -0.2788
   38POPC  H12Y 5159  -0.488   5.032   7.906 -1.9433 -0.9748  0.3815
   38POPC  C313 5160  -0.465   4.917   8.089  0.6279  0.1329 -0.1674
   38POPC  H13X 5161  -0.573   4.929   8.113  0.9239 -0.5032  1.5709
   38POPC  H13Y 5162  -0.407   4.999   8.135 -0.6118  1.1589 -0.3597
   38POPC  C314 5163  -0.413   4.782   8.150  0.6514 -0.3561  0.1629
   38POPC  H14X 5164  -0.311   4.793   8.192  0.6955  2.4706 -0.4453
   38POPC  H14Y 5165  -0.408   4.701   8.075 -1.3365 -2.6382  2.3175
   38POPC  C315 5166  -0.498   4.738   8.263 -0.7362 -0.2201 -0.0119
   38POPC  H15X 5167  -0.599   4.703   8.232 -1.4991  0.3551  1.7140
   38POPC  H15Y 5168  -0.521   4.828   8.324  0.1236  2.1081 -2.8958
   38POPC  C316 5169  -0.441   4.632   8.355 -0.0904  0.5182 -0.4791
   38POPC  H16X 5170  -0.472   4.533   8.317 -1.8401 -0.2946  2.6737
   38POPC  H16Y 5171  -0.475   4.632   8.461  0.5855 -2.2946 -0.2015
   38POPC  H16Z 5172  -0.331   4.640   8.365 -0.1003 -0.6588  0.9760
   39POPC     N 5173   4.428   2.607   6.241 -0.1597 -0.0269  0.3335
   39POPC   C12 5174   4.477   2.515   6.128 -0.3128 -0.9341 -0.0965
   39POPC  H12A 5175   4.532   2.566   6.050 -0.8809  0.7413  0.5422
   39POPC  H12B 5176   4.390   2.483   6.073  0.2177  1.7013 -2.7228
   39POPC   C13 5177   4.331   2.703   6.189  0.0186  0.3634  0.6313
   39POPC  H13A 5178   4.382   2.771   6.121  0.3459  0.9778  1.4748
   39POPC  H13B 5179   4.253   2.653   6.134  1.2973  0.9554 -1.8763
   39POPC  H13C 5180   4.302   2.766   6.272 -0.8389  0.3620  0.3399
   39POPC   C14 5181   4.345   2.536   6.351 -0.0083  0.4737  0.1264
   39POPC  H14A 5182   4.401   2.456   6.398  0.7691  1.3635  0.7626
   39POPC  H14B 5183   4.319   2.612   6.423  0.4497  0.6712  0.0878
   39POPC  H14C 5184   4.257   2.493   6.306  0.6375  0.4086 -1.1226
   39POPC   C15 5185   4.544   2.683   6.296  0.0981 -0.2419  0.5456
   39POPC  H15A 5186   4.598   2.742   6.224 -0.4703  0.5348  0.7424
   39POPC  H15B 5187   4.611   2.618   6.350 -0.2081 -0.9952  0.0376
   39POPC  H15C 5188   4.515   2.755   6.371  1.5451  2.0624 -0.9849
   39POPC   C11 5189   4.557   2.394   6.175 -0.5317  0.2011 -1.1614
   39POPC  H11A 5190   4.634   2.426   6.248  0.6032 -2.6242 -1.0097
   39POPC  H11B 5191   4.609   2.346   6.090 -0.4589 -0.2136 -0.8834
   39POPC     P 5192   4.523   2.168   6.278 -0.4702  0.4226  0.0810
   39POPC   O13 5193   4.672   2.161   6.258  0.2709  0.2455 -0.0740
   39POPC   O14 5194   4.456   2.057   6.220  0.4604 -0.0337  0.2872
   39POPC   O12 5195   4.461   2.300   6.227  0.2494 -0.2647  0.1125
   39POPC   O11 5196   4.505   2.163   6.429  0.2584  0.1997 -0.3247
   39POPC    C1 5197   4.535   2.031   6.497  1.1266 -0.5629  0.4706
   39POPC    HA 5198   4.634   1.989   6.469  0.7042 -0.3122 -1.5895
   39POPC    HB 5199   4.459   1.955   6.470 -0.4203  0.6957  1.1255
   39POPC    C2 5200   4.509   2.032   6.650 -0.2529 -0.3721  0.0272
   39POPC    HS 5201   4.479   1.937   6.699  0.3377  0.4546  2.1022
   39POPC   O21 5202   4.415   2.142   6.682 -0.1710 -0.1434  0.6575
   39POPC   C21 5203   4.287   2.118   6.650 -0.0999 -0.4231  0.6667
   39POPC   O22 5204   4.243   2.006   6.630 -0.0582 -0.4739 -0.1182
   39POPC   C22 5205   4.210   2.253   6.638  0.1207 -0.3720  0.2773
   39POPC   H2R 5206   4.103   2.225   6.628  0.4790 -1.0685 -2.8035
   39POPC   H2S 5207   4.250   2.300   6.546 -2.2158  2.0141  0.3706
   39POPC    C3 5208   4.651   2.066   6.711 -0.2273 -0.1479 -0.0770
   39POPC    HX 5209   4.709   2.147   6.662 -0.5542  1.3280  1.8784
   39POPC    HY 5210   4.713   1.975   6.698  0.0771  0.2848 -1.9062
   39POPC   O31 5211   4.638   2.083   6.855  0.2439 -0.0571  0.6193
   39POPC   C31 5212   4.607   2.207   6.903  0.1136 -0.2737  0.7676
   39POPC   O32 5213   4.617   2.306   6.837  0.4088 -0.4431 -0.1599
   39POPC   C32 5214   4.541   2.200   7.042  0.3322  0.2898 -0.5921
   39POPC   H2X 5215   4.431   2.194   7.033  0.1334  1.9736  0.4204
   39POPC   H2Y 5216   4.570   2.099   7.079  1.2893 -0.2779 -2.7192
   39POPC   C23 5217   4.237   2.350   6.750  0.3215  0.1148 -0.6274
   39POPC   H3R 5218   4.200   2.452   6.725 -1.7005 -0.1957  0.9002
   39POPC   H3S 5219   4.344   2.371   6.773 -0.0366  1.3780 -0.0003
   39POPC   C24 5220   4.164   2.323   6.888 -0.0896 -0.1240  0.0448
   39POPC   H4R 5221   4.169   2.212   6.896  1.3824  0.0642  2.9917
   39POPC   H4S 5222   4.061   2.364   6.876  1.0487  2.7694 -0.7721
   39POPC   C25 5223   4.219   2.400   7.010 -0.0564  0.9466 -0.0364
   39POPC   H5R 5224   4.216   2.506   6.976 -0.4403  1.0200  0.2139
   39POPC   H5S 5225   4.322   2.367   7.037 -0.2416  0.2013 -0.2088
   39POPC   C26 5226   4.134   2.376   7.139  0.4166  0.1033 -0.6093
   39POPC   H6R 5227   4.158   2.278   7.186 -0.0836  0.0190 -0.5248
   39POPC   H6S 5228   4.026   2.375   7.112  0.3026  0.6857 -0.1925
   39POPC   C27 5229   4.162   2.489   7.251  0.2235  0.1356  0.1946
   39POPC   H7R 5230   4.113   2.583   7.218  1.7067  2.0759  3.0242
   39POPC   H7S 5231   4.271   2.512   7.247  0.0904  0.9158  0.7398
   39POPC   C28 5232   4.102   2.444   7.385  0.5358  0.0073  0.2336
   39POPC   H8R 5233   4.163   2.362   7.427  0.0193  0.2882  1.5819
   39POPC   H8S 5234   4.001   2.409   7.355  0.2925  1.8899 -1.4216
   39POPC   C29 5235   4.104   2.540   7.504  0.4683 -0.3658  0.4512
   39POPC   H91 5236   4.015   2.604   7.511  1.0396  0.5007 -0.0633
   39POPC  C210 5237   4.185   2.547   7.604 -0.1112  0.1203 -0.7074
   39POPC  H101 5238   4.165   2.620   7.683  1.5048 -1.8690  1.7129
   39POPC  C211 5239   4.305   2.452   7.613  0.1249 -0.2341  0.6475
   39POPC  H11R 5240   4.387   2.498   7.673 -0.2059  1.9174 -0.4563
   39POPC  H11S 5241   4.345   2.432   7.511  1.5865 -1.1647  1.3653
   39POPC  C212 5242   4.274   2.326   7.699 -0.2280  0.1245 -0.3427
   39POPC  H12R 5243   4.366   2.266   7.708  1.2933  2.5798  1.7952
   39POPC  H12S 5244   4.187   2.273   7.653 -1.4310  2.3360 -0.7861
   39POPC  C213 5245   4.218   2.356   7.843  1.2693 -0.1125  0.0210
   39POPC  H13R 5246   4.120   2.408   7.841  1.9374  1.3633  2.2301
   39POPC  H13S 5247   4.291   2.420   7.896 -0.1396 -1.1471  3.4821
   39POPC  C214 5248   4.183   2.238   7.931 -0.2692  0.3154  0.7599
   39POPC  H14R 5249   4.277   2.182   7.945  1.3809  2.6637 -0.2694
   39POPC  H14S 5250   4.107   2.178   7.875  1.5950  0.6769 -2.4103
   39POPC  C215 5251   4.133   2.266   8.066 -0.7659 -0.4541  0.5138
   39POPC  H15R 5252   4.057   2.346   8.054 -2.0345 -1.5897  0.7122
   39POPC  H15S 5253   4.221   2.312   8.117  0.2684  0.4287 -1.9401
   39POPC  C216 5254   4.081   2.135   8.132 -0.6846  0.0559  0.7735
   39POPC  H16R 5255   4.165   2.068   8.161 -1.3466 -0.5747  1.2593
   39POPC  H16S 5256   4.017   2.077   8.062  1.6681 -1.7087 -0.0386
   39POPC  C217 5257   4.012   2.162   8.263  0.1996 -0.0640 -0.3742
   39POPC  H17R 5258   3.924   2.228   8.245 -1.1290 -2.1311 -1.8510
   39POPC  H17S 5259   4.083   2.215   8.331 -1.4427  1.5893  0.1578
   39POPC  C218 5260   3.967   2.034   8.336  0.2671  0.0752  0.0013
   39POPC  H18R 5261   4.045   1.978   8.391  0.4052 -0.2930 -0.5649
   39POPC  H18S 5262   3.917   1.972   8.258  0.8108 -1.5726  0.9125
   39POPC  H18T 5263   3.884   2.058   8.407  0.2384 -1.4714  0.5427
   39POPC   C33 5264   4.577   2.311   7.145 -0.4544 -0.0806 -0.0537
   39POPC   H3X 5265   4.516   2.291   7.236  0.4133  2.3546  1.1556
   39POPC   H3Y 5266   4.556   2.416   7.113  0.7372  0.2011  0.0482
   39POPC   C34 5267   4.720   2.291   7.196  0.1749 -0.6194  0.8197
   39POPC   H4X 5268   4.792   2.309   7.114 -0.8378  2.7698  0.5344
   39POPC   H4Y 5269   4.737   2.184   7.221 -1.0216 -1.0573 -0.1784
   39POPC   C35 5270   4.757   2.383   7.312 -0.5110  0.3135 -0.2937
   39POPC   H5X 5271   4.728   2.489   7.303 -1.3956  0.0822 -0.3101
   39POPC   H5Y 5272   4.867   2.383   7.326 -0.3863 -4.7618  0.6485
   39POPC   C36 5273   4.702   2.335   7.445  0.0572  0.3247  0.6475
   39POPC   H6X 5274   4.712   2.226   7.428  0.4600  0.7946 -2.8834
   39POPC   H6Y 5275   4.593   2.356   7.441 -0.0268 -0.1998  0.0011
   39POPC   C37 5276   4.764   2.394   7.572  0.2380 -0.0120  0.0452
   39POPC   H7X 5277   4.742   2.502   7.586 -1.2619 -0.2204 -0.5225
   39POPC   H7Y 5278   4.874   2.382   7.561  0.1344 -0.4134 -0.6104
   39POPC   C38 5279   4.716   2.324   7.698 -0.2826 -0.0857  0.9560
   39POPC   H8X 5280   4.722   2.214   7.690 -1.6071 -0.3258  2.6846
   39POPC   H8Y 5281   4.608   2.347   7.712 -0.3222  0.1801  0.2696
   39POPC   C39 5282   4.787   2.378   7.821  0.5252  0.2976 -0.6360
   39POPC   H9X 5283   4.765   2.487   7.828 -0.8450 -0.0335  0.8796
   39POPC   H9Y 5284   4.897   2.386   7.808  0.6879  2.3895  1.3675
   39POPC  C310 5285   4.751   2.312   7.954  0.3921 -0.2025 -0.3190
   39POPC  H10X 5286   4.836   2.321   8.025 -0.6419 -0.3736  0.9762
   39POPC  H10Y 5287   4.737   2.203   7.938  1.8620 -0.6995  1.4977
   39POPC  C311 5288   4.624   2.367   8.013  0.1246 -0.4526 -0.9267
   39POPC  H11X 5289   4.540   2.336   7.948  0.4159  1.9548 -2.5686
   39POPC  H11Y 5290   4.642   2.476   8.000  0.6387 -0.5575 -1.1136
   39POPC  C312 5291   4.582   2.330   8.160 -0.3251  0.1040  0.2207
   39POPC  H12X 5292   4.484   2.373   8.189  0.7764  1.7104  1.7398
   39POPC  H12Y 5293   4.659   2.388   8.215  0.4154  0.5368 -1.2068
   39POPC  C313 5294   4.588   2.183   8.203  0.0271  0.0221  0.4045
   39POPC  H13X 5295   4.690   2.152   8.172 -1.6812 -1.8735 -4.0468
   39POPC  H13Y 5296   4.525   2.121   8.136  1.4246  0.7532 -1.6839
   39POPC  C314 5297   4.564   2.155   8.354 -0.3243 -0.0519  0.0341
   39POPC  H14X 5298   4.465   2.193   8.388 -0.0435 -0.3478  1.2242
   39POPC  H14Y 5299   4.650   2.211   8.396 -0.4966  1.3863 -1.4165
   39POPC  C315 5300   4.565   2.006   8.393 -0.1958 -0.3752  0.2124
   39POPC  H15X 5301   4.647   1.952   8.342  0.6407  1.8542 -0.9087
   39POPC  H15Y 5302   4.468   1.970   8.352 -0.6868  1.3493 -0.1937
   39POPC  C316 5303   4.558   1.989   8.544 -0.1777  0.6275 -0.4508
   39POPC  H16X 5304   4.549   1.880   8.566 -1.8010  0.8024 -0.1057
   39POPC  H16Y 5305   4.482   2.037   8.609  0.8329 -1.5285  2.5355
   39POPC  H16Z 5306   4.656   2.021   8.584 -0.1232  0.2750 -0.2959
   40POPC     N 5307   3.417   5.278   5.729  0.2052 -0.2901 -0.0627
   40POPC   C12 5308   3.502   5.247   5.847 -0.6483 -0.2809  0.3361
   40POPC  H12A 5309   3.585   5.316   5.846 -0.0387 -1.0081 -0.8821
   40POPC  H12B 5310   3.548   5.150   5.836 -0.6307 -0.1372 -1.0161
   40POPC   C13 5311   3.500   5.270   5.605  0.0085  0.4472  0.0740
   40POPC  H13A 5312   3.539   5.170   5.591 -1.3395  0.2178 -3.1384
   40POPC  H13B 5313   3.448   5.298   5.514  0.3764  0.4108 -0.1514
   40POPC  H13C 5314   3.582   5.341   5.607  0.6885 -0.3341  0.5134
   40POPC   C14 5315   3.295   5.187   5.704 -0.2375  0.0268 -0.0911
   40POPC  H14A 5316   3.324   5.083   5.700 -2.4246 -0.6038 -0.6132
   40POPC  H14B 5317   3.223   5.185   5.785 -0.8873  1.3141 -0.6206
   40POPC  H14C 5318   3.239   5.212   5.616  0.2621 -1.1356 -0.7726
   40POPC   C15 5319   3.364   5.423   5.746 -0.4556  0.2554 -0.0207
   40POPC  H15A 5320   3.306   5.459   5.662 -0.2951 -0.5191 -0.4719
   40POPC  H15B 5321   3.435   5.500   5.773 -3.5779  3.2408  0.4142
   40POPC  H15C 5322   3.307   5.417   5.838 -1.8698  3.5570 -0.5359
   40POPC   C11 5323   3.441   5.253   5.989  1.0112 -0.6518 -0.1002
   40POPC  H11A 5324   3.486   5.188   6.067 -0.3005 -0.9781  0.4136
   40POPC  H11B 5325   3.337   5.219   5.970 -0.3171  2.9263  0.0987
   40POPC     P 5326   3.547   5.464   6.103  0.1128 -0.2176 -0.2271
   40POPC   O13 5327   3.516   5.610   6.103  0.1381 -0.0473 -0.1572
   40POPC   O14 5328   3.675   5.421   6.038 -0.3498 -0.4381 -0.8188
   40POPC   O12 5329   3.424   5.394   6.027 -0.9435  0.8086  1.0454
   40POPC   O11 5330   3.534   5.409   6.249  0.0067  0.2127 -0.2141
   40POPC    C1 5331   3.401   5.408   6.309 -0.0480  0.3132  0.2954
   40POPC    HA 5332   3.341   5.331   6.256 -0.7109  1.4967 -0.7348
   40POPC    HB 5333   3.344   5.502   6.293  1.6030  1.0766 -1.5155
   40POPC    C2 5334   3.404   5.374   6.462 -0.8669  0.5820  0.0240
   40POPC    HS 5335   3.312   5.318   6.486 -0.5548 -0.1446 -0.4647
   40POPC   O21 5336   3.427   5.493   6.545  0.2253 -0.4547 -0.5113
   40POPC   C21 5337   3.313   5.570   6.559 -0.6249  0.5710  0.0950
   40POPC   O22 5338   3.208   5.534   6.507  0.6401 -0.1217  0.4437
   40POPC   C22 5339   3.349   5.705   6.634 -0.6582  0.1280  0.0876
   40POPC   H2R 5340   3.259   5.770   6.636 -0.2708  0.6651 -0.0285
   40POPC   H2S 5341   3.418   5.758   6.566 -1.1665  0.5883 -0.0766
   40POPC    C3 5342   3.521   5.281   6.488 -0.0622 -0.4390 -0.5779
   40POPC    HX 5343   3.618   5.325   6.456 -0.4377  1.4068  0.6979
   40POPC    HY 5344   3.502   5.194   6.422 -0.2244 -1.4992  0.8290
   40POPC   O31 5345   3.519   5.234   6.621  0.1325 -0.1713 -0.6010
   40POPC   C31 5346   3.606   5.294   6.713  0.0367 -0.6379  0.1453
   40POPC   O32 5347   3.672   5.394   6.686  0.1514  0.7048 -0.5484
   40POPC   C32 5348   3.618   5.220   6.836  0.2241 -0.6740 -0.4665
   40POPC   H2X 5349   3.725   5.190   6.837  0.3726 -0.4010  2.5817
   40POPC   H2Y 5350   3.544   5.138   6.835  0.1525 -0.6075 -0.6035
   40POPC   C23 5351   3.414   5.686   6.771  0.7420  0.3718  0.4116
   40POPC   H3R 5352   3.436   5.786   6.812 -0.1643  0.2025  1.3473
   40POPC   H3S 5353   3.510   5.631   6.760  1.1649  1.0096  0.8766
   40POPC   C24 5354   3.320   5.624   6.874 -0.9146  0.5204  0.1448
   40POPC   H4R 5355   3.303   5.518   6.845 -1.0857  0.1294  1.6019
   40POPC   H4S 5356   3.224   5.677   6.859 -2.7434 -1.7289  2.8064
   40POPC   C25 5357   3.366   5.644   7.022 -0.4697  0.0380  0.2476
   40POPC   H5R 5358   3.364   5.751   7.050 -1.5360 -0.2980  1.5468
   40POPC   H5S 5359   3.469   5.602   7.026 -0.6556 -0.4202  0.3248
   40POPC   C26 5360   3.286   5.575   7.133  0.3926  0.6805  0.5519
   40POPC   H6R 5361   3.327   5.627   7.222  0.3690 -2.1740  2.3433
   40POPC   H6S 5362   3.317   5.468   7.136  0.5561  0.5708 -2.0793
   40POPC   C27 5363   3.134   5.586   7.122  0.3170  0.1932 -0.5658
   40POPC   H7R 5364   3.092   5.535   7.211 -0.1804  3.3545  1.1481
   40POPC   H7S 5365   3.120   5.520   7.034  1.1897 -1.4917  0.5220
   40POPC   C28 5366   3.082   5.723   7.113 -0.1080 -0.0234 -0.1280
   40POPC   H8R 5367   3.141   5.779   7.037 -0.4439  1.3712  0.6052
   40POPC   H8S 5368   3.099   5.785   7.204 -1.5665 -0.8322  0.7204
   40POPC   C29 5369   2.934   5.724   7.070  0.0078  0.0738  0.7800
   40POPC   H91 5370   2.931   5.672   6.973 -2.1785  1.9823 -0.2675
   40POPC  C210 5371   2.840   5.802   7.125 -0.3004 -0.1426  0.1015
   40POPC  H101 5372   2.737   5.807   7.085 -0.2747 -0.1543  0.0336
   40POPC  C211 5373   2.859   5.885   7.254  0.1332 -0.6898  0.0002
   40POPC  H11R 5374   2.872   5.991   7.221  0.2119 -0.2687  1.3123
   40POPC  H11S 5375   2.948   5.864   7.318  2.4800  1.2573 -2.3677
   40POPC  C212 5376   2.735   5.867   7.346  0.1336 -0.7738 -0.2426
   40POPC  H12R 5377   2.747   5.761   7.377 -1.3518 -0.2611  2.2764
   40POPC  H12S 5378   2.640   5.871   7.288  0.2842 -1.3813 -0.5454
   40POPC  C213 5379   2.733   5.947   7.476 -0.0725  0.2379  0.9157
   40POPC  H13R 5380   2.646   6.015   7.469 -1.3472 -1.4441 -0.2264
   40POPC  H13S 5381   2.823   6.009   7.497  0.9557 -1.0896  0.6162
   40POPC  C214 5382   2.711   5.859   7.590 -0.3377 -1.0628 -0.7594
   40POPC  H14R 5383   2.793   5.785   7.600  0.3069 -0.1811  0.7343
   40POPC  H14S 5384   2.615   5.803   7.582 -1.2217  0.1084  1.0555
   40POPC  C215 5385   2.711   5.926   7.732  0.0817 -0.1350  0.5011
   40POPC  H15R 5386   2.637   6.010   7.737 -0.1547 -0.1580 -1.6916
   40POPC  H15S 5387   2.806   5.979   7.751 -0.1070  0.7554 -0.9048
   40POPC  C216 5388   2.687   5.830   7.842 -0.8008  0.3346 -0.1558
   40POPC  H16R 5389   2.775   5.770   7.874  0.2695  1.2012 -1.3719
   40POPC  H16S 5390   2.606   5.763   7.807 -0.9931 -0.5031  1.7523
   40POPC  C217 5391   2.644   5.906   7.964 -0.0843 -0.2649  0.1868
   40POPC  H17R 5392   2.542   5.948   7.949 -0.3426  1.0772  4.4805
   40POPC  H17S 5393   2.712   5.994   7.971 -0.1035  0.0991 -2.8662
   40POPC  C218 5394   2.647   5.818   8.083 -0.3920 -0.4232  0.1721
   40POPC  H18R 5395   2.738   5.756   8.091  0.2289  0.3110 -0.9337
   40POPC  H18S 5396   2.552   5.761   8.083  0.2645 -1.5454 -0.6821
   40POPC  H18T 5397   2.649   5.879   8.176 -3.4876  1.0299 -0.5679
   40POPC   C33 5398   3.606   5.311   6.970 -0.7743 -0.1186 -0.0984
   40POPC   H3X 5399   3.506   5.360   6.972 -0.9478 -0.4890  1.1910
   40POPC   H3Y 5400   3.679   5.394   6.968 -1.6681  0.7295  1.0775
   40POPC   C34 5401   3.643   5.223   7.093  0.2274 -0.5229 -0.3283
   40POPC   H4X 5402   3.753   5.217   7.080  0.4573  0.5775  0.8479
   40POPC   H4Y 5403   3.605   5.119   7.083  0.9684 -0.6041 -3.0574
   40POPC   C35 5404   3.595   5.289   7.232 -0.0736  0.1183  0.3215
   40POPC   H5X 5405   3.631   5.218   7.310  0.5498 -0.0732 -0.1287
   40POPC   H5Y 5406   3.485   5.302   7.226 -0.0221  0.1177 -3.7963
   40POPC   C36 5407   3.655   5.424   7.263 -0.3579 -0.4050 -0.3040
   40POPC   H6X 5408   3.643   5.504   7.187  0.3866  1.5470  1.4969
   40POPC   H6Y 5409   3.763   5.403   7.274 -0.5767 -0.6531  1.9162
   40POPC   C37 5410   3.600   5.483   7.393 -0.5211  0.0228  0.1986
   40POPC   H7X 5411   3.491   5.501   7.381 -0.4646 -0.6263 -1.7114
   40POPC   H7Y 5412   3.638   5.587   7.405 -1.1449  0.5271 -1.8163
   40POPC   C38 5413   3.621   5.389   7.514  0.1397 -0.3322  0.0626
   40POPC   H8X 5414   3.726   5.353   7.505  1.4342  3.0521  0.1904
   40POPC   H8Y 5415   3.548   5.307   7.497 -1.2556  1.0528 -0.9700
   40POPC   C39 5416   3.597   5.470   7.646  0.6403  0.4748  0.1559
   40POPC   H9X 5417   3.487   5.481   7.659  0.5400 -1.3265  1.2243
   40POPC   H9Y 5418   3.653   5.565   7.639  1.7391 -0.1019  0.7643
   40POPC  C310 5419   3.656   5.396   7.767 -0.3981  0.3448  0.3913
   40POPC  H10X 5420   3.763   5.381   7.743 -1.1459 -1.8188 -2.0700
   40POPC  H10Y 5421   3.622   5.291   7.772  1.2309 -0.5253 -3.2358
   40POPC  C311 5422   3.626   5.471   7.897  1.1389  0.0080 -0.1512
   40POPC  H11X 5423   3.526   5.434   7.931  0.5286  1.5815 -0.1596
   40POPC  H11Y 5424   3.610   5.576   7.866  1.6914  0.5374  1.2971
   40POPC  C312 5425   3.735   5.460   8.000 -0.6003 -0.3252  0.2794
   40POPC  H12X 5426   3.724   5.552   8.061  0.6881  0.3771 -0.5071
   40POPC  H12Y 5427   3.827   5.474   7.940 -2.2816 -1.3241 -2.7101
   40POPC  C313 5428   3.731   5.337   8.092 -0.2325  0.1363 -0.9593
   40POPC  H13X 5429   3.708   5.245   8.035  0.2500 -0.3275 -0.4241
   40POPC  H13Y 5430   3.641   5.351   8.155 -0.9255 -2.1689 -1.3696
   40POPC  C314 5431   3.860   5.309   8.176  0.1273 -0.3817  0.2484
   40POPC  H14X 5432   3.886   5.405   8.226 -1.6705  0.3112 -0.0982
   40POPC  H14Y 5433   3.940   5.291   8.101 -0.4746  2.0006 -1.0730
   40POPC  C315 5434   3.837   5.202   8.275 -0.3414  0.0701  0.3458
   40POPC  H15X 5435   3.935   5.151   8.291  0.7537  2.2822  1.0630
   40POPC  H15Y 5436   3.757   5.135   8.236 -2.0211  2.3168 -0.2288
   40POPC  C316 5437   3.796   5.248   8.410  0.1790  0.0623  0.7247
   40POPC  H16X 5438   3.785   5.171   8.489 -1.1363 -0.8104 -0.2663
   40POPC  H16Y 5439   3.704   5.309   8.402  1.5304  1.9376 -2.9581
   40POPC  H16Z 5440   3.873   5.316   8.454 -1.3675  0.6633  2.6466
   41CHL1    C3 5441   2.251   3.627  10.072  0.7025  0.2351 -0.5698
   41CHL1    H3 5442   2.353   3.587  10.053  0.6291  0.1172 -0.7215
   41CHL1    O3 5443   2.241   3.660  10.217 -0.0668 -0.2441  0.0973
   41CHL1   H3' 5444   2.161   3.616  10.247 -1.2077  0.9157 -1.1382
   41CHL1    C4 5445   2.254   3.759   9.985 -0.5281 -0.1440 -0.4776
   41CHL1   H4A 5446   2.169   3.825  10.014 -0.7466 -0.2924 -0.7735
   41CHL1   H4B 5447   2.342   3.820  10.014 -2.1381  1.5366  1.1282
   41CHL1    C5 5448   2.251   3.733   9.832 -0.1792  0.3492 -0.9436
   41CHL1    C6 5449   2.335   3.802   9.755 -0.5269 -0.3617  0.1243
   41CHL1    H6 5450   2.411   3.868   9.799  1.7713 -3.3649  1.0154
   41CHL1    C7 5451   2.339   3.788   9.603 -0.4950  0.3078  0.1301
   41CHL1   H7A 5452   2.356   3.885   9.553 -0.6172 -0.1274 -0.7728
   41CHL1   H7B 5453   2.424   3.719   9.582  0.5455  0.8535  2.2406
   41CHL1    C8 5454   2.215   3.715   9.554 -0.0140 -0.6517 -0.2754
   41CHL1    H8 5455   2.127   3.782   9.556 -0.1187 -0.7974 -0.0666
   41CHL1   C14 5456   2.247   3.673   9.405 -0.0244 -0.4501 -0.1122
   41CHL1   H14 5457   2.328   3.601   9.430  1.9024  1.4652 -0.4802
   41CHL1   C15 5458   2.308   3.775   9.307  1.1745 -0.0769 -0.1957
   41CHL1  H15A 5459   2.250   3.869   9.320  0.5411 -0.5665  0.6143
   41CHL1  H15B 5460   2.412   3.806   9.334  1.0866  2.0760 -1.9870
   41CHL1   C16 5461   2.307   3.684   9.180 -0.0306 -0.0474  0.0772
   41CHL1  H16A 5462   2.264   3.754   9.105 -0.4193  0.2099  0.5323
   41CHL1  H16B 5463   2.412   3.666   9.149 -0.0296  0.5201 -0.2774
   41CHL1   C17 5464   2.229   3.561   9.209  0.3583 -0.7549 -0.1924
   41CHL1   H17 5465   2.301   3.481   9.235  1.3335 -0.1447 -0.9398
   41CHL1   C13 5466   2.150   3.584   9.334 -0.0524  0.1428  0.6195
   41CHL1   C18 5467   2.025   3.675   9.286 -0.0967  0.9388 -0.0541
   41CHL1  H18A 5468   1.972   3.708   9.378 -0.5913 -0.1188  0.0524
   41CHL1  H18B 5469   2.053   3.766   9.229  1.5456 -0.5480 -1.7299
   41CHL1  H18C 5470   1.960   3.611   9.223  0.6688  0.2484 -0.1626
   41CHL1   C12 5471   2.115   3.463   9.423  0.0091  0.4106 -0.3627
   41CHL1  H12A 5472   2.026   3.418   9.375  1.1296  0.3484 -2.5204
   41CHL1  H12B 5473   2.195   3.387   9.428 -0.0767  0.3290 -0.2381
   41CHL1   C11 5474   2.076   3.508   9.568  0.5789  0.4150 -0.0591
   41CHL1  H11A 5475   1.982   3.565   9.551 -0.1298 -0.9304 -0.8254
   41CHL1  H11B 5476   2.047   3.418   9.626 -1.0229  2.1166  1.9647
   41CHL1    C9 5477   2.183   3.592   9.634 -0.3358  0.1671 -0.2865
   41CHL1    H9 5478   2.278   3.534   9.634 -0.1987  0.3192 -2.1128
   41CHL1   C10 5479   2.153   3.627   9.781 -1.1460  0.4277 -0.7710
   41CHL1   C19 5480   2.013   3.679   9.796 -0.5472  0.1731 -0.2475
   41CHL1  H19A 5481   1.981   3.756   9.723 -0.1735 -0.8488 -1.5304
   41CHL1  H19B 5482   1.947   3.590   9.791  2.3262 -2.0423 -1.4162
   41CHL1  H19C 5483   2.001   3.729   9.894  0.1076  0.2089 -0.1826
   41CHL1    C1 5484   2.175   3.494   9.867  0.2199 -0.0389 -0.4359
   41CHL1   H1A 5485   2.101   3.416   9.839  1.8137 -1.3744 -1.1365
   41CHL1   H1B 5486   2.276   3.450   9.853  1.0927  0.3803  3.3852
   41CHL1    C2 5487   2.154   3.521  10.022 -0.6726  0.0310 -0.0094
   41CHL1   H2A 5488   2.150   3.425  10.077 -2.5838  0.5358  0.8259
   41CHL1   H2B 5489   2.051   3.561  10.029 -0.3579  0.8498  0.0413
   41CHL1   C20 5490   2.166   3.512   9.078 -0.2281 -0.2824 -0.3631
   41CHL1   H20 5491   2.084   3.580   9.045 -0.3189 -0.8633 -1.3653
   41CHL1   C21 5492   2.096   3.374   9.113 -0.9726  0.2932  0.4910
   41CHL1  H21A 5493   2.151   3.306   9.182 -0.1560  0.1913 -0.2478
   41CHL1  H21B 5494   2.086   3.319   9.017 -0.0532 -0.3976  0.7703
   41CHL1  H21C 5495   1.991   3.385   9.149 -1.3539 -2.0313  0.3049
   41CHL1   C22 5496   2.260   3.517   8.953  0.7345  0.8050  0.2105
   41CHL1  H22A 5497   2.200   3.489   8.864 -1.5345  1.1121  1.5396
   41CHL1  H22B 5498   2.306   3.614   8.926 -1.9721  1.7910 -1.2328
   41CHL1   C23 5499   2.375   3.413   8.963 -0.1366 -0.1406  0.4253
   41CHL1  H23A 5500   2.440   3.440   9.049  0.2592 -0.7846  0.3321
   41CHL1  H23B 5501   2.332   3.318   9.000  0.7203 -0.5843  0.2969
   41CHL1   C24 5502   2.459   3.383   8.833  0.8049 -1.0137 -0.4442
   41CHL1  H24A 5503   2.385   3.377   8.751 -1.5447  1.3114  1.3244
   41CHL1  H24B 5504   2.521   3.469   8.799 -1.2421 -0.0040 -1.8073
   41CHL1   C25 5505   2.559   3.261   8.843  0.5205 -0.2055 -0.7857
   41CHL1   H25 5506   2.620   3.277   8.935 -1.4291 -0.4866  0.6327
   41CHL1   C26 5507   2.481   3.132   8.866 -0.2555  0.6691 -0.0271
   41CHL1  H26A 5508   2.552   3.050   8.886 -2.2262 -0.8898  0.9515
   41CHL1  H26B 5509   2.414   3.131   8.955 -1.8403  0.6489 -1.1761
   41CHL1  H26C 5510   2.410   3.111   8.783  0.0516  1.0251 -0.3870
   41CHL1   C27 5511   2.654   3.252   8.728 -0.7069 -0.1189 -0.1507
   41CHL1  H27A 5512   2.613   3.223   8.629  0.1808 -2.2839  0.0595
   41CHL1  H27B 5513   2.709   3.347   8.712 -1.0233  0.2746  0.9570
   41CHL1  H27C 5514   2.722   3.171   8.761 -2.2214 -1.0156  0.9288
   42CHL1    C3 5515   0.773   3.161   9.965 -0.1121 -0.4086 -0.3594
   42CHL1    H3 5516   0.694   3.083   9.962  1.5937 -2.1800 -0.3328
   42CHL1    O3 5517   0.816   3.173  10.099 -0.0768  0.0135  0.8282
   42CHL1   H3' 5518   0.911   3.186  10.104 -0.0376 -0.0919  0.3464
   42CHL1    C4 5519   0.888   3.109   9.877 -0.7729 -0.6329 -0.5689
   42CHL1   H4A 5520   0.969   3.185   9.884 -0.7542 -0.7737  1.1854
   42CHL1   H4B 5521   0.922   3.014   9.924  0.1673 -0.3582 -0.6653
   42CHL1    C5 5522   0.841   3.089   9.738 -0.6739 -0.3902 -0.8721
   42CHL1    C6 5523   0.868   2.973   9.680 -0.9475 -0.9045  0.0572
   42CHL1    H6 5524   0.921   2.895   9.736 -0.5586 -0.6125  0.0921
   42CHL1    C7 5525   0.843   2.959   9.534  0.6373 -0.2720 -0.0914
   42CHL1   H7A 5526   0.929   2.906   9.488  1.0708  0.3843 -0.0520
   42CHL1   H7B 5527   0.756   2.891   9.529  0.7062 -0.3203 -0.6358
   42CHL1    C8 5528   0.813   3.084   9.451  0.4159  0.5558 -0.6157
   42CHL1    H8 5529   0.917   3.123   9.437  1.2105 -1.2717 -0.0849
   42CHL1   C14 5530   0.742   3.044   9.326  0.2078 -0.4341  0.0628
   42CHL1   H14 5531   0.643   3.007   9.361 -0.3689  1.6167  0.7173
   42CHL1   C15 5532   0.803   2.933   9.238  0.5922  0.6270  0.3973
   42CHL1  H15A 5533   0.913   2.932   9.244  0.5412 -0.8023  1.6052
   42CHL1  H15B 5534   0.749   2.840   9.269 -0.1351  1.0944  0.5765
   42CHL1   C16 5535   0.756   2.973   9.097  0.1351  0.7390  0.3667
   42CHL1  H16A 5536   0.845   3.005   9.039 -0.9245 -0.9888 -2.3942
   42CHL1  H16B 5537   0.718   2.881   9.048 -0.3122  0.6283  0.9127
   42CHL1   C17 5538   0.654   3.083   9.117  0.1664 -0.2759 -0.4122
   42CHL1   H17 5539   0.563   3.030   9.151 -0.4239  0.7145 -0.4197
   42CHL1   C13 5540   0.705   3.167   9.243  0.4754 -0.2911  0.0350
   42CHL1   C18 5541   0.826   3.257   9.207 -1.1855 -0.3742 -0.5555
   42CHL1  H18A 5542   0.899   3.203   9.142 -0.4690  2.0715 -1.9342
   42CHL1  H18B 5543   0.791   3.348   9.154  0.8004  0.4301 -0.5663
   42CHL1  H18C 5544   0.877   3.283   9.302 -2.2705  0.5735 -0.2220
   42CHL1   C12 5545   0.598   3.249   9.320  0.3887 -0.2540  0.3881
   42CHL1  H12A 5546   0.560   3.328   9.252  0.9338  0.1656  0.5635
   42CHL1  H12B 5547   0.508   3.191   9.346 -0.1768  1.0367  1.3908
   42CHL1   C11 5548   0.655   3.293   9.458 -0.2751  0.4259 -0.0662
   42CHL1  H11A 5549   0.734   3.370   9.446 -0.9442  1.2116  0.4134
   42CHL1  H11B 5550   0.573   3.340   9.516  0.8212  1.3580  0.7894
   42CHL1    C9 5551   0.718   3.173   9.537  0.2713  0.5101  0.3773
   42CHL1    H9 5552   0.637   3.098   9.553  1.4632 -1.1635 -1.0893
   42CHL1   C10 5553   0.783   3.212   9.667  0.0900  0.3553  1.0323
   42CHL1   C19 5554   0.897   3.314   9.646 -0.4524  0.7324  0.1668
   42CHL1  H19A 5555   0.869   3.408   9.594  0.8677  0.8031 -0.4656
   42CHL1  H19B 5556   0.932   3.356   9.743 -0.6194  0.8699  0.1672
   42CHL1  H19C 5557   0.991   3.287   9.593  0.7208  1.1366  1.9425
   42CHL1    C1 5558   0.670   3.270   9.755 -0.1299  0.4756 -0.0853
   42CHL1   H1A 5559   0.656   3.374   9.718  2.9356  0.7492 -0.7696
   42CHL1   H1B 5560   0.577   3.209   9.745  0.5935 -0.5882 -0.5923
   42CHL1    C2 5561   0.722   3.295   9.901  0.5049  0.3194 -0.7342
   42CHL1   H2A 5562   0.639   3.338   9.962 -1.7254 -2.4392 -1.5684
   42CHL1   H2B 5563   0.794   3.379   9.896  1.4776 -0.2878  1.6597
   42CHL1   C20 5564   0.605   3.155   8.994  0.0025 -0.7664 -0.2476
   42CHL1   H20 5565   0.531   3.230   9.030  0.2259 -0.5487 -0.2345
   42CHL1   C21 5566   0.526   3.059   8.910 -0.2271  0.0960 -0.2176
   42CHL1  H21A 5567   0.472   3.110   8.828  1.3360  0.7707 -0.8708
   42CHL1  H21B 5568   0.450   3.002   8.967  1.0264 -0.0772  1.3703
   42CHL1  H21C 5569   0.593   2.988   8.857  0.6864  0.3509  0.5700
   42CHL1   C22 5570   0.708   3.228   8.902 -0.5082  0.3136 -0.2873
   42CHL1  H22A 5571   0.751   3.311   8.963 -0.3660  0.6600 -0.8537
   42CHL1  H22B 5572   0.795   3.163   8.880  1.2108  1.9237  1.3343
   42CHL1   C23 5573   0.656   3.293   8.770  0.4269 -0.2698 -0.2530
   42CHL1  H23A 5574   0.615   3.213   8.704 -1.8372  0.5861  0.0007
   42CHL1  H23B 5575   0.572   3.354   8.809  0.5092 -1.2481  1.5492
   42CHL1   C24 5576   0.747   3.389   8.692 -0.3635 -0.7698  0.1326
   42CHL1  H24A 5577   0.802   3.462   8.756 -0.2962  0.5287 -1.3387
   42CHL1  H24B 5578   0.823   3.331   8.635  0.4089 -1.8128  2.1257
   42CHL1   C25 5579   0.672   3.490   8.585  0.3347 -0.5754  0.0165
   42CHL1   H25 5580   0.602   3.429   8.524 -2.7283  1.5960  1.1243
   42CHL1   C26 5581   0.577   3.584   8.665 -0.4346 -0.6170  0.5292
   42CHL1  H26A 5582   0.514   3.520   8.730 -0.3404 -0.8183  0.4241
   42CHL1  H26B 5583   0.624   3.664   8.727 -0.2452 -1.0126  0.9045
   42CHL1  H26C 5584   0.524   3.637   8.584 -0.0888 -0.7041  0.2432
   42CHL1   C27 5585   0.772   3.555   8.485  1.1613 -0.0778  0.2955
   42CHL1  H27A 5586   0.725   3.609   8.400  0.8822 -0.7196  0.0363
   42CHL1  H27B 5587   0.820   3.632   8.548 -0.3902 -0.1156  1.5930
   42CHL1  H27C 5588   0.843   3.482   8.442  0.4990 -0.0794 -0.8365
   43CHL1    C3 5589   1.038   3.942   9.904 -0.2737 -0.4196 -0.5628
   43CHL1    H3 5590   1.086   4.038   9.874 -0.9292 -0.0262 -0.3574
   43CHL1    O3 5591   1.078   3.934  10.038 -0.1507 -0.3731  0.8341
   43CHL1   H3' 5592   1.126   3.851  10.050 -3.4707 -3.0618 -2.1737
   43CHL1    C4 5593   0.890   3.954   9.914  0.9817 -0.0920  0.0255
   43CHL1   H4A 5594   0.856   3.868   9.975  2.3290 -1.2771 -0.8492
   43CHL1   H4B 5595   0.864   4.053   9.956  0.1889  0.8832 -2.5223
   43CHL1    C5 5596   0.822   3.943   9.776 -0.1715 -0.6799  0.6527
   43CHL1    C6 5597   0.734   4.034   9.725 -0.6057  0.1907 -0.0290
   43CHL1    H6 5598   0.709   4.119   9.790 -0.0297  0.1106  0.3054
   43CHL1    C7 5599   0.661   4.024   9.594 -0.1891  0.7718 -0.0528
   43CHL1   H7A 5600   0.570   4.087   9.594 -0.0077  1.0837  1.7352
   43CHL1   H7B 5601   0.720   4.077   9.516  0.8080  1.5076  1.1842
   43CHL1    C8 5602   0.655   3.873   9.544 -0.2469 -0.4888 -0.2118
   43CHL1    H8 5603   0.587   3.819   9.613  0.0771 -0.9728 -0.2688
   43CHL1   C14 5604   0.594   3.878   9.401  0.1738 -0.3158 -0.1320
   43CHL1   H14 5605   0.664   3.941   9.342  0.8648 -0.7740  0.1843
   43CHL1   C15 5606   0.462   3.953   9.370  0.8441  0.1024 -0.2168
   43CHL1  H15A 5607   0.386   3.910   9.439  2.4599 -0.5484  1.2207
   43CHL1  H15B 5608   0.468   4.063   9.384 -0.8473  0.1798  0.1281
   43CHL1   C16 5609   0.432   3.913   9.226  0.1384  0.2806 -0.3644
   43CHL1  H16A 5610   0.328   3.878   9.214 -1.0154  3.5289 -0.6695
   43CHL1  H16B 5611   0.447   3.993   9.150  0.4898  0.8879  0.3326
   43CHL1   C17 5612   0.531   3.803   9.184 -0.3376 -0.9045 -0.2056
   43CHL1   H17 5613   0.615   3.856   9.134 -1.2969  2.6904  1.6670
   43CHL1   C13 5614   0.593   3.746   9.318  0.5560  0.1573 -0.1644
   43CHL1   C18 5615   0.489   3.650   9.379  0.1978  0.1504  0.2407
   43CHL1  H18A 5616   0.522   3.629   9.483  1.0928 -1.6154 -0.3698
   43CHL1  H18B 5617   0.386   3.691   9.376 -0.3364 -1.0410  1.3027
   43CHL1  H18C 5618   0.495   3.551   9.329  0.6852  1.4142 -2.3477
   43CHL1   C12 5619   0.742   3.695   9.324  0.8021  0.1334  0.0410
   43CHL1  H12A 5620   0.751   3.589   9.290 -1.1345 -0.3695  0.9335
   43CHL1  H12B 5621   0.785   3.762   9.247 -1.0705  1.1026 -0.2125
   43CHL1   C11 5622   0.815   3.691   9.463 -0.3507  0.4106  0.3207
   43CHL1  H11A 5623   0.757   3.613   9.516 -0.8350  0.6714  0.1899
   43CHL1  H11B 5624   0.922   3.667   9.443 -0.2101  1.0350  0.2934
   43CHL1    C9 5625   0.794   3.818   9.550  0.6786 -0.5458 -0.3285
   43CHL1    H9 5626   0.854   3.897   9.501 -1.2172 -0.7023 -3.0996
   43CHL1   C10 5627   0.863   3.814   9.694 -0.2283 -0.4373 -1.1135
   43CHL1   C19 5628   0.805   3.690   9.766 -0.2934  0.2127 -0.0712
   43CHL1  H19A 5629   0.694   3.679   9.763 -0.4194  1.2081  0.4275
   43CHL1  H19B 5630   0.863   3.608   9.719  1.3413  1.2986 -0.0172
   43CHL1  H19C 5631   0.849   3.687   9.868  1.4858  2.2992 -0.7070
   43CHL1    C1 5632   1.026   3.821   9.694  0.5278 -0.9044  0.4595
   43CHL1   H1A 5633   1.057   3.725   9.647  1.2480  0.1634 -1.3555
   43CHL1   H1B 5634   1.079   3.900   9.637  3.4885 -1.3550  2.3776
   43CHL1    C2 5635   1.088   3.818   9.829 -0.5902  0.2391 -0.3558
   43CHL1   H2A 5636   1.198   3.821   9.817 -0.2773 -1.0165  1.7786
   43CHL1   H2B 5637   1.062   3.731   9.894  4.1872  0.6444  2.5024
   43CHL1   C20 5638   0.458   3.697   9.092  0.2644 -0.1044  0.0547
   43CHL1   H20 5639   0.378   3.647   9.150  1.4001  1.1070  2.9102
   43CHL1   C21 5640   0.552   3.584   9.048  0.5303  0.3817  0.7753
   43CHL1  H21A 5641   0.618   3.549   9.131  0.4613 -0.3943  0.5102
   43CHL1  H21B 5642   0.614   3.631   8.969  0.0087 -0.8571 -0.4085
   43CHL1  H21C 5643   0.497   3.497   9.007  1.5771 -1.2114  2.5654
   43CHL1   C22 5644   0.387   3.756   8.969 -0.7459 -0.3159 -0.0348
   43CHL1  H22A 5645   0.431   3.854   8.941 -0.5584 -0.3708  0.0659
   43CHL1  H22B 5646   0.415   3.703   8.875 -3.7504  1.4351 -2.0761
   43CHL1   C23 5647   0.235   3.746   8.969  0.1251 -0.4921 -0.3236
   43CHL1  H23A 5648   0.205   3.642   8.991 -0.4588 -0.7746 -2.3255
   43CHL1  H23B 5649   0.196   3.814   9.049  1.6636 -0.8212  0.7403
   43CHL1   C24 5650   0.171   3.793   8.836  0.9961 -0.5495 -0.6821
   43CHL1  H24A 5651   0.221   3.886   8.801  0.2835  0.7418  1.5516
   43CHL1  H24B 5652   0.181   3.728   8.747 -2.0217  0.1988 -1.6948
   43CHL1   C25 5653   0.016   3.809   8.848 -0.2115 -0.1935 -0.0284
   43CHL1   H25 5654  -0.005   3.857   8.947  0.3906  1.0903 -0.5016
   43CHL1   C26 5655  -0.038   3.905   8.744  0.2257 -0.1594 -0.2498
   43CHL1  H26A 5656   0.019   4.000   8.749 -0.0433  0.2149 -2.8409
   43CHL1  H26B 5657  -0.016   3.871   8.640  0.4973  0.3642 -0.3643
   43CHL1  H26C 5658  -0.147   3.929   8.743  0.6763  2.1282 -0.8199
   43CHL1   C27 5659  -0.058   3.673   8.846  0.4087 -0.2501  0.6866
   43CHL1  H27A 5660  -0.163   3.679   8.879  0.2486 -1.5551  0.4697
   43CHL1  H27B 5661  -0.046   3.638   8.741 -0.9623  1.2144  0.0035
   43CHL1  H27C 5662  -0.010   3.598   8.914 -0.6293 -0.3411  1.3319
   44CHL1    C3 5663   3.184   0.824  10.183  0.4045 -0.5368 -0.8570
   44CHL1    H3 5664   3.080   0.785  10.174 -0.0018  0.5331 -1.0790
   44CHL1    O3 5665   3.212   0.833  10.322 -0.6479 -0.2181  0.0926
   44CHL1   H3' 5666   3.306   0.852  10.323 -0.8922  1.1765 -0.4184
   44CHL1    C4 5667   3.268   0.721  10.107 -0.4692  0.2955 -0.6078
   44CHL1   H4A 5668   3.376   0.740  10.122  0.5823 -1.9419 -4.1382
   44CHL1   H4B 5669   3.247   0.622  10.153  1.1832 -1.2763 -3.0274
   44CHL1    C5 5670   3.224   0.713   9.961 -0.0932 -0.3658  0.1130
   44CHL1    C6 5671   3.176   0.599   9.916  0.4403 -0.1682  0.1131
   44CHL1    H6 5672   3.169   0.512   9.983  0.2586 -0.7409 -0.6413
   44CHL1    C7 5673   3.126   0.591   9.773  0.2884 -0.4419  1.1019
   44CHL1   H7A 5674   3.168   0.502   9.722  0.2567 -0.1720  0.5940
   44CHL1   H7B 5675   3.016   0.597   9.779  0.2874 -0.4626  1.1019
   44CHL1    C8 5676   3.179   0.707   9.687 -0.4527 -0.1140 -0.1672
   44CHL1    H8 5677   3.288   0.694   9.673 -0.6194 -0.8172 -0.8992
   44CHL1   C14 5678   3.114   0.712   9.548 -0.3782  0.6059  0.2145
   44CHL1   H14 5679   3.007   0.723   9.574 -1.4396 -3.8809 -1.3074
   44CHL1   C15 5680   3.105   0.590   9.459 -0.3278  0.3593  0.1012
   44CHL1  H15A 5681   3.201   0.534   9.459  0.0347  0.9653  0.1185
   44CHL1  H15B 5682   3.024   0.522   9.492  0.2930 -1.2077 -1.4851
   44CHL1   C16 5683   3.080   0.639   9.318 -0.2853  0.3901  0.9942
   44CHL1  H16A 5684   3.164   0.608   9.253 -1.3029  1.5979 -0.9902
   44CHL1  H16B 5685   2.990   0.594   9.270  0.6830 -2.2419  1.4458
   44CHL1   C17 5686   3.083   0.794   9.329 -0.5137  0.3746 -0.0629
   44CHL1   H17 5687   2.981   0.839   9.338 -0.8097 -0.3184  0.0949
   44CHL1   C13 5688   3.154   0.827   9.464  0.0340  0.7459 -0.1297
   44CHL1   C18 5689   3.308   0.815   9.438 -0.1775 -1.2409  0.1469
   44CHL1  H18A 5690   3.331   0.713   9.400 -1.3442 -0.7833 -1.9518
   44CHL1  H18B 5691   3.349   0.902   9.383  0.0230 -0.1134  1.9908
   44CHL1  H18C 5692   3.360   0.828   9.535  3.0315 -0.6076 -1.5324
   44CHL1   C12 5693   3.109   0.955   9.538  0.4448  0.5380  0.2439
   44CHL1  H12A 5694   3.139   1.048   9.485  0.0823  1.2331  1.2356
   44CHL1  H12B 5695   2.998   0.954   9.528  0.4864  0.5836 -0.2639
   44CHL1   C11 5696   3.174   0.965   9.669  0.0661  0.2700 -0.6956
   44CHL1  H11A 5697   3.280   0.988   9.649 -0.0347  0.8459 -0.5678
   44CHL1  H11B 5698   3.124   1.048   9.722  0.0372  0.3278 -0.8124
   44CHL1    C9 5699   3.150   0.842   9.760 -0.2847 -0.2353 -0.0179
   44CHL1    H9 5700   3.041   0.829   9.780 -0.9263 -0.1614 -2.9796
   44CHL1   C10 5701   3.227   0.850   9.889 -0.3044  0.4323  0.0760
   44CHL1   C19 5702   3.380   0.899   9.871  0.4968  0.1293 -0.3790
   44CHL1  H19A 5703   3.438   0.868   9.960  0.5729 -1.1082 -0.8445
   44CHL1  H19B 5704   3.425   0.845   9.785  1.1902 -0.9030  0.6151
   44CHL1  H19C 5705   3.386   1.008   9.848 -1.4289  0.2463 -0.5227
   44CHL1    C1 5706   3.157   0.953   9.982  0.0481  0.0354  0.7190
   44CHL1   H1A 5707   3.195   1.047   9.937  0.8336 -1.1183 -1.1329
   44CHL1   H1B 5708   3.048   0.942   9.965 -0.2496  2.8982  0.3231
   44CHL1    C2 5709   3.198   0.959  10.129 -0.6916 -0.0866  0.4011
   44CHL1   H2A 5710   3.150   1.045  10.181  1.4326  1.1083  0.5069
   44CHL1   H2B 5711   3.304   0.991  10.139 -0.4599 -1.2403  1.9544
   44CHL1   C20 5712   3.144   0.853   9.196  0.0946 -0.3667 -0.6780
   44CHL1   H20 5713   3.253   0.828   9.196  0.2009 -0.0838  1.2315
   44CHL1   C21 5714   3.125   1.006   9.195 -0.1124 -0.1758 -0.0370
   44CHL1  H21A 5715   3.016   1.026   9.208  0.1612  1.0575  0.5021
   44CHL1  H21B 5716   3.163   1.049   9.100  1.3773  1.2219  1.1323
   44CHL1  H21C 5717   3.175   1.039   9.289  0.5173 -0.3447 -0.3095
   44CHL1   C22 5718   3.078   0.802   9.067 -0.0459 -0.2073 -0.2381
   44CHL1  H22A 5719   3.059   0.692   9.060 -0.3999 -0.0783 -1.7637
   44CHL1  H22B 5720   2.975   0.843   9.066 -0.7516 -1.8658  0.6495
   44CHL1   C23 5721   3.159   0.816   8.935  0.0095  0.1189 -0.7544
   44CHL1  H23A 5722   3.185   0.924   8.933  1.8273 -0.2805 -1.2670
   44CHL1  H23B 5723   3.252   0.757   8.950  1.2709  2.3942  1.0587
   44CHL1   C24 5724   3.085   0.767   8.809  0.4539  0.4540 -0.2070
   44CHL1  H24A 5725   3.060   0.659   8.819  1.6558  0.3860  3.3244
   44CHL1  H24B 5726   2.990   0.826   8.805 -0.6616 -1.0299  2.0935
   44CHL1   C25 5727   3.164   0.791   8.675 -0.4181  0.2278  0.5337
   44CHL1   H25 5728   3.234   0.871   8.707 -2.2693  1.7131  1.1054
   44CHL1   C26 5729   3.254   0.672   8.631  0.1638  0.1718  0.5171
   44CHL1  H26A 5730   3.308   0.616   8.710 -2.3556 -1.9188  0.9233
   44CHL1  H26B 5731   3.188   0.600   8.578  0.8003 -1.1121  1.4049
   44CHL1  H26C 5732   3.328   0.723   8.566 -0.3580  0.5470  0.2109
   44CHL1   C27 5733   3.074   0.838   8.563 -0.4118  0.2191  0.8947
   44CHL1  H27A 5734   3.032   0.934   8.600  2.0272  1.4576  0.6734
   44CHL1  H27B 5735   3.132   0.865   8.473  2.9934 -0.8950  2.5706
   44CHL1  H27C 5736   2.995   0.764   8.540 -2.3720  2.8741 -1.7020
   45CHL1    C3 5737   5.288   4.182  10.179  0.0891 -1.0025 -0.2476
   45CHL1    H3 5738   5.199   4.116  10.183 -0.0802 -0.7778 -0.2508
   45CHL1    O3 5739   5.352   4.196  10.308  0.0673  0.1180  0.0492
   45CHL1   H3' 5740   5.364   4.291  10.306  0.1185  0.1033 -1.9020
   45CHL1    C4 5741   5.392   4.111  10.095  0.2564 -0.5902 -0.0824
   45CHL1   H4A 5742   5.490   4.164  10.100  0.5563 -1.1580  0.1675
   45CHL1   H4B 5743   5.406   4.013  10.146 -0.5276  0.0561  1.4619
   45CHL1    C5 5744   5.353   4.111   9.948 -0.6243 -0.2267 -0.8231
   45CHL1    C6 5745   5.337   3.998   9.873 -0.1405  0.0377  0.0995
   45CHL1    H6 5746   5.352   3.899   9.919  0.2647  1.0269  2.2205
   45CHL1    C7 5747   5.318   3.995   9.722 -0.2417  0.3906  0.0670
   45CHL1   H7A 5748   5.409   3.935   9.696  0.4696  0.7409  1.6297
   45CHL1   H7B 5749   5.234   3.932   9.686 -0.2238 -0.7822  1.9637
   45CHL1    C8 5750   5.330   4.126   9.642  0.2089  0.1164 -0.0309
   45CHL1    H8 5751   5.263   4.118   9.555  1.8012  0.0842 -1.3060
   45CHL1   C14 5752   5.456   4.158   9.569 -0.0452 -0.0233  0.0648
   45CHL1   H14 5753   5.538   4.166   9.644  0.0268  1.5771 -0.1466
   45CHL1   C15 5754   5.482   4.056   9.459  0.4814 -0.4190  0.2575
   45CHL1  H15A 5755   5.591   4.034   9.447  0.3621 -0.2792 -1.2758
   45CHL1  H15B 5756   5.438   3.956   9.478  1.2015 -0.9979 -0.9574
   45CHL1   C16 5757   5.434   4.120   9.328  0.6676 -0.4655  0.9720
   45CHL1  H16A 5758   5.516   4.118   9.253 -0.2260  1.2331 -0.1090
   45CHL1  H16B 5759   5.357   4.056   9.281  0.9478 -0.6249  0.7301
   45CHL1   C17 5760   5.384   4.271   9.361  0.2473  0.1946  0.5505
   45CHL1   H17 5761   5.274   4.255   9.370  0.0855  1.0540  0.1543
   45CHL1   C13 5762   5.447   4.293   9.494 -0.2616 -0.2323  0.3845
   45CHL1   C18 5763   5.593   4.333   9.467  0.0656  0.8415 -0.0546
   45CHL1  H18A 5764   5.651   4.346   9.561 -0.0256 -1.9037  0.4656
   45CHL1  H18B 5765   5.650   4.254   9.414 -1.9169 -2.1483  1.9594
   45CHL1  H18C 5766   5.585   4.428   9.409 -0.4978 -0.2086 -1.7941
   45CHL1   C12 5767   5.378   4.407   9.566 -0.0412  0.5465  0.0181
   45CHL1  H12A 5768   5.441   4.445   9.649  1.0012  1.7702 -1.2749
   45CHL1  H12B 5769   5.350   4.497   9.507  1.8233  0.7335 -0.6321
   45CHL1   C11 5770   5.251   4.367   9.644 -0.5598  0.9622  0.2527
   45CHL1  H11A 5771   5.204   4.451   9.700  0.3816 -0.3558  3.2139
   45CHL1  H11B 5772   5.177   4.340   9.566  0.8273 -1.2657 -0.3956
   45CHL1    C9 5773   5.273   4.239   9.730  0.2271 -0.0268  0.5881
   45CHL1    H9 5774   5.171   4.204   9.757  0.8765  0.9138  5.0200
   45CHL1   C10 5775   5.333   4.251   9.882 -0.0132  0.5565 -0.1528
   45CHL1   C19 5776   5.466   4.324   9.884  0.2682  0.3094 -0.2746
   45CHL1  H19A 5777   5.539   4.279   9.814 -2.6920 -0.0464 -3.4109
   45CHL1  H19B 5778   5.442   4.430   9.858 -2.5922 -0.3340 -0.5570
   45CHL1  H19C 5779   5.505   4.324   9.988 -0.5579  0.0682  0.0436
   45CHL1    C1 5780   5.225   4.318   9.968  0.4799  0.0710  0.3342
   45CHL1   H1A 5781   5.230   4.424   9.936  1.8207  1.0391  3.3929
   45CHL1   H1B 5782   5.120   4.280   9.966  0.6467 -0.5845  2.1348
   45CHL1    C2 5783   5.247   4.322  10.123  0.9391 -0.0958  0.6922
   45CHL1   H2A 5784   5.156   4.360  10.176  0.7044 -0.5019  0.5862
   45CHL1   H2B 5785   5.336   4.388  10.132  0.3152  0.9508 -0.4930
   45CHL1   C20 5786   5.421   4.365   9.240  0.1614 -0.8201 -0.5098
   45CHL1   H20 5787   5.532   4.368   9.236  0.1849 -0.7074  0.1948
   45CHL1   C21 5788   5.362   4.504   9.253  0.2249  0.0081  0.6542
   45CHL1  H21A 5789   5.254   4.485   9.270  0.7582 -0.8290  3.6956
   45CHL1  H21B 5790   5.385   4.548   9.153 -0.7354 -1.6187 -0.3350
   45CHL1  H21C 5791   5.404   4.568   9.333  2.7890  1.6307 -1.8042
   45CHL1   C22 5792   5.373   4.311   9.099 -0.4364 -0.3682 -0.2871
   45CHL1  H22A 5793   5.410   4.385   9.024  1.5298 -0.5573  0.4326
   45CHL1  H22B 5794   5.436   4.221   9.083  1.0650  0.6252 -0.1714
   45CHL1   C23 5795   5.227   4.270   9.084  0.8716  0.4668 -0.9406
   45CHL1  H23A 5796   5.205   4.185   9.153 -0.9950  1.3889 -0.3430
   45CHL1  H23B 5797   5.153   4.344   9.119  0.6492 -0.5703  0.9163
   45CHL1   C24 5798   5.192   4.237   8.939  0.0532  0.1997 -0.4944
   45CHL1  H24A 5799   5.204   4.331   8.880 -0.7204 -0.3015 -1.5038
   45CHL1  H24B 5800   5.270   4.168   8.902  1.7655  1.9174 -0.2248
   45CHL1   C25 5801   5.052   4.179   8.917  0.5716 -0.0687  0.5250
   45CHL1   H25 5802   4.989   4.264   8.951  0.4842 -0.3131  0.9879
   45CHL1   C26 5803   5.018   4.161   8.764  0.1272  0.5842  0.3846
   45CHL1  H26A 5804   4.915   4.117   8.758 -1.0556  3.1029  0.8940
   45CHL1  H26B 5805   5.020   4.263   8.721 -3.3208  0.7671  0.3240
   45CHL1  H26C 5806   5.091   4.093   8.715 -1.1010 -0.2870 -0.3217
   45CHL1   C27 5807   5.032   4.042   8.984 -0.2134  0.1114 -0.9391
   45CHL1  H27A 5808   4.926   4.011   8.997  0.2095 -0.9286  0.0951
   45CHL1  H27B 5809   5.093   3.968   8.928  0.1350  0.5486 -1.1488
   45CHL1  H27C 5810   5.071   4.032   9.087 -0.3490  1.5255 -0.7242
   46CHL1    C3 5811   2.096   0.135  10.176  0.1484  0.0769  0.3464
   46CHL1    H3 5812   2.049   0.034  10.184 -2.2904  1.2262  1.4297
   46CHL1    O3 5813   2.136   0.159  10.314 -0.1151 -0.3079  0.3826
   46CHL1   H3' 5814   2.187   0.240  10.320 -2.5415  1.3640 -0.3874
   46CHL1    C4 5815   2.230   0.130  10.089  0.6030  0.0007  0.2460
   46CHL1   H4A 5816   2.276   0.231  10.077 -1.6127  0.8040 -3.2103
   46CHL1   H4B 5817   2.306   0.070  10.142  0.5829  0.3467  0.6701
   46CHL1    C5 5818   2.193   0.087   9.950  0.0777 -0.4537  0.3997
   46CHL1    C6 5819   2.256  -0.017   9.897  0.0170  0.4468 -0.1634
   46CHL1    H6 5820   2.331  -0.079   9.949 -1.3681 -0.6284  0.6066
   46CHL1    C7 5821   2.229  -0.058   9.754  0.3120  0.2489 -1.1922
   46CHL1   H7A 5822   2.328  -0.083   9.712  0.6983  1.2906 -0.9326
   46CHL1   H7B 5823   2.169  -0.151   9.748  0.8191 -0.0009 -2.8202
   46CHL1    C8 5824   2.155   0.052   9.664  0.5093  0.0994 -0.2345
   46CHL1    H8 5825   2.219   0.139   9.639  0.2514  1.1860  2.5915
   46CHL1   C14 5826   2.097  -0.026   9.546  0.0239  0.5335  0.2393
   46CHL1   H14 5827   2.028  -0.101   9.590  1.8329  0.2996  2.8516
   46CHL1   C15 5828   2.199  -0.105   9.457  0.2240 -0.0014  0.3316
   46CHL1  H15A 5829   2.266  -0.021   9.430 -1.1539  0.5205 -1.6205
   46CHL1  H15B 5830   2.250  -0.189   9.509  0.4501 -0.7118 -1.0043
   46CHL1   C16 5831   2.105  -0.144   9.336 -0.7633  0.2629  0.1613
   46CHL1  H16A 5832   2.168  -0.137   9.245 -1.7336  0.7796 -0.4900
   46CHL1  H16B 5833   2.074  -0.250   9.347 -0.2263 -0.0121 -0.8524
   46CHL1   C17 5834   1.976  -0.057   9.337  0.5993 -0.6105  0.5463
   46CHL1   H17 5835   1.889  -0.113   9.377  0.4764 -1.7146 -1.1723
   46CHL1   C13 5836   2.014   0.054   9.443 -0.1505  0.2097 -0.3599
   46CHL1   C18 5837   2.090   0.170   9.381 -0.2431 -0.6926  0.1942
   46CHL1  H18A 5838   2.017   0.223   9.315  0.1575 -1.9056 -1.2960
   46CHL1  H18B 5839   2.124   0.237   9.463  0.5754 -0.5175 -0.2716
   46CHL1  H18C 5840   2.176   0.126   9.326  0.0915  0.7967 -0.5579
   46CHL1   C12 5841   1.900   0.115   9.523 -0.2331  0.0425 -0.0448
   46CHL1  H12A 5842   1.841   0.179   9.455  0.3224  0.3616 -0.2256
   46CHL1  H12B 5843   1.822   0.041   9.552 -1.7212  0.6891 -2.2233
   46CHL1   C11 5844   1.947   0.196   9.651  0.2291 -0.0958 -0.8736
   46CHL1  H11A 5845   2.000   0.287   9.616  0.5107  0.1478  0.1648
   46CHL1  H11B 5846   1.856   0.236   9.701 -1.4332 -1.9931 -2.1775
   46CHL1    C9 5847   2.034   0.107   9.746  0.5851  0.8111  0.3981
   46CHL1    H9 5848   1.975   0.022   9.785  0.7005 -0.5604 -2.1866
   46CHL1   C10 5849   2.087   0.179   9.877 -0.4680  0.0468  0.1683
   46CHL1   C19 5850   2.139   0.317   9.840 -0.3088 -0.4973  0.2411
   46CHL1  H19A 5851   2.060   0.388   9.808  0.5738  1.0157  1.2596
   46CHL1  H19B 5852   2.181   0.379   9.923 -2.2813  1.4269 -0.1175
   46CHL1  H19C 5853   2.218   0.305   9.763  2.4843 -0.1172  2.8305
   46CHL1    C1 5854   1.963   0.183   9.968  0.0353  0.2827 -0.5222
   46CHL1   H1A 5855   1.892   0.256   9.924 -1.3746 -0.1781  0.8994
   46CHL1   H1B 5856   1.922   0.080   9.979  1.4421 -0.2967 -0.4988
   46CHL1    C2 5857   1.995   0.227  10.116  0.5150 -0.0053  0.4471
   46CHL1   H2A 5858   1.903   0.227  10.178  0.2830  4.4763  0.4026
   46CHL1   H2B 5859   2.025   0.334  10.115 -0.5371  0.2989 -0.6419
   46CHL1   C20 5860   1.947  -0.009   9.186 -0.1196 -0.7850  0.1379
   46CHL1   H20 5861   2.029   0.058   9.154 -0.6576 -0.3447 -0.3481
   46CHL1   C21 5862   1.818   0.071   9.189 -0.4688 -0.2091 -0.5738
   46CHL1  H21A 5863   1.838   0.166   9.242 -1.6831 -0.3434  0.1763
   46CHL1  H21B 5864   1.744   0.022   9.257  0.8049  1.7141  2.4057
   46CHL1  H21C 5865   1.778   0.098   9.089  2.0510  0.2189 -1.5236
   46CHL1   C22 5866   1.930  -0.127   9.083 -0.1122 -0.7682 -0.2436
   46CHL1  H22A 5867   2.017  -0.195   9.083 -0.3398 -1.0823  1.3832
   46CHL1  H22B 5868   1.837  -0.184   9.102  0.0026 -1.2274 -1.0117
   46CHL1   C23 5869   1.916  -0.073   8.933 -0.0693 -0.0905 -0.0972
   46CHL1  H23A 5870   1.814  -0.028   8.931 -0.1960 -0.1153  2.6634
   46CHL1  H23B 5871   1.993   0.005   8.920 -0.3508  0.3647  0.8923
   46CHL1   C24 5872   1.916  -0.176   8.824  0.2576  0.7901 -0.6483
   46CHL1  H24A 5873   2.015  -0.226   8.827 -0.6019 -1.1337 -2.3603
   46CHL1  H24B 5874   1.845  -0.252   8.863  3.1656 -2.1899 -0.6695
   46CHL1   C25 5875   1.896  -0.134   8.678  0.1407 -0.0798 -0.9627
   46CHL1   H25 5876   1.800  -0.081   8.664 -0.4387 -1.4816 -2.7472
   46CHL1   C26 5877   2.011  -0.043   8.620  0.8880 -0.1449 -0.2475
   46CHL1  H26A 5878   2.005  -0.037   8.510 -0.9314 -0.7079 -0.2137
   46CHL1  H26B 5879   2.017   0.054   8.675 -0.5740 -0.1684 -0.0115
   46CHL1  H26C 5880   2.108  -0.094   8.637  1.1420 -0.4664 -2.4211
   46CHL1   C27 5881   1.896  -0.264   8.599 -0.8792 -0.8140  0.1523
   46CHL1  H27A 5882   1.809  -0.328   8.623 -1.3632  0.0894  0.8874
   46CHL1  H27B 5883   1.911  -0.236   8.492  2.8462  1.7280  1.1305
   46CHL1  H27C 5884   1.983  -0.328   8.625  1.4447  1.5405 -1.1802
   47CHL1    C3 5885   2.513   1.872  10.015  0.2849  0.2370  0.1227
   47CHL1    H3 5886   2.411   1.854   9.976 -0.4421 -0.2420  2.0993
   47CHL1    O3 5887   2.503   1.878  10.156  0.3344 -0.0820 -0.8200
   47CHL1   H3' 5888   2.466   1.965  10.173  3.4427  1.9406 -3.1224
   47CHL1    C4 5889   2.602   1.756   9.977 -0.2384 -0.0667  0.0873
   47CHL1   H4A 5890   2.704   1.770  10.020 -0.5750 -0.3435  0.9949
   47CHL1   H4B 5891   2.569   1.669  10.038  0.5498  0.0134  0.6530
   47CHL1    C5 5892   2.600   1.739   9.831  0.1657  0.3462 -0.4907
   47CHL1    C6 5893   2.558   1.623   9.778 -0.3548  0.1789  0.1884
   47CHL1    H6 5894   2.511   1.544   9.838  0.5331 -0.0981  0.5215
   47CHL1    C7 5895   2.541   1.599   9.631  0.1118  0.1028 -0.0376
   47CHL1   H7A 5896   2.584   1.501   9.601  2.1899  1.1655 -0.6976
   47CHL1   H7B 5897   2.434   1.600   9.602 -0.3686  0.0462  1.6437
   47CHL1    C8 5898   2.613   1.693   9.542  0.2837  0.1315 -0.0878
   47CHL1    H8 5899   2.724   1.685   9.550  0.1987 -0.6119  0.4190
   47CHL1   C14 5900   2.564   1.691   9.402 -0.1599 -0.6747  1.0476
   47CHL1   H14 5901   2.465   1.740   9.403 -1.2361 -2.6828 -0.2594
   47CHL1   C15 5902   2.542   1.552   9.336  0.4351  0.1305 -0.1719
   47CHL1  H15A 5903   2.612   1.472   9.368 -0.1221  0.3216  1.6648
   47CHL1  H15B 5904   2.447   1.518   9.383 -0.4131 -0.3122 -2.1041
   47CHL1   C16 5905   2.551   1.576   9.182  0.2930 -0.4730 -0.0375
   47CHL1  H16A 5906   2.641   1.528   9.137 -0.6065 -0.4022 -2.0052
   47CHL1  H16B 5907   2.463   1.548   9.121  1.3800 -1.5709 -1.1538
   47CHL1   C17 5908   2.569   1.735   9.165 -0.3854 -0.0687 -0.6842
   47CHL1   H17 5909   2.471   1.787   9.177  1.1956  3.0052 -0.0335
   47CHL1   C13 5910   2.638   1.774   9.294 -0.3532 -0.7078  0.1607
   47CHL1   C18 5911   2.780   1.731   9.285 -0.1808  0.7476 -0.1994
   47CHL1  H18A 5912   2.787   1.621   9.271 -1.5963  0.3065  2.0717
   47CHL1  H18B 5913   2.843   1.783   9.210  1.1935  0.4005  0.6648
   47CHL1  H18C 5914   2.832   1.744   9.383 -2.6815  0.2121  1.2907
   47CHL1   C12 5915   2.625   1.929   9.352  0.3841  0.8528  0.2038
   47CHL1  H12A 5916   2.681   2.002   9.289 -0.2134  2.9768  2.0036
   47CHL1  H12B 5917   2.520   1.965   9.349 -0.2365 -0.8563  0.6328
   47CHL1   C11 5918   2.669   1.942   9.497  0.0363 -1.0368 -0.2419
   47CHL1  H11A 5919   2.778   1.923   9.507  0.1912 -0.9100 -1.4857
   47CHL1  H11B 5920   2.637   2.046   9.518 -0.3450 -0.9022 -1.4092
   47CHL1    C9 5921   2.598   1.838   9.589 -0.4449  0.3395 -0.3899
   47CHL1    H9 5922   2.488   1.850   9.582 -1.0794 -3.5670  0.4799
   47CHL1   C10 5923   2.638   1.860   9.743 -0.5309 -0.5824 -0.1552
   47CHL1   C19 5924   2.790   1.868   9.759 -0.4271  0.2404  0.1138
   47CHL1  H19A 5925   2.817   1.962   9.706 -0.9277  0.3061 -0.0251
   47CHL1  H19B 5926   2.832   1.875   9.861  0.5739 -2.7989  0.0052
   47CHL1  H19C 5927   2.848   1.789   9.705  0.0278  0.4951  0.2293
   47CHL1    C1 5928   2.572   1.993   9.791 -1.2269 -0.8174 -0.7879
   47CHL1   H1A 5929   2.611   2.089   9.751  1.0288 -0.4004  2.1440
   47CHL1   H1B 5930   2.471   1.984   9.744 -1.5183 -2.7777  0.1094
   47CHL1    C2 5931   2.559   2.005   9.944 -0.1513  0.4473 -0.5746
   47CHL1   H2A 5932   2.492   2.089   9.973  0.0036  0.3768 -0.0056
   47CHL1   H2B 5933   2.657   2.037   9.985  0.3106 -1.9684  0.3385
   47CHL1   C20 5934   2.628   1.774   9.029  0.5174  0.6562  0.5403
   47CHL1   H20 5935   2.725   1.721   9.011 -0.4977 -1.4303  0.9025
   47CHL1   C21 5936   2.641   1.926   9.013  0.1650  0.6788 -0.1508
   47CHL1  H21A 5937   2.542   1.972   9.035 -0.3546  0.5863 -2.1221
   47CHL1  H21B 5938   2.660   1.943   8.905 -3.3889  0.5639 -0.9344
   47CHL1  H21C 5939   2.721   1.971   9.075  1.4060  1.2391 -2.0788
   47CHL1   C22 5940   2.553   1.709   8.901 -0.3896  0.3204  0.0558
   47CHL1  H22A 5941   2.528   1.605   8.929  2.4116 -0.3253  0.5130
   47CHL1  H22B 5942   2.450   1.747   8.886 -0.6421 -0.6168 -0.6785
   47CHL1   C23 5943   2.634   1.705   8.773  0.2866 -0.0115 -0.3984
   47CHL1  H23A 5944   2.634   1.810   8.739 -0.5301  0.2052  0.2377
   47CHL1  H23B 5945   2.741   1.680   8.795  0.0484  0.2507  1.2161
   47CHL1   C24 5946   2.581   1.609   8.665  0.2618  0.1323 -0.6014
   47CHL1  H24A 5947   2.622   1.509   8.690  1.0017  0.5335 -0.1553
   47CHL1  H24B 5948   2.470   1.610   8.665  0.2405  1.4306  0.3205
   47CHL1   C25 5949   2.625   1.636   8.521  0.5476  0.3446 -0.0749
   47CHL1   H25 5950   2.576   1.731   8.490  0.2533  0.0706 -0.4602
   47CHL1   C26 5951   2.776   1.630   8.500 -0.7894  0.4449  0.2218
   47CHL1  H26A 5952   2.820   1.528   8.512 -1.4440  0.1624  0.2875
   47CHL1  H26B 5953   2.830   1.700   8.567 -1.1980  0.4265  0.5785
   47CHL1  H26C 5954   2.807   1.666   8.400 -0.2649  0.1753  0.2872
   47CHL1   C27 5955   2.561   1.530   8.428 -0.8005 -0.1466 -0.2814
   47CHL1  H27A 5956   2.582   1.553   8.322  2.3753 -0.8756  0.0879
   47CHL1  H27B 5957   2.599   1.433   8.468  0.7936  1.5068  2.5487
   47CHL1  H27C 5958   2.451   1.530   8.445 -1.1671  0.2711 -2.4725
   48CHL1    C3 5959   2.736   4.827  10.274 -0.6512  0.2281  0.2634
   48CHL1    H3 5960   2.783   4.925  10.250  1.0853 -0.1345  1.9162
   48CHL1    O3 5961   2.730   4.825  10.416 -0.2934  0.2481 -0.5850
   48CHL1   H3' 5962   2.812   4.781  10.439 -0.9250 -0.6981 -0.1058
   48CHL1    C4 5963   2.593   4.817  10.204  0.1030  0.0228 -0.8815
   48CHL1   H4A 5964   2.547   4.725  10.245  1.5408  0.2323  1.4176
   48CHL1   H4B 5965   2.544   4.905  10.249  0.9826  0.3244 -0.4734
   48CHL1    C5 5966   2.587   4.820  10.050  0.3820 -0.1983 -0.1543
   48CHL1    C6 5967   2.508   4.906   9.984 -0.2671 -0.7397  0.1712
   48CHL1    H6 5968   2.440   4.974  10.038  0.5869 -0.6175  1.1211
   48CHL1    C7 5969   2.504   4.910   9.830  0.0716  0.1404 -0.3196
   48CHL1   H7A 5970   2.399   4.906   9.793 -0.0480 -1.3538  0.1368
   48CHL1   H7B 5971   2.559   5.002   9.798 -0.3626  0.9166  1.0614
   48CHL1    C8 5972   2.572   4.781   9.765  0.2069  0.3143  0.4098
   48CHL1    H8 5973   2.499   4.698   9.773 -0.9825  1.1368 -1.2824
   48CHL1   C14 5974   2.590   4.810   9.620 -0.6288  0.1261 -0.4249
   48CHL1   H14 5975   2.672   4.885   9.608 -0.9618  0.5003 -0.4085
   48CHL1   C15 5976   2.480   4.879   9.545 -0.8800 -0.2767 -0.1493
   48CHL1  H15A 5977   2.375   4.873   9.581 -1.2045  1.0628 -0.8094
   48CHL1  H15B 5978   2.498   4.989   9.553  0.5930 -0.4457 -0.8296
   48CHL1   C16 5979   2.496   4.834   9.401 -0.8182  0.1782 -0.1374
   48CHL1  H16A 5980   2.413   4.765   9.371  0.2378 -0.1010 -2.6701
   48CHL1  H16B 5981   2.503   4.921   9.332 -0.8425 -0.2142 -0.6437
   48CHL1   C17 5982   2.626   4.740   9.402  0.5032  0.3308  0.1945
   48CHL1   H17 5983   2.711   4.807   9.376  2.2270 -2.4832 -2.0508
   48CHL1   C13 5984   2.637   4.687   9.540 -0.1596  0.0100  0.1058
   48CHL1   C18 5985   2.539   4.567   9.563 -0.3171 -0.4846  0.3512
   48CHL1  H18A 5986   2.567   4.473   9.510 -4.2482 -3.5907  3.0781
   48CHL1  H18B 5987   2.515   4.547   9.670 -1.1002  0.6568  0.4002
   48CHL1  H18C 5988   2.442   4.590   9.513  1.0699  0.2199 -2.1598
   48CHL1   C12 5989   2.776   4.648   9.598  0.5013 -0.2679 -0.1993
   48CHL1  H12A 5990   2.804   4.549   9.557  1.5595 -0.2704  0.4857
   48CHL1  H12B 5991   2.852   4.720   9.561 -1.0016  0.2865 -2.4002
   48CHL1   C11 5992   2.777   4.636   9.758 -0.3934  0.2701 -0.5740
   48CHL1  H11A 5993   2.735   4.534   9.775  0.0685  0.1568 -0.0794
   48CHL1  H11B 5994   2.875   4.623   9.809 -1.6338 -0.9786  1.6743
   48CHL1    C9 5995   2.697   4.740   9.836  0.0084  0.7953 -0.7047
   48CHL1    H9 5996   2.763   4.829   9.821 -0.7577  1.5072  0.0004
   48CHL1   C10 5997   2.678   4.722   9.987  0.3238  0.4530  0.0594
   48CHL1   C19 5998   2.621   4.577  10.008 -0.1442  0.1403  0.2133
   48CHL1  H19A 5999   2.698   4.502   9.980  1.9673  2.0328  0.6076
   48CHL1  H19B 6000   2.604   4.560  10.116 -0.8963  1.7756  0.3692
   48CHL1  H19C 6001   2.529   4.552   9.951 -1.3270  0.9579  1.7067
   48CHL1    C1 6002   2.820   4.737  10.063 -0.5429  0.1452  0.1860
   48CHL1   H1A 6003   2.889   4.656  10.029  0.0710  0.3974  0.8067
   48CHL1   H1B 6004   2.864   4.833  10.030  3.9462 -1.5761  0.4306
   48CHL1    C2 6005   2.820   4.714  10.223  0.1002  0.2551  0.1800
   48CHL1   H2A 6006   2.926   4.713  10.255  0.4939 -3.2066 -0.8675
   48CHL1   H2B 6007   2.776   4.614  10.243  1.4096 -0.8958 -2.1914
   48CHL1   C20 6008   2.625   4.635   9.287  0.4958  0.4740 -0.1914
   48CHL1   H20 6009   2.535   4.571   9.294  1.2523 -0.4457  2.1429
   48CHL1   C21 6010   2.752   4.533   9.295  1.0850 -0.1851  0.5722
   48CHL1  H21A 6011   2.750   4.479   9.198  0.6027  0.6584  0.0970
   48CHL1  H21B 6012   2.733   4.458   9.375 -0.9609  1.5450  1.8296
   48CHL1  H21C 6013   2.845   4.591   9.314  1.6121 -0.7944 -0.1170
   48CHL1   C22 6014   2.621   4.696   9.141 -0.0479 -0.2008  0.1758
   48CHL1  H22A 6015   2.532   4.763   9.134  1.0504  1.4667  1.3116
   48CHL1  H22B 6016   2.714   4.755   9.123  0.4154 -0.2239  2.2918
   48CHL1   C23 6017   2.602   4.584   9.034  1.1681 -0.5223  0.1138
   48CHL1  H23A 6018   2.684   4.513   9.010 -0.5008 -2.3062 -0.6429
   48CHL1  H23B 6019   2.521   4.517   9.070  1.4099  0.0338  1.7988
   48CHL1   C24 6020   2.566   4.660   8.901 -0.1480  1.0130 -0.1888
   48CHL1  H24A 6021   2.469   4.712   8.919 -1.5634 -0.9411 -1.6587
   48CHL1  H24B 6022   2.635   4.744   8.877 -0.7604  1.4830 -0.3590
   48CHL1   C25 6023   2.553   4.562   8.788 -0.3490 -0.6883 -0.4923
   48CHL1   H25 6024   2.482   4.483   8.820  0.0140 -0.7137  0.2889
   48CHL1   C26 6025   2.500   4.631   8.661  0.9331  0.5810  0.0675
   48CHL1  H26A 6026   2.414   4.698   8.683  1.5728  0.8811  1.8474
   48CHL1  H26B 6027   2.582   4.693   8.619 -0.8868  1.2474 -2.7913
   48CHL1  H26C 6028   2.469   4.549   8.593 -1.4780  1.2377  0.2840
   48CHL1   C27 6029   2.678   4.488   8.741 -0.1163 -0.5462  0.6193
   48CHL1  H27A 6030   2.764   4.552   8.714  0.4467 -1.5241  0.0512
   48CHL1  H27B 6031   2.717   4.423   8.822 -0.7335 -2.2414 -0.4041
   48CHL1  H27C 6032   2.655   4.422   8.655  0.5351 -0.0821  0.0811
   49CHL1    C3 6033   2.919   6.006  10.080  0.9855  0.0933  0.0175
   49CHL1    H3 6034   2.870   5.946  10.001  2.1964 -1.9487  0.7449
   49CHL1    O3 6035   2.863   5.987  10.213  0.4059  0.6150  0.4849
   49CHL1   H3' 6036   2.870   5.895  10.240  0.6586  0.3609 -0.4169
   49CHL1    C4 6037   3.065   5.952  10.091  0.2233 -0.4195  0.1855
   49CHL1   H4A 6038   3.113   6.010  10.172 -1.8318 -0.2189  1.3195
   49CHL1   H4B 6039   3.063   5.848  10.130 -0.5578 -0.9894 -1.3160
   49CHL1    C5 6040   3.140   5.957   9.955 -0.4074  0.1177 -0.5640
   49CHL1    C6 6041   3.193   5.843   9.915 -0.4572 -0.0558 -0.3926
   49CHL1    H6 6042   3.181   5.752   9.977  0.5689 -0.6445 -1.0175
   49CHL1    C7 6043   3.278   5.839   9.792  0.2056 -0.0960 -0.4636
   49CHL1   H7A 6044   3.373   5.787   9.816  2.3825  3.2007 -1.2340
   49CHL1   H7B 6045   3.215   5.778   9.723  1.5441 -0.0970 -1.7340
   49CHL1    C8 6046   3.312   5.977   9.735  0.5132 -0.2375  0.2837
   49CHL1    H8 6047   3.410   6.013   9.774  0.9376  2.2475 -2.6885
   49CHL1   C14 6048   3.333   5.964   9.592 -0.5289 -0.0694  0.0503
   49CHL1   H14 6049   3.237   5.926   9.552 -0.5966 -1.6750  1.6454
   49CHL1   C15 6050   3.433   5.850   9.549  0.5807 -0.0919  0.1824
   49CHL1  H15A 6051   3.527   5.863   9.607 -1.1700  0.1065  3.1355
   49CHL1  H15B 6052   3.401   5.748   9.582 -1.0400  0.3267 -0.0191
   49CHL1   C16 6053   3.457   5.874   9.405 -0.6763 -0.1183  0.2746
   49CHL1  H16A 6054   3.566   5.875   9.387 -0.4113 -0.6878  1.7349
   49CHL1  H16B 6055   3.403   5.815   9.327 -0.0126 -0.6258  0.1932
   49CHL1   C17 6056   3.398   6.015   9.376  0.2351  0.2496 -0.3319
   49CHL1   H17 6057   3.292   6.007   9.344 -0.0887  1.1068  0.4799
   49CHL1   C13 6058   3.375   6.082   9.515 -0.4545 -0.1391  0.0034
   49CHL1   C18 6059   3.504   6.151   9.569  0.0191  0.5390  0.6085
   49CHL1  H18A 6060   3.490   6.204   9.666 -1.1626 -2.2881  2.1008
   49CHL1  H18B 6061   3.579   6.070   9.586  0.8016  0.8217 -1.2897
   49CHL1  H18C 6062   3.544   6.232   9.505 -2.3309  0.3573 -1.2023
   49CHL1   C12 6063   3.257   6.185   9.527 -0.5495 -0.3551  0.1910
   49CHL1  H12A 6064   3.289   6.277   9.472  0.8478 -1.4758 -0.9412
   49CHL1  H12B 6065   3.168   6.139   9.478  0.0436  1.1904 -2.5476
   49CHL1   C11 6066   3.229   6.213   9.674 -0.7988  0.0645 -0.4616
   49CHL1  H11A 6067   3.315   6.265   9.721  0.8186 -2.1135 -0.8290
   49CHL1  H11B 6068   3.144   6.283   9.687 -0.4088  0.4586  0.0379
   49CHL1    C9 6069   3.202   6.083   9.751 -0.0054 -0.2345  0.3729
   49CHL1    H9 6070   3.121   6.055   9.680  0.2575  2.7327 -1.2482
   49CHL1   C10 6071   3.145   6.092   9.896  0.4228  0.0209 -0.0187
   49CHL1   C19 6072   3.240   6.173   9.988 -0.2271 -0.1811 -0.5766
   49CHL1  H19A 6073   3.345   6.137   9.997 -0.3282 -0.5143 -0.7098
   49CHL1  H19B 6074   3.272   6.271   9.945  0.9966 -0.7857 -1.0961
   49CHL1  H19C 6075   3.207   6.183  10.093  4.1957 -1.9392  1.2263
   49CHL1    C1 6076   2.997   6.145   9.899 -0.2394 -0.3823 -0.2582
   49CHL1   H1A 6077   2.990   6.242   9.846 -1.3940 -0.0348  0.4943
   49CHL1   H1B 6078   2.942   6.068   9.840 -1.0378  1.2991 -1.7856
   49CHL1    C2 6079   2.924   6.152  10.041 -0.2615  0.1992 -0.8101
   49CHL1   H2A 6080   2.829   6.210  10.041  0.7120  1.8759 -1.4813
   49CHL1   H2B 6081   2.987   6.200  10.118  1.3305 -1.0766 -1.2611
   49CHL1   C20 6082   3.475   6.093   9.266 -0.3817  0.1438 -0.1407
   49CHL1   H20 6083   3.575   6.122   9.304  1.1173  0.3307 -3.8508
   49CHL1   C21 6084   3.404   6.237   9.238 -0.8072  1.4089 -0.2603
   49CHL1  H21A 6085   3.294   6.224   9.225 -0.6504  0.1679 -0.4137
   49CHL1  H21B 6086   3.449   6.276   9.145  0.1836 -0.4232 -0.5937
   49CHL1  H21C 6087   3.436   6.306   9.320  0.5635 -1.3317  1.6703
   49CHL1   C22 6088   3.492   6.022   9.133  0.0406  0.0211  0.2706
   49CHL1  H22A 6089   3.536   6.086   9.054 -0.7073  2.0711  1.4173
   49CHL1  H22B 6090   3.558   5.934   9.149 -1.1859 -0.7002  1.6009
   49CHL1   C23 6091   3.369   5.964   9.061  0.5387 -0.2123 -1.2180
   49CHL1  H23A 6092   3.315   5.891   9.125 -0.1035  0.5196 -0.9049
   49CHL1  H23B 6093   3.288   6.037   9.039 -0.2358 -0.6535  0.0772
   49CHL1   C24 6094   3.407   5.886   8.933  0.1572  0.2059 -0.0683
   49CHL1  H24A 6095   3.451   5.963   8.867  2.0309 -1.4339 -0.8183
   49CHL1  H24B 6096   3.481   5.804   8.944 -0.0228  0.1541  0.8650
   49CHL1   C25 6097   3.286   5.831   8.849  0.1059 -0.0431 -0.9236
   49CHL1   H25 6098   3.227   5.921   8.821  0.2808 -0.2499 -1.9966
   49CHL1   C26 6099   3.338   5.766   8.716 -0.0248 -0.7962 -0.6575
   49CHL1  H26A 6100   3.414   5.689   8.742 -0.0289  0.0478  2.2612
   49CHL1  H26B 6101   3.253   5.728   8.655 -1.4802 -1.7278  1.7965
   49CHL1  H26C 6102   3.392   5.840   8.654 -1.6630  0.7299 -0.3401
   49CHL1   C27 6103   3.190   5.737   8.917 -0.9586  0.3930  0.3895
   49CHL1  H27A 6104   3.128   5.781   8.998 -1.2984  1.0963 -0.2310
   49CHL1  H27B 6105   3.128   5.679   8.846 -1.9856 -0.4266  1.9113
   49CHL1  H27C 6106   3.251   5.659   8.967 -1.0118 -0.4748 -0.8642
   50CHL1    C3 6107   3.911   2.935   9.929 -0.3639 -0.0621 -0.1480
   50CHL1    H3 6108   3.851   3.019   9.888  1.7979  1.0925 -1.0806
   50CHL1    O3 6109   3.903   2.929  10.076 -0.0682 -0.2655 -0.3650
   50CHL1   H3' 6110   3.970   2.866  10.103 -1.5321 -0.5711  3.0719
   50CHL1    C4 6111   3.873   2.800   9.866 -0.1922 -0.8062 -0.2681
   50CHL1   H4A 6112   3.932   2.719   9.914 -0.8328 -2.0090 -1.4461
   50CHL1   H4B 6113   3.771   2.782   9.904 -0.0113  0.4401  0.9077
   50CHL1    C5 6114   3.880   2.794   9.717  0.1213 -0.2727 -0.2858
   50CHL1    C6 6115   3.776   2.750   9.647  0.2724  0.1464  0.1390
   50CHL1    H6 6116   3.684   2.726   9.701  0.2679  1.5418  0.7979
   50CHL1    C7 6117   3.769   2.751   9.499 -0.5292  0.0198 -0.0919
   50CHL1   H7A 6118   3.720   2.659   9.460  1.9283 -1.5203  0.2372
   50CHL1   H7B 6119   3.715   2.842   9.464  0.4400 -0.6670 -3.7768
   50CHL1    C8 6120   3.909   2.764   9.443  0.5361  1.1033 -0.3329
   50CHL1    H8 6121   3.951   2.663   9.462 -1.0536  0.3115 -0.8335
   50CHL1   C14 6122   3.897   2.789   9.291  0.5125  0.3827  0.1495
   50CHL1   H14 6123   3.848   2.889   9.289  0.5520  0.3951 -0.3207
   50CHL1   C15 6124   3.807   2.690   9.210 -0.4547 -0.2220 -0.6402
   50CHL1  H15A 6125   3.842   2.585   9.225  0.2476  0.1821  0.7735
   50CHL1  H15B 6126   3.698   2.697   9.230 -0.3210 -2.2319  1.2408
   50CHL1   C16 6127   3.839   2.748   9.068  0.6468  1.2158  1.0143
   50CHL1  H16A 6128   3.866   2.661   9.005 -1.5214  1.3398 -0.1780
   50CHL1  H16B 6129   3.744   2.792   9.030  0.4362  0.3019  0.4462
   50CHL1   C17 6130   3.959   2.849   9.070  0.3685  0.0257  0.2655
   50CHL1   H17 6131   3.912   2.950   9.065  1.6781  0.7695  1.8716
   50CHL1   C13 6132   4.023   2.823   9.210  0.2980 -0.3674  0.1124
   50CHL1   C18 6133   4.110   2.697   9.205 -0.1960 -0.0319 -0.6617
   50CHL1  H18A 6134   4.196   2.723   9.139  0.1187  0.9487  0.1067
   50CHL1  H18B 6135   4.143   2.675   9.308 -2.1917 -0.8013 -0.1387
   50CHL1  H18C 6136   4.067   2.599   9.172  0.7561 -0.2191 -1.3943
   50CHL1   C12 6137   4.101   2.941   9.278 -0.5679  0.6114 -0.1064
   50CHL1  H12A 6138   4.209   2.947   9.250 -0.0610  1.7920  1.9234
   50CHL1  H12B 6139   4.052   3.038   9.255 -0.2074  0.2067 -2.9848
   50CHL1   C11 6140   4.116   2.912   9.428 -0.0017 -0.2110  0.4616
   50CHL1  H11A 6141   4.180   2.823   9.446 -1.5524 -2.1844 -2.9394
   50CHL1  H11B 6142   4.168   2.997   9.477  2.5836 -0.7704 -1.1017
   50CHL1    C9 6143   3.987   2.873   9.510  0.7989 -0.2230  0.1718
   50CHL1    H9 6144   3.917   2.957   9.497 -0.6118 -1.2875  0.6227
   50CHL1   C10 6145   4.012   2.841   9.662 -0.6325  0.6195  0.3191
   50CHL1   C19 6146   4.125   2.732   9.676 -0.1958  1.2607 -0.4504
   50CHL1  H19A 6147   4.221   2.778   9.646 -0.2276  1.4918 -0.2012
   50CHL1  H19B 6148   4.129   2.691   9.779 -2.1989 -0.6729 -1.0403
   50CHL1  H19C 6149   4.106   2.644   9.610 -0.1625  0.0634  1.0950
   50CHL1    C1 6150   4.063   2.960   9.735 -0.2203 -0.2494  0.2976
   50CHL1   H1A 6151   4.169   2.971   9.703 -0.9554  1.5458 -1.8032
   50CHL1   H1B 6152   4.004   3.050   9.709 -1.5235 -1.2639 -0.3857
   50CHL1    C2 6153   4.062   2.954   9.885  0.0314  0.5373 -0.2960
   50CHL1   H2A 6154   4.109   3.046   9.927  0.4559  0.1483  0.0967
   50CHL1   H2B 6155   4.126   2.874   9.927 -1.3655 -0.7060 -0.4581
   50CHL1   C20 6156   4.047   2.833   8.946  0.1684  0.2196  0.3502
   50CHL1   H20 6157   4.108   2.740   8.946 -0.6434 -0.3771  2.9171
   50CHL1   C21 6158   4.150   2.951   8.948  0.0795  0.0876  0.1393
   50CHL1  H21A 6159   4.206   2.965   8.853  0.9106  0.9142  0.7262
   50CHL1  H21B 6160   4.221   2.941   9.033  0.0051 -0.5262  0.1319
   50CHL1  H21C 6161   4.091   3.044   8.957  0.1642  0.0042  1.9471
   50CHL1   C22 6162   3.971   2.825   8.810  0.4952  0.6395  0.7415
   50CHL1  H22A 6163   4.046   2.830   8.729  2.0841  0.3188  2.1441
   50CHL1  H22B 6164   3.919   2.727   8.802  0.9861  0.4968 -0.9769
   50CHL1   C23 6165   3.872   2.943   8.792 -0.4299 -0.3081 -0.2306
   50CHL1  H23A 6166   3.798   2.943   8.875  0.0245 -0.6400  0.1916
   50CHL1  H23B 6167   3.942   3.027   8.814  1.6973 -2.2626  1.0605
   50CHL1   C24 6168   3.808   2.954   8.661 -0.0497  0.0416  0.5535
   50CHL1  H24A 6169   3.881   2.921   8.584  1.0085  2.0726  0.6283
   50CHL1  H24B 6170   3.712   2.897   8.657  0.3376 -0.6716  1.2928
   50CHL1   C25 6171   3.753   3.099   8.624  0.7037  0.7828  0.0900
   50CHL1   H25 6172   3.702   3.134   8.717  1.6346  0.8788  0.5698
   50CHL1   C26 6173   3.860   3.198   8.581 -0.4259  0.5167  0.6940
   50CHL1  H26A 6174   3.948   3.196   8.650 -1.2658  1.7720  1.8481
   50CHL1  H26B 6175   3.893   3.182   8.476 -0.2650  0.8659  0.6901
   50CHL1  H26C 6176   3.813   3.298   8.570 -3.5263 -0.9771 -0.8348
   50CHL1   C27 6177   3.641   3.094   8.517 -0.4018 -0.1124 -0.0150
   50CHL1  H27A 6178   3.655   3.014   8.441  1.4586 -0.4589  0.6299
   50CHL1  H27B 6179   3.542   3.070   8.563 -0.6687 -0.4875 -0.7753
   50CHL1  H27C 6180   3.627   3.188   8.460 -0.6741 -0.1815 -0.0653
   51CHL1    C3 6181   4.058   3.249  10.238  0.3125 -0.4092  0.6602
   51CHL1    H3 6182   4.059   3.139  10.226 -0.9175 -0.3537 -0.1718
   51CHL1    O3 6183   4.052   3.260  10.377 -0.1568 -0.3977  0.0106
   51CHL1   H3' 6184   4.020   3.350  10.382 -4.0339 -1.5091 -0.7427
   51CHL1    C4 6185   4.177   3.327  10.187 -0.1791  0.3573 -0.2003
   51CHL1   H4A 6186   4.172   3.433  10.221  0.3814 -0.1642  1.6675
   51CHL1   H4B 6187   4.265   3.283  10.238  0.6744  1.0440 -1.0525
   51CHL1    C5 6188   4.189   3.322  10.042 -0.0456  0.2988  0.1662
   51CHL1    C6 6189   4.299   3.274   9.979  0.4925 -0.0232 -0.4670
   51CHL1    H6 6190   4.386   3.226  10.026  0.7632  0.8685 -0.0142
   51CHL1    C7 6191   4.321   3.281   9.829  0.0544  0.0064 -0.7524
   51CHL1   H7A 6192   4.427   3.310   9.810 -0.6106  1.5795 -2.2601
   51CHL1   H7B 6193   4.308   3.175   9.797  1.5644  0.7004 -4.1425
   51CHL1    C8 6194   4.217   3.361   9.754 -0.5920 -0.5186  0.2148
   51CHL1    H8 6195   4.250   3.466   9.765  2.9019 -1.6121  1.6206
   51CHL1   C14 6196   4.208   3.321   9.603  0.4131 -0.1667 -0.6066
   51CHL1   H14 6197   4.161   3.221   9.609  0.5228 -0.1682  0.4500
   51CHL1   C15 6198   4.341   3.293   9.530 -0.9859 -0.5691  0.7610
   51CHL1  H15A 6199   4.419   3.371   9.536 -1.8301  0.3833 -0.1046
   51CHL1  H15B 6200   4.389   3.198   9.562  1.3942 -0.7410 -2.7810
   51CHL1   C16 6201   4.301   3.297   9.382 -0.2899 -0.1916 -0.1821
   51CHL1  H16A 6202   4.354   3.381   9.332  1.0329  0.7369  2.5889
   51CHL1  H16B 6203   4.309   3.201   9.326 -0.4273 -0.4175  0.1799
   51CHL1   C17 6204   4.148   3.338   9.379  0.1329 -0.0397 -0.2201
   51CHL1   H17 6205   4.086   3.246   9.372 -0.3383  0.3950 -4.1856
   51CHL1   C13 6206   4.121   3.408   9.515 -0.2835  0.7096  0.2096
   51CHL1   C18 6207   4.175   3.555   9.527 -0.3640 -0.9076  0.6216
   51CHL1  H18A 6208   4.287   3.554   9.524 -0.3119  0.3207  1.4721
   51CHL1  H18B 6209   4.138   3.616   9.442  1.6465  0.7549  0.8561
   51CHL1  H18C 6210   4.135   3.589   9.624 -0.2369 -0.0977  0.4010
   51CHL1   C12 6211   3.980   3.400   9.574 -0.3194  0.1101  0.2070
   51CHL1  H12A 6212   3.896   3.462   9.535  0.6879  2.1911  1.1929
   51CHL1  H12B 6213   3.943   3.296   9.578 -3.2918  1.1008  0.9165
   51CHL1   C11 6214   3.974   3.429   9.729  0.2759 -0.3537 -0.2451
   51CHL1  H11A 6215   3.992   3.539   9.731  3.7362 -0.8024 -0.4807
   51CHL1  H11B 6216   3.868   3.411   9.756  0.1440 -0.3196 -0.7403
   51CHL1    C9 6217   4.080   3.356   9.818  0.3302  0.8420  0.0663
   51CHL1    H9 6218   4.043   3.251   9.815  1.8633  0.2386  1.2849
   51CHL1   C10 6219   4.068   3.389   9.968 -0.5280  0.0399 -1.0735
   51CHL1   C19 6220   4.068   3.541   9.995  0.5620 -0.4126  0.5349
   51CHL1  H19A 6221   3.981   3.595   9.952  0.2338 -1.8610 -0.6989
   51CHL1  H19B 6222   4.059   3.547  10.106 -1.2776  1.9246  0.3186
   51CHL1  H19C 6223   4.159   3.601   9.969  1.1972 -1.1536  0.9922
   51CHL1    C1 6224   3.934   3.322  10.026 -0.3232 -0.5432  0.2061
   51CHL1   H1A 6225   3.860   3.393   9.983  0.4704 -0.5312 -1.2061
   51CHL1   H1B 6226   3.905   3.224   9.984 -4.6050  0.2291  0.9133
   51CHL1    C2 6227   3.933   3.305  10.177  0.8995  0.2822 -0.2144
   51CHL1   H2A 6228   3.849   3.232  10.192  0.9701 -0.3738 -2.6306
   51CHL1   H2B 6229   3.896   3.403  10.214 -0.3137  0.3660 -1.5623
   51CHL1   C20 6230   4.098   3.419   9.258 -0.0493  0.1480 -0.4454
   51CHL1   H20 6231   4.165   3.507   9.243 -0.2256  0.5279  0.9313
   51CHL1   C21 6232   3.956   3.460   9.266  0.7223 -0.2106 -0.2580
   51CHL1  H21A 6233   3.899   3.380   9.319 -1.5840  2.0650  0.9115
   51CHL1  H21B 6234   3.903   3.485   9.172  1.7222 -0.0795 -0.7930
   51CHL1  H21C 6235   3.945   3.542   9.341 -1.0884 -0.8555  0.2552
   51CHL1   C22 6236   4.110   3.340   9.121 -0.6109 -0.6770  0.2187
   51CHL1  H22A 6237   4.075   3.237   9.145 -0.1625 -0.7942  0.3852
   51CHL1  H22B 6238   4.045   3.393   9.049  0.8393  2.5904  1.1207
   51CHL1   C23 6239   4.261   3.345   9.065  0.2351 -0.2164 -0.1371
   51CHL1  H23A 6240   4.305   3.445   9.085 -2.6689  0.7445  2.1839
   51CHL1  H23B 6241   4.330   3.272   9.112  2.1477  1.1965 -0.6136
   51CHL1   C24 6242   4.263   3.334   8.918  0.6012  0.3237 -0.2788
   51CHL1  H24A 6243   4.199   3.248   8.888 -0.5289  1.2022 -0.4383
   51CHL1  H24B 6244   4.205   3.409   8.860 -1.2730 -2.3504 -2.1172
   51CHL1   C25 6245   4.411   3.322   8.866 -0.2918 -0.1806  0.4927
   51CHL1   H25 6246   4.452   3.247   8.937  0.1912  0.0885  0.4952
   51CHL1   C26 6247   4.427   3.277   8.724 -0.2070 -0.2726  0.3482
   51CHL1  H26A 6248   4.534   3.256   8.704 -0.4427 -0.9637 -0.2365
   51CHL1  H26B 6249   4.376   3.180   8.710 -0.8232  0.0098  0.6093
   51CHL1  H26C 6250   4.385   3.357   8.659 -0.9670 -0.9300  0.0107
   51CHL1   C27 6251   4.485   3.454   8.873 -0.6722  1.0811 -0.0883
   51CHL1  H27A 6252   4.590   3.436   8.840  0.3955  0.9679  2.9789
   51CHL1  H27B 6253   4.435   3.528   8.807 -0.9178  1.7581  0.8411
   51CHL1  H27C 6254   4.476   3.497   8.975 -2.0678 -1.8751  1.1641
   52CHL1    C3 6255   2.272   0.824  10.122 -0.0829  0.3135  0.2479
   52CHL1    H3 6256   2.376   0.785  10.119 -0.0918  0.3391 -0.6045
   52CHL1    O3 6257   2.247   0.886  10.250  0.2530  0.1890 -0.0969
   52CHL1   H3' 6258   2.179   0.952  10.235 -0.7165 -0.4525  1.2099
   52CHL1    C4 6259   2.256   0.939  10.023  0.3706 -0.5035 -0.2742
   52CHL1   H4A 6260   2.152   0.973  10.039  0.1284 -0.8052 -1.1498
   52CHL1   H4B 6261   2.319   1.025  10.054 -0.3558 -0.1505  0.2436
   52CHL1    C5 6262   2.270   0.903   9.881  0.5863 -0.4871 -0.4313
   52CHL1    C6 6263   2.359   0.960   9.798  0.2498 -0.0811  0.1011
   52CHL1    H6 6264   2.430   1.035   9.838 -1.7792  1.4105  1.1334
   52CHL1    C7 6265   2.352   0.928   9.655 -0.9489 -0.0687 -0.2652
   52CHL1   H7A 6266   2.361   1.016   9.589  1.1718 -0.4841 -0.5949
   52CHL1   H7B 6267   2.441   0.862   9.646 -0.8448  0.1902 -1.3018
   52CHL1    C8 6268   2.240   0.846   9.596  0.5193 -0.2161 -0.2920
   52CHL1    H8 6269   2.154   0.913   9.577 -0.7216 -2.0502 -1.4678
   52CHL1   C14 6270   2.278   0.782   9.459 -0.6423 -0.6427 -0.7521
   52CHL1   H14 6271   2.357   0.708   9.487 -1.7035 -1.3286  0.5452
   52CHL1   C15 6272   2.342   0.870   9.352  0.4782  0.3540 -0.1577
   52CHL1  H15A 6273   2.281   0.961   9.365 -1.8800 -1.0607 -0.6516
   52CHL1  H15B 6274   2.451   0.885   9.368  0.3015  0.4939  1.0165
   52CHL1   C16 6275   2.311   0.794   9.223  0.0672  0.4523 -0.7373
   52CHL1  H16A 6276   2.238   0.842   9.154  1.1757 -1.4054 -3.4250
   52CHL1  H16B 6277   2.397   0.765   9.158 -0.5099 -2.9696 -0.1743
   52CHL1   C17 6278   2.252   0.655   9.273  0.4160 -0.2027  0.4628
   52CHL1   H17 6279   2.339   0.597   9.310  0.8271  0.0840 -0.0330
   52CHL1   C13 6280   2.171   0.700   9.396 -0.4257  0.0396 -0.3634
   52CHL1   C18 6281   2.051   0.776   9.349  0.2383 -0.1876  0.0565
   52CHL1  H18A 6282   1.978   0.699   9.314  1.8242 -1.9641  0.5052
   52CHL1  H18B 6283   2.001   0.826   9.435 -0.4862 -1.8137  0.6142
   52CHL1  H18C 6284   2.065   0.852   9.269  0.4051 -0.0466  0.2183
   52CHL1   C12 6285   2.129   0.590   9.498 -0.9032 -0.1075  0.8615
   52CHL1  H12A 6286   2.053   0.523   9.454  2.0392 -3.3034  0.1498
   52CHL1  H12B 6287   2.214   0.521   9.518 -1.0173 -0.4372  0.2392
   52CHL1   C11 6288   2.093   0.649   9.636  0.2336 -0.2003 -0.0465
   52CHL1  H11A 6289   1.990   0.689   9.629  0.5368  0.7791  0.8279
   52CHL1  H11B 6290   2.093   0.563   9.707 -0.4861  0.0113  0.2144
   52CHL1    C9 6291   2.202   0.739   9.696 -0.7097 -0.0335 -0.0344
   52CHL1    H9 6292   2.285   0.666   9.698 -1.2276 -0.6777 -1.1579
   52CHL1   C10 6293   2.167   0.795   9.841 -0.3228 -0.5914  0.6654
   52CHL1   C19 6294   2.021   0.839   9.836  0.1422  0.2426 -0.5452
   52CHL1  H19A 6295   1.984   0.879   9.933 -1.8639  0.0395 -1.1930
   52CHL1  H19B 6296   2.004   0.920   9.762  0.0064 -0.5781 -1.4199
   52CHL1  H19C 6297   1.950   0.754   9.826 -0.4541  0.6134  0.3651
   52CHL1    C1 6298   2.184   0.676   9.935  0.4757  0.4218 -0.5160
   52CHL1   H1A 6299   2.111   0.595   9.916 -0.3815  0.8883  0.6490
   52CHL1   H1B 6300   2.276   0.615   9.926 -0.4654 -1.3646  1.1775
   52CHL1    C2 6301   2.186   0.708  10.089  0.4544  0.3381 -0.3415
   52CHL1   H2A 6302   2.216   0.617  10.146 -1.6755  0.7633  1.5795
   52CHL1   H2B 6303   2.084   0.721  10.130  0.6440 -0.1806  0.3150
   52CHL1   C20 6304   2.186   0.563   9.173 -0.4865 -0.1392  1.0326
   52CHL1   H20 6305   2.079   0.547   9.198 -0.3581 -2.4706  0.3144
   52CHL1   C21 6306   2.257   0.424   9.175  0.2460 -0.2799  0.2371
   52CHL1  H21A 6307   2.365   0.424   9.148 -0.0280 -0.6834 -0.9063
   52CHL1  H21B 6308   2.208   0.354   9.105  1.3525  1.0053 -1.9231
   52CHL1  H21C 6309   2.249   0.404   9.284 -0.5075 -2.7126 -0.2198
   52CHL1   C22 6310   2.183   0.612   9.024  0.1889 -0.5505  0.2959
   52CHL1  H22A 6311   2.146   0.716   9.015 -2.4011 -1.4923 -1.1199
   52CHL1  H22B 6312   2.292   0.611   9.005  0.2069  1.0604  0.1688
   52CHL1   C23 6313   2.108   0.532   8.922  0.0751 -0.0754 -0.9034
   52CHL1  H23A 6314   2.120   0.580   8.822  0.2490 -0.0406 -0.8664
   52CHL1  H23B 6315   2.157   0.433   8.927 -1.1252 -0.6961  4.3604
   52CHL1   C24 6316   1.948   0.512   8.945 -0.4616 -0.2003  0.4928
   52CHL1  H24A 6317   1.936   0.449   9.036 -1.2959 -0.8550 -0.0494
   52CHL1  H24B 6318   1.894   0.606   8.964 -0.9316  0.7216 -4.1982
   52CHL1   C25 6319   1.873   0.435   8.838 -0.3118 -0.3285 -0.4111
   52CHL1   H25 6320   1.776   0.410   8.886  0.4221 -1.5733  0.4784
   52CHL1   C26 6321   1.862   0.504   8.702  0.0785  0.2123 -0.0604
   52CHL1  H26A 6322   1.778   0.577   8.707 -0.4123 -0.4062  1.2085
   52CHL1  H26B 6323   1.944   0.572   8.668 -0.7630  0.5959 -1.3886
   52CHL1  H26C 6324   1.838   0.440   8.615  2.5525 -0.3874 -0.3759
   52CHL1   C27 6325   1.939   0.294   8.828 -0.0616 -1.1097 -0.0279
   52CHL1  H27A 6326   1.895   0.230   8.749  1.0952 -2.2278  0.2071
   52CHL1  H27B 6327   2.048   0.283   8.812 -0.0075 -0.0294 -0.5146
   52CHL1  H27C 6328   1.927   0.245   8.927  0.5608  0.9587  1.1549
   53CHL1    C3 6329   5.406   4.748  10.206  0.4148  0.7795 -0.0592
   53CHL1    H3 6330   5.351   4.662  10.161  1.2711  0.2843 -0.1761
   53CHL1    O3 6331   5.386   4.729  10.343  0.5893 -0.1238  0.6306
   53CHL1   H3' 6332   5.432   4.800  10.388 -2.2424  1.7369  0.8537
   53CHL1    C4 6333   5.554   4.746  10.165  0.0887  0.2096  0.2687
   53CHL1   H4A 6334   5.616   4.822  10.219 -0.2869  1.6746 -1.2867
   53CHL1   H4B 6335   5.581   4.640  10.185 -2.4939 -0.5112  0.2493
   53CHL1    C5 6336   5.563   4.770  10.016 -0.0483 -0.5110  0.1552
   53CHL1    C6 6337   5.630   4.690   9.930 -0.1249  1.0068 -0.4258
   53CHL1    H6 6338   5.673   4.598   9.972 -1.2985  0.6082 -0.0489
   53CHL1    C7 6339   5.646   4.715   9.787  0.3445  0.2783 -0.9134
   53CHL1   H7A 6340   5.753   4.698   9.764  1.1263  0.7554  2.0629
   53CHL1   H7B 6341   5.575   4.644   9.739 -2.2877  1.1729  1.3738
   53CHL1    C8 6342   5.614   4.852   9.738  0.2040 -1.0834 -0.1179
   53CHL1    H8 6343   5.689   4.928   9.770  0.3424 -0.8999 -0.8454
   53CHL1   C14 6344   5.595   4.855   9.578 -0.1571 -0.8625  0.0895
   53CHL1   H14 6345   5.514   4.782   9.560 -0.0715 -0.7449 -0.8212
   53CHL1   C15 6346   5.711   4.818   9.493  0.1852  0.5560 -0.6537
   53CHL1  H15A 6347   5.804   4.871   9.523  0.6069  0.5876 -1.9332
   53CHL1  H15B 6348   5.729   4.708   9.492  0.4899  0.5983 -0.0266
   53CHL1   C16 6349   5.669   4.871   9.357  0.2915  0.0813 -0.1907
   53CHL1  H16A 6350   5.746   4.941   9.318 -0.2874  0.3054 -0.9516
   53CHL1  H16B 6351   5.651   4.787   9.286  0.4381 -0.6393  0.6142
   53CHL1   C17 6352   5.538   4.962   9.366 -0.2811 -0.6190 -0.8453
   53CHL1   H17 6353   5.452   4.892   9.359 -0.6023 -0.3729  0.4303
   53CHL1   C13 6354   5.548   4.990   9.516  0.4410 -0.1924  0.6014
   53CHL1   C18 6355   5.652   5.102   9.539 -0.4512  0.8854  0.7814
   53CHL1  H18A 6356   5.605   5.203   9.545 -0.4694  0.9880 -0.7471
   53CHL1  H18B 6357   5.716   5.083   9.628 -0.2880 -4.4644 -0.1589
   53CHL1  H18C 6358   5.726   5.105   9.456 -0.7709  0.6300  0.4863
   53CHL1   C12 6359   5.417   5.032   9.590  0.1284 -0.3081  0.5234
   53CHL1  H12A 6360   5.394   5.137   9.562 -0.3460 -0.7959 -1.0182
   53CHL1  H12B 6361   5.337   4.957   9.572  1.4858 -1.8064  0.5151
   53CHL1   C11 6362   5.434   5.037   9.745  0.4024  0.4754  0.0656
   53CHL1  H11A 6363   5.516   5.106   9.773  2.0538 -0.8967 -1.1296
   53CHL1  H11B 6364   5.334   5.064   9.784  0.6903  0.8818  0.5356
   53CHL1    C9 6365   5.488   4.901   9.810  0.3740  0.3124 -0.0483
   53CHL1    H9 6366   5.408   4.834   9.771  1.4417  0.6260 -3.0666
   53CHL1   C10 6367   5.489   4.898   9.963 -0.1374  0.5018 -0.4769
   53CHL1   C19 6368   5.581   5.019  10.011 -0.0414  0.2612  0.3345
   53CHL1  H19A 6369   5.599   5.028  10.120  0.5096 -0.3954  0.3008
   53CHL1  H19B 6370   5.681   5.028   9.964 -0.5034  1.4129 -0.4843
   53CHL1  H19C 6371   5.524   5.108   9.975 -1.4730 -0.2686  1.1907
   53CHL1    C1 6372   5.344   4.887  10.020  0.0437  0.4564 -0.5543
   53CHL1   H1A 6373   5.276   4.967   9.985 -1.5891 -1.5320 -2.1666
   53CHL1   H1B 6374   5.303   4.791   9.983  1.0531  0.2373 -1.1657
   53CHL1    C2 6375   5.330   4.878  10.167 -0.2075  0.6583  0.1815
   53CHL1   H2A 6376   5.224   4.863  10.196 -1.1118  1.0518 -2.6017
   53CHL1   H2B 6377   5.382   4.960  10.219 -0.6795 -0.2649  2.2045
   53CHL1   C20 6378   5.517   5.073   9.263 -0.2748  0.5126 -0.5646
   53CHL1   H20 6379   5.601   5.145   9.275  1.0158 -0.6329 -2.2871
   53CHL1   C21 6380   5.385   5.155   9.280 -0.4055 -0.6205  0.0601
   53CHL1  H21A 6381   5.377   5.196   9.383 -0.4093  1.0522 -0.5725
   53CHL1  H21B 6382   5.291   5.102   9.254 -0.3283  0.0768 -1.7904
   53CHL1  H21C 6383   5.394   5.242   9.211  2.0427 -1.6094 -1.0058
   53CHL1   C22 6384   5.527   5.017   9.114 -0.2689 -0.2025  0.0565
   53CHL1  H22A 6385   5.525   5.107   9.050 -0.3327  2.0026  2.9635
   53CHL1  H22B 6386   5.616   4.953   9.090 -0.5097 -0.2974 -0.5995
   53CHL1   C23 6387   5.416   4.933   9.060 -0.0007 -0.0592 -0.5956
   53CHL1  H23A 6388   5.405   4.846   9.128  3.2983  0.9807  1.5132
   53CHL1  H23B 6389   5.319   4.987   9.054  0.1749  0.1899 -1.3931
   53CHL1   C24 6390   5.449   4.871   8.917  0.3506  0.0589 -0.6043
   53CHL1  H24A 6391   5.548   4.823   8.924  0.0318 -0.4624  0.6388
   53CHL1  H24B 6392   5.381   4.785   8.900 -1.4903  1.3939 -0.3026
   53CHL1   C25 6393   5.451   4.970   8.802 -0.6352 -0.5518  0.6162
   53CHL1   H25 6394   5.533   5.040   8.827 -0.6712  0.7418 -2.4648
   53CHL1   C26 6395   5.494   4.900   8.671 -0.1359 -0.2328 -0.2540
   53CHL1  H26A 6396   5.414   4.829   8.640 -0.9444  1.3871 -2.0960
   53CHL1  H26B 6397   5.512   4.982   8.598  3.2526 -0.0062  0.7006
   53CHL1  H26C 6398   5.594   4.854   8.663  1.0480  1.6793  2.0297
   53CHL1   C27 6399   5.322   5.050   8.781  0.5817  0.4201  0.3240
   53CHL1  H27A 6400   5.348   5.137   8.716 -0.7160 -0.4420 -1.4275
   53CHL1  H27B 6401   5.240   4.997   8.729 -1.9055  1.9415  2.4399
   53CHL1  H27C 6402   5.282   5.098   8.872 -2.1054 -0.5351 -0.2573
   54CHL1    C3 6403   1.307   2.386  10.120 -1.0075  0.5612  1.2462
   54CHL1    H3 6404   1.196   2.379  10.119 -1.0036  0.4421  1.6521
   54CHL1    O3 6405   1.360   2.370  10.251 -0.0699  0.2474 -0.4380
   54CHL1   H3' 6406   1.454   2.357  10.240 -0.2975 -0.5477 -1.6467
   54CHL1    C4 6407   1.358   2.262  10.037  0.3970 -0.5694 -0.7391
   54CHL1   H4A 6408   1.467   2.252  10.057  0.1456 -0.8669  0.5314
   54CHL1   H4B 6409   1.315   2.175  10.090 -0.6490 -0.4598 -1.3943
   54CHL1    C5 6410   1.317   2.270   9.888  0.2800  0.1300 -0.1659
   54CHL1    C6 6411   1.252   2.167   9.836  0.1144 -0.4610  0.0630
   54CHL1    H6 6412   1.220   2.084   9.901  0.1270 -0.1555  0.4655
   54CHL1    C7 6413   1.221   2.162   9.694 -0.0352 -0.2502  0.4778
   54CHL1   H7A 6414   1.242   2.059   9.659  1.4065  0.3360 -0.4498
   54CHL1   H7B 6415   1.113   2.189   9.685  0.2989  0.8649 -0.4040
   54CHL1    C8 6416   1.291   2.263   9.607 -0.5692  0.1774 -0.1957
   54CHL1    H8 6417   1.392   2.224   9.584 -0.9523 -0.7246 -0.3913
   54CHL1   C14 6418   1.221   2.279   9.469  0.2383  0.6737  0.1601
   54CHL1   H14 6419   1.118   2.315   9.486 -0.7019 -0.5511 -2.3775
   54CHL1   C15 6420   1.192   2.147   9.384  0.6487 -0.5511 -0.1953
   54CHL1  H15A 6421   1.282   2.083   9.383 -0.8395 -2.7592 -0.1141
   54CHL1  H15B 6422   1.097   2.095   9.412  0.2545 -0.0358 -0.5460
   54CHL1   C16 6423   1.180   2.204   9.242 -0.5429 -0.2263  0.2425
   54CHL1  H16A 6424   1.270   2.169   9.187 -0.8469  0.9575 -1.0746
   54CHL1  H16B 6425   1.083   2.171   9.200 -0.7491  0.9743 -0.2812
   54CHL1   C17 6426   1.195   2.361   9.245  0.5260  0.2847  0.2601
   54CHL1   H17 6427   1.095   2.406   9.262 -0.3686 -0.7564 -1.8111
   54CHL1   C13 6428   1.282   2.384   9.373 -0.4210 -0.3533 -0.5474
   54CHL1   C18 6429   1.435   2.352   9.340 -0.0804  0.0451  0.3137
   54CHL1  H18A 6430   1.496   2.369   9.432 -1.1906  2.5518  0.6640
   54CHL1  H18B 6431   1.442   2.248   9.300  3.0317  0.8154 -1.5512
   54CHL1  H18C 6432   1.474   2.427   9.268  2.0381  0.1798  1.5042
   54CHL1   C12 6433   1.260   2.523   9.448 -0.4366 -0.1801 -0.3031
   54CHL1  H12A 6434   1.296   2.611   9.391  0.1049 -0.0783  0.1919
   54CHL1  H12B 6435   1.149   2.532   9.449 -0.3819  0.6322 -0.6935
   54CHL1   C11 6436   1.329   2.525   9.585 -0.1344 -0.3537 -0.2851
   54CHL1  H11A 6437   1.439   2.541   9.579 -0.0689 -1.0723 -1.2683
   54CHL1  H11B 6438   1.304   2.618   9.641  0.1390 -1.1412  1.1996
   54CHL1    C9 6439   1.287   2.405   9.678  0.1529  0.3943 -0.3249
   54CHL1    H9 6440   1.182   2.423   9.708  0.1660  0.4305 -0.2994
   54CHL1   C10 6441   1.357   2.401   9.819  0.4922  0.4603  0.6826
   54CHL1   C19 6442   1.511   2.402   9.783  0.4226 -0.6825 -1.1281
   54CHL1  H19A 6443   1.530   2.332   9.699  1.2103  0.1674 -1.6776
   54CHL1  H19B 6444   1.545   2.498   9.738 -0.2928  0.0884 -0.0805
   54CHL1  H19C 6445   1.573   2.386   9.874 -0.0248  0.9224 -0.5035
   54CHL1    C1 6446   1.326   2.527   9.906 -0.6263  0.0373  0.0258
   54CHL1   H1A 6447   1.388   2.610   9.867 -1.1201  0.6481  0.5108
   54CHL1   H1B 6448   1.218   2.544   9.885 -0.2283  2.3276 -0.4072
   54CHL1    C2 6449   1.360   2.515  10.054  0.5840  0.3040 -0.6283
   54CHL1   H2A 6450   1.322   2.597  10.120  0.3732 -1.2899  1.3251
   54CHL1   H2B 6451   1.471   2.519  10.052  0.6713 -1.3318 -2.1705
   54CHL1   C20 6452   1.248   2.409   9.106  0.3357 -0.2552 -0.0351
   54CHL1   H20 6453   1.356   2.380   9.104  0.3302 -0.2946 -2.2381
   54CHL1   C21 6454   1.229   2.568   9.101 -0.4970  0.5041  0.7945
   54CHL1  H21A 6455   1.272   2.618   9.191  1.9779  2.8392 -1.5178
   54CHL1  H21B 6456   1.124   2.601   9.087 -0.3846 -0.3180 -2.9484
   54CHL1  H21C 6457   1.279   2.609   9.011 -1.2293 -0.6488 -0.1695
   54CHL1   C22 6458   1.167   2.351   8.986  0.4986 -0.1643 -0.6795
   54CHL1  H22A 6459   1.180   2.241   8.987 -1.6288 -0.4731 -1.7402
   54CHL1  H22B 6460   1.059   2.366   9.009  0.9171 -1.0142  2.2062
   54CHL1   C23 6461   1.208   2.393   8.852 -0.2471  0.1509  0.2014
   54CHL1  H23A 6462   1.133   2.359   8.776  0.2041  0.1237 -0.2357
   54CHL1  H23B 6463   1.217   2.503   8.841 -0.6059  0.0828 -0.9705
   54CHL1   C24 6464   1.341   2.327   8.800 -0.1508  0.1298 -1.1376
   54CHL1  H24A 6465   1.435   2.368   8.844 -0.3853  1.4082 -1.7619
   54CHL1  H24B 6466   1.325   2.224   8.837 -0.8984  0.2945 -0.9828
   54CHL1   C25 6467   1.351   2.342   8.651 -0.0028 -0.3558  0.7869
   54CHL1   H25 6468   1.260   2.298   8.606  0.8149  1.6151 -3.3364
   54CHL1   C26 6469   1.347   2.492   8.598  0.4126 -0.2068 -0.3258
   54CHL1  H26A 6470   1.354   2.485   8.487  2.0585 -0.6893 -0.2154
   54CHL1  H26B 6471   1.251   2.531   8.637  0.2833 -0.3087 -0.5408
   54CHL1  H26C 6472   1.433   2.554   8.631  0.7870 -0.6293 -0.4872
   54CHL1   C27 6473   1.473   2.277   8.595  0.4552  0.0661  0.2690
   54CHL1  H27A 6474   1.564   2.334   8.622  0.1445  0.3417  0.7337
   54CHL1  H27B 6475   1.484   2.174   8.633 -2.0215  0.1525  1.4276
   54CHL1  H27C 6476   1.473   2.279   8.484 -2.7192  1.8291  0.1689
   55CHL1    C3 6477   4.576   2.471  10.131  0.1937  0.9638  0.5360
   55CHL1    H3 6478   4.625   2.570  10.121 -1.1179  1.7889  1.8315
   55CHL1    O3 6479   4.549   2.468  10.272  0.4916 -0.3141  0.5189
   55CHL1   H3' 6480   4.510   2.381  10.285 -2.8671  0.7684 -0.9409
   55CHL1    C4 6481   4.444   2.471  10.056 -0.0029  0.1460  0.1481
   55CHL1   H4A 6482   4.392   2.377  10.084 -1.2510  0.5434 -0.7445
   55CHL1   H4B 6483   4.375   2.551  10.089 -0.0146  0.3945 -0.4697
   55CHL1    C5 6484   4.467   2.474   9.903  0.1153 -0.0055  1.2142
   55CHL1    C6 6485   4.410   2.562   9.816  0.0656 -0.4812 -0.5830
   55CHL1    H6 6486   4.341   2.633   9.865  0.8818 -0.1886  0.1631
   55CHL1    C7 6487   4.419   2.560   9.666  0.2760 -0.0235 -0.0121
   55CHL1   H7A 6488   4.314   2.559   9.629 -0.1444 -0.3779  1.1611
   55CHL1   H7B 6489   4.477   2.649   9.632 -0.2352 -0.0499 -0.9895
   55CHL1    C8 6490   4.494   2.440   9.605 -0.1217  0.1137  0.0908
   55CHL1    H8 6491   4.428   2.351   9.598  0.7665 -0.5317 -0.2122
   55CHL1   C14 6492   4.551   2.482   9.470  0.3434 -0.2782  1.2197
   55CHL1   H14 6493   4.608   2.576   9.481 -1.1962  1.1045 -1.4933
   55CHL1   C15 6494   4.452   2.535   9.355  0.0955  0.2647  0.6018
   55CHL1  H15A 6495   4.375   2.456   9.337  1.6836 -1.0498 -0.7742
   55CHL1  H15B 6496   4.400   2.627   9.387  0.1297  0.8876 -1.0584
   55CHL1   C16 6497   4.542   2.532   9.232 -0.7591 -0.2918 -0.1066
   55CHL1  H16A 6498   4.502   2.499   9.134  4.5280 -0.2115 -2.6477
   55CHL1  H16B 6499   4.574   2.637   9.214  0.1060 -0.6095 -0.4778
   55CHL1   C17 6500   4.670   2.451   9.265 -0.0798 -1.0209  0.0587
   55CHL1   H17 6501   4.738   2.536   9.286 -3.1735  1.8365 -0.5203
   55CHL1   C13 6502   4.643   2.374   9.401  0.3668  0.0846 -0.3073
   55CHL1   C18 6503   4.571   2.247   9.364 -0.2736  0.5060 -0.3133
   55CHL1  H18A 6504   4.531   2.198   9.455 -1.4863 -0.8410 -1.5231
   55CHL1  H18B 6505   4.478   2.249   9.304  0.8128 -1.0899 -2.1724
   55CHL1  H18C 6506   4.639   2.168   9.326 -2.0345 -1.0185 -0.4479
   55CHL1   C12 6507   4.748   2.352   9.499 -0.6686 -0.0705 -0.1349
   55CHL1  H12A 6508   4.828   2.286   9.461 -0.0309  0.5512  0.1103
   55CHL1  H12B 6509   4.793   2.450   9.524 -0.3080 -0.2034 -0.2660
   55CHL1   C11 6510   4.701   2.299   9.630 -0.2229 -0.0733  0.0077
   55CHL1  H11A 6511   4.634   2.212   9.616 -1.3045  0.7174  0.1393
   55CHL1  H11B 6512   4.790   2.266   9.688  1.3614  0.0349 -2.2412
   55CHL1    C9 6513   4.609   2.406   9.700  0.5034  0.3431  0.7055
   55CHL1    H9 6514   4.675   2.494   9.710 -0.0748  0.6155  2.3992
   55CHL1   C10 6515   4.569   2.371   9.842 -0.0538  0.3420 -0.0818
   55CHL1   C19 6516   4.481   2.246   9.840 -0.5776 -0.6194  0.0338
   55CHL1  H19A 6517   4.436   2.215   9.937 -0.0601 -0.8677  0.1944
   55CHL1  H19B 6518   4.391   2.253   9.775 -2.0244 -1.8918  1.7831
   55CHL1  H19C 6519   4.545   2.169   9.792 -0.3977 -1.1826  1.1453
   55CHL1    C1 6520   4.693   2.364   9.939 -0.6119  0.4558  0.0761
   55CHL1   H1A 6521   4.752   2.272   9.919  0.9018  1.2130  0.8764
   55CHL1   H1B 6522   4.755   2.455   9.920 -2.2836  1.6096 -0.1314
   55CHL1    C2 6523   4.657   2.347  10.089 -0.3250  0.7783 -0.3613
   55CHL1   H2A 6524   4.749   2.337  10.151 -1.1781  3.1945  1.4594
   55CHL1   H2B 6525   4.589   2.261  10.108  0.9118 -0.6354 -1.9880
   55CHL1   C20 6526   4.722   2.379   9.144  0.1642 -0.1497  0.7579
   55CHL1   H20 6527   4.646   2.305   9.109 -0.1289  0.3322  0.3666
   55CHL1   C21 6528   4.851   2.297   9.177  0.3027 -0.1701  0.4603
   55CHL1  H21A 6529   4.840   2.234   9.268  2.3090 -0.9329  0.2239
   55CHL1  H21B 6530   4.933   2.370   9.192 -0.1624  0.5127 -0.2772
   55CHL1  H21C 6531   4.878   2.235   9.088 -1.6572  2.2752 -2.0087
   55CHL1   C22 6532   4.733   2.457   9.011 -0.1929  0.4006 -0.1892
   55CHL1  H22A 6533   4.627   2.470   8.980 -0.8814 -1.7511  1.0155
   55CHL1  H22B 6534   4.775   2.556   9.036  1.7477 -0.1720 -0.9741
   55CHL1   C23 6535   4.804   2.385   8.897 -0.1114  0.0326  0.2528
   55CHL1  H23A 6536   4.908   2.356   8.921 -0.0416 -2.1355 -2.2046
   55CHL1  H23B 6537   4.747   2.290   8.892 -1.2894  0.6682  0.9293
   55CHL1   C24 6538   4.814   2.475   8.770  0.5972  0.1255  0.2118
   55CHL1  H24A 6539   4.862   2.574   8.787  2.1217 -0.4724 -0.4075
   55CHL1  H24B 6540   4.886   2.417   8.708  1.6721 -1.7327  3.0398
   55CHL1   C25 6541   4.686   2.491   8.688  0.7535  0.0457 -0.7131
   55CHL1   H25 6542   4.618   2.555   8.749  1.2805 -2.2188  2.4884
   55CHL1   C26 6543   4.707   2.557   8.557 -0.3238 -0.1035 -0.0370
   55CHL1  H26A 6544   4.757   2.488   8.487  0.3487 -0.1843  0.5164
   55CHL1  H26B 6545   4.614   2.590   8.505  1.0441  2.3092 -1.1165
   55CHL1  H26C 6546   4.764   2.652   8.566 -0.1215  0.2050 -3.4696
   55CHL1   C27 6547   4.626   2.355   8.658  0.5648  0.2376  0.2977
   55CHL1  H27A 6548   4.592   2.298   8.747 -0.1731 -0.4714 -0.4286
   55CHL1  H27B 6549   4.546   2.359   8.582  1.2288  0.9192 -0.3838
   55CHL1  H27C 6550   4.710   2.298   8.614  0.9386  0.2429  0.9798
   56CHL1    C3 6551   2.617   6.637   9.896 -0.3453 -0.0908 -0.3801
   56CHL1    H3 6552   2.561   6.720   9.848  0.4508 -1.0568 -3.2056
   56CHL1    O3 6553   2.579   6.622  10.034  0.4846  0.3227 -0.3341
   56CHL1   H3' 6554   2.615   6.539  10.066 -3.8328 -1.3646  0.8405
   56CHL1    C4 6555   2.602   6.500   9.818 -0.1558  0.5905  0.0444
   56CHL1   H4A 6556   2.665   6.428   9.873 -0.2359  0.4517 -0.0463
   56CHL1   H4B 6557   2.497   6.464   9.826 -0.2289  0.3558 -1.5956
   56CHL1    C5 6558   2.657   6.514   9.679 -0.0676 -0.0205  0.0773
   56CHL1    C6 6559   2.569   6.491   9.577  0.3350  0.2443  0.4405
   56CHL1    H6 6560   2.467   6.458   9.598  1.1822 -2.3365  0.8201
   56CHL1    C7 6561   2.609   6.511   9.432 -0.5135 -0.0213 -0.2991
   56CHL1   H7A 6562   2.560   6.433   9.370  1.5485 -1.0411 -0.7402
   56CHL1   H7B 6563   2.565   6.607   9.398  0.2757  0.2801 -0.4816
   56CHL1    C8 6564   2.763   6.509   9.413 -0.3042  0.1434  0.2569
   56CHL1    H8 6565   2.808   6.410   9.433  1.3782  0.5768 -1.0546
   56CHL1   C14 6566   2.794   6.539   9.265  0.1779  0.3161  0.5725
   56CHL1   H14 6567   2.759   6.643   9.246 -1.8701 -0.3889  0.2644
   56CHL1   C15 6568   2.737   6.448   9.159  0.7548 -0.2094 -0.1666
   56CHL1  H15A 6569   2.733   6.338   9.166 -1.1661 -0.0920  1.4549
   56CHL1  H15B 6570   2.631   6.472   9.137  0.8403  1.0168  0.6550
   56CHL1   C16 6571   2.818   6.491   9.038 -0.4284  0.3767  0.1643
   56CHL1  H16A 6572   2.870   6.403   8.994  2.2632  2.9646 -2.2978
   56CHL1  H16B 6573   2.766   6.543   8.955  0.1511  0.6733 -0.0191
   56CHL1   C17 6574   2.932   6.589   9.082 -0.2311 -0.2954  0.9934
   56CHL1   H17 6575   2.902   6.696   9.083 -0.4248 -0.3087 -0.5722
   56CHL1   C13 6576   2.945   6.552   9.238 -0.3823  0.0852  0.5997
   56CHL1   C18 6577   3.015   6.411   9.267 -0.0778  0.1065 -0.8886
   56CHL1  H18A 6578   3.125   6.409   9.249  0.4779  1.5309  1.8579
   56CHL1  H18B 6579   3.022   6.385   9.374  0.7264  0.7850 -0.7673
   56CHL1  H18C 6580   2.971   6.326   9.210  2.5856 -0.9960 -1.4517
   56CHL1   C12 6581   3.007   6.668   9.322  0.0309 -0.1076  1.0707
   56CHL1  H12A 6582   3.115   6.685   9.302 -0.0136 -0.4592  0.5118
   56CHL1  H12B 6583   2.965   6.764   9.285  1.0671  0.1460  0.5103
   56CHL1   C11 6584   2.978   6.634   9.469 -0.0644 -0.1008  0.4175
   56CHL1  H11A 6585   3.037   6.547   9.505 -1.1389 -0.3610  1.6218
   56CHL1  H11B 6586   3.003   6.723   9.530 -2.0079 -0.5386  1.9443
   56CHL1    C9 6587   2.824   6.608   9.510  0.6692 -0.2916  0.8411
   56CHL1    H9 6588   2.778   6.708   9.497  2.4887  0.4819 -0.0442
   56CHL1   C10 6589   2.802   6.562   9.659  0.7435  0.1578 -0.7134
   56CHL1   C19 6590   2.903   6.453   9.700 -0.0310  0.7072 -0.7920
   56CHL1  H19A 6591   2.888   6.409   9.801 -0.5521  0.1024 -1.1188
   56CHL1  H19B 6592   2.902   6.368   9.628 -0.0910 -1.4411  1.5830
   56CHL1  H19C 6593   3.004   6.497   9.693  0.0157  0.7980  0.3447
   56CHL1    C1 6594   2.814   6.691   9.738  0.3072  0.0764 -0.4475
   56CHL1   H1A 6595   2.921   6.720   9.739 -0.0448  1.4621 -1.1086
   56CHL1   H1B 6596   2.765   6.784   9.703  1.9765  0.6392 -1.4325
   56CHL1    C2 6597   2.767   6.676   9.892  0.5701  0.6308  0.4054
   56CHL1   H2A 6598   2.804   6.762   9.953 -0.9437  0.6398  1.3439
   56CHL1   H2B 6599   2.821   6.586   9.929  3.9459  2.2210 -0.2008
   56CHL1   C20 6600   3.060   6.599   8.997  0.1947  0.1328 -0.0021
   56CHL1   H20 6601   3.140   6.640   9.063  0.4074  0.0932 -0.2335
   56CHL1   C21 6602   3.038   6.699   8.881 -0.1932  0.2213 -0.6066
   56CHL1  H21A 6603   3.135   6.711   8.829  0.2062  0.5856  0.2042
   56CHL1  H21B 6604   2.999   6.801   8.901 -2.0216 -0.3922 -0.7989
   56CHL1  H21C 6605   2.966   6.654   8.809  0.0630  0.8611 -1.2653
   56CHL1   C22 6606   3.117   6.472   8.941  0.3205  0.3040 -0.4205
   56CHL1  H22A 6607   3.109   6.397   9.023  2.7746 -1.3121 -1.5610
   56CHL1  H22B 6608   3.050   6.436   8.860 -0.0422 -1.3465  0.5694
   56CHL1   C23 6609   3.268   6.474   8.914 -0.9646  0.2640 -0.9275
   56CHL1  H23A 6610   3.302   6.564   8.858 -0.2843 -0.3530 -1.5324
   56CHL1  H23B 6611   3.317   6.471   9.014 -1.3606 -0.7542 -0.7599
   56CHL1   C24 6612   3.318   6.341   8.854  0.2324  0.1492  0.0197
   56CHL1  H24A 6613   3.356   6.286   8.943 -0.1706  1.7261  1.2201
   56CHL1  H24B 6614   3.229   6.286   8.816 -0.1141  0.0381  0.9521
   56CHL1   C25 6615   3.433   6.353   8.752 -0.2068 -0.2127  0.1963
   56CHL1   H25 6616   3.511   6.424   8.788  0.1098  0.2360 -1.3054
   56CHL1   C26 6617   3.490   6.211   8.730  0.1520 -0.4391  0.3727
   56CHL1  H26A 6618   3.575   6.209   8.659 -0.2030 -2.1742 -0.0495
   56CHL1  H26B 6619   3.523   6.170   8.828 -2.1757 -2.1981  0.5114
   56CHL1  H26C 6620   3.402   6.151   8.696 -0.4808  0.9140 -0.4497
   56CHL1   C27 6621   3.392   6.413   8.612  0.4157  0.5302  0.0503
   56CHL1  H27A 6622   3.325   6.501   8.623 -1.5301 -0.3109 -3.5671
   56CHL1  H27B 6623   3.481   6.445   8.554 -0.3549  3.4502  0.3387
   56CHL1  H27C 6624   3.333   6.340   8.554 -0.5648  2.5655 -1.6239
   57CHL1    C3 6625   2.097   2.383  10.052  0.5241 -0.1755  0.1938
   57CHL1    H3 6626   2.108   2.273  10.043  1.7714 -0.1750  1.3773
   57CHL1    O3 6627   2.082   2.418  10.189 -0.0863  0.5225 -0.1273
   57CHL1   H3' 6628   2.131   2.497  10.214 -0.0073  0.3249  0.3621
   57CHL1    C4 6629   2.229   2.446   9.997 -0.5736 -0.6046 -0.8740
   57CHL1   H4A 6630   2.224   2.557   9.996 -0.3630 -0.5783 -0.1001
   57CHL1   H4B 6631   2.311   2.403  10.058 -0.3240  0.1130 -0.6905
   57CHL1    C5 6632   2.234   2.397   9.852  0.4357 -0.7284 -0.5783
   57CHL1    C6 6633   2.336   2.321   9.816  0.8946 -0.3653  0.1585
   57CHL1    H6 6634   2.403   2.294   9.898  0.4332  0.2095  0.7401
   57CHL1    C7 6635   2.365   2.288   9.668 -0.0334  0.1502 -0.2231
   57CHL1   H7A 6636   2.475   2.299   9.653  0.0145  1.6091  0.9155
   57CHL1   H7B 6637   2.343   2.181   9.651 -1.0466  0.4711 -0.9621
   57CHL1    C8 6638   2.281   2.363   9.567  0.1260  0.5776 -0.0526
   57CHL1    H8 6639   2.311   2.470   9.563  2.2794 -0.0225 -1.7639
   57CHL1   C14 6640   2.289   2.288   9.437 -0.0439  0.0278 -0.2166
   57CHL1   H14 6641   2.255   2.185   9.462 -0.7220  0.4111  0.4386
   57CHL1   C15 6642   2.433   2.267   9.382 -0.0189 -0.3183  0.0790
   57CHL1  H15A 6643   2.486   2.365   9.385  1.6596 -1.2058  1.2798
   57CHL1  H15B 6644   2.500   2.198   9.439  0.4466  0.9294  1.1173
   57CHL1   C16 6645   2.403   2.213   9.242  0.0446 -0.0274  0.0329
   57CHL1  H16A 6646   2.467   2.269   9.171  1.7239 -2.7840 -0.7807
   57CHL1  H16B 6647   2.420   2.103   9.238  1.4496  0.1223  0.9705
   57CHL1   C17 6648   2.251   2.232   9.219 -0.2334 -0.5545  0.2436
   57CHL1   H17 6649   2.202   2.137   9.248  0.4401 -0.7259  0.8556
   57CHL1   C13 6650   2.202   2.333   9.327 -0.2757 -0.4719  0.3221
   57CHL1   C18 6651   2.239   2.480   9.289  0.1626 -0.6061 -0.0283
   57CHL1  H18A 6652   2.160   2.533   9.230 -0.3547  1.1879  2.1526
   57CHL1  H18B 6653   2.236   2.540   9.382 -1.5209 -0.8172  0.0986
   57CHL1  H18C 6654   2.340   2.473   9.242 -0.4689  0.6352 -1.6736
   57CHL1   C12 6655   2.058   2.328   9.373  0.2101 -0.6380  0.0298
   57CHL1  H12A 6656   1.986   2.357   9.294 -0.2877  0.6713  0.9185
   57CHL1  H12B 6657   2.036   2.221   9.393  1.3376 -1.0619 -0.9366
   57CHL1   C11 6658   2.034   2.414   9.501 -0.5556  0.1296 -0.3278
   57CHL1  H11A 6659   2.048   2.522   9.479  0.9402 -0.0822 -0.5560
   57CHL1  H11B 6660   1.933   2.406   9.547  0.6007 -1.3008  2.1669
   57CHL1    C9 6661   2.133   2.372   9.614 -0.6593  0.8297 -0.8156
   57CHL1    H9 6662   2.108   2.265   9.631  0.0585  0.5531 -1.4687
   57CHL1   C10 6663   2.119   2.445   9.753 -0.4869  0.5465 -0.5437
   57CHL1   C19 6664   2.124   2.594   9.735 -0.6196 -0.6793  0.2248
   57CHL1  H19A 6665   2.125   2.656   9.827 -2.1414  0.1424 -0.2758
   57CHL1  H19B 6666   2.211   2.621   9.672  1.0124  1.1217  3.0282
   57CHL1  H19C 6667   2.039   2.633   9.675  1.0811  0.8325 -1.2744
   57CHL1    C1 6668   1.981   2.395   9.823  0.3637  0.0185 -0.0295
   57CHL1   H1A 6669   1.890   2.427   9.768 -2.2044 -4.9021  0.7369
   57CHL1   H1B 6670   1.982   2.284   9.813 -0.2622  0.1223 -1.6474
   57CHL1    C2 6671   1.980   2.442   9.967 -0.3304 -0.3597  0.4921
   57CHL1   H2A 6672   1.892   2.392  10.014  1.0517 -4.0652 -0.4827
   57CHL1   H2B 6673   1.977   2.553   9.972 -1.4179 -0.3610  0.1528
   57CHL1   C20 6674   2.225   2.258   9.073 -0.9536 -0.5218 -0.2994
   57CHL1   H20 6675   2.276   2.351   9.039 -1.5703 -0.1692 -0.2832
   57CHL1   C21 6676   2.080   2.269   9.037 -0.0068 -0.3578  0.1475
   57CHL1  H21A 6677   2.031   2.170   9.052  0.6867 -1.1721 -2.4928
   57CHL1  H21B 6678   2.067   2.314   8.937  3.6537  2.5733  0.7516
   57CHL1  H21C 6679   2.035   2.353   9.095  0.9900  0.0884  0.3025
   57CHL1   C22 6680   2.286   2.146   8.991 -1.2629  0.3045  0.4020
   57CHL1  H22A 6681   2.397   2.137   9.001 -1.3630 -1.8318 -0.0194
   57CHL1  H22B 6682   2.242   2.046   9.010 -1.1588 -0.1535 -1.5434
   57CHL1   C23 6683   2.285   2.162   8.840 -0.1684 -0.3361 -0.3072
   57CHL1  H23A 6684   2.181   2.175   8.805 -0.7661 -0.1007  1.4872
   57CHL1  H23B 6685   2.343   2.255   8.821  1.5682 -0.7855  2.1823
   57CHL1   C24 6686   2.358   2.053   8.763  0.1095  0.9944 -0.4249
   57CHL1  H24A 6687   2.465   2.058   8.791 -0.0493  1.8940  0.0740
   57CHL1  H24B 6688   2.330   1.957   8.811  0.0832  1.3378  0.2650
   57CHL1   C25 6689   2.335   2.048   8.611 -0.2538  0.1168  0.0978
   57CHL1   H25 6690   2.359   2.148   8.570  0.7005 -1.2218 -2.9465
   57CHL1   C26 6691   2.427   1.947   8.539  0.2351 -0.3016 -0.2142
   57CHL1  H26A 6692   2.535   1.971   8.552 -0.1233  1.0974  0.3503
   57CHL1  H26B 6693   2.409   1.845   8.578 -3.1672  0.3729  0.2188
   57CHL1  H26C 6694   2.418   1.958   8.429  2.1062 -2.0935 -0.6062
   57CHL1   C27 6695   2.193   2.009   8.570 -0.4591  0.7219 -0.0142
   57CHL1  H27A 6696   2.172   2.000   8.462  1.6197 -1.3186 -0.3223
   57CHL1  H27B 6697   2.157   1.912   8.610  0.4105  0.0775 -0.7866
   57CHL1  H27C 6698   2.128   2.091   8.610  2.5285  2.3441  1.9096
   58CHL1    C3 6699   1.132   6.572  10.105  0.3411 -0.1284 -0.0228
   58CHL1    H3 6700   1.123   6.678  10.073  0.5066 -0.2511 -0.4746
   58CHL1    O3 6701   1.141   6.572  10.247 -0.4159  0.2218  0.3511
   58CHL1   H3' 6702   1.116   6.482  10.271  0.8143 -0.0523  0.7066
   58CHL1    C4 6703   1.001   6.505  10.076  0.4207 -0.0989 -0.1714
   58CHL1   H4A 6704   0.984   6.406  10.123  0.8835  0.3118  0.9067
   58CHL1   H4B 6705   0.922   6.562  10.130  1.0173  2.2140 -1.5689
   58CHL1    C5 6706   0.977   6.506   9.925  0.2162  0.1684 -0.0742
   58CHL1    C6 6707   0.863   6.559   9.876  0.3822  0.1887  0.0039
   58CHL1    H6 6708   0.792   6.609   9.944  1.9843 -1.4460  3.0935
   58CHL1    C7 6709   0.839   6.545   9.723  0.1330 -0.4941 -0.6071
   58CHL1   H7A 6710   0.733   6.517   9.701 -0.0689 -0.5975  0.4834
   58CHL1   H7B 6711   0.857   6.642   9.671 -0.5228 -0.2294 -0.3553
   58CHL1    C8 6712   0.921   6.444   9.641  0.5256 -0.2195  0.2050
   58CHL1    H8 6713   0.876   6.346   9.666 -0.5713  0.4089  0.7477
   58CHL1   C14 6714   0.909   6.474   9.490 -0.0551  0.3233 -0.6539
   58CHL1   H14 6715   0.938   6.581   9.487  2.1577 -0.1918  0.5618
   58CHL1   C15 6716   0.762   6.478   9.433 -0.2865 -0.2219 -0.1902
   58CHL1  H15A 6717   0.696   6.412   9.493  0.4393 -0.3062  0.5324
   58CHL1  H15B 6718   0.716   6.578   9.449 -1.1804 -0.5379 -0.7037
   58CHL1   C16 6719   0.786   6.424   9.296  0.7855 -0.5117  0.1883
   58CHL1  H16A 6720   0.758   6.318   9.281 -4.6081  0.6896 -0.4758
   58CHL1  H16B 6721   0.728   6.485   9.223 -0.8873  1.8080  3.1974
   58CHL1   C17 6722   0.938   6.430   9.265  0.1943  0.2574 -0.0543
   58CHL1   H17 6723   0.950   6.539   9.246 -0.0098  0.4961  1.0825
   58CHL1   C13 6724   1.006   6.396   9.404 -0.2095  0.6103  0.9407
   58CHL1   C18 6725   0.995   6.241   9.428 -0.1918 -0.2539  0.6040
   58CHL1  H18A 6726   0.999   6.211   9.535 -0.1837 -1.3715  0.3032
   58CHL1  H18B 6727   0.903   6.190   9.392 -1.4360  0.5282  2.4820
   58CHL1  H18C 6728   1.080   6.192   9.376  0.5317 -1.9577  3.1622
   58CHL1   C12 6729   1.152   6.446   9.438  0.3239 -0.1098  0.3332
   58CHL1  H12A 6730   1.228   6.393   9.376  0.1659 -0.8733  0.7861
   58CHL1  H12B 6731   1.149   6.557   9.428 -0.7483 -0.3210 -2.6113
   58CHL1   C11 6732   1.182   6.412   9.584  0.2253 -0.1025  0.0623
   58CHL1  H11A 6733   1.185   6.301   9.587 -0.8823 -0.1566 -0.3429
   58CHL1  H11B 6734   1.276   6.462   9.615 -0.5397  1.6414 -0.3390
   58CHL1    C9 6735   1.067   6.462   9.682 -0.2070  0.9195 -0.5444
   58CHL1    H9 6736   1.067   6.573   9.668 -2.2900  1.0071 -0.2187
   58CHL1   C10 6737   1.086   6.440   9.838  0.5330 -0.0300  0.1153
   58CHL1   C19 6738   1.099   6.283   9.854  1.6078 -0.1876  0.0762
   58CHL1  H19A 6739   1.015   6.219   9.820 -0.1099  0.9012  2.0828
   58CHL1  H19B 6740   1.187   6.244   9.798  0.8356 -0.5002 -0.9332
   58CHL1  H19C 6741   1.122   6.260   9.960  0.0069  1.5957  0.8652
   58CHL1    C1 6742   1.222   6.497   9.886  0.0708  0.1678 -0.2190
   58CHL1   H1A 6743   1.299   6.430   9.842 -0.7609 -0.9414 -0.0121
   58CHL1   H1B 6744   1.227   6.604   9.854  0.3899  0.3507  0.4259
   58CHL1    C2 6745   1.244   6.499  10.039  0.4820  0.8277 -0.2592
   58CHL1   H2A 6746   1.344   6.539  10.068 -0.4094  1.2626  2.4672
   58CHL1   H2B 6747   1.238   6.393  10.072 -0.7279  0.4604 -1.5406
   58CHL1   C20 6748   0.987   6.349   9.146  0.5815 -0.8432  0.5725
   58CHL1   H20 6749   1.009   6.243   9.173  1.9865 -0.8837 -0.6028
   58CHL1   C21 6750   1.113   6.420   9.094 -0.2619  0.9409 -0.5528
   58CHL1  H21A 6751   1.177   6.443   9.182  0.8083  0.9259 -1.3076
   58CHL1  H21B 6752   1.097   6.507   9.028  1.6520 -0.2503 -2.7281
   58CHL1  H21C 6753   1.160   6.338   9.035 -0.0259 -0.9158  2.0256
   58CHL1   C22 6754   0.887   6.337   9.035  0.1398 -0.4432  0.0839
   58CHL1  H22A 6755   0.797   6.282   9.068  0.3401 -0.3716  0.7803
   58CHL1  H22B 6756   0.865   6.443   9.011 -0.8802 -0.8247 -0.7057
   58CHL1   C23 6757   0.935   6.271   8.904  0.5414  0.6240  0.3166
   58CHL1  H23A 6758   1.020   6.325   8.858  1.3768 -0.4026  0.6215
   58CHL1  H23B 6759   0.959   6.167   8.934 -0.2478  0.7729  1.5824
   58CHL1   C24 6760   0.823   6.277   8.800 -0.6992  0.0444  0.3249
   58CHL1  H24A 6761   0.728   6.223   8.823 -0.7200  0.1952  0.6041
   58CHL1  H24B 6762   0.795   6.382   8.777  1.5850  0.5321 -0.4914
   58CHL1   C25 6763   0.870   6.211   8.668  0.1375 -0.0246 -0.2095
   58CHL1   H25 6764   0.969   6.260   8.652  1.6509 -3.0426 -0.7182
   58CHL1   C26 6765   0.882   6.054   8.675 -0.2019  0.2463  0.0962
   58CHL1  H26A 6766   0.936   6.021   8.767 -1.6507 -0.9737  0.5443
   58CHL1  H26B 6767   0.780   6.012   8.683 -0.8057  1.7508  0.5795
   58CHL1  H26C 6768   0.933   6.009   8.587 -0.8947  0.5763 -0.4758
   58CHL1   C27 6769   0.762   6.248   8.560 -0.1003  0.7010  0.8684
   58CHL1  H27A 6770   0.752   6.358   8.550  0.2526  0.5897 -1.3378
   58CHL1  H27B 6771   0.804   6.205   8.466 -2.6704 -2.0630  0.8258
   58CHL1  H27C 6772   0.663   6.198   8.565 -0.6837  1.0887 -3.2489
   59CHL1    C3 6773   1.512   6.178  10.348 -0.4686 -0.1006 -0.0345
   59CHL1    H3 6774   1.413   6.128  10.352 -1.0225  0.8126 -1.7461
   59CHL1    O3 6775   1.539   6.217  10.482  0.0917  0.2083 -0.4769
   59CHL1   H3' 6776   1.538   6.139  10.537 -0.8141 -0.1948 -1.0413
   59CHL1    C4 6777   1.612   6.081  10.302  0.3582 -0.2275 -0.8122
   59CHL1   H4A 6778   1.713   6.129  10.306  0.0167  0.5316 -1.0951
   59CHL1   H4B 6779   1.605   6.001  10.379  0.4818  0.0578 -0.4989
   59CHL1    C5 6780   1.581   6.038  10.164 -0.4984 -0.0404  0.1983
   59CHL1    C6 6781   1.561   5.908  10.137  0.1028 -0.2631  0.4338
   59CHL1    H6 6782   1.574   5.841  10.223 -0.0971  1.6080  1.9820
   59CHL1    C7 6783   1.548   5.853   9.993  0.9299  0.8240  0.2089
   59CHL1   H7A 6784   1.631   5.779   9.995  3.0878  3.0022 -1.9882
   59CHL1   H7B 6785   1.448   5.805   9.990  1.7377 -1.3567  3.3516
   59CHL1    C8 6786   1.569   5.953   9.884  0.5720 -0.9954  0.4935
   59CHL1    H8 6787   1.677   5.958   9.859 -0.2923  0.0517 -3.7338
   59CHL1   C14 6788   1.481   5.909   9.769  0.4973 -0.0677  0.6826
   59CHL1   H14 6789   1.378   5.934   9.802  0.7745  0.7093  0.9752
   59CHL1   C15 6790   1.471   5.759   9.721 -0.6221 -0.2328 -0.3875
   59CHL1  H15A 6791   1.574   5.717   9.729 -0.2895  0.8124  1.3064
   59CHL1  H15B 6792   1.412   5.694   9.788  0.1270  1.8002  2.4034
   59CHL1   C16 6793   1.425   5.763   9.577  0.6765  0.5009  0.2131
   59CHL1  H16A 6794   1.506   5.718   9.516 -0.4151 -0.6028 -0.4737
   59CHL1  H16B 6795   1.333   5.702   9.566 -1.6641  2.8196  4.1610
   59CHL1   C17 6796   1.418   5.914   9.535 -0.3850  0.3716  0.0093
   59CHL1   H17 6797   1.310   5.934   9.555 -0.2316  1.2877 -0.0305
   59CHL1   C13 6798   1.500   5.991   9.639  0.1047  0.0108 -0.1678
   59CHL1   C18 6799   1.653   5.981   9.602 -0.2310  0.8180 -0.3942
   59CHL1  H18A 6800   1.683   5.874   9.609 -0.4084  0.8369  0.7552
   59CHL1  H18B 6801   1.685   6.015   9.501  1.7596 -0.1878 -0.1553
   59CHL1  H18C 6802   1.708   6.036   9.681  1.4148 -0.8957 -0.2797
   59CHL1   C12 6803   1.458   6.138   9.671  0.1425  0.1755  0.0102
   59CHL1  H12A 6804   1.467   6.211   9.587 -2.4280 -0.4740 -0.9358
   59CHL1  H12B 6805   1.349   6.119   9.683  0.3324 -1.0664 -0.1245
   59CHL1   C11 6806   1.526   6.194   9.805 -0.6021 -0.0125 -0.2621
   59CHL1  H11A 6807   1.633   6.203   9.776 -0.5341 -1.1243 -0.4311
   59CHL1  H11B 6808   1.475   6.287   9.836 -1.8266 -0.2402 -1.4865
   59CHL1    C9 6809   1.523   6.095   9.925 -0.3616  0.8469 -0.0611
   59CHL1    H9 6810   1.418   6.072   9.953 -1.0613  1.2085 -2.1759
   59CHL1   C10 6811   1.577   6.146  10.059 -0.1154 -0.4047 -0.2294
   59CHL1   C19 6812   1.714   6.206  10.029 -0.4044  0.6813  0.4868
   59CHL1  H19A 6813   1.714   6.288   9.954 -0.2371 -0.5940 -0.9395
   59CHL1  H19B 6814   1.766   6.253  10.115  0.7066  1.4601 -0.5828
   59CHL1  H19C 6815   1.775   6.132   9.974 -0.4594  0.2609  0.9931
   59CHL1    C1 6816   1.484   6.263  10.106 -0.0618  0.1024 -0.3795
   59CHL1   H1A 6817   1.515   6.353  10.050  2.0309  1.2057  2.2830
   59CHL1   H1B 6818   1.379   6.232  10.091 -0.1733 -1.3101  2.4880
   59CHL1    C2 6819   1.502   6.300  10.262 -0.4656  0.3084  0.3577
   59CHL1   H2A 6820   1.424   6.378  10.273 -1.1377 -0.4253  0.8949
   59CHL1   H2B 6821   1.602   6.347  10.269 -0.8519  1.3049 -0.5348
   59CHL1   C20 6822   1.431   5.957   9.385 -0.0903 -0.3943  0.7254
   59CHL1   H20 6823   1.531   5.922   9.350 -0.2909  1.1389 -1.6061
   59CHL1   C21 6824   1.410   6.112   9.353  0.0734  0.2837  0.3042
   59CHL1  H21A 6825   1.315   6.147   9.400  0.1560 -1.1222  1.5890
   59CHL1  H21B 6826   1.396   6.110   9.243 -3.1924 -0.8624  0.6227
   59CHL1  H21C 6827   1.495   6.175   9.387 -0.2663  0.2359  1.2809
   59CHL1   C22 6828   1.332   5.872   9.292 -0.1627 -0.6881  0.5210
   59CHL1  H22A 6829   1.305   5.773   9.333 -1.8095  0.0016  1.2045
   59CHL1  H22B 6830   1.238   5.931   9.301  0.6990  0.6594  1.1131
   59CHL1   C23 6831   1.370   5.867   9.146 -0.7642  0.4823 -0.5527
   59CHL1  H23A 6832   1.358   5.958   9.084  0.2152  0.5324 -0.6748
   59CHL1  H23B 6833   1.480   5.853   9.139 -0.6290  1.2326 -0.0999
   59CHL1   C24 6834   1.300   5.750   9.074  0.1752 -0.1386  0.2264
   59CHL1  H24A 6835   1.320   5.653   9.124  0.3811  0.5422  1.5010
   59CHL1  H24B 6836   1.194   5.760   9.106  1.0044 -2.4557  4.3085
   59CHL1   C25 6837   1.314   5.741   8.920 -0.1825  0.0591 -0.6609
   59CHL1   H25 6838   1.421   5.731   8.890 -0.1007  0.2803 -0.4480
   59CHL1   C26 6839   1.248   5.603   8.870  0.6866 -0.8669 -0.2730
   59CHL1  H26A 6840   1.306   5.520   8.916 -0.0196 -0.5517  1.2519
   59CHL1  H26B 6841   1.145   5.604   8.911  0.5737  0.2649 -0.5433
   59CHL1  H26C 6842   1.243   5.598   8.759  1.9818  0.5116 -0.4265
   59CHL1   C27 6843   1.244   5.852   8.842 -0.4367  0.1370  0.0821
   59CHL1  H27A 6844   1.298   5.946   8.868 -0.8883  0.0796  1.3175
   59CHL1  H27B 6845   1.253   5.836   8.732 -1.0774  1.1676 -0.1237
   59CHL1  H27C 6846   1.137   5.853   8.869 -0.8400 -0.4108 -1.3975
   60CHL1    C3 6847   6.404   5.583  10.268 -0.8701 -0.4990 -0.6469
   60CHL1    H3 6848   6.489   5.518  10.234 -0.1913 -0.6323  1.2209
   60CHL1    O3 6849   6.379   5.563  10.405  0.4245  0.5103  0.5724
   60CHL1   H3' 6850   6.305   5.621  10.425 -1.2931 -1.3445 -0.0870
   60CHL1    C4 6851   6.448   5.729  10.247 -0.7214  0.1585  0.1718
   60CHL1   H4A 6852   6.368   5.799  10.278 -1.0116 -0.0005 -0.2056
   60CHL1   H4B 6853   6.541   5.748  10.305 -0.8491  3.9729 -0.6043
   60CHL1    C5 6854   6.475   5.754  10.100 -0.2279  0.5683 -0.4881
   60CHL1    C6 6855   6.591   5.793  10.059  0.7367  0.0077 -0.1445
   60CHL1    H6 6856   6.673   5.825  10.125  0.5224  1.4382 -0.5347
   60CHL1    C7 6857   6.615   5.829   9.915  0.7757 -0.0479  0.2761
   60CHL1   H7A 6858   6.682   5.918   9.909 -1.3873  1.9851  3.3210
   60CHL1   H7B 6859   6.680   5.751   9.870 -1.2132 -1.8685  0.4264
   60CHL1    C8 6860   6.491   5.847   9.820 -0.1919 -0.4521 -0.0316
   60CHL1    H8 6861   6.442   5.946   9.833  0.2653 -0.1157 -0.7840
   60CHL1   C14 6862   6.526   5.840   9.672 -0.2011  0.1187 -0.1725
   60CHL1   H14 6863   6.565   5.737   9.658 -2.0322 -0.6006 -0.2713
   60CHL1   C15 6864   6.636   5.935   9.616 -1.1315 -0.0273 -0.0886
   60CHL1  H15A 6865   6.632   6.037   9.659  1.0991  0.6929 -1.4374
   60CHL1  H15B 6866   6.731   5.879   9.631 -2.0273 -1.2781  1.2402
   60CHL1   C16 6867   6.614   5.942   9.465 -0.5022 -0.4007  0.2652
   60CHL1  H16A 6868   6.599   6.050   9.445  2.6943  0.0053 -0.5434
   60CHL1  H16B 6869   6.703   5.913   9.405 -0.8885 -0.3263 -0.3452
   60CHL1   C17 6870   6.485   5.859   9.443 -0.2385  0.0866 -0.1239
   60CHL1   H17 6871   6.520   5.755   9.436 -0.2687  0.1345 -1.0746
   60CHL1   C13 6872   6.407   5.856   9.579  0.0254  0.0518  0.0045
   60CHL1   C18 6873   6.332   5.995   9.600  0.1933 -0.0447  0.0964
   60CHL1  H18A 6874   6.274   6.000   9.694  0.0500  1.3776 -0.0353
   60CHL1  H18B 6875   6.403   6.076   9.572  1.4461 -1.8040 -2.1787
   60CHL1  H18C 6876   6.248   5.998   9.527 -1.6714  3.2441  2.1360
   60CHL1   C12 6877   6.315   5.734   9.606  0.9313 -0.8493  0.5382
   60CHL1  H12A 6878   6.214   5.747   9.562  1.1599  1.4040  0.5631
   60CHL1  H12B 6879   6.371   5.643   9.576  0.0081 -1.0714 -0.5795
   60CHL1   C11 6880   6.275   5.716   9.762  0.2189  0.0408 -0.3567
   60CHL1  H11A 6881   6.206   5.802   9.775 -0.7366 -0.9019  1.0673
   60CHL1  H11B 6882   6.229   5.616   9.776  0.1940  0.3507  2.3706
   60CHL1    C9 6883   6.393   5.731   9.855 -0.5756 -0.2098 -0.1581
   60CHL1    H9 6884   6.454   5.640   9.834 -1.1188 -0.7908  0.7215
   60CHL1   C10 6885   6.357   5.726  10.005 -0.8156 -0.1977  0.2423
   60CHL1   C19 6886   6.254   5.837  10.031  0.3396 -0.1765  0.2419
   60CHL1  H19A 6887   6.165   5.821   9.966 -0.3177 -0.3873  1.1779
   60CHL1  H19B 6888   6.212   5.836  10.134  2.9823  0.0961  1.3916
   60CHL1  H19C 6889   6.289   5.940  10.009 -1.2006 -0.0694 -2.0245
   60CHL1    C1 6890   6.297   5.586  10.036  0.1859 -0.4785  0.0277
   60CHL1   H1A 6891   6.198   5.569   9.988  0.2665 -1.1368  0.0957
   60CHL1   H1B 6892   6.365   5.507   9.998 -1.4053 -1.0877 -1.7253
   60CHL1    C2 6893   6.277   5.556  10.186  0.1410 -0.6036 -0.3452
   60CHL1   H2A 6894   6.245   5.450  10.200 -0.4326 -0.3192  0.5685
   60CHL1   H2B 6895   6.196   5.622  10.222  1.7240  0.6771  1.0712
   60CHL1   C20 6896   6.400   5.908   9.315  0.1578  0.1969 -0.2768
   60CHL1   H20 6897   6.356   6.006   9.346  3.2334  1.5048  0.3247
   60CHL1   C21 6898   6.298   5.799   9.275 -0.1207 -0.5821 -0.1951
   60CHL1  H21A 6899   6.236   5.769   9.362  0.7995 -1.2940  0.2311
   60CHL1  H21B 6900   6.356   5.710   9.241  0.4524 -0.1905 -0.2515
   60CHL1  H21C 6901   6.238   5.849   9.196 -0.1763 -1.0355 -0.4423
   60CHL1   C22 6902   6.489   5.951   9.199  0.2149  0.9767  0.0200
   60CHL1  H22A 6903   6.570   6.022   9.227  1.4976 -0.2331 -0.4913
   60CHL1  H22B 6904   6.537   5.861   9.154  2.0186  0.6624  2.3920
   60CHL1   C23 6905   6.415   6.029   9.084  0.1541 -0.2003 -0.1498
   60CHL1  H23A 6906   6.489   6.036   9.002 -0.6232  2.4278 -0.7012
   60CHL1  H23B 6907   6.326   5.969   9.054 -0.4974 -1.4449  3.6824
   60CHL1   C24 6908   6.367   6.167   9.141  0.1561 -0.3123 -0.2693
   60CHL1  H24A 6909   6.283   6.155   9.212  1.5576  0.5731  1.6328
   60CHL1  H24B 6910   6.452   6.207   9.199 -0.3530 -1.0417  1.0012
   60CHL1   C25 6911   6.334   6.267   9.028 -0.3155  0.0008 -0.0349
   60CHL1   H25 6912   6.418   6.266   8.956 -0.4326  0.2786 -0.1757
   60CHL1   C26 6913   6.198   6.234   8.952 -0.5442 -0.2002 -0.3697
   60CHL1  H26A 6914   6.194   6.306   8.868 -0.5094 -1.4876 -1.4985
   60CHL1  H26B 6915   6.204   6.133   8.907 -2.2338 -0.3493 -0.3005
   60CHL1  H26C 6916   6.114   6.237   9.025 -1.9299 -1.5134 -1.8475
   60CHL1   C27 6917   6.322   6.403   9.082  0.7274  0.3682 -0.4891
   60CHL1  H27A 6918   6.251   6.403   9.167 -0.7092 -0.3271 -1.6516
   60CHL1  H27B 6919   6.415   6.445   9.127  0.5778  0.2869 -0.1054
   60CHL1  H27C 6920   6.281   6.470   9.004  1.3595 -2.4445 -3.4417
   61CHL1    C3 6921   3.496   4.440  10.383 -0.7104 -0.2320  0.3427
   61CHL1    H3 6922   3.597   4.449  10.339 -1.6000  0.5655 -1.6460
   61CHL1    O3 6923   3.506   4.350  10.489 -0.5017 -0.2298 -0.0578
   61CHL1   H3' 6924   3.416   4.323  10.510 -0.5943  1.0514  1.3639
   61CHL1    C4 6925   3.428   4.576  10.424 -0.1205  0.3342  0.3503
   61CHL1   H4A 6926   3.330   4.551  10.470  0.2507 -1.9139  0.0537
   61CHL1   H4B 6927   3.491   4.622  10.503  0.1133  1.8760 -0.6803
   61CHL1    C5 6928   3.414   4.668  10.304 -0.1392  0.2301  0.0935
   61CHL1    C6 6929   3.473   4.785  10.296  0.0133  0.0185  0.0259
   61CHL1    H6 6930   3.534   4.819  10.381  0.8505 -0.1411 -0.4958
   61CHL1    C7 6931   3.467   4.882  10.177  0.1631  0.6864 -0.0327
   61CHL1   H7A 6932   3.450   4.986  10.212 -3.4071  1.4792 -3.4564
   61CHL1   H7B 6933   3.564   4.891  10.123 -0.3117  2.5833 -0.6508
   61CHL1    C8 6934   3.358   4.834  10.075  0.1433 -0.3385 -0.3786
   61CHL1    H8 6935   3.254   4.859  10.108  0.5122  0.2192  0.4056
   61CHL1   C14 6936   3.382   4.900   9.938 -0.2539  0.2063  0.3346
   61CHL1   H14 6937   3.462   4.841   9.888 -0.9119 -1.8848  1.6232
   61CHL1   C15 6938   3.410   5.051   9.932  0.3883  0.1854 -0.5274
   61CHL1  H15A 6939   3.341   5.097  10.007  0.6865  0.9090 -0.6799
   61CHL1  H15B 6940   3.510   5.076   9.975  0.9243 -0.5802 -1.3205
   61CHL1   C16 6941   3.379   5.093   9.793  0.1584  0.6462  0.2897
   61CHL1  H16A 6942   3.300   5.171   9.789  1.1341  1.6500 -3.2898
   61CHL1  H16B 6943   3.468   5.129   9.737 -1.0219 -0.0279 -2.1503
   61CHL1   C17 6944   3.316   4.962   9.723 -0.5218 -0.1781  0.2721
   61CHL1   H17 6945   3.403   4.915   9.673 -0.7962  0.8390 -1.2171
   61CHL1   C13 6946   3.266   4.876   9.836 -0.5825 -0.1746 -0.2072
   61CHL1   C18 6947   3.136   4.931   9.891 -0.1009  0.3752 -0.6987
   61CHL1  H18A 6948   3.108   4.855   9.966 -2.3497  0.9507 -0.8857
   61CHL1  H18B 6949   3.144   5.035   9.931 -0.0290  0.0734  0.0876
   61CHL1  H18C 6950   3.067   4.934   9.803  2.8583  0.8491 -3.1968
   61CHL1   C12 6951   3.254   4.726   9.810 -0.1865  0.9017  0.1703
   61CHL1  H12A 6952   3.164   4.713   9.745 -1.3786 -0.4058  1.9743
   61CHL1  H12B 6953   3.342   4.683   9.759  0.4438 -1.1736  2.7863
   61CHL1   C11 6954   3.239   4.644   9.944  0.1901 -0.6855  0.3884
   61CHL1  H11A 6955   3.137   4.663   9.983  0.9420  2.1492  1.2091
   61CHL1  H11B 6956   3.249   4.538   9.914 -1.2871 -0.1292 -2.3528
   61CHL1    C9 6957   3.351   4.683  10.053  0.2433  0.2917 -0.0496
   61CHL1    H9 6958   3.447   4.652  10.008  0.6994 -1.2616  1.8887
   61CHL1   C10 6959   3.339   4.603  10.185  0.1153 -0.5979  0.0849
   61CHL1   C19 6960   3.190   4.603  10.228 -0.2025  0.3980  0.0013
   61CHL1  H19A 6961   3.174   4.550  10.324  0.0173  0.5148  0.1011
   61CHL1  H19B 6962   3.135   4.699  10.228 -1.5945 -0.2600 -3.1218
   61CHL1  H19C 6963   3.139   4.537  10.153 -0.2570  0.0859  0.3090
   61CHL1    C1 6964   3.375   4.454  10.155  0.0415 -0.1352  0.2756
   61CHL1   H1A 6965   3.295   4.415  10.088 -0.0274  0.4036  0.0387
   61CHL1   H1B 6966   3.473   4.451  10.102  0.4449  0.1667  0.9955
   61CHL1    C2 6967   3.401   4.375  10.281  0.3593 -0.4484 -0.3103
   61CHL1   H2A 6968   3.451   4.279  10.253 -1.4673 -1.1045 -1.5250
   61CHL1   H2B 6969   3.311   4.351  10.343  1.5778 -3.2213  0.5707
   61CHL1   C20 6970   3.224   4.995   9.608 -0.2400 -0.0386 -0.3728
   61CHL1   H20 6971   3.130   5.032   9.654  0.3531 -1.9900  2.7237
   61CHL1   C21 6972   3.190   4.869   9.527  0.4915 -0.1062 -0.0201
   61CHL1  H21A 6973   3.098   4.813   9.554 -0.0813  0.5471 -0.6052
   61CHL1  H21B 6974   3.269   4.792   9.544  0.1486 -1.5841 -4.0328
   61CHL1  H21C 6975   3.190   4.895   9.419 -1.2469  1.9774  0.4265
   61CHL1   C22 6976   3.282   5.105   9.516 -0.0137  0.1810  0.1195
   61CHL1  H22A 6977   3.313   5.195   9.574  0.8508  0.9270 -1.4194
   61CHL1  H22B 6978   3.379   5.071   9.474  0.4617 -0.4428  1.6665
   61CHL1   C23 6979   3.195   5.156   9.396  0.6361  0.5081 -0.2232
   61CHL1  H23A 6980   3.204   5.091   9.306 -0.6811  0.5177 -0.3740
   61CHL1  H23B 6981   3.091   5.156   9.434  1.0496  2.3060  1.0286
   61CHL1   C24 6982   3.227   5.295   9.336  0.3250  0.1092  0.4761
   61CHL1  H24A 6983   3.253   5.366   9.417 -2.1392  1.5187  0.1489
   61CHL1  H24B 6984   3.312   5.286   9.265 -0.2945  3.2454 -0.8510
   61CHL1   C25 6985   3.105   5.361   9.267  0.4454 -0.3046  0.3131
   61CHL1   H25 6986   3.033   5.343   9.350 -1.3901 -3.6610 -1.7681
   61CHL1   C26 6987   3.116   5.512   9.244 -0.0948 -0.0464 -0.3368
   61CHL1  H26A 6988   3.154   5.563   9.336  0.4832 -1.5264  0.2861
   61CHL1  H26B 6989   3.199   5.531   9.173 -0.1799  3.4701  0.3111
   61CHL1  H26C 6990   3.029   5.568   9.203 -0.9578 -1.6622 -0.7831
   61CHL1   C27 6991   3.066   5.276   9.142  0.3910 -0.2331 -0.7287
   61CHL1  H27A 6992   3.130   5.298   9.054 -0.5276  0.1272 -1.3213
   61CHL1  H27B 6993   3.066   5.167   9.162 -1.7319 -0.2492 -0.5667
   61CHL1  H27C 6994   2.963   5.305   9.113  0.2180  0.4392  0.5228
   62CHL1    C3 6995   3.281   1.382  10.401  0.2984  0.3046  0.0745
   62CHL1    H3 6996   3.370   1.320  10.376  0.9751  1.9447 -1.8771
   62CHL1    O3 6997   3.256   1.380  10.537 -0.4978  0.2170 -0.5475
   62CHL1   H3' 6998   3.179   1.435  10.553 -1.4260 -0.3879 -2.6117
   62CHL1    C4 6999   3.296   1.528  10.351 -0.0689  0.4728  0.0813
   62CHL1   H4A 7000   3.210   1.590  10.386 -1.3743 -1.2542  0.0913
   62CHL1   H4B 7001   3.392   1.570  10.388 -0.8192  0.0146  2.7719
   62CHL1    C5 7002   3.297   1.541  10.196  0.2241 -0.3032 -0.0826
   62CHL1    C6 7003   3.394   1.613  10.139 -0.7050 -0.8059  0.9176
   62CHL1    H6 7004   3.456   1.677  10.203 -3.3428 -0.8912  3.8188
   62CHL1    C7 7005   3.396   1.643   9.989 -0.3733 -0.1177  0.5135
   62CHL1   H7A 7006   3.397   1.753   9.972  0.5105 -0.2669 -0.4992
   62CHL1   H7B 7007   3.490   1.598   9.950 -0.0873 -0.7644  1.8888
   62CHL1    C8 7008   3.279   1.583   9.910 -0.4566  0.6901 -0.2324
   62CHL1    H8 7009   3.202   1.663   9.910 -0.4456  0.7250 -1.7129
   62CHL1   C14 7010   3.308   1.560   9.761 -1.1130  0.1203  0.2580
   62CHL1   H14 7011   3.376   1.472   9.768 -0.3880  0.5699 -0.7479
   62CHL1   C15 7012   3.386   1.674   9.690 -0.4203  0.0646 -0.2967
   62CHL1  H15A 7013   3.337   1.771   9.711  1.1406  0.8620 -0.1727
   62CHL1  H15B 7014   3.494   1.681   9.714 -0.5795  2.1761 -0.0207
   62CHL1   C16 7015   3.356   1.645   9.546  0.2452 -0.0445 -0.7033
   62CHL1  H16A 7016   3.296   1.732   9.512 -1.8146 -1.8407 -1.9374
   62CHL1  H16B 7017   3.447   1.631   9.483  1.1732  0.6531  0.4367
   62CHL1   C17 7018   3.259   1.528   9.540  0.0640  0.1808  0.5594
   62CHL1   H17 7019   3.315   1.432   9.542  1.4650  0.9738  0.5872
   62CHL1   C13 7020   3.185   1.526   9.677 -0.7717  0.1925 -0.5656
   62CHL1   C18 7021   3.076   1.630   9.670 -0.4266  0.1048  0.5439
   62CHL1  H18A 7022   2.994   1.589   9.607  1.5571 -5.4767  1.0314
   62CHL1  H18B 7023   3.044   1.642   9.775 -1.4605 -1.3138  0.4150
   62CHL1  H18C 7024   3.115   1.724   9.625 -0.2307 -0.3460 -0.2444
   62CHL1   C12 7025   3.130   1.385   9.730 -0.2136 -0.1368 -0.0792
   62CHL1  H12A 7026   3.036   1.359   9.677 -1.0623 -0.0438  1.3501
   62CHL1  H12B 7027   3.203   1.307   9.700 -1.8073 -0.4497 -3.7450
   62CHL1   C11 7028   3.102   1.403   9.878  0.1006  0.0123 -0.7053
   62CHL1  H11A 7029   3.019   1.476   9.884 -0.4147 -0.6119 -0.0594
   62CHL1  H11B 7030   3.059   1.309   9.918 -0.8335  1.3524  1.6281
   62CHL1    C9 7031   3.221   1.447   9.965  0.1102 -0.9943  0.1117
   62CHL1    H9 7032   3.303   1.373   9.962  1.2530  0.0420  2.8367
   62CHL1   C10 7033   3.192   1.461  10.119  0.4696  0.2690  0.6174
   62CHL1   C19 7034   3.056   1.525  10.137  0.0308 -0.0833  0.4814
   62CHL1  H19A 7035   3.028   1.540  10.243  0.8301  1.3332  0.5112
   62CHL1  H19B 7036   3.056   1.630  10.100 -2.2496 -0.2187 -0.0460
   62CHL1  H19C 7037   2.974   1.464  10.094  1.7367 -2.0917 -0.1080
   62CHL1    C1 7038   3.181   1.322  10.181  0.3848  1.0180  0.1468
   62CHL1   H1A 7039   3.100   1.268  10.129  0.1386 -1.3391  2.7279
   62CHL1   H1B 7040   3.272   1.260  10.167 -2.3859 -3.0002 -2.2558
   62CHL1    C2 7041   3.156   1.325  10.336  0.0576  0.0020 -0.4435
   62CHL1   H2A 7042   3.141   1.218  10.360  0.6978  0.3160  1.5287
   62CHL1   H2B 7043   3.062   1.379  10.360  0.0904  0.1588 -0.6606
   62CHL1   C20 7044   3.184   1.512   9.412 -0.6252 -0.0517  0.2598
   62CHL1   H20 7045   3.096   1.580   9.418 -0.9372 -0.3587 -0.7084
   62CHL1   C21 7046   3.138   1.366   9.391  1.6632  0.8783  0.6555
   62CHL1  H21A 7047   3.068   1.362   9.304  2.5070  1.4074 -0.0611
   62CHL1  H21B 7048   3.083   1.321   9.477  1.5022 -1.7393 -0.7040
   62CHL1  H21C 7049   3.227   1.300   9.387  0.9607 -0.1172  0.8584
   62CHL1   C22 7050   3.270   1.551   9.288 -0.4528 -0.1804 -0.5542
   62CHL1  H22A 7051   3.281   1.661   9.291  0.1581 -0.2527  0.4713
   62CHL1  H22B 7052   3.371   1.503   9.284 -0.5319 -0.4802  0.6696
   62CHL1   C23 7053   3.199   1.533   9.150 -0.1244  0.1908 -0.5428
   62CHL1  H23A 7054   3.255   1.582   9.068  2.2016  0.6431  1.1843
   62CHL1  H23B 7055   3.214   1.425   9.128 -1.0394 -0.6908  2.6435
   62CHL1   C24 7056   3.065   1.600   9.135 -0.1218 -0.1043 -0.6302
   62CHL1  H24A 7057   3.008   1.583   9.229 -1.5761  0.8720 -1.3011
   62CHL1  H24B 7058   3.088   1.708   9.147  0.6769 -0.3859  0.5765
   62CHL1   C25 7059   2.987   1.586   9.007 -0.4950  0.0597  0.5372
   62CHL1   H25 7060   2.901   1.657   9.013 -0.8560 -0.4572  2.0624
   62CHL1   C26 7061   3.066   1.613   8.879  0.3353  0.1203 -0.5696
   62CHL1  H26A 7062   3.112   1.714   8.887 -0.3054  0.3900 -0.2132
   62CHL1  H26B 7063   3.144   1.535   8.871 -1.0922 -1.7164  2.0103
   62CHL1  H26C 7064   3.004   1.612   8.786 -0.2276 -0.5269 -0.1981
   62CHL1   C27 7065   2.916   1.454   8.990 -0.0188  0.4112 -0.0448
   62CHL1  H27A 7066   2.860   1.451   8.894  1.6902 -1.0848 -1.0857
   62CHL1  H27B 7067   2.975   1.359   8.988 -1.2642 -0.3847 -1.3502
   62CHL1  H27C 7068   2.853   1.438   9.080  1.1976  0.1202  0.7828
   63CHL1    C3 7069   6.732   6.189  10.498  0.0610 -0.3306 -0.3113
   63CHL1    H3 7070   6.803   6.272  10.478 -0.0884 -0.5362 -1.7951
   63CHL1    O3 7071   6.767   6.127  10.620  0.4376 -0.5147  0.6087
   63CHL1   H3' 7072   6.702   6.058  10.634  1.5670 -2.1592 -1.5101
   63CHL1    C4 7073   6.588   6.255  10.503  0.0346 -0.3926  0.8029
   63CHL1   H4A 7074   6.505   6.190  10.539  0.5266 -0.9687  0.9085
   63CHL1   H4B 7075   6.606   6.328  10.585  4.0360  0.1312 -0.3482
   63CHL1    C5 7076   6.558   6.327  10.378  0.2941 -0.4289 -0.2923
   63CHL1    C6 7077   6.528   6.458  10.368  0.0138 -0.7047  0.3615
   63CHL1    H6 7078   6.504   6.520  10.456 -3.0255  0.5915 -1.2082
   63CHL1    C7 7079   6.482   6.519  10.232  0.3195  0.1496  0.5468
   63CHL1   H7A 7080   6.399   6.590  10.252 -2.3672 -2.7991  0.7496
   63CHL1   H7B 7081   6.567   6.576  10.190 -0.5910 -0.1362 -1.8257
   63CHL1    C8 7082   6.440   6.419  10.127 -0.7790 -0.1438 -0.1535
   63CHL1    H8 7083   6.338   6.383  10.151 -1.2661  2.2539  1.6981
   63CHL1   C14 7084   6.438   6.490   9.993 -0.5666 -0.5748  0.0390
   63CHL1   H14 7085   6.540   6.514   9.956 -0.9148  0.3539 -0.3534
   63CHL1   C15 7086   6.354   6.627   9.983  0.3313  0.4881  0.5501
   63CHL1  H15A 7087   6.263   6.615  10.045 -0.0506  1.0842  0.1240
   63CHL1  H15B 7088   6.425   6.709  10.007 -0.2566  1.1587  0.0554
   63CHL1   C16 7089   6.310   6.638   9.829 -0.8771 -0.2108  0.4599
   63CHL1  H16A 7090   6.200   6.639   9.820 -0.7876 -0.2473 -0.9415
   63CHL1  H16B 7091   6.352   6.734   9.792 -2.6680  0.2886 -0.3455
   63CHL1   C17 7092   6.370   6.507   9.763 -0.1666  0.0081  0.2350
   63CHL1   H17 7093   6.473   6.533   9.730 -0.8881  1.0183 -1.3709
   63CHL1   C13 7094   6.386   6.399   9.879 -0.1687  0.6486 -0.0526
   63CHL1   C18 7095   6.243   6.342   9.904  0.0990  0.6886  0.6141
   63CHL1  H18A 7096   6.173   6.428   9.915  1.6883  2.1081 -0.0242
   63CHL1  H18B 7097   6.215   6.281   9.815 -0.6799 -0.4543  1.6035
   63CHL1  H18C 7098   6.237   6.274   9.992 -2.2364 -0.2619 -0.1949
   63CHL1   C12 7099   6.490   6.280   9.860  0.1572 -0.5655  0.5187
   63CHL1  H12A 7100   6.464   6.209   9.779  0.3323  2.2913 -2.1863
   63CHL1  H12B 7101   6.587   6.328   9.837 -0.0420 -0.0569  0.7326
   63CHL1   C11 7102   6.512   6.208   9.999  0.3498 -0.2855  0.4079
   63CHL1  H11A 7103   6.425   6.141  10.016 -0.2909  0.8657  1.8172
   63CHL1  H11B 7104   6.607   6.152   9.987  1.2406  1.0678  0.9666
   63CHL1    C9 7105   6.540   6.297  10.122 -0.1519 -0.1059  0.0373
   63CHL1    H9 7106   6.637   6.350  10.112  0.9280 -2.1069 -0.7425
   63CHL1   C10 7107   6.561   6.228  10.255  0.0484  0.8397 -0.5032
   63CHL1   C19 7108   6.449   6.120  10.264 -0.2020 -0.4809 -0.3874
   63CHL1  H19A 7109   6.454   6.049  10.179  0.9579  0.3860 -1.0755
   63CHL1  H19B 7110   6.440   6.053  10.352  0.3588 -1.1197 -0.8110
   63CHL1  H19C 7111   6.353   6.178  10.265  0.5638  0.8340 -0.0433
   63CHL1    C1 7112   6.699   6.167  10.254  0.0127  0.3431  0.1223
   63CHL1   H1A 7113   6.711   6.096  10.169 -1.5487  0.1041  0.0659
   63CHL1   H1B 7114   6.782   6.237  10.232  1.4279 -1.7871 -1.7659
   63CHL1    C2 7115   6.740   6.092  10.382  0.0225 -0.4163  0.7424
   63CHL1   H2A 7116   6.841   6.047  10.370  0.0840  0.1768 -1.6479
   63CHL1   H2B 7117   6.673   6.005  10.401 -0.8550  0.1986  0.5734
   63CHL1   C20 7118   6.304   6.466   9.634 -0.1272  0.2957 -0.6189
   63CHL1   H20 7119   6.218   6.400   9.658 -0.4069  1.3464  1.5399
   63CHL1   C21 7120   6.406   6.396   9.547  0.2248  0.3247  0.0732
   63CHL1  H21A 7121   6.471   6.463   9.486 -2.5380  3.1748  0.0042
   63CHL1  H21B 7122   6.350   6.323   9.485 -2.5736 -0.2667  3.0624
   63CHL1  H21C 7123   6.479   6.343   9.612  0.2820 -0.9375 -0.9738
   63CHL1   C22 7124   6.230   6.579   9.547 -0.5905  0.5249  0.0456
   63CHL1  H22A 7125   6.158   6.630   9.615 -2.2411  0.6953 -1.7395
   63CHL1  H22B 7126   6.310   6.648   9.513 -0.3104  1.3221  2.1513
   63CHL1   C23 7127   6.148   6.517   9.435  0.8700 -0.4638 -0.2616
   63CHL1  H23A 7128   6.206   6.489   9.345  0.2210 -0.3701 -0.7189
   63CHL1  H23B 7129   6.104   6.423   9.476 -0.2734 -0.1995 -0.8338
   63CHL1   C24 7130   6.032   6.615   9.406 -0.3223  1.0370 -0.7863
   63CHL1  H24A 7131   5.975   6.635   9.499 -0.4639 -1.4396 -0.2663
   63CHL1  H24B 7132   6.084   6.708   9.376  0.0124  0.8197 -0.8731
   63CHL1   C25 7133   5.938   6.556   9.306  1.0383 -0.5088  0.1661
   63CHL1   H25 7134   5.931   6.446   9.322  1.6638 -0.5004  0.5080
   63CHL1   C26 7135   5.798   6.616   9.327  0.4094 -0.1686  0.1223
   63CHL1  H26A 7136   5.722   6.572   9.259 -0.2992  1.1120  0.0502
   63CHL1  H26B 7137   5.767   6.574   9.425 -0.6528  2.1047  0.8108
   63CHL1  H26C 7138   5.804   6.727   9.333  2.0442 -0.2165 -0.0513
   63CHL1   C27 7139   5.987   6.601   9.167 -0.1777 -0.3539  1.0034
   63CHL1  H27A 7140   5.913   6.590   9.085 -1.0331  1.9299  1.3955
   63CHL1  H27B 7141   6.021   6.706   9.175 -2.3948  0.8609 -2.9521
   63CHL1  H27C 7142   6.074   6.541   9.132 -1.8161 -2.2255 -0.1181
   64CHL1    C3 7143   4.632   4.752  10.225  0.6673 -0.2999 -0.7137
   64CHL1    H3 7144   4.654   4.644  10.236  0.9887 -0.2012 -0.3792
   64CHL1    O3 7145   4.591   4.800  10.352 -0.4114  0.2201 -0.4775
   64CHL1   H3' 7146   4.584   4.895  10.342  0.5042  0.2881 -0.5611
   64CHL1    C4 7147   4.766   4.836  10.180  0.6427  0.8451  0.6032
   64CHL1   H4A 7148   4.739   4.944  10.183 -1.0125  0.4756  0.1906
   64CHL1   H4B 7149   4.839   4.816  10.261 -0.1235 -0.2605  1.0488
   64CHL1    C5 7150   4.813   4.803  10.044 -0.5043  0.8329  0.6881
   64CHL1    C6 7151   4.939   4.762  10.026  0.4953 -0.3473 -0.2086
   64CHL1    H6 7152   5.012   4.759  10.108 -0.3737  1.1219  0.6510
   64CHL1    C7 7153   4.992   4.739   9.888  0.2271 -0.0807 -1.0426
   64CHL1   H7A 7154   5.091   4.786   9.868  0.0356 -0.3851 -2.8551
   64CHL1   H7B 7155   5.005   4.629   9.884  1.5591 -0.0213  0.4138
   64CHL1    C8 7156   4.897   4.786   9.781 -1.0366 -0.4276  0.1732
   64CHL1    H8 7157   4.908   4.897   9.775  1.1184 -0.5977  0.3869
   64CHL1   C14 7158   4.939   4.726   9.647  0.5851  0.0525 -0.1080
   64CHL1   H14 7159   4.921   4.617   9.657 -1.4695  0.4430  0.8941
   64CHL1   C15 7160   5.089   4.742   9.618 -0.5107  0.2742 -0.0191
   64CHL1  H15A 7161   5.139   4.837   9.649  4.7993 -1.8434 -1.0498
   64CHL1  H15B 7162   5.137   4.657   9.670 -1.9950  0.7298  2.2366
   64CHL1   C16 7163   5.087   4.742   9.467  0.2142 -0.1554 -0.5264
   64CHL1  H16A 7164   5.130   4.834   9.423 -0.6870 -0.1087 -1.3344
   64CHL1  H16B 7165   5.153   4.655   9.441  1.8174  0.5979  0.8620
   64CHL1   C17 7166   4.939   4.719   9.418  0.2326 -0.3190 -0.1729
   64CHL1   H17 7167   4.913   4.611   9.417 -1.1276 -0.0212  0.1732
   64CHL1   C13 7168   4.857   4.774   9.535 -0.0602 -0.8233 -0.5215
   64CHL1   C18 7169   4.857   4.927   9.516 -0.1783  0.1039  0.0783
   64CHL1  H18A 7170   4.789   4.979   9.586 -3.0001  0.1282 -2.5066
   64CHL1  H18B 7171   4.963   4.963   9.523 -0.4071  1.0531 -0.9821
   64CHL1  H18C 7172   4.821   4.948   9.413  0.0911 -0.9989 -0.2471
   64CHL1   C12 7173   4.713   4.719   9.554 -0.2190  0.0321 -0.3389
   64CHL1  H12A 7174   4.635   4.757   9.484  0.3217  0.7305 -0.5793
   64CHL1  H12B 7175   4.716   4.609   9.539  1.9930 -0.1048  0.7339
   64CHL1   C11 7176   4.659   4.760   9.685  0.1786 -0.4143 -0.4001
   64CHL1  H11A 7177   4.625   4.866   9.684  0.4771 -0.3115 -2.2515
   64CHL1  H11B 7178   4.573   4.694   9.709 -0.1546  0.2146  0.1645
   64CHL1    C9 7179   4.758   4.743   9.806  0.5491  0.0601  0.0709
   64CHL1    H9 7180   4.745   4.634   9.824 -0.8865 -0.1000 -1.6934
   64CHL1   C10 7181   4.710   4.817   9.938  0.2061  0.0092  0.2249
   64CHL1   C19 7182   4.687   4.973   9.916 -0.0087  0.7117  0.2024
   64CHL1  H19A 7183   4.647   5.014  10.012 -0.0922 -2.0078  1.4266
   64CHL1  H19B 7184   4.788   5.015   9.897  0.0080  0.6130  0.0762
   64CHL1  H19C 7185   4.619   4.999   9.832  0.1788 -0.0678 -0.1925
   64CHL1    C1 7186   4.578   4.745   9.980  0.3928 -0.4509 -0.1956
   64CHL1   H1A 7187   4.487   4.765   9.919 -0.5338  0.0462  1.3138
   64CHL1   H1B 7188   4.587   4.634   9.984 -0.4990 -0.4844  1.8121
   64CHL1    C2 7189   4.533   4.791  10.120  0.0030  0.1514  0.5695
   64CHL1   H2A 7190   4.447   4.723  10.140 -0.7939  0.5207 -1.3459
   64CHL1   H2B 7191   4.504   4.898  10.114 -1.7949 -0.3381 -0.4371
   64CHL1   C20 7192   4.909   4.752   9.276  0.4351 -0.0760  0.1574
   64CHL1   H20 7193   4.937   4.860   9.275 -0.6191  0.2158 -1.7472
   64CHL1   C21 7194   4.767   4.715   9.223 -0.6467  1.0436 -0.1354
   64CHL1  H21A 7195   4.689   4.766   9.285  0.6538 -0.7248  3.2271
   64CHL1  H21B 7196   4.744   4.607   9.226 -4.0470  1.6311 -0.8696
   64CHL1  H21C 7197   4.758   4.748   9.118 -0.1793  0.0475 -0.4977
   64CHL1   C22 7198   5.012   4.686   9.185  0.1063  0.3604 -0.1224
   64CHL1  H22A 7199   5.114   4.705   9.225  0.8574 -0.9143 -1.3180
   64CHL1  H22B 7200   4.999   4.576   9.193 -1.8239  0.4409 -1.4002
   64CHL1   C23 7201   5.027   4.736   9.041 -0.0809  0.4720  0.1760
   64CHL1  H23A 7202   4.929   4.741   8.989 -0.6132 -0.1218  1.1093
   64CHL1  H23B 7203   5.077   4.835   9.046 -0.8093  0.9606 -1.5265
   64CHL1   C24 7204   5.106   4.641   8.948  0.1328 -0.0950 -0.2451
   64CHL1  H24A 7205   5.208   4.624   8.987  0.6628 -1.1399 -2.0026
   64CHL1  H24B 7206   5.060   4.540   8.947 -1.5187  0.5814  1.1260
   64CHL1   C25 7207   5.123   4.681   8.804  0.6318 -0.3693 -0.0741
   64CHL1   H25 7208   5.168   4.783   8.803 -1.1909  0.4865  0.2382
   64CHL1   C26 7209   5.213   4.584   8.729 -0.2157 -0.9434 -0.5028
   64CHL1  H26A 7210   5.318   4.583   8.763  0.5232 -0.3406 -2.6128
   64CHL1  H26B 7211   5.168   4.482   8.733 -0.0333 -1.1315 -2.4030
   64CHL1  H26C 7212   5.210   4.602   8.619 -0.7461  0.1401 -0.3281
   64CHL1   C27 7213   4.992   4.688   8.725  0.0205 -1.2264 -0.2581
   64CHL1  H27A 7214   4.913   4.734   8.788 -0.4445 -0.8854 -1.0744
   64CHL1  H27B 7215   5.007   4.748   8.632  1.0505  1.3792  1.4569
   64CHL1  H27C 7216   4.956   4.590   8.687 -3.1139 -0.0867 -0.5435
   65CHL1    C3 7217   5.003   0.311  10.329 -0.2659 -0.1348 -0.2021
   65CHL1    H3 7218   5.097   0.368  10.314 -0.7251  0.7362  0.1983
   65CHL1    O3 7219   4.980   0.282  10.468 -0.0550 -0.0569  0.2278
   65CHL1   H3' 7220   4.900   0.230  10.471  1.0699 -1.9007  0.3152
   65CHL1    C4 7221   4.889   0.405  10.270  0.2261 -0.1557 -0.3312
   65CHL1   H4A 7222   4.789   0.362  10.291 -0.6335  0.9704 -1.9284
   65CHL1   H4B 7223   4.895   0.499  10.329  3.4766 -1.3981  1.6087
   65CHL1    C5 7224   4.912   0.435  10.126 -0.3656 -0.5052 -0.0859
   65CHL1    C6 7225   4.920   0.561  10.083 -0.3625  0.2884 -0.5346
   65CHL1    H6 7226   4.912   0.645  10.153  1.1212  0.2686 -0.3098
   65CHL1    C7 7227   4.940   0.599   9.939 -0.0812 -0.4881  0.6522
   65CHL1   H7A 7228   4.861   0.674   9.916 -0.1166 -0.1194  1.9208
   65CHL1   H7B 7229   5.040   0.648   9.935  0.0683 -0.8806 -0.9242
   65CHL1    C8 7230   4.941   0.487   9.841  0.0515  0.0447 -0.2663
   65CHL1    H8 7231   4.837   0.459   9.812  0.6667 -2.1348 -0.5261
   65CHL1   C14 7232   5.007   0.530   9.705  0.1879  0.4658 -0.4797
   65CHL1   H14 7233   5.111   0.547   9.740  0.6438 -1.1245 -0.9664
   65CHL1   C15 7234   4.950   0.649   9.633 -0.0974 -0.6672  0.1461
   65CHL1  H15A 7235   4.842   0.633   9.614 -0.4066  0.7121  0.6230
   65CHL1  H15B 7236   4.965   0.743   9.691  1.0494 -1.1226  0.6364
   65CHL1   C16 7237   5.031   0.646   9.501  0.0889  0.4047  0.4930
   65CHL1  H16A 7238   4.960   0.664   9.417  1.3086  1.1474 -0.4067
   65CHL1  H16B 7239   5.099   0.733   9.504 -1.3699  1.5646  2.0865
   65CHL1   C17 7240   5.101   0.504   9.496 -0.3396 -0.3565  0.7796
   65CHL1   H17 7241   5.205   0.518   9.533 -0.2644 -1.0863  0.8613
   65CHL1   C13 7242   5.028   0.419   9.602  0.5620  0.0978 -0.7245
   65CHL1   C18 7243   4.891   0.362   9.549 -0.3709 -0.3115 -0.2041
   65CHL1  H18A 7244   4.913   0.285   9.473 -0.1429  0.1512 -0.6152
   65CHL1  H18B 7245   4.817   0.323   9.621 -0.1748 -0.2745  0.0213
   65CHL1  H18C 7246   4.850   0.447   9.490  2.4426  1.9557  0.8074
   65CHL1   C12 7247   5.105   0.304   9.666  0.2924 -0.4184 -0.0489
   65CHL1  H12A 7248   5.119   0.225   9.589 -0.9034  0.1595 -0.8926
   65CHL1  H12B 7249   5.207   0.327   9.704  0.5834 -0.6932 -0.6494
   65CHL1   C11 7250   5.033   0.259   9.794 -0.4412 -0.4804 -0.3354
   65CHL1  H11A 7251   4.928   0.228   9.775 -0.5960 -0.0153 -0.2522
   65CHL1  H11B 7252   5.094   0.170   9.822 -1.4639 -0.7695  1.1014
   65CHL1    C9 7253   5.013   0.366   9.905  0.4105 -0.3025  0.7230
   65CHL1    H9 7254   5.119   0.393   9.923  0.2629  0.2060  0.8398
   65CHL1   C10 7255   4.952   0.314  10.040  0.2245 -0.3951  0.4810
   65CHL1   C19 7256   4.826   0.227  10.014  0.1155 -0.2589  0.1018
   65CHL1  H19A 7257   4.774   0.205  10.110 -0.3243 -1.2220 -0.3486
   65CHL1  H19B 7258   4.756   0.293   9.959 -0.5811  0.7435  2.0591
   65CHL1  H19C 7259   4.841   0.130   9.962 -2.4573 -1.6627  1.7592
   65CHL1    C1 7260   5.059   0.215  10.100  0.3039 -0.3051  0.0493
   65CHL1   H1A 7261   5.067   0.124  10.037  1.1774  0.7260 -1.4125
   65CHL1   H1B 7262   5.156   0.268  10.109 -0.4567  0.8737  1.9967
   65CHL1    C2 7263   5.032   0.177  10.250  0.3492 -0.0188 -0.0958
   65CHL1   H2A 7264   5.116   0.135  10.308  0.0425  1.6331  1.6129
   65CHL1   H2B 7265   4.937   0.119  10.244  0.0874  0.4867 -1.1788
   65CHL1   C20 7266   5.110   0.451   9.353 -0.6090 -1.0938 -0.7691
   65CHL1   H20 7267   5.008   0.417   9.323 -1.6163  1.6144 -0.6943
   65CHL1   C21 7268   5.216   0.340   9.337  0.1803 -0.0736 -0.5430
   65CHL1  H21A 7269   5.211   0.311   9.230  2.2155  2.6891 -1.5092
   65CHL1  H21B 7270   5.193   0.260   9.411  0.4103  2.1489  2.1254
   65CHL1  H21C 7271   5.315   0.383   9.366 -1.0884  1.1028  2.5580
   65CHL1   C22 7272   5.149   0.562   9.250  0.4202  0.1832 -0.1830
   65CHL1  H22A 7273   5.054   0.618   9.236 -1.1909 -2.5678 -1.0695
   65CHL1  H22B 7274   5.234   0.620   9.291 -0.3593 -0.1067  1.9506
   65CHL1   C23 7275   5.175   0.531   9.100  0.0230  0.1985 -0.4991
   65CHL1  H23A 7276   5.256   0.457   9.088 -0.1433 -0.0310 -0.2060
   65CHL1  H23B 7277   5.082   0.485   9.060 -0.4828  1.1482 -0.4576
   65CHL1   C24 7278   5.200   0.658   9.013  0.3189 -0.9421  0.0290
   65CHL1  H24A 7279   5.111   0.721   9.033  1.2548  1.0483 -1.6503
   65CHL1  H24B 7280   5.298   0.693   9.053  3.7265 -3.1739 -5.2418
   65CHL1   C25 7281   5.223   0.639   8.860  0.3168 -0.3423  0.4673
   65CHL1   H25 7282   5.127   0.594   8.828  0.5783 -1.5515  1.3378
   65CHL1   C26 7283   5.231   0.773   8.780  0.2455  0.3034 -0.7458
   65CHL1  H26A 7284   5.333   0.813   8.799  0.6484 -0.7151 -0.7097
   65CHL1  H26B 7285   5.217   0.752   8.672  0.0177 -0.6785 -0.5340
   65CHL1  H26C 7286   5.156   0.850   8.809 -1.8768 -1.6006 -0.9723
   65CHL1   C27 7287   5.351   0.553   8.836  1.0820  0.5957 -0.5123
   65CHL1  H27A 7288   5.442   0.615   8.820 -0.3358  2.8414 -0.2694
   65CHL1  H27B 7289   5.352   0.466   8.905 -2.5040  1.2715  0.5768
   65CHL1  H27C 7290   5.337   0.513   8.733  1.8945  0.4242 -0.5632
   66CHL1    C3 7291   4.363   0.648  10.501 -0.0442  0.7509 -0.1420
   66CHL1    H3 7292   4.256   0.678  10.497  0.2414  1.7077 -3.4858
   66CHL1    O3 7293   4.387   0.587  10.626 -0.0491  0.4635 -0.3126
   66CHL1   H3' 7294   4.316   0.526  10.643 -0.4259  0.8070 -0.6254
   66CHL1    C4 7295   4.390   0.550  10.385 -0.2102 -0.5581  0.2682
   66CHL1   H4A 7296   4.490   0.502  10.395 -0.1071 -0.7098 -1.3404
   66CHL1   H4B 7297   4.317   0.467  10.404  1.1555 -1.3408  2.6319
   66CHL1    C5 7298   4.376   0.621  10.245 -0.3139 -0.1986 -0.2399
   66CHL1    C6 7299   4.283   0.586  10.156  0.7500 -0.1685 -0.5238
   66CHL1    H6 7300   4.226   0.495  10.180  3.8409 -2.2198 -0.4108
   66CHL1    C7 7301   4.265   0.645  10.019  0.1679  0.0030 -0.1826
   66CHL1   H7A 7302   4.257   0.556   9.952 -1.8853  0.5187 -0.6926
   66CHL1   H7B 7303   4.173   0.702   9.997  0.0260 -0.6623 -1.4147
   66CHL1    C8 7304   4.385   0.733   9.981  0.3610  0.3486 -0.2073
   66CHL1    H8 7305   4.468   0.665   9.953 -0.6702 -1.4410  0.8563
   66CHL1   C14 7306   4.354   0.815   9.859  0.9129 -0.8452 -0.1734
   66CHL1   H14 7307   4.272   0.880   9.894  0.3383 -2.1697  1.0229
   66CHL1   C15 7308   4.284   0.741   9.735 -0.6744  0.3692 -0.1578
   66CHL1  H15A 7309   4.325   0.638   9.727  0.1613  0.5961  0.9702
   66CHL1  H15B 7310   4.174   0.751   9.748 -0.9256 -0.0178 -1.7573
   66CHL1   C16 7311   4.334   0.830   9.620  0.5451  0.3150 -0.2186
   66CHL1  H16A 7312   4.402   0.773   9.553 -1.6969 -1.3149 -1.2009
   66CHL1  H16B 7313   4.258   0.862   9.546 -0.6853 -0.4842  0.6797
   66CHL1   C17 7314   4.403   0.952   9.674  0.5477  0.3959 -0.2579
   66CHL1   H17 7315   4.327   1.018   9.721 -0.2720 -0.5724 -0.1976
   66CHL1   C13 7316   4.465   0.905   9.814  0.8651 -0.6913  0.0951
   66CHL1   C18 7317   4.597   0.822   9.781  0.1828  0.2774 -0.0542
   66CHL1  H18A 7318   4.669   0.877   9.717  0.6448  0.1076  0.3146
   66CHL1  H18B 7319   4.662   0.806   9.869  1.1139 -0.7657 -0.8997
   66CHL1  H18C 7320   4.571   0.724   9.734 -0.3573  0.2399  0.3031
   66CHL1   C12 7321   4.485   1.010   9.923 -0.4565 -1.1589 -0.2853
   66CHL1  H12A 7322   4.567   1.075   9.887  0.2531 -0.5055  2.3201
   66CHL1  H12B 7323   4.394   1.071   9.938 -0.5046 -0.7992 -1.8276
   66CHL1   C11 7324   4.529   0.945  10.060  0.8651 -0.5320  0.0768
   66CHL1  H11A 7325   4.633   0.907  10.044  1.2851  0.7294 -0.3504
   66CHL1  H11B 7326   4.538   1.021  10.140  1.1371 -2.2668  1.7842
   66CHL1    C9 7327   4.427   0.823  10.096  0.2279 -0.7552  0.2152
   66CHL1    H9 7328   4.331   0.878  10.110  0.6110  0.6724 -2.1031
   66CHL1   C10 7329   4.459   0.744  10.222 -0.3799  0.4662  0.1870
   66CHL1   C19 7330   4.605   0.698  10.214 -0.2034  0.0994 -1.0130
   66CHL1  H19A 7331   4.626   0.642  10.121  0.3486 -0.3007 -0.6562
   66CHL1  H19B 7332   4.660   0.794  10.226 -1.5813  0.9122 -1.0046
   66CHL1  H19C 7333   4.633   0.629  10.296 -1.0210  0.3451 -0.5159
   66CHL1    C1 7334   4.436   0.836  10.347  0.3636 -0.9172  0.4942
   66CHL1   H1A 7335   4.499   0.927  10.332 -2.4001  0.8272 -1.5376
   66CHL1   H1B 7336   4.334   0.881  10.346  1.2316  1.2153 -0.8030
   66CHL1    C2 7337   4.448   0.773  10.490  0.2731 -0.5090  0.1863
   66CHL1   H2A 7338   4.422   0.854  10.561  1.1538 -0.7859  0.8280
   66CHL1   H2B 7339   4.555   0.746  10.501  0.6402  1.4615  2.0250
   66CHL1   C20 7340   4.492   1.028   9.581  0.3198 -0.2106  1.7627
   66CHL1   H20 7341   4.558   1.095   9.642 -0.5146  0.6649  1.7334
   66CHL1   C21 7342   4.410   1.136   9.501  0.0907 -0.7408 -0.2080
   66CHL1  H21A 7343   4.357   1.082   9.420 -4.2601 -3.6623  4.0596
   66CHL1  H21B 7344   4.484   1.210   9.463  1.9294 -2.5777 -0.4470
   66CHL1  H21C 7345   4.343   1.187   9.572  1.4673 -0.8746  1.2440
   66CHL1   C22 7346   4.579   0.958   9.477  0.1945 -0.5632 -0.0204
   66CHL1  H22A 7347   4.619   0.860   9.509 -0.3212 -0.7298  0.1245
   66CHL1  H22B 7348   4.510   0.923   9.397 -1.5376 -2.5464  2.2202
   66CHL1   C23 7349   4.691   1.039   9.419  0.4917  0.5546 -0.1142
   66CHL1  H23A 7350   4.657   1.135   9.374  0.4089  0.9199  0.7200
   66CHL1  H23B 7351   4.752   1.069   9.507 -2.3785 -0.5959  2.4524
   66CHL1   C24 7352   4.775   0.960   9.306  0.3313 -0.4376 -0.9612
   66CHL1  H24A 7353   4.795   0.860   9.351 -0.2874 -0.3315 -0.4334
   66CHL1  H24B 7354   4.704   0.933   9.225 -0.8272  2.0802 -0.8863
   66CHL1   C25 7355   4.898   1.038   9.257 -0.3086  0.4416 -0.1826
   66CHL1   H25 7356   4.881   1.139   9.214 -3.0063  0.2967  0.3611
   66CHL1   C26 7357   5.005   1.051   9.374  0.0726 -0.0879  0.4214
   66CHL1  H26A 7358   5.006   0.957   9.434  1.4980 -0.0495  0.4989
   66CHL1  H26B 7359   5.107   1.063   9.333  0.5288 -0.1046  1.5053
   66CHL1  H26C 7360   4.976   1.138   9.437  2.1469 -0.8191  2.5406
   66CHL1   C27 7361   4.972   0.959   9.149  0.9584 -0.1183  0.0570
   66CHL1  H27A 7362   5.062   1.009   9.107  0.6684 -2.3315 -3.7650
   66CHL1  H27B 7363   5.004   0.862   9.192 -2.1301 -1.3127 -0.0705
   66CHL1  H27C 7364   4.899   0.942   9.067  0.2589  0.3813  0.5683
   67CHL1    C3 7365   4.400   5.897  10.297  0.6999  0.0532 -0.0783
   67CHL1    H3 7366   4.295   5.929  10.287  1.0823  1.5777  0.5702
   67CHL1    O3 7367   4.420   5.854  10.435  0.3921 -0.2478  0.1065
   67CHL1   H3' 7368   4.397   5.936  10.478  1.3042  0.6469 -1.0667
   67CHL1    C4 7369   4.416   5.777  10.203  0.1164 -0.3378 -0.0551
   67CHL1   H4A 7370   4.514   5.728  10.223 -0.2647 -1.0859  0.0259
   67CHL1   H4B 7371   4.341   5.699  10.228  0.6929 -0.7293  0.4804
   67CHL1    C5 7372   4.410   5.817  10.057  0.0039 -0.0717 -0.1329
   67CHL1    C6 7373   4.329   5.753   9.974  0.1109 -0.3046  0.0348
   67CHL1    H6 7374   4.270   5.663   9.999 -0.7014 -0.3618 -1.9127
   67CHL1    C7 7375   4.320   5.777   9.828 -0.6006 -0.8127  0.4202
   67CHL1   H7A 7376   4.318   5.686   9.764  0.0127  2.1611 -4.3448
   67CHL1   H7B 7377   4.229   5.836   9.804 -1.3102 -1.7807  0.7044
   67CHL1    C8 7378   4.438   5.874   9.781  0.6407  0.0948  0.8392
   67CHL1    H8 7379   4.533   5.817   9.773  0.5702 -0.1601  1.7615
   67CHL1   C14 7380   4.397   5.917   9.640  0.5226 -0.2078 -0.5517
   67CHL1   H14 7381   4.303   5.976   9.645 -1.2325 -2.7941 -1.1235
   67CHL1   C15 7382   4.361   5.803   9.545  0.5052 -0.1348 -0.2530
   67CHL1  H15A 7383   4.434   5.720   9.533  2.3093  1.4657 -0.7626
   67CHL1  H15B 7384   4.262   5.762   9.576 -0.0174  0.4057 -1.1630
   67CHL1   C16 7385   4.355   5.888   9.420  0.1118 -0.2768 -0.0127
   67CHL1  H16A 7386   4.422   5.841   9.345 -2.0363 -0.8589 -1.6683
   67CHL1  H16B 7387   4.257   5.897   9.369  1.0295  1.7496 -1.5491
   67CHL1   C17 7388   4.416   6.027   9.438 -0.0067  0.5758 -0.2874
   67CHL1   H17 7389   4.336   6.101   9.459 -1.5180 -0.6555 -1.3683
   67CHL1   C13 7390   4.490   6.013   9.569 -0.3134 -0.2107 -0.4112
   67CHL1   C18 7391   4.631   5.946   9.554  0.2832 -0.0874 -0.5200
   67CHL1  H18A 7392   4.701   6.013   9.499 -0.7498  0.2710 -1.4397
   67CHL1  H18B 7393   4.682   5.922   9.650  0.5535  2.2259 -0.0335
   67CHL1  H18C 7394   4.620   5.851   9.497  0.0642 -1.1898  1.2724
   67CHL1   C12 7395   4.500   6.138   9.662 -0.2309 -0.0574  0.2164
   67CHL1  H12A 7396   4.553   6.227   9.623  0.9503  0.3556  2.5670
   67CHL1  H12B 7397   4.398   6.180   9.675  0.5342  1.7071  0.7263
   67CHL1   C11 7398   4.547   6.105   9.809  0.5943  0.2068 -0.6917
   67CHL1  H11A 7399   4.656   6.081   9.807  0.1946 -1.8419 -0.2933
   67CHL1  H11B 7400   4.524   6.198   9.866 -0.2287 -0.9072  0.8981
   67CHL1    C9 7401   4.463   5.987   9.871  0.1893  0.2944  0.8495
   67CHL1    H9 7402   4.361   6.032   9.880 -0.1657 -0.5354  1.0895
   67CHL1   C10 7403   4.501   5.939  10.011 -0.0784 -0.1770 -0.3071
   67CHL1   C19 7404   4.653   5.890  10.012 -0.1560  0.5007  0.2243
   67CHL1  H19A 7405   4.681   5.833  10.103  2.3700 -0.3483 -0.9883
   67CHL1  H19B 7406   4.692   5.821   9.933 -1.1313 -1.3514  1.2937
   67CHL1  H19C 7407   4.710   5.984  10.005 -1.6790  1.3941 -0.6737
   67CHL1    C1 7408   4.473   6.055  10.113  0.0542 -0.2625  0.9208
   67CHL1   H1A 7409   4.540   6.137  10.082  0.5324 -1.1895 -0.6255
   67CHL1   H1B 7410   4.372   6.102  10.109  0.4225  0.4488 -1.5976
   67CHL1    C2 7411   4.490   6.014  10.255 -0.5772  0.0909 -0.2245
   67CHL1   H2A 7412   4.460   6.098  10.320  0.1414  0.3692 -0.2440
   67CHL1   H2B 7413   4.598   5.990  10.264 -0.7175 -0.9649 -1.1372
   67CHL1   C20 7414   4.495   6.089   9.317  0.2015  1.0985  0.3973
   67CHL1   H20 7415   4.585   6.024   9.310 -0.2560  0.5048 -0.1545
   67CHL1   C21 7416   4.536   6.235   9.347 -0.2207  0.2259  0.2696
   67CHL1  H21A 7417   4.442   6.293   9.361  0.4522  1.2428  0.7476
   67CHL1  H21B 7418   4.597   6.278   9.265 -0.6574  0.8640  0.2739
   67CHL1  H21C 7419   4.595   6.256   9.439 -0.4409  1.2109  0.1993
   67CHL1   C22 7420   4.422   6.076   9.176  0.7405  0.2020 -0.0825
   67CHL1  H22A 7421   4.405   5.968   9.159 -0.3173  0.1189  1.3092
   67CHL1  H22B 7422   4.332   6.141   9.173  1.0211  0.6021  0.0030
   67CHL1   C23 7423   4.516   6.121   9.058 -0.0668 -0.2984  0.2762
   67CHL1  H23A 7424   4.539   6.228   9.073 -2.1672  0.2632 -0.1778
   67CHL1  H23B 7425   4.606   6.056   9.055 -0.4922 -0.9566  1.1576
   67CHL1   C24 7426   4.438   6.113   8.927  0.5103 -0.5982 -0.7163
   67CHL1  H24A 7427   4.348   6.175   8.948  1.9721  1.0367  1.0567
   67CHL1  H24B 7428   4.500   6.165   8.851 -1.4473 -0.3716 -2.2350
   67CHL1   C25 7429   4.414   5.969   8.864  0.2215 -0.6772  0.3628
   67CHL1   H25 7430   4.371   5.905   8.944  0.9548 -1.4616  0.1466
   67CHL1   C26 7431   4.310   5.985   8.745  0.3769 -0.5087  0.0770
   67CHL1  H26A 7432   4.208   6.006   8.783  0.1771  2.4304 -1.7010
   67CHL1  H26B 7433   4.345   6.067   8.677 -1.5208 -1.5579 -2.3249
   67CHL1  H26C 7434   4.318   5.890   8.688 -0.9632 -0.0174 -0.9903
   67CHL1   C27 7435   4.538   5.894   8.816  0.0031 -0.2002  0.4502
   67CHL1  H27A 7436   4.583   5.932   8.722  2.9585 -2.9957  0.5482
   67CHL1  H27B 7437   4.618   5.884   8.893  0.1008  2.0942  0.7325
   67CHL1  H27C 7438   4.501   5.796   8.779  1.1546 -0.6782  0.5117
   68CHL1    C3 7439   2.044   6.413  10.154 -0.0037  0.0940 -0.4206
   68CHL1    H3 7440   1.942   6.377  10.177  1.3802 -2.0746  3.2534
   68CHL1    O3 7441   2.105   6.464  10.277 -0.2500  0.5228  0.2159
   68CHL1   H3' 7442   2.199   6.460  10.256 -0.6587 -0.4087 -1.6230
   68CHL1    C4 7443   2.133   6.297  10.100  0.1535 -0.6000 -0.1133
   68CHL1   H4A 7444   2.242   6.319  10.108 -0.0530  0.4379  0.0432
   68CHL1   H4B 7445   2.104   6.215  10.169 -1.4490 -1.4700 -1.7440
   68CHL1    C5 7446   2.089   6.243   9.964  0.2019 -0.1285  0.4939
   68CHL1    C6 7447   2.064   6.112   9.940 -0.2699 -0.9268 -0.5450
   68CHL1    H6 7448   2.069   6.041  10.025  0.2568  1.0779  1.1837
   68CHL1    C7 7449   2.038   6.053   9.808 -0.7982 -0.2522 -0.4413
   68CHL1   H7A 7450   2.104   5.966   9.790  0.2735  0.3584  0.3470
   68CHL1   H7B 7451   1.930   6.032   9.802 -1.1299  1.2390 -0.1743
   68CHL1    C8 7452   2.065   6.161   9.695 -0.1971 -1.1048 -0.2982
   68CHL1    H8 7453   2.175   6.170   9.691 -0.1754  1.0999  2.5574
   68CHL1   C14 7454   2.015   6.112   9.561  0.0043  0.6725 -0.1966
   68CHL1   H14 7455   1.907   6.087   9.570  0.0631  0.4597 -0.0849
   68CHL1   C15 7456   2.085   5.981   9.514 -0.2910 -0.0213  0.4911
   68CHL1  H15A 7457   2.195   5.974   9.528 -0.4398 -1.9905  0.9274
   68CHL1  H15B 7458   2.037   5.893   9.561 -0.4686 -0.0135  0.3278
   68CHL1   C16 7459   2.054   5.989   9.362 -0.8108 -0.4715 -0.7196
   68CHL1  H16A 7460   2.148   5.986   9.302  0.6308 -1.2992  1.4796
   68CHL1  H16B 7461   1.986   5.903   9.345 -1.4684  0.5530 -4.0525
   68CHL1   C17 7462   1.989   6.118   9.333 -0.4086 -0.1849  0.9844
   68CHL1   H17 7463   1.880   6.112   9.354 -0.4039 -1.2058  0.7681
   68CHL1   C13 7464   2.024   6.211   9.451 -0.2451  0.3262 -0.0656
   68CHL1   C18 7465   2.177   6.251   9.427 -0.0432 -0.1255  0.0129
   68CHL1  H18A 7466   2.237   6.161   9.405 -0.3535 -0.4995  0.6907
   68CHL1  H18B 7467   2.187   6.325   9.345 -1.7260 -0.6095 -0.6624
   68CHL1  H18C 7468   2.229   6.293   9.516 -0.8395  0.4147  0.2334
   68CHL1   C12 7469   1.933   6.328   9.489  0.0854 -0.1161  0.3735
   68CHL1  H12A 7470   1.933   6.402   9.405  2.5724 -2.5546 -1.9744
   68CHL1  H12B 7471   1.829   6.294   9.509  0.8554 -1.2122  2.8182
   68CHL1   C11 7472   1.986   6.392   9.611 -0.1705  0.8005  0.0380
   68CHL1  H11A 7473   2.091   6.428   9.604  0.5973 -1.3593 -0.2696
   68CHL1  H11B 7474   1.921   6.476   9.643  0.8686  1.5182  0.3156
   68CHL1    C9 7475   2.002   6.298   9.727 -0.4947  0.0249 -1.0017
   68CHL1    H9 7476   1.901   6.271   9.764  0.3223  1.0128  2.3063
   68CHL1   C10 7477   2.080   6.355   9.855 -0.0204 -0.0873 -1.3640
   68CHL1   C19 7478   2.232   6.388   9.818  0.2679 -0.1530  0.7344
   68CHL1  H19A 7479   2.278   6.452   9.896  1.1201  0.4834 -0.2588
   68CHL1  H19B 7480   2.286   6.293   9.798 -0.6753 -0.4102 -0.7751
   68CHL1  H19C 7481   2.242   6.438   9.720 -2.0143 -0.8089  0.0929
   68CHL1    C1 7482   2.012   6.476   9.915  0.7329 -0.5106 -0.1013
   68CHL1   H1A 7483   2.026   6.563   9.847  2.0328  0.9288  1.8666
   68CHL1   H1B 7484   1.903   6.453   9.924  0.3019  1.4393  0.1472
   68CHL1    C2 7485   2.060   6.526  10.054 -0.6211 -0.0790 -0.5731
   68CHL1   H2A 7486   2.001   6.614  10.087 -0.7387 -0.5709  0.5563
   68CHL1   H2B 7487   2.167   6.555  10.045 -0.5614 -0.4613 -1.2332
   68CHL1   C20 7488   2.006   6.165   9.186  0.5114  0.7424  0.5278
   68CHL1   H20 7489   2.116   6.167   9.171  0.5290  1.1636  0.7054
   68CHL1   C21 7490   1.935   6.303   9.165  0.0513  0.1302 -0.1528
   68CHL1  H21A 7491   1.829   6.288   9.194 -0.6574  1.4248 -1.8739
   68CHL1  H21B 7492   1.936   6.337   9.059 -0.7615  0.7352  0.0212
   68CHL1  H21C 7493   1.992   6.376   9.227  1.2736 -1.0853  0.1842
   68CHL1   C22 7494   1.946   6.065   9.084 -1.0121 -0.1267  0.2766
   68CHL1  H22A 7495   1.988   5.963   9.093 -1.7906 -0.5571 -0.7113
   68CHL1  H22B 7496   1.838   6.052   9.108 -1.1755  1.3306  0.4235
   68CHL1   C23 7497   1.944   6.112   8.941 -0.4610  0.8767  0.5220
   68CHL1  H23A 7498   1.862   6.186   8.931 -0.5391  0.9202  1.3901
   68CHL1  H23B 7499   2.045   6.150   8.915 -0.4621  0.6200  0.1402
   68CHL1   C24 7500   1.926   6.003   8.840 -0.0109 -0.5662  0.3634
   68CHL1  H24A 7501   1.923   6.048   8.739 -0.4815  1.6959  1.3242
   68CHL1  H24B 7502   2.014   5.936   8.854 -0.3227 -0.7965  1.3065
   68CHL1   C25 7503   1.805   5.909   8.861  0.1201 -0.7252  0.1034
   68CHL1   H25 7504   1.795   5.897   8.971 -1.0774 -1.3008 -0.0614
   68CHL1   C26 7505   1.674   5.976   8.816 -0.1550  0.2288  0.1139
   68CHL1  H26A 7506   1.595   5.898   8.825 -1.0510  0.8635 -1.8025
   68CHL1  H26B 7507   1.655   6.063   8.883  0.9140 -0.8011  1.8482
   68CHL1  H26C 7508   1.684   5.998   8.708  1.6236 -2.1958 -0.3143
   68CHL1   C27 7509   1.825   5.774   8.795 -0.3969 -0.0157 -0.3114
   68CHL1  H27A 7510   1.764   5.692   8.838 -0.0179  0.1113  0.4930
   68CHL1  H27B 7511   1.812   5.782   8.685 -1.5717  2.0523 -0.0761
   68CHL1  H27C 7512   1.929   5.738   8.813 -0.5135  0.1754  0.7885
   69CHL1    C3 7513   4.085   5.443   6.800 -0.4383  0.3082 -0.2452
   69CHL1    H3 7514   4.134   5.542   6.793  0.1916 -0.0618 -1.4730
   69CHL1    O3 7515   4.051   5.409   6.669  0.5241 -0.3791  0.6268
   69CHL1   H3' 7516   4.012   5.322   6.681 -0.8091  0.4794  3.3293
   69CHL1    C4 7517   4.189   5.342   6.840  0.1679  1.0136  0.6877
   69CHL1   H4A 7518   4.148   5.240   6.824 -1.3849  1.5276  1.1302
   69CHL1   H4B 7519   4.281   5.377   6.788 -0.2396  2.4345  0.8641
   69CHL1    C5 7520   4.233   5.359   6.985  0.5973  0.3622  0.5053
   69CHL1    C6 7521   4.363   5.380   7.023 -0.7498  0.5917 -0.1066
   69CHL1    H6 7522   4.442   5.389   6.947  0.8690 -0.4881  1.3833
   69CHL1    C7 7523   4.401   5.389   7.168 -0.2774  0.7183  0.8438
   69CHL1   H7A 7524   4.485   5.321   7.194 -0.5897 -0.1133 -0.2344
   69CHL1   H7B 7525   4.433   5.494   7.181 -1.8907  1.1422  1.6427
   69CHL1    C8 7526   4.295   5.351   7.268 -0.4217  0.1713 -0.2211
   69CHL1    H8 7527   4.287   5.241   7.254 -1.3800  0.0713  0.9218
   69CHL1   C14 7528   4.324   5.392   7.411 -0.3758  0.3955 -0.7443
   69CHL1   H14 7529   4.321   5.503   7.404  0.9515  0.4150 -1.3149
   69CHL1   C15 7530   4.467   5.356   7.468  0.5246  0.1355  0.2008
   69CHL1  H15A 7531   4.504   5.258   7.432  0.8764  0.5794 -0.6942
   69CHL1  H15B 7532   4.537   5.430   7.424 -0.6883 -0.0086 -2.1270
   69CHL1   C16 7533   4.448   5.357   7.628 -0.8211  0.6876  0.6410
   69CHL1  H16A 7534   4.488   5.257   7.652 -0.1171 -0.0452 -2.8969
   69CHL1  H16B 7535   4.510   5.432   7.681 -1.9169  0.7957  1.8097
   69CHL1   C17 7536   4.294   5.369   7.658 -0.0343  0.2482 -0.4931
   69CHL1   H17 7537   4.280   5.478   7.677  0.0725  0.2695 -0.5365
   69CHL1   C13 7538   4.226   5.344   7.522 -0.1292 -0.3673  0.2948
   69CHL1   C18 7539   4.212   5.186   7.509 -0.2308  0.1834 -0.7863
   69CHL1  H18A 7540   4.186   5.153   7.406 -0.7811  0.9137 -0.8904
   69CHL1  H18B 7541   4.311   5.152   7.546 -0.3838  1.3022  0.7422
   69CHL1  H18C 7542   4.135   5.143   7.577  0.6907 -2.1824 -1.1502
   69CHL1   C12 7543   4.094   5.414   7.490  0.6938 -0.3693 -0.2953
   69CHL1  H12A 7544   4.008   5.386   7.555  0.3288  1.2836 -0.0050
   69CHL1  H12B 7545   4.115   5.523   7.499  1.9210 -0.5779 -0.4649
   69CHL1   C11 7546   4.054   5.384   7.345 -0.2093 -0.4109 -0.5513
   69CHL1  H11A 7547   4.023   5.279   7.328  0.6507 -0.5854 -1.1054
   69CHL1  H11B 7548   3.962   5.439   7.316  0.0338  0.1838 -0.2137
   69CHL1    C9 7549   4.162   5.408   7.234  0.5961  0.2882 -0.5143
   69CHL1    H9 7550   4.166   5.518   7.228 -0.7523  0.3690 -0.2370
   69CHL1   C10 7551   4.109   5.369   7.085 -0.3657  0.2855 -0.1263
   69CHL1   C19 7552   4.051   5.221   7.095  0.1222  0.7041  0.4642
   69CHL1  H19A 7553   4.119   5.158   7.156  0.0545 -0.2160 -0.3985
   69CHL1  H19B 7554   3.945   5.218   7.129 -0.1496  1.2411 -0.3093
   69CHL1  H19C 7555   4.045   5.159   7.003  1.3831 -0.1236  0.9089
   69CHL1    C1 7556   4.013   5.473   7.029 -0.0816 -0.5134 -0.5996
   69CHL1   H1A 7557   3.926   5.496   7.094  0.1566  3.6065 -1.4952
   69CHL1   H1B 7558   4.066   5.569   7.042 -0.1576 -0.3816 -1.2421
   69CHL1    C2 7559   3.965   5.444   6.897 -0.2232 -0.4107  0.9496
   69CHL1   H2A 7560   3.906   5.527   6.853  1.2446 -0.2116 -0.7541
   69CHL1   H2B 7561   3.912   5.346   6.897 -0.2743 -0.3936 -0.2808
   69CHL1   C20 7562   4.248   5.284   7.773  0.2735 -0.4054  0.4815
   69CHL1   H20 7563   4.239   5.176   7.751 -0.8908  0.0699 -1.5725
   69CHL1   C21 7564   4.108   5.332   7.817  0.2015 -0.1306  0.8157
   69CHL1  H21A 7565   4.025   5.293   7.753  0.6333  1.2265 -0.6569
   69CHL1  H21B 7566   4.106   5.443   7.824 -0.1179  0.0888 -1.7880
   69CHL1  H21C 7567   4.081   5.287   7.914 -1.6935 -0.3689  0.2223
   69CHL1   C22 7568   4.336   5.297   7.897 -0.0442 -0.6001  0.4037
   69CHL1  H22A 7569   4.295   5.228   7.973  0.0817 -0.3800  0.6715
   69CHL1  H22B 7570   4.435   5.254   7.871  0.4577 -0.5879  2.1771
   69CHL1   C23 7571   4.380   5.436   7.958 -0.3351 -0.2769 -0.5014
   69CHL1  H23A 7572   4.485   5.420   7.988 -0.9138 -3.5050  0.1323
   69CHL1  H23B 7573   4.375   5.510   7.875  0.4585 -1.7466 -1.9187
   69CHL1   C24 7574   4.296   5.489   8.076 -0.7567  0.7610  0.4109
   69CHL1  H24A 7575   4.189   5.500   8.049 -1.0225 -1.9098  0.1165
   69CHL1  H24B 7576   4.300   5.411   8.155  0.8412  2.2252  1.8706
   69CHL1   C25 7577   4.339   5.617   8.142  0.4338  0.7409 -0.2521
   69CHL1   H25 7578   4.286   5.618   8.239  1.0564  0.6161  0.0915
   69CHL1   C26 7579   4.487   5.606   8.180  0.0429 -0.4630 -0.1094
   69CHL1  H26A 7580   4.515   5.513   8.234 -0.1824 -2.8788 -3.8202
   69CHL1  H26B 7581   4.544   5.594   8.086 -0.3924 -1.1705 -0.2940
   69CHL1  H26C 7582   4.518   5.692   8.243 -2.8572  0.5216  0.1382
   69CHL1   C27 7583   4.305   5.741   8.061  0.4601  0.1989 -0.3557
   69CHL1  H27A 7584   4.362   5.740   7.965  2.5223  3.0182  0.7080
   69CHL1  H27B 7585   4.196   5.747   8.044  0.6130  0.1123 -1.4778
   69CHL1  H27C 7586   4.355   5.834   8.094  1.1861 -0.0495 -0.7193
   70CHL1    C3 7587   6.809   0.620   7.085 -0.8231  0.5842  0.1313
   70CHL1    H3 7588   6.896   0.561   7.121 -0.3230  1.6904  0.7911
   70CHL1    O3 7589   6.822   0.614   6.949  0.0737  0.2121  0.1286
   70CHL1   H3' 7590   6.735   0.611   6.909  1.3100  0.4746 -2.8417
   70CHL1    C4 7591   6.668   0.557   7.120  0.0825 -0.1696  0.3875
   70CHL1   H4A 7592   6.587   0.620   7.077 -0.3150 -0.5192  0.6153
   70CHL1   H4B 7593   6.649   0.455   7.081  0.6308 -0.5754  1.1569
   70CHL1    C5 7594   6.651   0.564   7.266 -0.0039  0.1081 -0.2684
   70CHL1    C6 7595   6.637   0.455   7.337 -0.3541  1.2868 -0.1552
   70CHL1    H6 7596   6.632   0.353   7.297  1.6198 -0.3091  3.2262
   70CHL1    C7 7597   6.596   0.455   7.482 -0.2405 -0.3662  0.6003
   70CHL1   H7A 7598   6.513   0.385   7.508  0.3273 -1.2352  0.1122
   70CHL1   H7B 7599   6.687   0.426   7.539  0.2393 -1.4533 -0.6718
   70CHL1    C8 7600   6.552   0.599   7.532  0.6175 -0.0841  0.1754
   70CHL1    H8 7601   6.453   0.625   7.487 -0.8043  1.6217  3.9062
   70CHL1   C14 7602   6.536   0.602   7.683 -0.4323 -0.2537 -0.1492
   70CHL1   H14 7603   6.640   0.581   7.716 -0.0005  3.0903  0.9785
   70CHL1   C15 7604   6.447   0.497   7.751 -0.5150 -0.3880 -0.4026
   70CHL1  H15A 7605   6.347   0.517   7.706  0.2760  0.2201 -1.9378
   70CHL1  H15B 7606   6.462   0.387   7.755 -0.3314 -0.3326  2.1170
   70CHL1   C16 7607   6.441   0.545   7.894  0.0314 -0.1908 -0.2185
   70CHL1  H16A 7608   6.337   0.537   7.932  0.4951  0.1757  1.1893
   70CHL1  H16B 7609   6.506   0.481   7.956  0.7859 -0.7247 -1.5247
   70CHL1   C17 7610   6.499   0.689   7.896  0.5057  0.0264  0.5022
   70CHL1   H17 7611   6.606   0.672   7.919  1.6638  2.9965 -2.0834
   70CHL1   C13 7612   6.504   0.742   7.747 -0.4837  0.1545  0.2317
   70CHL1   C18 7613   6.365   0.789   7.697 -0.1967 -0.4222 -1.2912
   70CHL1  H18A 7614   6.287   0.716   7.729  0.3198  0.1674  1.6354
   70CHL1  H18B 7615   6.345   0.889   7.742  1.8693 -1.1594  1.5282
   70CHL1  H18C 7616   6.368   0.793   7.586 -1.4329 -1.2653 -1.3713
   70CHL1   C12 7617   6.616   0.837   7.710 -0.0394 -0.2170 -0.2805
   70CHL1  H12A 7618   6.599   0.943   7.740  0.7142 -0.7822  2.4762
   70CHL1  H12B 7619   6.712   0.803   7.753  0.7525 -1.0335 -2.5755
   70CHL1   C11 7620   6.637   0.846   7.553 -0.7244 -0.0594 -0.5598
   70CHL1  H11A 7621   6.555   0.899   7.501  0.3050  2.4783  0.2440
   70CHL1  H11B 7622   6.729   0.906   7.532  0.1052 -0.7423  0.9293
   70CHL1    C9 7623   6.656   0.709   7.480 -0.1349  1.0664  0.0204
   70CHL1    H9 7624   6.756   0.680   7.516  0.8996  4.1652 -0.0142
   70CHL1   C10 7625   6.655   0.710   7.324 -0.4365  1.0110  0.3650
   70CHL1   C19 7626   6.533   0.788   7.274 -0.2061  0.1059  0.5002
   70CHL1  H19A 7627   6.531   0.799   7.163  3.9517  0.1175  0.2792
   70CHL1  H19B 7628   6.434   0.748   7.303 -1.5610  1.4909 -1.8479
   70CHL1  H19C 7629   6.536   0.895   7.303  0.3905  0.2916 -0.2017
   70CHL1    C1 7630   6.795   0.765   7.292  0.2700 -0.7714 -0.0641
   70CHL1   H1A 7631   6.790   0.872   7.322 -0.6306 -0.2372 -1.9595
   70CHL1   H1B 7632   6.880   0.710   7.339  0.3046  0.5772  1.5533
   70CHL1    C2 7633   6.828   0.762   7.138  0.2116  0.3607  0.1419
   70CHL1   H2A 7634   6.926   0.804   7.109 -0.7594  2.2399 -0.5893
   70CHL1   H2B 7635   6.753   0.829   7.091  1.3376  0.4566 -1.5942
   70CHL1   C20 7636   6.439   0.788   7.998 -0.0696  0.1360  0.7917
   70CHL1   H20 7637   6.352   0.837   7.950  0.5216 -0.2542 -0.7400
   70CHL1   C21 7638   6.539   0.885   8.032  0.3044  0.5724 -0.5776
   70CHL1  H21A 7639   6.600   0.829   8.106 -1.0774 -0.5438 -0.2309
   70CHL1  H21B 7640   6.495   0.970   8.089  0.2485 -0.1260  0.4541
   70CHL1  H21C 7641   6.610   0.923   7.956 -1.2758 -2.1282 -3.6618
   70CHL1   C22 7642   6.380   0.731   8.128  0.7982  0.2426  0.3429
   70CHL1  H22A 7643   6.303   0.653   8.107 -1.0552  1.6193  1.7283
   70CHL1  H22B 7644   6.459   0.675   8.182  2.4651  0.1595 -2.0025
   70CHL1   C23 7645   6.335   0.829   8.232 -0.5866  0.0504  0.4276
   70CHL1  H23A 7646   6.421   0.892   8.264  1.5633 -2.3680 -0.2541
   70CHL1  H23B 7647   6.253   0.893   8.191 -0.3784  1.1949  1.7004
   70CHL1   C24 7648   6.281   0.756   8.353  0.6149  0.7074 -0.2648
   70CHL1  H24A 7649   6.187   0.705   8.322  0.5218  1.1730 -0.7520
   70CHL1  H24B 7650   6.360   0.684   8.383  0.9277 -0.0150 -2.6783
   70CHL1   C25 7651   6.239   0.842   8.478  0.8246 -0.4610 -0.1106
   70CHL1   H25 7652   6.178   0.925   8.439  1.7143  0.7438  0.9560
   70CHL1   C26 7653   6.147   0.761   8.570 -0.3078  0.0488  0.0082
   70CHL1  H26A 7654   6.197   0.666   8.596 -0.8481 -0.1034  0.5104
   70CHL1  H26B 7655   6.108   0.817   8.658 -1.2330 -0.8622  0.1936
   70CHL1  H26C 7656   6.057   0.735   8.511  1.4688  0.6732 -3.2292
   70CHL1   C27 7657   6.366   0.896   8.547  0.2709 -0.3863  0.3353
   70CHL1  H27A 7658   6.339   0.947   8.642  0.3530 -1.7902  1.1408
   70CHL1  H27B 7659   6.427   0.807   8.572 -1.0352 -1.6261 -0.7479
   70CHL1  H27C 7660   6.424   0.966   8.484 -0.8321  2.4831  2.2808
   71CHL1    C3 7661   5.044   2.424   6.749 -0.7501  0.0864 -0.2012
   71CHL1    H3 7662   4.965   2.496   6.778 -0.7459  0.5048 -1.1989
   71CHL1    O3 7663   5.035   2.404   6.607 -0.0091  0.0988  0.1943
   71CHL1   H3' 7664   5.034   2.309   6.589 -1.6517  0.2220 -0.5329
   71CHL1    C4 7665   5.179   2.495   6.772  0.1854 -0.1866 -0.2794
   71CHL1   H4A 7666   5.260   2.433   6.730 -1.2662 -1.2852 -1.5794
   71CHL1   H4B 7667   5.180   2.588   6.711  0.8632  0.5701  0.8507
   71CHL1    C5 7668   5.207   2.528   6.915  0.0492 -0.1248  0.3610
   71CHL1    C6 7669   5.244   2.653   6.954  0.6786  0.7268  0.6269
   71CHL1    H6 7670   5.233   2.734   6.880  0.0852 -0.0649 -0.1773
   71CHL1    C7 7671   5.249   2.695   7.096 -0.6030 -0.7727  0.6234
   71CHL1   H7A 7672   5.320   2.779   7.107 -1.6640  0.8249 -3.1239
   71CHL1   H7B 7673   5.145   2.731   7.111 -0.7765 -0.9821 -0.0528
   71CHL1    C8 7674   5.266   2.574   7.194 -0.2828 -0.2002 -0.5691
   71CHL1    H8 7675   5.369   2.537   7.175 -0.7458 -0.2495 -3.4265
   71CHL1   C14 7676   5.251   2.633   7.327  0.4090  0.3744 -0.4846
   71CHL1   H14 7677   5.153   2.683   7.342 -0.5899 -2.0652  2.1746
   71CHL1   C15 7678   5.350   2.738   7.384  0.5125  0.0023 -0.0968
   71CHL1  H15A 7679   5.452   2.701   7.357  0.8495  0.2491  0.8015
   71CHL1  H15B 7680   5.329   2.835   7.333 -2.1217 -1.0756 -1.2488
   71CHL1   C16 7681   5.320   2.736   7.532  0.4587 -0.5974 -0.1751
   71CHL1  H16A 7682   5.415   2.742   7.590  1.1090 -0.5978 -1.2262
   71CHL1  H16B 7683   5.271   2.834   7.549 -0.2662 -1.1895  1.3943
   71CHL1   C17 7684   5.235   2.613   7.568  0.3589  0.0800 -0.1859
   71CHL1   H17 7685   5.129   2.644   7.556  0.6077  0.0322 -3.4426
   71CHL1   C13 7686   5.256   2.528   7.438  0.0135 -0.0725 -0.1664
   71CHL1   C18 7687   5.392   2.459   7.446 -0.4287 -0.2491  0.0971
   71CHL1  H18A 7688   5.419   2.409   7.351  1.7222 -0.0606  0.5605
   71CHL1  H18B 7689   5.474   2.529   7.472 -0.0184 -0.9525  0.7468
   71CHL1  H18C 7690   5.388   2.378   7.522  0.1187  0.0551  0.4588
   71CHL1   C12 7691   5.156   2.419   7.413  0.1554  0.1238 -0.4205
   71CHL1  H12A 7692   5.170   2.328   7.475 -0.3702  0.0463 -0.4092
   71CHL1  H12B 7693   5.050   2.451   7.428 -0.3361 -1.1530 -1.0226
   71CHL1   C11 7694   5.163   2.364   7.270  0.0079  0.1806  0.5443
   71CHL1  H11A 7695   5.260   2.309   7.270  1.0953  2.0157  1.6727
   71CHL1  H11B 7696   5.081   2.289   7.263 -0.7198  1.0422 -0.4541
   71CHL1    C9 7697   5.163   2.470   7.158 -0.3665  0.0823 -0.0265
   71CHL1    H9 7698   5.062   2.515   7.151 -0.1334  0.4230 -1.8155
   71CHL1   C10 7699   5.189   2.415   7.015  0.3708 -0.5787 -0.2528
   71CHL1   C19 7700   5.312   2.331   7.009 -0.9035  0.5980  0.6592
   71CHL1  H19A 7701   5.411   2.377   7.030  0.0157 -1.2170  0.4714
   71CHL1  H19B 7702   5.301   2.240   7.070 -0.5324  0.6377  0.7858
   71CHL1  H19C 7703   5.318   2.288   6.907 -1.1730 -2.2914  1.7863
   71CHL1    C1 7704   5.064   2.327   6.977  0.3539 -0.3481  0.1781
   71CHL1   H1A 7705   5.064   2.236   7.042 -1.0086 -0.1638  0.4665
   71CHL1   H1B 7706   4.960   2.358   7.000  0.2257  0.3490 -1.2884
   71CHL1    C2 7707   5.059   2.295   6.829  0.2999 -0.4695 -0.9735
   71CHL1   H2A 7708   4.967   2.233   6.814 -2.5193  2.4304  2.5122
   71CHL1   H2B 7709   5.147   2.231   6.809 -0.0510 -1.9656  1.7023
   71CHL1   C20 7710   5.265   2.561   7.712  0.5268  0.1732 -0.6823
   71CHL1   H20 7711   5.373   2.551   7.736 -0.2367 -0.7356  2.9949
   71CHL1   C21 7712   5.197   2.424   7.731 -0.1997  0.0827  0.3928
   71CHL1  H21A 7713   5.243   2.345   7.667 -0.9982 -0.5274  0.5537
   71CHL1  H21B 7714   5.088   2.429   7.710  0.3952 -0.0700 -3.5424
   71CHL1  H21C 7715   5.207   2.390   7.836 -0.0730 -0.9159  0.0678
   71CHL1   C22 7716   5.210   2.661   7.819 -0.1005  0.0513 -0.0040
   71CHL1  H22A 7717   5.249   2.761   7.789 -0.1732 -0.8487 -3.5757
   71CHL1  H22B 7718   5.100   2.651   7.822 -0.1747  0.7068  2.9422
   71CHL1   C23 7719   5.261   2.634   7.958 -0.2049  0.4255  0.3529
   71CHL1  H23A 7720   5.201   2.551   8.002  0.3917 -0.0313  0.3114
   71CHL1  H23B 7721   5.368   2.603   7.956 -0.7318 -1.9023  2.4155
   71CHL1   C24 7722   5.242   2.751   8.044 -0.6173 -0.4119 -0.9172
   71CHL1  H24A 7723   5.288   2.843   8.003  0.9754 -1.3084 -1.2428
   71CHL1  H24B 7724   5.137   2.760   8.079 -0.5593  0.5582 -0.9884
   71CHL1   C25 7725   5.315   2.743   8.177  0.6296  0.0142 -0.9870
   71CHL1   H25 7726   5.422   2.743   8.147  0.1744  0.3416 -2.6765
   71CHL1   C26 7727   5.306   2.869   8.259 -0.2084 -0.7369 -0.1721
   71CHL1  H26A 7728   5.333   2.955   8.194 -3.4122  1.1557  0.7724
   71CHL1  H26B 7729   5.205   2.887   8.302 -0.5314  0.9784 -1.5237
   71CHL1  H26C 7730   5.368   2.856   8.350  2.4234 -0.7649 -1.8541
   71CHL1   C27 7731   5.283   2.610   8.259  0.0058 -0.6808  0.0498
   71CHL1  H27A 7732   5.175   2.600   8.287 -0.0652  1.7906  0.8378
   71CHL1  H27B 7733   5.322   2.518   8.210  1.7738 -1.0345  2.0009
   71CHL1  H27C 7734   5.346   2.629   8.348 -1.0353  2.1342  0.2881
   72CHL1    C3 7735   6.671   5.239   7.184  0.0531 -0.1934 -0.0003
   72CHL1    H3 7736   6.654   5.134   7.216  0.5769 -0.0953  0.6346
   72CHL1    O3 7737   6.624   5.256   7.050  0.4361 -0.0357  0.2848
   72CHL1   H3' 7738   6.636   5.177   6.998 -0.4537  0.8092 -1.2904
   72CHL1    C4 7739   6.589   5.337   7.275  0.0181  0.0118  0.4188
   72CHL1   H4A 7740   6.587   5.440   7.232 -2.5498  0.6940  1.8945
   72CHL1   H4B 7741   6.481   5.311   7.270 -0.2270  1.1556 -1.0285
   72CHL1    C5 7742   6.636   5.343   7.421  0.2326 -0.1129  0.7115
   72CHL1    C6 7743   6.550   5.326   7.521  0.8489  0.3533 -0.2666
   72CHL1    H6 7744   6.443   5.308   7.505  0.6890  0.7127  0.3726
   72CHL1    C7 7745   6.578   5.339   7.669  0.5818  0.0333  0.1009
   72CHL1   H7A 7746   6.516   5.417   7.719 -0.1805 -1.8472  2.2644
   72CHL1   H7B 7747   6.545   5.246   7.721 -1.2318 -0.2604 -1.5021
   72CHL1    C8 7748   6.729   5.375   7.695  0.8827 -0.3986 -0.2992
   72CHL1    H8 7749   6.737   5.486   7.691 -1.1519 -0.2739 -2.0698
   72CHL1   C14 7750   6.770   5.329   7.838 -0.3417  0.1341  0.1897
   72CHL1   H14 7751   6.755   5.219   7.846 -2.2808  0.4293  1.2683
   72CHL1   C15 7752   6.681   5.372   7.954  0.2351  0.1657 -0.7378
   72CHL1  H15A 7753   6.653   5.479   7.956  0.3340  0.2508 -2.4660
   72CHL1  H15B 7754   6.583   5.319   7.950  1.6904 -2.8101  0.2808
   72CHL1   C16 7755   6.772   5.342   8.076  0.3921 -0.6437 -0.4972
   72CHL1  H16A 7756   6.763   5.436   8.135  1.6375 -0.2843 -0.8436
   72CHL1  H16B 7757   6.725   5.263   8.138 -2.0298 -0.3339 -1.8137
   72CHL1   C17 7758   6.922   5.327   8.027 -1.0094  0.2109 -0.1570
   72CHL1   H17 7759   6.931   5.216   8.026  1.6464  0.3373  0.7310
   72CHL1   C13 7760   6.911   5.369   7.877 -0.6469  0.6238 -0.2721
   72CHL1   C18 7761   6.934   5.522   7.867 -0.6111 -0.0190  0.3674
   72CHL1  H18A 7762   7.039   5.552   7.884  0.3895 -2.1401 -1.6024
   72CHL1  H18B 7763   6.914   5.565   7.766 -1.0213  0.6919  0.7382
   72CHL1  H18C 7764   6.862   5.581   7.928 -1.5822  0.7329 -1.3916
   72CHL1   C12 7765   7.004   5.297   7.780  0.2496  0.2263  0.4047
   72CHL1  H12A 7766   7.103   5.346   7.779  0.4420 -0.0104 -2.5679
   72CHL1  H12B 7767   7.026   5.193   7.812  1.1590  0.0988 -0.5799
   72CHL1   C11 7768   6.964   5.322   7.629  0.1843 -0.0563 -1.3097
   72CHL1  H11A 7769   6.996   5.424   7.596 -0.4727  0.9594  0.9976
   72CHL1  H11B 7770   7.022   5.251   7.566  0.8653  0.4070 -1.2170
   72CHL1    C9 7771   6.818   5.311   7.591  0.2111  0.2121  0.3494
   72CHL1    H9 7772   6.791   5.203   7.596  3.7035 -1.0718 -3.1009
   72CHL1   C10 7773   6.785   5.354   7.446 -0.1881 -0.6932  0.3771
   72CHL1   C19 7774   6.826   5.502   7.407 -0.0088 -0.1171 -0.4505
   72CHL1  H19A 7775   6.935   5.515   7.429 -0.2693  1.2157  0.1791
   72CHL1  H19B 7776   6.818   5.530   7.300  1.3297  1.4524 -0.1908
   72CHL1  H19C 7777   6.766   5.577   7.463  1.3070 -0.3661  1.4006
   72CHL1    C1 7778   6.859   5.266   7.339  0.1330 -0.2389  0.3625
   72CHL1   H1A 7779   6.966   5.295   7.346  0.0659  0.3191 -0.6655
   72CHL1   H1B 7780   6.853   5.163   7.380  5.1952 -0.6343  0.6786
   72CHL1    C2 7781   6.819   5.264   7.195  0.0623 -0.5652  0.2791
   72CHL1   H2A 7782   6.881   5.189   7.141  2.8686  1.5057  0.3562
   72CHL1   H2B 7783   6.840   5.357   7.138  0.7479 -1.3213 -0.7303
   72CHL1   C20 7784   7.021   5.383   8.121 -0.1224 -0.2385 -1.4017
   72CHL1   H20 7785   7.019   5.494   8.108  0.1309 -0.3795 -2.7907
   72CHL1   C21 7786   7.158   5.337   8.072  0.0814  0.3252  1.0487
   72CHL1  H21A 7787   7.159   5.228   8.054  1.0557  0.3457  0.9047
   72CHL1  H21B 7788   7.247   5.363   8.133  0.2850  1.2682  0.3853
   72CHL1  H21C 7789   7.181   5.381   7.972 -3.8110  0.3040 -0.0229
   72CHL1   C22 7790   7.019   5.346   8.273 -0.0798 -0.5755  0.3242
   72CHL1  H22A 7791   6.914   5.361   8.308 -0.8479  1.0117 -2.2972
   72CHL1  H22B 7792   7.038   5.238   8.288 -0.8195 -1.0499 -1.7675
   72CHL1   C23 7793   7.115   5.439   8.358 -0.1031  0.0771  0.2107
   72CHL1  H23A 7794   7.216   5.396   8.340  0.2031  0.8231  0.1372
   72CHL1  H23B 7795   7.112   5.542   8.318 -0.2947 -0.3993 -1.0712
   72CHL1   C24 7796   7.096   5.446   8.508 -0.5464 -0.0699 -0.0015
   72CHL1  H24A 7797   7.011   5.514   8.533 -0.8249 -0.4276  0.0290
   72CHL1  H24B 7798   7.072   5.348   8.554 -1.8882  0.1349 -0.2252
   72CHL1   C25 7799   7.228   5.482   8.583  0.4241 -0.0109 -0.0215
   72CHL1   H25 7800   7.308   5.413   8.547 -0.0573 -0.7612  0.3204
   72CHL1   C26 7801   7.271   5.620   8.549  1.0347 -1.1142 -0.0559
   72CHL1  H26A 7802   7.177   5.678   8.560  1.1578 -0.8773 -0.2338
   72CHL1  H26B 7803   7.351   5.660   8.615  0.1448  1.4466 -0.4288
   72CHL1  H26C 7804   7.310   5.627   8.445 -1.2342 -0.8498 -0.9416
   72CHL1   C27 7805   7.203   5.454   8.735 -0.4305  0.0954 -0.3446
   72CHL1  H27A 7806   7.128   5.519   8.783 -1.1845 -0.8345 -0.2289
   72CHL1  H27B 7807   7.158   5.353   8.745  1.1858 -0.5235  1.1516
   72CHL1  H27C 7808   7.292   5.443   8.801 -1.8177 -2.6095  1.2538
   73CHL1    C3 7809   4.753   4.511   6.947  0.6872  0.6400 -0.3704
   73CHL1    H3 7810   4.856   4.472   6.935  0.0696 -1.2830  0.1245
   73CHL1    O3 7811   4.716   4.554   6.818  0.1222 -0.2850 -0.3199
   73CHL1   H3' 7812   4.746   4.645   6.810  0.9706 -0.2238  2.3676
   73CHL1    C4 7813   4.645   4.398   6.987 -0.3582  0.7862 -0.4231
   73CHL1   H4A 7814   4.544   4.436   6.961 -0.4252  0.0924 -1.2183
   73CHL1   H4B 7815   4.658   4.311   6.919  1.0151  1.6425 -1.3058
   73CHL1    C5 7816   4.654   4.355   7.136  0.4634 -0.4926 -0.1695
   73CHL1    C6 7817   4.672   4.229   7.172 -0.1384  0.2759  0.0078
   73CHL1    H6 7818   4.660   4.149   7.097  0.7019 -0.8615  1.0492
   73CHL1    C7 7819   4.674   4.184   7.315 -0.5132 -1.0424  0.2078
   73CHL1   H7A 7820   4.620   4.089   7.333 -1.9021 -0.3102  0.0254
   73CHL1   H7B 7821   4.782   4.183   7.343 -0.3106  1.4731 -0.2606
   73CHL1    C8 7822   4.620   4.286   7.417  0.5522  0.5863 -0.8250
   73CHL1    H8 7823   4.509   4.292   7.410  0.5526  1.6439 -0.1543
   73CHL1   C14 7824   4.664   4.241   7.557  0.0062  0.8579  0.9726
   73CHL1   H14 7825   4.774   4.248   7.546  0.0325 -1.2398 -0.7425
   73CHL1   C15 7826   4.637   4.098   7.612  0.3283 -0.6110 -0.3382
   73CHL1  H15A 7827   4.549   4.047   7.569 -0.0145  0.5237 -1.0253
   73CHL1  H15B 7828   4.731   4.048   7.580  2.1108  1.9591  0.4373
   73CHL1   C16 7829   4.621   4.111   7.768  0.2824 -0.3901  0.4074
   73CHL1  H16A 7830   4.514   4.090   7.791 -0.0592 -0.0836 -0.8395
   73CHL1  H16B 7831   4.692   4.045   7.823 -2.7910 -3.8750  0.6238
   73CHL1   C17 7832   4.671   4.257   7.796  0.6328 -0.0449  0.3521
   73CHL1   H17 7833   4.780   4.268   7.780  0.5293  0.1335 -0.2547
   73CHL1   C13 7834   4.626   4.334   7.665  0.5933 -0.6996  0.6013
   73CHL1   C18 7835   4.472   4.360   7.674 -0.3399 -0.5003 -0.4288
   73CHL1  H18A 7836   4.456   4.437   7.752 -1.9193 -1.5431  0.3274
   73CHL1  H18B 7837   4.429   4.388   7.575 -0.6301 -1.5365 -0.6153
   73CHL1  H18C 7838   4.415   4.270   7.705 -1.1784 -0.0126 -0.5322
   73CHL1   C12 7839   4.696   4.469   7.634  0.0826  0.1261  0.1770
   73CHL1  H12A 7840   4.669   4.552   7.703  2.3999  0.1714  1.1084
   73CHL1  H12B 7841   4.806   4.456   7.634 -0.1208 -2.0224  1.2126
   73CHL1   C11 7842   4.650   4.524   7.495 -0.1700 -0.6353 -0.2071
   73CHL1  H11A 7843   4.545   4.561   7.497  0.8266  2.5233 -1.5962
   73CHL1  H11B 7844   4.708   4.617   7.481 -1.2818 -0.0301 -1.0014
   73CHL1    C9 7845   4.680   4.422   7.388 -0.4914  0.5238 -0.1445
   73CHL1    H9 7846   4.789   4.400   7.383 -0.4867  0.3067  0.7973
   73CHL1   C10 7847   4.650   4.477   7.241  0.2740  0.6442  0.7672
   73CHL1   C19 7848   4.500   4.521   7.232  0.5911 -0.3146 -1.1463
   73CHL1  H19A 7849   4.498   4.615   7.290 -0.7891 -1.4988  0.8474
   73CHL1  H19B 7850   4.460   4.537   7.130 -2.4460  0.5709  0.0799
   73CHL1  H19C 7851   4.433   4.446   7.279  1.4396 -0.4787 -0.1565
   73CHL1    C1 7852   4.737   4.603   7.198  0.1606  0.2376  0.0985
   73CHL1   H1A 7853   4.713   4.688   7.265 -0.9284 -0.8355  1.1267
   73CHL1   H1B 7854   4.843   4.575   7.215  0.1876  0.2420 -0.0655
   73CHL1    C2 7855   4.729   4.638   7.045  1.0791  0.3905  0.0956
   73CHL1   H2A 7856   4.795   4.723   7.017 -0.7890  1.4955 -1.1607
   73CHL1   H2B 7857   4.627   4.676   7.024  1.2251  0.6103 -0.2211
   73CHL1   C20 7858   4.617   4.290   7.939  0.3551 -0.3199 -0.8254
   73CHL1   H20 7859   4.507   4.285   7.950  0.4968  1.0945  2.2577
   73CHL1   C21 7860   4.648   4.441   7.977  0.3171 -0.4850  0.9339
   73CHL1  H21A 7861   4.750   4.468   7.943 -1.0409  0.9228 -2.5562
   73CHL1  H21B 7862   4.627   4.466   8.083  0.7309  1.1079  0.6612
   73CHL1  H21C 7863   4.582   4.506   7.915 -0.6333 -1.2580  1.1124
   73CHL1   C22 7864   4.669   4.196   8.048 -1.2090 -0.0596 -0.3489
   73CHL1  H22A 7865   4.632   4.242   8.142 -0.3806 -0.7313  0.3176
   73CHL1  H22B 7866   4.611   4.102   8.049  0.0923 -0.8913  0.6814
   73CHL1   C23 7867   4.825   4.174   8.057  0.0854 -0.5424  0.1686
   73CHL1  H23A 7868   4.858   4.100   7.982 -1.3579 -1.8710  0.7968
   73CHL1  H23B 7869   4.877   4.270   8.035  1.3655 -0.6497  2.4281
   73CHL1   C24 7870   4.857   4.114   8.203 -0.3088 -0.2140  0.7894
   73CHL1  H24A 7871   4.795   4.172   8.275  0.8960  0.4391  1.3360
   73CHL1  H24B 7872   4.823   4.009   8.202  0.4365 -0.4572  0.2353
   73CHL1   C25 7873   4.999   4.128   8.243  0.2152 -0.4925  0.3827
   73CHL1   H25 7874   5.038   4.228   8.216 -0.4042 -0.2823  0.2329
   73CHL1   C26 7875   5.020   4.116   8.395  0.9711 -0.1409  0.2619
   73CHL1  H26A 7876   4.970   4.024   8.431 -0.1216 -1.0896 -3.2385
   73CHL1  H26B 7877   5.128   4.122   8.421  0.6970 -1.9528  2.0441
   73CHL1  H26C 7878   4.964   4.200   8.441 -1.7070 -0.3287 -2.3406
   73CHL1   C27 7879   5.087   4.025   8.170 -0.0268  0.3578  0.7993
   73CHL1  H27A 7880   5.188   4.022   8.215  0.0021 -3.7872  0.8159
   73CHL1  H27B 7881   5.038   3.925   8.176  1.2094 -0.4456 -1.4437
   73CHL1  H27C 7882   5.105   4.046   8.063 -1.4822  2.1318  0.8579
   74CHL1    C3 7883   4.620   3.451   7.063 -0.0438 -0.8797 -0.5660
   74CHL1    H3 7884   4.723   3.467   7.023 -0.1331  1.1795 -0.1136
   74CHL1    O3 7885   4.537   3.399   6.959  0.0904 -0.1915 -0.0041
   74CHL1   H3' 7886   4.555   3.305   6.964 -0.6786 -0.3401  0.1309
   74CHL1    C4 7887   4.621   3.335   7.167  1.2871 -0.5265  0.4208
   74CHL1   H4A 7888   4.515   3.309   7.186  0.4748  1.1214 -1.4893
   74CHL1   H4B 7889   4.674   3.250   7.120  0.9508 -0.4060 -0.1886
   74CHL1    C5 7890   4.678   3.381   7.298 -0.5791  0.2724 -0.4133
   74CHL1    C6 7891   4.783   3.316   7.365 -0.0994 -0.7523  0.0677
   74CHL1    H6 7892   4.824   3.223   7.322  0.8374  0.7434 -2.4484
   74CHL1    C7 7893   4.843   3.363   7.494 -0.2209  0.2125  0.8188
   74CHL1   H7A 7894   4.878   3.277   7.555 -0.0462 -1.1121 -1.0386
   74CHL1   H7B 7895   4.939   3.414   7.473  0.4233 -0.7402  1.3648
   74CHL1    C8 7896   4.751   3.455   7.573 -0.0055 -1.3486  0.7801
   74CHL1    H8 7897   4.664   3.391   7.602 -1.9281  0.4285 -0.7549
   74CHL1   C14 7898   4.817   3.509   7.699 -0.0250 -0.1899 -0.4186
   74CHL1   H14 7899   4.897   3.575   7.662  1.0005 -0.2068  1.6315
   74CHL1   C15 7900   4.881   3.399   7.778 -0.3017  0.6332 -0.2414
   74CHL1  H15A 7901   4.817   3.310   7.790 -0.0821  0.5074  0.0007
   74CHL1  H15B 7902   4.979   3.360   7.744 -0.4372 -0.2049  0.3074
   74CHL1   C16 7903   4.909   3.475   7.912  0.0441 -0.3513 -0.8317
   74CHL1  H16A 7904   4.848   3.411   7.979 -1.1321  1.3596 -0.2070
   74CHL1  H16B 7905   5.018   3.484   7.929 -0.1677  0.5860  0.1268
   74CHL1   C17 7906   4.835   3.618   7.902 -0.1209  0.0605 -0.0442
   74CHL1   H17 7907   4.909   3.692   7.866 -1.7454  1.9168  0.3086
   74CHL1   C13 7908   4.734   3.597   7.782  0.8961  0.1970 -0.3558
   74CHL1   C18 7909   4.602   3.527   7.829  0.1639  0.0898  0.2472
   74CHL1  H18A 7910   4.628   3.433   7.882  0.2792 -0.6829 -1.1596
   74CHL1  H18B 7911   4.545   3.598   7.893 -0.7211 -2.3134  2.2544
   74CHL1  H18C 7912   4.534   3.506   7.745  0.9683  0.3903 -0.4933
   74CHL1   C12 7913   4.704   3.721   7.697 -0.2730  0.0194 -0.5483
   74CHL1  H12A 7914   4.641   3.795   7.750  1.1337 -0.7319  2.3999
   74CHL1  H12B 7915   4.803   3.765   7.671  1.0487 -0.8296  2.5908
   74CHL1   C11 7916   4.633   3.686   7.569 -0.4178 -0.7585 -0.3078
   74CHL1  H11A 7917   4.528   3.662   7.596 -1.6867  1.4259 -2.8181
   74CHL1  H11B 7918   4.626   3.773   7.500 -0.7469 -1.2855 -0.9473
   74CHL1    C9 7919   4.699   3.570   7.486  0.3687 -0.0799  0.1831
   74CHL1    H9 7920   4.791   3.615   7.443 -0.6483 -1.2867 -3.6544
   74CHL1   C10 7921   4.620   3.515   7.364  0.0148 -0.3404 -0.2892
   74CHL1   C19 7922   4.483   3.477   7.413 -0.2222 -0.3509  0.0025
   74CHL1  H19A 7923   4.492   3.401   7.493  0.4334  0.6102  0.8582
   74CHL1  H19B 7924   4.439   3.571   7.452  0.7497  0.7114 -1.3463
   74CHL1  H19C 7925   4.415   3.436   7.335  0.2532 -0.6835 -0.2489
   74CHL1    C1 7926   4.625   3.618   7.253 -0.0561 -0.1907 -0.7848
   74CHL1   H1A 7927   4.573   3.713   7.278 -1.0164 -0.9580  0.2304
   74CHL1   H1B 7928   4.729   3.646   7.227  0.5370  1.1731  2.6169
   74CHL1    C2 7929   4.556   3.575   7.123  0.0986  0.4715 -0.1820
   74CHL1   H2A 7930   4.537   3.657   7.051 -2.2744  0.7202  0.6661
   74CHL1   H2B 7931   4.456   3.543   7.159 -0.1610  0.8992 -0.5145
   74CHL1   C20 7932   4.779   3.663   8.034 -0.0037  0.5281  0.1981
   74CHL1   H20 7933   4.695   3.597   8.064  0.0716 -1.6267 -3.6283
   74CHL1   C21 7934   4.716   3.807   8.016  0.0998 -0.5601  0.1802
   74CHL1  H21A 7935   4.624   3.804   7.954 -0.0604 -1.3127  0.4425
   74CHL1  H21B 7936   4.784   3.882   7.971 -1.4445  0.7328 -0.0746
   74CHL1  H21C 7937   4.695   3.848   8.117  1.4236  0.7743 -0.0532
   74CHL1   C22 7938   4.891   3.665   8.142 -0.2871 -0.7765  0.3369
   74CHL1  H22A 7939   4.950   3.572   8.132  1.0184  0.0524  0.0471
   74CHL1  H22B 7940   4.958   3.752   8.130  0.3188 -1.3333 -0.4314
   74CHL1   C23 7941   4.832   3.672   8.283 -0.8257 -0.2043 -0.5295
   74CHL1  H23A 7942   4.756   3.753   8.282 -0.5268  0.1410  1.4194
   74CHL1  H23B 7943   4.784   3.576   8.310 -0.3566  0.3178  2.5733
   74CHL1   C24 7944   4.941   3.693   8.398  0.5031  0.0377 -0.8606
   74CHL1  H24A 7945   5.007   3.603   8.404 -1.1294 -1.1084  3.3590
   74CHL1  H24B 7946   5.003   3.776   8.359 -0.0876  0.7950 -0.2232
   74CHL1   C25 7947   4.895   3.733   8.540 -0.1824  0.4716  0.1590
   74CHL1   H25 7948   4.832   3.824   8.528  1.7400  1.7070 -1.2707
   74CHL1   C26 7949   4.814   3.612   8.609  0.2356 -0.4290  0.2482
   74CHL1  H26A 7950   4.720   3.589   8.553 -0.5744  1.8751  0.5389
   74CHL1  H26B 7951   4.868   3.515   8.618 -0.6656 -1.0377 -0.5968
   74CHL1  H26C 7952   4.767   3.650   8.702  0.4278  1.6537 -0.4586
   74CHL1   C27 7953   5.011   3.792   8.625  0.1312 -0.2267 -0.1669
   74CHL1  H27A 7954   5.096   3.727   8.656  0.4644  0.6921  0.9318
   74CHL1  H27B 7955   5.064   3.874   8.571  2.7234 -1.4139  0.4037
   74CHL1  H27C 7956   4.974   3.824   8.725  0.4733 -1.9297  0.5332
   75CHL1    C3 7957   0.218   4.692   6.755 -0.0971  1.2268  0.2694
   75CHL1    H3 7958   0.108   4.690   6.767 -0.0364  0.7399  0.8157
   75CHL1    O3 7959   0.253   4.679   6.621  0.9313 -0.0997 -0.0650
   75CHL1   H3' 7960   0.339   4.721   6.619  1.0158 -0.1698  1.0872
   75CHL1    C4 7961   0.279   4.817   6.814 -0.1365  0.1041  0.0247
   75CHL1   H4A 7962   0.387   4.835   6.792  0.3839  1.6818  3.3326
   75CHL1   H4B 7963   0.239   4.904   6.759  2.1015  0.5748 -0.9561
   75CHL1    C5 7964   0.268   4.827   6.964  0.0812  0.0163  0.3685
   75CHL1    C6 7965   0.221   4.940   7.023 -0.9236 -0.5856 -0.5601
   75CHL1    H6 7966   0.200   5.029   6.961  1.0013  0.5307  0.2926
   75CHL1    C7 7967   0.229   4.965   7.173 -0.0554 -0.2955  0.1435
   75CHL1   H7A 7968   0.284   5.061   7.184 -0.1607 -0.3696  1.6444
   75CHL1   H7B 7969   0.134   4.976   7.229  0.8752  0.9045  1.5853
   75CHL1    C8 7970   0.304   4.852   7.244 -0.1613 -0.1189 -0.3475
   75CHL1    H8 7971   0.413   4.866   7.230 -0.1971  0.4367 -0.0976
   75CHL1   C14 7972   0.287   4.855   7.391  0.6246 -0.3981 -0.5337
   75CHL1   H14 7973   0.183   4.830   7.421 -0.1093  0.3531 -2.2785
   75CHL1   C15 7974   0.305   4.988   7.467 -0.4402 -0.1771 -0.0702
   75CHL1  H15A 7975   0.398   5.032   7.425 -0.7984 -1.1709 -2.0365
   75CHL1  H15B 7976   0.224   5.062   7.449  0.0463 -0.4599 -4.2590
   75CHL1   C16 7977   0.330   4.942   7.617 -0.3763  0.7084 -0.7173
   75CHL1  H16A 7978   0.433   4.972   7.647 -0.1958 -1.6909  1.3796
   75CHL1  H16B 7979   0.273   5.000   7.692 -0.6690 -0.0852 -0.3158
   75CHL1   C17 7980   0.328   4.785   7.617 -0.9499  0.4347  0.9681
   75CHL1   H17 7981   0.222   4.764   7.641 -0.5732 -0.5096  1.8723
   75CHL1   C13 7982   0.354   4.743   7.470 -0.3107  0.6298 -0.2190
   75CHL1   C18 7983   0.510   4.743   7.434  0.5972 -0.8200 -0.6994
   75CHL1  H18A 7984   0.558   4.655   7.482 -1.0606 -1.3984 -0.0383
   75CHL1  H18B 7985   0.530   4.725   7.327  2.2387 -0.4664 -0.4830
   75CHL1  H18C 7986   0.550   4.840   7.473 -0.6163 -0.4031 -0.4338
   75CHL1   C12 7987   0.292   4.616   7.427 -0.0883 -0.8767  0.0872
   75CHL1  H12A 7988   0.328   4.523   7.475  1.7881 -0.7901 -1.0100
   75CHL1  H12B 7989   0.183   4.629   7.444 -0.1088  1.2085 -1.1954
   75CHL1   C11 7990   0.298   4.598   7.278 -0.3947  0.1352 -0.2533
   75CHL1  H11A 7991   0.397   4.553   7.252  0.1324  0.4263  1.1757
   75CHL1  H11B 7992   0.221   4.523   7.250 -1.5574  1.9334 -2.0808
   75CHL1    C9 7993   0.262   4.716   7.184 -0.1046  0.6691 -0.1817
   75CHL1    H9 7994   0.151   4.729   7.187 -0.1918  0.1104  3.7390
   75CHL1   C10 7995   0.309   4.696   7.035 -0.0802 -0.1371 -0.6249
   75CHL1   C19 7996   0.465   4.701   7.021  0.1592 -0.2430  0.0237
   75CHL1  H19A 7997   0.506   4.799   7.054  2.1974 -1.0991  0.1913
   75CHL1  H19B 7998   0.516   4.623   7.082 -0.8677 -2.2895 -1.5924
   75CHL1  H19C 7999   0.495   4.702   6.914  0.4353 -0.8519  0.0929
   75CHL1    C1 8000   0.258   4.567   6.980 -0.4533  0.0306  0.3131
   75CHL1   H1A 8001   0.306   4.476   7.021 -0.7597 -0.7319 -0.9855
   75CHL1   H1B 8002   0.150   4.561   7.002 -0.0340 -2.8524  2.0723
   75CHL1    C2 8003   0.270   4.567   6.828  0.3556  0.4742 -0.0395
   75CHL1   H2A 8004   0.204   4.486   6.792  0.4154  0.0523  0.7767
   75CHL1   H2B 8005   0.374   4.539   6.803  0.0045 -1.1929  0.2671
   75CHL1   C20 8006   0.427   4.726   7.724  0.6168  0.1704 -0.0081
   75CHL1   H20 8007   0.532   4.758   7.702  1.4466 -0.5299  2.5646
   75CHL1   C21 8008   0.422   4.574   7.730  0.0771  0.2877  0.4981
   75CHL1  H21A 8009   0.497   4.537   7.804 -0.3966  0.4995  1.1006
   75CHL1  H21B 8010   0.448   4.528   7.633 -1.4186  0.8473 -0.2000
   75CHL1  H21C 8011   0.323   4.533   7.760  1.1866 -4.4409 -1.3835
   75CHL1   C22 8012   0.401   4.782   7.868 -0.5753 -0.3544 -0.3112
   75CHL1  H22A 8013   0.454   4.716   7.940  1.9671  2.7274  0.8942
   75CHL1  H22B 8014   0.448   4.883   7.875  1.3003 -1.0571 -1.8774
   75CHL1   C23 8015   0.257   4.794   7.916 -0.5263  0.7021  0.0397
   75CHL1  H23A 8016   0.197   4.852   7.842 -0.1884  1.6352  0.4843
   75CHL1  H23B 8017   0.225   4.688   7.910  4.9589 -1.2727 -0.9436
   75CHL1   C24 8018   0.242   4.865   8.054  0.3063  0.3643  0.1035
   75CHL1  H24A 8019   0.315   4.814   8.120 -0.1665  0.7928  0.9633
   75CHL1  H24B 8020   0.265   4.974   8.051 -0.7877  0.6040  0.1508
   75CHL1   C25 8021   0.100   4.849   8.117  0.4074 -0.4341 -1.0816
   75CHL1   H25 8022   0.087   4.740   8.135  0.5488 -0.2160  0.4717
   75CHL1   C26 8023   0.091   4.920   8.256  0.4065  0.3948  0.2078
   75CHL1  H26A 8024  -0.001   4.886   8.310  0.2487 -0.7958 -0.7581
   75CHL1  H26B 8025   0.176   4.881   8.316  1.1367  0.2609 -0.8897
   75CHL1  H26C 8026   0.090   5.031   8.257 -2.4028  0.4648  1.0022
   75CHL1   C27 8027  -0.014   4.884   8.021  0.0787  0.4599 -0.5809
   75CHL1  H27A 8028  -0.036   4.990   7.999 -0.8095  0.1872 -1.0568
   75CHL1  H27B 8029  -0.003   4.843   7.918  1.7379  0.2092 -0.3304
   75CHL1  H27C 8030  -0.109   4.840   8.058  0.9779 -0.1529  1.1529
   76CHL1    C3 8031   4.412   1.867   7.251  0.4154 -0.4850 -0.3234
   76CHL1    H3 8032   4.433   1.760   7.232  1.1608 -0.5809  0.9374
   76CHL1    O3 8033   4.379   1.937   7.134 -0.1603 -0.4429  0.1166
   76CHL1   H3' 8034   4.436   1.899   7.067  1.4690 -1.2480  1.8625
   76CHL1    C4 8035   4.288   1.877   7.349 -0.0693 -0.3975  0.3457
   76CHL1   H4A 8036   4.259   1.981   7.373  0.6585 -0.4875  1.7509
   76CHL1   H4B 8037   4.211   1.815   7.298 -0.1452 -1.2999  1.5082
   76CHL1    C5 8038   4.329   1.808   7.478  0.7518 -0.2058  0.8320
   76CHL1    C6 8039   4.268   1.699   7.526  0.4741  0.0190 -0.3607
   76CHL1    H6 8040   4.188   1.664   7.459 -0.5600 -0.6217  1.1697
   76CHL1    C7 8041   4.298   1.630   7.657  0.0731 -0.0232 -0.8479
   76CHL1   H7A 8042   4.204   1.586   7.696  0.0052 -1.3970 -2.4434
   76CHL1   H7B 8043   4.371   1.553   7.625 -2.1594 -2.2321 -0.8626
   76CHL1    C8 8044   4.381   1.724   7.749 -0.1728 -0.3269  0.4853
   76CHL1    H8 8045   4.309   1.800   7.786 -0.9975 -1.0253  0.3356
   76CHL1   C14 8046   4.435   1.649   7.865  0.3605 -0.1085  0.7291
   76CHL1   H14 8047   4.508   1.581   7.815  3.1751  3.7274 -0.8667
   76CHL1   C15 8048   4.340   1.563   7.940  0.5302  0.4153  0.4001
   76CHL1  H15A 8049   4.243   1.613   7.964 -0.0238  0.0811 -0.9996
   76CHL1  H15B 8050   4.315   1.472   7.880 -1.2802  0.9436  0.2811
   76CHL1   C16 8051   4.421   1.519   8.066 -0.3939  0.1199 -0.3529
   76CHL1  H16A 8052   4.357   1.555   8.150 -0.2019 -2.3901  0.9537
   76CHL1  H16B 8053   4.449   1.414   8.087  0.3613  0.7542  2.1250
   76CHL1   C17 8054   4.542   1.618   8.075 -0.0383  0.1359  0.2425
   76CHL1   H17 8055   4.627   1.555   8.040 -0.7167 -1.5543  1.4946
   76CHL1   C13 8056   4.511   1.731   7.969 -0.4433  0.0922  0.0906
   76CHL1   C18 8057   4.421   1.843   8.028 -0.3507 -0.2320  0.2204
   76CHL1  H18A 8058   4.477   1.896   8.108 -1.5545 -1.8571  2.2477
   76CHL1  H18B 8059   4.395   1.915   7.947 -2.1851 -0.4045  0.6018
   76CHL1  H18C 8060   4.321   1.807   8.061 -1.2681 -0.1955 -2.3167
   76CHL1   C12 8061   4.636   1.784   7.894  0.3255  1.1123 -0.6601
   76CHL1  H12A 8062   4.676   1.867   7.956 -4.2736  1.2595  2.6510
   76CHL1  H12B 8063   4.704   1.698   7.876 -1.4757 -0.5333 -0.0207
   76CHL1   C11 8064   4.598   1.862   7.766  0.4158  0.1069 -0.1946
   76CHL1  H11A 8065   4.571   1.963   7.804  1.8368  0.7792 -0.8907
   76CHL1  H11B 8066   4.687   1.892   7.707  0.3546  1.0273  0.1694
   76CHL1    C9 8067   4.495   1.793   7.674  0.2248  1.0229  0.6838
   76CHL1    H9 8068   4.538   1.699   7.634 -0.8801  0.0937  1.6263
   76CHL1   C10 8069   4.443   1.877   7.552 -0.6930  0.0977 -0.0412
   76CHL1   C19 8070   4.387   2.013   7.594 -0.1482 -0.0759  0.3136
   76CHL1  H19A 8071   4.455   2.071   7.660 -0.7032  0.9228  0.0223
   76CHL1  H19B 8072   4.369   2.082   7.509  0.8035 -0.1932  0.0090
   76CHL1  H19C 8073   4.290   2.004   7.648 -0.4284  0.1901 -0.1359
   76CHL1    C1 8074   4.565   1.891   7.453  0.8920 -0.4230  0.7662
   76CHL1   H1A 8075   4.652   1.946   7.495  1.5079 -1.9708  1.6071
   76CHL1   H1B 8076   4.597   1.787   7.436  1.4072 -0.1135 -0.2107
   76CHL1    C2 8077   4.536   1.940   7.306 -1.0524 -0.0237  0.3096
   76CHL1   H2A 8078   4.628   1.928   7.245 -1.0007  2.9292 -0.3401
   76CHL1   H2B 8079   4.519   2.050   7.302 -0.2318  0.0925 -0.4650
   76CHL1   C20 8080   4.569   1.653   8.222 -0.6878  0.5863  0.2090
   76CHL1   H20 8081   4.494   1.731   8.246 -0.4909  0.5762  0.8530
   76CHL1   C21 8082   4.705   1.721   8.210  0.3051  0.4744 -0.8156
   76CHL1  H21A 8083   4.786   1.661   8.164 -0.3981 -0.5639 -0.7641
   76CHL1  H21B 8084   4.743   1.754   8.309  1.7198  1.7220 -1.7455
   76CHL1  H21C 8085   4.693   1.807   8.141  0.1522 -2.0884 -4.2249
   76CHL1   C22 8086   4.576   1.540   8.327 -0.1929 -0.0240 -0.3303
   76CHL1  H22A 8087   4.482   1.481   8.337  0.3342 -0.9255 -0.5963
   76CHL1  H22B 8088   4.653   1.466   8.297 -0.7217 -1.4845  1.6972
   76CHL1   C23 8089   4.609   1.582   8.471 -0.9689 -0.6202  0.8761
   76CHL1  H23A 8090   4.710   1.628   8.472 -1.7536  1.2032  0.5960
   76CHL1  H23B 8091   4.528   1.655   8.495 -0.0163  1.6372 -2.0532
   76CHL1   C24 8092   4.614   1.458   8.560  0.4608 -0.7777 -0.5198
   76CHL1  H24A 8093   4.507   1.426   8.569  0.1744  0.4257  0.8009
   76CHL1  H24B 8094   4.671   1.376   8.512 -0.4716 -0.8952 -1.4643
   76CHL1   C25 8095   4.659   1.479   8.706 -1.0344 -0.0401 -0.5382
   76CHL1   H25 8096   4.743   1.551   8.711  0.5384 -1.8676  1.8770
   76CHL1   C26 8097   4.552   1.560   8.776  0.5979 -0.2358 -0.2836
   76CHL1  H26A 8098   4.451   1.513   8.778  0.6158 -0.2688  0.5273
   76CHL1  H26B 8099   4.588   1.583   8.879  0.9381  1.9704 -0.8488
   76CHL1  H26C 8100   4.537   1.655   8.721 -2.7266  0.2881  1.2786
   76CHL1   C27 8101   4.703   1.350   8.780  0.1168  0.3875  0.8194
   76CHL1  H27A 8102   4.732   1.366   8.886 -1.2035 -2.7229  1.7634
   76CHL1  H27B 8103   4.613   1.286   8.773  1.2313 -1.0101 -2.8967
   76CHL1  H27C 8104   4.784   1.296   8.727  2.3462  0.4955  3.8348
   77CHL1    C3 8105   4.840   3.721   6.909  0.1561 -0.2277 -0.9877
   77CHL1    H3 8106   4.740   3.708   6.956  0.8439  0.9168  0.8967
   77CHL1    O3 8107   4.805   3.722   6.778 -0.6165  0.0179 -0.5753
   77CHL1   H3' 8108   4.768   3.635   6.762 -0.9998 -0.3759  2.0715
   77CHL1    C4 8109   4.906   3.856   6.952  0.4251 -0.0792  0.4716
   77CHL1   H4A 8110   4.997   3.860   6.889  0.6062 -1.7849  0.5529
   77CHL1   H4B 8111   4.837   3.941   6.938 -1.5561 -1.4903  1.0935
   77CHL1    C5 8112   4.948   3.855   7.103  0.0626 -0.0571  0.7239
   77CHL1    C6 8113   4.897   3.945   7.186  0.0088 -0.2151 -0.2623
   77CHL1    H6 8114   4.836   4.027   7.145  1.9237  0.6245 -1.6214
   77CHL1    C7 8115   4.930   3.938   7.332 -0.7272  0.6831  0.1137
   77CHL1   H7A 8116   4.943   4.043   7.364 -0.4723  0.5453  0.4737
   77CHL1   H7B 8117   4.848   3.889   7.388 -1.5494 -0.8547 -2.2770
   77CHL1    C8 8118   5.063   3.859   7.366  0.0013 -0.3131  0.1174
   77CHL1    H8 8119   5.145   3.915   7.317 -0.6080  1.1180  0.6771
   77CHL1   C14 8120   5.071   3.831   7.517 -0.1732  0.0274  0.5589
   77CHL1   H14 8121   4.986   3.764   7.543 -1.6163  1.0303 -1.3021
   77CHL1   C15 8122   5.058   3.954   7.611 -0.2193  0.1420  0.5148
   77CHL1  H15A 8123   5.131   4.033   7.582 -1.0256 -0.1235 -2.6525
   77CHL1  H15B 8124   4.955   3.996   7.614 -1.5619 -2.9290  2.9374
   77CHL1   C16 8125   5.102   3.895   7.745  0.0033 -0.1066  0.2132
   77CHL1  H16A 8126   5.161   3.973   7.797  2.2323 -2.8745  2.1759
   77CHL1  H16B 8127   5.006   3.880   7.800 -0.0960  0.3864  0.1724
   77CHL1   C17 8128   5.178   3.761   7.723 -0.0272 -0.3088 -0.0141
   77CHL1   H17 8129   5.101   3.682   7.735 -1.3644  1.1229  1.2754
   77CHL1   C13 8130   5.199   3.758   7.566 -0.0455  0.9576 -0.6607
   77CHL1   C18 8131   5.329   3.844   7.526  0.8105  0.0185 -0.3915
   77CHL1  H18A 8132   5.408   3.828   7.602  0.3045  0.4409  0.2306
   77CHL1  H18B 8133   5.368   3.822   7.424 -0.6579 -0.6980 -0.8196
   77CHL1  H18C 8134   5.315   3.955   7.527  1.4338  0.1425 -1.9592
   77CHL1   C12 8135   5.203   3.617   7.498 -0.5144  0.5410  0.7552
   77CHL1  H12A 8136   5.298   3.562   7.515  1.3063  2.8381 -1.2151
   77CHL1  H12B 8137   5.119   3.559   7.542 -0.3272  0.4636  1.0118
   77CHL1   C11 8138   5.189   3.633   7.341 -0.2709 -0.0481  0.5049
   77CHL1  H11A 8139   5.285   3.667   7.298  0.3987 -1.4485  0.8392
   77CHL1  H11B 8140   5.165   3.529   7.310 -1.2176 -0.3021  1.9631
   77CHL1    C9 8141   5.067   3.721   7.297 -0.1039 -0.1285 -0.7691
   77CHL1    H9 8142   4.976   3.664   7.327 -0.2886  0.3212 -0.4680
   77CHL1   C10 8143   5.048   3.739   7.137 -0.1712  0.3643 -0.0698
   77CHL1   C19 8144   5.189   3.756   7.075 -0.0377  0.2901  0.3597
   77CHL1  H19A 8145   5.252   3.836   7.118  3.4046 -3.3220  2.7856
   77CHL1  H19B 8146   5.246   3.662   7.093  1.5021  1.4660  1.8953
   77CHL1  H19C 8147   5.195   3.771   6.965 -3.4123  0.3839  0.0770
   77CHL1    C1 8148   4.997   3.601   7.080 -0.0678 -0.3801 -0.3517
   77CHL1   H1A 8149   5.085   3.533   7.080  0.2996  0.0746  0.5661
   77CHL1   H1B 8150   4.922   3.546   7.141 -0.9101  0.8839 -0.2190
   77CHL1    C2 8151   4.941   3.605   6.933  0.5249  0.1757  0.0935
   77CHL1   H2A 8152   4.884   3.515   6.900  0.1356  0.8780 -1.2081
   77CHL1   H2B 8153   5.028   3.625   6.867  1.1727  0.7430  1.0989
   77CHL1   C20 8154   5.294   3.734   7.821 -0.2535 -0.5025  0.4853
   77CHL1   H20 8155   5.370   3.813   7.806  0.0041 -1.0646 -1.5123
   77CHL1   C21 8156   5.364   3.597   7.791  0.1622 -0.2413 -0.4129
   77CHL1  H21A 8157   5.280   3.525   7.779  0.1110 -0.4459  1.0190
   77CHL1  H21B 8158   5.430   3.565   7.875 -1.6855  0.9282  1.5718
   77CHL1  H21C 8159   5.435   3.587   7.706  1.1300 -3.0863  0.6063
   77CHL1   C22 8160   5.250   3.730   7.965 -0.2410 -0.1099  0.6362
   77CHL1  H22A 8161   5.180   3.815   7.981 -0.3509 -0.1456  0.3565
   77CHL1  H22B 8162   5.195   3.634   7.976 -1.1759  0.3982  0.4547
   77CHL1   C23 8163   5.360   3.757   8.068  0.2116  0.2259  0.2112
   77CHL1  H23A 8164   5.447   3.691   8.048 -0.3308 -0.4266 -0.0315
   77CHL1  H23B 8165   5.394   3.862   8.054  0.0332  0.1103 -1.2981
   77CHL1   C24 8166   5.315   3.742   8.213 -0.2031 -0.7519  0.1750
   77CHL1  H24A 8167   5.234   3.816   8.228  2.0682  1.6299  1.5373
   77CHL1  H24B 8168   5.288   3.635   8.227  2.1128 -1.1767  2.1143
   77CHL1   C25 8169   5.423   3.775   8.317  0.1439 -0.6919 -0.4419
   77CHL1   H25 8170   5.509   3.711   8.289 -0.5150 -0.7114 -2.6301
   77CHL1   C26 8171   5.465   3.924   8.315 -0.6959  0.0656 -0.1385
   77CHL1  H26A 8172   5.519   3.955   8.407 -1.7311 -1.0931  0.9050
   77CHL1  H26B 8173   5.519   3.957   8.223 -1.2005  0.3885 -0.3241
   77CHL1  H26C 8174   5.368   3.978   8.311 -0.7761 -0.0709 -0.0571
   77CHL1   C27 8175   5.376   3.727   8.457 -0.0217 -0.5684  0.3877
   77CHL1  H27A 8176   5.271   3.759   8.469  0.4027  0.1201  2.7888
   77CHL1  H27B 8177   5.387   3.617   8.448 -0.1610 -0.5647  0.1536
   77CHL1  H27C 8178   5.444   3.770   8.533  0.7584  0.4695 -0.8425
   78CHL1    C3 8179   2.015   6.520   6.720 -0.1777  0.6790  1.5766
   78CHL1    H3 8180   1.984   6.626   6.722 -1.5513  0.3043  1.1372
   78CHL1    O3 8181   2.006   6.482   6.592 -0.2507 -0.5999 -0.0743
   78CHL1   H3' 8182   2.059   6.403   6.577 -1.6576 -2.1341  2.2860
   78CHL1    C4 8183   2.158   6.492   6.763  0.8389 -0.3528  0.1520
   78CHL1   H4A 8184   2.188   6.388   6.740  0.8944 -0.2743 -0.1406
   78CHL1   H4B 8185   2.220   6.553   6.694 -0.5560  1.0336  0.0594
   78CHL1    C5 8186   2.185   6.535   6.907  0.4386 -0.6006 -0.4078
   78CHL1    C6 8187   2.264   6.641   6.947  0.0447  0.1716 -0.1049
   78CHL1    H6 8188   2.314   6.689   6.862  2.0957 -4.1328 -1.6544
   78CHL1    C7 8189   2.286   6.686   7.093  0.5505  0.5668  0.0740
   78CHL1   H7A 8190   2.394   6.705   7.110  0.8686  1.3393 -2.4442
   78CHL1   H7B 8191   2.238   6.786   7.098  0.6957  0.6831 -0.7670
   78CHL1    C8 8192   2.226   6.582   7.191  0.1466  0.1784  0.4066
   78CHL1    H8 8193   2.297   6.497   7.183  0.0342 -0.1905  2.7114
   78CHL1   C14 8194   2.207   6.649   7.330 -0.4117 -0.0473 -0.2684
   78CHL1   H14 8195   2.135   6.730   7.305  0.1230  0.0975 -1.3880
   78CHL1   C15 8196   2.327   6.730   7.386 -0.6326  0.8557  0.1593
   78CHL1  H15A 8197   2.419   6.671   7.363  0.4781  3.2649 -2.0485
   78CHL1  H15B 8198   2.340   6.828   7.335  0.1871 -0.8179 -3.1017
   78CHL1   C16 8199   2.289   6.740   7.533  0.6922  0.0898 -0.2246
   78CHL1  H16A 8200   2.381   6.710   7.587  0.8428 -0.3672 -0.7286
   78CHL1  H16B 8201   2.281   6.848   7.558  0.2507 -0.3658  1.7802
   78CHL1   C17 8202   2.164   6.653   7.564 -0.3359 -0.1835 -1.4031
   78CHL1   H17 8203   2.086   6.731   7.563 -1.1549 -0.8694  1.2924
   78CHL1   C13 8204   2.154   6.559   7.441 -0.6280  0.7626 -0.7971
   78CHL1   C18 8205   2.241   6.427   7.457 -0.2750 -0.7254  0.9564
   78CHL1  H18A 8206   2.231   6.348   7.379  0.1704  0.4932 -0.3711
   78CHL1  H18B 8207   2.349   6.451   7.455 -0.5186  0.4263  0.8636
   78CHL1  H18C 8208   2.211   6.371   7.548  4.2009 -0.0830  3.0902
   78CHL1   C12 8209   2.014   6.520   7.399  0.3339 -0.0676  0.7065
   78CHL1  H12A 8210   1.966   6.442   7.462  0.8448 -0.6268  0.4120
   78CHL1  H12B 8211   1.944   6.606   7.396  0.2910 -0.1260 -0.7042
   78CHL1   C11 8212   2.013   6.457   7.258 -0.5060 -0.0876  0.6562
   78CHL1  H11A 8213   2.046   6.351   7.268 -1.2488 -0.1963  2.1418
   78CHL1  H11B 8214   1.912   6.454   7.212 -0.0636  0.5671 -0.4074
   78CHL1    C9 8215   2.087   6.535   7.153 -0.1270 -0.1319 -0.3983
   78CHL1    H9 8216   2.032   6.631   7.142 -2.0720 -1.1861 -0.2145
   78CHL1   C10 8217   2.089   6.469   7.009 -0.5146 -0.5534  0.1123
   78CHL1   C19 8218   2.136   6.325   7.014  0.1689  0.9484  0.1163
   78CHL1  H19A 8219   2.129   6.274   6.915  1.1011 -0.7577  0.8707
   78CHL1  H19B 8220   2.241   6.317   7.050  0.2267 -2.1722 -0.4231
   78CHL1  H19C 8221   2.077   6.266   7.088  2.4863 -1.3013  0.3327
   78CHL1    C1 8222   1.946   6.475   6.954  0.2912  0.3007  0.1296
   78CHL1   H1A 8223   1.883   6.410   7.018 -1.6708 -0.4067 -2.3555
   78CHL1   H1B 8224   1.908   6.579   6.956  2.8027  1.2732  1.3973
   78CHL1    C2 8225   1.923   6.430   6.800  0.2588 -0.1258  0.4010
   78CHL1   H2A 8226   1.816   6.450   6.779  0.1383 -0.9271  0.2211
   78CHL1   H2B 8227   1.944   6.322   6.790  1.2003  0.1141 -0.4175
   78CHL1   C20 8228   2.164   6.599   7.706 -0.1825  0.0190  0.6376
   78CHL1   H20 8229   2.233   6.512   7.706 -0.8190 -0.5822 -2.5971
   78CHL1   C21 8230   2.021   6.544   7.741 -0.4617 -0.7220 -0.1452
   78CHL1  H21A 8231   2.015   6.481   7.833  0.3923  1.4505  1.4673
   78CHL1  H21B 8232   2.000   6.473   7.658 -0.8341 -0.5324 -0.2158
   78CHL1  H21C 8233   1.945   6.624   7.750 -0.1425 -0.3173 -0.9413
   78CHL1   C22 8234   2.205   6.701   7.811  0.2825  0.2260  0.5698
   78CHL1  H22A 8235   2.308   6.736   7.790  0.4207  0.3387  1.4140
   78CHL1  H22B 8236   2.134   6.786   7.814  1.1989  0.9946  0.6376
   78CHL1   C23 8237   2.196   6.640   7.947 -0.0993 -0.4583 -0.7067
   78CHL1  H23A 8238   2.090   6.639   7.982  0.3937 -1.1052  0.8623
   78CHL1  H23B 8239   2.240   6.539   7.960  0.9202  0.1513  0.8664
   78CHL1   C24 8240   2.251   6.742   8.054 -0.7121  0.0288  0.4189
   78CHL1  H24A 8241   2.361   6.752   8.046 -0.5799 -0.6764  1.2812
   78CHL1  H24B 8242   2.222   6.848   8.037  1.0470  0.8929  2.4791
   78CHL1   C25 8243   2.223   6.696   8.198 -0.3653 -0.2091 -0.5376
   78CHL1   H25 8244   2.114   6.688   8.218 -0.1815 -0.4418  0.4384
   78CHL1   C26 8245   2.266   6.552   8.233 -0.2253 -0.3894 -0.0238
   78CHL1  H26A 8246   2.242   6.472   8.159  1.6939 -1.1671  0.1248
   78CHL1  H26B 8247   2.374   6.541   8.257 -0.1274  3.2845  1.8082
   78CHL1  H26C 8248   2.211   6.524   8.325  2.5852 -0.9420  1.6112
   78CHL1   C27 8249   2.291   6.780   8.298 -0.2807 -0.1283 -0.5810
   78CHL1  H27A 8250   2.400   6.759   8.299 -0.1718  0.3923  0.2906
   78CHL1  H27B 8251   2.283   6.883   8.256 -2.4048 -0.2588 -0.6022
   78CHL1  H27C 8252   2.252   6.781   8.402  3.0018  2.3058  0.8308
   79CHL1    C3 8253   0.318   0.179   6.982  0.5016  0.4262 -0.0010
   79CHL1    H3 8254   0.422   0.215   6.970  0.6515  0.4902  1.3549
   79CHL1    O3 8255   0.276   0.150   6.854 -0.1252 -0.1023  0.3815
   79CHL1   H3' 8256   0.269   0.238   6.816  0.7499  0.7351  2.0577
   79CHL1    C4 8257   0.317   0.057   7.078 -0.8609 -0.7303 -0.3252
   79CHL1   H4A 8258   0.214   0.014   7.079 -1.0411 -0.3142  0.6927
   79CHL1   H4B 8259   0.383  -0.022   7.036 -1.5402 -1.6330  0.2561
   79CHL1    C5 8260   0.348   0.099   7.222  0.3792  0.5340  0.8117
   79CHL1    C6 8261   0.454   0.043   7.281  0.1456 -0.0804  0.3840
   79CHL1    H6 8262   0.510  -0.028   7.218  0.4308  1.7353 -1.5191
   79CHL1    C7 8263   0.490   0.060   7.428 -0.5859 -0.8958  0.1555
   79CHL1   H7A 8264   0.525  -0.037   7.470  2.6622 -1.1839 -2.7739
   79CHL1   H7B 8265   0.576   0.129   7.415 -1.4148 -0.2258 -2.1574
   79CHL1    C8 8266   0.379   0.133   7.508 -0.5983 -0.0761  0.2906
   79CHL1    H8 8267   0.294   0.062   7.520 -0.5274  0.0021  1.3517
   79CHL1   C14 8268   0.441   0.192   7.636 -0.1085  0.4695 -0.0755
   79CHL1   H14 8269   0.520   0.263   7.601  0.3767  0.3191  0.6732
   79CHL1   C15 8270   0.506   0.094   7.737  0.7094  0.8745 -0.3542
   79CHL1  H15A 8271   0.450  -0.001   7.724  2.7461 -0.7479  1.7578
   79CHL1  H15B 8272   0.611   0.074   7.708  1.2245 -0.1894  1.9995
   79CHL1   C16 8273   0.494   0.155   7.872 -0.5613  0.8992  0.7906
   79CHL1  H16A 8274   0.437   0.093   7.945  0.7702 -0.0647  1.0499
   79CHL1  H16B 8275   0.598   0.176   7.907 -0.5887  2.4118  0.0706
   79CHL1   C17 8276   0.413   0.283   7.858 -0.2173 -0.3079 -0.3448
   79CHL1   H17 8277   0.486   0.367   7.847 -0.9614  0.4023  0.0385
   79CHL1   C13 8278   0.342   0.265   7.727 -0.1953  0.1099 -0.3023
   79CHL1   C18 8279   0.218   0.173   7.758  0.5716  0.4115 -0.2531
   79CHL1  H18A 8280   0.249   0.079   7.808  1.7591  0.4247 -0.9202
   79CHL1  H18B 8281   0.140   0.227   7.815 -1.0582  0.0836 -2.0681
   79CHL1  H18C 8282   0.166   0.142   7.665 -2.1768 -0.6043  1.4824
   79CHL1   C12 8283   0.303   0.386   7.644  0.2512 -0.0720  0.0353
   79CHL1  H12A 8284   0.231   0.449   7.699  0.9430  2.0955 -1.3940
   79CHL1  H12B 8285   0.391   0.452   7.627  1.9862 -1.6524  2.1127
   79CHL1   C11 8286   0.237   0.345   7.511 -0.3215 -0.7896  0.1010
   79CHL1  H11A 8287   0.130   0.320   7.530 -1.0192  0.5267 -1.7627
   79CHL1  H11B 8288   0.233   0.435   7.446 -0.5758 -1.2936 -0.5980
   79CHL1    C9 8289   0.317   0.249   7.426  0.1185  0.5881  0.4122
   79CHL1    H9 8290   0.406   0.314   7.408 -0.0797  2.0444  3.7977
   79CHL1   C10 8291   0.257   0.210   7.287 -0.1527  0.7551 -0.0933
   79CHL1   C19 8292   0.111   0.150   7.309  0.1958 -0.1829  0.7831
   79CHL1  H19A 8293   0.036   0.222   7.347 -0.9673 -0.3031 -1.1613
   79CHL1  H19B 8294   0.075   0.104   7.215 -0.3184 -0.8991  1.3211
   79CHL1  H19C 8295   0.118   0.081   7.395  0.6643  0.2589  1.1074
   79CHL1    C1 8296   0.255   0.324   7.180 -0.1139 -0.4828 -0.4112
   79CHL1   H1A 8297   0.180   0.400   7.210  0.1068 -0.3162 -0.2798
   79CHL1   H1B 8298   0.355   0.373   7.170 -0.5518  1.0858  1.9333
   79CHL1    C2 8299   0.224   0.286   7.029  0.4525 -1.4137 -0.5047
   79CHL1   H2A 8300   0.240   0.376   6.967 -0.7651 -1.2904 -0.6658
   79CHL1   H2B 8301   0.114   0.271   7.029 -0.1419  2.0609  0.5835
   79CHL1   C20 8302   0.333   0.301   7.998  0.7408 -0.0618 -0.6110
   79CHL1   H20 8303   0.268   0.215   8.024 -3.3108  3.0672  0.7960
   79CHL1   C21 8304   0.234   0.420   7.998  0.1116  0.0991 -0.5958
   79CHL1  H21A 8305   0.140   0.399   7.943 -0.2446 -1.6928  0.5979
   79CHL1  H21B 8306   0.285   0.508   7.955  0.1699  0.2734 -0.1801
   79CHL1  H21C 8307   0.197   0.449   8.099 -0.5493  1.0626 -1.1001
   79CHL1   C22 8308   0.421   0.335   8.122 -0.9865 -0.3124  0.3865
   79CHL1  H22A 8309   0.526   0.319   8.090 -0.5009 -0.0239  1.7488
   79CHL1  H22B 8310   0.411   0.444   8.142 -1.1414 -0.1126 -0.7315
   79CHL1   C23 8311   0.382   0.267   8.256 -0.1569 -0.1962 -0.2945
   79CHL1  H23A 8312   0.278   0.302   8.276 -0.3610  0.8507 -2.7491
   79CHL1  H23B 8313   0.381   0.156   8.257  0.8949 -0.2276  2.3757
   79CHL1   C24 8314   0.480   0.314   8.369  0.2533  0.9362  0.5712
   79CHL1  H24A 8315   0.583   0.305   8.330 -0.1322 -0.1480 -0.2501
   79CHL1  H24B 8316   0.454   0.421   8.385 -1.7806  1.0977 -2.9015
   79CHL1   C25 8317   0.454   0.217   8.492 -0.0822  0.1326 -0.0249
   79CHL1   H25 8318   0.438   0.115   8.452 -2.0951  0.8464 -1.1903
   79CHL1   C26 8319   0.579   0.223   8.585 -0.5088  0.0353 -0.0063
   79CHL1  H26A 8320   0.547   0.188   8.685 -2.4472  0.2086 -0.5315
   79CHL1  H26B 8321   0.656   0.158   8.538  1.2818  2.0573 -0.0337
   79CHL1  H26C 8322   0.612   0.329   8.571  1.9280 -0.7290 -0.4340
   79CHL1   C27 8323   0.322   0.237   8.567 -0.4128  0.2630 -0.0180
   79CHL1  H27A 8324   0.325   0.164   8.651 -0.1331 -3.0572 -2.7261
   79CHL1  H27B 8325   0.299   0.335   8.615 -3.6085 -1.4849  2.4043
   79CHL1  H27C 8326   0.236   0.212   8.501 -2.5305  1.4082  2.1321
   80CHL1    C3 8327   3.055   4.449   6.901 -0.1909  0.0747 -0.1667
   80CHL1    H3 8328   3.143   4.477   6.962 -2.0274  0.2067  2.6023
   80CHL1    O3 8329   3.089   4.421   6.768  0.0805  0.3063  0.5041
   80CHL1   H3' 8330   3.007   4.395   6.725  0.8197 -1.8928  0.3003
   80CHL1    C4 8331   2.995   4.320   6.966  0.0120 -0.1834 -1.0551
   80CHL1   H4A 8332   2.906   4.297   6.904 -1.2430 -0.0366  0.6254
   80CHL1   H4B 8333   3.074   4.243   6.952  0.9792  0.8168 -1.2408
   80CHL1    C5 8334   2.960   4.336   7.118 -0.0986 -0.2427  0.4944
   80CHL1    C6 8335   3.020   4.260   7.212 -0.1335 -0.1784  0.3012
   80CHL1    H6 8336   3.087   4.176   7.190  0.5100  0.3407  0.2563
   80CHL1    C7 8337   2.984   4.267   7.355  0.3018  0.0344  0.2382
   80CHL1   H7A 8338   2.987   4.170   7.409 -0.0630  0.1605  0.4916
   80CHL1   H7B 8339   3.060   4.334   7.401  0.2302 -0.5260  1.2004
   80CHL1    C8 8340   2.847   4.342   7.375  0.5495  0.1970 -0.7747
   80CHL1    H8 8341   2.771   4.265   7.347  1.1107 -1.1713  1.2122
   80CHL1   C14 8342   2.842   4.372   7.523 -0.1519  0.9313 -0.1189
   80CHL1   H14 8343   2.917   4.450   7.548 -0.4463  0.7845  1.2966
   80CHL1   C15 8344   2.862   4.258   7.618  0.4085 -0.4196 -0.6173
   80CHL1  H15A 8345   2.824   4.161   7.579 -1.4752  1.2073 -3.1730
   80CHL1  H15B 8346   2.971   4.243   7.638  0.6858  1.6823 -0.3330
   80CHL1   C16 8347   2.788   4.298   7.748  0.0908  0.1171 -0.5072
   80CHL1  H16A 8348   2.720   4.214   7.772 -1.1933  1.6195  1.4296
   80CHL1  H16B 8349   2.861   4.305   7.831 -0.2482  1.0034 -0.2689
   80CHL1   C17 8350   2.713   4.431   7.714  0.7223 -0.1786  0.0496
   80CHL1   H17 8351   2.781   4.516   7.741  0.4727  0.5906 -1.6351
   80CHL1   C13 8352   2.704   4.440   7.563 -0.6273 -0.6856  0.1283
   80CHL1   C18 8353   2.584   4.361   7.514 -0.0562 -0.5164  0.8131
   80CHL1  H18A 8354   2.566   4.270   7.575  0.6582 -1.5142 -0.3979
   80CHL1  H18B 8355   2.491   4.418   7.533 -1.0415 -1.4379 -0.9823
   80CHL1  H18C 8356   2.583   4.323   7.409 -3.5926 -0.4171  0.6851
   80CHL1   C12 8357   2.701   4.578   7.492 -0.2039  0.2747  0.9497
   80CHL1  H12A 8358   2.606   4.628   7.522 -0.0921 -0.2865  2.2670
   80CHL1  H12B 8359   2.795   4.628   7.524  1.1948  0.0946 -2.4338
   80CHL1   C11 8360   2.718   4.563   7.333  0.4828  0.5175 -0.7189
   80CHL1  H11A 8361   2.621   4.526   7.295 -0.6649  1.5988  1.0216
   80CHL1  H11B 8362   2.732   4.663   7.287 -1.1596  1.1254  0.0316
   80CHL1    C9 8363   2.836   4.477   7.295  0.0057 -0.3450 -0.6586
   80CHL1    H9 8364   2.920   4.542   7.330 -0.9031 -0.2429  1.4795
   80CHL1   C10 8365   2.858   4.447   7.141  0.5916  0.8845 -0.3123
   80CHL1   C19 8366   2.728   4.397   7.079  1.2251  0.1983 -0.2718
   80CHL1  H19A 8367   2.736   4.354   6.977  2.8396 -1.5032  0.5175
   80CHL1  H19B 8368   2.679   4.334   7.156 -1.0148  2.5512  0.3700
   80CHL1  H19C 8369   2.659   4.482   7.062  1.5395  0.1134 -2.2381
   80CHL1    C1 8370   2.910   4.575   7.068 -0.0042  0.2880 -0.8087
   80CHL1   H1A 8371   2.828   4.650   7.070  0.4320  0.7494 -0.0127
   80CHL1   H1B 8372   2.996   4.617   7.124  1.0189 -1.3799 -1.0589
   80CHL1    C2 8373   2.952   4.556   6.924  0.3094  0.3319 -0.2418
   80CHL1   H2A 8374   2.991   4.655   6.892  0.8264  0.8101  1.7569
   80CHL1   H2B 8375   2.863   4.535   6.862  0.7342  0.3088 -0.8515
   80CHL1   C20 8376   2.588   4.452   7.805  0.3029 -0.5248 -0.3358
   80CHL1   H20 8377   2.511   4.378   7.776  2.0867 -2.2248 -1.0045
   80CHL1   C21 8378   2.528   4.595   7.786  1.1172  0.1564 -0.5588
   80CHL1  H21A 8379   2.585   4.677   7.834 -1.0555  0.5936  1.4517
   80CHL1  H21B 8380   2.429   4.590   7.836  1.4522 -0.5767  0.0419
   80CHL1  H21C 8381   2.506   4.621   7.680  0.8708 -0.6749 -0.7211
   80CHL1   C22 8382   2.629   4.447   7.956  0.1936 -0.6008  0.2406
   80CHL1  H22A 8383   2.656   4.344   7.989 -0.3443 -0.5882  0.7266
   80CHL1  H22B 8384   2.723   4.504   7.965 -0.8746  1.6476 -1.7665
   80CHL1   C23 8385   2.527   4.483   8.069 -0.1798  0.2571  0.4888
   80CHL1  H23A 8386   2.517   4.594   8.059  1.5933  0.4882  0.9711
   80CHL1  H23B 8387   2.426   4.445   8.044 -0.1942 -0.4110  1.5485
   80CHL1   C24 8388   2.564   4.452   8.216  0.0606  0.8045  0.6885
   80CHL1  H24A 8389   2.675   4.457   8.217  0.1903 -0.6612 -0.8961
   80CHL1  H24B 8390   2.521   4.522   8.291  0.8025  1.0072  0.9320
   80CHL1   C25 8391   2.526   4.303   8.259  0.1575  0.4944  0.1431
   80CHL1   H25 8392   2.587   4.233   8.198  2.0556 -0.0329  2.4710
   80CHL1   C26 8393   2.569   4.278   8.401  0.3290  0.0565  0.8497
   80CHL1  H26A 8394   2.528   4.359   8.465 -1.9785 -1.6914  1.7708
   80CHL1  H26B 8395   2.523   4.181   8.432  0.7138 -0.0146  1.2179
   80CHL1  H26C 8396   2.678   4.262   8.416  0.7825  0.5137 -1.6554
   80CHL1   C27 8397   2.380   4.272   8.242 -0.5329  0.3727  0.2197
   80CHL1  H27A 8398   2.350   4.224   8.146 -0.2962  0.1388  0.2581
   80CHL1  H27B 8399   2.344   4.216   8.331  0.9585 -0.3120  0.4359
   80CHL1  H27C 8400   2.326   4.368   8.244 -1.4757 -0.1519  0.3012
   81CHL1    C3 8401   2.075   1.189   6.715  0.3052 -0.3522 -0.9550
   81CHL1    H3 8402   2.058   1.299   6.711  3.0614  0.1083 -3.2354
   81CHL1    O3 8403   2.073   1.144   6.585  0.0699 -0.4161 -0.0809
   81CHL1   H3' 8404   2.125   1.063   6.579 -1.0422 -1.1164 -0.6107
   81CHL1    C4 8405   2.216   1.165   6.770  0.0755  0.1739 -1.0784
   81CHL1   H4A 8406   2.233   1.056   6.760  0.0477  0.2065 -1.4933
   81CHL1   H4B 8407   2.287   1.223   6.706  1.7327  1.0085  1.3374
   81CHL1    C5 8408   2.225   1.197   6.918  0.4203 -0.2437  0.8659
   81CHL1    C6 8409   2.311   1.282   6.963 -0.1333  0.1348 -0.0108
   81CHL1    H6 8410   2.380   1.331   6.892  0.3579 -1.2280 -0.5105
   81CHL1    C7 8411   2.319   1.328   7.107 -0.2725 -0.1334  0.3354
   81CHL1   H7A 8412   2.424   1.326   7.142  0.4081 -0.5594 -1.6145
   81CHL1   H7B 8413   2.288   1.435   7.110  1.3090  0.4693 -2.0504
   81CHL1    C8 8414   2.237   1.244   7.204  0.9309  0.7419 -0.1284
   81CHL1    H8 8415   2.313   1.168   7.233  1.4500  0.8982 -1.0666
   81CHL1   C14 8416   2.209   1.311   7.334  0.5733  0.0950  0.5468
   81CHL1   H14 8417   2.140   1.393   7.305  1.1902  0.0642 -1.1215
   81CHL1   C15 8418   2.327   1.379   7.399 -0.2124 -0.5793 -0.3719
   81CHL1  H15A 8419   2.405   1.300   7.407  2.2600  1.7479  0.2431
   81CHL1  H15B 8420   2.366   1.464   7.339  2.4138 -0.9527  0.6531
   81CHL1   C16 8421   2.278   1.411   7.541  0.5510 -0.3634  0.0301
   81CHL1  H16A 8422   2.358   1.369   7.604  0.4613 -3.2391 -1.5686
   81CHL1  H16B 8423   2.253   1.519   7.544 -0.9212 -0.5776 -2.0381
   81CHL1   C17 8424   2.140   1.341   7.559 -0.3225 -0.3273 -0.3358
   81CHL1   H17 8425   2.066   1.422   7.541  0.8381  1.5296  2.6006
   81CHL1   C13 8426   2.132   1.232   7.444  0.8479  0.3651  0.5268
   81CHL1   C18 8427   2.214   1.101   7.486 -0.3865 -0.4373  0.9906
   81CHL1  H18A 8428   2.227   1.034   7.399 -1.5322  1.1485 -0.4585
   81CHL1  H18B 8429   2.318   1.129   7.515  0.3150 -0.3044 -1.4561
   81CHL1  H18C 8430   2.164   1.041   7.565 -0.3501 -1.1497  0.4816
   81CHL1   C12 8431   1.995   1.193   7.381 -0.0345 -0.7532  0.1091
   81CHL1  H12A 8432   1.941   1.134   7.457 -0.2885 -2.5616 -1.4021
   81CHL1  H12B 8433   1.938   1.287   7.363  0.2520 -0.6279 -0.1567
   81CHL1   C11 8434   2.009   1.130   7.249  0.0628  0.6941  0.3183
   81CHL1  H11A 8435   2.037   1.024   7.263 -2.4392 -0.1593 -0.4355
   81CHL1  H11B 8436   1.906   1.111   7.210 -0.0866 -0.8144  1.3464
   81CHL1    C9 8437   2.104   1.202   7.146 -0.1394  0.0085  0.2195
   81CHL1    H9 8438   2.044   1.295   7.131 -2.2411 -1.5018 -1.3701
   81CHL1   C10 8439   2.116   1.132   7.004 -0.2801  1.0560 -1.0155
   81CHL1   C19 8440   2.157   0.977   7.020  0.5780 -0.2705  0.3293
   81CHL1  H19A 8441   2.157   0.930   6.919 -0.2560  0.8811 -0.2442
   81CHL1  H19B 8442   2.257   0.967   7.068 -0.0413 -2.1421  1.3106
   81CHL1  H19C 8443   2.092   0.922   7.091  2.4987  1.5084  3.7228
   81CHL1    C1 8444   1.970   1.140   6.938 -0.1008  0.2872 -0.2727
   81CHL1   H1A 8445   1.905   1.059   6.977  0.8208 -0.4175 -0.1937
   81CHL1   H1B 8446   1.926   1.239   6.966 -2.3970 -0.9089  0.6594
   81CHL1    C2 8447   1.978   1.111   6.792 -0.1037  0.8394  0.1856
   81CHL1   H2A 8448   1.876   1.116   6.748 -0.1346  1.8245  0.3527
   81CHL1   H2B 8449   1.997   1.001   6.795  0.5838  0.9821  2.1448
   81CHL1   C20 8450   2.103   1.297   7.705 -0.3205  0.1253  0.0576
   81CHL1   H20 8451   2.180   1.223   7.736  1.6233  1.9781 -0.0270
   81CHL1   C21 8452   1.972   1.227   7.709  0.3576  1.1376  0.5594
   81CHL1  H21A 8453   1.977   1.128   7.660 -3.0667  0.8759  0.4999
   81CHL1  H21B 8454   1.898   1.298   7.667 -0.4948  0.6819  1.2502
   81CHL1  H21C 8455   1.943   1.202   7.814  1.2863 -1.5921  0.2339
   81CHL1   C22 8456   2.109   1.415   7.802 -0.5079  0.1292  0.3279
   81CHL1  H22A 8457   2.204   1.470   7.786  1.2722 -2.5269  0.9794
   81CHL1  H22B 8458   2.027   1.483   7.774 -0.9911  0.2021  1.8261
   81CHL1   C23 8459   2.091   1.389   7.953  0.3589  0.0172  0.2777
   81CHL1  H23A 8460   1.984   1.364   7.971  0.6084 -2.1100 -0.8347
   81CHL1  H23B 8461   2.162   1.307   7.980  1.1302  0.4724 -0.3452
   81CHL1   C24 8462   2.127   1.521   8.032 -0.4079  0.2951  0.8826
   81CHL1  H24A 8463   2.220   1.559   7.984  0.3454 -0.3193  1.8283
   81CHL1  H24B 8464   2.047   1.595   8.011 -0.0127  0.3779 -0.4072
   81CHL1   C25 8465   2.155   1.504   8.180 -0.4737 -0.4593 -0.3667
   81CHL1   H25 8466   2.064   1.457   8.225 -0.4670  1.1610  1.5037
   81CHL1   C26 8467   2.269   1.403   8.206  0.8480 -0.7414 -0.6711
   81CHL1  H26A 8468   2.356   1.416   8.137 -0.7868 -1.9880 -3.1129
   81CHL1  H26B 8469   2.299   1.415   8.312 -0.9562  1.8612 -0.3664
   81CHL1  H26C 8470   2.224   1.303   8.189 -1.6665  0.6497 -2.8815
   81CHL1   C27 8471   2.184   1.648   8.246  0.0654  0.1303  0.2067
   81CHL1  H27A 8472   2.214   1.636   8.353 -0.8371 -1.3568  0.3049
   81CHL1  H27B 8473   2.264   1.703   8.191  1.0192 -1.1517  0.2785
   81CHL1  H27C 8474   2.093   1.712   8.246  0.0378  0.1315  1.6439
   82CHL1    C3 8475   3.060   3.928   6.888 -0.0538  1.7310 -0.6074
   82CHL1    H3 8476   3.094   4.003   6.963 -3.0102  1.9077  0.6701
   82CHL1    O3 8477   3.150   3.905   6.777 -0.1906  0.2788  0.3589
   82CHL1   H3' 8478   3.113   3.831   6.728  2.8357 -1.7162  0.8321
   82CHL1    C4 8479   3.051   3.792   6.947  0.2138 -0.5884 -0.1001
   82CHL1   H4A 8480   3.003   3.722   6.876  0.8242  1.2379 -2.4611
   82CHL1   H4B 8481   3.158   3.764   6.963  1.4970  1.6829 -3.6495
   82CHL1    C5 8482   2.975   3.798   7.077 -0.0089  0.6716  0.3487
   82CHL1    C6 8483   3.038   3.776   7.197 -0.4260 -0.8168  0.3977
   82CHL1    H6 8484   3.142   3.744   7.183  0.4519  1.8101  0.3012
   82CHL1    C7 8485   2.976   3.779   7.329  0.5346 -0.1761 -0.5392
   82CHL1   H7A 8486   2.989   3.686   7.388 -2.1175  0.2493  0.8558
   82CHL1   H7B 8487   3.012   3.865   7.391 -0.6883 -0.6710  0.9093
   82CHL1    C8 8488   2.820   3.790   7.310  0.7147 -0.0954 -0.5350
   82CHL1    H8 8489   2.779   3.690   7.287  1.3898 -0.0709 -1.9349
   82CHL1   C14 8490   2.750   3.831   7.441 -0.2299  0.2792 -0.0754
   82CHL1   H14 8491   2.783   3.932   7.473  0.3961 -0.1526  0.7029
   82CHL1   C15 8492   2.764   3.735   7.556 -0.5669 -0.4224  0.3046
   82CHL1  H15A 8493   2.733   3.630   7.540  0.1072 -0.7943  1.3440
   82CHL1  H15B 8494   2.868   3.714   7.589 -0.7897 -1.7462  0.1947
   82CHL1   C16 8495   2.663   3.790   7.662  0.3127 -0.5552 -0.1847
   82CHL1  H16A 8496   2.593   3.706   7.686  1.2762 -1.4318 -0.3569
   82CHL1  H16B 8497   2.715   3.826   7.754  1.6800 -1.5350 -0.5422
   82CHL1   C17 8498   2.572   3.887   7.587  0.7593  0.5673  0.5399
   82CHL1   H17 8499   2.605   3.993   7.600  0.4827  0.8510 -0.8891
   82CHL1   C13 8500   2.597   3.853   7.434  0.3892 -0.3452  0.3849
   82CHL1   C18 8501   2.515   3.723   7.397 -0.1021 -0.0878  0.2836
   82CHL1  H18A 8502   2.545   3.676   7.301 -0.8194 -2.8578  1.2994
   82CHL1  H18B 8503   2.526   3.635   7.465  0.9576  1.9823  2.9768
   82CHL1  H18C 8504   2.407   3.746   7.390 -0.0473  0.0442 -0.1499
   82CHL1   C12 8505   2.570   3.972   7.335 -0.2294  0.6745 -0.4467
   82CHL1  H12A 8506   2.460   3.988   7.332 -0.1063  2.4902  1.6581
   82CHL1  H12B 8507   2.611   4.073   7.356 -1.8388  1.3458 -0.3603
   82CHL1   C11 8508   2.619   3.924   7.196  0.1689 -0.1517  0.0085
   82CHL1  H11A 8509   2.562   3.833   7.168  0.4554 -0.2470 -0.2704
   82CHL1  H11B 8510   2.595   3.994   7.113  2.5658 -0.6262 -1.1797
   82CHL1    C9 8511   2.771   3.890   7.196 -0.4471  0.6755 -0.1407
   82CHL1    H9 8512   2.818   3.985   7.230  1.3779  0.2147 -1.3023
   82CHL1   C10 8513   2.829   3.845   7.061 -0.2586 -0.3748  0.1012
   82CHL1   C19 8514   2.745   3.723   6.994 -0.1571  0.2622  0.1835
   82CHL1  H19A 8515   2.759   3.644   7.071  0.9571 -1.3768 -1.6049
   82CHL1  H19B 8516   2.636   3.742   6.983 -0.3432 -0.2996  0.9181
   82CHL1  H19C 8517   2.791   3.697   6.896  1.2653  2.1706  0.2888
   82CHL1    C1 8518   2.819   3.968   6.966 -0.3557 -0.1678  0.0774
   82CHL1   H1A 8519   2.716   3.981   6.925 -0.9211 -1.9489  0.8475
   82CHL1   H1B 8520   2.854   4.059   7.019  2.9536  1.9027 -4.8492
   82CHL1    C2 8521   2.916   3.970   6.846  0.1788  0.9747  0.1656
   82CHL1   H2A 8522   2.917   4.069   6.797  1.7060  0.0413 -1.8460
   82CHL1   H2B 8523   2.872   3.898   6.773 -1.9723  0.4782  1.8498
   82CHL1   C20 8524   2.422   3.899   7.623  0.0131  0.2877  0.7098
   82CHL1   H20 8525   2.374   3.949   7.536 -1.6916  1.4266  2.2327
   82CHL1   C21 8526   2.402   4.005   7.737 -0.0590 -0.1971 -0.9949
   82CHL1  H21A 8527   2.296   4.034   7.720 -0.4020 -0.9550 -0.2068
   82CHL1  H21B 8528   2.469   4.092   7.725 -1.2354  1.0410  0.9307
   82CHL1  H21C 8529   2.411   3.955   7.836 -1.7669  1.6348  0.1366
   82CHL1   C22 8530   2.335   3.771   7.651 -0.4568  0.1391  0.8454
   82CHL1  H22A 8531   2.366   3.687   7.586  0.3866  1.4319 -0.4932
   82CHL1  H22B 8532   2.374   3.742   7.751  2.0054 -1.4657 -0.4930
   82CHL1   C23 8533   2.184   3.795   7.643  0.3018  0.4136  0.7183
   82CHL1  H23A 8534   2.157   3.856   7.733 -1.6730  0.9137 -0.1583
   82CHL1  H23B 8535   2.160   3.855   7.553  1.1472 -1.0192 -0.5101
   82CHL1   C24 8536   2.109   3.663   7.639 -0.1762  0.7335 -0.8440
   82CHL1  H24A 8537   2.000   3.683   7.645 -0.2101  0.4506 -0.4332
   82CHL1  H24B 8538   2.134   3.598   7.553  1.7968  0.1224  0.1265
   82CHL1   C25 8539   2.135   3.562   7.760  0.2193 -0.3268  0.0633
   82CHL1   H25 8540   2.241   3.531   7.751  0.8880  2.2698 -2.6205
   82CHL1   C26 8541   2.101   3.623   7.897 -1.1861 -0.3399 -0.3711
   82CHL1  H26A 8542   1.991   3.631   7.901 -1.2058  0.0513 -1.4657
   82CHL1  H26B 8543   2.126   3.546   7.973 -0.9208 -0.1041 -0.2169
   82CHL1  H26C 8544   2.156   3.716   7.921 -2.9979  0.4751  0.8420
   82CHL1   C27 8545   2.059   3.431   7.724  0.0041  0.2725 -0.5429
   82CHL1  H27A 8546   2.085   3.402   7.620  0.6531  0.2619 -0.3866
   82CHL1  H27B 8547   2.086   3.355   7.801 -0.6744  0.0767 -0.4960
   82CHL1  H27C 8548   1.951   3.455   7.732 -0.4808 -1.6725 -0.8527
   83CHL1    C3 8549   5.189   4.228   7.001 -0.8062  0.9138 -0.1383
   83CHL1    H3 8550   5.129   4.141   7.035  0.2580  0.1695 -0.1248
   83CHL1    O3 8551   5.179   4.229   6.863  0.1209  0.1445  0.1773
   83CHL1   H3' 8552   5.209   4.313   6.828 -1.2601 -0.5601 -2.9805
   83CHL1    C4 8553   5.128   4.354   7.066  0.4466  0.1618  0.3170
   83CHL1   H4A 8554   5.171   4.448   7.027 -1.1296  0.9269  0.3680
   83CHL1   H4B 8555   5.023   4.344   7.033  0.8003 -1.6062 -0.3941
   83CHL1    C5 8556   5.149   4.349   7.217 -0.5114 -0.0501  0.2198
   83CHL1    C6 8557   5.044   4.367   7.297  0.0323  0.2446  0.3364
   83CHL1    H6 8558   4.945   4.382   7.250  0.3001  1.4386  0.1054
   83CHL1    C7 8559   5.047   4.354   7.446  0.1981 -0.6382 -0.3635
   83CHL1   H7A 8560   4.989   4.435   7.495  1.5601  0.6963 -0.8641
   83CHL1   H7B 8561   5.008   4.253   7.471 -0.4959 -0.0807  0.9020
   83CHL1    C8 8562   5.194   4.369   7.507 -0.0869  1.0474  0.1867
   83CHL1    H8 8563   5.221   4.477   7.505  0.2347  1.0089  1.5837
   83CHL1   C14 8564   5.201   4.327   7.652 -0.0741  0.4302  0.4780
   83CHL1   H14 8565   5.174   4.219   7.653  1.0721  0.1230 -0.3333
   83CHL1   C15 8566   5.117   4.381   7.759  0.0196  0.2054 -0.2229
   83CHL1  H15A 8567   5.094   4.489   7.744 -3.4928 -0.2645  0.9229
   83CHL1  H15B 8568   5.024   4.322   7.771  0.1932  0.3836  2.6263
   83CHL1   C16 8569   5.197   4.361   7.891  0.5694  0.5177  0.3512
   83CHL1  H16A 8570   5.217   4.458   7.941  3.7696 -0.6071  1.5035
   83CHL1  H16B 8571   5.151   4.296   7.969  3.3727 -1.3912  0.5504
   83CHL1   C17 8572   5.318   4.277   7.856 -0.0485  0.1625  0.0877
   83CHL1   H17 8573   5.274   4.175   7.849  2.3148 -1.1174  2.2969
   83CHL1   C13 8574   5.343   4.323   7.708  0.4872 -0.0497 -0.3261
   83CHL1   C18 8575   5.396   4.467   7.713 -0.3004 -0.0030  0.0451
   83CHL1  H18A 8576   5.501   4.469   7.750  1.1723  0.1493 -3.6971
   83CHL1  H18B 8577   5.400   4.525   7.618  1.1141 -2.5694 -1.5746
   83CHL1  H18C 8578   5.336   4.539   7.773  0.9943  0.2351  1.0998
   83CHL1   C12 8579   5.432   4.236   7.628 -0.2743 -0.4988  0.4557
   83CHL1  H12A 8580   5.532   4.230   7.675  0.7432  0.0366 -1.5230
   83CHL1  H12B 8581   5.402   4.129   7.637  3.1905 -1.8079 -1.4531
   83CHL1   C11 8582   5.435   4.281   7.483 -0.4494  0.7095 -0.3196
   83CHL1  H11A 8583   5.471   4.386   7.471 -3.5790  1.7624 -1.6160
   83CHL1  H11B 8584   5.508   4.220   7.426  1.5700  1.3691  1.4238
   83CHL1    C9 8585   5.294   4.289   7.416 -0.1992  0.3220 -0.0746
   83CHL1    H9 8586   5.265   4.182   7.417  0.7359  0.0468 -0.6906
   83CHL1   C10 8587   5.290   4.325   7.269  0.2828  0.4912 -0.0312
   83CHL1   C19 8588   5.368   4.452   7.243  0.2231 -0.6709  0.6752
   83CHL1  H19A 8589   5.474   4.447   7.275  0.5742  1.0428 -0.0944
   83CHL1  H19B 8590   5.369   4.467   7.133  1.1124  1.2140  0.9027
   83CHL1  H19C 8591   5.312   4.542   7.278 -0.1171  1.9031 -5.2508
   83CHL1    C1 8592   5.355   4.197   7.193  0.4073  0.1019 -0.6841
   83CHL1   H1A 8593   5.463   4.185   7.214 -0.0367  0.1801  1.9880
   83CHL1   H1B 8594   5.303   4.103   7.222 -0.6569  1.1966  1.1983
   83CHL1    C2 8595   5.341   4.204   7.045  0.2441  0.7638  0.2391
   83CHL1   H2A 8596   5.381   4.115   6.993  0.2486  0.4815  0.7179
   83CHL1   H2B 8597   5.403   4.285   7.000 -0.5693  2.4660  2.0232
   83CHL1   C20 8598   5.437   4.264   7.946 -0.3553  0.3181 -0.6817
   83CHL1   H20 8599   5.528   4.309   7.899  0.1986 -1.2183 -1.1431
   83CHL1   C21 8600   5.496   4.121   7.962  0.2410 -0.2632  0.6624
   83CHL1  H21A 8601   5.508   4.073   7.862  1.3250 -1.5635  1.3733
   83CHL1  H21B 8602   5.421   4.064   8.021  0.6676  1.2463  2.7719
   83CHL1  H21C 8603   5.590   4.125   8.020  0.2240  1.4710  0.6135
   83CHL1   C22 8604   5.412   4.335   8.080 -0.4462  0.5084 -0.3212
   83CHL1  H22A 8605   5.396   4.445   8.073 -0.0019  0.6013  0.0831
   83CHL1  H22B 8606   5.324   4.301   8.139  0.0334  1.1364  0.7796
   83CHL1   C23 8607   5.524   4.320   8.185 -0.3571 -0.2949 -0.2202
   83CHL1  H23A 8608   5.557   4.217   8.214  0.3947  0.1364  0.4846
   83CHL1  H23B 8609   5.616   4.352   8.131  0.4240 -0.6390  0.8757
   83CHL1   C24 8610   5.487   4.397   8.312 -0.5416  0.3463 -0.0303
   83CHL1  H24A 8611   5.461   4.504   8.296 -0.1904  0.2163 -1.6708
   83CHL1  H24B 8612   5.403   4.345   8.363  2.0934 -2.1334  2.1018
   83CHL1   C25 8613   5.605   4.397   8.418 -0.3974 -0.4496  0.7607
   83CHL1   H25 8614   5.635   4.291   8.430 -1.6620 -1.0163 -0.7235
   83CHL1   C26 8615   5.737   4.474   8.370  0.2809 -0.1322  0.0152
   83CHL1  H26A 8616   5.788   4.412   8.294  1.9015  0.4453  0.6014
   83CHL1  H26B 8617   5.711   4.576   8.335 -0.9396 -0.1741  0.7144
   83CHL1  H26C 8618   5.802   4.491   8.459  0.3932 -0.1453 -0.0648
   83CHL1   C27 8619   5.561   4.453   8.550  0.1959 -0.5631  0.1642
   83CHL1  H27A 8620   5.456   4.432   8.579 -0.6274  0.9825 -1.5342
   83CHL1  H27B 8621   5.629   4.413   8.628  1.8777 -0.9843 -1.4599
   83CHL1  H27C 8622   5.581   4.561   8.534  2.1961 -1.1032 -1.2903
   84CHL1    C3 8623   0.394   1.774   6.896 -0.3358 -0.0295 -0.3395
   84CHL1    H3 8624   0.311   1.840   6.930  0.1687  1.0502 -1.1490
   84CHL1    O3 8625   0.408   1.783   6.755 -0.0174 -0.3525 -0.1900
   84CHL1   H3' 8626   0.448   1.870   6.748  0.1440 -0.4082  0.0255
   84CHL1    C4 8627   0.519   1.833   6.969 -0.5571  0.1569  0.9864
   84CHL1   H4A 8628   0.615   1.789   6.935 -1.6054 -1.0132 -0.6293
   84CHL1   H4B 8629   0.523   1.942   6.947 -0.3418 -0.1782 -0.7587
   84CHL1    C5 8630   0.507   1.808   7.118 -0.5794  0.2061 -0.1495
   84CHL1    C6 8631   0.527   1.915   7.203  0.3481 -0.5233 -0.2059
   84CHL1    H6 8632   0.560   2.010   7.158  1.0299 -2.3818 -4.0518
   84CHL1    C7 8633   0.535   1.903   7.348 -0.1627  0.0036  0.0449
   84CHL1   H7A 8634   0.628   1.952   7.381  0.1022 -1.3795  1.4888
   84CHL1   H7B 8635   0.453   1.957   7.400 -1.0094 -2.3640  1.3286
   84CHL1    C8 8636   0.527   1.754   7.405 -0.2509 -0.0226 -0.5757
   84CHL1    H8 8637   0.632   1.718   7.411  0.1465  1.1232 -0.5066
   84CHL1   C14 8638   0.475   1.748   7.547  0.5688  0.0527 -0.1804
   84CHL1   H14 8639   0.367   1.772   7.539  0.6427  1.5239  2.1862
   84CHL1   C15 8640   0.527   1.840   7.655  0.2213  0.6113 -0.3966
   84CHL1  H15A 8641   0.638   1.837   7.648  0.1597 -3.1847 -1.9302
   84CHL1  H15B 8642   0.486   1.943   7.644 -0.5153  0.2211 -1.5466
   84CHL1   C16 8643   0.482   1.775   7.785 -0.3743 -0.1883  0.2206
   84CHL1  H16A 8644   0.569   1.762   7.853 -0.7656  1.8562  1.1683
   84CHL1  H16B 8645   0.397   1.834   7.823 -0.4734  1.1629 -1.9416
   84CHL1   C17 8646   0.434   1.628   7.752  0.2762  0.8118  0.2194
   84CHL1   H17 8647   0.323   1.632   7.742  0.4243  0.8299 -2.1972
   84CHL1   C13 8648   0.494   1.608   7.609  0.1089 -0.2654  0.0955
   84CHL1   C18 8649   0.651   1.565   7.617 -0.4831 -0.0014 -0.2230
   84CHL1  H18A 8650   0.659   1.463   7.662 -0.0038  0.1371  0.0037
   84CHL1  H18B 8651   0.707   1.573   7.521  0.5016 -0.2798  0.3101
   84CHL1  H18C 8652   0.702   1.634   7.687  0.1629  0.1540 -0.8405
   84CHL1   C12 8653   0.415   1.508   7.522 -0.0559  0.1773 -0.5755
   84CHL1  H12A 8654   0.432   1.404   7.556  1.5354  0.6233  0.1295
   84CHL1  H12B 8655   0.304   1.513   7.528 -0.0383  0.1166 -0.1621
   84CHL1   C11 8656   0.452   1.507   7.377  0.2741 -0.4320  0.2664
   84CHL1  H11A 8657   0.552   1.459   7.365  0.5953  0.5315 -1.1298
   84CHL1  H11B 8658   0.376   1.451   7.319  0.9271 -0.0542 -0.9763
   84CHL1    C9 8659   0.449   1.652   7.318 -0.1785 -0.4513  0.5916
   84CHL1    H9 8660   0.344   1.685   7.334  1.0669  2.7884  3.4030
   84CHL1   C10 8661   0.479   1.659   7.162  0.4787 -1.1012  0.0923
   84CHL1   C19 8662   0.610   1.583   7.132  0.2610  0.5507  0.3618
   84CHL1  H19A 8663   0.591   1.475   7.151  1.7169 -0.0887 -1.4939
   84CHL1  H19B 8664   0.635   1.591   7.024 -2.2181 -1.4591 -0.4527
   84CHL1  H19C 8665   0.697   1.616   7.193 -0.4028  1.2122  0.9689
   84CHL1    C1 8666   0.359   1.608   7.081  0.3030 -0.1799  0.1807
   84CHL1   H1A 8667   0.329   1.505   7.109 -3.1723  0.3400 -1.0518
   84CHL1   H1B 8668   0.264   1.663   7.101  1.0201  0.8780  0.7722
   84CHL1    C2 8669   0.367   1.629   6.927 -0.5002  0.1911 -0.5065
   84CHL1   H2A 8670   0.270   1.597   6.884 -1.2002 -0.0579  1.1633
   84CHL1   H2B 8671   0.446   1.565   6.882  0.5627  2.0457 -1.3966
   84CHL1   C20 8672   0.473   1.524   7.862 -0.0918  0.4305 -0.1313
   84CHL1   H20 8673   0.584   1.511   7.856  0.1653  2.3382 -0.0992
   84CHL1   C21 8674   0.429   1.371   7.832  0.1932 -0.7956  0.3088
   84CHL1  H21A 8675   0.483   1.310   7.907  0.9311 -0.8917 -0.2864
   84CHL1  H21B 8676   0.469   1.333   7.735  0.1658 -2.0118  0.7570
   84CHL1  H21C 8677   0.320   1.357   7.846 -0.3437 -0.2436 -2.5741
   84CHL1   C22 8678   0.435   1.569   8.003 -0.2806  0.5922  0.3354
   84CHL1  H22A 8679   0.419   1.679   8.004 -0.3197  0.6289 -1.3555
   84CHL1  H22B 8680   0.339   1.519   8.030  0.1994 -0.5234  0.0231
   84CHL1   C23 8681   0.541   1.532   8.103 -0.3339 -0.1909 -0.4135
   84CHL1  H23A 8682   0.569   1.425   8.117 -0.2779  0.0137  1.2483
   84CHL1  H23B 8683   0.627   1.598   8.079  0.9231 -1.3143  0.7481
   84CHL1   C24 8684   0.496   1.571   8.247 -0.4741  0.1401  0.0871
   84CHL1  H24A 8685   0.448   1.671   8.234  0.6313  0.7894  0.7562
   84CHL1  H24B 8686   0.426   1.496   8.289 -0.5514  1.4612  2.5379
   84CHL1   C25 8687   0.613   1.593   8.345  0.1007  0.1329  0.4797
   84CHL1   H25 8688   0.682   1.674   8.313  2.7923 -1.2081  2.4517
   84CHL1   C26 8689   0.551   1.632   8.486  0.0582 -0.1198 -0.2226
   84CHL1  H26A 8690   0.478   1.715   8.475  0.0770 -0.0015  0.4647
   84CHL1  H26B 8691   0.488   1.553   8.532  0.7468  0.2185  1.3583
   84CHL1  H26C 8692   0.632   1.657   8.558 -0.3437  0.0602  0.1737
   84CHL1   C27 8693   0.688   1.466   8.372 -0.1972 -0.2851 -0.0827
   84CHL1  H27A 8694   0.733   1.443   8.273  0.0565  1.4917 -0.4277
   84CHL1  H27B 8695   0.768   1.475   8.449 -1.2801 -3.4663  1.5797
   84CHL1  H27C 8696   0.621   1.379   8.388 -1.3344 -0.0692 -2.9502
   85CHL1    C3 8697   0.942   0.945   6.691  0.2306  0.4979 -0.4089
   85CHL1    H3 8698   0.863   1.021   6.712  1.9787  1.5525  3.1022
   85CHL1    O3 8699   0.942   0.904   6.552 -0.4939  0.2518  0.3137
   85CHL1   H3' 8700   0.969   0.812   6.559 -0.2202  0.4092  1.5717
   85CHL1    C4 8701   1.087   0.985   6.727  0.6132 -0.3054  0.4119
   85CHL1   H4A 8702   1.154   0.903   6.694 -0.6270 -1.3275  0.3360
   85CHL1   H4B 8703   1.109   1.083   6.679 -0.5727  0.7442  1.9360
   85CHL1    C5 8704   1.095   1.007   6.880  0.5824 -0.0910 -0.7196
   85CHL1    C6 8705   1.143   1.122   6.929  0.0489 -0.1227  0.1713
   85CHL1    H6 8706   1.183   1.196   6.858  3.1458 -1.7477  0.0657
   85CHL1    C7 8707   1.155   1.154   7.071 -0.3772  0.0546  0.0908
   85CHL1   H7A 8708   1.236   1.224   7.101  2.0681 -2.4327 -0.2792
   85CHL1   H7B 8709   1.062   1.208   7.099 -2.0696 -2.2314 -0.7742
   85CHL1    C8 8710   1.146   1.020   7.164 -0.2043  0.0024  0.9380
   85CHL1    H8 8711   1.241   0.965   7.149 -0.3719  0.0111 -0.3218
   85CHL1   C14 8712   1.136   1.063   7.303  0.1823  0.0703  0.2673
   85CHL1   H14 8713   1.045   1.126   7.309  0.1294  0.1966 -1.5559
   85CHL1   C15 8714   1.258   1.141   7.361  0.3361  0.0905 -0.7168
   85CHL1  H15A 8715   1.360   1.101   7.343  0.9752  0.2532  2.0626
   85CHL1  H15B 8716   1.260   1.247   7.330  1.2319 -0.1396 -1.5048
   85CHL1   C16 8717   1.249   1.134   7.514  0.2086  0.1280 -0.3618
   85CHL1  H16A 8718   1.346   1.106   7.560  0.4188  0.6862 -0.4594
   85CHL1  H16B 8719   1.215   1.225   7.568  1.1376  1.9835 -2.7126
   85CHL1   C17 8720   1.140   1.020   7.546  0.0804  0.4220  0.1426
   85CHL1   H17 8721   1.041   1.069   7.562  0.7879  1.7911  0.5499
   85CHL1   C13 8722   1.122   0.944   7.407  0.0117 -0.3228  0.5388
   85CHL1   C18 8723   1.239   0.850   7.402  0.3530 -0.2668 -0.3442
   85CHL1  H18A 8724   1.257   0.794   7.308 -2.6669 -1.3356 -0.3863
   85CHL1  H18B 8725   1.328   0.911   7.430 -0.2236  0.0803  0.7954
   85CHL1  H18C 8726   1.230   0.782   7.489  0.8295  1.3154  0.9965
   85CHL1   C12 8727   0.991   0.868   7.373  0.0532 -0.1174 -0.3429
   85CHL1  H12A 8728   0.981   0.771   7.427 -0.7907 -0.0981 -0.4607
   85CHL1  H12B 8729   0.904   0.931   7.400 -1.1121 -1.8918  0.1990
   85CHL1   C11 8730   0.991   0.831   7.224  0.3493  0.4463  0.2993
   85CHL1  H11A 8731   1.067   0.751   7.217 -1.5247 -1.4018  0.1427
   85CHL1  H11B 8732   0.893   0.780   7.212  1.0706 -0.4799 -2.4495
   85CHL1    C9 8733   1.025   0.940   7.131 -0.2861  0.6866 -0.5921
   85CHL1    H9 8734   0.942   1.014   7.129 -1.9031 -0.9707  0.8808
   85CHL1   C10 8735   1.041   0.894   6.980  0.0245 -0.0457 -0.0252
   85CHL1   C19 8736   1.140   0.772   6.966 -1.0373 -0.4629 -0.2532
   85CHL1  H19A 8737   1.193   0.772   6.868 -0.5884  1.4341 -0.0604
   85CHL1  H19B 8738   1.213   0.780   7.050 -2.4069  0.3508  0.9154
   85CHL1  H19C 8739   1.096   0.674   6.994 -1.0154 -0.9030 -1.7052
   85CHL1    C1 8740   0.902   0.857   6.919  0.0212  0.3532 -0.0418
   85CHL1   H1A 8741   0.857   0.776   6.979  0.6182 -0.4622 -0.6579
   85CHL1   H1B 8742   0.840   0.949   6.924 -0.5529 -0.0245 -0.1306
   85CHL1    C2 8743   0.902   0.817   6.770  0.2160  0.6522  0.4629
   85CHL1   H2A 8744   0.799   0.794   6.736  0.5998  2.2041 -1.9447
   85CHL1   H2B 8745   0.970   0.729   6.759 -0.4043  0.3160 -0.9025
   85CHL1   C20 8746   1.169   0.943   7.675 -0.5499 -0.7647  0.2447
   85CHL1   H20 8747   1.258   0.876   7.672 -0.4732 -0.6381 -0.8701
   85CHL1   C21 8748   1.050   0.850   7.699 -0.5073  0.7602 -0.2697
   85CHL1  H21A 8749   0.952   0.903   7.692 -0.1424  1.7696  1.6458
   85CHL1  H21B 8750   1.063   0.808   7.801 -2.1409  0.9867  0.0706
   85CHL1  H21C 8751   1.041   0.771   7.622  0.6393  0.8612 -0.5161
   85CHL1   C22 8752   1.187   1.043   7.793  0.0285 -0.5225  0.4328
   85CHL1  H22A 8753   1.274   1.109   7.770 -1.3345  0.8436 -1.1734
   85CHL1  H22B 8754   1.090   1.096   7.803  0.0640  0.6452 -3.6775
   85CHL1   C23 8755   1.235   0.973   7.920 -0.1329 -0.5335  0.0066
   85CHL1  H23A 8756   1.152   0.914   7.962  1.5595 -2.2814  1.0560
   85CHL1  H23B 8757   1.316   0.902   7.892  0.9721 -0.4106  2.6201
   85CHL1   C24 8758   1.290   1.069   8.033  0.5448 -0.5785 -0.2146
   85CHL1  H24A 8759   1.368   1.139   7.998 -1.0610  2.9273  2.5994
   85CHL1  H24B 8760   1.204   1.131   8.066  0.8127  0.0234 -0.6445
   85CHL1   C25 8761   1.348   0.993   8.153  0.1627 -0.6722  0.4139
   85CHL1   H25 8762   1.265   0.929   8.190 -0.3538  0.1006  0.6092
   85CHL1   C26 8763   1.464   0.898   8.121  0.0694  0.3272  0.0327
   85CHL1  H26A 8764   1.418   0.821   8.056 -2.1521  0.7919  0.9610
   85CHL1  H26B 8765   1.546   0.952   8.069  1.7347 -1.0837  1.0481
   85CHL1  H26C 8766   1.502   0.849   8.214  0.5637  0.7911  0.0816
   85CHL1   C27 8767   1.371   1.080   8.278  0.0486 -0.3043  0.1202
   85CHL1  H27A 8768   1.275   1.129   8.304 -0.0546 -0.5131  0.1369
   85CHL1  H27B 8769   1.404   1.015   8.363  3.0329  0.2903 -0.4805
   85CHL1  H27C 8770   1.441   1.162   8.253 -2.9313  3.1115  2.1465
   86CHL1    C3 8771   4.138   3.343   6.960 -0.5342  0.0844  0.7197
   86CHL1    H3 8772   4.212   3.262   6.975 -1.1778 -1.0075 -1.5280
   86CHL1    O3 8773   4.137   3.362   6.818  0.5738  0.3219 -0.0381
   86CHL1   H3' 8774   4.113   3.280   6.775  0.5252  1.7964 -3.0936
   86CHL1    C4 8775   4.004   3.294   7.013  0.8403 -0.5791 -0.4447
   86CHL1   H4A 8776   3.937   3.378   6.983  0.7128 -0.1253  1.0265
   86CHL1   H4B 8777   3.975   3.200   6.960 -1.7532 -1.0855  1.6607
   86CHL1    C5 8778   3.981   3.282   7.159 -0.9135  0.0353  0.0518
   86CHL1    C6 8779   3.938   3.168   7.214 -0.5861 -0.2493  0.2273
   86CHL1    H6 8780   3.906   3.084   7.151  1.6583 -1.4192  0.5412
   86CHL1    C7 8781   3.936   3.148   7.361  0.5933  0.1485 -0.5158
   86CHL1   H7A 8782   3.838   3.112   7.397  0.6228  0.8235  0.2745
   86CHL1   H7B 8783   4.005   3.067   7.391 -1.1981 -0.8804  0.9815
   86CHL1    C8 8784   3.962   3.275   7.445  0.5626  0.6081  0.2113
   86CHL1    H8 8785   3.868   3.333   7.432 -0.4437 -1.0682 -0.2323
   86CHL1   C14 8786   3.985   3.242   7.592  0.5055  0.7466  0.0590
   86CHL1   H14 8787   4.084   3.193   7.603 -0.9092 -1.8725  2.1032
   86CHL1   C15 8788   3.881   3.161   7.669 -0.8191 -0.0599 -0.3472
   86CHL1  H15A 8789   3.786   3.203   7.629 -1.8987 -1.2820  0.8420
   86CHL1  H15B 8790   3.882   3.050   7.661 -3.0721 -0.2859  1.3142
   86CHL1   C16 8791   3.892   3.205   7.820 -0.2057 -0.3817 -0.2283
   86CHL1  H16A 8792   3.793   3.244   7.852 -1.0733  0.5971 -3.7008
   86CHL1  H16B 8793   3.926   3.123   7.887  0.4786  1.3228  1.6296
   86CHL1   C17 8794   4.010   3.309   7.823  0.6856  0.4403 -0.6074
   86CHL1   H17 8795   4.105   3.252   7.825  0.8257  0.6859 -0.2208
   86CHL1   C13 8796   4.004   3.361   7.678 -0.3652 -0.2680  0.3695
   86CHL1   C18 8797   3.882   3.467   7.668  0.5465 -0.0479  0.2981
   86CHL1  H18A 8798   3.847   3.481   7.563  0.4520 -0.5717  0.2555
   86CHL1  H18B 8799   3.795   3.407   7.703 -0.5632  1.3852  0.0760
   86CHL1  H18C 8800   3.894   3.561   7.725 -2.0089  1.2354 -1.1323
   86CHL1   C12 8801   4.136   3.425   7.627 -0.8366 -0.3517  0.2171
   86CHL1  H12A 8802   4.180   3.494   7.703  2.2590 -2.2480  0.3311
   86CHL1  H12B 8803   4.216   3.348   7.630 -1.7452 -1.3794 -1.0032
   86CHL1   C11 8804   4.128   3.466   7.478 -0.4559  0.0075  0.5186
   86CHL1  H11A 8805   4.060   3.554   7.472 -0.9151 -0.3186  0.8749
   86CHL1  H11B 8806   4.226   3.506   7.444 -0.7945 -1.0661 -2.0022
   86CHL1    C9 8807   4.075   3.355   7.388 -0.0629 -0.0159  0.0576
   86CHL1    H9 8808   4.157   3.280   7.381 -1.7600 -2.1080  1.4647
   86CHL1   C10 8809   4.046   3.396   7.242  0.5359  0.4697  1.0157
   86CHL1   C19 8810   3.944   3.509   7.235 -0.8798  0.4369 -0.0584
   86CHL1  H19A 8811   3.929   3.543   7.130  0.3213  1.4005  0.0537
   86CHL1  H19B 8812   3.848   3.478   7.280  0.6407 -1.3662  2.1777
   86CHL1  H19C 8813   3.977   3.597   7.294 -1.2402  1.8919 -1.9410
   86CHL1    C1 8814   4.182   3.438   7.181  0.2100 -0.7455  0.3148
   86CHL1   H1A 8815   4.227   3.531   7.222  0.9197 -0.5378 -0.8700
   86CHL1   H1B 8816   4.241   3.346   7.199 -0.5191 -0.7270  3.2520
   86CHL1    C2 8817   4.187   3.464   7.032  0.0500 -0.5762  0.5086
   86CHL1   H2A 8818   4.291   3.480   6.995  0.9321 -0.1246  2.9922
   86CHL1   H2B 8819   4.137   3.560   7.008  0.7094 -0.7057 -1.6062
   86CHL1   C20 8820   4.025   3.415   7.932 -0.3264 -0.1985  0.1537
   86CHL1   H20 8821   4.016   3.511   7.878  0.5697 -1.5579 -2.5790
   86CHL1   C21 8822   4.163   3.413   7.988 -0.8277  0.3199 -0.1291
   86CHL1  H21A 8823   4.248   3.438   7.921 -1.5059  0.4994 -0.9380
   86CHL1  H21B 8824   4.189   3.311   8.024 -0.5165  0.7240  0.8296
   86CHL1  H21C 8825   4.173   3.487   8.070  0.1265  0.0302  0.0260
   86CHL1   C22 8826   3.915   3.398   8.049  0.3255 -0.3921 -0.4433
   86CHL1  H22A 8827   3.818   3.414   7.996  1.1654 -1.3245 -2.3517
   86CHL1  H22B 8828   3.912   3.292   8.083 -1.6767 -0.9201 -2.0096
   86CHL1   C23 8829   3.936   3.496   8.167  0.0801  0.0994  0.0411
   86CHL1  H23A 8830   4.024   3.465   8.228  0.8648  2.4378  0.1817
   86CHL1  H23B 8831   3.965   3.597   8.131  0.1350  0.1448  0.2122
   86CHL1   C24 8832   3.808   3.514   8.257  0.1880  0.1447  0.0591
   86CHL1  H24A 8833   3.717   3.550   8.204  1.0150  1.2832 -0.6369
   86CHL1  H24B 8834   3.788   3.423   8.317  1.1972  0.3379  0.7203
   86CHL1   C25 8835   3.823   3.624   8.366  0.1978 -0.3927  0.2087
   86CHL1   H25 8836   3.848   3.725   8.328 -0.3957  0.0582  1.0079
   86CHL1   C26 8837   3.691   3.632   8.445 -0.3725 -0.0077 -0.0495
   86CHL1  H26A 8838   3.694   3.731   8.497 -0.3160 -0.8189  1.5531
   86CHL1  H26B 8839   3.604   3.624   8.377 -2.2033 -0.4532  2.2073
   86CHL1  H26C 8840   3.687   3.559   8.528 -2.7728  1.6498  1.4304
   86CHL1   C27 8841   3.942   3.604   8.465 -0.5518  0.0943  0.0484
   86CHL1  H27A 8842   3.955   3.684   8.541  3.7276  1.4306 -1.7844
   86CHL1  H27B 8843   3.921   3.506   8.512 -3.3826  0.6202  0.0942
   86CHL1  H27C 8844   4.036   3.595   8.407 -1.4487  0.5629 -1.5712
   87CHL1    C3 8845   3.307   1.486   6.908  0.1928  0.7809  0.4623
   87CHL1    H3 8846   3.352   1.586   6.922  2.3198 -0.2021  1.1551
   87CHL1    O3 8847   3.371   1.414   6.803 -0.1179 -0.5174 -0.3686
   87CHL1   H3' 8848   3.353   1.458   6.720 -0.2044 -0.3437 -0.2585
   87CHL1    C4 8849   3.324   1.399   7.034 -0.3769 -0.2666 -0.3018
   87CHL1   H4A 8850   3.300   1.293   7.011  0.0008 -0.2878 -0.6135
   87CHL1   H4B 8851   3.427   1.393   7.075 -1.0502  0.1998  1.5495
   87CHL1    C5 8852   3.230   1.457   7.142  0.4279 -0.4995  0.1880
   87CHL1    C6 8853   3.264   1.487   7.268 -0.0654 -0.4496 -0.6841
   87CHL1    H6 8854   3.367   1.474   7.303 -0.5899  0.1698  1.1990
   87CHL1    C7 8855   3.165   1.525   7.379 -0.1437  0.2814  0.5570
   87CHL1   H7A 8856   3.198   1.479   7.475 -1.2295  0.5206  1.0630
   87CHL1   H7B 8857   3.177   1.632   7.405 -2.5052  0.4009  1.4155
   87CHL1    C8 8858   3.019   1.501   7.346 -0.2634  0.1707  0.0607
   87CHL1    H8 8859   3.000   1.392   7.341 -1.0684  0.3596 -2.5272
   87CHL1   C14 8860   2.928   1.570   7.441  0.0529  0.2866  0.4792
   87CHL1   H14 8861   2.951   1.678   7.432  0.6882  0.1149 -0.0001
   87CHL1   C15 8862   2.942   1.531   7.584  0.1352  0.4109  0.0682
   87CHL1  H15A 8863   2.954   1.423   7.607 -0.8331  0.2397 -0.1738
   87CHL1  H15B 8864   3.019   1.587   7.642  0.9562 -0.3186 -0.2878
   87CHL1   C16 8865   2.809   1.568   7.650 -1.5619 -0.4482 -0.4326
   87CHL1  H16A 8866   2.773   1.487   7.717  0.2113  1.0209  2.5372
   87CHL1  H16B 8867   2.836   1.664   7.700  3.1119 -0.9718 -1.5526
   87CHL1   C17 8868   2.719   1.621   7.540 -0.8119 -0.1081  1.0235
   87CHL1   H17 8869   2.730   1.731   7.529  1.8817 -0.4383 -0.4852
   87CHL1   C13 8870   2.784   1.564   7.406  0.3447 -0.1938  0.0492
   87CHL1   C18 8871   2.730   1.417   7.391  0.4103  0.2152  0.0604
   87CHL1  H18A 8872   2.791   1.349   7.327 -0.0876  0.7318 -0.9775
   87CHL1  H18B 8873   2.729   1.368   7.491  1.2050 -0.6709 -0.3438
   87CHL1  H18C 8874   2.626   1.416   7.353  0.5340  2.9863 -0.5226
   87CHL1   C12 8875   2.762   1.642   7.271  0.3326  0.1108  0.2315
   87CHL1  H12A 8876   2.656   1.637   7.237  0.0563 -1.7715  1.2354
   87CHL1  H12B 8877   2.791   1.749   7.275  2.1574 -0.3551  0.6010
   87CHL1   C11 8878   2.846   1.576   7.167  0.3174  0.5872  0.7883
   87CHL1  H11A 8879   2.798   1.481   7.134  0.8582  0.0875  1.4120
   87CHL1  H11B 8880   2.833   1.637   7.075 -1.1320  0.0551  0.6181
   87CHL1    C9 8881   2.995   1.559   7.206  0.4275  0.2573  0.6854
   87CHL1    H9 8882   3.042   1.659   7.208  1.0516 -0.0358  0.8809
   87CHL1   C10 8883   3.078   1.484   7.094  0.5657  0.6724 -0.7887
   87CHL1   C19 8884   3.009   1.347   7.072 -0.5133  0.3621  0.4583
   87CHL1  H19A 8885   2.909   1.351   7.022 -0.4096 -2.1034 -0.0394
   87CHL1  H19B 8886   3.060   1.283   6.997 -2.2787 -1.2926  0.6001
   87CHL1  H19C 8887   2.998   1.295   7.169  0.0155  1.5885  1.2030
   87CHL1    C1 8888   3.084   1.565   6.967 -1.3965 -0.1933  0.2208
   87CHL1   H1A 8889   2.982   1.579   6.925 -0.4769 -0.1782 -2.1631
   87CHL1   H1B 8890   3.121   1.668   6.989 -0.4021 -0.6999  1.0196
   87CHL1    C2 8891   3.163   1.506   6.854  0.0472  0.1240 -0.3962
   87CHL1   H2A 8892   3.182   1.567   6.763 -0.2799  0.6377 -0.1196
   87CHL1   H2B 8893   3.110   1.422   6.805 -0.6170  1.9912 -3.1109
   87CHL1   C20 8894   2.569   1.602   7.554  0.6722  0.8152 -0.0305
   87CHL1   H20 8895   2.533   1.502   7.520  0.5614  0.9231 -0.2255
   87CHL1   C21 8896   2.497   1.712   7.476 -0.4085 -0.4787  0.2442
   87CHL1  H21A 8897   2.387   1.697   7.489 -0.4773  0.3642  0.7267
   87CHL1  H21B 8898   2.523   1.713   7.368 -1.4496 -2.4205 -0.0780
   87CHL1  H21C 8899   2.522   1.812   7.518 -1.3447  0.2432 -0.8422
   87CHL1   C22 8900   2.529   1.596   7.711  0.2689 -0.2155 -0.2596
   87CHL1  H22A 8901   2.421   1.573   7.707  0.4239 -0.7462 -2.4951
   87CHL1  H22B 8902   2.572   1.507   7.761  3.7284  0.6287 -1.4020
   87CHL1   C23 8903   2.541   1.737   7.783  0.9311 -0.0554  0.2416
   87CHL1  H23A 8904   2.625   1.795   7.740 -0.4962  1.1601 -1.0267
   87CHL1  H23B 8905   2.459   1.795   7.735  0.9574 -0.2239 -0.0126
   87CHL1   C24 8906   2.546   1.718   7.933  0.0003  0.4796  0.3484
   87CHL1  H24A 8907   2.458   1.677   7.988  1.0279 -2.5997 -0.0885
   87CHL1  H24B 8908   2.622   1.639   7.946  0.0875  0.2258 -1.5281
   87CHL1   C25 8909   2.592   1.839   8.008  0.1308  0.0881  0.3031
   87CHL1   H25 8910   2.554   1.931   7.960 -0.3727  0.2669  1.0183
   87CHL1   C26 8911   2.553   1.831   8.160 -0.0553 -0.4305  0.0431
   87CHL1  H26A 8912   2.592   1.738   8.205 -1.9088 -0.8808  0.8173
   87CHL1  H26B 8913   2.594   1.914   8.222 -1.6548 -0.0794  0.6753
   87CHL1  H26C 8914   2.443   1.830   8.178 -0.0428 -2.8234  0.2406
   87CHL1   C27 8915   2.744   1.856   7.994 -0.5449 -0.0673 -0.6232
   87CHL1  H27A 8916   2.778   1.871   7.889  0.2082  0.7247 -0.2805
   87CHL1  H27B 8917   2.788   1.949   8.035  0.2674 -0.2305 -1.1115
   87CHL1  H27C 8918   2.803   1.772   8.038 -2.8974 -0.9090  1.1441
   88CHL1    C3 8919   1.566   6.096   6.874 -0.8925  0.1620 -0.2804
   88CHL1    H3 8920   1.459   6.087   6.902 -1.0084  1.3363 -0.2778
   88CHL1    O3 8921   1.582   6.083   6.730 -0.1832  0.1869 -0.5119
   88CHL1   H3' 8922   1.677   6.072   6.721  0.0243  0.9856  0.5573
   88CHL1    C4 8923   1.629   6.227   6.921 -0.3708  0.1124  0.0629
   88CHL1   H4A 8924   1.728   6.224   6.872 -0.6940  1.4308 -0.7239
   88CHL1   H4B 8925   1.572   6.316   6.884 -0.4184 -0.3655 -1.0641
   88CHL1    C5 8926   1.634   6.236   7.071  0.0285 -0.5882 -0.2062
   88CHL1    C6 8927   1.581   6.339   7.143  0.4780  0.0846 -0.2307
   88CHL1    H6 8928   1.526   6.416   7.088 -2.2124 -2.7800 -1.8917
   88CHL1    C7 8929   1.568   6.348   7.295 -0.6762 -0.0717  0.6226
   88CHL1   H7A 8930   1.599   6.451   7.322  1.0240 -0.0756 -1.1395
   88CHL1   H7B 8931   1.460   6.349   7.320 -1.5294 -0.7766 -2.5527
   88CHL1    C8 8932   1.661   6.245   7.362  0.4754  0.7605  0.0143
   88CHL1    H8 8933   1.763   6.289   7.355  0.2212  1.6349  1.4162
   88CHL1   C14 8934   1.631   6.240   7.513  0.0027 -0.3556  0.4292
   88CHL1   H14 8935   1.522   6.220   7.516 -0.4443  1.5580 -1.1866
   88CHL1   C15 8936   1.655   6.370   7.599 -0.8575 -0.0510  0.2100
   88CHL1  H15A 8937   1.749   6.420   7.569 -0.3844 -0.8038  0.4201
   88CHL1  H15B 8938   1.570   6.436   7.574  0.0155  0.8611 -0.4257
   88CHL1   C16 8939   1.648   6.315   7.748 -0.6020 -0.1763  0.9237
   88CHL1  H16A 8940   1.753   6.340   7.776  0.0285 -1.3153 -0.2785
   88CHL1  H16B 8941   1.581   6.375   7.814 -0.6444 -0.0980  0.8098
   88CHL1   C17 8942   1.621   6.161   7.731 -0.4290 -0.2135  0.1823
   88CHL1   H17 8943   1.510   6.156   7.729 -0.5030  0.9834 -2.0564
   88CHL1   C13 8944   1.692   6.134   7.598 -0.2512 -0.6379 -0.7218
   88CHL1   C18 8945   1.843   6.161   7.610  0.5019  0.4807  0.0282
   88CHL1  H18A 8946   1.866   6.260   7.655  1.8109 -0.0091  0.4833
   88CHL1  H18B 8947   1.901   6.076   7.651  2.2797  0.7070 -1.8075
   88CHL1  H18C 8948   1.895   6.170   7.512  0.9816  0.1405  0.2465
   88CHL1   C12 8949   1.667   6.003   7.526  0.4072  1.0376 -0.1029
   88CHL1  H12A 8950   1.714   5.912   7.569  1.0856  0.7352 -1.4461
   88CHL1  H12B 8951   1.557   5.991   7.538  0.4951  1.0540  0.7697
   88CHL1   C11 8952   1.717   6.001   7.383  0.2732  0.5231  0.4748
   88CHL1  H11A 8953   1.827   6.015   7.374  0.4298 -0.6024  0.5047
   88CHL1  H11B 8954   1.689   5.906   7.332 -1.4147  0.7549  0.8958
   88CHL1    C9 8955   1.645   6.110   7.301 -0.0442  0.2901  0.1484
   88CHL1    H9 8956   1.536   6.090   7.304  0.2054 -0.9995  0.8148
   88CHL1   C10 8957   1.688   6.115   7.146 -0.0746  0.9208  0.0281
   88CHL1   C19 8958   1.840   6.130   7.128 -0.7263 -0.7174  0.7959
   88CHL1  H19A 8959   1.895   6.042   7.167  0.1869 -0.0739  0.9883
   88CHL1  H19B 8960   1.865   6.126   7.020 -0.9036 -0.2783  0.7367
   88CHL1  H19C 8961   1.882   6.223   7.171  1.0515 -1.1564  0.1094
   88CHL1    C1 8962   1.632   5.982   7.081  0.5380  0.7640  0.2745
   88CHL1   H1A 8963   1.697   5.905   7.128 -0.6473 -0.4817 -0.0577
   88CHL1   H1B 8964   1.526   5.972   7.113 -0.0627  1.3204 -1.4114
   88CHL1    C2 8965   1.635   5.967   6.933  0.1026 -0.7867  0.5521
   88CHL1   H2A 8966   1.578   5.874   6.913  0.0618 -0.1575 -2.6698
   88CHL1   H2B 8967   1.744   5.966   6.911  0.1742  2.6918  0.1522
   88CHL1   C20 8968   1.659   6.077   7.856  0.1813 -0.2828  0.0169
   88CHL1   H20 8969   1.759   6.030   7.839  1.5970  1.6856  2.1868
   88CHL1   C21 8970   1.562   5.963   7.863  0.2981  0.1336 -0.2880
   88CHL1  H21A 8971   1.576   5.898   7.952  0.0624 -0.6451 -0.7993
   88CHL1  H21B 8972   1.571   5.888   7.781 -0.4298 -0.7200  0.3900
   88CHL1  H21C 8973   1.456   5.994   7.873  0.2715  0.1819 -0.6949
   88CHL1   C22 8974   1.672   6.165   7.989  0.8730 -0.6852  0.2984
   88CHL1  H22A 8975   1.747   6.245   7.976 -0.4188  0.5977  0.5352
   88CHL1  H22B 8976   1.580   6.227   7.999  0.7847 -0.8999  0.8854
   88CHL1   C23 8977   1.710   6.087   8.121  0.4338  0.8653  0.9051
   88CHL1  H23A 8978   1.612   6.045   8.152  0.9260 -0.7647  0.3699
   88CHL1  H23B 8979   1.783   6.005   8.108  0.4024  0.9435  0.2301
   88CHL1   C24 8980   1.764   6.175   8.225  0.5043 -0.2696 -0.3823
   88CHL1  H24A 8981   1.858   6.226   8.195 -0.7094  0.8035 -2.5974
   88CHL1  H24B 8982   1.695   6.262   8.233  0.3025 -0.3729 -0.9353
   88CHL1   C25 8983   1.772   6.109   8.360  0.3196  0.7147  0.3780
   88CHL1   H25 8984   1.726   6.008   8.359  2.5559 -0.3639 -0.2926
   88CHL1   C26 8985   1.921   6.102   8.397 -0.4368 -0.2345  0.1258
   88CHL1  H26A 8986   1.944   6.050   8.492 -1.9661 -0.7064  0.2709
   88CHL1  H26B 8987   1.987   6.062   8.318  0.2868  0.2852  0.4517
   88CHL1  H26C 8988   1.962   6.205   8.409  1.4037 -0.9377  0.0571
   88CHL1   C27 8989   1.698   6.195   8.468 -0.6588 -0.1764  0.3084
   88CHL1  H27A 8990   1.682   6.148   8.568 -1.4216  0.0170  0.2849
   88CHL1  H27B 8991   1.766   6.282   8.478  0.8384 -1.3849  1.1673
   88CHL1  H27C 8992   1.598   6.227   8.432 -1.9542 -2.4813  1.5673
   89CHL1    C3 8993   6.025   3.568   6.865  0.4020  0.4031  0.7263
   89CHL1    H3 8994   6.050   3.676   6.855 -0.9532  0.4628 -4.1184
   89CHL1    O3 8995   5.984   3.531   6.734  0.1288 -0.3245 -0.0391
   89CHL1   H3' 8996   5.937   3.450   6.752 -0.3381 -0.3057 -1.0983
   89CHL1    C4 8997   6.141   3.483   6.899 -0.0467 -0.5281  0.2359
   89CHL1   H4A 8998   6.124   3.375   6.880 -0.1952 -0.7330  1.4637
   89CHL1   H4B 8999   6.226   3.502   6.830 -0.8349  0.2598 -0.5381
   89CHL1    C5 9000   6.191   3.495   7.046 -0.5625 -0.3503  0.1159
   89CHL1    C6 9001   6.313   3.531   7.075 -0.9753  0.2432  0.1253
   89CHL1    H6 9002   6.379   3.530   6.988 -2.5473  1.8893 -1.1540
   89CHL1    C7 9003   6.361   3.561   7.209 -0.3047  0.2584  0.3968
   89CHL1   H7A 9004   6.464   3.521   7.219 -0.9437 -1.4205  0.6102
   89CHL1   H7B 9005   6.379   3.670   7.215  0.8475  0.1395 -0.4814
   89CHL1    C8 9006   6.270   3.503   7.322 -0.4275 -0.8746  0.1202
   89CHL1    H8 9007   6.303   3.397   7.326  1.1108 -0.4191  3.5645
   89CHL1   C14 9008   6.318   3.558   7.452  0.6825  0.2812  0.1082
   89CHL1   H14 9009   6.300   3.668   7.447 -0.5079  0.1653  1.3563
   89CHL1   C15 9010   6.465   3.529   7.494  0.0185 -0.2806 -0.3965
   89CHL1  H15A 9011   6.514   3.431   7.474  0.5627 -0.0674 -0.1196
   89CHL1  H15B 9012   6.530   3.598   7.436  0.3492  1.2364  1.7025
   89CHL1   C16 9013   6.470   3.577   7.644 -1.2220  0.7895  0.0318
   89CHL1  H16A 9014   6.537   3.510   7.703 -1.0735  0.8656 -0.0490
   89CHL1  H16B 9015   6.513   3.677   7.669  2.1106 -1.1380  2.9648
   89CHL1   C17 9016   6.322   3.580   7.688  0.7976 -0.0984  0.1895
   89CHL1   H17 9017   6.277   3.681   7.674 -2.6725 -1.4153  0.8159
   89CHL1   C13 9018   6.239   3.501   7.574  0.9168  0.5376 -0.9307
   89CHL1   C18 9019   6.258   3.352   7.595  0.0205  0.7416 -0.2128
   89CHL1  H18A 9020   6.359   3.306   7.593 -0.8424 -1.2740  0.3419
   89CHL1  H18B 9021   6.200   3.321   7.685 -1.7984 -0.6084 -1.7678
   89CHL1  H18C 9022   6.214   3.299   7.508 -0.2715  1.4231 -0.4874
   89CHL1   C12 9023   6.091   3.537   7.554  0.2631  0.2156  1.0273
   89CHL1  H12A 9024   6.029   3.503   7.640 -2.8171  0.1757 -1.0908
   89CHL1  H12B 9025   6.091   3.648   7.561  0.7185  0.2668  0.3331
   89CHL1   C11 9026   6.036   3.486   7.416  0.8470  0.6660 -0.5345
   89CHL1  H11A 9027   6.043   3.376   7.432 -3.1566  0.3861  0.3953
   89CHL1  H11B 9028   5.932   3.517   7.393  0.5552  0.3621  0.3365
   89CHL1    C9 9029   6.126   3.537   7.299 -0.2854 -0.7197 -0.0049
   89CHL1    H9 9030   6.115   3.648   7.297  1.2257 -0.5036  1.1750
   89CHL1   C10 9031   6.080   3.497   7.148 -0.4489 -0.4655  0.2860
   89CHL1   C19 9032   6.045   3.345   7.145 -0.9625 -0.0032 -0.0943
   89CHL1  H19A 9033   6.126   3.278   7.180 -1.1014  0.1924  0.6120
   89CHL1  H19B 9034   5.943   3.340   7.189 -1.4003 -1.3702 -1.1797
   89CHL1  H19C 9035   6.026   3.299   7.046 -0.6505 -2.4195  0.8892
   89CHL1    C1 9036   5.955   3.579   7.102  0.4973 -0.4628 -0.0860
   89CHL1   H1A 9037   5.879   3.555   7.178 -0.0326 -0.5194 -0.6266
   89CHL1   H1B 9038   5.977   3.688   7.107  1.4290 -0.5331 -1.8230
   89CHL1    C2 9039   5.906   3.553   6.961  0.0663 -0.3207  0.7405
   89CHL1   H2A 9040   5.832   3.634   6.942  0.8914  0.1400 -0.5903
   89CHL1   H2B 9041   5.853   3.455   6.967  0.1447 -0.4704 -0.6630
   89CHL1   C20 9042   6.315   3.532   7.839 -0.8257  0.2167  0.4884
   89CHL1   H20 9043   6.379   3.441   7.841 -2.4399 -0.9874  0.2879
   89CHL1   C21 9044   6.174   3.503   7.881  0.2168 -0.7835 -0.4843
   89CHL1  H21A 9045   6.127   3.411   7.841 -1.7801 -0.2513  0.4917
   89CHL1  H21B 9046   6.106   3.587   7.855  1.9154  0.6445 -0.5367
   89CHL1  H21C 9047   6.176   3.495   7.991 -0.5756  0.8152 -0.3156
   89CHL1   C22 9048   6.380   3.640   7.932  0.6769  0.1491 -0.4452
   89CHL1  H22A 9049   6.471   3.688   7.889  1.7540  0.3878  1.9351
   89CHL1  H22B 9050   6.296   3.713   7.932 -1.1249 -1.8364 -1.5764
   89CHL1   C23 9051   6.411   3.595   8.074  0.1002 -0.5384  0.1518
   89CHL1  H23A 9052   6.318   3.565   8.126 -1.0140  1.4639 -0.6202
   89CHL1  H23B 9053   6.485   3.512   8.079  0.0560 -0.6028 -0.2760
   89CHL1   C24 9054   6.464   3.706   8.167 -0.0800  0.4089 -0.4653
   89CHL1  H24A 9055   6.536   3.772   8.113 -0.8401  0.3545 -1.5779
   89CHL1  H24B 9056   6.376   3.763   8.202  0.9158 -0.3283  3.7504
   89CHL1   C25 9057   6.525   3.648   8.293  0.5173 -0.3790 -0.4089
   89CHL1   H25 9058   6.599   3.574   8.258 -0.1504 -1.7976  1.0641
   89CHL1   C26 9059   6.588   3.754   8.382 -0.0685  0.0758  0.2783
   89CHL1  H26A 9060   6.670   3.804   8.326 -0.0726 -1.2526 -0.9898
   89CHL1  H26B 9061   6.518   3.837   8.407 -1.8224  0.0578 -3.7680
   89CHL1  H26C 9062   6.624   3.709   8.476  1.9906  1.1463  0.0415
   89CHL1   C27 9063   6.425   3.568   8.382 -0.3626 -0.0492 -0.1595
   89CHL1  H27A 9064   6.335   3.624   8.416 -0.0040 -0.2374  1.1096
   89CHL1  H27B 9065   6.385   3.484   8.321  1.0405 -1.1164  0.3403
   89CHL1  H27C 9066   6.467   3.536   8.479 -0.7854  0.5380  0.2243
   90CHL1    C3 9067   3.291   0.034   6.877 -0.2486 -0.4693 -0.0899
   90CHL1    H3 9068   3.181   0.043   6.865 -0.0249  1.3484 -1.1034
   90CHL1    O3 9069   3.350   0.029   6.750 -0.0090  0.5689  0.5099
   90CHL1   H3' 9070   3.346   0.120   6.721  1.3264  0.4796 -0.0498
   90CHL1    C4 9071   3.349   0.148   6.955 -0.1405 -0.4671 -0.5606
   90CHL1   H4A 9072   3.460   0.152   6.959 -0.1938  1.8146  1.2099
   90CHL1   H4B 9073   3.318   0.245   6.910  1.9653  0.9528  0.8455
   90CHL1    C5 9074   3.294   0.143   7.102 -0.6388  0.4866 -0.2871
   90CHL1    C6 9075   3.230   0.247   7.155  0.1745 -0.3790  0.1820
   90CHL1    H6 9076   3.201   0.326   7.084  1.4871  0.5985  0.6901
   90CHL1    C7 9077   3.192   0.261   7.299 -0.3299  0.2212 -0.4627
   90CHL1   H7A 9078   3.210   0.357   7.351  0.8990  0.5374 -1.4150
   90CHL1   H7B 9079   3.082   0.267   7.295 -0.3752 -0.1676  0.0123
   90CHL1    C8 9080   3.243   0.153   7.394 -0.1424  0.3774  0.3211
   90CHL1    H8 9081   3.348   0.171   7.425  0.5471  0.2646 -1.7665
   90CHL1   C14 9082   3.170   0.141   7.520  0.3071  0.4396  0.7699
   90CHL1   H14 9083   3.073   0.100   7.487  0.5968  1.8361 -2.1936
   90CHL1   C15 9084   3.152   0.266   7.609  0.2597 -0.2966  0.0083
   90CHL1  H15A 9085   3.253   0.309   7.625 -0.0130  0.3516  0.0190
   90CHL1  H15B 9086   3.084   0.349   7.581  1.2476  0.9961  1.3244
   90CHL1   C16 9087   3.114   0.208   7.750  0.8088  0.4430 -0.1935
   90CHL1  H16A 9088   3.188   0.235   7.828  0.5376  0.0043  0.2238
   90CHL1  H16B 9089   3.017   0.236   7.798  0.6863 -0.3371  0.0283
   90CHL1   C17 9090   3.113   0.049   7.735 -0.4114  0.1870 -0.0490
   90CHL1   H17 9091   3.015   0.025   7.688 -0.5707  1.6203 -0.4953
   90CHL1   C13 9092   3.215   0.027   7.622 -0.4070  0.1955 -0.0475
   90CHL1   C18 9093   3.356   0.062   7.678  0.8380 -0.0835  0.4094
   90CHL1  H18A 9094   3.430   0.060   7.595  0.7567 -2.6240  0.3292
   90CHL1  H18B 9095   3.348   0.162   7.725 -0.6842  0.9750 -1.9092
   90CHL1  H18C 9096   3.381  -0.006   7.762  1.2624  0.7003  0.9310
   90CHL1   C12 9097   3.216  -0.104   7.545 -0.5539 -0.7063 -0.0974
   90CHL1  H12A 9098   3.272  -0.183   7.599 -3.0151  0.0498  4.0969
   90CHL1  H12B 9099   3.112  -0.143   7.537 -0.6623 -0.4757  0.1688
   90CHL1   C11 9100   3.294  -0.095   7.412 -0.1345 -0.4098 -0.0420
   90CHL1  H11A 9101   3.400  -0.081   7.444 -0.0113 -0.4251 -0.4378
   90CHL1  H11B 9102   3.300  -0.191   7.356  1.4675  0.1148 -0.8630
   90CHL1    C9 9103   3.243   0.015   7.313  0.1070 -0.2330  0.0815
   90CHL1    H9 9104   3.137   0.003   7.282  0.2336  1.6682 -1.3020
   90CHL1   C10 9105   3.325   0.023   7.178 -1.0461  0.0093  0.0211
   90CHL1   C19 9106   3.478   0.006   7.206  0.6861 -0.2965  0.9865
   90CHL1  H19A 9107   3.539   0.016   7.114  0.4503 -0.5684  0.7993
   90CHL1  H19B 9108   3.508   0.080   7.283 -2.1358  1.5851  0.4161
   90CHL1  H19C 9109   3.500  -0.096   7.245  0.0400 -0.6514  0.4413
   90CHL1    C1 9110   3.277  -0.089   7.093  0.3772  0.3546  0.6497
   90CHL1   H1A 9111   3.274  -0.192   7.134 -0.5104 -0.3179 -1.0445
   90CHL1   H1B 9112   3.174  -0.070   7.057  0.2590  0.8092  1.2143
   90CHL1    C2 9113   3.328  -0.100   6.943  0.3915 -0.0983 -0.1027
   90CHL1   H2A 9114   3.270  -0.169   6.877  1.2121 -1.1691  0.2817
   90CHL1   H2B 9115   3.435  -0.128   6.941  0.7875  1.3741 -1.0708
   90CHL1   C20 9116   3.119  -0.044   7.854  0.0769 -0.2101  0.1952
   90CHL1   H20 9117   3.223  -0.079   7.868 -0.4124 -1.9574 -0.3306
   90CHL1   C21 9118   3.030  -0.172   7.834 -0.0379  1.2282 -0.0105
   90CHL1  H21A 9119   3.050  -0.249   7.911 -0.1845  0.1047 -1.0563
   90CHL1  H21B 9120   3.063  -0.207   7.733 -2.0474 -3.6627  0.7622
   90CHL1  H21C 9121   2.922  -0.145   7.828 -0.5641 -0.8391 -0.3856
   90CHL1   C22 9122   3.088   0.029   7.986 -0.1701  0.0557  0.3366
   90CHL1  H22A 9123   3.137   0.129   7.987  0.0831  0.0134 -1.8844
   90CHL1  H22B 9124   2.979   0.045   7.990 -0.0993  1.2918 -1.5848
   90CHL1   C23 9125   3.133  -0.046   8.108  0.7019  0.4764 -0.2628
   90CHL1  H23A 9126   3.111  -0.153   8.087  0.1254  0.4736  0.3504
   90CHL1  H23B 9127   3.244  -0.038   8.117  0.8834 -1.8345  0.3655
   90CHL1   C24 9128   3.064  -0.020   8.245  0.0062 -0.0505 -0.6257
   90CHL1  H24A 9129   3.047   0.087   8.266  1.3717  0.0367  0.1366
   90CHL1  H24B 9130   2.967  -0.075   8.250 -1.1508  2.0229  1.2435
   90CHL1   C25 9131   3.157  -0.066   8.362  0.1056 -0.1195  0.0697
   90CHL1   H25 9132   3.252  -0.009   8.358 -0.1239  0.5385  2.5434
   90CHL1   C26 9133   3.083  -0.046   8.491 -0.1193  0.5933  0.2655
   90CHL1  H26A 9134   2.995  -0.114   8.489 -0.0622  0.5375 -0.4965
   90CHL1  H26B 9135   3.152  -0.069   8.575  3.0692  2.4362 -1.6704
   90CHL1  H26C 9136   3.052   0.056   8.522  2.3024  1.1306  1.0745
   90CHL1   C27 9137   3.201  -0.213   8.350  0.3586  0.0771 -0.0528
   90CHL1  H27A 9138   3.266  -0.242   8.436 -1.2222  0.6489  1.3794
   90CHL1  H27B 9139   3.110  -0.275   8.335 -0.2405  1.1705 -1.1001
   90CHL1  H27C 9140   3.263  -0.224   8.258  1.0904  0.3268  0.4067
   91CHL1    C3 9141   4.728   0.419   7.019 -0.0441  0.0878  0.4301
   91CHL1    H3 9142   4.684   0.317   7.022  3.1685 -1.5469 -1.9945
   91CHL1    O3 9143   4.710   0.485   6.890  0.2773  0.0248  0.4789
   91CHL1   H3' 9144   4.750   0.570   6.911  1.4562 -0.4770  0.3686
   91CHL1    C4 9145   4.657   0.494   7.130  0.9274  0.5029 -0.0303
   91CHL1   H4A 9146   4.661   0.605   7.121  0.2759  0.6067  0.8742
   91CHL1   H4B 9147   4.548   0.473   7.121  0.4258  2.8603 -0.1606
   91CHL1    C5 9148   4.701   0.449   7.267 -0.5063  0.1194  0.1402
   91CHL1    C6 9149   4.617   0.406   7.365 -0.2346  0.1034  0.0695
   91CHL1    H6 9150   4.508   0.408   7.349 -0.3285 -3.0852 -0.3610
   91CHL1    C7 9151   4.657   0.383   7.509  0.0802  0.7880  0.1020
   91CHL1   H7A 9152   4.573   0.425   7.568  1.5468  0.5919  2.4279
   91CHL1   H7B 9153   4.662   0.274   7.529  1.7205  0.5545 -1.3328
   91CHL1    C8 9154   4.785   0.435   7.548 -0.8454 -0.5336  0.1246
   91CHL1    H8 9155   4.772   0.544   7.559  0.5567 -0.4050  0.7937
   91CHL1   C14 9156   4.826   0.378   7.681 -0.2249  0.2527 -0.1282
   91CHL1   H14 9157   4.813   0.268   7.681 -2.5965  0.4840 -0.4495
   91CHL1   C15 9158   4.737   0.405   7.808  0.5183 -0.1429  0.1895
   91CHL1  H15A 9159   4.701   0.510   7.814  1.5147  0.3555 -1.6393
   91CHL1  H15B 9160   4.647   0.340   7.809  1.8200 -2.0347  0.3539
   91CHL1   C16 9161   4.826   0.374   7.925  0.4515  0.1063  0.4238
   91CHL1  H16A 9162   4.836   0.464   7.989 -1.0335 -0.0827  0.9382
   91CHL1  H16B 9163   4.792   0.290   7.988  1.0013 -1.1045 -0.8256
   91CHL1   C17 9164   4.971   0.351   7.872 -0.7339 -0.4855  0.2781
   91CHL1   H17 9165   4.980   0.240   7.863  1.5824 -0.2038 -2.3595
   91CHL1   C13 9166   4.975   0.407   7.723  0.8125  0.5869 -0.5501
   91CHL1   C18 9167   4.990   0.564   7.718  0.1910 -0.0713 -0.4956
   91CHL1  H18A 9168   4.933   0.615   7.798  1.6252 -0.7865  1.0488
   91CHL1  H18B 9169   5.093   0.598   7.739 -0.4802  0.7166  1.7650
   91CHL1  H18C 9170   4.955   0.610   7.623  0.5782 -0.3871 -0.7943
   91CHL1   C12 9171   5.070   0.345   7.614  0.1275 -0.0229 -0.6459
   91CHL1  H12A 9172   5.179   0.359   7.633 -0.3876  0.8878  2.1058
   91CHL1  H12B 9173   5.046   0.237   7.606 -0.4936  0.1037 -0.5581
   91CHL1   C11 9174   5.039   0.403   7.478  0.1267  0.7110  0.2072
   91CHL1  H11A 9175   5.085   0.505   7.477  1.2854  0.2373  1.7232
   91CHL1  H11B 9176   5.097   0.349   7.401  1.3510  2.7505 -0.4021
   91CHL1    C9 9177   4.887   0.399   7.440  0.1634 -0.3710  0.9114
   91CHL1    H9 9178   4.881   0.289   7.428 -1.9633 -0.2681  0.6500
   91CHL1   C10 9179   4.850   0.459   7.302 -0.3754 -0.2067 -0.1836
   91CHL1   C19 9180   4.892   0.609   7.278 -0.1617 -0.6788  0.0675
   91CHL1  H19A 9181   4.855   0.678   7.357  2.4204 -1.0540  1.7362
   91CHL1  H19B 9182   5.002   0.604   7.297  0.3013 -2.1618 -2.5926
   91CHL1  H19C 9183   4.881   0.637   7.171 -0.1225 -2.0113 -0.3035
   91CHL1    C1 9184   4.910   0.368   7.187 -0.3359  0.4784  0.5611
   91CHL1   H1A 9185   5.021   0.364   7.195 -0.2532 -1.0248 -0.7569
   91CHL1   H1B 9186   4.871   0.267   7.209 -0.3056  0.1690 -0.7387
   91CHL1    C2 9187   4.879   0.401   7.043 -0.5094 -0.2984 -0.4337
   91CHL1   H2A 9188   4.913   0.322   6.974 -2.0285 -2.4889  1.1785
   91CHL1   H2B 9189   4.936   0.486   6.999 -0.2853  0.0008  0.4164
   91CHL1   C20 9190   5.076   0.399   7.974  0.3400 -0.1496  0.3662
   91CHL1   H20 9191   5.073   0.510   7.964  0.2578 -0.3381 -3.1008
   91CHL1   C21 9192   5.219   0.374   7.908 -0.2086  1.3135 -1.0490
   91CHL1  H21A 9193   5.301   0.387   7.981  0.4165 -2.3587 -0.9203
   91CHL1  H21B 9194   5.248   0.450   7.832  1.9554  1.9021  0.2781
   91CHL1  H21C 9195   5.230   0.273   7.864 -0.4246  0.5837  0.5247
   91CHL1   C22 9196   5.069   0.341   8.118 -0.1114 -0.1430 -0.1123
   91CHL1  H22A 9197   5.169   0.364   8.162 -0.4857 -0.6010  1.0072
   91CHL1  H22B 9198   5.000   0.402   8.180  0.7561  0.7125  0.0525
   91CHL1   C23 9199   5.047   0.193   8.121  0.6002  0.0390 -0.3965
   91CHL1  H23A 9200   4.947   0.171   8.078 -0.0121 -4.0959  2.4881
   91CHL1  H23B 9201   5.123   0.142   8.057 -0.8160 -1.0792 -1.2479
   91CHL1   C24 9202   5.042   0.149   8.263  0.0512 -0.5395  0.4831
   91CHL1  H24A 9203   5.118   0.210   8.318  0.2511 -0.6905  0.3767
   91CHL1  H24B 9204   4.951   0.192   8.310 -0.7475 -0.4182 -1.1260
   91CHL1   C25 9205   5.066  -0.002   8.296  0.1718  0.2367  0.5030
   91CHL1   H25 9206   5.145  -0.036   8.226  1.5298  2.8492  0.6303
   91CHL1   C26 9207   5.108  -0.028   8.441  0.2231  0.1555  0.0477
   91CHL1  H26A 9208   5.113  -0.137   8.465  0.2889  0.3806  1.1418
   91CHL1  H26B 9209   5.209   0.013   8.463  1.4691 -2.6030 -0.0759
   91CHL1  H26C 9210   5.027   0.020   8.501  0.0143 -1.3359  1.0187
   91CHL1   C27 9211   4.941  -0.084   8.268  0.2321 -0.2409  0.0953
   91CHL1  H27A 9212   4.856  -0.038   8.323 -1.1367 -2.0710 -0.3980
   91CHL1  H27B 9213   4.911  -0.081   8.161  1.9118 -0.0242 -0.3850
   91CHL1  H27C 9214   4.936  -0.188   8.305 -0.5893  0.3180  1.6749
   92CHL1    C3 9215   1.552   1.399   6.758 -0.3521 -0.7702 -0.4764
   92CHL1    H3 9216   1.446   1.373   6.780 -0.6197  0.5873 -0.0093
   92CHL1    O3 9217   1.586   1.403   6.622  0.3075 -0.1085  0.3379
   92CHL1   H3' 9218   1.678   1.431   6.622 -0.0993  1.3565 -0.4915
   92CHL1    C4 9219   1.574   1.541   6.815  0.0131 -0.1111 -0.2319
   92CHL1   H4A 9220   1.678   1.576   6.794  0.4705  0.2467  2.2415
   92CHL1   H4B 9221   1.498   1.613   6.779 -1.7539 -1.2128  1.1445
   92CHL1    C5 9222   1.543   1.533   6.964  0.6395  1.0035 -0.1850
   92CHL1    C6 9223   1.442   1.606   7.009  0.2270  0.2627 -0.6997
   92CHL1    H6 9224   1.387   1.671   6.940  0.6005 -1.7497 -3.0587
   92CHL1    C7 9225   1.414   1.606   7.153  0.2238  0.0613 -0.1531
   92CHL1   H7A 9226   1.384   1.708   7.187  1.9682 -0.0825  2.0842
   92CHL1   H7B 9227   1.324   1.544   7.174 -0.6318  1.3150 -0.0065
   92CHL1    C8 9228   1.520   1.551   7.246 -0.0887 -0.0047  1.0857
   92CHL1    H8 9229   1.607   1.620   7.241 -0.9061  0.9546 -1.4538
   92CHL1   C14 9230   1.477   1.541   7.391 -0.1851  0.7593  0.6547
   92CHL1   H14 9231   1.387   1.475   7.395 -0.4142  1.0534  0.3885
   92CHL1   C15 9232   1.424   1.672   7.471 -0.5717 -0.3642  0.4016
   92CHL1  H15A 9233   1.490   1.761   7.453 -1.0429  0.9045  4.0648
   92CHL1  H15B 9234   1.323   1.704   7.440  0.2634  0.2575 -1.8849
   92CHL1   C16 9235   1.439   1.633   7.622 -0.2491  0.5882  0.2322
   92CHL1  H16A 9236   1.495   1.706   7.684 -0.0118 -1.0075  2.0137
   92CHL1  H16B 9237   1.343   1.597   7.664 -0.1787 -2.5610 -1.9377
   92CHL1   C17 9238   1.511   1.491   7.619  0.6876 -1.1069  0.5083
   92CHL1   H17 9239   1.425   1.422   7.617 -0.0680 -0.1726 -1.2740
   92CHL1   C13 9240   1.585   1.485   7.486 -0.2740  0.5741 -0.2806
   92CHL1   C18 9241   1.707   1.570   7.490  0.1494 -0.2839  0.2229
   92CHL1  H18A 9242   1.783   1.536   7.564  0.4469  1.6789  0.8622
   92CHL1  H18B 9243   1.764   1.584   7.395  2.9558  0.3702  1.9016
   92CHL1  H18C 9244   1.684   1.673   7.522 -2.1587 -0.0184 -1.9227
   92CHL1   C12 9245   1.617   1.342   7.440 -0.6922  0.5663  0.3427
   92CHL1  H12A 9246   1.691   1.298   7.509  2.1680 -0.1073 -2.8575
   92CHL1  H12B 9247   1.513   1.304   7.452 -0.6945  1.0216  1.9514
   92CHL1   C11 9248   1.670   1.347   7.292  0.3331  0.5076 -0.2179
   92CHL1  H11A 9249   1.770   1.395   7.296  2.0981 -2.8624 -0.2970
   92CHL1  H11B 9250   1.690   1.244   7.256 -3.1229 -0.0631 -0.8871
   92CHL1    C9 9251   1.569   1.419   7.191  0.0189 -0.0666 -0.8003
   92CHL1    H9 9252   1.477   1.358   7.190  0.2988 -0.4858 -0.9990
   92CHL1   C10 9253   1.628   1.433   7.044  0.5521 -0.4393 -0.2590
   92CHL1   C19 9254   1.775   1.476   7.047  0.1326 -0.0578 -0.5914
   92CHL1  H19A 9255   1.835   1.397   7.097  1.7821  2.4967  1.7621
   92CHL1  H19B 9256   1.811   1.497   6.943 -1.7086 -0.3721 -1.3291
   92CHL1  H19C 9257   1.784   1.574   7.099 -1.1584 -0.0685 -0.3110
   92CHL1    C1 9258   1.630   1.290   6.979 -0.3236  0.0730 -0.2749
   92CHL1   H1A 9259   1.699   1.218   7.028 -0.8501 -0.3771 -0.1870
   92CHL1   H1B 9260   1.531   1.243   6.997 -0.6885  0.8856 -0.1050
   92CHL1    C2 9261   1.652   1.301   6.822 -0.5288  0.3385 -0.2911
   92CHL1   H2A 9262   1.640   1.202   6.774  0.0734 -0.1764  0.5906
   92CHL1   H2B 9263   1.756   1.325   6.792 -0.8052  1.7930 -0.1570
   92CHL1   C20 9264   1.583   1.442   7.752 -0.3202  0.1489  0.5942
   92CHL1   H20 9265   1.682   1.406   7.719 -0.1549  0.7650  0.4166
   92CHL1   C21 9266   1.493   1.319   7.796 -0.0083  0.0795  0.5016
   92CHL1  H21A 9267   1.402   1.345   7.854 -2.0932  0.1807 -2.5852
   92CHL1  H21B 9268   1.562   1.262   7.863  0.0909  1.2414  1.4191
   92CHL1  H21C 9269   1.458   1.255   7.713 -0.2192 -0.0197  0.6648
   92CHL1   C22 9270   1.605   1.542   7.864 -0.3498  0.6274  0.2388
   92CHL1  H22A 9271   1.686   1.608   7.828  1.6423 -0.8446  1.7365
   92CHL1  H22B 9272   1.508   1.588   7.894 -0.7536 -1.0284  1.7045
   92CHL1   C23 9273   1.684   1.476   7.981  0.4509  0.5886 -0.8190
   92CHL1  H23A 9274   1.638   1.384   8.024  0.7077  0.9716  0.3183
   92CHL1  H23B 9275   1.778   1.436   7.938 -0.9114 -1.2998 -2.1818
   92CHL1   C24 9276   1.702   1.573   8.102  0.4085  0.2952 -0.3103
   92CHL1  H24A 9277   1.779   1.650   8.080  1.0291  0.3950  1.9862
   92CHL1  H24B 9278   1.604   1.622   8.120  0.2796  0.0971 -0.4657
   92CHL1   C25 9279   1.742   1.494   8.226  0.2448 -0.2317 -0.4403
   92CHL1   H25 9280   1.821   1.418   8.207  0.6039  0.0166  0.0130
   92CHL1   C26 9281   1.802   1.587   8.334 -0.3466 -1.1141  0.0202
   92CHL1  H26A 9282   1.845   1.532   8.420 -0.5173  0.0054  0.8437
   92CHL1  H26B 9283   1.887   1.643   8.289 -1.0437  0.3605  0.4950
   92CHL1  H26C 9284   1.723   1.661   8.359  0.7114 -0.1736  0.6594
   92CHL1   C27 9285   1.621   1.414   8.280  0.0649  0.1270  0.2450
   92CHL1  H27A 9286   1.527   1.473   8.278  0.2368  0.4146 -1.9520
   92CHL1  H27B 9287   1.591   1.327   8.218 -0.1728  1.0881 -1.0267
   92CHL1  H27C 9288   1.635   1.370   8.381 -0.7591 -1.2079 -0.2031
   93CHL1    C3 9289   4.684   6.226   6.931  0.6201  0.1301  0.1046
   93CHL1    H3 9290   4.790   6.220   6.962  0.5899  0.3492  0.2561
   93CHL1    O3 9291   4.670   6.168   6.801  0.1590 -0.1716  0.0988
   93CHL1   H3' 9292   4.593   6.208   6.759  0.0756 -1.0997 -0.6587
   93CHL1    C4 9293   4.601   6.151   7.030  0.0002  0.1476 -0.4233
   93CHL1   H4A 9294   4.500   6.155   6.986  0.5567 -0.1673 -1.7948
   93CHL1   H4B 9295   4.641   6.047   7.038 -0.8555 -0.1238  0.4780
   93CHL1    C5 9296   4.606   6.218   7.159  0.1234 -0.6306  0.0672
   93CHL1    C6 9297   4.636   6.155   7.270  0.0300 -0.4979 -0.7495
   93CHL1    H6 9298   4.673   6.052   7.265  0.9723 -0.1882 -0.3695
   93CHL1    C7 9299   4.621   6.211   7.405  0.1957  0.1318 -0.6822
   93CHL1   H7A 9300   4.579   6.146   7.485  1.5003  1.0936  0.8470
   93CHL1   H7B 9301   4.725   6.225   7.442  0.4771 -2.2128 -0.4150
   93CHL1    C8 9302   4.552   6.347   7.415  0.0982  0.4542 -0.4439
   93CHL1    H8 9303   4.444   6.330   7.435  0.6136  0.0390  2.4956
   93CHL1   C14 9304   4.611   6.426   7.535  0.1184  0.7360  0.6965
   93CHL1   H14 9305   4.719   6.440   7.513  0.0233 -1.3012 -1.3547
   93CHL1   C15 9306   4.621   6.354   7.682  0.0330  0.6159 -0.0327
   93CHL1  H15A 9307   4.514   6.327   7.692 -0.5471  2.3062 -1.0997
   93CHL1  H15B 9308   4.686   6.265   7.674  0.1925  0.7263  0.0275
   93CHL1   C16 9309   4.653   6.467   7.777  0.2162 -0.5213  0.0761
   93CHL1  H16A 9310   4.580   6.477   7.860  1.5585 -1.6035  1.4581
   93CHL1  H16B 9311   4.762   6.467   7.802  0.9999  1.3096 -2.9368
   93CHL1   C17 9312   4.634   6.595   7.693  0.0634 -0.5757  0.5912
   93CHL1   H17 9313   4.736   6.621   7.657 -0.7046  1.5116 -0.2354
   93CHL1   C13 9314   4.554   6.565   7.570 -0.6709  0.3499 -0.2881
   93CHL1   C18 9315   4.402   6.556   7.613  0.4104 -0.5052 -0.1831
   93CHL1  H18A 9316   4.354   6.654   7.592  0.5004 -0.4188  0.0082
   93CHL1  H18B 9317   4.343   6.485   7.551 -1.5770  2.8511 -2.4427
   93CHL1  H18C 9318   4.385   6.528   7.720  0.1980  0.1679 -0.0340
   93CHL1   C12 9319   4.572   6.653   7.445 -0.1140  0.0502  0.0907
   93CHL1  H12A 9320   4.508   6.744   7.449  0.2314  0.3184  5.0242
   93CHL1  H12B 9321   4.675   6.696   7.452  0.7728 -2.1590  1.8353
   93CHL1   C11 9322   4.527   6.581   7.315 -0.6168 -0.0003 -0.5100
   93CHL1  H11A 9323   4.422   6.548   7.334 -0.6598 -0.5889 -1.6950
   93CHL1  H11B 9324   4.533   6.653   7.231 -1.5392  3.8729  2.4457
   93CHL1    C9 9325   4.589   6.437   7.299 -0.0615  0.3067 -0.3065
   93CHL1    H9 9326   4.698   6.447   7.315  0.0538 -2.4395  1.2576
   93CHL1   C10 9327   4.566   6.365   7.165  0.1699 -0.2298  0.5951
   93CHL1   C19 9328   4.410   6.370   7.143  0.0931  0.5428 -0.2383
   93CHL1  H19A 9329   4.352   6.309   7.216 -2.3816  2.2151 -0.6722
   93CHL1  H19B 9330   4.384   6.478   7.141  0.4196  0.6549  0.7172
   93CHL1  H19C 9331   4.372   6.332   7.046 -3.6269 -0.9613  1.6196
   93CHL1    C1 9332   4.648   6.441   7.062  0.0547  1.0053  0.2205
   93CHL1   H1A 9333   4.621   6.548   7.052  1.6485  1.4132  0.0432
   93CHL1   H1B 9334   4.757   6.451   7.081  0.5485  0.1563 -1.8152
   93CHL1    C2 9335   4.631   6.373   6.921  0.7004 -0.6047  0.0358
   93CHL1   H2A 9336   4.690   6.420   6.840  0.4133 -0.4572 -0.0872
   93CHL1   H2B 9337   4.522   6.369   6.898  0.6232 -2.7224  0.5907
   93CHL1   C20 9338   4.583   6.725   7.770 -1.3019 -0.2737  0.2093
   93CHL1   H20 9339   4.472   6.720   7.776 -1.2502 -0.1867  1.4658
   93CHL1   C21 9340   4.615   6.845   7.681  0.1818  1.0189 -0.3651
   93CHL1  H21A 9341   4.546   6.852   7.594  1.8901  0.4987 -1.8280
   93CHL1  H21B 9342   4.723   6.851   7.655  0.3512  2.7469  0.6409
   93CHL1  H21C 9343   4.601   6.937   7.741  0.1237 -0.3260  1.8241
   93CHL1   C22 9344   4.640   6.732   7.912 -0.0452  0.1340  1.0913
   93CHL1  H22A 9345   4.644   6.634   7.964  1.5802  0.2823  1.3201
   93CHL1  H22B 9346   4.744   6.769   7.902 -0.7699  1.6956 -1.4769
   93CHL1   C23 9347   4.557   6.830   7.997 -0.1927  0.0423  0.4543
   93CHL1  H23A 9348   4.539   6.922   7.937  1.4876 -0.3822 -0.7769
   93CHL1  H23B 9349   4.460   6.778   8.010  0.3912 -1.3359 -0.4852
   93CHL1   C24 9350   4.627   6.860   8.138  0.8192  0.2262 -0.3418
   93CHL1  H24A 9351   4.653   6.771   8.199  1.3159  0.7838  0.2814
   93CHL1  H24B 9352   4.726   6.907   8.121  0.5159  0.8268 -0.4746
   93CHL1   C25 9353   4.542   6.938   8.231  0.2264 -0.0888  0.1172
   93CHL1   H25 9354   4.512   7.028   8.173 -1.9644 -0.2103  0.9768
   93CHL1   C26 9355   4.413   6.872   8.281  0.0198  0.1222 -0.1568
   93CHL1  H26A 9356   4.436   6.784   8.345  2.8391 -0.9948 -2.4787
   93CHL1  H26B 9357   4.356   6.944   8.344 -1.2042 -1.0113  0.0992
   93CHL1  H26C 9358   4.349   6.836   8.198  1.5564 -0.5257 -1.1001
   93CHL1   C27 9359   4.633   6.998   8.335  0.1341 -0.9761 -0.0934
   93CHL1  H27A 9360   4.581   7.065   8.406  3.0439 -0.6586  1.9253
   93CHL1  H27B 9361   4.689   6.917   8.387 -0.5039 -1.2393  0.1998
   93CHL1  H27C 9362   4.707   7.067   8.289 -0.6465  0.6975  1.0951
   94CHL1    C3 9363   2.270   2.728   6.984  0.1589  0.4174  0.9731
   94CHL1    H3 9364   2.380   2.744   6.980  0.6374 -2.3077  1.0589
   94CHL1    O3 9365   2.231   2.692   6.852  0.3036  0.1570 -0.2526
   94CHL1   H3' 9366   2.228   2.776   6.805  1.0693 -0.1996 -0.9671
   94CHL1    C4 9367   2.236   2.611   7.068  0.1130  0.2058 -0.1376
   94CHL1   H4A 9368   2.127   2.594   7.054 -0.5677  3.3475  0.4721
   94CHL1   H4B 9369   2.290   2.527   7.021  0.4570  1.1346 -1.4392
   94CHL1    C5 9370   2.263   2.646   7.216 -0.5368  0.0265  0.0827
   94CHL1    C6 9371   2.355   2.575   7.287 -0.0516  0.1234 -0.5934
   94CHL1    H6 9372   2.417   2.500   7.236 -0.3079 -1.2399  1.0100
   94CHL1    C7 9373   2.380   2.606   7.434 -0.0955  0.6502  0.4926
   94CHL1   H7A 9374   2.412   2.515   7.489 -1.6789 -1.5378 -1.9881
   94CHL1   H7B 9375   2.463   2.680   7.437  1.1360 -0.7107  1.2933
   94CHL1    C8 9376   2.267   2.680   7.506 -0.8942  0.0130  0.6010
   94CHL1    H8 9377   2.185   2.606   7.522 -2.2790  1.5629  1.0006
   94CHL1   C14 9378   2.307   2.733   7.641 -0.0830 -0.2370  0.5069
   94CHL1   H14 9379   2.394   2.794   7.609  2.1739 -2.3866  2.1426
   94CHL1   C15 9380   2.359   2.632   7.743  0.2727 -0.0884 -0.3328
   94CHL1  H15A 9381   2.287   2.548   7.731  0.1984 -0.0218 -0.3472
   94CHL1  H15B 9382   2.465   2.598   7.742  0.5169  0.6681 -0.4484
   94CHL1   C16 9383   2.348   2.710   7.877  0.0087  0.1318 -0.0480
   94CHL1  H16A 9384   2.278   2.652   7.941  2.0608 -2.5135 -0.0308
   94CHL1  H16B 9385   2.447   2.717   7.926  0.7879  5.4347 -1.7380
   94CHL1   C17 9386   2.296   2.847   7.845  0.3229 -0.4901  0.1016
   94CHL1   H17 9387   2.386   2.907   7.820 -0.8353  0.7701 -1.2627
   94CHL1   C13 9388   2.215   2.826   7.721  1.2424 -0.0334  0.2814
   94CHL1   C18 9389   2.079   2.755   7.753 -0.5696 -0.1761 -0.0152
   94CHL1  H18A 9390   2.027   2.717   7.662  0.1421 -1.6544  0.1623
   94CHL1  H18B 9391   2.097   2.662   7.812 -0.2757 -0.7554 -0.9948
   94CHL1  H18C 9392   2.011   2.827   7.802  1.0139  0.3510  1.4894
   94CHL1   C12 9393   2.188   2.951   7.635  0.1106  0.6055 -0.4018
   94CHL1  H12A 9394   2.113   3.017   7.684 -3.0923 -2.8621 -0.1793
   94CHL1  H12B 9395   2.284   3.005   7.627  0.1466  0.9370  1.8343
   94CHL1   C11 9396   2.136   2.911   7.494  0.7152  0.3868  0.3262
   94CHL1  H11A 9397   2.029   2.882   7.502  0.8492  0.4303  3.3584
   94CHL1  H11B 9398   2.138   3.002   7.430 -0.8800  2.7626  3.3673
   94CHL1    C9 9399   2.224   2.804   7.419  0.2755 -0.0055  0.2782
   94CHL1    H9 9400   2.321   2.857   7.404  0.6465  0.1173  2.7246
   94CHL1   C10 9401   2.184   2.768   7.274  0.5807  0.7025 -0.0276
   94CHL1   C19 9402   2.025   2.732   7.269 -0.7347 -0.2860 -0.8736
   94CHL1  H19A 9403   1.971   2.821   7.306 -1.2475 -0.6032 -0.8437
   94CHL1  H19B 9404   1.993   2.708   7.165 -1.2676 -1.3759 -0.4736
   94CHL1  H19C 9405   1.998   2.646   7.335 -1.7879 -1.7422 -3.0482
   94CHL1    C1 9406   2.221   2.889   7.180  0.7976  0.9223  0.0427
   94CHL1   H1A 9407   2.162   2.982   7.195 -1.2385 -0.3113 -0.0602
   94CHL1   H1B 9408   2.329   2.913   7.195  0.3820  1.7313  1.9155
   94CHL1    C2 9409   2.200   2.856   7.023 -0.6696  0.5238 -0.1740
   94CHL1   H2A 9410   2.219   2.938   6.952  1.8648 -0.4641 -0.7529
   94CHL1   H2B 9411   2.091   2.835   7.016 -0.6360  0.1694  0.2840
   94CHL1   C20 9412   2.242   2.917   7.967  0.1075 -0.5425 -0.3444
   94CHL1   H20 9413   2.143   2.876   7.998  0.0681  0.6000  1.1407
   94CHL1   C21 9414   2.221   3.062   7.933 -0.0757  0.3130  0.2115
   94CHL1  H21A 9415   2.314   3.104   7.889  0.1001  0.5446  0.7937
   94CHL1  H21B 9416   2.196   3.126   8.020  1.0477  1.2604 -0.1288
   94CHL1  H21C 9417   2.135   3.076   7.864 -1.0182  1.2937  1.5393
   94CHL1   C22 9418   2.348   2.897   8.076  0.9625  0.5925  0.4620
   94CHL1  H22A 9419   2.345   2.792   8.110 -2.1515  0.2764 -0.4469
   94CHL1  H22B 9420   2.448   2.935   8.047  0.8593  0.2650 -0.3363
   94CHL1   C23 9421   2.319   2.981   8.204  0.1113 -0.6844 -0.1871
   94CHL1  H23A 9422   2.349   3.083   8.172  1.2007 -1.7825 -2.9918
   94CHL1  H23B 9423   2.210   2.979   8.228  0.1527 -1.7487 -0.0530
   94CHL1   C24 9424   2.404   2.939   8.323 -0.3057 -0.1533  0.1515
   94CHL1  H24A 9425   2.396   2.831   8.350  2.1979 -0.2874  0.5890
   94CHL1  H24B 9426   2.510   2.960   8.296 -0.4471  1.5219  0.7986
   94CHL1   C25 9427   2.369   3.023   8.452 -0.3649  0.2276 -0.3792
   94CHL1   H25 9428   2.456   3.006   8.519  0.6612  1.4343 -1.3545
   94CHL1   C26 9429   2.377   3.173   8.446 -0.6751  0.0273 -0.1475
   94CHL1  H26A 9430   2.279   3.201   8.401 -0.3019  0.3984 -0.7494
   94CHL1  H26B 9431   2.393   3.211   8.549 -1.0841  1.0709 -0.4561
   94CHL1  H26C 9432   2.464   3.205   8.384 -0.9453  0.9172 -0.0853
   94CHL1   C27 9433   2.244   2.976   8.531 -0.6406 -0.2539  0.2999
   94CHL1  H27A 9434   2.233   3.045   8.618 -0.6261 -0.3341  0.3637
   94CHL1  H27B 9435   2.155   2.987   8.466 -1.4527 -0.5507  1.3343
   94CHL1  H27C 9436   2.259   2.874   8.571  1.1899 -0.2213 -0.2157
   95CHL1    C3 9437   1.724   0.821   6.729 -0.3652  0.3087  0.8527
   95CHL1    H3 9438   1.814   0.886   6.730  0.2543 -0.3255 -2.3827
   95CHL1    O3 9439   1.709   0.786   6.587 -0.5280  0.1015 -0.0567
   95CHL1   H3' 9440   1.623   0.742   6.584 -1.1798  1.2085  1.1365
   95CHL1    C4 9441   1.754   0.682   6.798  0.4776 -0.1934  0.1414
   95CHL1   H4A 9442   1.681   0.606   6.764  1.1296 -0.8178  0.1074
   95CHL1   H4B 9443   1.848   0.652   6.746  0.4948  0.5915 -0.3032
   95CHL1    C5 9444   1.754   0.707   6.951  0.8577 -0.4557 -0.4457
   95CHL1    C6 9445   1.857   0.658   7.016 -0.3104 -0.2804  0.0224
   95CHL1    H6 9446   1.930   0.592   6.966 -1.4665 -1.4926 -0.1091
   95CHL1    C7 9447   1.886   0.665   7.162 -0.4784 -0.3074 -0.3487
   95CHL1   H7A 9448   1.912   0.568   7.209 -0.0746 -0.9234 -1.7744
   95CHL1   H7B 9449   1.971   0.735   7.180 -0.0860 -0.5474 -1.2042
   95CHL1    C8 9450   1.769   0.722   7.239  0.2111  0.0046  0.3184
   95CHL1    H8 9451   1.698   0.637   7.254 -0.0679 -0.0756 -1.2227
   95CHL1   C14 9452   1.821   0.767   7.367  0.2866 -1.2985 -0.4964
   95CHL1   H14 9453   1.882   0.857   7.345 -0.1088 -1.1839 -1.1677
   95CHL1   C15 9454   1.909   0.672   7.448 -0.2323 -0.6074 -0.2819
   95CHL1  H15A 9455   1.872   0.568   7.438  0.4046 -0.8950  0.3032
   95CHL1  H15B 9456   2.018   0.687   7.435 -0.7767  2.5823 -2.3355
   95CHL1   C16 9457   1.885   0.705   7.597  0.2219 -0.3980  0.2489
   95CHL1  H16A 9458   1.843   0.612   7.643  1.8078 -1.1941  0.1730
   95CHL1  H16B 9459   1.975   0.736   7.654  0.6006 -1.7760  0.4285
   95CHL1   C17 9460   1.778   0.821   7.603 -0.0757  0.7375 -0.0565
   95CHL1   H17 9461   1.837   0.915   7.609  0.0561  0.7567 -1.3900
   95CHL1   C13 9462   1.705   0.810   7.462 -0.8631 -0.1652  0.2714
   95CHL1   C18 9463   1.599   0.704   7.469  0.5331  0.7383 -0.2493
   95CHL1  H18A 9464   1.655   0.610   7.493  0.2669  0.9588  1.3896
   95CHL1  H18B 9465   1.525   0.714   7.551 -3.0744  0.9270 -3.2903
   95CHL1  H18C 9466   1.527   0.683   7.388 -0.2925  0.2146  0.5966
   95CHL1   C12 9467   1.644   0.937   7.398 -0.6943 -0.1647 -0.0798
   95CHL1  H12A 9468   1.562   0.973   7.464  0.7773 -0.8194  2.2655
   95CHL1  H12B 9469   1.713   1.024   7.398 -0.4045 -0.3894  0.2493
   95CHL1   C11 9470   1.586   0.902   7.261 -0.1185 -0.6966 -0.0611
   95CHL1  H11A 9471   1.490   0.847   7.270 -2.3827  2.9276  0.0088
   95CHL1  H11B 9472   1.543   0.987   7.205  1.4006 -1.0911 -1.9331
   95CHL1    C9 9473   1.693   0.833   7.163  0.2341 -0.4505  0.0228
   95CHL1    H9 9474   1.762   0.918   7.140 -0.2032 -0.7242 -2.5565
   95CHL1   C10 9475   1.644   0.789   7.023 -0.6298  0.5304  0.2679
   95CHL1   C19 9476   1.511   0.700   7.040 -0.5270  0.5366  0.4544
   95CHL1  H19A 9477   1.544   0.612   7.100  1.4992  1.0043  0.1001
   95CHL1  H19B 9478   1.434   0.756   7.096  0.0508  2.7048 -0.7831
   95CHL1  H19C 9479   1.472   0.672   6.940  0.4928 -0.3622  0.2867
   95CHL1    C1 9480   1.603   0.919   6.943 -0.1259  0.4700 -0.5550
   95CHL1   H1A 9481   1.511   0.964   6.984  0.4657  1.1793  0.0192
   95CHL1   H1B 9482   1.693   0.984   6.952 -0.2704  0.5718  0.2246
   95CHL1    C2 9483   1.597   0.883   6.788  0.6149 -0.9804  0.3114
   95CHL1   H2A 9484   1.585   0.983   6.742  0.2067 -1.5801 -0.9323
   95CHL1   H2B 9485   1.508   0.820   6.764  1.0527 -1.5039  0.0450
   95CHL1   C20 9486   1.706   0.836   7.732 -0.4812  0.7512 -0.4245
   95CHL1   H20 9487   1.627   0.759   7.738  0.3606 -0.2611 -1.8261
   95CHL1   C21 9488   1.648   0.979   7.740  0.6830 -0.2023  0.1889
   95CHL1  H21A 9489   1.609   0.996   7.842  0.5635 -1.3787  0.3510
   95CHL1  H21B 9490   1.566   0.996   7.667  1.0059  0.0723 -0.1200
   95CHL1  H21C 9491   1.718   1.059   7.707 -1.6565  1.9900  0.2868
   95CHL1   C22 9492   1.781   0.809   7.864 -0.1899  0.0569 -0.1663
   95CHL1  H22A 9493   1.712   0.815   7.951  0.3668  0.8625  0.2336
   95CHL1  H22B 9494   1.824   0.707   7.865  0.1048  0.1821  0.0330
   95CHL1   C23 9495   1.890   0.920   7.890  0.5569 -0.1982 -0.8832
   95CHL1  H23A 9496   1.959   0.919   7.804 -1.1559  0.0678 -2.3179
   95CHL1  H23B 9497   1.839   1.018   7.877  1.4301  0.2201 -1.1628
   95CHL1   C24 9498   1.963   0.911   8.030 -0.6945  0.2558  0.2221
   95CHL1  H24A 9499   2.002   0.807   8.031 -1.5721 -0.0900 -0.5429
   95CHL1  H24B 9500   2.049   0.978   8.012 -1.2664  1.2213  1.0189
   95CHL1   C25 9501   1.888   0.959   8.157  0.2475 -0.1413  0.4894
   95CHL1   H25 9502   1.794   0.900   8.150  0.5688 -0.5054 -4.8321
   95CHL1   C26 9503   1.968   0.907   8.274  0.0879 -0.3733 -0.1690
   95CHL1  H26A 9504   1.924   0.931   8.374  1.5502  1.1246  0.1786
   95CHL1  H26B 9505   1.967   0.797   8.260 -0.0558 -0.4760  0.5897
   95CHL1  H26C 9506   2.070   0.952   8.277 -0.7553  1.6464  1.0392
   95CHL1   C27 9507   1.871   1.103   8.157  0.5487  0.0159 -0.3048
   95CHL1  H27A 9508   1.968   1.147   8.125  0.8862 -0.7150 -0.3170
   95CHL1  H27B 9509   1.792   1.128   8.084  0.6893  1.1727 -0.0714
   95CHL1  H27C 9510   1.848   1.129   8.262  0.7519  0.3889 -0.3536
   96CHL1    C3 9511   1.973   0.300   6.688 -0.3511 -0.9629  0.3550
   96CHL1    H3 9512   1.883   0.356   6.720 -0.0271 -0.4988  0.4688
   96CHL1    O3 9513   1.943   0.256   6.560 -0.8001 -0.1681  0.3295
   96CHL1   H3' 9514   1.982   0.168   6.559 -0.9877 -0.2508 -0.8242
   96CHL1    C4 9515   2.102   0.381   6.690 -0.2954 -0.0163 -0.1161
   96CHL1   H4A 9516   2.190   0.325   6.652 -0.1090  0.0183  0.2629
   96CHL1   H4B 9517   2.096   0.466   6.619 -2.6520  0.4495  0.5647
   96CHL1    C5 9518   2.151   0.429   6.828  0.4207  0.0709  0.5916
   96CHL1    C6 9519   2.169   0.559   6.861  0.0298  0.3420 -0.3586
   96CHL1    H6 9520   2.160   0.628   6.776 -0.3136 -1.4909 -1.8735
   96CHL1    C7 9521   2.223   0.610   6.992  0.2325 -0.2970  0.0211
   96CHL1   H7A 9522   2.307   0.681   6.979 -0.9416  1.0659 -0.2980
   96CHL1   H7B 9523   2.137   0.670   7.029  0.2849  0.0406 -0.4017
   96CHL1    C8 9524   2.270   0.493   7.084 -0.7782 -0.2731 -0.2166
   96CHL1    H8 9525   2.368   0.464   7.041 -0.1828 -2.4692  2.3943
   96CHL1   C14 9526   2.283   0.546   7.234  1.0137  0.4242  0.3246
   96CHL1   H14 9527   2.180   0.573   7.265 -0.4690 -3.3934 -0.7676
   96CHL1   C15 9528   2.370   0.668   7.258  0.3807 -0.2323 -0.6725
   96CHL1  H15A 9529   2.466   0.651   7.205  1.8517  1.4695  1.2970
   96CHL1  H15B 9530   2.326   0.762   7.219 -0.4254  0.1723  1.1107
   96CHL1   C16 9531   2.398   0.665   7.412 -0.6443 -0.1703  0.2127
   96CHL1  H16A 9532   2.508   0.649   7.425  0.4399  3.1622 -3.0440
   96CHL1  H16B 9533   2.361   0.756   7.464 -0.1678 -0.6329  1.3868
   96CHL1   C17 9534   2.326   0.536   7.463  0.0240  0.8486  0.2552
   96CHL1   H17 9535   2.224   0.571   7.491  0.0411  1.4742 -0.4219
   96CHL1   C13 9536   2.323   0.440   7.343 -0.3918  0.2053  0.0602
   96CHL1   C18 9537   2.468   0.398   7.304 -0.3409  0.1641 -0.4729
   96CHL1  H18A 9538   2.470   0.357   7.201 -1.3469 -0.0332 -0.4250
   96CHL1  H18B 9539   2.543   0.479   7.318  1.0595 -0.6034 -2.8569
   96CHL1  H18C 9540   2.493   0.313   7.371  1.5178 -0.3982 -1.8078
   96CHL1   C12 9541   2.217   0.328   7.330  0.2414 -0.6109 -0.2143
   96CHL1  H12A 9542   2.259   0.254   7.401 -0.2340 -0.9603 -0.2919
   96CHL1  H12B 9543   2.120   0.366   7.369 -0.6698 -2.9428 -0.0620
   96CHL1   C11 9544   2.201   0.272   7.190 -0.0845 -0.5651  0.5315
   96CHL1  H11A 9545   2.303   0.231   7.176 -0.0094 -0.1602 -0.1902
   96CHL1  H11B 9546   2.123   0.194   7.176 -0.2298 -0.6173  1.5648
   96CHL1    C9 9547   2.174   0.377   7.076 -0.0540  0.4230  0.1090
   96CHL1    H9 9548   2.077   0.423   7.102  0.7724  1.7852  0.8589
   96CHL1   C10 9549   2.167   0.318   6.931  0.4194  0.1003  0.5580
   96CHL1   C19 9550   2.290   0.230   6.892  0.4411 -0.7903 -0.1232
   96CHL1  H19A 9551   2.272   0.178   6.795  1.4603  0.3736 -0.9871
   96CHL1  H19B 9552   2.377   0.296   6.870  1.1340 -2.0036 -1.1372
   96CHL1  H19C 9553   2.326   0.154   6.964  2.4012  0.1282 -0.0538
   96CHL1    C1 9554   2.039   0.213   6.933  0.0820 -0.0699 -0.4428
   96CHL1   H1A 9555   2.076   0.115   6.970  2.2886 -0.1431 -2.5631
   96CHL1   H1B 9556   1.954   0.244   6.997  1.4855  0.3599  1.2864
   96CHL1    C2 9557   1.986   0.176   6.789  0.8531 -0.4238  0.4667
   96CHL1   H2A 9558   1.887   0.125   6.786  0.4452  0.3812 -2.0297
   96CHL1   H2B 9559   2.063   0.110   6.745  1.0585 -0.4399  0.8478
   96CHL1   C20 9560   2.389   0.478   7.590 -0.4220 -0.0903 -0.3542
   96CHL1   H20 9561   2.472   0.410   7.561  0.6815  0.9999  0.1635
   96CHL1   C21 9562   2.273   0.393   7.659 -0.3463  0.3407 -0.0817
   96CHL1  H21A 9563   2.301   0.344   7.755 -0.2924 -0.4057 -0.4726
   96CHL1  H21B 9564   2.235   0.311   7.594 -3.4690  2.7668 -1.5954
   96CHL1  H21C 9565   2.190   0.463   7.684  0.6188  2.2309 -1.8208
   96CHL1   C22 9566   2.450   0.581   7.694 -0.2505  0.1637  0.4814
   96CHL1  H22A 9567   2.476   0.514   7.778 -1.5184 -0.6590  0.2481
   96CHL1  H22B 9568   2.542   0.626   7.652 -0.0272 -0.7144  0.0221
   96CHL1   C23 9569   2.356   0.692   7.749  0.0790  0.3582 -0.4171
   96CHL1  H23A 9570   2.319   0.765   7.674  0.0280  2.5129  1.5901
   96CHL1  H23B 9571   2.275   0.628   7.792  2.2747 -0.8835  2.2209
   96CHL1   C24 9572   2.418   0.766   7.863 -0.3915 -0.7782 -0.9230
   96CHL1  H24A 9573   2.448   0.697   7.945  1.1695 -0.1409 -0.9178
   96CHL1  H24B 9574   2.506   0.825   7.830  0.6135  0.0943  2.7906
   96CHL1   C25 9575   2.332   0.875   7.931 -0.3535 -0.3656  0.6391
   96CHL1   H25 9576   2.233   0.834   7.958 -2.6568  4.1911  0.1253
   96CHL1   C26 9577   2.396   0.936   8.058  0.6735  0.2144 -0.5594
   96CHL1  H26A 9578   2.434   0.858   8.127 -0.4967 -0.0980 -0.2467
   96CHL1  H26B 9579   2.484   0.997   8.029  0.5270 -0.3593 -2.3113
   96CHL1  H26C 9580   2.317   0.997   8.106 -0.2588 -2.2331  1.2127
   96CHL1   C27 9581   2.280   0.980   7.836 -0.7575 -0.5286 -0.0493
   96CHL1  H27A 9582   2.248   0.930   7.742  4.8038 -1.9663 -1.6043
   96CHL1  H27B 9583   2.200   1.046   7.876 -0.5499  0.1026 -0.6563
   96CHL1  H27C 9584   2.359   1.053   7.808 -2.3074  0.6372 -1.6146
   97OSM      N 9585   5.357   1.558  11.214 -0.0452  0.1660  0.0561
   97OSM    C15 9586   5.417   1.422  11.247 -0.0200  0.8006 -0.4954
   97OSM   H15A 9587   5.518   1.402  11.213 -0.4048 -1.2045 -0.5790
   97OSM   H15B 9588   5.350   1.341  11.226  1.0607 -0.2853  0.1347
   97OSM   H15C 9589   5.432   1.423  11.354  0.2369 -2.5041 -0.4181
   97OSM    C14 9590   5.300   1.556  11.066  0.3528 -0.1355 -0.5255
   97OSM   H14A 9591   5.369   1.494  11.010  2.7761  0.8051  1.2343
   97OSM   H14B 9592   5.294   1.656  11.026 -0.2002 -1.1061 -3.0831
   97OSM   H14C 9593   5.200   1.517  11.075  1.2690 -2.4393  0.2625
   97OSM    C13 9594   5.259   1.603  11.310  1.0933 -0.1433 -0.0919
   97OSM   H13A 9595   5.181   1.529  11.310 -1.2902  2.2024 -1.8800
   97OSM   H13B 9596   5.201   1.689  11.282 -1.7687 -1.2660  1.9181
   97OSM   H13C 9597   5.301   1.618  11.409  1.8260 -0.6958 -0.3110
   97OSM    C12 9598   5.474   1.657  11.215 -0.0741  0.6214 -0.2551
   97OSM   H12A 9599   5.519   1.659  11.117  1.5571  1.6130  0.4879
   97OSM   H12B 9600   5.546   1.634  11.292 -0.9742 -0.2252  0.3660
   97OSM    C11 9601   5.433   1.804  11.232  0.2241  0.0888 -0.3594
   97OSM   H11A 9602   5.529   1.855  11.255  0.4002 -0.3839 -0.0382
   97OSM   H11B 9603   5.374   1.829  11.323 -0.7438  2.1802 -1.4846
   97OSM      P 9604   5.375   2.012  11.077 -0.0990 -0.3527 -0.0530
   97OSM    O13 9605   5.236   2.064  11.060 -0.4129 -0.1557  0.0260
   97OSM    O14 9606   5.463   2.063  11.184  0.2422  0.2207  0.0953
   97OSM    O11 9607   5.444   1.994  10.940  0.0622 -0.4264 -0.0833
   97OSM    O12 9608   5.352   1.860  11.122  0.3416  0.6050  0.2231
   97OSM    C1S 9609   5.453   1.871  10.864  0.1339  0.4126 -0.3431
   97OSM    H1S 9610   5.409   1.785  10.920 -0.6560 -0.2160 -1.8838
   97OSM    H1T 9611   5.560   1.840  10.868 -0.3394 -1.3955 -0.6256
   97OSM     NF 9612   5.372   1.738  10.682  0.3180  0.3980  0.1890
   97OSM    HNF 9613   5.425   1.705  10.604 -0.7108  1.4343 -0.9975
   97OSM    C2S 9614   5.394   1.876  10.719  0.6643 -0.2722 -0.9171
   97OSM    H2S 9615   5.297   1.931  10.721  0.7303 -0.1727 -0.3925
   97OSM    C3S 9616   5.503   1.957  10.636  0.1230  0.3317 -0.2997
   97OSM    H3S 9617   5.606   1.915  10.637  0.1547  0.4123 -0.2482
   97OSM     O3 9618   5.520   2.090  10.692  0.1129  0.5782 -0.0881
   97OSM    HO3 9619   5.483   2.083  10.781  0.0723  0.5434 -0.1071
   97OSM    C4S 9620   5.455   1.976  10.496 -0.5525  0.8995  0.9339
   97OSM    H4S 9621   5.377   2.052  10.479 -1.4379 -0.4824 -1.8629
   97OSM    C5S 9622   5.495   1.908  10.390  0.1187  0.3431  0.1729
   97OSM    H5S 9623   5.561   1.821  10.404 -2.2022 -1.3535  1.1769
   97OSM    C6S 9624   5.436   1.931  10.256 -1.0531 -0.6173 -0.3025
   97OSM    H6S 9625   5.385   2.030  10.246 -0.6108 -0.5657 -2.7283
   97OSM    H6T 9626   5.362   1.848  10.253 -1.9556  0.1879 -1.2203
   97OSM    C7S 9627   5.530   1.927  10.138 -0.1228 -0.6306  0.6035
   97OSM    H7S 9628   5.582   1.829  10.138  1.9116  0.3535  2.6754
   97OSM    H7T 9629   5.612   2.001  10.151  0.9276 -1.1316 -2.5279
   97OSM    C8S 9630   5.452   1.948  10.007  0.0562  0.3485  0.3806
   97OSM    H8S 9631   5.404   2.048  10.018  0.5882  0.3694  3.3512
   97OSM    H8T 9632   5.373   1.874   9.981  0.0877  0.1496  0.8414
   97OSM    C9S 9633   5.552   1.956   9.888  0.4307  0.0662 -0.2773
   97OSM    H9S 9634   5.576   1.858   9.841  0.4493  0.2759 -0.7133
   97OSM    H9T 9635   5.641   2.003   9.936 -0.9949  2.1873  0.4269
   97OSM   C10S 9636   5.516   2.045   9.777  0.4439 -0.0805  0.0325
   97OSM   H10S 9637   5.477   2.139   9.822 -2.3248 -2.0011  2.0129
   97OSM   H10T 9638   5.433   1.999   9.719  1.7189 -0.2764 -1.6940
   97OSM   C11S 9639   5.637   2.068   9.691  0.2354 -0.0169  0.7918
   97OSM   H11S 9640   5.725   2.095   9.754 -0.6257  0.7403  1.7154
   97OSM   H11T 9641   5.628   2.158   9.627  0.6051 -0.5720 -0.0565
   97OSM   C12S 9642   5.670   1.955   9.598  0.6368  1.1218 -0.0720
   97OSM   H12S 9643   5.587   1.944   9.525 -0.0275 -0.3372  0.8591
   97OSM   H12T 9644   5.689   1.854   9.641  3.5535  1.0085 -1.3911
   97OSM   C13S 9645   5.797   1.989   9.516  0.3221  0.7446 -0.5103
   97OSM   H13S 9646   5.839   1.899   9.466 -2.8396 -1.7169  0.8278
   97OSM   H13T 9647   5.870   2.019   9.594 -0.1186 -1.7860  1.0251
   97OSM   C14S 9648   5.793   2.095   9.406  0.4950  0.3024  0.4003
   97OSM   H14S 9649   5.836   2.192   9.442  3.8567  0.2941 -2.9227
   97OSM   H14T 9650   5.684   2.114   9.408  0.3112 -0.7855  1.2355
   97OSM   C15S 9651   5.869   2.043   9.280  0.3140  0.9034  0.4428
   97OSM   H15S 9652   5.850   1.936   9.261 -2.6332  0.8528  2.9051
   97OSM   H15T 9653   5.977   2.055   9.302  0.1274  1.8740  0.9048
   97OSM   C16S 9654   5.834   2.126   9.154  1.0012 -0.7254  0.1719
   97OSM   H16S 9655   5.864   2.230   9.177  0.2482 -0.2741 -0.8052
   97OSM   H16T 9656   5.725   2.125   9.132  0.7491  3.1917  0.6092
   97OSM   C17S 9657   5.904   2.088   9.021  0.5199 -0.7138  0.2004
   97OSM   H17S 9658   5.855   1.994   8.990 -1.6222  0.2917  0.3422
   97OSM   H17T 9659   6.013   2.068   9.031  1.3466  2.1679 -1.5865
   97OSM   C18S 9660   5.869   2.192   8.911 -0.4587 -0.4601  0.2964
   97OSM   H18S 9661   5.951   2.265   8.903 -0.1418 -0.9055 -0.7601
   97OSM   H18T 9662   5.779   2.246   8.949 -1.1698 -0.9447 -0.6444
   97OSM   H18U 9663   5.852   2.150   8.809 -1.4856  0.0098  0.2658
   97OSM    C1F 9664   5.273   1.658  10.715 -0.0381  0.5562 -0.2136
   97OSM     OF 9665   5.174   1.702  10.774 -0.5106  0.1680 -0.1237
   97OSM    C2F 9666   5.281   1.516  10.661 -0.2320 -0.0358  0.7827
   97OSM    H2F 9667   5.275   1.440  10.742  1.2308  0.5431  1.4722
   97OSM    H2G 9668   5.381   1.490  10.620  1.2263  1.9004  2.9037
   97OSM    C3F 9669   5.160   1.490  10.565  0.0759 -0.1119  0.8205
   97OSM    H3F 9670   5.069   1.541  10.604  0.1496  0.7066 -0.0317
   97OSM    H3G 9671   5.146   1.381  10.552 -0.3631 -0.0892  1.0748
   97OSM    C4F 9672   5.179   1.545  10.423 -0.1105  0.5052  0.0342
   97OSM    H4F 9673   5.249   1.485  10.361  0.9053  2.7936 -1.1335
   97OSM    H4G 9674   5.214   1.650  10.413  2.2772 -0.3118 -0.7545
   97OSM    C5F 9675   5.038   1.537  10.349  0.2480 -0.0339  0.1400
   97OSM    H5F 9676   4.960   1.592  10.408 -0.3175 -2.0708  1.3736
   97OSM    H5G 9677   4.994   1.437  10.365  1.3373 -0.3553  1.3264
   97OSM    C6F 9678   5.037   1.567  10.198 -0.3525  0.1106  0.7123
   97OSM    H6F 9679   5.122   1.506  10.161 -0.3123  1.0032 -0.7817
   97OSM    H6G 9680   5.064   1.670  10.166 -1.5060 -0.2437 -1.6279
   97OSM    C7F 9681   4.924   1.511  10.117  0.8064  0.1508  0.6679
   97OSM    H7F 9682   4.825   1.556  10.143 -1.2254 -0.2966 -4.9996
   97OSM    H7G 9683   4.929   1.403  10.144  0.5053  0.1850  0.8715
   97OSM    C8F 9684   4.939   1.543   9.963 -0.3903  0.2793 -0.8771
   97OSM    H8F 9685   4.951   1.654   9.960 -1.7516  0.5778  1.8197
   97OSM    H8G 9686   4.842   1.518   9.915 -0.1147 -0.4665 -1.0559
   97OSM    C9F 9687   5.042   1.462   9.893 -0.3114  0.1003  0.3801
   97OSM    H9F 9688   5.001   1.362   9.871  1.1359  0.0489 -2.6429
   97OSM   C10F 9689   5.157   1.503   9.841 -0.3281 -0.0901 -0.4504
   97OSM   H10F 9690   5.225   1.433   9.791 -1.3351  1.1883 -3.8787
   97OSM   C11F 9691   5.222   1.638   9.860 -0.6481 -0.5706  0.2077
   97OSM   H11F 9692   5.320   1.627   9.910 -1.2936  0.7768  1.8838
   97OSM   H11G 9693   5.157   1.706   9.919 -0.1490  1.1679 -1.1521
   97OSM   C12F 9694   5.238   1.711   9.728  0.1837 -0.5844 -0.0324
   97OSM   H12F 9695   5.238   1.822   9.730 -1.1112 -0.4935 -2.1535
   97OSM   H12G 9696   5.150   1.699   9.661 -0.6446 -0.2133  0.9581
   97OSM   C13F 9697   5.359   1.673   9.644  0.0142  0.2850  0.4238
   97OSM   H13F 9698   5.391   1.566   9.653  0.3672  0.3200 -0.3328
   97OSM   H13G 9699   5.451   1.725   9.678  0.0820  1.2264 -1.1020
   97OSM   C14F 9700   5.353   1.700   9.492  0.0449 -0.2234 -0.2995
   97OSM   H14F 9701   5.356   1.810   9.479  0.1194 -0.3848 -1.8376
   97OSM   H14G 9702   5.264   1.660   9.438  1.7079 -2.2040 -1.7511
   97OSM   C15F 9703   5.474   1.664   9.408  0.4373  0.0035 -0.2472
   97OSM   H15F 9704   5.460   1.558   9.380 -0.0914  0.3525 -1.4020
   97OSM   H15G 9705   5.568   1.675   9.466  0.9389 -0.2022 -1.0017
   97OSM   C16F 9706   5.496   1.738   9.276  0.4368 -0.0288  0.3211
   97OSM   H16F 9707   5.499   1.847   9.300 -1.9184  0.1218  0.1483
   97OSM   H16G 9708   5.408   1.727   9.208  1.2021 -0.9233 -0.5575
   97OSM   C17F 9709   5.623   1.688   9.210  0.1283  0.0010 -0.6361
   97OSM   H17F 9710   5.611   1.583   9.175 -0.8267 -0.4615  0.9812
   97OSM   H17G 9711   5.704   1.695   9.286 -1.5241  0.5818  1.1425
   97OSM   C18F 9712   5.660   1.769   9.090 -0.2139  0.6999 -0.0886
   97OSM   H18F 9713   5.762   1.752   9.049 -0.8889 -0.2563 -1.4186
   97OSM   H18G 9714   5.665   1.874   9.128 -0.3645  0.4584  0.6139
   97OSM   H18H 9715   5.594   1.750   9.003  2.0095  1.3030 -2.0267
   98OSM      N 9716   6.586   3.654  10.920 -0.0670  0.3609  0.1905
   98OSM    C15 9717   6.586   3.781  10.991 -0.5458  0.1079  0.1762
   98OSM   H15A 9718   6.571   3.862  10.922 -0.3068  1.2386  1.4036
   98OSM   H15B 9719   6.684   3.802  11.032 -1.2029  0.8485  1.4132
   98OSM   H15C 9720   6.506   3.786  11.063  1.1735  0.8847  2.1460
   98OSM    C14 9721   6.683   3.667  10.797 -0.1073 -0.8383 -0.2824
   98OSM   H14A 9722   6.780   3.694  10.835 -1.2645  2.1630  0.7816
   98OSM   H14B 9723   6.661   3.747  10.728  0.3911 -1.0782 -0.7255
   98OSM   H14C 9724   6.688   3.575  10.740  1.1471 -0.5387 -0.6757
   98OSM    C13 9725   6.638   3.549  11.012 -0.6244 -0.3264 -0.0313
   98OSM   H13A 9726   6.573   3.551  11.099 -0.1983  0.4646  0.2815
   98OSM   H13B 9727   6.742   3.564  11.038 -0.4951 -0.7356 -0.3179
   98OSM   H13C 9728   6.642   3.456  10.959  0.8332 -0.0295 -0.4798
   98OSM    C12 9729   6.452   3.622  10.866 -0.2160 -0.1961 -0.5545
   98OSM   H12A 9730   6.413   3.710  10.816  0.0826 -0.2306 -0.8541
   98OSM   H12B 9731   6.384   3.594  10.945  1.7058 -1.8912  0.5784
   98OSM    C11 9732   6.448   3.502  10.764  0.6624  0.1193 -0.1763
   98OSM   H11A 9733   6.481   3.540  10.665  3.4037 -0.4005  0.4506
   98OSM   H11B 9734   6.343   3.474  10.742 -0.5107  2.6206  1.7248
   98OSM      P 9735   6.606   3.301  10.716  0.0413 -0.1128 -0.5196
   98OSM    O13 9736   6.740   3.360  10.726  0.4640  0.2149  0.0255
   98OSM    O14 9737   6.595   3.158  10.742  0.6311  0.6407  0.0155
   98OSM    O11 9738   6.558   3.328  10.568  0.3868 -0.4838  0.3251
   98OSM    O12 9739   6.505   3.381  10.809  0.3916 -0.2612 -0.6947
   98OSM    C1S 9740   6.600   3.245  10.461 -0.8300  0.2807  0.1164
   98OSM    H1S 9741   6.541   3.151  10.458  0.4476 -0.5254 -1.2850
   98OSM    H1T 9742   6.703   3.207  10.476 -0.6990  0.9384  0.9321
   98OSM     NF 9743   6.636   3.219  10.205  0.1798 -0.1475 -1.0116
   98OSM    HNF 9744   6.731   3.197  10.186 -0.0561 -1.6738 -0.5601
   98OSM    C2S 9745   6.604   3.315  10.320 -0.2148 -0.0849 -0.0429
   98OSM    H2S 9746   6.512   3.371  10.294 -0.3820 -1.5409 -2.9868
   98OSM    C3S 9747   6.716   3.421  10.334 -0.4384  0.2434  0.8979
   98OSM    H3S 9748   6.821   3.385  10.331 -1.1013 -1.6832 -0.5264
   98OSM     O3 9749   6.718   3.507  10.445  0.0126 -0.8004  0.4396
   98OSM    HO3 9750   6.660   3.456  10.502 -1.0426  0.6931  0.7412
   98OSM    C4S 9751   6.700   3.505  10.204  0.0923  0.0282 -0.4113
   98OSM    H4S 9752   6.738   3.443  10.122 -0.6702  0.3624 -1.0301
   98OSM    C5S 9753   6.645   3.630  10.191  0.3085 -0.3110  0.3071
   98OSM    H5S 9754   6.615   3.688  10.279  1.5340  1.5286 -0.4347
   98OSM    C6S 9755   6.635   3.699  10.055  0.1450  0.0997  0.2780
   98OSM    H6S 9756   6.535   3.743  10.038  0.3380  0.7661  0.7987
   98OSM    H6T 9757   6.661   3.640   9.965 -0.6335 -0.7754  0.6163
   98OSM    C7S 9758   6.730   3.821  10.053  0.0254 -0.2284 -0.5889
   98OSM    H7S 9759   6.826   3.778  10.018  0.4202  1.1290 -1.2381
   98OSM    H7T 9760   6.740   3.867  10.154 -1.0382 -1.4214  0.0911
   98OSM    C8S 9761   6.695   3.929   9.946 -0.4314  0.3445 -0.7007
   98OSM    H8S 9762   6.765   4.016   9.950 -0.3471  0.2455  2.5065
   98OSM    H8T 9763   6.592   3.968   9.962 -0.8202 -0.0132 -2.1782
   98OSM    C9S 9764   6.711   3.871   9.805 -0.3142  0.7212  0.8864
   98OSM    H9S 9765   6.612   3.832   9.770  0.4965  1.2227 -2.3594
   98OSM    H9T 9766   6.785   3.790   9.792  0.1910  1.3695 -0.5059
   98OSM   C10S 9767   6.761   3.968   9.697 -0.4781 -0.1118  0.1383
   98OSM   H10S 9768   6.865   4.003   9.713 -0.8818  1.9643 -1.2799
   98OSM   H10T 9769   6.704   4.063   9.709 -2.8033 -1.3447 -0.5330
   98OSM   C11S 9770   6.760   3.929   9.541 -0.4957  0.8824 -0.3716
   98OSM   H11S 9771   6.824   3.997   9.480 -1.1881  1.0538 -0.9276
   98OSM   H11T 9772   6.653   3.932   9.511 -1.0330 -0.0654  1.3369
   98OSM   C12S 9773   6.818   3.781   9.514 -0.0220  0.6514 -0.0448
   98OSM   H12S 9774   6.759   3.698   9.556  0.3515 -0.3243 -1.3717
   98OSM   H12T 9775   6.921   3.784   9.556  0.5544 -0.7978 -1.2692
   98OSM   C13S 9776   6.838   3.765   9.360  1.1221  0.1200 -0.0681
   98OSM   H13S 9777   6.903   3.849   9.330  0.0373  1.3795  0.9910
   98OSM   H13T 9778   6.739   3.776   9.311  0.0808  1.4408  2.1635
   98OSM   C14S 9779   6.899   3.625   9.326 -0.3663 -0.4029  0.4171
   98OSM   H14S 9780   7.010   3.624   9.335 -0.0958 -1.4392 -2.2812
   98OSM   H14T 9781   6.896   3.612   9.216 -1.9703  0.9366  0.2543
   98OSM   C15S 9782   6.842   3.499   9.382  0.2388 -0.1478 -0.1070
   98OSM   H15S 9783   6.734   3.522   9.392  0.6271  1.5208  0.5912
   98OSM   H15T 9784   6.883   3.477   9.482  0.3421 -1.6635 -0.4490
   98OSM   C16S 9785   6.851   3.374   9.286 -0.6112  0.1313 -0.3589
   98OSM   H16S 9786   6.800   3.396   9.190 -0.8759 -2.2432 -0.8242
   98OSM   H16T 9787   6.785   3.298   9.333 -0.0032  0.5523  1.2557
   98OSM   C17S 9788   6.991   3.317   9.268  0.4705 -0.0288 -0.1461
   98OSM   H17S 9789   7.034   3.298   9.369  1.4288 -1.3723 -0.7774
   98OSM   H17T 9790   7.054   3.396   9.221 -0.6705  0.7408 -0.4213
   98OSM   C18S 9791   7.006   3.190   9.185 -0.0144 -0.3969  0.6912
   98OSM   H18S 9792   7.106   3.175   9.138  0.2720  2.2892  0.2966
   98OSM   H18T 9793   6.939   3.190   9.097 -1.3167 -0.0498  1.6457
   98OSM   H18U 9794   6.972   3.100   9.241 -0.2197  0.2125  1.5687
   98OSM    C1F 9795   6.548   3.132  10.166  0.8285 -0.0335 -0.5037
   98OSM     OF 9796   6.432   3.125  10.219  0.9556  0.1605 -0.7323
   98OSM    C2F 9797   6.582   3.031  10.055  0.8958  0.6287 -0.1830
   98OSM    H2F 9798   6.588   2.925  10.090 -1.5166  0.2306 -0.8052
   98OSM    H2G 9799   6.686   3.059  10.028  1.2240 -0.3000  0.0792
   98OSM    C3F 9800   6.485   3.031   9.931 -0.1748 -0.0197 -0.0707
   98OSM    H3F 9801   6.450   3.132   9.900  0.3684  0.3202  0.3977
   98OSM    H3G 9802   6.398   2.970   9.962 -0.2776  0.7720  1.2908
   98OSM    C4F 9803   6.564   2.984   9.810  0.5049  0.6053  0.2132
   98OSM    H4F 9804   6.608   2.882   9.821 -1.6045 -0.5529 -1.1592
   98OSM    H4G 9805   6.653   3.044   9.785  1.4966 -0.9294 -0.1137
   98OSM    C5F 9806   6.478   2.977   9.679  0.2821  0.7911 -0.6841
   98OSM    H5F 9807   6.411   3.065   9.678  0.4927  1.1704  3.2741
   98OSM    H5G 9808   6.412   2.888   9.694  0.4456  0.6421 -0.8311
   98OSM    C6F 9809   6.564   2.967   9.553 -0.8734 -0.0449 -0.0596
   98OSM    H6F 9810   6.628   3.058   9.554  0.0752 -0.6190 -2.1843
   98OSM    H6G 9811   6.501   2.990   9.464 -1.7075 -0.8924  0.2862
   98OSM    C7F 9812   6.629   2.827   9.540  1.1248 -0.5864  0.2545
   98OSM    H7F 9813   6.547   2.752   9.549 -0.3793  0.9688  0.2264
   98OSM    H7G 9814   6.693   2.820   9.631  0.0145  0.1349  1.1230
   98OSM    C8F 9815   6.714   2.816   9.415  0.5506 -0.2936 -0.7407
   98OSM    H8F 9816   6.777   2.725   9.431  0.3553 -0.0885  1.6395
   98OSM    H8G 9817   6.781   2.905   9.412 -1.9483  1.7063 -0.1394
   98OSM    C9F 9818   6.634   2.797   9.288  0.3894  0.0326  0.2710
   98OSM    H9F 9819   6.570   2.707   9.283  0.5473 -0.0669 -0.0053
   98OSM   C10F 9820   6.613   2.882   9.190 -0.4093  0.4430  0.6266
   98OSM   H10F 9821   6.560   2.858   9.097 -0.2919  1.5832  0.2534
   98OSM   C11F 9822   6.681   3.017   9.178  0.0018  0.1323 -0.2095
   98OSM   H11F 9823   6.759   3.017   9.100  1.0872  1.9389  0.7907
   98OSM   H11G 9824   6.743   3.046   9.266  0.7942  0.6117 -0.9127
   98OSM   C12F 9825   6.590   3.132   9.144 -0.0626 -0.0265 -0.1772
   98OSM   H12F 9826   6.638   3.230   9.165 -1.8849  0.7170  0.7137
   98OSM   H12G 9827   6.507   3.131   9.218 -1.0078 -3.1129 -1.1373
   98OSM   C13F 9828   6.538   3.136   8.998 -0.8120 -0.1272  0.3239
   98OSM   H13F 9829   6.493   3.236   8.978  0.2075  0.3419  0.3478
   98OSM   H13G 9830   6.456   3.061   8.997 -0.2990 -0.7144 -1.4990
   98OSM   C14F 9831   6.640   3.097   8.897  0.2735  1.2939 -0.2337
   98OSM   H14F 9832   6.669   2.990   8.904  1.0609  1.5839  1.6991
   98OSM   H14G 9833   6.740   3.145   8.899  0.5494  0.7626 -1.0071
   98OSM   C15F 9834   6.604   3.119   8.753 -0.4199 -0.0703  0.7740
   98OSM   H15F 9835   6.693   3.089   8.693 -0.8124  0.2214  0.0252
   98OSM   H15G 9836   6.588   3.229   8.746  0.0727  0.0557  1.5404
   98OSM   C16F 9837   6.490   3.039   8.704 -0.1662  0.2999  0.0177
   98OSM   H16F 9838   6.400   3.096   8.734 -0.5089 -1.1509  1.9226
   98OSM   H16G 9839   6.492   2.944   8.762 -0.0894  0.1946 -0.1565
   98OSM   C17F 9840   6.487   3.023   8.551 -0.1561  0.4395 -0.9760
   98OSM   H17F 9841   6.401   2.954   8.539 -1.1447  1.0212  2.0628
   98OSM   H17G 9842   6.583   2.968   8.537  0.1403 -0.2605  2.7471
   98OSM   C18F 9843   6.468   3.154   8.476 -0.4380 -0.0282  1.0388
   98OSM   H18F 9844   6.540   3.235   8.501  0.1203  0.1045 -0.8745
   98OSM   H18G 9845   6.365   3.194   8.493  0.3603  2.9553 -0.4566
   98OSM   H18H 9846   6.478   3.133   8.368  0.3334 -1.1099  1.2962
   99OSM      N 9847   0.112   2.984  10.700  0.4553  0.6644  0.2685
   99OSM    C15 9848   0.021   2.969  10.819 -0.0892  0.3003 -0.2095
   99OSM   H15A 9849   0.001   2.864  10.832  0.8845  0.4381  3.6233
   99OSM   H15B 9850  -0.071   3.025  10.816 -0.9027 -0.7403  2.3807
   99OSM   H15C 9851   0.071   2.998  10.910  1.1991 -2.2600 -0.0025
   99OSM    C14 9852   0.029   2.962  10.582 -0.0059 -0.9034 -1.4935
   99OSM   H14A 9853  -0.053   3.031  10.581 -0.3040 -1.2274 -0.7067
   99OSM   H14B 9854  -0.013   2.863  10.596  0.7640 -0.8621  2.5466
   99OSM   H14C 9855   0.076   2.978  10.487  0.6470 -0.2204 -1.0691
   99OSM    C13 9856   0.162   3.122  10.701  0.3612 -0.0718 -0.3858
   99OSM   H13A 9857   0.231   3.133  10.618  2.9139 -1.1357  1.4509
   99OSM   H13B 9858   0.209   3.153  10.793 -1.7679 -0.1983  0.7987
   99OSM   H13C 9859   0.075   3.186  10.693 -1.9892 -2.9991 -0.0923
   99OSM    C12 9860   0.238   2.891  10.700  0.2464  1.0655 -0.3576
   99OSM   H12A 9861   0.299   2.907  10.788  1.3951 -0.3211 -0.8535
   99OSM   H12B 9862   0.301   2.912  10.615  0.7653 -0.7403 -0.4671
   99OSM    C11 9863   0.201   2.739  10.682  0.3179 -0.3289 -0.1847
   99OSM   H11A 9864   0.302   2.691  10.686 -0.6139 -2.6738 -2.3183
   99OSM   H11B 9865   0.154   2.718  10.584  0.3177 -0.5457 -0.1386
   99OSM      P 9866   0.138   2.529  10.827 -0.0236  0.0364  0.1144
   99OSM    O13 9867   0.258   2.520  10.912 -0.1488  0.1921 -0.5741
   99OSM    O14 9868   0.014   2.474  10.886 -0.6284  0.7641  0.1101
   99OSM    O11 9869   0.155   2.475  10.680 -0.2480  0.9487 -0.2914
   99OSM    O12 9870   0.107   2.681  10.781  0.4452 -0.2720  0.1263
   99OSM    C1S 9871   0.208   2.338  10.656  0.3581  0.3871  0.1535
   99OSM    H1S 9872   0.166   2.260  10.722 -0.1789  0.8908  0.4177
   99OSM    H1T 9873   0.319   2.346  10.660  0.6242 -2.0199 -0.9000
   99OSM     NF 9874   0.187   2.143  10.505  0.1874  0.7309  0.2879
   99OSM    HNF 9875   0.269   2.093  10.479  2.0596  3.0376  1.3400
   99OSM    C2S 9876   0.178   2.293  10.512  0.0666  0.3023  0.9986
   99OSM    H2S 9877   0.074   2.326  10.490 -0.0080  1.1246  2.4994
   99OSM    C3S 9878   0.282   2.366  10.414 -0.2329 -1.1276 -0.2850
   99OSM    H3S 9879   0.382   2.357  10.461  0.9916 -2.1897 -2.9011
   99OSM     O3 9880   0.253   2.504  10.396 -0.4572 -0.1837  0.5454
   99OSM    HO3 9881   0.164   2.507  10.434 -0.9271 -0.1321 -0.5119
   99OSM    C4S 9882   0.306   2.304  10.279 -0.5266  0.0854  0.7445
   99OSM    H4S 9883   0.410   2.274  10.261 -0.2038  1.0185  0.9888
   99OSM    C5S 9884   0.204   2.277  10.190  0.4797  0.2593  0.9334
   99OSM    H5S 9885   0.098   2.289  10.216  0.2345 -0.2112  0.1563
   99OSM    C6S 9886   0.221   2.215  10.056 -0.5214  0.2164 -0.1905
   99OSM    H6S 9887   0.159   2.123  10.048 -0.0871 -0.1748  0.7698
   99OSM    H6T 9888   0.329   2.191  10.050 -0.9932 -2.6462  1.2369
   99OSM    C7S 9889   0.200   2.310   9.941 -0.7735 -0.4192  0.1343
   99OSM    H7S 9890   0.265   2.400   9.952  1.1862 -1.8594  1.0700
   99OSM    H7T 9891   0.095   2.344   9.933 -1.7758 -2.6660  2.3155
   99OSM    C8S 9892   0.228   2.229   9.806 -0.4224  0.1030  0.2261
   99OSM    H8S 9893   0.171   2.134   9.795  1.5265 -1.1633  0.3992
   99OSM    H8T 9894   0.333   2.194   9.822  0.2634  0.9225 -2.0308
   99OSM    C9S 9895   0.208   2.313   9.673  0.5073 -0.0958  0.2954
   99OSM    H9S 9896   0.264   2.410   9.670 -0.8681  0.7081 -0.6359
   99OSM    H9T 9897   0.108   2.362   9.681  1.1552  1.0444  2.0784
   99OSM   C10S 9898   0.233   2.225   9.551  0.6408  0.5977  0.1901
   99OSM   H10S 9899   0.149   2.152   9.545  0.9320  0.2444  0.4039
   99OSM   H10T 9900   0.323   2.163   9.568  1.1153  1.5503  1.2950
   99OSM   C11S 9901   0.267   2.303   9.420  0.4517 -0.2376  0.2653
   99OSM   H11S 9902   0.363   2.359   9.429  1.1629 -0.7809 -2.6575
   99OSM   H11T 9903   0.182   2.371   9.398  1.6551  0.9874 -0.8331
   99OSM   C12S 9904   0.284   2.200   9.302  0.2583 -0.4248  0.0342
   99OSM   H12S 9905   0.369   2.130   9.318  0.7455  0.4191  1.3073
   99OSM   H12T 9906   0.198   2.131   9.298  1.8400 -2.5175  0.6254
   99OSM   C13S 9907   0.282   2.273   9.166 -0.2222  0.2065  0.0578
   99OSM   H13S 9908   0.366   2.345   9.161  0.3624 -0.4748 -0.0629
   99OSM   H13T 9909   0.192   2.336   9.146 -0.3470 -0.6556 -2.4425
   99OSM   C14S 9910   0.305   2.175   9.043 -0.8043  0.1377 -0.2452
   99OSM   H14S 9911   0.310   2.234   8.949  2.4124  0.1114 -0.1915
   99OSM   H14T 9912   0.215   2.112   9.032 -1.4520  0.8085  0.9143
   99OSM   C15S 9913   0.430   2.085   9.040 -0.0023 -0.5382 -0.3082
   99OSM   H15S 9914   0.404   2.005   9.114 -1.4088  1.1541  1.1141
   99OSM   H15T 9915   0.519   2.140   9.075  0.3286 -0.7865 -0.7408
   99OSM   C16S 9916   0.451   2.037   8.903 -0.2150 -0.6420  0.6192
   99OSM   H16S 9917   0.520   2.099   8.841 -0.3990 -0.9725  0.0802
   99OSM   H16T 9918   0.351   2.037   8.855 -0.0962 -0.3828  0.3689
   99OSM   C17S 9919   0.492   1.890   8.890 -0.8843  0.4395  0.7596
   99OSM   H17S 9920   0.459   1.864   8.787  1.1251  1.9941 -0.3351
   99OSM   H17T 9921   0.432   1.836   8.967 -0.7783  1.3540  1.5063
   99OSM   C18S 9922   0.646   1.865   8.920 -0.3555  0.1796 -0.5013
   99OSM   H18S 9923   0.671   1.891   9.025  2.1937 -1.6382 -0.5373
   99OSM   H18T 9924   0.702   1.930   8.850  0.9202 -1.2054 -0.8271
   99OSM   H18U 9925   0.674   1.759   8.902 -2.9081 -0.4899 -0.8348
   99OSM    C1F 9926   0.082   2.069  10.541 -0.1004 -0.1367 -0.0937
   99OSM     OF 9927  -0.031   2.118  10.547 -0.1723  0.8837 -0.4458
   99OSM    C2F 9928   0.104   1.929  10.569 -0.3623 -0.6794 -0.2137
   99OSM    H2F 9929   0.049   1.922  10.666 -0.8844  3.5169 -0.0293
   99OSM    H2G 9930   0.212   1.914  10.591 -0.7912 -1.7319  1.3754
   99OSM    C3F 9931   0.053   1.830  10.470 -0.4621 -0.5860 -0.1632
   99OSM    H3F 9932   0.061   1.723  10.498 -0.9028 -1.7031 -3.7678
   99OSM    H3G 9933  -0.057   1.837  10.453 -0.5849  0.6657  0.9778
   99OSM    C4F 9934   0.117   1.850  10.326  0.7017 -0.7634 -0.0580
   99OSM    H4F 9935   0.102   1.953  10.288  1.7044 -0.2719  0.8442
   99OSM    H4G 9936   0.066   1.783  10.253 -1.1941  0.0920  0.4204
   99OSM    C5F 9937   0.262   1.819  10.312  0.5158 -0.2204  0.0705
   99OSM    H5F 9938   0.269   1.715  10.349 -3.3690 -0.2406  1.1587
   99OSM    H5G 9939   0.324   1.890  10.371  1.2110 -1.0186  0.3192
   99OSM    C6F 9940   0.300   1.815  10.161  0.1824  0.4694  0.3813
   99OSM    H6F 9941   0.265   1.910  10.116  2.8380  1.6119  0.5686
   99OSM    H6G 9942   0.242   1.729  10.122  2.4641 -0.2889 -1.5960
   99OSM    C7F 9943   0.447   1.782  10.134  0.3966  0.5352 -0.7448
   99OSM    H7F 9944   0.472   1.689  10.189 -0.0317  0.2032 -1.1065
   99OSM    H7G 9945   0.514   1.859  10.178 -1.6130  1.0338  1.6898
   99OSM    C8F 9946   0.468   1.748   9.988  0.1091  0.0773  0.1098
   99OSM    H8F 9947   0.402   1.662   9.964 -1.4062  1.3955 -0.6846
   99OSM    H8G 9948   0.574   1.719   9.973 -0.7316 -2.6256 -1.4210
   99OSM    C9F 9949   0.432   1.871   9.911 -0.1066  0.5860 -0.9967
   99OSM    H9F 9950   0.428   1.967   9.964  0.8611 -0.4429  1.0324
   99OSM   C10F 9951   0.375   1.872   9.786 -0.0709 -0.4254 -0.1848
   99OSM   H10F 9952   0.353   1.965   9.731  2.1844  0.2149 -0.1045
   99OSM   C11F 9953   0.339   1.752   9.703 -0.2244 -0.1789 -0.8400
   99OSM   H11F 9954   0.230   1.736   9.695 -0.0600 -1.3308 -0.9635
   99OSM   H11G 9955   0.399   1.666   9.739  1.5228 -0.3228 -3.7471
   99OSM   C12F 9956   0.397   1.783   9.558  0.1375  0.1158  0.1356
   99OSM   H12F 9957   0.505   1.806   9.544  0.5505 -1.7933  0.0206
   99OSM   H12G 9958   0.357   1.881   9.521  0.3619 -0.2506 -1.1416
   99OSM   C13F 9959   0.351   1.685   9.436 -0.1602 -1.0310 -0.0564
   99OSM   H13F 9960   0.240   1.686   9.431 -0.1778 -0.7602  0.4040
   99OSM   H13G 9961   0.398   1.585   9.447 -1.3889 -1.7695 -1.1914
   99OSM   C14F 9962   0.396   1.745   9.294 -0.0401  0.3446 -0.1533
   99OSM   H14F 9963   0.507   1.738   9.293 -0.1316 -1.5358  0.0257
   99OSM   H14G 9964   0.364   1.850   9.274  1.0433  0.4991 -1.2155
   99OSM   C15F 9965   0.353   1.647   9.178  0.3149  0.0504  0.5547
   99OSM   H15F 9966   0.328   1.699   9.083 -1.3783  1.3861  1.6745
   99OSM   H15G 9967   0.254   1.608   9.211 -0.6004  2.7395  1.2433
   99OSM   C16F 9968   0.455   1.539   9.150  0.7274 -0.6414  0.0115
   99OSM   H16F 9969   0.499   1.487   9.237 -0.4214 -2.8516 -0.6486
   99OSM   H16G 9970   0.542   1.588   9.100  1.7616 -0.9032  1.4890
   99OSM   C17F 9971   0.387   1.431   9.058 -0.4629 -0.7644  0.4523
   99OSM   H17F 9972   0.316   1.374   9.122  2.5125 -1.7258  3.1451
   99OSM   H17G 9973   0.454   1.350   9.024  0.1169  0.1558 -0.6618
   99OSM   C18F 9974   0.319   1.483   8.931 -0.2321 -0.2152  0.1716
   99OSM   H18F 9975   0.388   1.525   8.855  2.3541 -1.5252  1.6236
   99OSM   H18G 9976   0.247   1.559   8.967  1.9338  1.2068  1.7621
   99OSM   H18H 9977   0.256   1.410   8.876 -3.4345  2.6189 -0.2012
  100OSM      N 9978   2.003   2.755  10.917 -0.1036  0.0861 -0.7127
  100OSM    C15 9979   1.921   2.665  11.007 -0.2457 -0.4828  0.1993
  100OSM   H15A 9980   1.833   2.639  10.951  1.3615 -1.8091 -1.9134
  100OSM   H15B 9981   1.898   2.705  11.105 -0.2586  0.0816 -0.0324
  100OSM   H15C 9982   1.975   2.572  11.020 -2.6695 -1.9809  0.0677
  100OSM    C14 9983   1.934   2.887  10.901 -0.8468 -0.2115  0.3499
  100OSM   H14A 9984   2.005   2.962  10.870  0.0056 -0.1142  2.3959
  100OSM   H14B 9985   1.892   2.923  10.993 -2.0599  0.8336 -0.5739
  100OSM   H14C 9986   1.846   2.876  10.839 -0.6090 -1.7263  0.2371
  100OSM    C13 9987   2.126   2.796  10.991  0.2653 -0.3419  0.2423
  100OSM   H13A 9988   2.183   2.709  11.019 -1.9322 -2.3103 -1.0022
  100OSM   H13B 9989   2.105   2.849  11.082  0.7965 -0.7425  0.6007
  100OSM   H13C 9990   2.197   2.841  10.923  1.3355 -0.4692  1.2399
  100OSM    C12 9991   2.038   2.685  10.792  0.2646  0.0176  0.3485
  100OSM   H12A 9992   2.110   2.606  10.804  0.8027  0.5207  0.4139
  100OSM   H12B 9993   2.091   2.746  10.721  1.2558 -3.0475 -1.7924
  100OSM    C11 9994   1.920   2.642  10.703 -0.0451  0.3057 -0.8776
  100OSM   H11A 9995   1.976   2.594  10.620  0.4707 -2.4816  0.9342
  100OSM   H11B 9996   1.856   2.727  10.672 -2.7622 -1.1217  0.4853
  100OSM      P 9997   1.676   2.551  10.742  0.3342 -0.1607  0.3758
  100OSM    O13 9998   1.618   2.414  10.759  0.3525 -0.0746  0.5253
  100OSM    O14 9999   1.615   2.659  10.818 -0.8709 -0.0522 -0.2460
  100OSM    O1110000   1.675   2.579  10.588 -0.2158 -1.0894  0.1404
  100OSM    O1210001   1.834   2.546  10.766 -0.7093  0.1451  0.0142
  100OSM    C1S10002   1.720   2.489  10.487  0.1112 -0.0741 -0.6919
  100OSM    H1S10003   1.649   2.403  10.479  0.9433 -0.7277 -1.3276
  100OSM    H1T10004   1.821   2.449  10.512  1.1171  3.6898  2.1747
  100OSM     NF10005   1.795   2.437  10.257  0.0769  0.7986  1.1861
  100OSM    HNF10006   1.894   2.433  10.244  0.0400 -1.5864  1.2626
  100OSM    C2S10007   1.728   2.545  10.335 -0.5397 -0.1268 -0.7030
  100OSM    H2S10008   1.621   2.551  10.307 -0.9419  3.0466  0.9662
  100OSM    C3S10009   1.806   2.674  10.328 -0.2153  0.0574  0.4113
  100OSM    H3S10010   1.911   2.652  10.356 -0.2495  0.1582  0.6219
  100OSM     O310011   1.756   2.770  10.415 -0.2759 -0.4885  0.0606
  100OSM    HO310012   1.709   2.718  10.481  0.9192 -0.9250  0.5853
  100OSM    C4S10013   1.805   2.716  10.178 -0.7113  0.8194 -0.4645
  100OSM    H4S10014   1.883   2.661  10.123 -0.1766 -0.5064  1.5365
  100OSM    C5S10015   1.726   2.802  10.112 -0.8485  0.5798  1.1361
  100OSM    H5S10016   1.630   2.837  10.152 -2.2050 -0.5771 -0.9270
  100OSM    C6S10017   1.745   2.838   9.969  0.5425  0.1050  0.1989
  100OSM    H6S10018   1.855   2.841   9.957  0.4816  1.9523 -0.2018
  100OSM    H6T10019   1.705   2.941   9.952 -2.0496 -0.9122 -0.3808
  100OSM    C7S10020   1.689   2.753   9.864  0.3348  0.0660  0.0011
  100OSM    H7S10021   1.579   2.763   9.858  0.2638  0.7123  1.8685
  100OSM    H7T10022   1.699   2.644   9.881 -5.3796 -0.9727 -1.1880
  100OSM    C8S10023   1.749   2.777   9.728  0.1367 -0.0319  0.5501
  100OSM    H8S10024   1.859   2.762   9.721 -0.0719 -0.9728 -1.6445
  100OSM    H8T10025   1.731   2.880   9.691 -2.5630 -0.8148 -0.6147
  100OSM    C9S10026   1.681   2.701   9.613  0.4295  0.5828  0.1916
  100OSM    H9S10027   1.571   2.701   9.629  0.3231 -1.9140 -0.0990
  100OSM    H9T10028   1.725   2.599   9.623 -1.4506 -0.3861 -0.8683
  100OSM   C10S10029   1.723   2.763   9.477 -0.4459  0.8284 -0.6105
  100OSM   H10S10030   1.834   2.759   9.479 -0.4761  0.3583  0.4623
  100OSM   H10T10031   1.690   2.869   9.480 -0.0362  0.9440  0.1511
  100OSM   C11S10032   1.661   2.690   9.353 -0.6305  0.0141 -0.3271
  100OSM   H11S10033   1.566   2.740   9.325 -1.3044 -0.4558  1.0103
  100OSM   H11T10034   1.648   2.582   9.373  2.8635 -0.5652 -0.4390
  100OSM   C12S10035   1.741   2.710   9.222 -0.1471 -0.0264  0.0497
  100OSM   H12S10036   1.846   2.675   9.237 -0.2429  0.6380  2.7647
  100OSM   H12T10037   1.734   2.821   9.217  0.9599  0.2156  2.2111
  100OSM   C13S10038   1.661   2.636   9.106  0.8215 -0.0131  0.3172
  100OSM   H13S10039   1.556   2.670   9.091  0.8384  0.4861  1.2284
  100OSM   H13T10040   1.657   2.527   9.124  2.0687 -0.3940 -1.4409
  100OSM   C14S10041   1.721   2.655   8.965 -0.1798 -0.1173  0.1745
  100OSM   H14S10042   1.754   2.760   8.945 -0.6179 -0.4248 -2.5996
  100OSM   H14T10043   1.655   2.635   8.878  1.2565  0.9788 -1.2378
  100OSM   C15S10044   1.837   2.563   8.939  0.0085 -0.3586  0.2171
  100OSM   H15S10045   1.798   2.460   8.954 -1.0923  0.1865  1.3488
  100OSM   H15T10046   1.913   2.582   9.017  1.8238  2.4834 -2.0196
  100OSM   C16S10047   1.905   2.574   8.802  0.0440  0.0641  0.7948
  100OSM   H16S10048   2.006   2.530   8.811 -0.5188 -1.0362  1.9689
  100OSM   H16T10049   1.913   2.683   8.779  3.3629 -0.0010  1.2135
  100OSM   C17S10050   1.829   2.485   8.689  0.0832 -0.1718  0.2118
  100OSM   H17S10051   1.726   2.525   8.684 -0.6341 -2.0397 -0.6455
  100OSM   H17T10052   1.826   2.375   8.701  2.1707 -1.0574 -4.9616
  100OSM   C18S10053   1.885   2.498   8.548 -0.1177  0.3844 -0.5532
  100OSM   H18S10054   1.864   2.597   8.503  1.8959  0.6022 -1.1064
  100OSM   H18T10055   1.830   2.431   8.479 -2.1099  2.5314 -1.1600
  100OSM   H18U10056   1.994   2.474   8.553  0.3415  1.3448 -3.6340
  100OSM    C1F10057   1.735   2.319  10.243 -0.1879  0.1956  0.1147
  100OSM     OF10058   1.615   2.319  10.258  0.1513  0.2869 -0.2008
  100OSM    C2F10059   1.822   2.200  10.228 -0.0174  0.4719 -0.3133
  100OSM    H2F10060   1.877   2.182  10.323  2.8965  2.1028 -1.5651
  100OSM    H2G10061   1.897   2.226  10.151 -2.8299  1.0519 -3.0574
  100OSM    C3F10062   1.748   2.082  10.162  0.6956 -0.1773 -1.0965
  100OSM    H3F10063   1.652   2.070  10.216  0.0536  1.4036 -1.8231
  100OSM    H3G10064   1.808   1.995  10.195 -0.9368 -0.7514  0.4886
  100OSM    C4F10065   1.734   2.093  10.008  0.1249 -0.0767 -0.0170
  100OSM    H4F10066   1.835   2.114   9.967 -0.2100 -1.6912 -1.8180
  100OSM    H4G10067   1.673   2.183   9.985 -3.3363 -2.1226  0.3649
  100OSM    C5F10068   1.672   1.977   9.929 -0.4025 -0.1512 -0.5300
  100OSM    H5F10069   1.585   1.930   9.980 -0.8346  0.8106 -0.3565
  100OSM    H5G10070   1.748   1.898   9.913 -1.3114 -1.3948  0.9775
  100OSM    C6F10071   1.621   2.026   9.789  0.2141 -0.3630 -0.2664
  100OSM    H6F10072   1.547   2.109   9.790  1.1344  0.7107  4.3739
  100OSM    H6G10073   1.576   1.937   9.741  1.4514 -1.2823  0.2246
  100OSM    C7F10074   1.740   2.070   9.704 -0.1116 -0.2731  0.8904
  100OSM    H7F10075   1.803   1.982   9.679 -0.2798 -0.2174  0.2496
  100OSM    H7G10076   1.812   2.133   9.760 -0.0059 -0.9344  1.5069
  100OSM    C8F10077   1.704   2.140   9.564  0.2985  0.0563 -0.2486
  100OSM    H8F10078   1.797   2.166   9.510 -1.2142  1.3404 -2.3961
  100OSM    H8G10079   1.662   2.241   9.586  0.8681  0.3585 -0.5340
  100OSM    C9F10080   1.607   2.064   9.474 -0.4167 -0.2710  0.7355
  100OSM    H9F10081   1.509   2.034   9.512 -0.7307 -0.2169 -0.0076
  100OSM   C10F10082   1.634   2.042   9.339  0.7645 -0.4890 -0.2781
  100OSM   H10F10083   1.555   1.990   9.282  1.8199 -0.1158 -2.1327
  100OSM   C11F10084   1.760   2.077   9.263 -0.0281 -0.2040 -0.2558
  100OSM   H11F10085   1.810   1.978   9.256 -4.0475 -2.3571 -1.7823
  100OSM   H11G10086   1.822   2.156   9.312 -2.9641  1.8613  0.4044
  100OSM   C12F10087   1.730   2.142   9.128 -0.4294 -0.2851  0.2747
  100OSM   H12F10088   1.828   2.190   9.105 -0.2294  0.1097  1.8333
  100OSM   H12G10089   1.648   2.213   9.147  0.4304  0.6163  0.7213
  100OSM   C13F10090   1.696   2.048   9.018 -0.0502 -0.2691  0.7122
  100OSM   H13F10091   1.590   2.017   9.030 -0.9092  2.3391  0.4513
  100OSM   H13G10092   1.769   1.965   9.029  3.1130  2.1704 -0.4329
  100OSM   C14F10093   1.706   2.110   8.871 -0.3207  0.8011  0.1331
  100OSM   H14F10094   1.807   2.150   8.850  1.4022 -2.3633  1.6203
  100OSM   H14G10095   1.633   2.193   8.860 -1.4121 -0.0837  0.5058
  100OSM   C15F10096   1.667   2.003   8.760 -0.7782  0.1825 -0.3596
  100OSM   H15F10097   1.677   2.057   8.663  0.5167  1.7273  0.5906
  100OSM   H15G10098   1.557   1.991   8.761 -0.6957 -0.5597  0.0239
  100OSM   C16F10099   1.749   1.875   8.760 -0.2790  0.1771 -0.3180
  100OSM   H16F10100   1.746   1.834   8.863 -0.5242 -1.4180 -0.9179
  100OSM   H16G10101   1.854   1.896   8.731  0.3714  2.7832  3.2848
  100OSM   C17F10102   1.687   1.763   8.682 -0.1282 -0.3501  0.0048
  100OSM   H17F10103   1.679   1.784   8.573  0.1872  0.8642  0.2035
  100OSM   H17G10104   1.583   1.759   8.721  0.2513 -1.8454  0.9515
  100OSM   C18F10105   1.767   1.629   8.690  0.2851 -0.4160  0.0906
  100OSM   H18F10106   1.749   1.579   8.788 -0.5287 -0.3685 -0.0235
  100OSM   H18G10107   1.876   1.642   8.676  0.2195  1.6396  1.1691
  100OSM   H18H10108   1.735   1.552   8.616  0.8697 -2.2384  1.6284
  101OSM      N10109   5.199   3.358  11.213 -0.6381 -0.1174  1.0890
  101OSM    C1510110   5.302   3.256  11.215 -0.5324  0.5810 -0.4268
  101OSM   H15A10111   5.300   3.198  11.307  0.4041  1.0426 -0.0931
  101OSM   H15B10112   5.400   3.302  11.222  1.2097 -2.9608  1.8594
  101OSM   H15C10113   5.300   3.189  11.131 -1.5226 -1.0176  0.8082
  101OSM    C1410114   5.067   3.303  11.174  0.9732 -0.0994  0.0463
  101OSM   H14A10115   4.991   3.377  11.196 -0.6664 -2.2882  2.2053
  101OSM   H14B10116   5.034   3.220  11.235  0.1592  0.0293 -0.2065
  101OSM   H14C10117   5.079   3.281  11.069 -1.5950 -0.1953 -0.2904
  101OSM    C1310118   5.188   3.405  11.359 -0.1213  0.2707  0.4728
  101OSM   H13A10119   5.142   3.323  11.413  1.3276 -2.2140 -1.8339
  101OSM   H13B10120   5.124   3.492  11.372 -0.7351  0.2935 -2.1135
  101OSM   H13C10121   5.282   3.419  11.409  0.8492 -1.4262 -0.7742
  101OSM    C1210122   5.235   3.483  11.129 -0.1784  0.7344  0.2442
  101OSM   H12A10123   5.308   3.530  11.193 -1.1374  2.2117  0.3130
  101OSM   H12B10124   5.155   3.555  11.137  0.1414  0.8759  3.1204
  101OSM    C1110125   5.281   3.474  10.972 -0.7932  0.4120 -0.7762
  101OSM   H11A10126   5.360   3.396  10.969 -0.6429  0.5451 -0.3604
  101OSM   H11B10127   5.327   3.569  10.937  1.0201 -0.2707 -0.3680
  101OSM      P10128   5.048   3.521  10.879 -0.8011 -0.4638 -0.2877
  101OSM    O1310129   4.924   3.444  10.897 -0.0700 -0.2031 -0.6647
  101OSM    O1410130   5.055   3.640  10.970 -0.5064 -0.5493  0.6033
  101OSM    O1110131   5.065   3.566  10.729  0.6439  0.0837 -0.0284
  101OSM    O1210132   5.177   3.431  10.890 -0.0009 -0.0777  0.2158
  101OSM    C1S10133   5.183   3.637  10.692 -0.4429 -0.0684 -0.3801
  101OSM    H1S10134   5.267   3.567  10.712  0.4067  0.8925 -0.5034
  101OSM    H1T10135   5.204   3.731  10.748 -0.1006 -0.6839  0.5505
  101OSM     NF10136   5.301   3.717  10.489 -0.9061  0.1789  0.9675
  101OSM    HNF10137   5.317   3.816  10.489  0.5601 -0.0370  0.1862
  101OSM    C2S10138   5.175   3.665  10.542 -0.0125 -0.0646  0.6902
  101OSM    H2S10139   5.147   3.567  10.496 -4.4805  0.7975  1.0803
  101OSM    C3S10140   5.047   3.753  10.520  0.5911  0.5804  0.5055
  101OSM    H3S10141   5.048   3.845  10.583 -0.8165  1.0372 -0.1087
  101OSM     O310142   4.923   3.692  10.553  0.3730 -0.6866  0.3728
  101OSM    HO310143   4.947   3.616  10.605 -2.1640 -0.4010  2.1313
  101OSM    C4S10144   5.025   3.781  10.380 -0.0412 -0.0705 -0.2416
  101OSM    H4S10145   5.049   3.697  10.313  1.2666 -0.7643  1.0448
  101OSM    C5S10146   4.991   3.899  10.329 -0.4597 -0.5223  0.0764
  101OSM    H5S10147   4.979   3.990  10.390  3.3419 -0.1490  0.5539
  101OSM    C6S10148   4.981   3.920  10.182  0.1753  0.7738  0.3671
  101OSM    H6S10149   5.016   4.021  10.152  0.5946  0.3995 -0.4612
  101OSM    H6T10150   4.877   3.891  10.155 -0.4616  0.8224  2.6114
  101OSM    C7S10151   5.062   3.820  10.081  0.3605 -0.4350 -0.5798
  101OSM    H7S10152   5.026   3.717  10.104  0.3346 -0.4577 -0.7215
  101OSM    H7T10153   5.165   3.826  10.121  0.2430 -1.7804 -0.0103
  101OSM    C8S10154   5.040   3.855   9.930 -0.0063 -0.1342  0.1026
  101OSM    H8S10155   5.128   3.840   9.865  0.1845 -0.7580  0.4957
  101OSM    H8T10156   5.021   3.965   9.938 -1.6706 -0.2949 -1.1189
  101OSM    C9S10157   4.921   3.786   9.863  0.5795  0.2168  0.0879
  101OSM    H9S10158   4.834   3.818   9.923  2.2869  1.9451  1.7816
  101OSM    H9T10159   4.934   3.676   9.868 -0.6897  0.0962  1.2587
  101OSM   C10S10160   4.892   3.830   9.718  0.3109 -0.2917 -0.4611
  101OSM   H10S10161   4.925   3.933   9.694 -0.2341 -0.1988 -0.8482
  101OSM   H10T10162   4.781   3.838   9.712  0.2765  2.2455  1.9885
  101OSM   C11S10163   4.936   3.729   9.610 -0.3698 -0.0352  1.2077
  101OSM   H11S10164   4.863   3.645   9.620  0.3035 -0.7536  0.2182
  101OSM   H11T10165   5.040   3.694   9.626  0.1418  1.4653  1.2612
  101OSM   C12S10166   4.923   3.796   9.466 -0.1033  0.0932  0.3334
  101OSM   H12S10167   5.007   3.862   9.434 -0.2410 -0.0629 -0.3605
  101OSM   H12T10168   4.826   3.850   9.477 -0.8618 -0.9627 -0.9004
  101OSM   C13S10169   4.906   3.692   9.352 -0.3178 -0.3327 -1.0722
  101OSM   H13S10170   4.997   3.629   9.350  0.6294  0.9478  0.0450
  101OSM   H13T10171   4.890   3.748   9.257 -0.7594  2.1003  0.3561
  101OSM   C14S10172   4.778   3.611   9.359 -0.2138  0.6185 -0.3847
  101OSM   H14S10173   4.696   3.684   9.376  0.1707  1.0790 -0.4794
  101OSM   H14T10174   4.796   3.539   9.442  1.5527  1.3589 -0.0824
  101OSM   C15S10175   4.744   3.524   9.235  0.9584 -0.3894 -0.1631
  101OSM   H15S10176   4.693   3.594   9.165  0.1178 -0.3859  0.4320
  101OSM   H15T10177   4.676   3.444   9.271  1.7932 -1.6364 -1.2666
  101OSM   C16S10178   4.862   3.479   9.169 -0.0725 -0.2345  0.0115
  101OSM   H16S10179   4.926   3.409   9.227 -0.1759 -0.0163  0.3917
  101OSM   H16T10180   4.924   3.563   9.131 -1.6787 -0.1617 -2.7205
  101OSM   C17S10181   4.825   3.423   9.025  0.1042 -0.1130 -0.9527
  101OSM   H17S10182   4.764   3.508   8.988 -0.6423  0.0126  0.4960
  101OSM   H17T10183   4.755   3.337   9.039 -1.5028  1.4660  1.6363
  101OSM   C18S10184   4.947   3.397   8.938 -0.0750 -0.2247  0.0558
  101OSM   H18S10185   4.933   3.369   8.831  1.8078 -0.3772 -0.1889
  101OSM   H18T10186   5.013   3.323   8.988  1.1536  1.2726  0.7525
  101OSM   H18U10187   5.012   3.487   8.932  0.1250 -0.3106  0.8905
  101OSM    C1F10188   5.417   3.646  10.473  0.3908  1.0229 -0.3680
  101OSM     OF10189   5.423   3.526  10.505 -0.4328  0.2690  0.6972
  101OSM    C2F10190   5.529   3.717  10.418 -0.1444 -0.2238  0.3674
  101OSM    H2F10191   5.618   3.652  10.432 -0.7955 -1.1114  0.4512
  101OSM    H2G10192   5.538   3.814  10.472  0.0840 -0.7718  1.3353
  101OSM    C3F10193   5.530   3.740  10.263 -0.3503  0.0648  0.0765
  101OSM    H3F10194   5.446   3.792  10.214 -1.4157 -1.7978 -0.1770
  101OSM    H3G10195   5.535   3.639  10.216  2.6958 -0.8709  2.1078
  101OSM    C4F10196   5.662   3.809  10.234 -0.5447  0.0969 -0.5908
  101OSM    H4F10197   5.747   3.743  10.261 -0.5484 -0.3071 -1.5256
  101OSM    H4G10198   5.668   3.906  10.289  0.6709 -0.1393 -0.2861
  101OSM    C5F10199   5.696   3.843  10.088  0.3927  0.4135  0.0143
  101OSM    H5F10200   5.778   3.919  10.093  0.3242  0.3960  1.7072
  101OSM    H5G10201   5.611   3.901  10.047 -2.8783 -2.2859  2.4581
  101OSM    C6F10202   5.729   3.718   9.998 -0.2172 -0.1735  0.0644
  101OSM    H6F10203   5.837   3.693  10.000 -0.3055 -0.5448  0.3022
  101OSM    H6G10204   5.676   3.624  10.025  0.6561 -0.4857  0.7540
  101OSM    C7F10205   5.701   3.750   9.858 -0.1081 -0.8154  0.6406
  101OSM    H7F10206   5.595   3.783   9.843  0.4039 -0.0172 -1.6990
  101OSM    H7G10207   5.722   3.660   9.797 -1.2451 -0.7600  0.1181
  101OSM    C8F10208   5.779   3.869   9.803  0.4662 -0.4904 -0.4925
  101OSM    H8F10209   5.791   3.952   9.875 -0.4206  0.6583 -1.6181
  101OSM    H8G10210   5.715   3.919   9.727  2.2924  3.2665  0.2300
  101OSM    C9F10211   5.908   3.844   9.749 -0.0904  0.2009 -0.0312
  101OSM    H9F10212   5.998   3.851   9.811  0.2382 -0.1184 -0.4657
  101OSM   C10F10213   5.930   3.834   9.617  0.2434 -0.0854 -0.8140
  101OSM   H10F10214   6.032   3.802   9.591 -0.1791 -4.0432  1.5934
  101OSM   C11F10215   5.825   3.825   9.501  0.2867 -0.2962  0.0529
  101OSM   H11F10216   5.733   3.885   9.517  1.0228  0.3423  2.2606
  101OSM   H11G10217   5.796   3.719   9.488 -0.0815 -0.0068 -1.7229
  101OSM   C12F10218   5.877   3.875   9.367  0.2084  0.0000  0.2537
  101OSM   H12F10219   5.963   3.817   9.327  0.8990  1.7151 -0.9118
  101OSM   H12G10220   5.915   3.980   9.375  1.5205 -0.4303 -0.0605
  101OSM   C13F10221   5.769   3.866   9.256 -0.0188 -0.3025 -0.5803
  101OSM   H13F10222   5.667   3.880   9.299  0.5892 -2.1064  1.6444
  101OSM   H13G10223   5.773   3.767   9.206  1.0599 -1.1023  1.0072
  101OSM   C14F10224   5.791   3.962   9.141 -0.4156  0.1354 -0.2030
  101OSM   H14F10225   5.895   3.958   9.103 -0.6640  0.2690 -0.9184
  101OSM   H14G10226   5.775   4.064   9.183 -0.8400 -0.2532  0.6018
  101OSM   C15F10227   5.698   3.944   9.023 -0.0257  0.5590  0.3159
  101OSM   H15F10228   5.597   3.956   9.067 -0.3753 -3.9786  1.3212
  101OSM   H15G10229   5.703   3.839   8.985  0.7527  0.7287 -0.0791
  101OSM   C16F10230   5.719   4.043   8.919  0.6282  0.2857  0.3753
  101OSM   H16F10231   5.824   4.044   8.884  0.0692  2.5397 -1.5741
  101OSM   H16G10232   5.706   4.149   8.951  1.8058  0.4365  0.3936
  101OSM   C17F10233   5.637   4.011   8.795  0.2236 -0.1661 -0.8967
  101OSM   H17F10234   5.535   3.976   8.819  0.7888  0.9879  4.3284
  101OSM   H17G10235   5.678   3.922   8.742  1.2960  0.3159 -0.9075
  101OSM   C18F10236   5.626   4.126   8.689 -0.1206 -0.4187  0.2454
  101OSM   H18F10237   5.725   4.143   8.641 -1.2673  1.6331 -1.5684
  101OSM   H18G10238   5.600   4.221   8.740 -3.1697 -0.9187 -0.1817
  101OSM   H18H10239   5.554   4.099   8.609  0.4622 -3.2727  0.5614
  102OSM      N10240   6.650   4.521  10.583 -0.3974 -0.3930  0.2595
  102OSM    C1510241   6.646   4.463  10.440  0.3870 -0.0909  0.5566
  102OSM   H15A10242   6.574   4.384  10.430 -0.0705  0.2873  0.8087
  102OSM   H15B10243   6.742   4.419  10.417  1.3000  0.5085  2.9386
  102OSM   H15C10244   6.607   4.529  10.363 -2.7565 -1.7055  0.5950
  102OSM    C1410245   6.766   4.613  10.585 -0.3504 -0.3671  0.1947
  102OSM   H14A10246   6.793   4.637  10.686  2.8291 -0.1290 -0.6073
  102OSM   H14B10247   6.759   4.709  10.535  1.5705 -0.9662 -1.3216
  102OSM   H14C10248   6.854   4.568  10.543  1.2592  3.3314 -0.8417
  102OSM    C1310249   6.520   4.590  10.598 -0.1845  0.3468  0.0941
  102OSM   H13A10250   6.507   4.672  10.529  2.0173  0.9859  0.3652
  102OSM   H13B10251   6.529   4.638  10.694 -0.9418 -0.3128  0.5126
  102OSM   H13C10252   6.443   4.516  10.581  0.3297  0.0917 -1.2938
  102OSM    C1210253   6.658   4.409  10.683 -0.6491 -0.0430  0.0253
  102OSM   H12A10254   6.566   4.354  10.669 -1.8289  1.6745  0.6870
  102OSM   H12B10255   6.654   4.438  10.787 -0.1931 -1.0629  0.3431
  102OSM    C1110256   6.782   4.307  10.674 -0.5841  0.5273  0.3536
  102OSM   H11A10257   6.787   4.262  10.573  0.4751  1.5266 -0.0662
  102OSM   H11B10258   6.766   4.222  10.744 -1.3231 -0.3203 -0.8152
  102OSM      P10259   7.044   4.297  10.697 -0.2071 -0.2179  0.0098
  102OSM    O1310260   7.137   4.343  10.807  0.5062  0.4327  0.1554
  102OSM    O1410261   7.040   4.147  10.671  0.1729 -1.2112  0.2406
  102OSM    O1110262   7.110   4.370  10.567  0.0567 -0.0045 -0.0156
  102OSM    O1210263   6.903   4.368  10.710 -0.1898 -0.1089  0.1717
  102OSM    C1S10264   7.071   4.341  10.431 -0.2245  0.3126 -0.0992
  102OSM    H1S10265   6.980   4.279  10.415  0.5364 -0.4785 -1.5287
  102OSM    H1T10266   7.154   4.289  10.380 -0.6186  0.4508 -0.8911
  102OSM     NF10267   7.038   4.431  10.205 -0.2636 -0.6341 -0.1323
  102OSM    HNF10268   7.109   4.451  10.138  2.3147 -1.7130  2.0593
  102OSM    C2S10269   7.061   4.467  10.344  0.3875 -0.1065 -0.4125
  102OSM    H2S10270   6.967   4.515  10.377 -0.1897 -0.0006 -2.1149
  102OSM    C3S10271   7.178   4.572  10.358 -0.3675 -0.0971 -0.0204
  102OSM    H3S10272   7.279   4.533  10.333 -0.1155 -0.0417  0.8689
  102OSM     O310273   7.205   4.619  10.495  0.0408 -0.0398 -0.5615
  102OSM    HO310274   7.150   4.563  10.549  0.6159  1.2430  1.4888
  102OSM    C4S10275   7.140   4.693  10.271 -0.0032  0.4518 -0.2446
  102OSM    H4S10276   7.050   4.745  10.305 -1.2617 -2.6701  1.6420
  102OSM    C5S10277   7.180   4.741  10.157 -0.1455 -0.4096  1.1353
  102OSM    H5S10278   7.258   4.683  10.106 -0.3532 -0.4902  0.9079
  102OSM    C6S10279   7.127   4.865  10.085 -0.5056 -0.3404  0.3938
  102OSM    H6S10280   7.203   4.946  10.077 -0.9094 -0.0927 -1.3480
  102OSM    H6T10281   7.047   4.907  10.149 -2.1634 -1.1677 -1.0545
  102OSM    C7S10282   7.069   4.840   9.942 -0.1649 -0.1955 -0.8141
  102OSM    H7S10283   7.034   4.937   9.900  0.1601  1.0315  1.5684
  102OSM    H7T10284   6.991   4.760   9.947 -2.1673  1.7004 -0.2793
  102OSM    C8S10285   7.158   4.797   9.825  0.2634  0.1203 -0.5463
  102OSM    H8S10286   7.165   4.686   9.822  1.1817  0.1738 -1.9394
  102OSM    H8T10287   7.260   4.841   9.819 -0.0075  0.9280  0.5465
  102OSM    C9S10288   7.099   4.829   9.685 -0.1088 -0.3192 -1.2630
  102OSM    H9S10289   7.071   4.936   9.675 -1.7933 -0.5872  0.0656
  102OSM    H9T10290   7.001   4.777   9.674 -1.6323  2.0123  0.3232
  102OSM   C10S10291   7.200   4.788   9.578  0.1845 -0.3048 -0.0059
  102OSM   H10S10292   7.181   4.680   9.560 -1.1592  0.0579 -0.8775
  102OSM   H10T10293   7.305   4.802   9.611  0.1841 -0.0408 -0.1175
  102OSM   C11S10294   7.178   4.846   9.438  0.4822 -0.1172 -0.6383
  102OSM   H11S10295   7.232   4.943   9.424  0.6619  0.0577  0.9971
  102OSM   H11T10296   7.070   4.870   9.426  0.5937  0.7536 -0.0166
  102OSM   C12S10297   7.218   4.751   9.326 -0.2410 -0.2188  0.6242
  102OSM   H12S10298   7.182   4.646   9.338  0.9967 -0.6614  0.6526
  102OSM   H12T10299   7.327   4.741   9.341 -0.1407  1.7547  1.4032
  102OSM   C13S10300   7.204   4.806   9.183 -0.0025 -0.3448  0.6266
  102OSM   H13S10301   7.273   4.734   9.133  2.3051  2.3575 -0.3317
  102OSM   H13T10302   7.236   4.912   9.174  4.1695 -1.4868 -0.2018
  102OSM   C14S10303   7.064   4.796   9.118  0.1431 -0.1411  0.4197
  102OSM   H14S10304   6.994   4.869   9.163 -0.6714 -0.5838 -0.1253
  102OSM   H14T10305   7.028   4.696   9.149 -0.3833 -0.8138 -2.1001
  102OSM   C15S10306   7.056   4.807   8.970 -0.4961 -0.7377  0.8017
  102OSM   H15S10307   6.951   4.792   8.938 -0.2842  0.3476 -0.5063
  102OSM   H15T10308   7.109   4.732   8.908 -0.1195  0.3661 -0.2613
  102OSM   C16S10309   7.098   4.948   8.929  0.6445  0.2026  0.6373
  102OSM   H16S10310   7.208   4.957   8.920  0.5060 -0.2251 -3.9307
  102OSM   H16T10311   7.052   5.020   9.001  0.7417  0.5217  0.3861
  102OSM   C17S10312   7.032   4.992   8.800  0.3357 -0.3754  0.0318
  102OSM   H17S10313   7.040   5.102   8.787 -3.4263 -0.1295 -1.2596
  102OSM   H17T10314   6.924   4.967   8.802 -0.4902  2.3657 -2.8057
  102OSM   C18S10315   7.089   4.922   8.676  0.0913  0.2446  0.2763
  102OSM   H18S10316   7.017   4.921   8.591 -0.2130 -1.5152  0.5163
  102OSM   H18T10317   7.095   4.811   8.677 -0.1043  0.0415 -3.7676
  102OSM   H18U10318   7.183   4.971   8.645  0.9054 -1.0482  0.6028
  102OSM    C1F10319   6.934   4.354  10.169 -1.0871  0.1502 -0.7962
  102OSM     OF10320   6.833   4.345  10.240  0.0741 -0.5881  0.1898
  102OSM    C2F10321   6.924   4.295  10.027  0.5139 -0.1147 -0.4271
  102OSM    H2F10322   6.820   4.309   9.989 -0.6240 -1.7883  1.8296
  102OSM    H2G10323   6.942   4.186  10.026 -0.1687 -0.2317 -0.4057
  102OSM    C3F10324   7.020   4.349   9.916 -0.6468  0.0986 -1.1992
  102OSM    H3F10325   7.120   4.307   9.940 -0.8075  0.4290  0.1507
  102OSM    H3G10326   7.033   4.459   9.926  1.2435 -0.2370  0.7561
  102OSM    C4F10327   6.964   4.310   9.781  0.2139  0.2558 -0.4862
  102OSM    H4F10328   6.865   4.361   9.774  1.1222  2.1663 -0.1347
  102OSM    H4G10329   6.947   4.202   9.761 -0.0497 -0.3452  2.5650
  102OSM    C5F10330   7.062   4.364   9.677  0.2576 -0.3813  0.6158
  102OSM    H5F10331   7.158   4.308   9.678  1.8172  2.1391  0.7311
  102OSM    H5G10332   7.095   4.468   9.699 -0.7241 -0.1428  1.0134
  102OSM    C6F10333   7.016   4.348   9.537  0.0219  0.6376  0.4324
  102OSM    H6F10334   6.986   4.242   9.522 -2.0850  1.2921 -0.3842
  102OSM    H6G10335   7.094   4.382   9.467 -1.0155  0.4615 -0.8485
  102OSM    C7F10336   6.898   4.437   9.489  0.8832  0.2357  0.5088
  102OSM    H7F10337   6.912   4.547   9.503 -1.9748  0.6781  0.5899
  102OSM    H7G10338   6.805   4.404   9.540 -0.3240  0.1404 -1.6232
  102OSM    C8F10339   6.878   4.439   9.337 -0.2419 -0.2367 -0.2432
  102OSM    H8F10340   6.968   4.478   9.284  0.9200 -1.8757  0.4324
  102OSM    H8G10341   6.794   4.508   9.314 -2.6154 -2.2216  1.9934
  102OSM    C9F10342   6.843   4.302   9.282  0.5006 -0.8165  0.2863
  102OSM    H9F10343   6.773   4.244   9.344  0.9769 -3.0760 -1.1520
  102OSM   C10F10344   6.874   4.255   9.159 -0.5524  0.3500  0.3042
  102OSM   H10F10345   6.835   4.157   9.125  0.7675 -0.0750 -0.0557
  102OSM   C11F10346   6.948   4.329   9.048  0.5566 -0.1100 -0.3477
  102OSM   H11F10347   6.982   4.431   9.075  2.4058 -0.6714 -0.4327
  102OSM   H11G10348   6.874   4.355   8.969  3.0078 -0.2285 -2.8596
  102OSM   C12F10349   7.065   4.257   8.983 -0.6287  0.5302 -0.1918
  102OSM   H12F10350   7.023   4.163   8.941  1.5482  0.0973 -1.5071
  102OSM   H12G10351   7.138   4.229   9.062 -1.6220  0.0579  0.5946
  102OSM   C13F10352   7.125   4.326   8.862 -0.5146 -0.0260  0.1849
  102OSM   H13F10353   7.041   4.356   8.795  1.2793 -0.3842 -2.4046
  102OSM   H13G10354   7.176   4.258   8.790 -0.8647 -0.8407  0.6931
  102OSM   C14F10355   7.220   4.448   8.885 -0.2673 -0.3715 -0.6429
  102OSM   H14F10356   7.321   4.415   8.916 -0.4372 -1.2219 -0.9523
  102OSM   H14G10357   7.174   4.508   8.966 -2.0739  0.7856 -2.4010
  102OSM   C15F10358   7.226   4.536   8.762 -0.3386 -0.1692  0.1755
  102OSM   H15F10359   7.273   4.630   8.799  1.7475 -1.2739  0.4836
  102OSM   H15G10360   7.123   4.561   8.726 -0.9766  0.5564  2.3653
  102OSM   C16F10361   7.308   4.467   8.652  0.1042 -0.6401  0.1566
  102OSM   H16F10362   7.256   4.375   8.615  1.8463 -0.9754 -1.5992
  102OSM   H16G10363   7.408   4.438   8.691  0.0983  1.1345  1.6289
  102OSM   C17F10364   7.324   4.548   8.526 -0.3013  1.1282 -0.6096
  102OSM   H17F10365   7.388   4.635   8.555  0.8754 -0.2037  0.9748
  102OSM   H17G10366   7.228   4.584   8.482 -2.1077 -1.4639  0.9747
  102OSM   C18F10367   7.404   4.487   8.416 -0.2777  0.1112  0.0113
  102OSM   H18F10368   7.480   4.422   8.464 -0.5163  0.6485  1.1456
  102OSM   H18G10369   7.461   4.563   8.358  0.6452 -1.0339 -0.6511
  102OSM   H18H10370   7.339   4.427   8.349  1.7621 -0.0852 -1.9316
  103OSM      N10371   1.717   0.061  10.866 -0.0594  0.6904 -0.4049
  103OSM    C1510372   1.824  -0.036  10.920 -0.0153 -0.2206  0.3775
  103OSM   H15A10373   1.801  -0.135  10.885 -0.5925 -0.5227  1.5465
  103OSM   H15B10374   1.837  -0.040  11.027  3.0018 -0.3701  0.0988
  103OSM   H15C10375   1.921   0.002  10.892 -1.2321  1.5863 -1.6793
  103OSM    C1410376   1.587  -0.005  10.869 -0.0545 -0.4080 -0.2711
  103OSM   H14A10377   1.597  -0.112  10.858 -1.1008 -0.9396  2.9484
  103OSM   H14B10378   1.528   0.049  10.797 -0.1780  1.3995  1.1139
  103OSM   H14C10379   1.541   0.010  10.966 -0.9886 -0.5315 -0.6845
  103OSM    C1310380   1.715   0.172  10.963 -0.3351 -0.1643 -0.1179
  103OSM   H13A10381   1.811   0.221  10.966 -0.1549 -0.0158 -3.8036
  103OSM   H13B10382   1.692   0.141  11.063 -1.9148  0.2184 -0.3279
  103OSM   H13C10383   1.645   0.243  10.920  0.5741 -0.1358 -1.6237
  103OSM    C1210384   1.765   0.108  10.730 -0.5984 -0.2889 -0.7180
  103OSM   H12A10385   1.679   0.150  10.679 -2.2787 -1.1232  1.2706
  103OSM   H12B10386   1.795   0.023  10.670  1.7386 -0.1029  0.1092
  103OSM    C1110387   1.877   0.214  10.718  0.3021  0.2080  0.5336
  103OSM   H11A10388   1.915   0.229  10.614 -1.1143 -1.2028 -0.2272
  103OSM   H11B10389   1.960   0.172  10.780 -1.3044 -2.3924  1.0652
  103OSM      P10390   1.750   0.437  10.696  0.0438  0.6922  0.8312
  103OSM    O1310391   1.659   0.499  10.791  1.3177  0.3579 -0.6705
  103OSM    O1410392   1.827   0.532  10.611  0.3013  0.1325  0.4829
  103OSM    O1110393   1.666   0.338  10.609  0.2057 -0.1291  0.0427
  103OSM    O1210394   1.842   0.333  10.777 -0.1829 -0.0690 -0.1091
  103OSM    C1S10395   1.525   0.358  10.575  0.3725 -0.0350  0.4601
  103OSM    H1S10396   1.471   0.418  10.651 -0.5008  0.7490 -0.7324
  103OSM    H1T10397   1.489   0.254  10.581 -0.5843  0.1212 -1.6320
  103OSM     NF10398   1.348   0.430  10.416  0.6119  0.1854 -0.3035
  103OSM    HNF10399   1.281   0.371  10.371  1.3133 -1.7261  1.0222
  103OSM    C2S10400   1.493   0.397  10.430 -0.3669  0.9349  0.1095
  103OSM    H2S10401   1.550   0.488  10.401 -0.6534  0.6603 -1.4209
  103OSM    C3S10402   1.544   0.293  10.337 -0.4190  1.1140 -0.0578
  103OSM    H3S10403   1.508   0.189  10.353  1.5881  0.4645  0.5328
  103OSM     O310404   1.686   0.270  10.342 -0.0548  0.1761 -0.2445
  103OSM    HO310405   1.712   0.309  10.426  2.0816  0.6793 -1.0758
  103OSM    C4S10406   1.507   0.338  10.201  0.4992  0.2872 -0.2602
  103OSM    H4S10407   1.539   0.443  10.187 -0.4127  0.6094 -0.0069
  103OSM    C5S10408   1.432   0.267  10.115 -0.8327 -0.2003 -0.0186
  103OSM    H5S10409   1.382   0.175  10.150  0.1392 -1.2137 -1.1652
  103OSM    C6S10410   1.388   0.327   9.981  0.8594  0.0349 -0.1693
  103OSM    H6S10411   1.424   0.432   9.980 -0.0110  0.4490  2.7475
  103OSM    H6T10412   1.278   0.323   9.968  0.7653 -0.4658  0.6974
  103OSM    C7S10413   1.449   0.247   9.870  0.1036  0.0742  0.5265
  103OSM    H7S10414   1.426   0.140   9.884  0.3418 -0.2393 -1.2830
  103OSM    H7T10415   1.560   0.236   9.875 -0.1065 -2.7991  0.4930
  103OSM    C8S10416   1.419   0.273   9.723  0.0232  0.1021 -0.3388
  103OSM    H8S10417   1.482   0.358   9.690 -0.8661  1.0332  0.3230
  103OSM    H8T10418   1.315   0.310   9.707 -0.4065 -0.9064  0.0353
  103OSM    C9S10419   1.428   0.145   9.646 -0.1005 -1.2471 -0.5039
  103OSM    H9S10420   1.351   0.073   9.679 -0.5925 -0.6519 -0.3259
  103OSM    H9T10421   1.528   0.097   9.652 -0.7953 -2.4825  2.2340
  103OSM   C10S10422   1.412   0.164   9.489  0.3659 -0.0754 -0.6029
  103OSM   H10S10423   1.510   0.191   9.443  2.0968 -1.5189  1.9701
  103OSM   H10T10424   1.350   0.256   9.494 -0.5053 -0.7125  0.8063
  103OSM   C11S10425   1.354   0.038   9.421 -0.3177  0.9137  0.2327
  103OSM   H11S10426   1.260  -0.000   9.466 -0.4395 -0.7684 -1.3749
  103OSM   H11T10427   1.435  -0.034   9.444 -0.7393  0.4302  0.2292
  103OSM   C12S10428   1.334   0.068   9.275 -0.4084  0.8401 -0.0177
  103OSM   H12S10429   1.432   0.079   9.224 -1.6517  0.7178 -2.5845
  103OSM   H12T10430   1.268   0.157   9.272  0.1693  1.2455 -0.9159
  103OSM   C13S10431   1.262  -0.059   9.215 -0.0952 -0.0519  0.0646
  103OSM   H13S10432   1.182  -0.073   9.291  0.5870 -1.3266  0.5679
  103OSM   H13T10433   1.321  -0.153   9.210 -0.5779 -0.3453 -0.3091
  103OSM   C14S10434   1.190  -0.037   9.084 -0.1910  0.2804  0.7935
  103OSM   H14S10435   1.157   0.069   9.091  3.0005  1.5367 -0.9526
  103OSM   H14T10436   1.099  -0.100   9.078 -0.7815  1.0405  1.4873
  103OSM   C15S10437   1.280  -0.065   8.960 -0.8046 -0.0797  0.1436
  103OSM   H15S10438   1.313  -0.167   8.931 -0.3262 -0.4227  1.7655
  103OSM   H15T10439   1.370  -0.004   8.982 -1.3151  1.4008 -1.6147
  103OSM   C16S10440   1.221  -0.009   8.831  0.0466  0.2809  0.1279
  103OSM   H16S10441   1.278  -0.046   8.743  0.2608 -1.6438  1.0323
  103OSM   H16T10442   1.213   0.102   8.826  2.5862  0.5603  0.7792
  103OSM   C17S10443   1.070  -0.044   8.805 -0.5906  0.1185  0.6534
  103OSM   H17S10444   1.007  -0.012   8.891 -0.7736  0.5820  0.3515
  103OSM   H17T10445   1.062  -0.154   8.796 -4.4953  0.1502  1.6748
  103OSM   C18S10446   1.021   0.013   8.673  0.4956 -0.3247 -0.2111
  103OSM   H18S10447   1.053   0.119   8.664  0.5054 -0.3213 -0.1345
  103OSM   H18T10448   0.911   0.008   8.656  0.1724 -0.9717  1.8590
  103OSM   H18U10449   1.063  -0.045   8.588 -0.5315 -0.6732 -0.4944
  103OSM    C1F10450   1.283   0.537  10.459  0.9914  0.8979  0.8760
  103OSM     OF10451   1.322   0.612  10.546 -0.0194 -0.5212  0.3191
  103OSM    C2F10452   1.155   0.566  10.397  0.6035 -0.4616  0.8906
  103OSM    H2F10453   1.079   0.534  10.472  2.9742 -1.8499  2.8212
  103OSM    H2G10454   1.125   0.518  10.301  1.2941  2.3322 -0.8494
  103OSM    C3F10455   1.154   0.717  10.349  0.0231  1.3718 -0.9075
  103OSM    H3F10456   1.169   0.773  10.444 -0.3843  0.5365 -0.3406
  103OSM    H3G10457   1.054   0.747  10.311 -1.0289 -0.6646  0.1237
  103OSM    C4F10458   1.255   0.758  10.246 -0.8560 -0.1217 -0.0657
  103OSM    H4F10459   1.355   0.751  10.293 -1.9685 -2.1969  2.2719
  103OSM    H4G10460   1.242   0.864  10.215  1.9604  0.3747  0.2517
  103OSM    C5F10461   1.255   0.676  10.117 -0.0601  0.6149  0.1162
  103OSM    H5F10462   1.281   0.569  10.135  1.5698  0.9285 -0.2070
  103OSM    H5G10463   1.352   0.709  10.074  0.1171 -0.4152 -0.3029
  103OSM    C6F10464   1.135   0.704  10.023 -0.2772  0.4298  0.1767
  103OSM    H6F10465   1.113   0.810   9.999 -1.5829 -0.2354 -1.7747
  103OSM    H6G10466   1.042   0.676  10.077 -0.2790 -1.8148 -0.8818
  103OSM    C7F10467   1.140   0.628   9.887 -0.4837 -0.7538 -0.7428
  103OSM    H7F10468   1.040   0.644   9.840 -0.9551 -0.3618  0.3545
  103OSM    H7G10469   1.136   0.521   9.915 -1.7334 -0.2521  1.2312
  103OSM    C8F10470   1.252   0.669   9.788 -0.5425 -0.7719  0.0241
  103OSM    H8F10471   1.247   0.593   9.707 -1.2086  0.5671 -1.2492
  103OSM    H8G10472   1.345   0.668   9.848  0.9813  1.1998 -2.1133
  103OSM    C9F10473   1.237   0.807   9.721  0.0883  0.2984 -0.4150
  103OSM    H9F10474   1.188   0.886   9.779 -1.1586 -1.5565  1.1951
  103OSM   C10F10475   1.252   0.828   9.586  0.0558  0.4401 -0.5397
  103OSM   H10F10476   1.253   0.929   9.542  0.9937  0.8933  0.4757
  103OSM   C11F10477   1.297   0.723   9.483  0.2160  0.0666 -0.5487
  103OSM   H11F10478   1.342   0.637   9.537 -0.9112 -0.8019 -0.9564
  103OSM   H11G10479   1.370   0.763   9.410  0.6166 -1.3508 -0.9555
  103OSM   C12F10480   1.174   0.671   9.413 -0.6833  0.0270 -0.6134
  103OSM   H12F10481   1.103   0.752   9.386  1.2116  2.0833  0.3711
  103OSM   H12G10482   1.110   0.612   9.483 -0.2545  0.3192  0.0297
  103OSM   C13F10483   1.215   0.587   9.290 -0.4023  0.1630  0.0960
  103OSM   H13F10484   1.263   0.496   9.330 -1.2424  0.5470  2.0950
  103OSM   H13G10485   1.282   0.650   9.228 -2.9009  1.9288 -0.9654
  103OSM   C14F10486   1.087   0.567   9.211 -0.2255 -0.0012 -0.1474
  103OSM   H14F10487   1.044   0.665   9.179  2.0667  0.3602 -2.4140
  103OSM   H14G10488   1.013   0.520   9.279 -0.2311  0.9146  0.5028
  103OSM   C15F10489   1.107   0.481   9.087  0.2254 -0.5073 -0.2074
  103OSM   H15F10490   1.180   0.398   9.102 -0.4710 -0.6216  3.3870
  103OSM   H15G10491   1.157   0.540   9.007 -1.2223 -1.8573 -2.2052
  103OSM   C16F10492   0.975   0.414   9.041 -0.5431  0.5698  0.1419
  103OSM   H16F10493   0.892   0.488   9.048  0.5416  1.8259  0.2125
  103OSM   H16G10494   0.954   0.329   9.109  0.4502  0.9799  0.9745
  103OSM   C17F10495   0.976   0.368   8.892 -0.7183 -0.8333 -0.7149
  103OSM   H17F10496   0.889   0.299   8.882 -1.3260 -0.5695  1.8517
  103OSM   H17G10497   1.070   0.310   8.882  0.3789  0.2811  1.9793
  103OSM   C18F10498   0.968   0.472   8.782  0.1340  0.6962  0.4924
  103OSM   H18F10499   1.050   0.546   8.791  1.9455 -1.1337 -0.0332
  103OSM   H18G10500   0.873   0.529   8.788  0.5617  1.2694  4.8740
  103OSM   H18H10501   0.966   0.428   8.679  1.0264 -0.1995  0.8408
  104OSM      N10502   2.275   6.719  10.601 -0.3677 -0.5584 -0.4783
  104OSM    C1510503   2.221   6.692  10.465 -0.7711  0.0487  0.6243
  104OSM   H15A10504   2.183   6.783  10.419 -0.1995  0.3912  0.8183
  104OSM   H15B10505   2.144   6.617  10.465  1.9084 -2.9268  2.3635
  104OSM   H15C10506   2.301   6.656  10.401  1.1633 -0.2706  3.0840
  104OSM    C1410507   2.159   6.766  10.687  0.5783 -0.2054 -0.4602
  104OSM   H14A10508   2.068   6.708  10.683  0.4651 -0.0158 -0.7296
  104OSM   H14B10509   2.143   6.867  10.653 -0.1529 -0.0176  0.4168
  104OSM   H14C10510   2.187   6.767  10.791  0.0504  1.4454 -0.2992
  104OSM    C1310511   2.318   6.593  10.670 -0.2162  0.1421 -0.4586
  104OSM   H13A10512   2.236   6.526  10.692  1.3966 -1.4129  1.1604
  104OSM   H13B10513   2.372   6.613  10.760  0.1237 -0.5275 -0.5048
  104OSM   H13C10514   2.395   6.539  10.618  0.4852 -0.5071  1.1974
  104OSM    C1210515   2.385   6.820  10.596 -0.0634 -0.8516  0.1051
  104OSM   H12A10516   2.342   6.907  10.550  2.4897  0.3819 -0.0569
  104OSM   H12B10517   2.470   6.791  10.537 -0.1412  2.0571 -1.5565
  104OSM    C1110518   2.439   6.862  10.734  0.0890  0.4612  0.4662
  104OSM   H11A10519   2.363   6.875  10.814 -2.1619 -1.4125 -1.2267
  104OSM   H11B10520   2.494   6.957  10.721  0.7107  0.4397  2.4725
  104OSM      P10521   2.677   6.743  10.716  0.3814 -0.0714 -0.6575
  104OSM    O1310522   2.766   6.827  10.794  0.0029 -1.1144  0.3822
  104OSM    O1410523   2.707   6.598  10.702  0.2664  0.1807 -0.1252
  104OSM    O1110524   2.657   6.812  10.575 -0.2939 -0.0715 -0.2559
  104OSM    O1210525   2.534   6.763  10.784 -0.0066 -0.2197 -0.3214
  104OSM    C1S10526   2.771   6.816  10.480  0.4690  0.7925  0.4455
  104OSM    H1S10527   2.830   6.722  10.488 -0.4425 -0.0156 -1.5474
  104OSM    H1T10528   2.837   6.901  10.507  0.5593  1.5866 -2.0136
  104OSM     NF10529   2.848   6.808  10.248 -0.8237  0.4238  0.2039
  104OSM    HNF10530   2.858   6.874  10.174  0.8443  2.7242  2.3091
  104OSM    C2S10531   2.732   6.826  10.331  0.2964 -0.6006  0.9779
  104OSM    H2S10532   2.665   6.741  10.302 -1.0835  0.0624  2.1131
  104OSM    C3S10533   2.652   6.953  10.293  0.3339 -0.5147  0.2697
  104OSM    H3S10534   2.712   7.046  10.298  0.0610  0.3913 -5.7441
  104OSM     O310535   2.540   6.973  10.385 -0.5742 -0.0705  0.2973
  104OSM    HO310536   2.572   6.934  10.466  1.0475 -2.1426 -1.2174
  104OSM    C4S10537   2.607   6.945  10.152 -0.2892  0.1040  0.7854
  104OSM    H4S10538   2.535   6.868  10.123  1.4266 -0.4208 -2.5643
  104OSM    C5S10539   2.630   7.042  10.066  0.7752  0.6680  0.3077
  104OSM    H5S10540   2.703   7.122  10.085  0.3225  0.3554  3.9914
  104OSM    C6S10541   2.565   7.051   9.928 -0.5310 -0.0623 -0.0635
  104OSM    H6S10542   2.486   7.129   9.937 -0.1545  0.2547  0.6024
  104OSM    H6T10543   2.499   6.966   9.902  0.7538 -1.7569  1.9198
  104OSM    C7S10544   2.667   7.075   9.815 -0.2109 -0.6102  0.0794
  104OSM    H7S10545   2.734   6.987   9.813  1.5278  0.6521 -2.2163
  104OSM    H7T10546   2.726   7.167   9.835 -0.8396  0.1185 -1.2589
  104OSM    C8S10547   2.603   7.099   9.679 -0.3787 -0.5061  0.3832
  104OSM    H8S10548   2.687   7.136   9.616 -0.2439 -0.6568  0.4745
  104OSM    H8T10549   2.528   7.180   9.688  0.4260  0.6606 -2.2269
  104OSM    C9S10550   2.547   6.974   9.614  0.1624  0.4232  0.6664
  104OSM    H9S10551   2.456   6.932   9.662  0.1741  0.0125  0.3364
  104OSM    H9T10552   2.618   6.892   9.642 -0.1071  0.0683  0.3166
  104OSM   C10S10553   2.516   6.984   9.460 -0.2990  0.0106 -0.4416
  104OSM   H10S10554   2.465   7.081   9.444  0.1471  0.7290  2.0636
  104OSM   H10T10555   2.447   6.901   9.432 -0.0482 -0.6319  0.7772
  104OSM   C11S10556   2.648   6.991   9.381 -0.7383 -0.1076 -0.0039
  104OSM   H11S10557   2.719   6.906   9.388  2.0710  2.1024 -0.2240
  104OSM   H11T10558   2.706   7.084   9.401 -1.2571  0.1464  0.3672
  104OSM   C12S10559   2.614   7.002   9.229  0.4255 -0.6630  1.1751
  104OSM   H12S10560   2.703   7.033   9.170  0.1721  0.4329  1.3411
  104OSM   H12T10561   2.540   7.085   9.220  0.3238 -0.9017 -0.5974
  104OSM   C13S10562   2.559   6.869   9.180 -0.2034  0.2554  0.0389
  104OSM   H13S10563   2.465   6.835   9.228  0.8906 -1.0612  1.3093
  104OSM   H13T10564   2.637   6.791   9.190  2.1791  2.0316 -2.9028
  104OSM   C14S10565   2.528   6.865   9.028  0.5861 -0.5406  0.6727
  104OSM   H14S10566   2.469   6.956   9.006  0.7741 -0.7762 -0.9735
  104OSM   H14T10567   2.458   6.781   9.011  2.0776 -1.4045 -1.8387
  104OSM   C15S10568   2.642   6.858   8.923 -0.1688 -0.1405  0.4541
  104OSM   H15S10569   2.708   6.772   8.948  0.9032  0.9601  1.5816
  104OSM   H15T10570   2.695   6.953   8.945 -2.9753  1.8315 -0.8104
  104OSM   C16S10571   2.595   6.842   8.777 -0.7312  0.5585 -0.1513
  104OSM   H16S10572   2.549   6.941   8.753  0.9221  1.1784 -0.8612
  104OSM   H16T10573   2.512   6.769   8.765  0.5584 -1.3086  1.6593
  104OSM   C17S10574   2.714   6.817   8.672 -0.5099  0.4605 -0.6722
  104OSM   H17S10575   2.768   6.724   8.699 -2.4046 -0.2228  1.0315
  104OSM   H17T10576   2.783   6.899   8.697  0.2366 -0.1801 -0.5948
  104OSM   C18S10577   2.690   6.820   8.524  0.1749  0.4521  0.0373
  104OSM   H18S10578   2.588   6.780   8.504 -0.6221  1.4221  1.9422
  104OSM   H18T10579   2.766   6.762   8.468 -2.2271 -2.4152 -0.5052
  104OSM   H18U10580   2.688   6.925   8.488 -1.9015  1.0802  1.7521
  104OSM    C1F10581   2.925   6.695  10.243 -0.1930 -0.0128 -0.5172
  104OSM     OF10582   2.886   6.588  10.285 -0.1545 -0.1255 -0.1782
  104OSM    C2F10583   3.043   6.707  10.158 -0.4499  0.2002  0.2293
  104OSM    H2F10584   3.109   6.788  10.196 -1.6476  2.5520 -2.3428
  104OSM    H2G10585   3.008   6.741  10.058  0.3299 -2.2425 -0.9731
  104OSM    C3F10586   3.112   6.568  10.145  0.0616  0.7938 -0.3281
  104OSM    H3F10587   3.039   6.498  10.100  0.3217 -0.9225  1.8123
  104OSM    H3G10588   3.134   6.530  10.247  0.3799 -0.7767 -0.9483
  104OSM    C4F10589   3.238   6.557  10.049  0.3727 -0.1829 -0.0921
  104OSM    H4F10590   3.278   6.454  10.065  0.9209  0.0218 -0.1350
  104OSM    H4G10591   3.320   6.625  10.081 -0.3111  1.3826 -1.5825
  104OSM    C5F10592   3.201   6.590   9.903  0.3124 -0.3023 -0.1855
  104OSM    H5F10593   3.177   6.699   9.907 -0.0154 -0.3749 -0.1656
  104OSM    H5G10594   3.112   6.529   9.878 -0.8762  1.4388 -0.3718
  104OSM    C6F10595   3.325   6.562   9.821 -0.2163  0.1323 -0.2294
  104OSM    H6F10596   3.375   6.468   9.852 -1.6348 -0.8242 -0.7675
  104OSM    H6G10597   3.394   6.645   9.850  0.7141 -0.4418 -0.7672
  104OSM    C7F10598   3.296   6.561   9.671 -0.5449 -0.3840 -0.6514
  104OSM    H7F10599   3.239   6.648   9.631  1.3309  1.0092 -0.4389
  104OSM    H7G10600   3.219   6.483   9.652 -1.1945  0.3613 -1.1632
  104OSM    C8F10601   3.421   6.545   9.582  0.1856 -1.0194 -0.5203
  104OSM    H8F10602   3.377   6.499   9.491 -0.7951 -0.3775 -0.3858
  104OSM    H8G10603   3.493   6.471   9.626  1.1778  0.8601  1.1877
  104OSM    C9F10604   3.505   6.660   9.556  0.2098  0.0494  0.3556
  104OSM    H9F10605   3.527   6.727   9.640  0.0992  2.7911 -1.6424
  104OSM   C10F10606   3.531   6.708   9.427  0.3495 -0.7403 -0.2570
  104OSM   H10F10607   3.585   6.804   9.428 -1.0373  0.0985 -1.7336
  104OSM   C11F10608   3.477   6.665   9.293 -0.5412  0.3661  0.4723
  104OSM   H11F10609   3.436   6.562   9.283 -0.3770  0.2376  1.0737
  104OSM   H11G10610   3.568   6.631   9.238 -0.0346  0.2654  1.3596
  104OSM   C12F10611   3.395   6.772   9.223  0.1422 -0.4447 -0.0490
  104OSM   H12F10612   3.338   6.835   9.294  3.4126  2.3651  0.3832
  104OSM   H12G10613   3.315   6.734   9.156 -0.3975 -1.5061  1.1555
  104OSM   C13F10614   3.479   6.875   9.154  0.2255  0.2477  0.8467
  104OSM   H13F10615   3.575   6.881   9.210 -0.1849 -1.4047  1.8043
  104OSM   H13G10616   3.425   6.972   9.157 -0.5165 -0.0411 -1.3514
  104OSM   C14F10617   3.512   6.843   9.003 -0.1934  0.4932 -0.7589
  104OSM   H14F10618   3.562   6.929   8.954  0.9939 -0.2646 -0.9233
  104OSM   H14G10619   3.413   6.830   8.954  0.2271  1.1375 -1.8089
  104OSM   C15F10620   3.592   6.721   8.978  0.0982  0.3424 -0.1209
  104OSM   H15F10621   3.535   6.626   8.989 -0.5935  0.9702  2.3297
  104OSM   H15G10622   3.674   6.716   9.052 -1.3634 -1.3065  1.4849
  104OSM   C16F10623   3.648   6.731   8.839  0.3970  0.0467 -0.5150
  104OSM   H16F10624   3.713   6.642   8.823  3.0842  1.7370  0.3142
  104OSM   H16G10625   3.718   6.813   8.814  1.7688 -1.0960 -0.5439
  104OSM   C17F10626   3.542   6.744   8.728 -0.5564  0.2446 -0.5805
  104OSM   H17F10627   3.502   6.847   8.735 -0.7750  0.2391 -1.5637
  104OSM   H17G10628   3.457   6.674   8.748  1.5118 -1.8944  1.2974
  104OSM   C18F10629   3.591   6.736   8.585 -0.2369  0.5765 -0.0080
  104OSM   H18F10630   3.502   6.749   8.520  0.2995  0.4194 -0.7915
  104OSM   H18G10631   3.632   6.636   8.558 -0.0453  0.3238  1.1621
  104OSM   H18H10632   3.666   6.813   8.557  0.4016  0.1604  0.5161
  105OSM      N10633   4.168   3.081  10.736 -0.8006  0.1408 -0.7469
  105OSM    C1510634   4.275   3.050  10.837  0.1426  0.4425  0.6337
  105OSM   H15A10635   4.370   3.087  10.800  0.9876 -2.9201 -0.9677
  105OSM   H15B10636   4.279   2.945  10.861  1.3211  0.2283 -0.3792
  105OSM   H15C10637   4.246   3.100  10.928 -1.7319  2.4526 -0.9736
  105OSM    C1410638   4.199   2.987  10.621 -0.7942  0.4461  0.0684
  105OSM   H14A10639   4.297   3.007  10.580  0.1502 -0.0594  1.9771
  105OSM   H14B10640   4.122   3.002  10.547  0.2391  3.5847 -0.5492
  105OSM   H14C10641   4.206   2.883  10.647  2.4353  0.2015 -1.4175
  105OSM    C1310642   4.041   3.023  10.791 -1.0522  0.0194 -0.1258
  105OSM   H13A10643   4.056   2.920  10.818 -2.1393 -0.4887 -1.3649
  105OSM   H13B10644   3.968   3.024  10.711 -0.3217 -0.8842 -0.8240
  105OSM   H13C10645   4.016   3.069  10.885  0.0431 -0.5745  0.4704
  105OSM    C1210646   4.162   3.227  10.694  0.2580 -0.9650 -0.4233
  105OSM   H12A10647   4.129   3.286  10.779 -0.9165 -0.9495 -0.8676
  105OSM   H12B10648   4.078   3.243  10.628  0.3111  1.2758 -0.0475
  105OSM    C1110649   4.288   3.285  10.627 -0.0671 -0.6130  0.3206
  105OSM   H11A10650   4.264   3.384  10.584 -3.5476 -0.6940  1.7749
  105OSM   H11B10651   4.329   3.230  10.539  1.7975 -0.5177  1.0682
  105OSM      P10652   4.393   3.392  10.843  0.0504 -0.2391 -0.1527
  105OSM    O1310653   4.262   3.457  10.861 -0.1076 -0.4188  0.0126
  105OSM    O1410654   4.445   3.335  10.971 -0.4576  0.1865  0.3583
  105OSM    O1110655   4.506   3.484  10.804  0.6943 -0.2289 -0.0020
  105OSM    O1210656   4.392   3.281  10.728 -0.4912  0.3040  0.1325
  105OSM    C1S10657   4.629   3.452  10.735 -0.0343 -0.0505  0.0520
  105OSM    H1S10658   4.664   3.350  10.761  0.1233  0.1086  0.4632
  105OSM    H1T10659   4.712   3.521  10.764  0.4202 -1.0751  1.2952
  105OSM     NF10660   4.758   3.435  10.522 -0.2439  0.4360 -0.2316
  105OSM    HNF10661   4.810   3.517  10.500 -0.6945  1.2945  1.6447
  105OSM    C2S10662   4.623   3.463  10.578 -0.3744 -0.0459  0.3415
  105OSM    H2S10663   4.556   3.384  10.538 -0.1518  0.8271 -1.9489
  105OSM    C3S10664   4.555   3.597  10.537 -0.5817  0.1459 -0.6105
  105OSM    H3S10665   4.606   3.683  10.586 -0.1593  0.8220 -2.1755
  105OSM     O310666   4.424   3.609  10.584  0.2186 -0.5670 -0.0934
  105OSM    HO310667   4.407   3.533  10.640  2.2232 -1.6918 -0.8936
  105OSM    C4S10668   4.552   3.601  10.393  0.2222  0.0931 -0.1928
  105OSM    H4S10669   4.494   3.514  10.359  3.9360 -2.7789  0.1347
  105OSM    C5S10670   4.616   3.690  10.309  0.0657  0.3561  0.1673
  105OSM    H5S10671   4.690   3.761  10.351  0.1905  0.4155 -0.1459
  105OSM    C6S10672   4.607   3.677  10.157 -0.3465  0.3293 -0.5718
  105OSM    H6S10673   4.619   3.776  10.108 -0.0249  0.2392 -0.6807
  105OSM    H6T10674   4.504   3.651  10.124 -0.1061 -1.2652 -0.1832
  105OSM    C7S10675   4.705   3.579  10.087 -0.0833 -0.1765 -0.1817
  105OSM    H7S10676   4.811   3.592  10.117 -0.5426  0.1637  1.4042
  105OSM    H7T10677   4.696   3.606   9.980  0.8442 -0.1675 -0.2640
  105OSM    C8S10678   4.671   3.428  10.113 -0.0545 -0.2619 -0.7476
  105OSM    H8S10679   4.565   3.409  10.088 -0.1892  0.1746 -0.5067
  105OSM    H8T10680   4.682   3.406  10.221  0.8632  4.6191  0.3968
  105OSM    C9S10681   4.759   3.330  10.030  0.3366 -0.0227  0.1174
  105OSM    H9S10682   4.755   3.223  10.062 -0.0710  0.0973  0.4713
  105OSM    H9T10683   4.863   3.368  10.042  0.4183  0.4687 -1.8642
  105OSM   C10S10684   4.746   3.342   9.874 -0.4100 -0.3229 -0.3199
  105OSM   H10S10685   4.760   3.450   9.851 -3.0383  0.1153 -0.2038
  105OSM   H10T10686   4.642   3.329   9.837 -0.4743  0.4653 -0.4395
  105OSM   C11S10687   4.845   3.256   9.792  0.7681  0.2533  0.6569
  105OSM   H11S10688   4.827   3.152   9.827 -0.6062  0.2362 -0.0329
  105OSM   H11T10689   4.951   3.289   9.792  0.2007  2.3055 -1.5228
  105OSM   C12S10690   4.819   3.254   9.639 -0.0634  0.0632  0.1408
  105OSM   H12S10691   4.837   3.362   9.622 -0.3345 -0.0112 -0.6891
  105OSM   H12T10692   4.713   3.228   9.617 -0.8485  1.1044  2.4082
  105OSM   C13S10693   4.931   3.177   9.561  1.1106  0.1666 -0.0299
  105OSM   H13S10694   4.919   3.069   9.580  3.1936 -0.5797 -2.5257
  105OSM   H13T10695   5.032   3.196   9.603  0.4116 -0.5446  2.0826
  105OSM   C14S10696   4.926   3.205   9.411  0.0161  0.1745 -0.0090
  105OSM   H14S10697   4.983   3.300   9.400 -1.0982  1.3369  3.1736
  105OSM   H14T10698   4.821   3.223   9.382  0.2549  0.5352 -0.6489
  105OSM   C15S10699   4.989   3.091   9.329 -0.2674  0.0470  0.1547
  105OSM   H15S10700   4.918   3.005   9.333  1.1498 -1.3584 -2.5721
  105OSM   H15T10701   5.081   3.060   9.384  0.2806 -0.5127 -1.0425
  105OSM   C16S10702   5.034   3.139   9.185 -0.0805  0.0802 -0.4947
  105OSM   H16S10703   5.108   3.220   9.204 -0.3125 -0.2704  2.4949
  105OSM   H16T10704   4.946   3.182   9.133  0.7533 -0.3846 -2.3854
  105OSM   C17S10705   5.092   3.028   9.098  0.2384 -0.2417 -0.6054
  105OSM   H17S10706   5.031   2.938   9.121 -1.5718  1.0126 -0.2479
  105OSM   H17T10707   5.196   3.008   9.130  0.4067 -0.1552 -1.0934
  105OSM   C18S10708   5.096   3.062   8.948 -0.0705  0.2049  0.3639
  105OSM   H18S10709   5.152   3.157   8.938  0.3680 -0.0314  0.5361
  105OSM   H18T10710   5.003   3.061   8.888 -0.4999  2.1193  0.9604
  105OSM   H18U10711   5.157   2.983   8.898  0.4411  0.7988  0.0271
  105OSM    C1F10712   4.824   3.322  10.545 -0.3300  0.5772  0.0175
  105OSM     OF10713   4.774   3.224  10.598 -0.1470  0.6732 -0.1845
  105OSM    C2F10714   4.970   3.317  10.498 -0.0226  0.3914 -0.0134
  105OSM    H2F10715   5.001   3.210  10.510  1.4003  0.7674 -0.1289
  105OSM    H2G10716   5.027   3.378  10.571 -1.0020 -0.3500  1.4033
  105OSM    C3F10717   4.984   3.348  10.351 -0.4468 -0.9283 -0.5159
  105OSM    H3F10718   4.950   3.452  10.331 -0.9024 -1.3535 -2.1212
  105OSM    H3G10719   4.925   3.275  10.292 -1.5337 -0.4537 -0.0400
  105OSM    C4F10720   5.131   3.351  10.293 -0.1793 -0.3176 -0.1296
  105OSM    H4F10721   5.180   3.255  10.317  2.6098  0.5628 -1.8327
  105OSM    H4G10722   5.196   3.427  10.341  2.3768 -2.0740 -0.6500
  105OSM    C5F10723   5.123   3.369  10.140  0.4537  0.3603 -1.1692
  105OSM    H5F10724   5.050   3.452  10.131  0.8214  1.2905  2.7487
  105OSM    H5G10725   5.066   3.284  10.097 -0.1225  0.9943 -1.6789
  105OSM    C6F10726   5.246   3.411  10.070 -0.3583  0.1143  0.6115
  105OSM    H6F10727   5.295   3.322  10.025 -0.9287  0.5410 -0.9232
  105OSM    H6G10728   5.302   3.474  10.141 -1.6360 -0.7027  2.4235
  105OSM    C7F10729   5.212   3.491   9.936 -0.6075 -0.8011  0.1011
  105OSM    H7F10730   5.119   3.551   9.947 -1.7505 -2.3911 -0.3826
  105OSM    H7G10731   5.197   3.413   9.858  0.4117 -1.3065  0.3885
  105OSM    C8F10732   5.328   3.582   9.893 -0.3234 -0.7030 -0.0717
  105OSM    H8F10733   5.351   3.648   9.979  1.8296 -0.6883 -0.5906
  105OSM    H8G10734   5.298   3.649   9.810  2.9644 -0.8893 -1.5520
  105OSM    C9F10735   5.451   3.504   9.857 -0.0949  0.1893 -0.2319
  105OSM    H9F10736   5.499   3.450   9.941  1.4055  0.6341 -0.7667
  105OSM   C10F10737   5.500   3.471   9.731  0.5914 -0.6284 -0.3532
  105OSM   H10F10738   5.590   3.411   9.714  0.6596 -0.4642 -0.5792
  105OSM   C11F10739   5.436   3.526   9.607 -0.7140 -0.4026  0.0357
  105OSM   H11F10740   5.337   3.575   9.619 -0.3620  0.1435  0.8282
  105OSM   H11G10741   5.430   3.446   9.531  0.2350  1.0253 -1.6375
  105OSM   C12F10742   5.519   3.632   9.540  0.0721  0.6698 -0.1554
  105OSM   H12F10743   5.622   3.600   9.566 -0.6559 -1.7345  0.0567
  105OSM   H12G10744   5.507   3.727   9.596  1.5009  0.0724  1.2597
  105OSM   C13F10745   5.489   3.650   9.388  0.2727  0.1134  0.0493
  105OSM   H13F10746   5.479   3.546   9.352 -1.2402  0.1714  0.2330
  105OSM   H13G10747   5.582   3.684   9.337  0.3494  0.4525  0.4064
  105OSM   C14F10748   5.345   3.704   9.360  0.1850 -0.1424  0.1373
  105OSM   H14F10749   5.334   3.791   9.429  1.8219  0.6031 -0.4970
  105OSM   H14G10750   5.268   3.628   9.388  3.3778 -3.4586  0.6061
  105OSM   C15F10751   5.309   3.760   9.223 -0.0541  0.3788 -0.0899
  105OSM   H15F10752   5.397   3.815   9.185  0.4931 -0.8197 -0.5913
  105OSM   H15G10753   5.222   3.828   9.233 -1.1013 -0.4062 -2.8568
  105OSM   C16F10754   5.255   3.658   9.113 -0.5269  0.3489 -0.5319
  105OSM   H16F10755   5.178   3.690   9.040  0.1380 -0.1594 -1.4869
  105OSM   H16G10756   5.223   3.571   9.173  2.1567  0.4644  1.2356
  105OSM   C17F10757   5.374   3.600   9.029  0.4524  0.0410 -0.2661
  105OSM   H17F10758   5.359   3.493   9.003 -1.5762  0.5020 -1.1701
  105OSM   H17G10759   5.468   3.603   9.087  0.9919 -3.7651 -0.7070
  105OSM   C18F10760   5.414   3.675   8.898  0.4941  0.0691 -0.3506
  105OSM   H18F10761   5.509   3.624   8.871 -1.1651 -3.5583  0.2058
  105OSM   H18G10762   5.431   3.785   8.901  0.9380 -0.0095  1.1990
  105OSM   H18H10763   5.335   3.664   8.821  0.0741  0.1544  0.0663
  106OSM      N10764   3.357   1.836  10.770  0.9266 -0.8049  0.1631
  106OSM    C1510765   3.232   1.759  10.740  1.0596  0.4305  0.2324
  106OSM   H15A10766   3.235   1.708  10.645 -1.4732 -1.2698  0.9621
  106OSM   H15B10767   3.150   1.829  10.746  0.3317 -0.4320  0.5203
  106OSM   H15C10768   3.217   1.677  10.809 -1.8051  0.5359 -0.1377
  106OSM    C1410769   3.362   1.869  10.917  0.0772  0.2402  0.5475
  106OSM   H14A10770   3.463   1.895  10.946  0.5085 -0.7575 -0.0322
  106OSM   H14B10771   3.338   1.789  10.986  0.4978  0.7937  1.3611
  106OSM   H14C10772   3.294   1.950  10.940 -1.5884 -1.4434  1.9149
  106OSM    C1310773   3.468   1.733  10.753 -0.1207 -0.3899  0.0937
  106OSM   H13A10774   3.498   1.742  10.649  0.6587  0.6345  0.3881
  106OSM   H13B10775   3.442   1.629  10.757  0.0076 -0.5488 -1.8748
  106OSM   H13C10776   3.550   1.748  10.821  0.1404  3.3467 -0.8308
  106OSM    C1210777   3.368   1.952  10.674 -0.8782 -0.6536  0.5289
  106OSM   H12A10778   3.350   1.915  10.574  4.1065  0.3737 -1.0197
  106OSM   H12B10779   3.472   1.979  10.680 -0.9200 -0.4998  0.5693
  106OSM    C1110780   3.302   2.096  10.698  0.0521 -0.1947 -0.1396
  106OSM   H11A10781   3.333   2.169  10.620  0.8137  1.6952  1.8224
  106OSM   H11B10782   3.345   2.140  10.791  0.0038 -1.0080  0.2779
  106OSM      P10783   3.061   2.140  10.775  0.0464 -0.0978 -0.0319
  106OSM    O1310784   3.004   2.037  10.862 -0.8815 -0.0896 -0.0993
  106OSM    O1410785   3.132   2.252  10.841 -0.3816  0.3684  0.1605
  106OSM    O1110786   2.957   2.209  10.679 -0.0997  0.4272 -0.0933
  106OSM    O1210787   3.162   2.078  10.679 -0.5152  0.0903 -0.2547
  106OSM    C1S10788   3.019   2.291  10.576 -0.0221  0.5488  0.1980
  106OSM    H1S10789   3.121   2.260  10.544 -0.7899  1.2845 -3.3385
  106OSM    H1T10790   3.039   2.395  10.611 -1.7531  1.2798 -0.8377
  106OSM     NF10791   2.996   2.397  10.358  0.1270  0.8012  0.4291
  106OSM    HNF10792   2.962   2.487  10.383 -0.5126  0.6369  0.1718
  106OSM    C2S10793   2.940   2.296  10.444 -0.0551  0.0901 -0.2876
  106OSM    H2S10794   2.958   2.195  10.400 -0.7683  0.6711 -1.9839
  106OSM    C3S10795   2.783   2.310  10.474 -0.1950  0.4811  0.0511
  106OSM    H3S10796   2.761   2.408  10.522 -2.3360 -0.7430  1.7136
  106OSM     O310797   2.732   2.198  10.551 -0.1907  0.2925  0.1718
  106OSM    HO310798   2.810   2.155  10.586 -1.2293  0.5060  3.0401
  106OSM    C4S10799   2.717   2.301  10.342  0.4928  0.4117  1.0387
  106OSM    H4S10800   2.676   2.206  10.306  0.4360  0.3278  1.3178
  106OSM    C5S10801   2.693   2.400  10.256 -0.4999  0.1512  0.1288
  106OSM    H5S10802   2.712   2.497  10.304 -1.1340  0.5107 -0.3382
  106OSM    C6S10803   2.622   2.380  10.126 -0.3101 -0.3337 -0.0325
  106OSM    H6S10804   2.540   2.454  10.112  0.0707 -0.0169 -0.6575
  106OSM    H6T10805   2.585   2.276  10.114  0.4612 -0.4192 -2.1517
  106OSM    C7S10806   2.738   2.381  10.022 -0.5612  0.4930 -0.5589
  106OSM    H7S10807   2.799   2.290  10.043 -1.9756 -0.3419  0.1377
  106OSM    H7T10808   2.794   2.476  10.032 -1.1305  0.9350 -1.4367
  106OSM    C8S10809   2.687   2.376   9.874 -0.9060 -0.1865 -0.0716
  106OSM    H8S10810   2.606   2.451   9.862  0.8645  2.2630  2.1425
  106OSM    H8T10811   2.651   2.274   9.847 -0.0841 -0.6858  0.6592
  106OSM    C9S10812   2.808   2.398   9.782  0.4662  0.4105  0.1053
  106OSM    H9S10813   2.889   2.331   9.818  1.0935  0.2001 -1.5953
  106OSM    H9T10814   2.846   2.503   9.792 -0.0367  0.6553 -0.4854
  106OSM   C10S10815   2.761   2.373   9.644 -0.2334  0.0472  0.2809
  106OSM   H10S10816   2.664   2.425   9.630 -0.1747 -0.3221 -1.7765
  106OSM   H10T10817   2.744   2.264   9.631  0.9553 -0.5128  2.7902
  106OSM   C11S10818   2.844   2.426   9.531 -0.2998 -0.3211  0.1980
  106OSM   H11S10819   2.950   2.391   9.528  1.3201  3.9822  0.3383
  106OSM   H11T10820   2.861   2.535   9.540 -1.8229 -0.1424  1.2816
  106OSM   C12S10821   2.772   2.402   9.396  0.6772 -0.2290  0.1818
  106OSM   H12S10822   2.681   2.466   9.397  0.6161 -0.3240  0.9987
  106OSM   H12T10823   2.745   2.297   9.371 -1.2221  0.5907 -1.4948
  106OSM   C13S10824   2.854   2.452   9.272 -0.1778 -0.3327 -0.0021
  106OSM   H13S10825   2.960   2.420   9.287 -0.4004 -0.8354  0.5266
  106OSM   H13T10826   2.845   2.563   9.281  0.1653  0.0357 -3.1752
  106OSM   C14S10827   2.794   2.401   9.146  0.1074  0.1064  0.0404
  106OSM   H14S10828   2.688   2.433   9.152  0.7643  2.2261  2.1897
  106OSM   H14T10829   2.802   2.291   9.137  0.1129  0.0710  0.4626
  106OSM   C15S10830   2.854   2.469   9.022  0.2537  0.6603 -0.5140
  106OSM   H15S10831   2.871   2.577   9.040 -1.2165  0.7203  0.6610
  106OSM   H15T10832   2.776   2.453   8.944 -2.3831 -1.6493  2.3694
  106OSM   C16S10833   2.980   2.401   8.973  0.4009 -0.2737  0.2643
  106OSM   H16S10834   2.964   2.291   8.961  0.3793 -0.3827  1.1991
  106OSM   H16T10835   3.052   2.414   9.057 -1.0174  1.2705  1.3075
  106OSM   C17S10836   3.043   2.477   8.846 -0.1665  0.6924 -0.8275
  106OSM   H17S10837   2.958   2.481   8.776 -1.0241 -2.0084 -0.0801
  106OSM   H17T10838   3.117   2.402   8.809 -0.1207  0.3799 -0.1358
  106OSM   C18S10839   3.104   2.613   8.877 -0.5338 -0.2883 -0.0324
  106OSM   H18S10840   3.172   2.598   8.964  0.2938 -1.5683 -0.8639
  106OSM   H18T10841   3.028   2.692   8.899  0.5059  0.5095  0.8188
  106OSM   H18U10842   3.171   2.648   8.796  0.6901 -0.2067  0.9878
  106OSM    C1F10843   3.090   2.374  10.261 -0.1472  1.1326 -0.5434
  106OSM     OF10844   3.113   2.258  10.223 -0.0842  0.1754 -0.0316
  106OSM    C2F10845   3.163   2.494  10.210  0.6212  0.1246  0.0911
  106OSM    H2F10846   3.181   2.562  10.297 -0.5943 -0.2021  0.6151
  106OSM    H2G10847   3.108   2.546  10.129 -0.5469 -0.7140  0.3175
  106OSM    C3F10848   3.299   2.453  10.151 -0.2030  0.5293  0.4396
  106OSM    H3F10849   3.274   2.406  10.053  3.1097 -0.1696 -0.1683
  106OSM    H3G10850   3.373   2.396  10.210  0.7537  0.6639 -0.6025
  106OSM    C4F10851   3.379   2.572  10.106 -0.3277  0.0587  0.1221
  106OSM    H4F10852   3.410   2.641  10.188 -0.5516 -0.0182  0.2730
  106OSM    H4G10853   3.312   2.635  10.044  0.0627  0.7071  0.3593
  106OSM    C5F10854   3.506   2.534  10.033  0.5718 -0.9704  0.6264
  106OSM    H5F10855   3.555   2.446  10.080  1.3191 -0.7945  0.2042
  106OSM    H5G10856   3.575   2.620  10.045 -1.1807  0.5001  0.3726
  106OSM    C6F10857   3.465   2.503   9.885 -0.4093 -0.0466  0.0795
  106OSM    H6F10858   3.425   2.600   9.849  2.5717  1.0536 -0.5912
  106OSM    H6G10859   3.389   2.422   9.877  0.7385 -1.0519 -1.1903
  106OSM    C7F10860   3.586   2.454   9.799 -0.0089 -0.4218 -0.1852
  106OSM    H7F10861   3.617   2.364   9.856  1.0336  0.8113  1.2990
  106OSM    H7G10862   3.666   2.531   9.802 -1.3662  1.1152 -1.3492
  106OSM    C8F10863   3.545   2.439   9.645  0.1264  0.4787  0.5331
  106OSM    H8F10864   3.643   2.428   9.595  0.1093 -0.1762  0.6272
  106OSM    H8G10865   3.495   2.532   9.611 -0.4818  0.3672  1.1028
  106OSM    C9F10866   3.463   2.310   9.616 -0.4322 -0.3050  0.1375
  106OSM    H9F10867   3.396   2.285   9.699 -1.4265  1.2843 -0.1310
  106OSM   C10F10868   3.486   2.213   9.521 -0.4784 -0.5956 -0.5270
  106OSM   H10F10869   3.414   2.131   9.513  0.1651 -1.0661 -1.7654
  106OSM   C11F10870   3.594   2.229   9.408  0.6575  0.2459 -0.7378
  106OSM   H11F10871   3.666   2.145   9.405  3.2517  2.3118 -0.8456
  106OSM   H11G10872   3.669   2.310   9.426 -0.2109  0.6441  1.2622
  106OSM   C12F10873   3.533   2.245   9.268  0.8164 -0.2612 -0.0031
  106OSM   H12F10874   3.467   2.160   9.238  1.1010 -0.0079 -1.4218
  106OSM   H12G10875   3.619   2.234   9.198 -0.5649 -0.8559 -1.6855
  106OSM   C13F10876   3.444   2.379   9.249  0.5876  0.0339 -0.3422
  106OSM   H13F10877   3.511   2.462   9.280 -2.2520  1.9984  0.9291
  106OSM   H13G10878   3.350   2.365   9.306  0.3376  1.0696 -0.4877
  106OSM   C14F10879   3.393   2.383   9.110 -0.2892 -0.2535  0.6378
  106OSM   H14F10880   3.325   2.471   9.099 -2.1932 -1.8323 -0.9083
  106OSM   H14G10881   3.320   2.303   9.088 -0.3253 -0.7612  2.4425
  106OSM   C15F10882   3.498   2.413   9.002 -0.0884 -0.0133 -0.9711
  106OSM   H15F10883   3.563   2.325   8.984  1.6538  0.6716  1.3355
  106OSM   H15G10884   3.558   2.496   9.047 -2.3413  0.6375  1.0577
  106OSM   C16F10885   3.455   2.475   8.865 -0.6789  0.1731 -0.0502
  106OSM   H16F10886   3.395   2.568   8.881  1.0257  1.0342  1.9391
  106OSM   H16G10887   3.381   2.410   8.816 -1.3625  1.2183 -0.4480
  106OSM   C17F10888   3.560   2.491   8.757  0.4663  0.7447  0.2637
  106OSM   H17F10889   3.589   2.388   8.729 -1.1526  0.7790 -1.7565
  106OSM   H17G10890   3.647   2.548   8.797 -0.4835  1.6065  1.1987
  106OSM   C18F10891   3.524   2.556   8.623 -0.1002  0.7491  0.2087
  106OSM   H18F10892   3.472   2.653   8.637 -0.3485  0.6977 -0.3035
  106OSM   H18G10893   3.439   2.502   8.578 -2.2748  2.3332  2.1896
  106OSM   H18H10894   3.623   2.559   8.571 -0.2844 -2.2211 -0.5088
  107OSM      N10895   0.982   0.469  10.977  0.4957  0.8770  0.1946
  107OSM    C1510896   0.988   0.338  11.051  0.0432 -0.3296  0.1492
  107OSM   H15A10897   1.001   0.265  10.972  1.8762  3.0477 -2.9899
  107OSM   H15B10898   0.905   0.329  11.120  0.9720  0.6495  1.4568
  107OSM   H15C10899   1.075   0.329  11.115 -0.3496 -1.9995  0.5002
  107OSM    C1410900   0.852   0.464  10.902  0.1689 -0.2123  0.2032
  107OSM   H14A10901   0.846   0.555  10.843 -0.6319 -1.0085 -0.9841
  107OSM   H14B10902   0.773   0.463  10.976  0.4641 -0.1885  0.5239
  107OSM   H14C10903   0.848   0.387  10.828 -3.7305  0.9877 -1.0906
  107OSM    C1310904   0.972   0.582  11.065 -0.1659  0.1453 -1.2009
  107OSM   H13A10905   1.063   0.584  11.125 -2.1595 -0.6556  2.1256
  107OSM   H13B10906   0.889   0.561  11.131 -0.6433 -3.4346 -2.7244
  107OSM   H13C10907   0.957   0.677  11.015  2.3667  1.7049  0.6994
  107OSM    C1210908   1.100   0.491  10.879 -0.5978 -0.1143  0.2330
  107OSM   H12A10909   1.197   0.494  10.928 -0.5867 -1.1554  0.2917
  107OSM   H12B10910   1.087   0.590  10.839  0.0088  1.1447  2.8736
  107OSM    C1110911   1.124   0.390  10.768 -0.6374 -0.3726  0.4571
  107OSM   H11A10912   1.212   0.416  10.706  0.5783  2.9278  3.2437
  107OSM   H11B10913   1.042   0.381  10.694  2.4414  0.0575 -3.2720
  107OSM      P10914   1.265   0.190  10.852  0.1473  0.2021 -0.4997
  107OSM    O1310915   1.368   0.292  10.885  0.1363  0.0784  0.4921
  107OSM    O1410916   1.236   0.086  10.958  0.6500  0.0818  0.7319
  107OSM    O1110917   1.298   0.119  10.710 -0.0893 -0.5866  0.1082
  107OSM    O1210918   1.130   0.259  10.816  0.2667 -0.5371 -0.3855
  107OSM    C1S10919   1.203   0.070  10.611  0.5744 -0.1806 -0.2167
  107OSM    H1S10920   1.134   0.153  10.585 -1.0137 -0.8784  1.5021
  107OSM    H1T10921   1.144  -0.015  10.651  0.3352  1.6091  3.7450
  107OSM     NF10922   1.158   0.017  10.376  0.0701  0.1773  0.1492
  107OSM    HNF10923   1.122  -0.071  10.346  1.1215 -0.3846  0.4948
  107OSM    C2S10924   1.262   0.017  10.482  0.2140 -0.0815 -0.1273
  107OSM    H2S10925   1.343   0.086  10.451 -2.2556  2.3540 -1.6340
  107OSM    C3S10926   1.331  -0.118  10.509  0.0228  0.2039 -0.7263
  107OSM    H3S10927   1.254  -0.196  10.525 -0.2171  0.6296  0.2313
  107OSM     O310928   1.386  -0.129  10.641  0.3845  0.3205  0.4250
  107OSM    HO310929   1.336  -0.067  10.693  1.6145 -0.4404  2.6435
  107OSM    C4S10930   1.428  -0.150  10.401  0.7998  0.3087  0.2557
  107OSM    H4S10931   1.380  -0.190  10.311  1.0663  2.4973 -0.9452
  107OSM    C5S10932   1.564  -0.130  10.404  0.0171  0.0897  0.3754
  107OSM    H5S10933   1.612  -0.098  10.498 -0.4418  0.1785  0.5817
  107OSM    C6S10934   1.650  -0.153  10.283  0.0382  0.5309  0.3320
  107OSM    H6S10935   1.663  -0.257  10.246 -2.5774  0.8375 -1.7322
  107OSM    H6T10936   1.747  -0.100  10.295  0.6157 -0.4740  0.1901
  107OSM    C7S10937   1.583  -0.104  10.152  0.1009 -0.1467 -0.1628
  107OSM    H7S10938   1.578   0.006  10.170  1.8817 -0.2558  1.4556
  107OSM    H7T10939   1.482  -0.146  10.137  0.1298 -0.2659 -0.0306
  107OSM    C8S10940   1.665  -0.122  10.024  0.5847  0.6514 -0.1344
  107OSM    H8S10941   1.751  -0.189  10.048 -0.3907 -1.3172 -1.7721
  107OSM    H8T10942   1.703  -0.022   9.993 -0.4395  2.0234  2.7277
  107OSM    C9S10943   1.589  -0.180   9.904 -0.0492  0.1632  0.0546
  107OSM    H9S10944   1.486  -0.140   9.906 -1.8721 -4.0147  1.2776
  107OSM    H9T10945   1.575  -0.284   9.940 -0.7806  0.0157 -0.6436
  107OSM   C10S10946   1.662  -0.191   9.775  0.1960  0.2751  0.9044
  107OSM   H10S10947   1.755  -0.251   9.779 -1.0277 -1.8884 -0.6515
  107OSM   H10T10948   1.687  -0.088   9.744 -1.9101  0.1517 -1.6583
  107OSM   C11S10949   1.565  -0.243   9.661 -0.1170 -0.3749 -0.0457
  107OSM   H11S10950   1.478  -0.176   9.646 -0.3960 -0.5150  0.8827
  107OSM   H11T10951   1.518  -0.339   9.692  1.0037 -0.6881  0.7596
  107OSM   C12S10952   1.641  -0.241   9.533  0.0149 -0.3162 -0.1096
  107OSM   H12S10953   1.721  -0.317   9.547 -0.2491 -0.6571 -0.4306
  107OSM   H12T10954   1.688  -0.143   9.510  2.4854 -1.1524  1.0088
  107OSM   C13S10955   1.540  -0.301   9.432 -1.0793 -0.4238  0.5377
  107OSM   H13S10956   1.443  -0.249   9.441 -0.8555  0.8517 -3.0541
  107OSM   H13T10957   1.521  -0.406   9.465  0.3089 -0.8759 -0.0090
  107OSM   C14S10958   1.593  -0.280   9.286 -0.0761 -0.2131 -0.6778
  107OSM   H14S10959   1.698  -0.315   9.288 -0.2633 -0.7788  1.4440
  107OSM   H14T10960   1.590  -0.171   9.262 -0.3330 -0.2033 -0.6105
  107OSM   C15S10961   1.520  -0.366   9.188  0.5624 -0.4544  0.6267
  107OSM   H15S10962   1.412  -0.341   9.179  0.5822 -1.0090 -1.7141
  107OSM   H15T10963   1.519  -0.467   9.234 -2.7853 -1.5731 -1.6006
  107OSM   C16S10964   1.593  -0.358   9.057  0.3207  0.1783  0.6638
  107OSM   H16S10965   1.696  -0.398   9.057  0.2946  0.1003  1.5969
  107OSM   H16T10966   1.598  -0.254   9.018 -0.0729 -0.9013 -2.5291
  107OSM   C17S10967   1.523  -0.439   8.943 -0.0889  0.1092 -0.2100
  107OSM   H17S10968   1.442  -0.378   8.897 -0.3084  1.1751  1.4883
  107OSM   H17T10969   1.484  -0.540   8.968  0.0386  0.7153  2.7787
  107OSM   C18S10970   1.619  -0.469   8.828 -0.2982  0.0419  0.6872
  107OSM   H18S10971   1.713  -0.522   8.855 -1.9259 -4.4425 -1.3776
  107OSM   H18T10972   1.652  -0.370   8.790  0.1633 -0.4599 -0.2652
  107OSM   H18U10973   1.573  -0.529   8.746  0.1167  1.0296 -0.2930
  107OSM    C1F10974   1.119   0.126  10.311 -0.1243  0.5593 -0.6781
  107OSM     OF10975   1.178   0.226  10.336  0.2986  0.1421  0.4291
  107OSM    C2F10976   1.018   0.120  10.197  0.6246 -0.0979 -0.4042
  107OSM    H2F10977   0.923   0.170  10.223  1.5091  1.6608 -0.4416
  107OSM    H2G10978   0.996   0.012  10.179  2.0184 -0.6186  0.7765
  107OSM    C3F10979   1.073   0.187  10.071  0.4476  0.1215 -0.5666
  107OSM    H3F10980   1.175   0.155  10.040  0.1437 -0.2376 -1.2158
  107OSM    H3G10981   1.086   0.296  10.086 -0.3763  0.1964 -0.3297
  107OSM    C4F10982   0.978   0.190   9.944 -0.0311 -0.1228  1.0245
  107OSM    H4F10983   0.891   0.254   9.969  0.2706  1.2383 -1.1558
  107OSM    H4G10984   0.945   0.087   9.918  1.1336 -0.4959  0.9899
  107OSM    C5F10985   1.037   0.248   9.815  0.5412  0.0078  0.4337
  107OSM    H5F10986   1.140   0.210   9.804  0.4106 -0.2297 -0.0003
  107OSM    H5G10987   1.053   0.357   9.824 -2.2311  1.2053 -4.9409
  107OSM    C6F10988   0.957   0.222   9.684 -0.3454  0.5610 -0.6506
  107OSM    H6F10989   0.858   0.271   9.686 -0.0373  1.1797 -0.4011
  107OSM    H6G10990   0.919   0.118   9.684 -2.4296  1.2872 -1.1115
  107OSM    C7F10991   1.043   0.249   9.557 -0.0976 -0.7824 -0.3594
  107OSM    H7F10992   1.133   0.184   9.563  2.2876  1.9439 -3.0544
  107OSM    H7G10993   1.082   0.352   9.571 -2.8025  0.1247  1.1321
  107OSM    C8F10994   0.978   0.238   9.424 -0.1006  0.0771  0.2087
  107OSM    H8F10995   1.029   0.292   9.342  1.1062  1.0698  1.5573
  107OSM    H8G10996   0.881   0.291   9.432 -0.1320 -0.2196  2.5907
  107OSM    C9F10997   0.953   0.093   9.395 -0.1177 -0.0903  0.4066
  107OSM    H9F10998   1.029   0.021   9.431  1.4976  0.6886 -1.2498
  107OSM   C10F10999   0.862   0.043   9.316  0.1683  0.5099 -0.1282
  107OSM   H10F11000   0.863  -0.063   9.287  1.5901  0.9462 -1.8935
  107OSM   C11F11001   0.752   0.117   9.240  0.9567 -0.6784 -1.2770
  107OSM   H11F11002   0.726   0.223   9.261 -4.0437 -1.8602 -0.2822
  107OSM   H11G11003   0.648   0.090   9.267  0.4318  1.7666 -0.6563
  107OSM   C12F11004   0.758   0.099   9.088 -0.0871 -0.1763  0.6852
  107OSM   H12F11005   0.861   0.125   9.055 -0.2600  0.1847  0.4246
  107OSM   H12G11006   0.686   0.166   9.037 -2.0116 -2.6046 -0.0244
  107OSM   C13F11007   0.736  -0.039   9.027 -0.4975 -0.2835  0.1541
  107OSM   H13F11008   0.653  -0.088   9.083  0.0750  0.0945  1.3807
  107OSM   H13G11009   0.825  -0.100   9.054  0.1051 -0.9114 -2.9110
  107OSM   C14F11010   0.704  -0.042   8.880  0.5797  1.0361  0.2151
  107OSM   H14F11011   0.802  -0.029   8.830  0.8586  0.4995  0.6193
  107OSM   H14G11012   0.626   0.036   8.862 -2.2604 -1.0452  2.5404
  107OSM   C15F11013   0.643  -0.179   8.837 -0.7555  0.9403  0.3883
  107OSM   H15F11014   0.582  -0.209   8.925  0.1499  2.1878  1.4822
  107OSM   H15G11015   0.726  -0.249   8.814 -2.5040 -0.8245 -0.8996
  107OSM   C16F11016   0.536  -0.191   8.726 -0.1697  0.0129 -0.4990
  107OSM   H16F11017   0.460  -0.115   8.752  0.8557  0.7531  0.4555
  107OSM   H16G11018   0.498  -0.295   8.727  3.1404 -1.4561 -4.3044
  107OSM   C17F11019   0.589  -0.170   8.586 -0.1664 -0.7002 -0.1413
  107OSM   H17F11020   0.689  -0.219   8.581 -0.2269 -0.9359  0.7609
  107OSM   H17G11021   0.598  -0.060   8.575 -2.3556 -0.5342 -0.7556
  107OSM   C18F11022   0.501  -0.223   8.467 -0.2823 -0.1506 -0.6997
  107OSM   H18F11023   0.417  -0.152   8.454  0.9659  1.8474  1.3053
  107OSM   H18G11024   0.470  -0.325   8.497 -1.8196  0.3030 -0.6817
  107OSM   H18H11025   0.557  -0.225   8.371 -0.6225 -0.9691 -0.8872
  108OSM      N11026   2.817   2.522  10.867  0.2974 -0.7436  0.2897
  108OSM    C1511027   2.724   2.622  10.928  0.7050  0.0820  0.9011
  108OSM   H15A11028   2.763   2.669  11.017 -1.1625  1.2106  1.1757
  108OSM   H15B11029   2.640   2.573  10.974 -0.7508 -0.1018 -1.7987
  108OSM   H15C11030   2.681   2.695  10.861 -0.4874 -1.2411  0.1899
  108OSM    C1411031   2.903   2.610  10.782  0.5578  0.1752  0.0409
  108OSM   H14A11032   2.848   2.667  10.709  0.9766 -2.1161 -2.2120
  108OSM   H14B11033   2.992   2.563  10.743  0.0673 -0.0161 -0.8738
  108OSM   H14C11034   2.938   2.684  10.852 -1.8696  0.8567  0.6051
  108OSM    C1311035   2.909   2.458  10.961 -0.5324  0.3062 -0.6007
  108OSM   H13A11036   2.864   2.378  11.017 -1.1241  0.9761 -0.0954
  108OSM   H13B11037   2.956   2.532  11.024  0.2263 -1.0474  0.4738
  108OSM   H13C11038   2.995   2.415  10.911 -0.0656 -0.5164  0.8490
  108OSM    C1211039   2.738   2.431  10.777  0.2626  0.2567  0.2342
  108OSM   H12A11040   2.800   2.359  10.726 -0.4359 -0.9176  0.9771
  108OSM   H12B11041   2.691   2.482  10.694  0.0490 -1.2180 -0.5941
  108OSM    C1111042   2.621   2.354  10.849  0.2967 -0.4165  0.2794
  108OSM   H11A11043   2.646   2.318  10.951 -0.9324  0.1920  0.8286
  108OSM   H11B11044   2.613   2.263  10.787 -0.6791 -0.2987  0.2145
  108OSM      P11045   2.392   2.424  10.748 -0.3433  0.3471 -0.2052
  108OSM    O1311046   2.361   2.283  10.706  0.1263 -0.1961  0.3466
  108OSM    O1411047   2.277   2.504  10.799 -0.4078  0.0394  0.1444
  108OSM    O1111048   2.463   2.503  10.633  0.0098 -0.0301  0.6193
  108OSM    O1211049   2.498   2.427  10.868  0.2535  0.0044  0.0945
  108OSM    C1S11050   2.487   2.641  10.637  0.0561  0.1090  0.5548
  108OSM    H1S11051   2.582   2.674  10.685  1.1180  2.3178 -2.7075
  108OSM    H1T11052   2.399   2.700  10.670 -1.5100 -2.1363  0.6154
  108OSM     NF11053   2.548   2.833  10.497 -0.1710 -0.3292  0.6035
  108OSM    HNF11054   2.474   2.893  10.467 -0.4429 -0.8266  0.2749
  108OSM    C2S11055   2.514   2.694  10.488  0.4565 -0.9515 -0.3563
  108OSM    H2S11056   2.600   2.631  10.456  0.5605 -1.1457  0.2953
  108OSM    C3S11057   2.390   2.673  10.389  0.1452  0.2273 -0.5789
  108OSM    H3S11058   2.304   2.737  10.419  1.3809  0.2769  3.3437
  108OSM     O311059   2.336   2.546  10.371  0.5143  0.8652 -0.2925
  108OSM    HO311060   2.388   2.490  10.429 -0.2368 -0.3587 -0.7451
  108OSM    C4S11061   2.425   2.709  10.249  0.0748 -0.2277  0.3991
  108OSM    H4S11062   2.495   2.633  10.213 -0.2722  0.4432 -1.8379
  108OSM    C5S11063   2.376   2.803  10.162  0.5179 -0.0854 -0.1041
  108OSM    H5S11064   2.291   2.861  10.200 -0.3780 -0.2923 -1.6930
  108OSM    C6S11065   2.438   2.829  10.027  0.3856 -0.0389 -0.6979
  108OSM    H6S11066   2.516   2.902  10.058 -0.5320  0.3711  0.7326
  108OSM    H6T11067   2.372   2.881   9.955  1.6803 -0.1718 -2.0550
  108OSM    C7S11068   2.518   2.719   9.966 -0.1239 -0.7012 -1.1007
  108OSM    H7S11069   2.462   2.623   9.958  1.5497 -2.2890  3.1828
  108OSM    H7T11070   2.603   2.704  10.036 -0.6351 -1.4936 -0.6402
  108OSM    C8S11071   2.596   2.757   9.840 -0.6123  0.5602 -0.2343
  108OSM    H8S11072   2.690   2.700   9.829  0.2266  1.1988  2.6775
  108OSM    H8T11073   2.629   2.863   9.851 -0.7512  0.8138 -2.0668
  108OSM    C9S11074   2.507   2.748   9.722 -0.4944  0.2762 -0.1213
  108OSM    H9S11075   2.411   2.801   9.739  0.1930  1.4024  0.3468
  108OSM    H9T11076   2.477   2.643   9.706  0.7352  0.0541 -1.2239
  108OSM   C10S11077   2.593   2.791   9.596 -0.5018  0.0405  0.1333
  108OSM   H10S11078   2.662   2.708   9.570  0.4696  0.1954  2.0755
  108OSM   H10T11079   2.666   2.869   9.625 -0.2607 -0.3146  0.4957
  108OSM   C11S11080   2.504   2.841   9.481  0.6594  0.2612 -0.0828
  108OSM   H11S11081   2.452   2.930   9.524 -0.0311  0.2942 -0.9698
  108OSM   H11T11082   2.427   2.766   9.453  0.3620 -0.2945  2.0498
  108OSM   C12S11083   2.585   2.876   9.361 -0.4494 -0.1975  0.1806
  108OSM   H12S11084   2.663   2.946   9.397 -1.5282  0.4298  1.3563
  108OSM   H12T11085   2.517   2.937   9.298  0.1234  0.5526  0.2661
  108OSM   C13S11086   2.654   2.769   9.285 -0.1845  0.3810 -0.3978
  108OSM   H13S11087   2.572   2.702   9.252 -1.4614  0.7563  1.8300
  108OSM   H13T11088   2.713   2.713   9.360 -1.3782 -2.0213 -1.1671
  108OSM   C14S11089   2.750   2.826   9.175 -0.1869 -0.2286  0.6227
  108OSM   H14S11090   2.694   2.904   9.118  1.3950  0.7418  0.3428
  108OSM   H14T11091   2.773   2.742   9.106  0.5727  0.3831  0.1164
  108OSM   C15S11092   2.885   2.883   9.225 -0.2949 -0.9268  0.1875
  108OSM   H15S11093   2.927   2.808   9.295  2.0172 -0.1309 -0.2895
  108OSM   H15T11094   2.859   2.963   9.299 -1.5258 -0.7945 -0.3546
  108OSM   C16S11095   2.986   2.933   9.120 -0.3230  0.2009  0.0747
  108OSM   H16S11096   3.018   2.854   9.048  0.2533  0.5890 -0.1034
  108OSM   H16T11097   3.086   2.960   9.159  0.8414  0.6646 -2.9470
  108OSM   C17S11098   2.932   3.051   9.040 -0.2325  0.1590 -1.4556
  108OSM   H17S11099   2.915   3.126   9.120  2.7654 -0.2536 -0.3102
  108OSM   H17T11100   2.835   3.024   8.993 -1.9919  0.5914  1.6439
  108OSM   C18S11101   3.042   3.107   8.945  0.0082  0.1282 -0.3367
  108OSM   H18S11102   2.990   3.188   8.889 -0.4668  1.4268  1.8848
  108OSM   H18T11103   3.083   3.032   8.874  1.0208 -1.9340  2.2627
  108OSM   H18U11104   3.125   3.151   9.004 -0.3393  0.1328  0.1483
  108OSM    C1F11105   2.661   2.876  10.550 -0.0973  0.1272  0.5565
  108OSM     OF11106   2.749   2.789  10.564 -0.0612  0.3818  0.0004
  108OSM    C2F11107   2.675   3.019  10.582 -0.4959  0.0885 -0.3778
  108OSM    H2F11108   2.692   3.031  10.691 -0.2903 -0.7655 -0.3125
  108OSM    H2G11109   2.586   3.082  10.561  1.8368  4.0234  0.5937
  108OSM    C3F11110   2.798   3.085  10.506  0.3687  0.0274  0.3049
  108OSM    H3F11111   2.895   3.048  10.543  1.3969 -0.5749 -2.6601
  108OSM    H3G11112   2.799   3.194  10.531 -1.5891  0.1681 -0.0691
  108OSM    C4F11113   2.798   3.069  10.345  0.2714  0.0720 -0.7119
  108OSM    H4F11114   2.858   3.150  10.298  0.1309  0.0714 -0.8944
  108OSM    H4G11115   2.698   3.100  10.306  0.2366 -0.4722 -1.0624
  108OSM    C5F11116   2.845   2.929  10.293  0.1753  0.4568 -0.1619
  108OSM    H5F11117   2.783   2.839  10.312  1.6552 -0.6201 -0.1999
  108OSM    H5G11118   2.937   2.921  10.355  2.2625 -0.3195 -3.1302
  108OSM    C6F11119   2.899   2.933  10.149  0.9532  0.0056  0.3647
  108OSM    H6F11120   2.939   3.033  10.122 -0.9153  0.7963  0.3465
  108OSM    H6G11121   2.814   2.917  10.079 -0.6139  0.7949  1.9743
  108OSM    C7F11122   3.016   2.840  10.117  0.0358  0.1934 -0.3424
  108OSM    H7F11123   2.969   2.740  10.126  0.1148  0.0985 -0.9871
  108OSM    H7G11124   3.094   2.847  10.196  0.8931 -0.7365 -1.0774
  108OSM    C8F11125   3.078   2.850   9.975  0.3137 -0.1557  0.0089
  108OSM    H8F11126   3.145   2.762   9.969 -0.1703 -0.4088 -3.0635
  108OSM    H8G11127   3.131   2.947   9.964  0.9820 -0.5191 -0.0241
  108OSM    C9F11128   2.986   2.833   9.855 -0.3367 -0.3133  0.3315
  108OSM    H9F11129   2.878   2.855   9.857 -0.5919 -1.4780  0.1397
  108OSM   C10F11130   3.023   2.773   9.736 -0.5852 -0.2005 -0.1002
  108OSM   H10F11131   2.946   2.765   9.657 -0.2054  1.2580 -0.6612
  108OSM   C11F11132   3.161   2.705   9.713 -0.3264  0.3690  0.4931
  108OSM   H11F11133   3.156   2.599   9.679 -1.5179  0.0736  1.5341
  108OSM   H11G11134   3.204   2.693   9.814 -1.7543  0.4995  1.1363
  108OSM   C12F11135   3.250   2.795   9.621  0.0585  0.9267 -0.2275
  108OSM   H12F11136   3.353   2.752   9.623 -0.5108 -0.4935  0.1547
  108OSM   H12G11137   3.246   2.898   9.662 -1.2037 -0.1384  2.5808
  108OSM   C13F11138   3.200   2.793   9.472 -0.0908 -0.3452 -0.8795
  108OSM   H13F11139   3.108   2.855   9.470  0.5729  0.6888 -0.1261
  108OSM   H13G11140   3.171   2.688   9.450 -2.4246 -0.2369  1.2681
  108OSM   C14F11141   3.308   2.845   9.371  0.8479  0.8045 -0.5215
  108OSM   H14F11142   3.399   2.827   9.433 -0.1424  0.0084  0.7438
  108OSM   H14G11143   3.292   2.952   9.346 -0.4220  0.9498  0.7828
  108OSM   C15F11144   3.321   2.763   9.240  0.1172  0.1149  0.8194
  108OSM   H15F11145   3.219   2.763   9.195  0.8107  0.4565 -0.8321
  108OSM   H15G11146   3.350   2.656   9.251 -1.6111 -0.7251 -1.7638
  108OSM   C16F11147   3.414   2.840   9.145  0.0841  0.3312  1.5263
  108OSM   H16F11148   3.521   2.815   9.162 -0.2718 -1.1275  1.8156
  108OSM   H16G11149   3.406   2.945   9.178  3.3908  0.3694  2.6013
  108OSM   C17F11150   3.382   2.820   8.989 -0.8914  0.7139  0.6533
  108OSM   H17F11151   3.277   2.789   8.971 -0.9158  1.5766 -0.8660
  108OSM   H17G11152   3.451   2.738   8.958 -0.3610  0.7520  1.6685
  108OSM   C18F11153   3.424   2.937   8.904  0.2853 -0.2270 -1.2593
  108OSM   H18F11154   3.367   3.023   8.945  0.1451 -1.8551  2.2985
  108OSM   H18G11155   3.386   2.924   8.801  1.5048 -0.0174 -1.7544
  108OSM   H18H11156   3.534   2.952   8.914  0.0822  0.1801  0.8331
  109OSM      N11157   4.522   0.814  10.943  0.2522  0.0036 -0.1797
  109OSM    C1511158   4.662   0.834  10.883 -0.0333  0.1458 -0.3962
  109OSM   H15A11159   4.751   0.825  10.944 -0.6635  1.4599  0.7555
  109OSM   H15B11160   4.659   0.933  10.841 -1.8717  0.6237  0.7756
  109OSM   H15C11161   4.677   0.762  10.803 -1.2027 -0.0783 -0.4276
  109OSM    C1411162   4.525   0.694  11.037 -0.5215 -0.0167  0.2338
  109OSM   H14A11163   4.549   0.603  10.984 -0.9942  0.4984 -0.8877
  109OSM   H14B11164   4.426   0.682  11.078 -0.0170 -0.4643  1.3654
  109OSM   H14C11165   4.599   0.720  11.111  0.0471  2.4146 -1.0690
  109OSM    C1311166   4.511   0.931  11.027  1.6710  0.2346 -0.2596
  109OSM   H13A11167   4.577   0.942  11.112  1.1698  0.3012  0.1259
  109OSM   H13B11168   4.410   0.932  11.064  0.8703  3.4025 -2.1348
  109OSM   H13C11169   4.504   1.020  10.966  0.6363  0.6124  0.3794
  109OSM    C1211170   4.411   0.808  10.835 -0.1195 -0.2863 -0.4471
  109OSM   H12A11171   4.436   0.726  10.770  1.2101 -0.9680  0.8664
  109OSM   H12B11172   4.412   0.902  10.781  0.9521  0.6632  1.1265
  109OSM    C1111173   4.272   0.785  10.902 -0.2928  0.1909 -0.6151
  109OSM   H11A11174   4.282   0.692  10.962 -1.0012  0.0372 -0.7180
  109OSM   H11B11175   4.204   0.764  10.816  0.2824 -0.3667 -0.9403
  109OSM      P11176   4.139   1.012  10.947  0.2890  0.0447 -0.1929
  109OSM    O1311177   3.997   0.975  10.955 -0.5013  0.0573  0.1667
  109OSM    O1411178   4.187   1.121  11.029 -0.4340  0.8476  0.1924
  109OSM    O1111179   4.178   1.044  10.805  0.5022 -0.3600 -0.7613
  109OSM    O1211180   4.232   0.895  10.992 -0.4458 -0.0425  0.0222
  109OSM    C1S11181   4.225   1.176  10.762 -0.7865 -0.4524 -0.1085
  109OSM    H1S11182   4.316   1.203  10.819 -0.8341 -2.6245  1.0851
  109OSM    H1T11183   4.151   1.256  10.783 -0.6974 -0.0217 -1.3461
  109OSM     NF11184   4.286   1.316  10.568  0.3367 -0.4843  0.2594
  109OSM    HNF11185   4.224   1.388  10.536  2.3054  0.5398 -1.4680
  109OSM    C2S11186   4.236   1.187  10.607 -0.3242  0.5831 -0.2760
  109OSM    H2S11187   4.299   1.103  10.571 -0.2485 -0.0291  1.1914
  109OSM    C3S11188   4.104   1.145  10.540  0.6968  0.1322 -0.4569
  109OSM    H3S11189   4.026   1.218  10.572  0.2296 -1.5297  2.5813
  109OSM     O311190   4.055   1.019  10.585 -0.9974  0.0359  0.0946
  109OSM    HO311191   4.102   1.003  10.668 -3.3106 -0.0484  1.4722
  109OSM    C4S11192   4.112   1.171  10.395  0.3135 -0.1123 -0.3223
  109OSM    H4S11193   4.111   1.278  10.370  0.7752  0.2540  1.1339
  109OSM    C5S11194   4.133   1.078  10.295 -0.8260  0.1402  0.2301
  109OSM    H5S11195   4.147   0.972  10.320  2.4880  0.4209 -0.0140
  109OSM    C6S11196   4.146   1.112  10.148  0.4335 -0.7643 -0.8772
  109OSM    H6S11197   4.084   1.045  10.085 -2.8189  1.1316  0.0957
  109OSM    H6T11198   4.253   1.088  10.127  0.9514 -0.5093  1.2317
  109OSM    C7S11199   4.130   1.257  10.101 -0.6136 -0.6372  0.2887
  109OSM    H7S11200   4.214   1.313  10.148 -1.1890  0.8050 -0.3457
  109OSM    H7T11201   4.032   1.296  10.135 -0.4870 -2.6590  3.3238
  109OSM    C8S11202   4.136   1.272   9.946 -0.0642  0.0635  0.2884
  109OSM    H8S11203   4.235   1.247   9.902 -1.2878 -0.7389 -2.1598
  109OSM    H8T11204   4.140   1.383   9.935  0.3352  0.2028  1.6791
  109OSM    C9S11205   4.023   1.208   9.856 -0.2745 -0.6670 -0.3080
  109OSM    H9S11206   3.925   1.253   9.882  1.0246  1.9086  0.5165
  109OSM    H9T11207   4.031   1.102   9.887  1.4335 -0.9747 -1.6262
  109OSM   C10S11208   4.041   1.231   9.706 -0.0455  0.1922  0.3215
  109OSM   H10S11209   3.953   1.177   9.664 -0.6615 -0.2478  2.1017
  109OSM   H10T11210   4.117   1.157   9.671 -0.2804 -0.8102  1.8108
  109OSM   C11S11211   4.046   1.372   9.648  0.3533 -0.4508  0.0437
  109OSM   H11S11212   4.098   1.445   9.714 -2.2016 -0.8055  2.6884
  109OSM   H11T11213   3.943   1.416   9.647  0.7679  0.5420 -0.4779
  109OSM   C12S11214   4.083   1.380   9.499  0.3647  0.2414  0.4166
  109OSM   H12S11215   4.192   1.362   9.487  0.6812  0.7012  2.3315
  109OSM   H12T11216   4.048   1.477   9.456 -1.5517 -0.8718 -0.6646
  109OSM   C13S11217   4.010   1.279   9.407  0.0145 -0.1591 -0.4375
  109OSM   H13S11218   3.901   1.293   9.419  0.4450  2.0602  1.7584
  109OSM   H13T11219   4.042   1.177   9.439  2.4772  1.0335  1.3162
  109OSM   C14S11220   4.043   1.310   9.262 -0.7680  0.6592  0.5261
  109OSM   H14S11221   4.147   1.273   9.244 -0.7545  0.6334  0.6584
  109OSM   H14T11222   4.024   1.416   9.236  0.4546  0.6257 -0.6377
  109OSM   C15S11223   3.967   1.224   9.160  0.1032  0.6322  0.9514
  109OSM   H15S11224   3.857   1.218   9.171  0.1261 -0.8345  0.6999
  109OSM   H15T11225   4.010   1.121   9.166 -0.3371  0.5092  2.4462
  109OSM   C16S11226   3.985   1.277   9.013  0.7129 -0.2050  0.2668
  109OSM   H16S11227   4.078   1.339   9.006 -1.0486  2.5952  0.2177
  109OSM   H16T11228   3.908   1.356   8.997  0.3978 -0.3418  1.0816
  109OSM   C17S11229   3.977   1.178   8.897  0.8711 -0.2318 -0.9222
  109OSM   H17S11230   3.875   1.134   8.896  1.3674 -1.5315  0.9052
  109OSM   H17T11231   4.053   1.100   8.919  2.3235  1.6333  1.1103
  109OSM   C18S11232   4.010   1.245   8.758  0.1155  0.3590  0.2149
  109OSM   H18S11233   3.933   1.323   8.740  0.3890  0.5628 -0.0728
  109OSM   H18T11234   4.008   1.192   8.660  2.9906  0.8252 -0.1892
  109OSM   H18U11235   4.109   1.293   8.765  0.6982 -0.9787  1.8739
  109OSM    C1F11236   4.408   1.358  10.603 -0.1498 -0.6172  0.1745
  109OSM     OF11237   4.491   1.278  10.644 -0.0324 -0.5201 -0.3742
  109OSM    C2F11238   4.453   1.497  10.573 -0.7817 -0.4480 -0.4977
  109OSM    H2F11239   4.506   1.530  10.665 -0.8923 -1.0096 -0.2288
  109OSM    H2G11240   4.371   1.570  10.554  1.3134  1.5508 -2.4613
  109OSM    C3F11241   4.555   1.482  10.450 -0.0689 -0.3331  0.3466
  109OSM    H3F11242   4.630   1.403  10.473  0.0757 -1.0761 -2.3267
  109OSM    H3G11243   4.606   1.580  10.445 -1.6894  0.6000  1.5017
  109OSM    C4F11244   4.477   1.446  10.328 -0.7563 -0.4124  0.5079
  109OSM    H4F11245   4.393   1.516  10.312  2.7637  4.1950  0.0156
  109OSM    H4G11246   4.457   1.336  10.332  1.0721 -0.8217 -0.2571
  109OSM    C5F11247   4.563   1.459  10.199 -0.3030  0.3929  0.7108
  109OSM    H5F11248   4.645   1.384  10.202  0.0719  0.7782  0.2643
  109OSM    H5G11249   4.602   1.563  10.198  1.8905 -0.3315 -2.4068
  109OSM    C6F11250   4.486   1.425  10.071  0.1620  0.0093 -0.0261
  109OSM    H6F11251   4.406   1.501  10.060 -0.2343 -0.4312 -0.2214
  109OSM    H6G11252   4.449   1.321  10.081 -1.4894  0.4474 -1.2897
  109OSM    C7F11253   4.582   1.412   9.950  0.5407 -0.7086 -0.4194
  109OSM    H7F11254   4.650   1.330   9.982 -0.0926 -0.9299  0.4228
  109OSM    H7G11255   4.633   1.508   9.933  1.2398 -0.7869  1.0319
  109OSM    C8F11256   4.501   1.376   9.823  0.2507  0.5755  0.0205
  109OSM    H8F11257   4.393   1.384   9.845  0.7070  0.3405  2.6504
  109OSM    H8G11258   4.525   1.274   9.786 -1.0452 -0.0489  0.8600
  109OSM    C9F11259   4.525   1.479   9.715 -0.1841  0.3078 -0.4239
  109OSM    H9F11260   4.474   1.576   9.722  0.2014  0.8274 -3.3341
  109OSM   C10F11261   4.633   1.466   9.636 -0.0664 -0.6768  0.6331
  109OSM   H10F11262   4.654   1.553   9.571  0.9901 -0.9610  0.5639
  109OSM   C11F11263   4.721   1.346   9.636 -0.0367  0.5634  0.2889
  109OSM   H11F11264   4.696   1.266   9.564  0.1730  0.8868 -0.1438
  109OSM   H11G11265   4.727   1.310   9.741  0.7974  0.8616  0.3546
  109OSM   C12F11266   4.864   1.405   9.609 -0.1910 -0.0140 -0.2122
  109OSM   H12F11267   4.949   1.348   9.653  1.2324  2.6667  0.7718
  109OSM   H12G11268   4.882   1.503   9.659 -2.0193  0.0428  0.3789
  109OSM   C13F11269   4.887   1.421   9.457 -0.3449  0.2452 -0.1389
  109OSM   H13F11270   4.818   1.498   9.416 -2.1311  0.2094  2.5727
  109OSM   H13G11271   4.857   1.325   9.409 -0.2196  0.2723 -0.2760
  109OSM   C14F11272   5.034   1.461   9.434  0.3731  0.4683 -0.2390
  109OSM   H14F11273   5.092   1.379   9.483 -0.8156  0.1733  0.7241
  109OSM   H14G11274   5.064   1.555   9.484  0.4156 -0.6546  1.9930
  109OSM   C15F11275   5.070   1.447   9.286  0.5782 -0.5781  0.1324
  109OSM   H15F11276   5.047   1.343   9.255 -2.7143 -0.1538  0.8529
  109OSM   H15G11277   5.179   1.468   9.279  0.4650  0.8646  1.7758
  109OSM   C16F11278   5.001   1.552   9.204  0.0958 -0.0373  0.7175
  109OSM   H16F11279   5.039   1.654   9.226  3.2844 -1.0277  0.3471
  109OSM   H16G11280   4.892   1.549   9.225  0.1084  0.5806  0.8907
  109OSM   C17F11281   5.015   1.529   9.049 -0.0199  0.5996 -0.4383
  109OSM   H17F11282   4.931   1.565   8.986 -0.4299 -0.7072 -0.6603
  109OSM   H17G11283   5.015   1.419   9.039 -1.6195  0.5126  0.2072
  109OSM   C18F11284   5.146   1.588   8.987  0.3766 -1.4429  0.7369
  109OSM   H18F11285   5.231   1.550   9.046  2.6753  3.1802  0.8192
  109OSM   H18G11286   5.155   1.698   8.976  2.1627 -1.7977 -3.2630
  109OSM   H18H11287   5.160   1.554   8.882  1.0004 -0.4347  0.4776
  110OSM      N11288   4.044   5.510  10.761 -0.1377  0.6306  0.3220
  110OSM    C1511289   4.042   5.403  10.652 -0.4042 -0.3152 -0.7172
  110OSM   H15A11290   3.975   5.445  10.578 -2.3408  1.3181  1.7402
  110OSM   H15B11291   3.993   5.315  10.693 -0.8721  0.3095  0.1066
  110OSM   H15C11292   4.139   5.377  10.614 -1.2719 -1.6876 -2.1457
  110OSM    C1411293   3.897   5.542  10.793  0.2234 -0.1627 -0.2679
  110OSM   H14A11294   3.842   5.571  10.705 -1.4061 -1.0629  0.4045
  110OSM   H14B11295   3.893   5.633  10.851  2.3494 -2.0386  3.1343
  110OSM   H14C11296   3.852   5.464  10.853 -0.9694  0.6802 -0.0469
  110OSM    C1311297   4.109   5.458  10.879 -0.2512  0.2633 -0.1802
  110OSM   H13A11298   4.125   5.542  10.945  3.0028 -1.1236  1.0111
  110OSM   H13B11299   4.211   5.425  10.863 -1.1912 -3.1700  0.1516
  110OSM   H13C11300   4.061   5.378  10.935  1.2352  0.0485  0.8590
  110OSM    C1211301   4.110   5.634  10.699 -0.4109  1.0639  0.5359
  110OSM   H12A11302   4.027   5.679  10.646  1.1099  0.0026 -3.0503
  110OSM   H12B11303   4.186   5.595  10.632 -2.5409  0.9439 -1.9533
  110OSM    C1111304   4.168   5.751  10.779 -0.4357  0.2707 -0.2196
  110OSM   H11A11305   4.233   5.809  10.710  2.7144 -0.7066  1.7043
  110OSM   H11B11306   4.235   5.702  10.853 -4.3081 -2.5539  1.7888
  110OSM      P11307   4.004   5.951  10.750  0.0338 -0.2670 -0.4777
  110OSM    O1311308   3.876   5.987  10.816  0.2134  0.0144  0.0750
  110OSM    O1411309   4.108   6.054  10.726 -0.0185 -0.1832  0.3040
  110OSM    O1111310   3.968   5.875  10.617  0.5957 -0.4892 -0.4832
  110OSM    O1211311   4.062   5.828  10.833 -0.1563  0.3518 -0.0824
  110OSM    C1S11312   3.954   5.960  10.494  0.4236  0.1056 -0.5171
  110OSM    H1S11313   4.026   6.044  10.500  1.3619 -0.6592 -0.7736
  110OSM    H1T11314   3.852   6.001  10.484  0.7997  0.9739 -0.9728
  110OSM     NF11315   3.990   5.953  10.249  0.0120  0.1480 -0.3573
  110OSM    HNF11316   3.921   5.926  10.182  0.3517 -0.0803 -0.6224
  110OSM    C2S11317   3.995   5.873  10.371 -0.4132  0.0619 -0.2698
  110OSM    H2S11318   4.100   5.840  10.383  0.1045  1.7707  0.2279
  110OSM    C3S11319   3.910   5.743  10.360  0.3367  0.1900 -0.1299
  110OSM    H3S11320   3.808   5.774  10.329 -0.0786 -0.1342  0.8725
  110OSM     O311321   3.878   5.683  10.482 -0.1019 -1.4464  0.0038
  110OSM    HO311322   3.870   5.762  10.535 -2.4201 -0.4148 -1.7076
  110OSM    C4S11323   3.967   5.648  10.264 -0.0254  0.1148 -0.5422
  110OSM    H4S11324   3.928   5.665  10.162  1.4180  1.4567 -0.8999
  110OSM    C5S11325   4.054   5.553  10.290  0.2364 -0.1027 -0.3271
  110OSM    H5S11326   4.099   5.554  10.391 -0.5034 -0.1720  0.0140
  110OSM    C6S11327   4.111   5.464  10.190 -0.1841  0.0573 -0.5746
  110OSM    H6S11328   4.092   5.359  10.220  2.4866 -0.6901 -1.2439
  110OSM    H6T11329   4.220   5.486  10.186  0.5416 -2.2390  2.6737
  110OSM    C7S11330   4.046   5.476  10.051  0.1401  0.3307  0.4841
  110OSM    H7S11331   4.053   5.584  10.024 -0.1789  0.3622  0.5286
  110OSM    H7T11332   3.936   5.458  10.051 -0.4705  3.4393 -1.1252
  110OSM    C8S11333   4.113   5.403   9.924  0.1020  0.3146  0.3038
  110OSM    H8S11334   4.107   5.293   9.936 -1.9434  0.3837  0.3449
  110OSM    H8T11335   4.221   5.428   9.921  0.3602 -0.7575  0.0222
  110OSM    C9S11336   4.035   5.438   9.793 -0.2444 -0.3367  0.1941
  110OSM    H9S11337   4.045   5.547   9.777  0.3779 -0.4954 -0.5254
  110OSM    H9T11338   3.932   5.406   9.820 -0.3834  1.2306  1.7289
  110OSM   C10S11339   4.085   5.362   9.671 -0.2361 -0.4919 -0.0678
  110OSM   H10S11340   4.069   5.253   9.688 -0.3826 -0.4350  0.1578
  110OSM   H10T11341   4.194   5.373   9.653  0.0265  1.9449  2.3960
  110OSM   C11S11342   4.006   5.392   9.545  0.3099  0.7851 -0.7671
  110OSM   H11S11343   4.043   5.485   9.497 -0.2221  1.7054  0.5389
  110OSM   H11T11344   3.902   5.411   9.580  0.4553 -0.1603  0.2134
  110OSM   C12S11345   4.013   5.276   9.443  0.3396  0.7308 -0.3218
  110OSM   H12S11346   4.105   5.221   9.473 -1.5530 -1.3256  2.1949
  110OSM   H12T11347   4.011   5.313   9.338 -0.7025 -0.9032 -0.9124
  110OSM   C13S11348   3.899   5.180   9.468  0.7608  0.2412  0.3303
  110OSM   H13S11349   3.805   5.238   9.480  1.5014  1.0092  3.6872
  110OSM   H13T11350   3.901   5.141   9.573  0.6513 -1.5540 -0.2961
  110OSM   C14S11351   3.891   5.067   9.371 -0.1634 -0.5668  0.2621
  110OSM   H14S11352   3.988   5.014   9.373  0.7904  1.1312  1.7781
  110OSM   H14T11353   3.877   5.104   9.267 -1.3207 -2.9375 -0.4765
  110OSM   C15S11354   3.779   4.971   9.392 -0.0198 -0.3929  0.0635
  110OSM   H15S11355   3.678   5.015   9.408 -0.0973 -1.1242  1.9069
  110OSM   H15T11356   3.796   4.918   9.488  1.2477 -1.5789 -0.7726
  110OSM   C16S11357   3.761   4.858   9.289 -0.8556 -1.3139  0.3950
  110OSM   H16S11358   3.696   4.783   9.341  0.6135 -2.0089  1.2981
  110OSM   H16T11359   3.862   4.813   9.279 -0.7348 -0.8642 -0.4909
  110OSM   C17S11360   3.698   4.900   9.157 -0.2863  0.3434 -0.2493
  110OSM   H17S11361   3.778   4.934   9.088 -0.2570  1.8699  0.5009
  110OSM   H17T11362   3.624   4.983   9.166 -0.6975  0.4936 -3.5841
  110OSM   C18S11363   3.634   4.778   9.082  0.3013 -1.0113  0.4362
  110OSM   H18S11364   3.538   4.747   9.129  1.0848 -2.0884  1.3764
  110OSM   H18T11365   3.712   4.699   9.076  1.4986  0.1987 -0.5528
  110OSM   H18U11366   3.606   4.804   8.978  0.9164 -0.5201  0.3890
  110OSM    C1F11367   4.062   6.060  10.230  0.0078 -0.4016 -0.1297
  110OSM     OF11368   4.130   6.111  10.318 -0.0108 -0.4216  0.3828
  110OSM    C2F11369   4.062   6.106  10.086  0.4836  0.1849 -0.5978
  110OSM    H2F11370   3.973   6.071  10.030  1.6480  0.2373 -2.5849
  110OSM    H2G11371   4.149   6.063  10.032 -1.2351  0.1306 -3.5638
  110OSM    C3F11372   4.044   6.264  10.067 -0.5079 -0.1965 -0.3203
  110OSM    H3F11373   4.132   6.309  10.117 -0.1065 -0.0524 -1.1386
  110OSM    H3G11374   3.958   6.287  10.133  0.6459 -3.0567  2.4569
  110OSM    C4F11375   4.034   6.318   9.927  0.8599 -0.1330 -0.2115
  110OSM    H4F11376   3.998   6.422   9.940 -2.4274 -1.4069  2.1278
  110OSM    H4G11377   3.948   6.267   9.879  0.5340  0.6702 -0.4983
  110OSM    C5F11378   4.164   6.305   9.842 -0.6957 -0.0027 -0.1084
  110OSM    H5F11379   4.218   6.208   9.843  2.3517  1.5632  0.3387
  110OSM    H5G11380   4.235   6.371   9.897  0.8223 -1.5119 -0.1580
  110OSM    C6F11381   4.145   6.364   9.699  0.4897  0.3694 -0.4885
  110OSM    H6F11382   4.245   6.402   9.671  0.1925  2.2453  0.8307
  110OSM    H6G11383   4.076   6.451   9.710 -1.3881 -0.8795 -1.7504
  110OSM    C7F11384   4.097   6.255   9.604  0.3328  0.0720 -0.7496
  110OSM    H7F11385   4.009   6.197   9.639 -0.7387  0.3817 -2.8187
  110OSM    H7G11386   4.185   6.187   9.595  1.1998 -0.0929  4.8862
  110OSM    C8F11387   4.057   6.304   9.459 -0.2345 -0.7797 -0.6370
  110OSM    H8F11388   4.052   6.211   9.399  0.7467 -1.5071  0.3638
  110OSM    H8G11389   4.139   6.371   9.427 -0.7295  0.4166  0.4974
  110OSM    C9F11390   3.921   6.376   9.474 -0.3558  0.6011  0.0127
  110OSM    H9F11391   3.913   6.437   9.565 -3.0435 -0.7624  0.8066
  110OSM   C10F11392   3.823   6.369   9.389  0.1480  0.0362  1.1039
  110OSM   H10F11393   3.730   6.424   9.411 -0.8670 -0.1007 -2.2241
  110OSM   C11F11394   3.830   6.304   9.252  0.3911  1.3458 -0.3013
  110OSM   H11F11395   3.778   6.205   9.254  2.3462  0.2608 -0.8851
  110OSM   H11G11396   3.934   6.278   9.224  0.7026  0.1261  1.7706
  110OSM   C12F11397   3.770   6.392   9.140 -0.2476 -0.3396 -0.3573
  110OSM   H12F11398   3.787   6.500   9.158 -2.6098 -0.0290  0.4355
  110OSM   H12G11399   3.663   6.375   9.169  0.6172 -0.4580  3.3044
  110OSM   C13F11400   3.806   6.352   9.001 -0.1235 -0.1484 -0.0160
  110OSM   H13F11401   3.749   6.422   8.936  0.7598  0.2041 -0.4295
  110OSM   H13G11402   3.769   6.252   8.969  0.4817 -0.5124  0.3935
  110OSM   C14F11403   3.952   6.365   8.958 -0.4231  0.1856  0.3374
  110OSM   H14F11404   3.990   6.261   8.953  1.8002  0.9836 -0.9797
  110OSM   H14G11405   4.009   6.427   9.031  0.1782 -1.3722  1.2292
  110OSM   C15F11406   3.973   6.419   8.816 -0.3486  0.3040  0.3734
  110OSM   H15F11407   3.936   6.524   8.816  0.1475  0.4876 -0.4534
  110OSM   H15G11408   3.914   6.361   8.742 -1.0428  1.7681 -0.2575
  110OSM   C16F11409   4.117   6.427   8.759  0.1898  0.2693  0.9292
  110OSM   H16F11410   4.151   6.324   8.735  0.9603  0.5691  0.6994
  110OSM   H16G11411   4.180   6.464   8.843 -1.2838 -1.3261  2.8298
  110OSM   C17F11412   4.128   6.527   8.635  0.4474  0.5487 -0.7254
  110OSM   H17F11413   4.103   6.628   8.674 -0.3451  0.2888 -0.5422
  110OSM   H17G11414   4.047   6.501   8.565  0.5449 -0.6028 -0.4365
  110OSM   C18F11415   4.264   6.535   8.567  0.5505  0.0556 -0.0393
  110OSM   H18F11416   4.300   6.431   8.558  0.3943  0.0617 -0.8136
  110OSM   H18G11417   4.341   6.580   8.632  0.4649 -0.8721  0.7243
  110OSM   H18H11418   4.242   6.592   8.474 -0.3909  0.4799  0.4252
  111OSM      N11419   4.377   3.806  10.948 -0.4085  0.0426 -0.2146
  111OSM    C1511420   4.438   3.709  11.047  0.1469  0.1283 -0.5050
  111OSM   H15A11421   4.536   3.739  11.080  1.0859 -3.1518  0.0475
  111OSM   H15B11422   4.447   3.611  11.002 -1.5617  0.9278 -2.7744
  111OSM   H15C11423   4.376   3.689  11.133  0.1363 -0.0085 -0.5433
  111OSM    C1411424   4.245   3.768  10.904  0.3061 -0.0527  0.2352
  111OSM   H14A11425   4.245   3.664  10.876  1.4635 -0.1169  0.4300
  111OSM   H14B11426   4.212   3.822  10.817  1.5884 -1.0066 -0.8840
  111OSM   H14C11427   4.173   3.792  10.981 -1.8354  1.5512 -2.1193
  111OSM    C1311428   4.372   3.939  11.018  0.0905 -0.1717  0.2726
  111OSM   H13A11429   4.330   4.013  10.952  4.2151  1.8764 -0.3730
  111OSM   H13B11430   4.474   3.965  11.043  0.7157 -1.0692 -1.1944
  111OSM   H13C11431   4.319   3.935  11.112 -0.0144 -1.4021  0.1775
  111OSM    C1211432   4.470   3.816  10.824 -0.2375 -0.1243 -0.5803
  111OSM   H12A11433   4.485   3.719  10.780  0.7471 -0.5336  0.6159
  111OSM   H12B11434   4.567   3.851  10.855  0.6175 -3.4152  0.8747
  111OSM    C1111435   4.412   3.902  10.707 -0.2762  0.4856 -0.1441
  111OSM   H11A11436   4.328   3.846  10.662  0.2207 -1.6390  1.3770
  111OSM   H11B11437   4.495   3.926  10.637 -1.2077  1.3472 -0.9802
  111OSM      P11438   4.236   4.098  10.710  0.0173  0.1820 -0.3712
  111OSM    O1311439   4.129   4.003  10.736 -0.2798 -0.2775 -1.0719
  111OSM    O1411440   4.234   4.231  10.771 -0.2483  0.0262 -0.0869
  111OSM    O1111441   4.246   4.112  10.554 -0.3473  0.0986  0.5352
  111OSM    O1211442   4.375   4.035  10.753  0.0142 -0.2849 -0.2082
  111OSM    C1S11443   4.357   4.180  10.498  0.1562 -0.2481 -0.5020
  111OSM    H1S11444   4.440   4.194  10.571 -0.3043  1.7836 -0.3033
  111OSM    H1T11445   4.330   4.283  10.465  2.7543  0.2871 -1.2563
  111OSM     NF11446   4.525   4.217  10.341  0.3479 -0.3472  0.0603
  111OSM    HNF11447   4.497   4.299  10.291  0.5097  0.4518  1.2524
  111OSM    C2S11448   4.416   4.125  10.369  0.3598 -0.4704 -1.0980
  111OSM    H2S11449   4.449   4.024  10.401 -0.9998  0.0400  2.3961
  111OSM    C3S11450   4.312   4.117  10.258 -0.3622 -0.2837  0.2251
  111OSM    H3S11451   4.270   4.218  10.239 -2.2544 -1.5461 -3.1768
  111OSM     O311452   4.199   4.042  10.286 -0.7065  1.1251 -0.0557
  111OSM    HO311453   4.209   4.028  10.381  0.8548 -0.4682 -0.3909
  111OSM    C4S11454   4.363   4.077  10.127 -0.2868 -0.4551 -0.3531
  111OSM    H4S11455   4.417   4.158  10.076  0.4797 -2.4041 -2.8304
  111OSM    C5S11456   4.348   3.956  10.064  0.3422 -0.3154  0.3717
  111OSM    H5S11457   4.283   3.876  10.103 -0.1789 -0.5085 -0.8618
  111OSM    C6S11458   4.396   3.922   9.926  0.3019 -0.1025 -0.1472
  111OSM    H6S11459   4.302   3.889   9.876  0.0329  0.1404  0.1900
  111OSM    H6T11460   4.468   3.838   9.932 -0.7165 -1.0358 -0.5797
  111OSM    C7S11461   4.465   4.035   9.852  0.2628  0.6376  0.2513
  111OSM    H7S11462   4.550   4.065   9.917  1.2455 -1.8348  0.1925
  111OSM    H7T11463   4.400   4.125   9.853 -1.2423 -0.4125  1.9173
  111OSM    C8S11464   4.503   3.982   9.711  0.4623  0.5888 -0.0565
  111OSM    H8S11465   4.583   3.904   9.715  1.5008  1.6704  0.9125
  111OSM    H8T11466   4.552   4.066   9.658 -1.9162  0.7791 -2.1180
  111OSM    C9S11467   4.375   3.932   9.635  0.4639  0.3870  0.4221
  111OSM    H9S11468   4.298   4.013   9.633  1.0851  0.9696 -0.3055
  111OSM    H9T11469   4.348   3.834   9.681 -1.6930 -0.0414 -1.5479
  111OSM   C10S11470   4.418   3.909   9.494  0.4670 -0.1197  0.3234
  111OSM   H10S11471   4.464   3.811   9.466  0.2794  0.3122 -1.5877
  111OSM   H10T11472   4.506   3.975   9.479 -0.8815  1.3173 -1.6172
  111OSM   C11S11473   4.303   3.942   9.391  0.2043  0.0745 -1.2140
  111OSM   H11S11474   4.282   4.051   9.384 -0.0391  0.0118 -1.4988
  111OSM   H11T11475   4.216   3.886   9.433 -0.2689  0.3496 -1.7987
  111OSM   C12S11476   4.313   3.878   9.254  0.1327 -0.2834 -0.7535
  111OSM   H12S11477   4.332   3.769   9.258 -1.5087 -0.5964 -0.9426
  111OSM   H12T11478   4.402   3.922   9.203 -0.3649  1.6538 -0.0575
  111OSM   C13S11479   4.183   3.905   9.179  0.1908 -0.8302 -0.1021
  111OSM   H13S11480   4.176   4.013   9.156  2.4261 -0.8054 -0.8831
  111OSM   H13T11481   4.099   3.874   9.245 -1.9957 -1.2833 -2.8636
  111OSM   C14S11482   4.159   3.820   9.054  0.0075 -0.4723 -0.2066
  111OSM   H14S11483   4.157   3.715   9.090 -3.0509 -0.5702 -0.4324
  111OSM   H14T11484   4.244   3.831   8.983  0.6903 -2.4704  0.2420
  111OSM   C15S11485   4.040   3.865   8.977 -0.3354 -0.9165 -0.0902
  111OSM   H15S11486   4.042   3.974   8.956 -0.5917 -0.8767  0.0927
  111OSM   H15T11487   3.946   3.836   9.029 -1.7746  2.3472 -0.6275
  111OSM   C16S11488   4.027   3.795   8.837 -0.3379  0.1743  0.4053
  111OSM   H16S11489   4.124   3.805   8.784 -0.4271 -1.8073 -0.1966
  111OSM   H16T11490   3.955   3.842   8.768 -0.9112 -0.0376  0.8534
  111OSM   C17S11491   3.983   3.640   8.847 -0.6028  0.3794 -0.0046
  111OSM   H17S11492   4.037   3.587   8.930 -1.0159  1.7822  1.1947
  111OSM   H17T11493   4.016   3.589   8.754 -0.9384  0.2908 -0.0764
  111OSM   C18S11494   3.833   3.613   8.857 -0.2514 -0.5208  0.4639
  111OSM   H18S11495   3.806   3.643   8.960  1.4487  3.8556 -0.1417
  111OSM   H18T11496   3.817   3.505   8.836 -0.4404 -0.2602 -0.8180
  111OSM   H18U11497   3.781   3.684   8.788  2.0490  0.1122 -0.7347
  111OSM    C1F11498   4.642   4.217  10.404 -0.5266  0.0672 -0.3651
  111OSM     OF11499   4.672   4.136  10.492 -0.0507  0.7323  0.1642
  111OSM    C2F11500   4.722   4.335  10.375 -0.5568  0.0205  0.0712
  111OSM    H2F11501   4.765   4.365  10.473 -0.2668 -0.6046  0.1466
  111OSM    H2G11502   4.667   4.416  10.324  0.9371  0.7876 -0.3727
  111OSM    C3F11503   4.844   4.294  10.281  0.0402 -0.0141 -0.4123
  111OSM    H3F11504   4.907   4.207  10.308  0.0251 -0.0255 -0.4134
  111OSM    H3G11505   4.901   4.389  10.268 -0.1394  0.9237  4.1352
  111OSM    C4F11506   4.796   4.250  10.144 -0.2780 -0.2022  0.1384
  111OSM    H4F11507   4.712   4.178  10.137 -1.1591  0.9490 -1.5018
  111OSM    H4G11508   4.893   4.207  10.112 -0.0022 -0.0136  0.7023
  111OSM    C5F11509   4.762   4.374  10.049  0.5414  0.1861  0.3720
  111OSM    H5F11510   4.846   4.448  10.050  2.3196 -1.3132 -4.6506
  111OSM    H5G11511   4.668   4.417  10.089  0.4391 -0.8488  1.2967
  111OSM    C6F11512   4.725   4.346   9.895 -0.4799  0.1003  0.1543
  111OSM    H6F11513   4.673   4.433   9.848 -1.3742 -0.9099 -0.7981
  111OSM    H6G11514   4.664   4.253   9.894  0.7955 -0.8074 -2.2516
  111OSM    C7F11515   4.848   4.311   9.804 -0.5562 -0.6083  0.8309
  111OSM    H7F11516   4.912   4.227   9.840  1.5627  0.7715  0.4525
  111OSM    H7G11517   4.930   4.385   9.803  0.4511 -1.6841 -0.5371
  111OSM    C8F11518   4.808   4.275   9.654 -0.0095 -0.3155 -0.2428
  111OSM    H8F11519   4.766   4.360   9.595 -2.2400  0.6972  2.5253
  111OSM    H8G11520   4.730   4.196   9.659  1.5669 -1.8814  0.9670
  111OSM    C9F11521   4.918   4.215   9.576 -0.3065 -0.8905 -0.3763
  111OSM    H9F11522   4.996   4.168   9.637 -0.9621 -0.7443  0.5932
  111OSM   C10F11523   4.938   4.233   9.444  0.5371  0.3595  0.0947
  111OSM   H10F11524   5.028   4.196   9.392 -0.9333 -1.0943 -1.5456
  111OSM   C11F11525   4.844   4.304   9.344  0.9265  0.1015  0.3255
  111OSM   H11F11526   4.905   4.355   9.267 -3.4490  2.3538 -2.0098
  111OSM   H11G11527   4.794   4.389   9.396  2.4758  1.9634 -1.0598
  111OSM   C12F11528   4.747   4.218   9.268  0.2568 -0.1845 -0.3347
  111OSM   H12F11529   4.680   4.161   9.336 -0.8245 -2.1651 -2.8625
  111OSM   H12G11530   4.806   4.152   9.200 -0.7685 -0.2518 -1.1954
  111OSM   C13F11531   4.643   4.292   9.185 -0.0691  0.4072  0.0350
  111OSM   H13F11532   4.590   4.371   9.243 -1.8290 -1.9306  1.8046
  111OSM   H13G11533   4.558   4.224   9.162 -1.5953  1.2891  2.6138
  111OSM   C14F11534   4.710   4.349   9.066 -0.0550 -0.2764 -0.2614
  111OSM   H14F11535   4.739   4.275   8.988 -1.5726  2.0979 -3.3446
  111OSM   H14G11536   4.794   4.411   9.104 -2.3258  0.4355  4.1629
  111OSM   C15F11537   4.619   4.444   8.995  0.3158 -0.2422  0.2027
  111OSM   H15F11538   4.585   4.527   9.060  1.2892  1.0881 -0.9212
  111OSM   H15G11539   4.523   4.393   8.971  0.1608  0.3449 -0.4630
  111OSM   C16F11540   4.684   4.518   8.878 -0.1194  0.2518 -0.3958
  111OSM   H16F11541   4.722   4.440   8.808  0.6805 -0.0201  0.3222
  111OSM   H16G11542   4.780   4.563   8.910 -0.1690 -0.5353  0.9601
  111OSM   C17F11543   4.594   4.625   8.804  0.5919  0.0929  0.0764
  111OSM   H17F11544   4.533   4.562   8.736  1.8689 -0.2295 -0.8188
  111OSM   H17G11545   4.658   4.689   8.739  1.0582 -2.7430 -2.5027
  111OSM   C18F11546   4.508   4.711   8.895 -0.1021  0.5129  0.2252
  111OSM   H18F11547   4.458   4.791   8.837  1.6063  0.3760 -1.5280
  111OSM   H18G11548   4.582   4.748   8.970  0.8546  0.5351 -0.6922
  111OSM   H18H11549   4.428   4.650   8.941  0.1915 -0.6403 -0.7596
  112OSM      N11550   4.362   1.675  10.971  0.1584 -0.0007  0.0560
  112OSM    C1511551   4.384   1.805  11.055 -0.0025  0.1620 -0.4446
  112OSM   H15A11552   4.294   1.862  11.075  0.5788  1.1979 -0.7243
  112OSM   H15B11553   4.456   1.869  11.005 -0.4778  2.5267  1.6626
  112OSM   H15C11554   4.428   1.780  11.150 -0.8839  3.5186  0.9871
  112OSM    C1411555   4.315   1.703  10.833 -0.0865  0.0664  0.6934
  112OSM   H14A11556   4.396   1.733  10.768 -1.1674  1.0539 -0.2560
  112OSM   H14B11557   4.234   1.775  10.835 -1.8938 -1.8254 -0.1221
  112OSM   H14C11558   4.282   1.611  10.787  2.2540 -1.8659  2.6560
  112OSM    C1311559   4.492   1.604  10.975  0.0096 -0.7594 -0.3190
  112OSM   H13A11560   4.566   1.678  10.948 -2.1984  1.6797 -0.1143
  112OSM   H13B11561   4.496   1.520  10.907  0.0312  0.5662 -2.0267
  112OSM   H13C11562   4.525   1.571  11.072 -0.6517 -1.6395 -0.3786
  112OSM    C1211563   4.250   1.598  11.044  0.5379 -0.1665 -0.4354
  112OSM   H12A11564   4.169   1.665  11.069 -0.5717 -0.7180 -2.3160
  112OSM   H12B11565   4.289   1.575  11.142 -0.2639 -0.7311 -0.2367
  112OSM    C1111566   4.200   1.476  10.977  0.1481  0.6027  0.1412
  112OSM   H11A11567   4.163   1.402  11.050  0.0228  1.4506  0.9509
  112OSM   H11B11568   4.280   1.412  10.934 -0.2446  1.6687 -2.3424
  112OSM      P11569   3.949   1.529  10.932  0.2725 -0.1018  0.2493
  112OSM    O1311570   3.904   1.423  11.026 -0.2625  0.1312 -0.3362
  112OSM    O1411571   3.939   1.668  10.976  0.0160 -0.6482 -0.2763
  112OSM    O1111572   3.861   1.511  10.797 -0.0381 -0.7127 -0.6661
  112OSM    O1211573   4.097   1.504  10.881  0.0288  0.3160 -0.3595
  112OSM    C1S11574   3.900   1.599  10.684 -0.5505  0.0817  0.0052
  112OSM    H1S11575   4.008   1.624  10.680 -0.0091 -2.0272  0.2703
  112OSM    H1T11576   3.849   1.698  10.684  1.1317  1.0078  0.9214
  112OSM     NF11577   3.938   1.626  10.438 -0.1410  0.8770 -0.2923
  112OSM    HNF11578   3.893   1.699  10.387 -2.0474 -0.3081 -0.3660
  112OSM    C2S11579   3.870   1.538  10.536 -0.2625 -0.6801  0.1059
  112OSM    H2S11580   3.922   1.440  10.528  0.7769 -0.0270 -2.4200
  112OSM    C3S11581   3.718   1.513  10.516 -0.0970 -0.4276  0.0558
  112OSM    H3S11582   3.671   1.614  10.508  3.9631  1.6343 -0.6766
  112OSM     O311583   3.659   1.464  10.636  0.3413  0.4296 -0.0644
  112OSM    HO311584   3.721   1.465  10.709 -0.9878 -0.8161  1.1474
  112OSM    C4S11585   3.692   1.433  10.392  0.0662  0.0883  0.6940
  112OSM    H4S11586   3.689   1.499  10.303  0.2806 -0.1292  0.5225
  112OSM    C5S11587   3.679   1.293  10.373  0.2543 -0.1850  0.3718
  112OSM    H5S11588   3.685   1.232  10.464  2.8153 -0.3844  0.1371
  112OSM    C6S11589   3.656   1.214  10.251  0.1063 -0.2697 -0.1864
  112OSM    H6S11590   3.565   1.154  10.269 -0.6442  1.2849  1.4556
  112OSM    H6T11591   3.744   1.146  10.246 -0.9782 -1.7070 -0.2482
  112OSM    C7S11592   3.649   1.308  10.128 -0.3294 -0.2695  0.9874
  112OSM    H7S11593   3.752   1.348  10.114 -1.8162  2.8712 -2.6339
  112OSM    H7T11594   3.583   1.397  10.134  0.4083  0.3463  0.1230
  112OSM    C8S11595   3.622   1.234  10.000  0.3383 -0.1546  0.0849
  112OSM    H8S11596   3.516   1.205  10.015  0.2001  1.3192  2.5408
  112OSM    H8T11597   3.673   1.135   9.988 -0.5216 -0.2959 -3.6816
  112OSM    C9S11598   3.629   1.318   9.875 -0.6915 -0.0709  0.3561
  112OSM    H9S11599   3.729   1.363   9.862 -0.7025  0.3005  1.5305
  112OSM    H9T11600   3.553   1.398   9.885 -0.8523 -0.0713 -0.6694
  112OSM   C10S11601   3.594   1.230   9.748 -0.0434 -1.8166 -0.4164
  112OSM   H10S11602   3.496   1.179   9.765 -0.8652 -0.2584 -0.3308
  112OSM   H10T11603   3.659   1.140   9.744 -0.3759 -2.0914  0.1579
  112OSM   C11S11604   3.609   1.320   9.622  0.3145  0.3633  0.3405
  112OSM   H11S11605   3.715   1.343   9.601  0.7339  0.9326  2.7200
  112OSM   H11T11606   3.548   1.413   9.621 -3.0768 -1.6611  0.5072
  112OSM   C12S11607   3.577   1.237   9.501  0.7933  0.1015  0.7994
  112OSM   H12S11608   3.471   1.206   9.513  1.1097 -0.8800  1.0764
  112OSM   H12T11609   3.639   1.146   9.486  0.0346 -0.7153  2.3496
  112OSM   C13S11610   3.590   1.325   9.380  1.0227 -0.7977  0.2342
  112OSM   H13S11611   3.685   1.380   9.363 -0.5592  1.6238 -1.3638
  112OSM   H13T11612   3.517   1.407   9.394  2.4218  0.1417  2.8382
  112OSM   C14S11613   3.548   1.264   9.246  0.5829  0.3170 -0.4478
  112OSM   H14S11614   3.440   1.243   9.264  1.3039 -2.1003  1.5601
  112OSM   H14T11615   3.607   1.171   9.228  0.3710  0.5374 -2.4925
  112OSM   C15S11616   3.575   1.365   9.132 -0.1725 -0.5521 -0.0439
  112OSM   H15S11617   3.684   1.378   9.113 -0.4065  4.2109  0.8248
  112OSM   H15T11618   3.549   1.468   9.164  0.1805 -1.0831  2.0651
  112OSM   C16S11619   3.498   1.321   9.004 -1.2023 -0.2946  0.0800
  112OSM   H16S11620   3.388   1.332   9.017 -1.5925 -4.3470  1.8278
  112OSM   H16T11621   3.516   1.212   8.992  1.0403  0.0265  0.1773
  112OSM   C17S11622   3.537   1.398   8.875 -0.6719  0.1809  0.4798
  112OSM   H17S11623   3.648   1.398   8.886 -0.5125 -0.4273 -0.8606
  112OSM   H17T11624   3.506   1.504   8.881 -1.6441 -0.1734  2.4199
  112OSM   C18S11625   3.465   1.340   8.753  0.0043  0.3561  0.1846
  112OSM   H18S11626   3.533   1.356   8.666 -2.6898  0.8309 -2.0048
  112OSM   H18T11627   3.370   1.391   8.727 -0.5187  0.0276  1.4056
  112OSM   H18U11628   3.443   1.232   8.764  0.1249 -0.0634 -2.8641
  112OSM    C1F11629   4.073   1.616  10.434  0.4332 -0.7802  0.3118
  112OSM     OF11630   4.135   1.521  10.476 -0.7216 -0.6191 -0.3586
  112OSM    C2F11631   4.138   1.736  10.367  0.2517  0.3275 -0.3282
  112OSM    H2F11632   4.218   1.772  10.435 -0.4138  0.8912  0.1626
  112OSM    H2G11633   4.063   1.817  10.357 -1.7709 -1.4894 -0.6855
  112OSM    C3F11634   4.179   1.686  10.232 -0.2428  0.1668  0.8299
  112OSM    H3F11635   4.240   1.594  10.221 -0.8841 -0.0008 -2.1936
  112OSM    H3G11636   4.241   1.764  10.183  0.9877 -1.3476 -0.1447
  112OSM    C4F11637   4.054   1.663  10.132 -0.5264 -0.1971 -0.5005
  112OSM    H4F11638   3.992   1.754  10.116  0.1005 -0.1943 -3.4319
  112OSM    H4G11639   4.002   1.571  10.168  0.5525 -0.5495  0.1962
  112OSM    C5F11640   4.109   1.644   9.990  0.5500  0.0418 -0.0796
  112OSM    H5F11641   4.041   1.582   9.928  0.5668 -0.7432  0.6594
  112OSM    H5G11642   4.206   1.590   9.992  0.2178 -0.6015 -0.8208
  112OSM    C6F11643   4.122   1.781   9.916  0.2917 -0.0782  0.7193
  112OSM    H6F11644   4.133   1.851  10.002  0.3100  1.6076 -0.6102
  112OSM    H6G11645   4.024   1.812   9.874  1.5934  4.1500  0.3197
  112OSM    C7F11646   4.241   1.793   9.814  0.1112  0.0254  0.3344
  112OSM    H7F11647   4.229   1.709   9.743 -0.6528  0.2378  0.2043
  112OSM    H7G11648   4.335   1.768   9.869 -0.4685 -2.0376  0.4431
  112OSM    C8F11649   4.270   1.929   9.739 -0.3173  0.2651  0.1790
  112OSM    H8F11650   4.274   2.018   9.806  3.5487 -1.0394  1.9497
  112OSM    H8G11651   4.183   1.940   9.670  0.9659 -0.5557 -1.6315
  112OSM    C9F11652   4.395   1.919   9.669  0.0379 -0.6683 -0.4810
  112OSM    H9F11653   4.479   1.962   9.725  0.3234 -0.6995 -0.8774
  112OSM   C10F11654   4.412   1.874   9.544 -0.0239 -0.6492  0.7180
  112OSM   H10F11655   4.514   1.876   9.502  0.4902 -0.7608  1.8953
  112OSM   C11F11656   4.299   1.824   9.455 -0.5482  0.4150  0.0838
  112OSM   H11F11657   4.213   1.802   9.522  0.7133  2.3763  2.5151
  112OSM   H11G11658   4.332   1.731   9.403 -1.0234  1.0108 -1.3164
  112OSM   C12F11659   4.251   1.916   9.346 -0.4872  0.4972  0.6548
  112OSM   H12F11660   4.251   2.018   9.390  0.6134  0.2397  1.2738
  112OSM   H12G11661   4.145   1.895   9.319 -0.0058  0.2791 -1.2321
  112OSM   C13F11662   4.334   1.921   9.225  0.1149  0.8331  0.3919
  112OSM   H13F11663   4.353   1.818   9.186 -0.2021  0.5240  1.0468
  112OSM   H13G11664   4.441   1.939   9.246 -0.1335  0.7572  1.7847
  112OSM   C14F11665   4.296   2.028   9.120  0.3004  0.1294 -0.2964
  112OSM   H14F11666   4.291   2.120   9.182  3.3094  1.1777 -1.4210
  112OSM   H14G11667   4.200   1.999   9.073  1.7102 -2.0560 -2.0481
  112OSM   C15F11668   4.393   2.048   9.000  0.0484  0.3042  0.5374
  112OSM   H15F11669   4.406   1.949   8.952 -0.2761  1.0406 -1.1653
  112OSM   H15G11670   4.488   2.084   9.044 -0.2465  1.0781  0.5672
  112OSM   C16F11671   4.339   2.151   8.901 -0.2812  0.6672 -0.2087
  112OSM   H16F11672   4.232   2.131   8.879 -0.6687  1.3856  0.8972
  112OSM   H16G11673   4.391   2.131   8.805 -0.2833 -2.5527  0.3747
  112OSM   C17F11674   4.355   2.292   8.956 -0.2478  0.1245  0.3302
  112OSM   H17F11675   4.465   2.306   8.951 -0.6109  3.2682 -2.5734
  112OSM   H17G11676   4.315   2.310   9.058  1.7712  0.7633  1.0513
  112OSM   C18F11677   4.284   2.400   8.873  0.2141  0.4540  0.2955
  112OSM   H18F11678   4.183   2.364   8.844  0.1926  1.6776 -1.2966
  112OSM   H18G11679   4.358   2.420   8.792  2.4479  1.1624  2.3888
  112OSM   H18H11680   4.267   2.494   8.929 -0.4880  1.1582 -1.0479
  113OSM      N11681   2.656   1.824  10.838  0.3653 -0.2658 -0.1131
  113OSM    C1511682   2.785   1.765  10.881 -0.1893 -0.6994 -0.3060
  113OSM   H15A11683   2.813   1.787  10.983 -3.4675  0.0709  0.5352
  113OSM   H15B11684   2.867   1.812  10.830  0.0049 -0.9151 -0.1943
  113OSM   H15C11685   2.805   1.661  10.856  1.4438 -1.1217  2.3340
  113OSM    C1411686   2.559   1.761  10.927  0.2361  0.5999 -0.1121
  113OSM   H14A11687   2.457   1.792  10.909 -0.3400 -0.9935  0.2404
  113OSM   H14B11688   2.582   1.779  11.031 -0.2464 -0.2349  0.1497
  113OSM   H14C11689   2.560   1.653  10.918  0.0442  0.7400 -2.3920
  113OSM    C1311690   2.656   1.970  10.863  0.3658 -0.9074 -0.0327
  113OSM   H13A11691   2.672   2.006  10.963 -1.7438 -0.0774  0.0701
  113OSM   H13B11692   2.570   2.026  10.829  2.2597  1.8499 -0.5108
  113OSM   H13C11693   2.741   2.014  10.814  0.0238 -0.2116 -0.0185
  113OSM    C1211694   2.638   1.795  10.691 -0.3096  0.7643 -0.3045
  113OSM   H12A11695   2.545   1.843  10.665 -1.0644  0.1116  1.0662
  113OSM   H12B11696   2.645   1.688  10.679  2.5575  0.6908  1.1958
  113OSM    C1111697   2.746   1.855  10.597  0.1314 -0.0402  0.7411
  113OSM   H11A11698   2.749   1.965  10.609 -0.6277  0.2960 -1.6348
  113OSM   H11B11699   2.704   1.837  10.496  1.4467 -1.4739  0.4142
  113OSM      P11700   2.913   1.665  10.547  0.0211  0.2483  0.2403
  113OSM    O1311701   3.026   1.588  10.610 -0.0168 -0.2234 -0.0178
  113OSM    O1411702   2.790   1.587  10.511  0.1899  0.1945 -0.3660
  113OSM    O1111703   2.970   1.733  10.418 -0.0442  0.1811 -0.0353
  113OSM    O1211704   2.872   1.795  10.624 -0.0518 -0.0118  0.1136
  113OSM    C1S11705   3.062   1.847  10.428 -0.3803  0.3197  0.3882
  113OSM    H1S11706   3.146   1.837  10.500 -0.4923  2.8454  0.9712
  113OSM    H1T11707   3.010   1.935  10.472  0.7712 -0.5874  3.9318
  113OSM     NF11708   3.210   2.002  10.296 -0.2358 -0.3123  0.6033
  113OSM    HNF11709   3.170   2.092  10.280 -0.6934 -0.1294  2.5614
  113OSM    C2S11710   3.116   1.896  10.287 -0.2824  0.6244 -0.4152
  113OSM    H2S11711   3.173   1.813  10.240  0.3985 -0.2039  1.7480
  113OSM    C3S11712   2.994   1.925  10.197  0.2292  0.0243 -0.6859
  113OSM    H3S11713   2.936   2.009  10.241  1.1911 -0.8621  2.4796
  113OSM     O311714   2.892   1.816  10.189  0.0808 -0.0720 -0.6031
  113OSM    HO311715   2.935   1.765  10.258 -0.0654  0.0331 -0.4347
  113OSM    C4S11716   3.032   1.964  10.062 -0.1430  0.0532 -0.2793
  113OSM    H4S11717   3.082   1.882  10.008 -2.3923 -0.7435 -1.2683
  113OSM    C5S11718   3.020   2.082  10.001  0.4955  0.7989 -0.5517
  113OSM    H5S11719   2.974   2.157  10.067  0.1449 -2.4588  3.2494
  113OSM    C6S11720   3.064   2.120   9.869  0.1507  0.1462  0.0479
  113OSM    H6S11721   3.133   2.207   9.873  1.5443 -0.8876 -0.5865
  113OSM    H6T11722   2.978   2.161   9.812  1.5805 -0.4724 -2.7170
  113OSM    C7S11723   3.141   2.010   9.791 -0.2941  1.2162  0.0361
  113OSM    H7S11724   3.079   1.918   9.781 -0.9723  1.7718 -1.0998
  113OSM    H7T11725   3.238   1.987   9.839  0.7089  1.5213 -1.7578
  113OSM    C8S11726   3.185   2.050   9.651  0.2397 -1.5003  0.8885
  113OSM    H8S11727   3.267   1.986   9.611 -1.2796 -2.9013 -0.1373
  113OSM    H8T11728   3.216   2.156   9.638 -2.5586 -0.6833  0.2403
  113OSM    C9S11729   3.065   2.030   9.548 -0.4363  0.0456 -0.0311
  113OSM    H9S11730   2.986   2.095   9.592  1.0566 -0.5677  4.0033
  113OSM    H9T11731   3.024   1.927   9.550  0.5447 -0.3879 -1.1438
  113OSM   C10S11732   3.102   2.057   9.398 -0.4047 -0.2045  0.3809
  113OSM   H10S11733   3.137   2.162   9.386 -2.8406  0.6872  0.5489
  113OSM   H10T11734   3.001   2.044   9.353 -0.4543  0.5370  0.2617
  113OSM   C11S11735   3.202   1.953   9.330 -0.0421 -0.0656 -0.2140
  113OSM   H11S11736   3.173   1.848   9.351 -0.0362 -0.0323 -0.0435
  113OSM   H11T11737   3.287   1.980   9.395 -1.4939 -1.1383  2.2419
  113OSM   C12S11738   3.252   1.990   9.187  0.1228  0.1396 -0.6444
  113OSM   H12S11739   3.273   2.099   9.183 -0.7476  0.2804 -2.8574
  113OSM   H12T11740   3.160   1.976   9.126  0.9571 -1.0333 -1.6647
  113OSM   C13S11741   3.361   1.903   9.128 -0.3752 -0.0367  0.0419
  113OSM   H13S11742   3.325   1.799   9.144  3.1340 -1.3655  0.1953
  113OSM   H13T11743   3.469   1.908   9.152  0.4586  1.4783 -3.4354
  113OSM   C14S11744   3.366   1.918   8.971 -0.0921 -0.5985  0.4665
  113OSM   H14S11745   3.400   2.021   8.950 -3.2398  0.4022 -0.3222
  113OSM   H14T11746   3.269   1.929   8.917  0.7830 -0.1633 -1.0810
  113OSM   C15S11747   3.437   1.807   8.896 -0.2092 -0.4791 -0.3687
  113OSM   H15S11748   3.411   1.705   8.931  1.3346 -1.5184 -2.0677
  113OSM   H15T11749   3.543   1.821   8.927 -0.3384  1.1292 -0.5550
  113OSM   C16S11750   3.431   1.812   8.739  0.1224  0.0290  0.2457
  113OSM   H16S11751   3.326   1.794   8.708  0.2927 -0.2437 -0.1749
  113OSM   H16T11752   3.499   1.733   8.703  0.8669  1.2807 -1.1872
  113OSM   C17S11753   3.471   1.946   8.670  0.1652 -0.4543  0.2815
  113OSM   H17S11754   3.393   2.018   8.702 -0.3228 -0.5255 -0.6825
  113OSM   H17T11755   3.464   1.921   8.561  0.4409 -0.6374  0.3065
  113OSM   C18S11756   3.610   2.003   8.706  0.6194  0.5805  0.4655
  113OSM   H18S11757   3.624   2.105   8.663 -1.6846  0.4079 -0.8530
  113OSM   H18T11758   3.691   1.940   8.663  1.4358  1.1246  1.1605
  113OSM   H18U11759   3.620   2.018   8.815 -0.7684 -0.9757  0.8386
  113OSM    C1F11760   3.334   1.985  10.343 -0.6426  0.8742 -0.3480
  113OSM     OF11761   3.373   1.875  10.382  0.1777  0.7890 -0.1514
  113OSM    C2F11762   3.424   2.104  10.344  0.8310 -0.3377  0.7148
  113OSM    H2F11763   3.466   2.119  10.447  1.1097  0.2016  0.5313
  113OSM    H2G11764   3.351   2.186  10.324  0.1639 -0.8604  0.9901
  113OSM    C3F11765   3.539   2.092  10.247  0.3654 -0.4055 -0.1880
  113OSM    H3F11766   3.607   2.009  10.276 -1.7388 -3.1359 -2.5625
  113OSM    H3G11767   3.597   2.186  10.236  0.0742 -0.1526  0.3751
  113OSM    C4F11768   3.489   2.052  10.096  0.3825 -0.1727  0.5410
  113OSM    H4F11769   3.427   2.129  10.044 -0.4421  0.3483  2.2350
  113OSM    H4G11770   3.445   1.951  10.105 -2.2101  0.6967 -1.1443
  113OSM    C5F11771   3.612   2.049  10.000 -0.6015  0.4154 -0.3868
  113OSM    H5F11772   3.694   1.985  10.039  0.7114  0.8393 -2.2771
  113OSM    H5G11773   3.651   2.153   9.999 -1.0706  0.5958  0.0178
  113OSM    C6F11774   3.577   2.001   9.858  0.2966  0.4955 -0.4361
  113OSM    H6F11775   3.485   2.049   9.818  0.5961  1.0629 -0.4690
  113OSM    H6G11776   3.555   1.893   9.867  0.8994  0.1436 -2.6407
  113OSM    C7F11777   3.687   2.033   9.756 -0.2649  0.6479  0.1971
  113OSM    H7F11778   3.782   2.023   9.814 -1.1899 -0.0482  1.6458
  113OSM    H7G11779   3.678   2.141   9.732  1.8630  0.6421 -0.8521
  113OSM    C8F11780   3.701   1.951   9.633 -0.0748 -0.0387 -0.0526
  113OSM    H8F11781   3.766   2.021   9.576  0.1589  1.1964  1.6629
  113OSM    H8G11782   3.605   1.944   9.576 -0.7496 -0.0252  1.0603
  113OSM    C9F11783   3.765   1.811   9.659  0.2631  0.1911  0.2837
  113OSM    H9F11784   3.793   1.795   9.764  1.3349 -1.8521 -0.2549
  113OSM   C10F11785   3.780   1.719   9.558 -0.2422 -0.2246  0.5676
  113OSM   H10F11786   3.843   1.630   9.571 -0.1283 -0.4198 -1.1128
  113OSM   C11F11787   3.731   1.738   9.415  0.2221  0.0621  0.4667
  113OSM   H11F11788   3.660   1.823   9.407  0.3638  0.0200 -2.1854
  113OSM   H11G11789   3.672   1.645   9.397 -0.6976  0.5808  0.7206
  113OSM   C12F11790   3.842   1.742   9.301  0.2312 -0.4224  0.3404
  113OSM   H12F11791   3.914   1.659   9.321  2.0991  0.3662 -2.4439
  113OSM   H12G11792   3.907   1.831   9.313 -0.1679 -0.1950  0.7978
  113OSM   C13F11793   3.797   1.735   9.150  0.5308 -0.2157 -0.0008
  113OSM   H13F11794   3.712   1.808   9.146  0.7480  0.2257  2.0877
  113OSM   H13G11795   3.757   1.636   9.122  1.8185 -0.2351 -1.9608
  113OSM   C14F11796   3.909   1.769   9.051 -0.2730 -0.0268  0.4695
  113OSM   H14F11797   3.996   1.709   9.086 -0.3010  0.6027  1.6516
  113OSM   H14G11798   3.939   1.876   9.055  1.3382 -0.3740 -0.8141
  113OSM   C15F11799   3.888   1.734   8.905 -0.1507  0.1805 -0.3073
  113OSM   H15F11800   3.790   1.774   8.870 -0.8822 -0.8257  0.5410
  113OSM   H15G11801   3.878   1.623   8.899 -0.8517  0.2994 -2.2745
  113OSM   C16F11802   3.989   1.786   8.806 -0.0883 -0.3677  0.2921
  113OSM   H16F11803   3.963   1.737   8.709  0.1172 -1.7444  0.9127
  113OSM   H16G11804   4.089   1.742   8.825  0.2378  0.2768  0.0794
  113OSM   C17F11805   3.995   1.942   8.798  0.3122  0.5212 -0.0681
  113OSM   H17F11806   4.025   1.983   8.897 -0.1111 -0.7494  0.6172
  113OSM   H17G11807   3.894   1.981   8.773 -0.0139 -1.3888 -2.0901
  113OSM   C18F11808   4.098   1.986   8.692 -0.3678 -0.4097 -0.4546
  113OSM   H18F11809   4.099   2.097   8.683  0.7831 -0.5131 -2.0499
  113OSM   H18G11810   4.093   1.932   8.596  1.5685 -1.7345  0.1432
  113OSM   H18H11811   4.196   1.958   8.735 -1.5073 -2.0027  1.2594
  114OSM      N11812   6.171   1.713  11.223 -0.5150  0.5495  0.2832
  114OSM    C1511813   6.107   1.678  11.352  1.1464  0.3935 -0.4478
  114OSM   H15A11814   6.165   1.630  11.429 -0.5409  0.8815  1.2050
  114OSM   H15B11815   6.016   1.621  11.342  2.0004 -1.1139  0.0744
  114OSM   H15C11816   6.066   1.768  11.397  0.4491  0.0493 -0.3826
  114OSM    C1411817   6.193   1.588  11.147 -0.7412  1.0844 -0.0084
  114OSM   H14A11818   6.192   1.610  11.041  0.0808  0.5279 -0.1340
  114OSM   H14B11819   6.118   1.515  11.173 -0.6460  1.4031  1.1928
  114OSM   H14C11820   6.292   1.551  11.170 -1.2940 -0.7131 -0.3963
  114OSM    C1311821   6.079   1.797  11.141  0.1748 -0.4061 -0.3124
  114OSM   H13A11822   6.119   1.801  11.041 -0.0061 -0.1146 -0.3754
  114OSM   H13B11823   6.046   1.887  11.191 -0.8725 -1.0874  0.2825
  114OSM   H13C11824   5.987   1.746  11.115  0.5521 -1.2451 -0.0339
  114OSM    C1211825   6.304   1.787  11.251 -0.4867  0.0457 -0.0575
  114OSM   H12A11826   6.281   1.883  11.295 -0.7223  0.2073 -0.5377
  114OSM   H12B11827   6.348   1.812  11.156  1.4086 -1.1693  0.4224
  114OSM    C1111828   6.409   1.720  11.334 -0.0088  0.1261 -0.2579
  114OSM   H11A11829   6.363   1.696  11.432 -0.4922 -1.1936 -0.7722
  114OSM   H11B11830   6.494   1.787  11.355 -0.0380  0.1434 -0.1969
  114OSM      P11831   6.594   1.550  11.306 -0.4162  0.1154  0.2012
  114OSM    O1311832   6.658   1.586  11.438  0.0224 -0.0170 -0.5631
  114OSM    O1411833   6.599   1.407  11.285 -0.1812 -0.4749 -0.0648
  114OSM    O1111834   6.676   1.618  11.196  0.7933  0.7571  0.1286
  114OSM    O1211835   6.446   1.595  11.278 -0.0989 -0.4331  0.6298
  114OSM    C1S11836   6.621   1.600  11.058 -0.4433 -0.0268 -1.1275
  114OSM    H1S11837   6.538   1.672  11.040 -1.2257 -0.6180 -0.0548
  114OSM    H1T11838   6.591   1.494  11.040  1.0183 -0.5287 -0.7730
  114OSM     NF11839   6.699   1.624  10.828  0.2123 -0.0736  0.0612
  114OSM    HNF11840   6.736   1.551  10.770  3.3962  1.0757  0.4113
  114OSM    C2S11841   6.743   1.629  10.963  0.3372  0.4473 -0.0919
  114OSM    H2S11842   6.780   1.731  10.986  1.3182  0.3503 -1.1564
  114OSM    C3S11843   6.862   1.523  10.976  0.5451 -0.2582 -0.3579
  114OSM    H3S11844   6.827   1.417  10.975 -2.0162  0.5125 -2.0647
  114OSM     O311845   6.910   1.529  11.111 -0.2100 -0.3148 -0.1288
  114OSM    HO311846   6.834   1.563  11.159 -0.7385  1.3001 -1.9747
  114OSM    C4S11847   6.972   1.540  10.880 -0.1787  0.5456  0.4354
  114OSM    H4S11848   6.999   1.450  10.822 -1.1232  0.2155  0.4840
  114OSM    C5S11849   7.048   1.649  10.866 -0.0428  0.4046 -0.0866
  114OSM    H5S11850   7.016   1.738  10.923  0.5886  1.3798 -1.1980
  114OSM    C6S11851   7.161   1.672  10.776  0.6295 -0.1685 -0.6036
  114OSM    H6S11852   7.241   1.615  10.828 -1.8897 -1.1481  2.4956
  114OSM    H6T11853   7.187   1.780  10.775  1.5950 -0.3083  1.9305
  114OSM    C7S11854   7.152   1.614  10.636  0.7820 -0.1766 -0.5228
  114OSM    H7S11855   7.085   1.687  10.584  0.9790  1.6777  1.7099
  114OSM    H7T11856   7.093   1.520  10.631  0.5126  0.0328 -2.8682
  114OSM    C8S11857   7.276   1.615  10.568 -0.1229 -0.7258  0.9405
  114OSM    H8S11858   7.366   1.611  10.634  1.5293 -0.3726 -1.1885
  114OSM    H8T11859   7.293   1.704  10.505  1.3510  1.6913  4.3888
  114OSM    C9S11860   7.286   1.491  10.480  0.4175  0.6551  0.6534
  114OSM    H9S11861   7.203   1.503  10.406 -0.6053 -0.6184  1.5475
  114OSM    H9T11862   7.260   1.404  10.544  1.1504  0.8959  1.2899
  114OSM   C10S11863   7.415   1.490  10.396  0.2042 -0.6759  0.3286
  114OSM   H10S11864   7.501   1.443  10.449  1.1865 -0.8903 -1.3893
  114OSM   H10T11865   7.452   1.594  10.380 -1.7748  0.3178  1.7721
  114OSM   C11S11866   7.394   1.417  10.260  0.4141  0.5452  0.1498
  114OSM   H11S11867   7.298   1.459  10.222 -0.5485 -0.3769  1.4753
  114OSM   H11T11868   7.371   1.311  10.284  0.5543 -0.3569 -3.1765
  114OSM   C12S11869   7.496   1.437  10.147  0.2070 -0.6233 -0.3642
  114OSM   H12S11870   7.595   1.414  10.192  1.5073  0.2599 -2.5950
  114OSM   H12T11871   7.516   1.545  10.131  1.0176 -0.7823 -0.5185
  114OSM   C13S11872   7.456   1.373  10.013  0.4613  0.2215 -0.0373
  114OSM   H13S11873   7.377   1.433   9.963  0.6964 -0.1390 -0.8661
  114OSM   H13T11874   7.416   1.270  10.022  1.2963 -0.2283 -1.2476
  114OSM   C14S11875   7.571   1.362   9.914  0.3671  0.9334 -0.4116
  114OSM   H14S11876   7.631   1.269   9.925  1.1845  1.5774  0.7461
  114OSM   H14T11877   7.650   1.436   9.936  2.8531 -1.0266 -2.0650
  114OSM   C15S11878   7.529   1.380   9.766 -0.4767  0.3174 -0.2511
  114OSM   H15S11879   7.453   1.460   9.752 -1.6801 -0.6242  0.6237
  114OSM   H15T11880   7.482   1.288   9.725  1.4207 -0.3530 -1.0450
  114OSM   C16S11881   7.643   1.420   9.662 -1.0818  0.2435 -0.0737
  114OSM   H16S11882   7.707   1.330   9.658 -2.3694 -0.8071  1.5197
  114OSM   H16T11883   7.706   1.505   9.696  1.2443  0.4247 -4.1988
  114OSM   C17S11884   7.596   1.447   9.525  0.5225  0.6520 -0.2140
  114OSM   H17S11885   7.509   1.378   9.514 -1.1250  2.2135  1.9710
  114OSM   H17T11886   7.667   1.415   9.446 -0.6377  0.8068 -1.3498
  114OSM   C18S11887   7.548   1.589   9.496 -1.1296  0.4129  0.0459
  114OSM   H18S11888   7.631   1.660   9.514 -1.9557  1.3978  0.0123
  114OSM   H18T11889   7.464   1.618   9.563 -0.6751 -0.8341  1.2188
  114OSM   H18U11890   7.517   1.594   9.389  1.3408 -1.5862 -0.8876
  114OSM    C1F11891   6.618   1.716  10.779  1.4025 -0.1898 -0.7263
  114OSM     OF11892   6.599   1.819  10.848  0.2826 -0.1399  0.1061
  114OSM    C2F11893   6.556   1.690  10.647  0.0408 -0.1301  0.7251
  114OSM    H2F11894   6.492   1.600  10.663 -0.6753  0.3820  0.7566
  114OSM    H2G11895   6.633   1.668  10.569 -0.2204 -0.3777  0.5343
  114OSM    C3F11896   6.483   1.815  10.610 -0.2687 -0.0306 -1.0903
  114OSM    H3F11897   6.555   1.899  10.619 -0.9738  0.6380 -1.5901
  114OSM    H3G11898   6.400   1.834  10.681  1.7007 -0.3164  1.4339
  114OSM    C4F11899   6.432   1.827  10.465  0.2342  0.2352 -0.0268
  114OSM    H4F11900   6.528   1.813  10.411  1.5104 -0.9625  2.3908
  114OSM    H4G11901   6.383   1.920  10.427 -1.8871 -0.7205  0.2037
  114OSM    C5F11902   6.343   1.705  10.430  0.0682  0.4588 -0.3612
  114OSM    H5F11903   6.251   1.687  10.489 -0.0485  3.8254  0.6524
  114OSM    H5G11904   6.409   1.617  10.446 -1.2171 -0.5312 -0.3350
  114OSM    C6F11905   6.307   1.711  10.281  0.7955  0.4143 -0.5634
  114OSM    H6F11906   6.254   1.809  10.280 -0.1011 -0.0622 -0.7456
  114OSM    H6G11907   6.231   1.631  10.268 -1.5237  2.2960  0.7421
  114OSM    C7F11908   6.408   1.716  10.174 -0.5294 -0.4312 -0.6828
  114OSM    H7F11909   6.472   1.627  10.191 -0.3604 -0.4489 -1.3792
  114OSM    H7G11910   6.476   1.804  10.174 -0.9380 -0.1093 -0.6773
  114OSM    C8F11911   6.357   1.704  10.033  0.2308 -0.0878  0.7861
  114OSM    H8F11912   6.281   1.782  10.011  1.0249  0.6897  0.7706
  114OSM    H8G11913   6.296   1.611  10.025 -0.1826  0.1104  1.5236
  114OSM    C9F11914   6.468   1.701   9.927  0.2518 -0.0838 -0.1741
  114OSM    H9F11915   6.569   1.717   9.968  0.4724 -3.4514  0.8822
  114OSM   C10F11916   6.454   1.686   9.793  0.4439 -0.0201 -0.1169
  114OSM   H10F11917   6.542   1.675   9.728  0.0261 -1.1935 -0.5089
  114OSM   C11F11918   6.317   1.654   9.732 -0.4554  0.3022  0.4739
  114OSM   H11F11919   6.237   1.615   9.798 -1.4691  1.4075 -0.0776
  114OSM   H11G11920   6.327   1.580   9.649  0.6417  1.3601 -0.3696
  114OSM   C12F11921   6.261   1.771   9.646  0.2287  0.5694  0.2306
  114OSM   H12F11922   6.234   1.855   9.714  1.6026  0.8506  0.4647
  114OSM   H12G11923   6.168   1.734   9.599  0.1564  0.0587  0.7633
  114OSM   C13F11924   6.357   1.819   9.534  0.4624  0.1600  0.0353
  114OSM   H13F11925   6.433   1.742   9.508  0.9383  0.9049 -0.8412
  114OSM   H13G11926   6.408   1.907   9.579  2.8499 -1.6938  1.1347
  114OSM   C14F11927   6.273   1.862   9.413 -0.3478 -0.2504 -0.0350
  114OSM   H14F11928   6.186   1.921   9.448 -2.3387 -1.3123 -2.7923
  114OSM   H14G11929   6.218   1.778   9.366 -1.3982 -0.0279  0.7744
  114OSM   C15F11930   6.347   1.955   9.316 -0.0334 -0.4079  0.2923
  114OSM   H15F11931   6.450   1.916   9.303 -0.3885 -1.0801 -0.6566
  114OSM   H15G11932   6.363   2.051   9.369 -2.1675  0.4232 -0.4473
  114OSM   C16F11933   6.274   1.984   9.181  0.1675 -0.2717 -0.3247
  114OSM   H16F11934   6.172   2.028   9.190  0.2993  0.1256 -0.7927
  114OSM   H16G11935   6.262   1.884   9.133 -2.3969 -1.2881  2.1299
  114OSM   C17F11936   6.367   2.056   9.085  0.8020 -0.6348 -0.5563
  114OSM   H17F11937   6.463   1.999   9.088  1.6228  0.7145  1.4924
  114OSM   H17G11938   6.395   2.158   9.118 -1.6963  0.1577 -0.6722
  114OSM   C18F11939   6.299   2.068   8.946 -0.5687  1.0227  0.6996
  114OSM   H18F11940   6.272   1.967   8.908 -1.0864  1.6941 -0.7978
  114OSM   H18G11941   6.372   2.112   8.874 -0.2062 -0.0017  0.4328
  114OSM   H18H11942   6.205   2.127   8.952 -2.9849 -2.6580  2.9741
  115OSM      N11943   1.190   2.857   6.273 -0.7475 -0.0288  0.0928
  115OSM    C1511944   1.263   2.988   6.277 -0.2354 -0.2207  0.3724
  115OSM   H15A11945   1.355   2.983   6.221  0.2510  0.2069  1.1180
  115OSM   H15B11946   1.285   3.024   6.376  0.1827  1.1457 -0.1844
  115OSM   H15C11947   1.204   3.067   6.232 -0.8068  1.0057  3.0821
  115OSM    C1411948   1.281   2.754   6.331 -0.2161 -0.2543  0.0458
  115OSM   H14A11949   1.380   2.737   6.291  0.3872  1.8147  0.5528
  115OSM   H14B11950   1.227   2.661   6.336 -1.2612  0.0355 -3.3002
  115OSM   H14C11951   1.321   2.787   6.426  2.0017 -1.3829 -0.4330
  115OSM    C1311952   1.070   2.890   6.358  0.1954 -0.5526  0.5286
  115OSM   H13A11953   0.999   2.950   6.303  0.7530 -0.6171 -0.2890
  115OSM   H13B11954   1.096   2.907   6.461 -1.8231  0.9498  0.8603
  115OSM   H13C11955   1.013   2.799   6.354  0.9321 -0.9791 -1.3183
  115OSM    C1211956   1.145   2.825   6.129 -0.7536 -0.1065 -0.5276
  115OSM   H12A11957   1.234   2.810   6.069 -0.5276 -0.7643 -0.0388
  115OSM   H12B11958   1.085   2.899   6.077 -2.3837 -0.4200  0.8147
  115OSM    C1111959   1.076   2.687   6.102 -0.5792  0.0250 -0.2797
  115OSM   H11A11960   1.156   2.615   6.128 -0.1840  1.3271  2.4311
  115OSM   H11B11961   1.048   2.676   5.995 -1.2579 -1.8730  0.0552
  115OSM      P11962   0.893   2.544   6.203  0.1232 -0.2995  0.2222
  115OSM    O1311963   0.753   2.585   6.209  0.1819  0.4694 -0.7635
  115OSM    O1411964   0.921   2.455   6.085 -0.0534  0.2107  0.8804
  115OSM    O1111965   0.939   2.477   6.334  0.4028 -0.3974  0.2622
  115OSM    O1211966   0.966   2.672   6.188  0.0314  0.1446  0.0402
  115OSM    C1S11967   0.971   2.537   6.455  0.4183 -0.0530 -0.0015
  115OSM    H1S11968   1.021   2.632   6.425  3.5307 -2.1251 -1.9575
  115OSM    H1T11969   1.054   2.485   6.507  2.3032  2.3003 -0.4301
  115OSM     NF11970   0.896   2.618   6.678 -0.0709  0.0379  0.0504
  115OSM    HNF11971   0.897   2.561   6.760  1.7234 -0.2753 -0.1270
  115OSM    C2S11972   0.852   2.538   6.559 -0.2440 -0.3469 -0.5591
  115OSM    H2S11973   0.758   2.582   6.521 -1.0671 -0.1553  1.5337
  115OSM    C3S11974   0.820   2.394   6.599 -0.6215  0.0721 -0.8954
  115OSM    H3S11975   0.922   2.370   6.637 -0.4537  0.5744 -1.0177
  115OSM     O311976   0.787   2.315   6.489 -0.0907  0.3328  0.0333
  115OSM    HO311977   0.832   2.355   6.414 -1.0909 -0.3676 -0.9697
  115OSM    C4S11978   0.707   2.372   6.698 -0.0125 -0.1727  0.1723
  115OSM    H4S11979   0.613   2.423   6.669  0.1229 -0.1227 -0.1851
  115OSM    C5S11980   0.722   2.316   6.819  0.5185 -0.0464  0.8321
  115OSM    H5S11981   0.819   2.281   6.859  1.5067  0.0794 -1.3565
  115OSM    C6S11982   0.615   2.314   6.923  0.4922 -0.0100 -0.5597
  115OSM    H6S11983   0.622   2.223   6.986 -0.0932 -0.3892 -1.0218
  115OSM    H6T11984   0.515   2.298   6.877 -0.1216  0.8191  0.4514
  115OSM    C7S11985   0.622   2.441   7.010  0.2105  0.4495 -0.2360
  115OSM    H7S11986   0.580   2.525   6.949 -1.0546 -0.3258 -0.4780
  115OSM    H7T11987   0.722   2.472   7.046 -0.8559  1.4381  2.1243
  115OSM    C8S11988   0.541   2.418   7.139  0.2183 -0.6680  0.2979
  115OSM    H8S11989   0.449   2.357   7.126 -2.0491  2.2776  1.3934
  115OSM    H8T11990   0.502   2.513   7.180  0.5050 -1.0282  1.4677
  115OSM    C9S11991   0.628   2.375   7.246 -0.3359  0.0615 -0.5043
  115OSM    H9S11992   0.698   2.460   7.265 -0.2373  0.0405 -0.7647
  115OSM    H9T11993   0.694   2.288   7.228  1.2863  0.2146  3.6285
  115OSM   C10S11994   0.561   2.342   7.376 -0.7217  0.2783 -0.3998
  115OSM   H10S11995   0.489   2.259   7.369  0.6689 -1.2231  1.8615
  115OSM   H10T11996   0.497   2.430   7.397 -1.6477 -0.2435 -1.0124
  115OSM   C11S11997   0.646   2.320   7.506 -0.4025  0.5608  0.1466
  115OSM   H11S11998   0.703   2.413   7.530 -0.0689  0.8724 -1.7147
  115OSM   H11T11999   0.726   2.247   7.484 -0.2708  0.6684  0.2678
  115OSM   C12S12000   0.562   2.298   7.627 -0.8626  0.9616  0.7781
  115OSM   H12S12001   0.475   2.231   7.613  0.4110 -0.4351 -0.8465
  115OSM   H12T12002   0.531   2.401   7.654 -1.4988  1.2055 -0.8252
  115OSM   C13S12003   0.643   2.248   7.751 -0.6820 -0.0327 -0.1921
  115OSM   H13S12004   0.678   2.147   7.722  0.5246 -0.0866  1.3414
  115OSM   H13T12005   0.588   2.245   7.848  0.6202  0.8361  0.5992
  115OSM   C14S12006   0.766   2.334   7.785  0.0787  0.0837 -0.3837
  115OSM   H14S12007   0.730   2.436   7.809  1.2693  0.4912 -0.2450
  115OSM   H14T12008   0.837   2.337   7.700 -0.1933  1.4865 -0.5831
  115OSM   C15S12009   0.826   2.270   7.914 -0.3595  0.0616 -0.1904
  115OSM   H15S12010   0.898   2.190   7.886 -1.0106 -0.9619  0.9824
  115OSM   H15T12011   0.752   2.214   7.974  1.4764 -0.6421  1.5088
  115OSM   C16S12012   0.895   2.375   7.997  0.4393 -0.3298 -0.0878
  115OSM   H16S12013   0.954   2.433   7.923 -0.4524 -0.8569 -1.2488
  115OSM   H16T12014   0.971   2.347   8.073  0.4468 -0.1376 -0.0240
  115OSM   C17S12015   0.791   2.454   8.069  0.0478  0.0909 -0.7660
  115OSM   H17S12016   0.707   2.493   8.008  0.7790  1.1100 -1.1482
  115OSM   H17T12017   0.840   2.549   8.099  1.6966 -1.2029  0.8084
  115OSM   C18S12018   0.742   2.383   8.193  0.2650  0.1168 -0.1219
  115OSM   H18S12019   0.662   2.438   8.247 -0.3824  0.3628 -1.2913
  115OSM   H18T12020   0.827   2.351   8.257  0.7953  1.2397 -0.2453
  115OSM   H18U12021   0.683   2.290   8.179  0.9294 -0.2824 -0.3415
  115OSM    C1F12022   0.927   2.743   6.677 -0.3337  0.3507 -0.4827
  115OSM     OF12023   0.887   2.809   6.581 -0.5216  0.2132 -0.2398
  115OSM    C2F12024   0.999   2.801   6.800 -0.2636  0.1242 -0.8004
  115OSM    H2F12025   1.093   2.742   6.804  0.7524  1.6030 -1.7720
  115OSM    H2G12026   0.945   2.780   6.894 -1.9503 -0.3028 -1.8284
  115OSM    C3F12027   1.028   2.948   6.791  0.2705  0.3118 -1.0596
  115OSM    H3F12028   0.931   2.999   6.770 -0.2880  0.7423  2.0592
  115OSM    H3G12029   1.094   2.961   6.702  1.8603 -0.0930  0.0184
  115OSM    C4F12030   1.105   3.020   6.903 -0.1923  0.1238 -0.4930
  115OSM    H4F12031   1.124   3.126   6.877 -0.3175  0.7068  1.5813
  115OSM    H4G12032   1.208   2.978   6.895 -0.3480 -0.0301 -1.9255
  115OSM    C5F12033   1.058   3.005   7.048 -0.0740  0.6107  0.0698
  115OSM    H5F12034   1.129   2.996   7.133 -0.6961  0.1060  0.5416
  115OSM    H5G12035   0.997   2.912   7.054  0.3823  0.0983 -2.1628
  115OSM    C6F12036   0.971   3.121   7.086  0.7025  0.3478 -0.5858
  115OSM    H6F12037   0.889   3.137   7.013  1.5870 -1.3310 -2.0216
  115OSM    H6G12038   1.033   3.213   7.089  0.2341  0.6921 -1.3442
  115OSM    C7F12039   0.904   3.098   7.221 -0.1275 -0.2126  0.1459
  115OSM    H7F12040   0.968   3.027   7.278 -1.2247 -2.7140 -1.5427
  115OSM    H7G12041   0.812   3.041   7.194  0.9272 -0.6198 -3.0386
  115OSM    C8F12042   0.862   3.227   7.280 -0.4181 -0.4027 -0.3832
  115OSM    H8F12043   0.779   3.229   7.354 -1.4377  2.1440 -1.4813
  115OSM    H8G12044   0.814   3.277   7.194  0.3634  0.3320 -0.4015
  115OSM    C9F12045   0.977   3.309   7.348 -0.2016  0.3654  0.4221
  115OSM    H9F12046   1.061   3.336   7.282 -0.8358  0.2232 -0.4595
  115OSM   C10F12047   0.980   3.341   7.482 -0.4726  0.1494 -0.2369
  115OSM   H10F12048   1.064   3.404   7.514 -0.2909 -0.0439 -0.3314
  115OSM   C11F12049   0.872   3.299   7.577  0.8111 -0.6262 -1.1473
  115OSM   H11F12050   0.829   3.199   7.553  0.2791 -0.3523 -1.3655
  115OSM   H11G12051   0.788   3.371   7.577 -0.3128 -1.8263  0.9825
  115OSM   C12F12052   0.920   3.289   7.721  0.5544 -0.1196 -0.7234
  115OSM   H12F12053   0.979   3.199   7.746 -0.3461 -0.3406  0.7994
  115OSM   H12G12054   0.841   3.286   7.800  0.4087 -0.5245 -0.8820
  115OSM   C13F12055   1.012   3.409   7.765  0.2548  0.0014  0.1586
  115OSM   H13F12056   0.964   3.506   7.743  1.0733  0.4381  0.2592
  115OSM   H13G12057   1.107   3.400   7.709 -0.2369  1.4150 -0.9397
  115OSM   C14F12058   1.029   3.399   7.916 -0.9697  0.2753  0.1978
  115OSM   H14F12059   1.078   3.300   7.931 -0.5800  0.5954  1.0977
  115OSM   H14G12060   0.932   3.391   7.970  0.4264 -0.5597  2.7530
  115OSM   C15F12061   1.129   3.504   7.970 -0.5037 -0.7507  0.0119
  115OSM   H15F12062   1.084   3.601   7.940  1.1427 -0.3457 -1.2760
  115OSM   H15G12063   1.228   3.497   7.921 -0.8627  1.6941 -1.2140
  115OSM   C16F12064   1.163   3.493   8.117 -0.1039 -0.2031  0.0414
  115OSM   H16F12065   1.225   3.406   8.146 -0.3372 -1.0881 -1.9302
  115OSM   H16G12066   1.066   3.466   8.165 -0.6094 -1.0891 -1.4090
  115OSM   C17F12067   1.226   3.620   8.172  0.0228  0.0740  0.2985
  115OSM   H17F12068   1.170   3.706   8.129  1.3688  1.8936  2.0299
  115OSM   H17G12069   1.323   3.617   8.118 -0.9864 -0.1064 -1.6348
  115OSM   C18F12070   1.228   3.620   8.325 -0.4247 -0.5102  0.2635
  115OSM   H18F12071   1.265   3.520   8.357 -0.4527 -1.4251 -2.2545
  115OSM   H18G12072   1.130   3.640   8.373 -0.3460 -0.1154  0.2601
  115OSM   H18H12073   1.298   3.697   8.363 -0.5204 -0.2925  0.0029
  116OSM      N12074   0.308   0.902   5.814  0.0164  0.2244  0.3298
  116OSM    C1512075   0.212   0.961   5.710 -0.4556  0.1197 -0.6685
  116OSM   H15A12076   0.250   0.966   5.609 -0.5288 -0.3985 -0.7274
  116OSM   H15B12077   0.180   1.059   5.742  2.6142  1.3520 -1.0442
  116OSM   H15C12078   0.123   0.900   5.702 -0.0097 -0.4735 -1.1820
  116OSM    C1412079   0.354   0.759   5.789  0.5657 -0.2285 -0.4564
  116OSM   H14A12080   0.393   0.745   5.689 -0.0728 -1.0089 -0.6050
  116OSM   H14B12081   0.270   0.691   5.796 -1.5636  2.2399 -0.4779
  116OSM   H14C12082   0.438   0.732   5.851  2.6918  1.8807 -2.2412
  116OSM    C1312083   0.435   0.982   5.822  0.0653 -0.3113  0.0702
  116OSM   H13A12084   0.473   0.990   5.722 -0.1488 -0.2235 -0.0044
  116OSM   H13B12085   0.504   0.946   5.897 -1.1743 -1.9118  0.4900
  116OSM   H13C12086   0.422   1.085   5.853  0.1360  0.3043 -1.8698
  116OSM    C1212087   0.227   0.919   5.946 -0.8384  0.2254  0.9176
  116OSM   H12A12088   0.125   0.893   5.920 -0.6726  0.5623 -0.1022
  116OSM   H12B12089   0.218   1.024   5.966  1.8069  0.7062 -0.0151
  116OSM    C1112090   0.272   0.849   6.076  0.2329  0.2146 -0.6292
  116OSM   H11A12091   0.284   0.742   6.048 -0.1512  0.5223 -2.0740
  116OSM   H11B12092   0.194   0.866   6.153 -1.4925 -1.1145 -1.9855
  116OSM      P12093   0.417   1.032   6.185  0.3690  0.1239  0.2950
  116OSM    O1312094   0.549   1.035   6.252 -0.4454 -0.4123 -0.1799
  116OSM    O1412095   0.390   1.138   6.085 -0.3760 -0.1163  0.4064
  116OSM    O1112096   0.310   1.025   6.291  0.2871 -0.3677 -0.0291
  116OSM    O1212097   0.401   0.893   6.121  0.0859 -0.0291 -0.1072
  116OSM    C1S12098   0.310   0.942   6.410  0.0527 -0.3760  0.5599
  116OSM    H1S12099   0.394   0.870   6.400 -0.1126 -0.2055 -3.2004
  116OSM    H1T12100   0.214   0.886   6.404 -0.3368 -0.0122  2.5833
  116OSM     NF12101   0.341   0.921   6.658  0.3541 -0.5001 -0.4890
  116OSM    HNF12102   0.263   0.895   6.715  0.9407 -0.0211  0.5603
  116OSM    C2S12103   0.326   1.013   6.548  0.4042 -0.4227 -0.0931
  116OSM    H2S12104   0.417   1.078   6.548 -0.2929  0.6079 -1.0415
  116OSM    C3S12105   0.202   1.099   6.568 -0.6894 -0.2969 -1.6590
  116OSM    H3S12106   0.103   1.047   6.569 -1.4122  0.8620  1.8145
  116OSM     O312107   0.181   1.201   6.472  0.7786 -0.6773  0.0818
  116OSM    HO312108   0.242   1.179   6.401  2.1577 -2.0067  1.5898
  116OSM    C4S12109   0.213   1.164   6.701  0.3877  0.0978 -0.1115
  116OSM    H4S12110   0.264   1.261   6.708  0.0388  0.2122  0.9403
  116OSM    C5S12111   0.149   1.124   6.811  0.1521  0.1209  0.4620
  116OSM    H5S12112   0.088   1.033   6.816  0.6415 -0.2260  0.1814
  116OSM    C6S12113   0.168   1.202   6.931  0.4332  0.2421  0.1830
  116OSM    H6S12114   0.067   1.237   6.959 -0.7827 -2.8208  0.0157
  116OSM    H6T12115   0.235   1.290   6.918  0.4621  0.0624 -0.9931
  116OSM    C7S12116   0.208   1.115   7.050  0.3479 -0.4848  0.3968
  116OSM    H7S12117   0.313   1.084   7.030  0.9227  0.7342  1.3885
  116OSM    H7T12118   0.148   1.023   7.062  0.4942 -0.3569  2.5365
  116OSM    C8S12119   0.218   1.183   7.189  0.6785 -0.8495 -0.5541
  116OSM    H8S12120   0.122   1.223   7.227  1.9913  1.3713  0.6257
  116OSM    H8T12121   0.295   1.262   7.195 -0.4906  0.2467  0.6145
  116OSM    C9S12122   0.245   1.083   7.301  0.2187  0.1480  0.3075
  116OSM    H9S12123   0.339   1.035   7.269 -0.0311 -0.1512  0.0116
  116OSM    H9T12124   0.166   1.007   7.320 -0.5701  0.9890  0.4937
  116OSM   C10S12125   0.252   1.166   7.430 -0.1078 -0.6569  0.0207
  116OSM   H10S12126   0.156   1.222   7.438 -0.7549 -1.9391  2.2612
  116OSM   H10T12127   0.332   1.242   7.421 -0.8641  0.1442 -0.1017
  116OSM   C11S12128   0.270   1.087   7.560 -1.0487  0.4363  0.3917
  116OSM   H11S12129   0.271   1.163   7.641 -2.3115  3.0918 -1.9067
  116OSM   H11T12130   0.365   1.029   7.561 -1.9471 -1.0808  1.0009
  116OSM   C12S12131   0.164   0.984   7.600  1.0973  0.6162  0.4013
  116OSM   H12S12132   0.134   0.917   7.517 -0.9926  0.2479  1.3710
  116OSM   H12T12133   0.077   1.047   7.628  0.4799 -0.1990  0.3562
  116OSM   C13S12134   0.200   0.903   7.724  0.0233  0.5493  0.0725
  116OSM   H13S12135   0.300   0.855   7.718  0.0624  0.5676  0.5442
  116OSM   H13T12136   0.119   0.826   7.722  1.0054 -0.7243  3.2508
  116OSM   C14S12137   0.194   0.990   7.853 -0.1550 -0.1058  0.0082
  116OSM   H14S12138   0.090   1.005   7.889 -0.1914  1.6671 -0.7315
  116OSM   H14T12139   0.223   1.096   7.838  3.5300 -0.2047  4.3344
  116OSM   C15S12140   0.277   0.927   7.968 -0.1932  0.3969  0.0775
  116OSM   H15S12141   0.275   0.985   8.063  1.5077 -1.0928  1.0960
  116OSM   H15T12142   0.385   0.926   7.942  0.1921  2.2302  1.3793
  116OSM   C16S12143   0.236   0.785   8.001 -0.1584  0.5580  0.0848
  116OSM   H16S12144   0.276   0.718   7.923 -1.1848  1.0340 -0.8736
  116OSM   H16T12145   0.127   0.765   8.005  0.2348 -1.8271  0.3839
  116OSM   C17S12146   0.296   0.748   8.130  0.2631  0.1950 -0.0992
  116OSM   H17S12147   0.405   0.773   8.133  0.1220  0.7843  0.2788
  116OSM   H17T12148   0.306   0.637   8.141  0.3639  0.3551  1.7986
  116OSM   C18S12149   0.224   0.790   8.258 -0.2799  0.5151  0.0648
  116OSM   H18S12150   0.115   0.772   8.248 -0.2738  0.1952  0.5436
  116OSM   H18T12151   0.250   0.892   8.296 -1.2266  0.4654  0.8747
  116OSM   H18U12152   0.240   0.708   8.331  1.8359  1.3065  0.5858
  116OSM    C1F12153   0.455   0.860   6.682 -0.3610 -0.0449  0.7798
  116OSM     OF12154   0.555   0.888   6.610  0.7114 -0.0831 -0.6326
  116OSM    C2F12155   0.467   0.754   6.783  0.2991 -0.1914  0.9509
  116OSM    H2F12156   0.557   0.690   6.769  0.9626  1.0591 -0.8106
  116OSM    H2G12157   0.376   0.690   6.778  0.2479 -0.0526 -0.0105
  116OSM    C3F12158   0.466   0.803   6.926 -0.2711  0.2456  0.5931
  116OSM    H3F12159   0.379   0.873   6.929  0.7507  1.7612 -2.2126
  116OSM    H3G12160   0.560   0.862   6.935 -0.1679  0.2117 -0.2004
  116OSM    C4F12161   0.467   0.692   7.031  0.4051 -0.8696  0.1524
  116OSM    H4F12162   0.547   0.617   7.016  3.9790  2.2840  1.5745
  116OSM    H4G12163   0.371   0.635   7.033 -1.6588  2.2794  2.7932
  116OSM    C5F12164   0.464   0.758   7.176 -0.0446 -0.0796 -0.0028
  116OSM    H5F12165   0.375   0.825   7.178  0.4601  0.7726 -2.5808
  116OSM    H5G12166   0.552   0.822   7.195 -0.9496  1.5393 -0.9824
  116OSM    C6F12167   0.443   0.655   7.282 -0.4935 -0.0907  0.2054
  116OSM    H6F12168   0.533   0.591   7.288  2.0333  2.8822 -2.3145
  116OSM    H6G12169   0.363   0.590   7.243 -0.3872  0.2645 -0.6159
  116OSM    C7F12170   0.416   0.700   7.428  0.3101  0.3151  0.0815
  116OSM    H7F12171   0.401   0.608   7.489 -0.2241  1.0073  1.0211
  116OSM    H7G12172   0.323   0.758   7.414 -0.8600 -1.2179  1.2570
  116OSM    C8F12173   0.524   0.785   7.495  0.3021  0.1682  0.5261
  116OSM    H8F12174   0.482   0.826   7.590  2.6212 -1.1085  2.1807
  116OSM    H8G12175   0.555   0.867   7.426  0.6613 -0.7863 -0.4654
  116OSM    C9F12176   0.647   0.707   7.534  1.5069 -0.3847 -0.8738
  116OSM    H9F12177   0.716   0.699   7.448  1.4804 -3.0602 -0.7283
  116OSM   C10F12178   0.683   0.665   7.653 -0.1480  0.2253  0.3398
  116OSM   H10F12179   0.767   0.594   7.656 -0.8815 -0.6526  0.5584
  116OSM   C11F12180   0.602   0.680   7.778 -0.0644  0.1649 -0.1303
  116OSM   H11F12181   0.530   0.595   7.783  0.6397 -0.3822  1.4370
  116OSM   H11G12182   0.542   0.773   7.774  0.6058  0.6550  0.9783
  116OSM   C12F12183   0.695   0.674   7.894  0.5180  0.3198 -0.2482
  116OSM   H12F12184   0.783   0.739   7.875  0.7198  0.2645  0.4552
  116OSM   H12G12185   0.736   0.571   7.898  1.3897  0.6282 -0.7791
  116OSM   C13F12186   0.627   0.699   8.024  0.2966 -0.9599 -0.3709
  116OSM   H13F12187   0.545   0.628   8.048 -0.1010 -0.3018  0.2660
  116OSM   H13G12188   0.594   0.805   8.022  0.7752 -0.8171 -0.7331
  116OSM   C14F12189   0.732   0.697   8.144  0.2166 -0.6059  0.4502
  116OSM   H14F12190   0.820   0.758   8.114  0.3028 -1.7240 -1.7598
  116OSM   H14G12191   0.757   0.594   8.178  0.8327 -0.6352 -0.0868
  116OSM   C15F12192   0.682   0.767   8.277  0.3916 -0.6715  0.0964
  116OSM   H15F12193   0.630   0.862   8.254  2.0135 -0.0472 -1.1965
  116OSM   H15G12194   0.773   0.793   8.336  0.5656  2.5943 -1.4067
  116OSM   C16F12195   0.594   0.681   8.370 -0.3190 -0.0632  0.2353
  116OSM   H16F12196   0.644   0.586   8.398 -0.2647 -0.5003 -1.2974
  116OSM   H16G12197   0.499   0.646   8.325 -1.0529  1.4778  0.4989
  116OSM   C17F12198   0.547   0.755   8.501 -0.1089 -0.3216  0.1466
  116OSM   H17F12199   0.504   0.854   8.473  1.2831  0.0519 -0.8101
  116OSM   H17G12200   0.638   0.770   8.563  0.7720 -1.6824 -0.7578
  116OSM   C18F12201   0.442   0.664   8.570 -0.0409  0.0045 -0.5085
  116OSM   H18F12202   0.473   0.568   8.616 -0.4882  0.9235  1.8346
  116OSM   H18G12203   0.370   0.630   8.492  1.2016 -3.6285 -0.2704
  116OSM   H18H12204   0.378   0.715   8.645  0.4220  0.8468 -0.6723
  117OSM      N12205   4.085   1.855   6.302  0.3725 -0.0608 -0.8675
  117OSM    C1512206   3.969   1.811   6.224  0.7021  0.1160 -0.1933
  117OSM   H15A12207   3.896   1.890   6.216  0.0176 -0.5901 -1.2010
  117OSM   H15B12208   3.912   1.735   6.275  0.9285  1.6505  2.5220
  117OSM   H15C12209   3.985   1.778   6.122 -1.7476  0.8619 -0.8931
  117OSM    C1412210   4.048   1.874   6.449  0.5999 -0.0968  0.5482
  117OSM   H14A12211   4.134   1.900   6.510  0.5626  0.9703  0.1737
  117OSM   H14B12212   4.006   1.783   6.488 -1.0486  1.5930  2.9566
  117OSM   H14C12213   3.974   1.951   6.466  0.2742 -0.1072 -0.7219
  117OSM    C1312214   4.181   1.744   6.280 -0.2204 -0.3289  0.3324
  117OSM   H13A12215   4.205   1.753   6.175  1.5119  0.1373  0.7381
  117OSM   H13B12216   4.127   1.653   6.302 -1.6091  0.7915  1.7767
  117OSM   H13C12217   4.266   1.755   6.345 -0.7584 -0.8840  1.1397
  117OSM    C1212218   4.152   1.973   6.234  0.2217 -0.2081 -0.1750
  117OSM   H12A12219   4.139   1.974   6.127 -0.6489 -0.0307 -0.0763
  117OSM   H12B12220   4.258   1.968   6.252  0.4605  2.8622 -0.1078
  117OSM    C1112221   4.112   2.113   6.288  0.5725 -0.4081 -1.1678
  117OSM   H11A12222   4.180   2.190   6.247 -2.0700  2.1431 -1.1224
  117OSM   H11B12223   4.130   2.124   6.397  0.5580  1.6822 -1.3466
  117OSM      P12224   3.873   2.195   6.350 -0.2443  0.1949  0.0290
  117OSM    O1312225   3.910   2.336   6.383 -0.2821  0.5669 -0.4715
  117OSM    O1412226   3.746   2.193   6.273  0.2224  0.3202 -0.2985
  117OSM    O1112227   3.877   2.106   6.483 -0.4315 -0.2836  0.3029
  117OSM    O1212228   3.977   2.139   6.248  0.2305 -0.2622  0.0396
  117OSM    C1S12229   3.761   2.039   6.531  0.3964  0.1780 -0.4058
  117OSM    H1S12230   3.739   1.943   6.479 -2.6728  1.2610 -1.3122
  117OSM    H1T12231   3.670   2.093   6.499 -0.7563 -1.8055 -0.6725
  117OSM     NF12232   3.666   1.906   6.717  0.0539 -0.1430  0.5472
  117OSM    HNF12233   3.578   1.922   6.761  0.6774  1.0724  1.4237
  117OSM    C2S12234   3.759   2.012   6.687  0.4265  0.4683  0.3536
  117OSM    H2S12235   3.863   1.976   6.705  0.5243  0.0053 -0.9817
  117OSM    C3S12236   3.737   2.145   6.763 -0.6370 -0.1629 -0.7774
  117OSM    H3S12237   3.636   2.183   6.737 -0.6070  1.6124  1.4378
  117OSM     O312238   3.812   2.256   6.720  0.1529  0.0858  0.2769
  117OSM    HO312239   3.821   2.231   6.627 -1.7846 -0.8173  0.2759
  117OSM    C4S12240   3.751   2.130   6.912 -0.6623 -0.1682 -0.8061
  117OSM    H4S12241   3.647   2.124   6.946 -0.6159  0.8114 -0.4588
  117OSM    C5S12242   3.857   2.118   6.992 -0.0287 -0.5186 -0.0174
  117OSM    H5S12243   3.957   2.120   6.946 -0.3578 -3.9258 -1.1120
  117OSM    C6S12244   3.853   2.100   7.141 -0.1527  0.0076 -0.2690
  117OSM    H6S12245   3.913   2.175   7.196  0.6448 -0.8113 -0.0020
  117OSM    H6T12246   3.897   2.003   7.171  1.3627  0.2621 -1.5877
  117OSM    C7S12247   3.709   2.115   7.200 -0.1774  0.4869  0.2234
  117OSM    H7S12248   3.642   2.049   7.140 -2.5149  1.3717  1.7137
  117OSM    H7T12249   3.669   2.217   7.184  1.8075  0.8957 -3.2047
  117OSM    C8S12250   3.691   2.082   7.350  0.0602  0.1965  0.0015
  117OSM    H8S12251   3.712   1.974   7.368 -2.5618 -0.1671  1.3290
  117OSM    H8T12252   3.593   2.109   7.393  1.1123  0.1346  2.6786
  117OSM    C9S12253   3.788   2.167   7.438 -0.0682 -0.0058  1.1945
  117OSM    H9S12254   3.770   2.276   7.427 -3.7170 -0.5056  0.7314
  117OSM    H9T12255   3.891   2.150   7.402 -0.7732 -0.1804 -0.8940
  117OSM   C10S12256   3.775   2.139   7.588 -1.0554  0.2702 -0.1045
  117OSM   H10S12257   3.778   2.028   7.597 -0.2396  0.2510 -0.4785
  117OSM   H10T12258   3.668   2.158   7.607 -1.4397 -1.0466 -0.8104
  117OSM   C11S12259   3.863   2.218   7.684  0.7383  0.9607  0.7875
  117OSM   H11S12260   3.893   2.309   7.629  2.0566  0.2350  0.2649
  117OSM   H11T12261   3.950   2.152   7.702 -1.8465 -3.7295 -2.1098
  117OSM   C12S12262   3.783   2.248   7.809 -0.6716 -0.0796  0.9935
  117OSM   H12S12263   3.692   2.306   7.780 -0.3320  0.8385  1.7120
  117OSM   H12T12264   3.838   2.316   7.878  2.0291 -1.4630  0.3422
  117OSM   C13S12265   3.750   2.116   7.882 -0.1619 -0.1477 -0.1064
  117OSM   H13S12266   3.847   2.086   7.927  1.3034  1.5050 -1.9545
  117OSM   H13T12267   3.718   2.049   7.800  0.7892  1.5118 -1.9083
  117OSM   C14S12268   3.640   2.128   7.991 -0.1249  0.5935  0.7659
  117OSM   H14S12269   3.541   2.147   7.943 -0.1040 -0.1011  0.4397
  117OSM   H14T12270   3.671   2.218   8.048  0.6201  0.3707  0.7186
  117OSM   C15S12271   3.625   2.015   8.080 -0.0183 -0.5613 -0.7757
  117OSM   H15S12272   3.720   1.996   8.133 -0.6986 -0.0514  0.6744
  117OSM   H15T12273   3.590   1.936   8.010  1.3562  0.4082 -2.6527
  117OSM   C16S12274   3.514   2.048   8.179 -0.2956 -0.1634  0.6892
  117OSM   H16S12275   3.480   1.946   8.207  2.6068 -1.0175  1.4820
  117OSM   H16T12276   3.437   2.113   8.132  0.6235  0.6914  0.3148
  117OSM   C17S12277   3.561   2.110   8.313 -0.5018  0.3203 -0.3016
  117OSM   H17S12278   3.668   2.086   8.332 -0.5792 -0.6990 -1.0514
  117OSM   H17T12279   3.500   2.057   8.389 -0.3312 -0.2692 -0.5652
  117OSM   C18S12280   3.537   2.262   8.323 -0.0534  0.6464  0.7753
  117OSM   H18S12281   3.549   2.293   8.429 -0.3813  1.4283  0.5899
  117OSM   H18T12282   3.435   2.287   8.285  0.6084 -0.7044 -2.1786
  117OSM   H18U12283   3.613   2.312   8.259  2.9932 -1.6072  2.4021
  117OSM    C1F12284   3.699   1.773   6.693  0.6276 -0.3378  0.2051
  117OSM     OF12285   3.795   1.743   6.628 -0.3504  0.3259  0.8396
  117OSM    C2F12286   3.612   1.667   6.752 -0.5397 -0.0135  0.7182
  117OSM    H2F12287   3.574   1.596   6.676 -1.1891  0.3157  0.7189
  117OSM    H2G12288   3.517   1.708   6.795 -0.8380  1.9647 -1.6116
  117OSM    C3F12289   3.672   1.594   6.867 -0.0936 -0.0868 -0.6789
  117OSM    H3F12290   3.750   1.526   6.828 -0.0915  0.5217 -1.7556
  117OSM    H3G12291   3.590   1.528   6.903 -0.5147  0.5183 -0.5155
  117OSM    C4F12292   3.734   1.683   6.974 -0.1920 -0.1173  0.1306
  117OSM    H4F12293   3.696   1.787   6.986  0.4178  0.0996  0.1792
  117OSM    H4G12294   3.842   1.690   6.953 -0.4146  0.2632 -0.9327
  117OSM    C5F12295   3.728   1.601   7.109  0.1471 -0.5088 -0.3557
  117OSM    H5F12296   3.783   1.506   7.095 -0.9432 -1.4824  1.5031
  117OSM    H5G12297   3.619   1.591   7.129 -0.4307  2.6187 -1.3710
  117OSM    C6F12298   3.792   1.683   7.228  0.3834 -0.7153 -0.4052
  117OSM    H6F12299   3.755   1.787   7.234  2.3485  0.0106 -0.1241
  117OSM    H6G12300   3.896   1.697   7.192  0.6959 -0.8573  0.4380
  117OSM    C7F12301   3.788   1.613   7.360 -0.6595 -0.5097  0.4086
  117OSM    H7F12302   3.805   1.503   7.351 -1.0142 -0.4449 -1.4414
  117OSM    H7G12303   3.687   1.617   7.406 -0.5626 -0.3653  0.6132
  117OSM    C8F12304   3.871   1.677   7.475 -0.0607 -0.6744  0.3552
  117OSM    H8F12305   3.837   1.781   7.494  1.2856 -0.5570  2.5192
  117OSM    H8G12306   3.975   1.680   7.436 -0.4241 -1.9703 -0.7774
  117OSM    C9F12307   3.871   1.595   7.593  0.3789  0.2401  0.2178
  117OSM    H9F12308   3.868   1.488   7.569  0.8014 -0.1004  1.6350
  117OSM   C10F12309   3.890   1.634   7.720 -0.5058 -0.5143  0.3298
  117OSM   H10F12310   3.905   1.546   7.784 -0.6790 -2.1620 -1.7770
  117OSM   C11F12311   3.894   1.778   7.770 -0.4009  0.3616 -1.2441
  117OSM   H11F12312   3.792   1.816   7.792 -1.0024 -1.2211 -1.1993
  117OSM   H11G12313   3.937   1.842   7.690  2.1064 -2.0632 -2.0082
  117OSM   C12F12314   3.975   1.776   7.903  0.4346 -0.3832 -0.1240
  117OSM   H12F12315   3.974   1.882   7.935 -1.9625 -1.1168  2.7120
  117OSM   H12G12316   4.077   1.736   7.889  0.3989  0.0300 -1.8625
  117OSM   C13F12317   3.909   1.688   8.014 -0.1977 -0.0077  0.0538
  117OSM   H13F12318   3.904   1.583   7.976 -2.2066  0.1956 -0.3457
  117OSM   H13G12319   3.807   1.717   8.047  0.0472  0.2049  0.6171
  117OSM   C14F12320   3.991   1.696   8.144  0.0012  0.3685 -0.1790
  117OSM   H14F12321   4.006   1.806   8.149 -0.9636  0.4636  0.9755
  117OSM   H14G12322   4.089   1.649   8.118 -0.3808 -0.1376 -0.7448
  117OSM   C15F12323   3.927   1.625   8.259 -0.1994  0.3050 -0.8681
  117OSM   H15F12324   3.929   1.518   8.229  2.3666 -0.4028  1.4244
  117OSM   H15G12325   3.821   1.659   8.264 -0.1170  0.3693  1.6309
  117OSM   C16F12326   4.000   1.630   8.400  0.4331  0.4320  0.0184
  117OSM   H16F12327   3.941   1.549   8.448  0.7368 -1.1481 -2.1288
  117OSM   H16G12328   3.978   1.725   8.453 -0.3050  1.7792 -2.5224
  117OSM   C17F12329   4.149   1.605   8.403  0.4525  0.6972 -0.0776
  117OSM   H17F12330   4.180   1.526   8.331  0.0564  1.1686 -0.7781
  117OSM   H17G12331   4.203   1.691   8.359  0.1607  0.5485 -0.7343
  117OSM   C18F12332   4.219   1.571   8.541 -0.4771  0.5408 -0.0504
  117OSM   H18F12333   4.163   1.495   8.600  1.2166  0.4769  1.5542
  117OSM   H18G12334   4.215   1.660   8.608 -1.0875 -1.5280  2.8270
  117OSM   H18H12335   4.325   1.540   8.532 -0.1771  1.3392  0.6318
  118OSM      N12336   5.811   4.413   5.993 -0.0040 -0.1958  0.0679
  118OSM    C1512337   5.671   4.388   5.944 -0.8891 -0.4106 -0.4154
  118OSM   H15A12338   5.667   4.421   5.841  0.2898  1.1343 -0.0030
  118OSM   H15B12339   5.606   4.448   6.006 -0.7189  0.2014 -0.8214
  118OSM   H15C12340   5.648   4.283   5.955  0.3378 -0.5067  1.7274
  118OSM    C1412341   5.914   4.322   5.913  1.5846 -0.1283 -0.5907
  118OSM   H14A12342   5.943   4.371   5.821 -0.7494  0.8013 -0.8941
  118OSM   H14B12343   5.866   4.230   5.881  1.7764 -0.4752  0.1006
  118OSM   H14C12344   5.994   4.299   5.982  0.6578  1.0585  0.9446
  118OSM    C1312345   5.854   4.552   5.968  0.0812  0.5257 -0.2705
  118OSM   H13A12346   5.784   4.616   6.019 -2.0451 -2.1679  0.4563
  118OSM   H13B12347   5.863   4.583   5.865  0.0560 -0.4710 -0.5819
  118OSM   H13C12348   5.946   4.573   6.020 -0.7412  1.4319  0.8784
  118OSM    C1212349   5.822   4.387   6.144 -0.5381  1.0230 -0.2445
  118OSM   H12A12350   5.925   4.387   6.176 -0.8592  1.7098  0.8561
  118OSM   H12B12351   5.797   4.282   6.157 -0.2876  1.2361  2.4950
  118OSM    C1112352   5.740   4.471   6.240  0.0779 -0.4320 -0.2276
  118OSM   H11A12353   5.764   4.579   6.227  0.7596 -0.5477  0.0119
  118OSM   H11B12354   5.771   4.448   6.345  0.5040  0.0820 -0.2354
  118OSM      P12355   5.523   4.332   6.297 -0.0475  0.2436  0.2057
  118OSM    O1312356   5.375   4.340   6.285 -0.7321 -0.1185 -0.3105
  118OSM    O1412357   5.583   4.206   6.242 -0.5083  0.0358 -0.5866
  118OSM    O1112358   5.562   4.331   6.446 -0.5296  0.3834  0.3062
  118OSM    O1212359   5.597   4.459   6.226  0.0111  0.7169 -0.1461
  118OSM    C1S12360   5.539   4.440   6.534  0.2731 -0.0279  0.8729
  118OSM    H1S12361   5.431   4.465   6.523  0.2896 -0.9967 -2.7431
  118OSM    H1T12362   5.582   4.538   6.505 -0.6777  0.2248  0.2556
  118OSM     NF12363   5.522   4.520   6.759  0.2080 -0.0151 -0.6964
  118OSM    HNF12364   5.598   4.572   6.796  1.4550 -3.8453  2.7774
  118OSM    C2S12365   5.562   4.406   6.681 -1.0842  0.3613  0.4331
  118OSM    H2S12366   5.498   4.316   6.695 -0.4990 -0.6985 -2.7479
  118OSM    C3S12367   5.711   4.360   6.699  0.4524 -0.0705 -0.2535
  118OSM    H3S12368   5.773   4.449   6.677  0.2269  0.1614  0.0347
  118OSM     O312369   5.746   4.255   6.605 -0.0505  0.2714 -1.3086
  118OSM    HO312370   5.682   4.267   6.535 -1.2179 -0.0188 -0.3213
  118OSM    C4S12371   5.735   4.328   6.848  0.3708  0.0307  0.1263
  118OSM    H4S12372   5.681   4.240   6.887 -1.4050  0.8172 -0.4659
  118OSM    C5S12373   5.817   4.397   6.926  0.1431 -0.2335  0.1458
  118OSM    H5S12374   5.873   4.479   6.878  2.0676 -0.8286  1.2801
  118OSM    C6S12375   5.847   4.364   7.069  0.2284 -0.0927 -0.6366
  118OSM    H6S12376   5.927   4.287   7.073 -0.6957 -1.0406  0.7078
  118OSM    H6T12377   5.750   4.334   7.115 -0.2533  2.4262  0.1756
  118OSM    C7S12378   5.882   4.494   7.147  0.2655  0.0806  0.0370
  118OSM    H7S12379   5.791   4.556   7.132 -1.2251 -1.1253  3.1942
  118OSM    H7T12380   5.974   4.537   7.102  0.3134 -0.7614 -0.6916
  118OSM    C8S12381   5.897   4.463   7.293 -0.5865  0.6116  0.1340
  118OSM    H8S12382   5.944   4.548   7.348  1.1263 -2.0458  3.1685
  118OSM    H8T12383   5.968   4.378   7.307 -1.9930 -0.8436 -1.2386
  118OSM    C9S12384   5.768   4.428   7.369  0.2180  0.9517  0.3431
  118OSM    H9S12385   5.724   4.337   7.323  2.3922  1.2959 -2.6446
  118OSM    H9T12386   5.694   4.508   7.347 -0.8548 -0.0035  0.3938
  118OSM   C10S12387   5.791   4.408   7.517  0.2414 -0.3334  0.1023
  118OSM   H10S12388   5.693   4.392   7.566  0.5406 -0.3620  0.7013
  118OSM   H10T12389   5.839   4.501   7.556 -0.3417  0.3009 -0.6507
  118OSM   C11S12390   5.887   4.286   7.547 -0.3916 -0.4220 -0.0445
  118OSM   H11S12391   5.985   4.338   7.558  0.1133 -1.6338  1.6964
  118OSM   H11T12392   5.893   4.222   7.457 -0.7068  0.5658 -0.7886
  118OSM   C12S12393   5.874   4.210   7.673  0.2795  0.4077 -0.3384
  118OSM   H12S12394   5.931   4.116   7.655 -2.0224 -1.2358  0.3559
  118OSM   H12T12395   5.768   4.179   7.684  0.7856 -1.4052 -0.2303
  118OSM   C13S12396   5.926   4.296   7.793  0.4244 -0.6223  0.1281
  118OSM   H13S12397   5.863   4.386   7.807  1.5252  0.2991 -0.6607
  118OSM   H13T12398   6.031   4.322   7.765  0.2875 -1.2993 -1.0883
  118OSM   C14S12399   5.930   4.228   7.933  0.1233 -0.1012 -0.3498
  118OSM   H14S12400   5.995   4.139   7.921  0.5215  0.2151 -0.5839
  118OSM   H14T12401   5.825   4.201   7.957  0.8284 -2.0262  0.7429
  118OSM   C15S12402   6.010   4.320   8.033 -0.1513 -0.5035  0.0455
  118OSM   H15S12403   5.949   4.411   8.052  0.2027 -0.2710  0.0842
  118OSM   H15T12404   6.107   4.348   7.987  0.3955  0.3982  1.6347
  118OSM   C16S12405   6.032   4.252   8.175 -0.0705  0.2109  0.1435
  118OSM   H16S12406   6.083   4.155   8.156  1.1051  0.1460  3.1524
  118OSM   H16T12407   5.932   4.235   8.221 -0.3443  0.2065 -0.4407
  118OSM   C17S12408   6.121   4.347   8.264 -0.5225  1.0362 -0.2543
  118OSM   H17S12409   6.070   4.445   8.276 -0.3828  1.0717  0.0691
  118OSM   H17T12410   6.211   4.361   8.201 -2.0007  1.2379 -2.4158
  118OSM   C18S12411   6.160   4.280   8.400 -0.2014  0.2193 -0.0238
  118OSM   H18S12412   6.069   4.268   8.463  0.8420 -1.5294  1.2344
  118OSM   H18T12413   6.241   4.324   8.462  2.7730 -1.4084 -2.4733
  118OSM   H18U12414   6.192   4.176   8.379 -2.3991 -0.5697  0.1940
  118OSM    C1F12415   5.390   4.538   6.792 -0.4419 -0.6516  0.1288
  118OSM     OF12416   5.308   4.462   6.742  0.2478 -0.2300  0.1320
  118OSM    C2F12417   5.342   4.643   6.877 -0.4538 -0.9468 -1.4051
  118OSM    H2F12418   5.410   4.731   6.873  0.1977 -1.4155 -0.8766
  118OSM    H2G12419   5.348   4.609   6.983  0.8175  1.2067 -0.7116
  118OSM    C3F12420   5.196   4.679   6.856 -0.5569 -0.4101 -0.0568
  118OSM    H3F12421   5.125   4.617   6.914 -1.2405 -0.1548 -0.6067
  118OSM    H3G12422   5.163   4.665   6.751 -1.9184 -0.4909  0.3652
  118OSM    C4F12423   5.161   4.830   6.873 -0.5479  0.5845 -0.7563
  118OSM    H4F12424   5.053   4.846   6.852 -0.6029  0.7379 -0.3854
  118OSM    H4G12425   5.217   4.879   6.791  1.3560 -2.3371 -1.3569
  118OSM    C5F12426   5.205   4.885   7.008  0.1410 -0.1440 -0.0904
  118OSM    H5F12427   5.216   4.995   7.010 -1.6973  0.0621  0.1873
  118OSM    H5G12428   5.310   4.855   7.028  0.3859 -1.4099 -2.8390
  118OSM    C6F12429   5.131   4.821   7.127  0.4625  0.0181  0.2881
  118OSM    H6F12430   5.117   4.712   7.115  1.4817 -0.1067  0.2334
  118OSM    H6G12431   5.028   4.864   7.136  0.6260  0.3651  0.5288
  118OSM    C7F12432   5.204   4.835   7.261 -0.5215 -0.4509  0.1904
  118OSM    H7F12433   5.225   4.939   7.292  0.9476 -0.3477 -1.0488
  118OSM    H7G12434   5.308   4.796   7.253 -1.0427 -2.0548  0.7699
  118OSM    C8F12435   5.134   4.766   7.380  0.4147 -0.2017  0.5836
  118OSM    H8F12436   5.114   4.658   7.363  0.5449 -0.5648  2.5379
  118OSM    H8G12437   5.030   4.805   7.388  0.0515 -1.0527  0.1749
  118OSM    C9F12438   5.206   4.798   7.507 -0.3191  0.4857 -0.0184
  118OSM    H9F12439   5.314   4.776   7.510 -0.2588  0.8574  0.8161
  118OSM   C10F12440   5.149   4.829   7.624  0.0781  0.2725 -0.4026
  118OSM   H10F12441   5.215   4.829   7.712 -0.7641 -2.4715  0.3319
  118OSM   C11F12442   4.997   4.848   7.649  0.4706  0.5114 -0.0587
  118OSM   H11F12443   4.952   4.757   7.605  1.7656  1.0447 -2.6577
  118OSM   H11G12444   4.963   4.939   7.597  2.2486  0.9885 -0.4536
  118OSM   C12F12445   4.957   4.856   7.798 -0.7683  0.2424  0.9587
  118OSM   H12F12446   4.846   4.863   7.802 -0.9568 -1.8418  5.6904
  118OSM   H12G12447   4.994   4.948   7.848 -0.0937  0.6715 -0.2837
  118OSM   C13F12448   5.008   4.738   7.888  0.3350 -0.9336  0.7941
  118OSM   H13F12449   5.114   4.740   7.919 -0.0381  1.2656  2.1674
  118OSM   H13G12450   4.995   4.651   7.820  0.3824 -0.6105  0.3686
  118OSM   C14F12451   4.918   4.721   8.011  0.4800  0.7558 -0.6604
  118OSM   H14F12452   4.812   4.712   7.979  0.0763  0.5124  0.6555
  118OSM   H14G12453   4.924   4.814   8.071 -0.8990  0.7902 -0.5389
  118OSM   C15F12454   4.953   4.608   8.103 -0.0847 -0.1280  0.2111
  118OSM   H15F12455   4.954   4.510   8.051 -1.2547 -0.2932  0.4528
  118OSM   H15G12456   4.880   4.609   8.187 -0.1590  0.8474  0.1481
  118OSM   C16F12457   5.095   4.620   8.168  0.0718 -0.8178  0.1735
  118OSM   H16F12458   5.108   4.723   8.206  1.0793 -0.9673  0.2683
  118OSM   H16G12459   5.163   4.625   8.080  0.8755  1.1934  0.8533
  118OSM   C17F12460   5.139   4.516   8.275 -0.2787 -0.0957  0.1077
  118OSM   H17F12461   5.235   4.543   8.323  1.1169 -2.3660 -1.2088
  118OSM   H17G12462   5.161   4.414   8.237  1.7914  0.1528  0.5291
  118OSM   C18F12463   5.046   4.495   8.395 -0.0081  0.3664  0.2201
  118OSM   H18F12464   5.091   4.425   8.469  0.3896 -1.0950 -1.3345
  118OSM   H18G12465   4.953   4.442   8.364 -0.0721 -0.0482  1.0840
  118OSM   H18H12466   5.035   4.597   8.436  1.1021 -0.0272  1.5895
  119OSM      N12467   2.449   2.104   6.170 -0.2970 -0.1809  0.2615
  119OSM    C1512468   2.553   2.008   6.205  0.2336  0.5131 -0.5415
  119OSM   H15A12469   2.655   2.030   6.173  1.1248 -0.9585  1.1305
  119OSM   H15B12470   2.522   1.906   6.191 -1.6794  0.6943  1.8604
  119OSM   H15C12471   2.555   2.008   6.313  1.6980  0.3938 -0.5371
  119OSM    C1412472   2.410   2.090   6.026 -0.2064 -0.1158  0.0028
  119OSM   H14A12473   2.331   2.158   5.997 -0.3238 -0.9936 -1.9275
  119OSM   H14B12474   2.372   1.991   6.004  0.8477 -0.7570  0.9513
  119OSM   H14C12475   2.493   2.116   5.962 -0.6315  1.9719  0.2518
  119OSM    C1312476   2.328   2.070   6.244  0.1027 -0.1964  0.2477
  119OSM   H13A12477   2.302   1.967   6.221  0.8493 -0.4225  0.4028
  119OSM   H13B12478   2.239   2.124   6.214 -1.0224 -2.4962 -0.8103
  119OSM   H13C12479   2.338   2.081   6.351  3.1684 -0.6497  0.0955
  119OSM    C1212480   2.469   2.252   6.207 -0.3284  0.3811  0.2448
  119OSM   H12A12481   2.496   2.256   6.311 -1.5455 -1.5356  0.6961
  119OSM   H12B12482   2.374   2.303   6.195 -1.0560 -1.1015 -0.5324
  119OSM    C1112483   2.565   2.325   6.116 -0.2027  0.3163 -0.8528
  119OSM   H11A12484   2.529   2.321   6.011 -1.6170 -1.0325 -0.3568
  119OSM   H11B12485   2.661   2.270   6.117  0.9060  2.1477 -1.7075
  119OSM      P12486   2.452   2.571   6.128  0.1365  0.4269  0.2678
  119OSM    O1312487   2.501   2.687   6.049  0.7149  0.2690  0.0879
  119OSM    O1412488   2.335   2.496   6.078  0.5143  0.3470 -0.1620
  119OSM    O1112489   2.408   2.631   6.270  0.0785 -0.3078  0.6205
  119OSM    O1212490   2.568   2.461   6.158 -0.2361 -0.0049 -0.1724
  119OSM    C1S12491   2.515   2.676   6.359  0.2545  0.7016  0.2458
  119OSM    H1S12492   2.512   2.787   6.350  3.0095  0.8836  0.6702
  119OSM    H1T12493   2.616   2.642   6.327 -0.7697 -1.1704 -1.2316
  119OSM     NF12494   2.581   2.719   6.607  0.5017  0.0327 -0.1910
  119OSM    HNF12495   2.656   2.665   6.643  0.6839 -0.0267 -0.6449
  119OSM    C2S12496   2.485   2.650   6.517 -0.2450 -0.7347 -0.1381
  119OSM    H2S12497   2.393   2.709   6.536  0.9821  1.4039 -0.5169
  119OSM    C3S12498   2.483   2.499   6.535  0.0724 -0.5035 -0.0699
  119OSM    H3S12499   2.586   2.460   6.517  0.4118 -0.0663  0.8588
  119OSM     O312500   2.391   2.429   6.458 -0.1506 -0.3424  0.0543
  119OSM    HO312501   2.364   2.497   6.395  0.1887 -1.4111 -1.2998
  119OSM    C4S12502   2.453   2.462   6.678 -0.6540 -0.3364  0.6419
  119OSM    H4S12503   2.375   2.522   6.725  0.0575  0.5627  0.7087
  119OSM    C5S12504   2.527   2.367   6.745 -0.8924  0.5147 -0.2194
  119OSM    H5S12505   2.615   2.308   6.714 -0.0736 -0.1378  2.9874
  119OSM    C6S12506   2.494   2.333   6.888 -0.4148  0.6613 -0.3545
  119OSM    H6S12507   2.414   2.395   6.931  0.6665  1.3504  0.7279
  119OSM    H6T12508   2.582   2.370   6.945 -0.3727 -0.4001  0.2915
  119OSM    C7S12509   2.467   2.189   6.930 -0.4597 -0.2358  0.7340
  119OSM    H7S12510   2.542   2.130   6.873 -0.7816 -1.6888  1.7707
  119OSM    H7T12511   2.361   2.162   6.913  0.3592 -1.9979 -2.3935
  119OSM    C8S12512   2.503   2.167   7.075 -0.2038  0.2830 -0.0351
  119OSM    H8S12513   2.597   2.220   7.101 -0.8009  0.2780  2.3095
  119OSM    H8T12514   2.514   2.058   7.093 -2.7823 -0.1066 -0.5046
  119OSM    C9S12515   2.400   2.222   7.175 -0.3851  0.3867 -0.0089
  119OSM    H9S12516   2.305   2.164   7.163 -0.7852  1.1142 -0.4134
  119OSM    H9T12517   2.385   2.331   7.158 -1.5012  0.1242 -0.8522
  119OSM   C10S12518   2.449   2.188   7.311  0.6949  0.4104 -0.3340
  119OSM   H10S12519   2.497   2.282   7.346 -2.0043  1.0478  2.0433
  119OSM   H10T12520   2.520   2.105   7.330 -0.1077 -0.4332 -0.9142
  119OSM   C11S12521   2.335   2.180   7.423 -0.1305  0.5027  0.5867
  119OSM   H11S12522   2.257   2.113   7.380  1.1557 -0.5788 -0.1555
  119OSM   H11T12523   2.294   2.280   7.445  0.4822  0.1903  3.5792
  119OSM   C12S12524   2.367   2.123   7.563 -0.3689  0.3376  0.2493
  119OSM   H12S12525   2.427   2.205   7.608 -0.2268 -0.0190  0.7162
  119OSM   H12T12526   2.436   2.037   7.550 -1.9479 -0.9734  0.1987
  119OSM   C13S12527   2.256   2.073   7.656  0.2022 -0.4407  0.4295
  119OSM   H13S12528   2.206   1.980   7.623  1.2097 -2.0731  3.1424
  119OSM   H13T12529   2.188   2.160   7.664  1.9657  1.0538 -0.2482
  119OSM   C14S12530   2.306   2.052   7.799  0.0512 -0.3084  0.7283
  119OSM   H14S12531   2.416   2.067   7.804 -0.0047  1.7137 -1.9032
  119OSM   H14T12532   2.284   1.949   7.834 -0.0897 -0.1055  1.2508
  119OSM   C15S12533   2.241   2.146   7.900 -0.7226  1.0390  0.0136
  119OSM   H15S12534   2.130   2.147   7.898 -0.7828 -0.9301 -0.2317
  119OSM   H15T12535   2.274   2.251   7.887 -1.1685  1.3716  1.4616
  119OSM   C16S12536   2.281   2.127   8.050  0.6583 -0.0311 -0.1092
  119OSM   H16S12537   2.392   2.127   8.049  0.6928  1.0113  0.8529
  119OSM   H16T12538   2.255   2.026   8.089  1.3840 -1.1910 -2.4660
  119OSM   C17S12539   2.218   2.247   8.126 -0.2035  0.1951  0.3669
  119OSM   H17S12540   2.196   2.216   8.230 -1.1929  1.1270  0.4540
  119OSM   H17T12541   2.121   2.271   8.077  1.5305 -1.3092 -4.3720
  119OSM   C18S12542   2.302   2.366   8.121 -0.0805 -0.4111 -0.2246
  119OSM   H18S12543   2.249   2.444   8.181 -1.1494 -2.3167  1.4186
  119OSM   H18T12544   2.328   2.412   8.024 -0.1588 -0.7717 -0.4171
  119OSM   H18U12545   2.400   2.360   8.174  0.7052  1.3939 -1.3907
  119OSM    C1F12546   2.577   2.855   6.622 -0.0369  0.0195  0.0309
  119OSM     OF12547   2.479   2.919   6.584  0.2518  0.8933 -0.1177
  119OSM    C2F12548   2.705   2.919   6.666 -0.1692  0.4573 -0.3925
  119OSM    H2F12549   2.742   2.969   6.574  0.9743 -2.5197 -1.6937
  119OSM    H2G12550   2.777   2.836   6.682  0.0142  0.7014  0.0893
  119OSM    C3F12551   2.707   3.012   6.790 -0.1209 -0.3587  0.2074
  119OSM    H3F12552   2.641   3.097   6.765  0.7172  0.0924 -0.5131
  119OSM    H3G12553   2.815   3.037   6.799  0.6245 -3.4278  0.9702
  119OSM    C4F12554   2.656   2.940   6.918  0.0805 -0.6108 -0.3953
  119OSM    H4F12555   2.687   2.835   6.903 -0.2804 -0.8429  0.4618
  119OSM    H4G12556   2.545   2.941   6.918  0.0750 -1.0391 -0.9082
  119OSM    C5F12557   2.731   2.992   7.042 -0.1702 -1.0966 -0.5940
  119OSM    H5F12558   2.730   3.103   7.040  0.6153 -1.0955 -1.3683
  119OSM    H5G12559   2.837   2.961   7.039  0.8750  2.0205  0.2176
  119OSM    C6F12560   2.679   2.940   7.175  0.0828 -0.4033 -0.5975
  119OSM    H6F12561   2.684   2.829   7.168 -1.1082 -0.5097 -0.0203
  119OSM    H6G12562   2.574   2.977   7.179 -0.7958 -2.7479 -0.2588
  119OSM    C7F12563   2.763   2.981   7.299  0.4952 -0.3322  0.2566
  119OSM    H7F12564   2.768   3.092   7.293  1.0567 -0.4516 -2.1921
  119OSM    H7G12565   2.864   2.936   7.288  0.0765 -1.0467 -0.7818
  119OSM    C8F12566   2.698   2.935   7.427 -0.0792 -0.5258  0.4272
  119OSM    H8F12567   2.696   2.824   7.429  0.9804 -0.6427 -1.7020
  119OSM    H8G12568   2.591   2.960   7.413  0.1111  0.2086  0.2364
  119OSM    C9F12569   2.758   2.999   7.553 -0.1335  0.6090  0.1795
  119OSM    H9F12570   2.747   3.108   7.551 -1.7748  0.4834 -2.0771
  119OSM   C10F12571   2.829   2.947   7.657 -0.4741  0.5583  0.1293
  119OSM   H10F12572   2.849   3.009   7.745 -0.6406 -1.8915  2.0028
  119OSM   C11F12573   2.868   2.804   7.692  0.2365  0.9118 -0.5183
  119OSM   H11F12574   2.974   2.782   7.669  0.3154 -0.1036  0.6941
  119OSM   H11G12575   2.803   2.730   7.640 -0.0071  1.3675 -0.8788
  119OSM   C12F12576   2.857   2.778   7.843  0.1481  0.2211 -0.0114
  119OSM   H12F12577   2.927   2.840   7.903 -1.3481  1.5785  0.4306
  119OSM   H12G12578   2.876   2.670   7.859 -1.0881 -0.3232 -1.9017
  119OSM   C13F12579   2.717   2.809   7.899  0.4253  0.4846 -0.0078
  119OSM   H13F12580   2.641   2.760   7.834 -0.2247 -0.7079  1.6080
  119OSM   H13G12581   2.695   2.918   7.902 -0.7147  0.2346  1.1111
  119OSM   C14F12582   2.701   2.754   8.042  0.4505  0.8342  0.0689
  119OSM   H14F12583   2.711   2.644   8.036 -0.0622  0.8246 -0.7071
  119OSM   H14G12584   2.602   2.785   8.082  0.8116 -1.3931  2.9837
  119OSM   C15F12585   2.803   2.814   8.150  0.2929  0.4219 -0.1264
  119OSM   H15F12586   2.907   2.783   8.126  1.5164  2.1637  2.4256
  119OSM   H15G12587   2.787   2.756   8.244 -0.9041 -2.4286 -1.9550
  119OSM   C16F12588   2.789   2.969   8.169  0.7186  0.2504 -0.1768
  119OSM   H16F12589   2.683   2.995   8.152  0.9239 -0.1572 -2.2958
  119OSM   H16G12590   2.847   3.008   8.083  0.9832  0.4600  0.0919
  119OSM   C17F12591   2.848   3.035   8.293  0.0528  0.2672 -0.2540
  119OSM   H17F12592   2.958   3.038   8.276  0.4918 -1.2665  1.8784
  119OSM   H17G12593   2.842   2.973   8.385 -1.3958 -1.1138 -1.2371
  119OSM   C18F12594   2.792   3.170   8.323  0.2416  0.1102  0.5197
  119OSM   H18F12595   2.774   3.215   8.222  0.4770 -1.2777 -0.1671
  119OSM   H18G12596   2.861   3.227   8.389 -0.9965  2.2848  0.0386
  119OSM   H18H12597   2.701   3.149   8.381  1.0563 -3.2572  0.7903
  120OSM      N12598   6.656   1.224   6.294  0.3387 -0.2686 -0.5459
  120OSM    C1512599   6.736   1.311   6.390  0.0632  0.1815 -0.2357
  120OSM   H15A12600   6.670   1.367   6.454  1.4491  0.6104  0.8577
  120OSM   H15B12601   6.797   1.381   6.335  3.7375 -2.0185  0.6584
  120OSM   H15C12602   6.792   1.240   6.449 -2.4616 -1.9622 -0.2299
  120OSM    C1412603   6.590   1.312   6.191 -0.9685  0.0559 -0.2797
  120OSM   H14A12604   6.539   1.247   6.121 -0.2820 -0.9754  0.1442
  120OSM   H14B12605   6.648   1.389   6.144 -0.3281 -0.2480  0.0003
  120OSM   H14C12606   6.518   1.370   6.247 -1.1784 -0.7482  0.3023
  120OSM    C1312607   6.742   1.130   6.232  0.1790 -0.1475  0.8830
  120OSM   H13A12608   6.685   1.078   6.156 -0.4357 -1.4596  2.1984
  120OSM   H13B12609   6.787   1.051   6.290  0.2406 -3.2423 -2.9956
  120OSM   H13C12610   6.823   1.177   6.180  0.1774 -0.9914  0.0993
  120OSM    C1212611   6.548   1.149   6.376 -0.1632 -0.0223 -0.1013
  120OSM   H12A12612   6.488   1.223   6.426  0.6181  1.2641 -0.9882
  120OSM   H12B12613   6.603   1.095   6.451 -2.9809 -0.8244  1.5264
  120OSM    C1112614   6.461   1.046   6.297 -0.8591 -0.0505  0.3526
  120OSM   H11A12615   6.413   1.100   6.212  0.8411  1.2858  0.1894
  120OSM   H11B12616   6.378   1.001   6.355 -0.3504 -0.3701  0.8356
  120OSM      P12617   6.584   0.818   6.342  0.0380 -0.3382 -0.0728
  120OSM    O1312618   6.469   0.725   6.349 -0.5197 -0.4151  0.4127
  120OSM    O1412619   6.710   0.765   6.282  0.9128 -0.0309  0.8196
  120OSM    O1112620   6.605   0.877   6.487  0.1860  0.5797 -0.4481
  120OSM    O1212621   6.547   0.944   6.251  0.8610 -0.1267  0.2978
  120OSM    C1S12622   6.552   0.794   6.599  0.0100 -0.4128  0.1742
  120OSM    H1S12623   6.587   0.689   6.596  1.1035 -0.0369 -0.4229
  120OSM    H1T12624   6.442   0.783   6.582 -0.0809 -0.8696  0.9748
  120OSM     NF12625   6.457   0.815   6.824  0.4170 -0.2911 -0.3672
  120OSM    HNF12626   6.382   0.873   6.856  1.0985 -1.4410  3.8325
  120OSM    C2S12627   6.559   0.860   6.740  0.1056 -0.0544 -0.2781
  120OSM    H2S12628   6.655   0.816   6.778  0.7494 -0.9248 -2.7297
  120OSM    C3S12629   6.570   1.014   6.732 -0.3329  0.5465  0.6561
  120OSM    H3S12630   6.490   1.060   6.669  0.1674 -0.0460 -0.4425
  120OSM     O312631   6.684   1.082   6.675 -0.3671  0.1724 -0.0251
  120OSM    HO312632   6.727   1.010   6.628 -0.8666 -1.7529  2.2939
  120OSM    C4S12633   6.562   1.070   6.870 -0.4425 -0.4751  0.5369
  120OSM    H4S12634   6.617   1.013   6.946  0.0450  2.6998  2.7561
  120OSM    C5S12635   6.502   1.184   6.907 -0.3977  1.2164 -0.5248
  120OSM    H5S12636   6.446   1.233   6.826 -2.3198 -1.0604 -0.6889
  120OSM    C6S12637   6.497   1.238   7.045  0.0648  0.2868  0.2375
  120OSM    H6S12638   6.398   1.215   7.090 -0.3088  0.8674 -0.2621
  120OSM    H6T12639   6.510   1.348   7.050 -0.5183  0.3636  0.1881
  120OSM    C7S12640   6.599   1.184   7.148  0.3293  0.0676 -0.3826
  120OSM    H7S12641   6.697   1.221   7.110 -0.1799  1.1667 -0.6497
  120OSM    H7T12642   6.603   1.073   7.152 -0.7118  0.0351 -0.1416
  120OSM    C8S12643   6.566   1.232   7.292 -0.6324  0.1658  0.6633
  120OSM    H8S12644   6.456   1.217   7.305 -0.6279 -0.8367 -0.3066
  120OSM    H8T12645   6.577   1.343   7.291 -2.6311  0.5190 -3.0653
  120OSM    C9S12646   6.656   1.159   7.390 -0.4046 -0.4389 -0.4121
  120OSM    H9S12647   6.759   1.200   7.377  0.1886 -2.0127 -0.9440
  120OSM    H9T12648   6.653   1.048   7.380 -0.2995 -0.5556  0.7194
  120OSM   C10S12649   6.602   1.189   7.533  0.0250  0.1559  0.2018
  120OSM   H10S12650   6.661   1.129   7.606  0.4320  0.8352  0.4445
  120OSM   H10T12651   6.497   1.152   7.532 -0.3275 -0.0422  6.2084
  120OSM   C11S12652   6.590   1.330   7.586 -0.0291 -0.1526  0.4109
  120OSM   H11S12653   6.507   1.388   7.538  1.3493 -0.1625 -2.1276
  120OSM   H11T12654   6.673   1.394   7.548 -1.2298  0.3040 -1.5856
  120OSM   C12S12655   6.582   1.326   7.736 -0.6587  0.1570  0.4027
  120OSM   H12S12656   6.502   1.259   7.774 -0.1073  0.5931  2.4482
  120OSM   H12T12657   6.564   1.432   7.762 -0.4693  0.3248 -0.1553
  120OSM   C13S12658   6.723   1.305   7.800  0.1596 -0.4080  0.5840
  120OSM   H13S12659   6.806   1.363   7.755 -2.0935  0.0264 -3.5173
  120OSM   H13T12660   6.741   1.197   7.778  2.1761  0.1304 -0.6099
  120OSM   C14S12661   6.738   1.332   7.948  1.1614  0.0728 -0.3547
  120OSM   H14S12662   6.713   1.441   7.944  0.3727  0.0377  2.2457
  120OSM   H14T12663   6.841   1.334   7.988 -0.2080  1.9903  3.6048
  120OSM   C15S12664   6.646   1.249   8.038  0.3898  0.4778  0.5938
  120OSM   H15S12665   6.693   1.149   8.043 -2.1269 -0.7725  0.9727
  120OSM   H15T12666   6.545   1.233   7.994  1.2057 -1.4362 -0.7208
  120OSM   C16S12667   6.629   1.326   8.175  0.7244 -0.3876  0.1039
  120OSM   H16S12668   6.572   1.420   8.160  2.1801  0.1153 -3.0460
  120OSM   H16T12669   6.732   1.327   8.218  0.0861 -1.8033  1.8000
  120OSM   C17S12670   6.547   1.225   8.267  0.5936  0.1492 -0.0465
  120OSM   H17S12671   6.550   1.267   8.370 -1.3785 -3.7739  1.8409
  120OSM   H17T12672   6.606   1.131   8.267 -0.9586 -0.8675 -0.2266
  120OSM   C18S12673   6.397   1.196   8.227 -0.3430  0.6794  0.2003
  120OSM   H18S12674   6.385   1.133   8.135 -1.7865 -1.6136  1.8339
  120OSM   H18T12675   6.334   1.285   8.205  0.8975  0.9052 -3.0390
  120OSM   H18U12676   6.342   1.123   8.291 -3.0803  0.1532 -2.5063
  120OSM    C1F12677   6.447   0.691   6.863 -0.0763  0.1723 -0.4073
  120OSM     OF12678   6.526   0.603   6.834  0.3297  0.3426  0.7566
  120OSM    C2F12679   6.316   0.667   6.941 -0.2801  0.2238  0.2678
  120OSM    H2F12680   6.231   0.677   6.870  0.3606 -4.4207 -1.4732
  120OSM    H2G12681   6.314   0.753   7.012 -0.3964  0.9114 -0.5507
  120OSM    C3F12682   6.315   0.523   6.997  0.4425 -0.0227  0.3719
  120OSM    H3F12683   6.408   0.489   7.047  0.2433  0.9286  1.4286
  120OSM    H3G12684   6.297   0.449   6.916  2.4282 -0.4397  0.2499
  120OSM    C4F12685   6.187   0.510   7.089 -0.6028  0.0709  0.4237
  120OSM    H4F12686   6.104   0.496   7.016  1.9489 -1.9111 -2.3605
  120OSM    H4G12687   6.172   0.601   7.150  0.5708 -0.0730  0.9553
  120OSM    C5F12688   6.181   0.377   7.171  0.2099 -0.6133  0.0979
  120OSM    H5F12689   6.217   0.288   7.115 -0.3269 -2.1147  2.0638
  120OSM    H5G12690   6.077   0.357   7.202 -0.1409  0.9494  0.0399
  120OSM    C6F12691   6.268   0.374   7.294  0.2593  0.5320  0.0207
  120OSM    H6F12692   6.245   0.467   7.351 -0.1554  0.3051  0.2277
  120OSM    H6G12693   6.373   0.376   7.256 -0.5406  0.8789 -2.3619
  120OSM    C7F12694   6.251   0.245   7.388  0.2566  0.0099 -0.3069
  120OSM    H7F12695   6.338   0.244   7.456  1.1170  0.7045 -1.3611
  120OSM    H7G12696   6.262   0.150   7.332 -0.2979 -0.2050 -0.0583
  120OSM    C8F12697   6.114   0.233   7.463 -0.2293  0.0168 -0.5195
  120OSM    H8F12698   6.124   0.140   7.523 -1.8711  0.0007 -0.2428
  120OSM    H8G12699   6.034   0.244   7.387 -4.2081  0.8010  3.3939
  120OSM    C9F12700   6.104   0.342   7.568  0.4948  0.1964  0.4448
  120OSM    H9F12701   6.123   0.447   7.538  1.0683  0.5250  1.8671
  120OSM   C10F12702   6.101   0.329   7.703  0.2239  0.1064 -0.1004
  120OSM   H10F12703   6.101   0.426   7.756 -0.9610  0.2653 -0.3572
  120OSM   C11F12704   6.102   0.206   7.787  0.6350 -0.3774  0.1008
  120OSM   H11F12705   6.127   0.126   7.715  1.5663  0.0852 -0.0973
  120OSM   H11G12706   5.998   0.186   7.820  0.7452 -1.6978 -0.3165
  120OSM   C12F12707   6.211   0.209   7.894  0.3618  0.1666 -0.2217
  120OSM   H12F12708   6.304   0.239   7.841 -1.2707  1.4089 -2.5702
  120OSM   H12G12709   6.228   0.107   7.933  1.4386 -0.1148 -1.3664
  120OSM   C13F12710   6.173   0.292   8.010  0.1421  0.1711 -0.7311
  120OSM   H13F12711   6.149   0.397   7.982  0.3818  0.4305  0.0078
  120OSM   H13G12712   6.267   0.296   8.068 -0.2628 -0.8194  0.0308
  120OSM   C14F12713   6.069   0.221   8.104 -0.2652  0.3907 -0.2610
  120OSM   H14F12714   6.099   0.115   8.116  2.5924  1.2171  0.6287
  120OSM   H14G12715   5.966   0.234   8.064 -0.4007 -0.9442 -0.3672
  120OSM   C15F12716   6.054   0.273   8.252  0.1374 -0.1233 -1.3665
  120OSM   H15F12717   6.004   0.198   8.316 -1.2237 -0.8823 -3.2185
  120OSM   H15G12718   5.978   0.353   8.236 -2.4212 -2.1518 -0.1905
  120OSM   C16F12719   6.188   0.315   8.322  0.2415 -0.5040  0.1624
  120OSM   H16F12720   6.234   0.391   8.254  1.2387 -0.4223  0.9024
  120OSM   H16G12721   6.256   0.227   8.314  1.0007  0.1745 -1.2996
  120OSM   C17F12722   6.172   0.372   8.466 -0.1077  0.0587  0.0929
  120OSM   H17F12723   6.070   0.411   8.486 -0.9585 -1.1206 -1.6486
  120OSM   H17G12724   6.244   0.456   8.474 -0.6261  0.6662 -1.3436
  120OSM   C18F12725   6.209   0.268   8.568  0.2308  0.2907  0.2274
  120OSM   H18F12726   6.187   0.302   8.672 -1.1294 -1.4309  0.5664
  120OSM   H18G12727   6.311   0.227   8.555  1.2801  2.3462  1.4828
  120OSM   H18H12728   6.142   0.181   8.551  0.6023  0.2392 -0.9919
  121OSM      N12729   6.779   3.091   6.261  0.2530  0.6677 -0.3676
  121OSM    C1512730   6.798   3.095   6.405  0.3843  0.2527 -0.5195
  121OSM   H15A12731   6.780   3.000   6.454 -5.8270  0.6898 -1.2652
  121OSM   H15B12732   6.737   3.161   6.464 -1.1368 -1.9699  0.5260
  121OSM   H15C12733   6.902   3.107   6.434  0.4994 -2.6489  0.5736
  121OSM    C1412734   6.633   3.086   6.237  0.1479 -0.2882 -0.2547
  121OSM   H14A12735   6.616   3.078   6.131 -1.9680  0.2425 -0.0013
  121OSM   H14B12736   6.583   3.176   6.268  1.0829  0.0254  0.3994
  121OSM   H14C12737   6.597   2.998   6.286 -1.4543  0.2561 -0.3905
  121OSM    C1312738   6.834   3.213   6.197 -0.2864  0.2733 -0.2933
  121OSM   H13A12739   6.797   3.298   6.252 -0.0692  0.4532 -0.4228
  121OSM   H13B12740   6.794   3.224   6.097 -0.5631  0.4432 -0.1665
  121OSM   H13C12741   6.942   3.210   6.188 -0.2362  2.3622 -1.1166
  121OSM    C1212742   6.847   2.965   6.194  0.4935  0.3149 -0.2773
  121OSM   H12A12743   6.827   2.968   6.088 -0.3948 -0.0100 -0.1288
  121OSM   H12B12744   6.781   2.883   6.219 -0.2548  0.7313 -0.8146
  121OSM    C1112745   6.983   2.935   6.240 -0.9699  0.1581  0.5633
  121OSM   H11A12746   6.991   2.923   6.350 -1.8910  0.6445  0.6979
  121OSM   H11B12747   7.056   3.013   6.211 -0.1819 -0.5803  0.5329
  121OSM      P12748   7.158   2.746   6.220 -0.1260 -0.0549 -0.0847
  121OSM    O1312749   7.165   2.602   6.184 -0.5478 -0.0164 -0.5592
  121OSM    O1412750   7.266   2.829   6.167  0.2370 -0.8936 -0.2927
  121OSM    O1112751   7.160   2.755   6.382  0.2969  0.4705  0.0992
  121OSM    O1212752   7.020   2.804   6.181  0.6702 -0.1206 -0.0422
  121OSM    C1S12753   7.075   2.687   6.465 -0.1084 -0.2209 -0.7061
  121OSM    H1S12754   7.042   2.588   6.426 -1.6799  0.6366 -1.6426
  121OSM    H1T12755   6.983   2.748   6.481  0.1310  0.0031 -0.1661
  121OSM     NF12756   7.092   2.560   6.674  0.9022 -0.1802 -0.2470
  121OSM    HNF12757   7.028   2.597   6.741  0.0139 -1.4616 -0.3493
  121OSM    C2S12758   7.155   2.662   6.596  0.1553  0.6043 -0.0227
  121OSM    H2S12759   7.258   2.627   6.572  0.3935  0.0702  1.5777
  121OSM    C3S12760   7.160   2.791   6.671 -0.1587  0.4741  0.1610
  121OSM    H3S12761   7.055   2.800   6.705 -0.4200 -2.1364  0.1976
  121OSM     O312762   7.177   2.905   6.590  0.0884  0.4342 -0.3938
  121OSM    HO312763   7.178   2.873   6.500  0.6486 -0.7337  0.0108
  121OSM    C4S12764   7.250   2.779   6.790  0.4096  0.2397 -0.3295
  121OSM    H4S12765   7.208   2.752   6.887  1.3194  1.4891  0.4516
  121OSM    C5S12766   7.381   2.808   6.794 -0.8763 -0.1452 -0.3720
  121OSM    H5S12767   7.441   2.842   6.708  1.3640 -0.1842  1.0845
  121OSM    C6S12768   7.472   2.803   6.913 -1.0960 -0.5831 -0.2312
  121OSM    H6S12769   7.540   2.890   6.903 -2.1878  0.2094 -1.1422
  121OSM    H6T12770   7.537   2.713   6.910 -3.3541 -2.3227 -1.2863
  121OSM    C7S12771   7.392   2.787   7.043  0.4994  0.1361  0.3918
  121OSM    H7S12772   7.476   2.771   7.113  2.4575 -1.4337 -2.1123
  121OSM    H7T12773   7.320   2.704   7.059 -0.1193  0.9829  2.2523
  121OSM    C8S12774   7.329   2.915   7.086  0.0180 -0.8011 -0.4613
  121OSM    H8S12775   7.252   2.938   7.009 -1.8062 -1.2677  1.1632
  121OSM    H8T12776   7.409   2.992   7.090  1.9080 -2.6182 -1.4779
  121OSM    C9S12777   7.274   2.933   7.229  0.4252  0.3941 -0.0299
  121OSM    H9S12778   7.261   2.833   7.277  2.3051  0.6156  1.0233
  121OSM    H9T12779   7.176   2.984   7.216 -0.2945  0.0552  3.1878
  121OSM   C10S12780   7.354   3.021   7.330  0.8975 -0.0670 -0.3271
  121OSM   H10S12781   7.377   3.109   7.265 -1.0300  0.4339 -0.3896
  121OSM   H10T12782   7.443   2.966   7.367 -1.0865 -0.8536  3.7815
  121OSM   C11S12783   7.261   3.066   7.440  0.1026  0.2287 -0.8417
  121OSM   H11S12784   7.216   2.974   7.484  1.9702 -0.7459 -0.8518
  121OSM   H11T12785   7.183   3.137   7.407  0.9049  2.1756  1.1805
  121OSM   C12S12786   7.325   3.134   7.556 -0.3062  1.1704 -0.0467
  121OSM   H12S12787   7.330   3.245   7.549 -0.9199  1.4007  2.2643
  121OSM   H12T12788   7.431   3.105   7.574 -0.5208  0.6724  0.4723
  121OSM   C13S12789   7.260   3.096   7.693 -0.7160 -0.4561  0.1347
  121OSM   H13S12790   7.272   2.986   7.708 -0.8735 -0.4369  0.4192
  121OSM   H13T12791   7.152   3.120   7.682 -0.5107 -0.3073 -1.9057
  121OSM   C14S12792   7.309   3.175   7.811  0.2016 -0.1732  0.2067
  121OSM   H14S12793   7.298   3.284   7.790  1.2650 -0.4951 -2.5188
  121OSM   H14T12794   7.416   3.155   7.832 -0.7229 -1.4116  4.7038
  121OSM   C15S12795   7.226   3.158   7.936  0.2371  0.3739 -0.4942
  121OSM   H15S12796   7.214   3.048   7.948  1.0778  0.5368  2.6960
  121OSM   H15T12797   7.123   3.194   7.913 -0.0724  0.6744  1.1784
  121OSM   C16S12798   7.303   3.223   8.050 -0.1497  0.5988 -0.4916
  121OSM   H16S12799   7.319   3.330   8.022  0.3130  0.4853 -0.6678
  121OSM   H16T12800   7.396   3.164   8.061 -0.0327  0.8272 -0.2264
  121OSM   C17S12801   7.223   3.235   8.181 -0.2010  0.1668  0.1104
  121OSM   H17S12802   7.162   3.143   8.188 -2.0016  1.2073 -1.3276
  121OSM   H17T12803   7.151   3.319   8.178 -0.2780  0.0906 -0.2235
  121OSM   C18S12804   7.309   3.242   8.308 -0.7647 -0.2855  0.6922
  121OSM   H18S12805   7.380   3.327   8.303  1.2701 -1.7845  2.0017
  121OSM   H18T12806   7.365   3.146   8.317 -1.1649 -0.6757 -0.8151
  121OSM   H18U12807   7.249   3.257   8.401 -1.1719 -1.1630  0.5849
  121OSM    C1F12808   7.083   2.432   6.636 -0.3548  0.6745  0.4070
  121OSM     OF12809   7.155   2.383   6.547  0.5937 -0.5233  0.2047
  121OSM    C2F12810   6.992   2.344   6.718 -0.2860 -0.2682 -0.1348
  121OSM    H2F12811   6.908   2.320   6.649  0.9061 -3.2589 -0.6854
  121OSM    H2G12812   6.951   2.397   6.807 -3.2684 -0.0705 -1.5008
  121OSM    C3F12813   7.063   2.219   6.762  0.0490  0.5390  0.3663
  121OSM    H3F12814   7.136   2.259   6.836  0.3277  0.7220 -0.0062
  121OSM    H3G12815   7.115   2.177   6.674  1.7881  1.7045  0.7882
  121OSM    C4F12816   6.976   2.099   6.817  0.5533  0.4397  0.6769
  121OSM    H4F12817   7.040   2.020   6.860 -1.0992 -0.4910  1.5238
  121OSM    H4G12818   6.928   2.050   6.729  2.1990 -1.1228  0.6092
  121OSM    C5F12819   6.870   2.130   6.916  0.5175 -0.2748 -0.7203
  121OSM    H5F12820   6.819   2.032   6.927 -0.3187  0.0930 -1.2993
  121OSM    H5G12821   6.797   2.206   6.881 -0.9909 -1.1904  0.2999
  121OSM    C6F12822   6.926   2.175   7.045 -0.2482  0.9059 -0.2119
  121OSM    H6F12823   6.959   2.281   7.039 -1.0917  1.1188 -1.6264
  121OSM    H6G12824   7.010   2.114   7.086 -1.1784  0.0529  0.4622
  121OSM    C7F12825   6.815   2.169   7.151  0.6419 -0.0754  0.5206
  121OSM    H7F12826   6.790   2.062   7.162 -0.5699  0.1638  0.1955
  121OSM    H7G12827   6.732   2.214   7.092  0.3503 -1.3795 -0.0791
  121OSM    C8F12828   6.845   2.245   7.278  0.4851 -0.0845 -0.3945
  121OSM    H8F12829   6.754   2.266   7.337  2.4736 -0.8796  3.2723
  121OSM    H8G12830   6.897   2.339   7.249  0.3299 -0.0193 -0.4590
  121OSM    C9F12831   6.945   2.186   7.373  0.3610 -0.2707 -0.0200
  121OSM    H9F12832   7.045   2.158   7.338  1.0883  0.5805  1.2802
  121OSM   C10F12833   6.937   2.166   7.510 -0.0504 -0.0632 -0.0629
  121OSM   H10F12834   7.019   2.117   7.565  0.0217 -1.8925 -1.6952
  121OSM   C11F12835   6.821   2.203   7.600 -0.5312  0.5983 -0.1739
  121OSM   H11F12836   6.799   2.126   7.677 -2.6570  0.3057 -1.0102
  121OSM   H11G12837   6.725   2.214   7.546  0.7874 -0.0431 -2.8404
  121OSM   C12F12838   6.855   2.334   7.676  0.5720  0.0474  0.9218
  121OSM   H12F12839   6.765   2.377   7.725  1.2693  2.0994  0.4792
  121OSM   H12G12840   6.869   2.412   7.598 -2.5835 -0.8836 -0.7713
  121OSM   C13F12841   6.968   2.329   7.785 -0.0659 -0.0309 -0.3299
  121OSM   H13F12842   6.940   2.416   7.848 -2.4309 -1.7908  1.2653
  121OSM   H13G12843   7.063   2.341   7.730  1.1006 -1.7682  1.1817
  121OSM   C14F12844   6.978   2.202   7.871 -0.5877 -0.6235 -0.0574
  121OSM   H14F12845   6.985   2.112   7.808  0.8029 -0.3195 -0.3693
  121OSM   H14G12846   6.886   2.178   7.930 -0.7174 -1.4766 -0.5951
  121OSM   C15F12847   7.096   2.209   7.964  0.6203 -0.1276  0.2092
  121OSM   H15F12848   7.055   2.233   8.065  0.6812  0.0662  0.1890
  121OSM   H15G12849   7.175   2.277   7.927  1.8449 -1.5873  0.0810
  121OSM   C16F12850   7.162   2.071   7.981  0.1044  0.5535 -0.2780
  121OSM   H16F12851   7.216   2.038   7.889  1.2199  0.7880  0.2680
  121OSM   H16G12852   7.094   1.988   8.007  1.9647 -0.4994  1.5962
  121OSM   C17F12853   7.263   2.090   8.091 -0.1944 -0.1302 -0.2855
  121OSM   H17F12854   7.207   2.096   8.187  0.5750 -2.0761  0.3306
  121OSM   H17G12855   7.320   2.184   8.070  0.0251 -0.8243 -3.1976
  121OSM   C18F12856   7.359   1.977   8.120  0.1411  0.6715  0.3374
  121OSM   H18F12857   7.309   1.889   8.165  2.1866 -0.7871 -0.1389
  121OSM   H18G12858   7.439   2.019   8.185  1.0716  0.7681 -0.8376
  121OSM   H18H12859   7.400   1.944   8.023  0.8222  1.9446  0.1710
  122OSM      N12860   5.670   3.603   6.001 -0.3115  0.8547  0.2802
  122OSM    C1512861   5.566   3.557   6.093 -0.4330 -0.4207  0.3688
  122OSM   H15A12862   5.580   3.454   6.122  2.7702 -0.8093 -1.9919
  122OSM   H15B12863   5.470   3.577   6.047  0.2219 -0.9410 -1.3037
  122OSM   H15C12864   5.566   3.611   6.187  1.1899 -0.0999  0.2160
  122OSM    C1412865   5.643   3.538   5.864 -0.4101 -0.1871  0.0653
  122OSM   H14A12866   5.552   3.575   5.818  0.6258  1.9828 -0.3895
  122OSM   H14B12867   5.636   3.431   5.869 -0.7854 -0.3723 -2.7734
  122OSM   H14C12868   5.726   3.562   5.799 -0.9278 -1.0156 -0.9328
  122OSM    C1312869   5.635   3.750   5.985  0.2272  0.2837 -0.4250
  122OSM   H13A12870   5.731   3.790   5.954  0.7995 -0.5311  0.2434
  122OSM   H13B12871   5.604   3.792   6.080  0.9392  1.1531 -0.5633
  122OSM   H13C12872   5.557   3.757   5.911 -1.9372  2.4249  1.8277
  122OSM    C1212873   5.816   3.565   6.046 -0.5116  0.3754  0.5572
  122OSM   H12A12874   5.813   3.457   6.036 -2.5981  0.4426  0.0483
  122OSM   H12B12875   5.832   3.600   6.147 -1.5284  2.1336  0.1458
  122OSM    C1112876   5.923   3.639   5.969  0.2243  0.4067  1.3330
  122OSM   H11A12877   5.906   3.628   5.859  0.4175 -1.5096  1.4541
  122OSM   H11B12878   6.022   3.596   5.994  0.4915  0.6106  0.6545
  122OSM      P12879   5.997   3.832   6.122  0.1238  0.0509 -0.0979
  122OSM    O1312880   5.987   3.727   6.228  0.6836 -0.3683 -0.3198
  122OSM    O1412881   6.131   3.881   6.097 -0.1340 -0.6620  0.2331
  122OSM    O1112882   5.906   3.955   6.157  0.4569  0.5158 -0.0748
  122OSM    O1212883   5.931   3.772   5.993 -0.3844  0.0603 -0.3317
  122OSM    C1S12884   5.858   3.961   6.295  0.5048  0.3709 -0.5954
  122OSM    H1S12885   5.841   3.863   6.345  1.3980  0.4023 -0.2126
  122OSM    H1T12886   5.756   4.005   6.290 -0.3213 -1.5364 -3.1778
  122OSM     NF12887   5.881   4.017   6.531 -0.2639  0.2775  0.6057
  122OSM    HNF12888   5.820   4.087   6.568 -0.2808  2.4510 -3.0034
  122OSM    C2S12889   5.947   4.029   6.401  0.0455  0.1161 -0.2823
  122OSM    H2S12890   6.045   3.978   6.413  0.1971  0.9785  3.2662
  122OSM    C3S12891   5.974   4.178   6.362  0.0122 -0.3836  0.0973
  122OSM    H3S12892   5.883   4.241   6.370  1.2274  1.4917 -0.1916
  122OSM     O312893   6.020   4.194   6.235 -0.2409  0.1321  1.1126
  122OSM    HO312894   6.001   4.107   6.199  0.2940  0.5582 -0.2415
  122OSM    C4S12895   6.065   4.239   6.465 -0.2165 -0.1832 -0.3941
  122OSM    H4S12896   6.029   4.317   6.534 -1.3752 -0.6521 -0.4520
  122OSM    C5S12897   6.202   4.225   6.475 -0.0014  0.5106 -0.2388
  122OSM    H5S12898   6.256   4.149   6.417  2.7268  1.1523  1.2887
  122OSM    C6S12899   6.277   4.291   6.589 -0.3902  0.7419  0.1709
  122OSM    H6S12900   6.272   4.402   6.589  0.3629  0.8087  1.9189
  122OSM    H6T12901   6.382   4.260   6.570 -0.3510 -0.4014  2.0258
  122OSM    C7S12902   6.236   4.250   6.729 -0.1878  0.7307 -0.7211
  122OSM    H7S12903   6.139   4.297   6.756  1.0011  3.4220 -0.8734
  122OSM    H7T12904   6.296   4.306   6.805 -0.3367 -1.0660  0.7935
  122OSM    C8S12905   6.244   4.105   6.760  0.7980  0.4918 -0.5154
  122OSM    H8S12906   6.346   4.065   6.742  0.5108 -0.0142 -1.0662
  122OSM    H8T12907   6.176   4.043   6.697  1.2929 -0.7796  0.1695
  122OSM    C9S12908   6.218   4.085   6.908  0.7644  0.7802  0.4922
  122OSM    H9S12909   6.120   4.131   6.936  0.9618  0.9319  0.9484
  122OSM    H9T12910   6.302   4.136   6.960  1.0399  0.8206  0.0083
  122OSM   C10S12911   6.225   3.937   6.947  0.0226  0.8020 -0.2255
  122OSM   H10S12912   6.331   3.904   6.942  0.1185  0.9196  0.7950
  122OSM   H10T12913   6.176   3.872   6.871 -1.4902  0.0973  1.3064
  122OSM   C11S12914   6.184   3.917   7.095  0.1727  0.1568  0.1269
  122OSM   H11S12915   6.197   3.808   7.112 -2.1772 -0.4873 -1.7284
  122OSM   H11T12916   6.079   3.952   7.102  0.5182  0.9381  1.8497
  122OSM   C12S12917   6.263   4.011   7.192 -0.7412  0.5203 -0.7638
  122OSM   H12S12918   6.268   4.118   7.161  2.1281  0.4934 -0.5743
  122OSM   H12T12919   6.365   3.968   7.194 -0.9297  0.0833  0.8864
  122OSM   C13S12920   6.212   4.008   7.337 -0.3956  0.0110 -0.1432
  122OSM   H13S12921   6.221   3.901   7.364  1.5989 -0.1708 -1.3614
  122OSM   H13T12922   6.106   4.039   7.336 -0.1519  0.8863 -1.4954
  122OSM   C14S12923   6.286   4.103   7.432 -0.3341 -0.4286 -0.2055
  122OSM   H14S12924   6.250   4.206   7.412 -0.0028  0.1632  2.0054
  122OSM   H14T12925   6.397   4.097   7.430 -0.2653  0.7996 -1.9485
  122OSM   C15S12926   6.255   4.083   7.583  0.4940  0.3472 -0.0209
  122OSM   H15S12927   6.252   3.975   7.605  1.1232  0.3263 -0.0293
  122OSM   H15T12928   6.150   4.117   7.593  0.3774 -0.3438  1.2265
  122OSM   C16S12929   6.344   4.168   7.678 -0.5240 -0.3398  0.3724
  122OSM   H16S12930   6.335   4.271   7.637  1.0828 -0.4879 -0.4261
  122OSM   H16T12931   6.452   4.143   7.671 -0.6763 -1.0442  0.5055
  122OSM   C17S12932   6.317   4.155   7.831 -0.0640  0.3367 -0.2342
  122OSM   H17S12933   6.211   4.187   7.839  0.6254  2.9152 -0.4994
  122OSM   H17T12934   6.373   4.235   7.885  1.4809 -1.4854  0.9809
  122OSM   C18S12935   6.338   4.018   7.889  0.6048  0.1795 -0.5870
  122OSM   H18S12936   6.318   4.017   7.998  1.3421 -3.8198 -0.3267
  122OSM   H18T12937   6.441   3.976   7.885 -0.0071 -1.2898 -2.0528
  122OSM   H18U12938   6.264   3.947   7.846 -0.3684  0.4484  0.5935
  122OSM    C1F12939   5.892   3.905   6.599 -0.3745 -0.2076 -0.4129
  122OSM     OF12940   5.982   3.823   6.574  0.4176 -0.0529 -0.4001
  122OSM    C2F12941   5.784   3.879   6.703  0.0263 -0.7049  0.4933
  122OSM    H2F12942   5.754   3.772   6.696  0.6203 -0.8487  0.0484
  122OSM    H2G12943   5.694   3.940   6.681 -0.1885 -0.4032  2.1031
  122OSM    C3F12944   5.833   3.920   6.845  0.0443 -0.1170  0.0824
  122OSM    H3F12945   5.896   4.011   6.840  2.1781 -1.5854 -1.5438
  122OSM    H3G12946   5.893   3.843   6.899 -0.6136  0.1207  1.1944
  122OSM    C4F12947   5.722   3.947   6.949  0.8341  0.5583  0.3465
  122OSM    H4F12948   5.649   3.863   6.947  0.7859  0.6169 -1.5686
  122OSM    H4G12949   5.664   4.037   6.918 -1.9575 -1.1091  0.3580
  122OSM    C5F12950   5.784   3.965   7.086 -0.0845 -0.3762  0.2922
  122OSM    H5F12951   5.854   4.051   7.079  0.1284 -0.4892  0.9594
  122OSM    H5G12952   5.843   3.877   7.121  1.3158  0.7736  0.9663
  122OSM    C6F12953   5.686   4.014   7.195  0.7947 -0.4430 -0.1715
  122OSM    H6F12954   5.589   3.961   7.187 -0.6498  1.5568  2.4234
  122OSM    H6G12955   5.666   4.121   7.168  0.0327 -0.4387  0.3918
  122OSM    C7F12956   5.757   3.997   7.332 -0.0196 -0.4576  0.7076
  122OSM    H7F12957   5.711   4.074   7.397  3.0981  3.3128 -1.1047
  122OSM    H7G12958   5.857   4.044   7.317 -0.1911 -0.3818 -0.2593
  122OSM    C8F12959   5.764   3.853   7.383  0.1669 -0.4568  0.2146
  122OSM    H8F12960   5.794   3.778   7.306  2.2822 -0.0877  0.6441
  122OSM    H8G12961   5.657   3.833   7.409  0.1521 -1.7436 -0.6967
  122OSM    C9F12962   5.865   3.835   7.502 -0.0765  0.1271  0.3843
  122OSM    H9F12963   5.972   3.830   7.478  0.1023  1.7478  0.7338
  122OSM   C10F12964   5.841   3.837   7.632  0.0843  0.1982  0.8706
  122OSM   H10F12965   5.917   3.816   7.709 -0.6283  0.9889  1.8125
  122OSM   C11F12966   5.701   3.833   7.687  0.4961 -0.2832  0.0304
  122OSM   H11F12967   5.614   3.801   7.625 -1.9370  1.2847  2.3962
  122OSM   H11G12968   5.662   3.932   7.718 -0.3178  0.2002 -2.3270
  122OSM   C12F12969   5.702   3.737   7.811  0.3073  0.3700  0.1212
  122OSM   H12F12970   5.749   3.643   7.776 -1.5495 -1.0597  1.2374
  122OSM   H12G12971   5.597   3.703   7.828  0.7188 -1.1976 -0.3710
  122OSM   C13F12972   5.772   3.788   7.940  0.0439 -0.5030  0.1036
  122OSM   H13F12973   5.723   3.877   7.987  2.1963  0.9173 -0.2282
  122OSM   H13G12974   5.876   3.815   7.914  0.3988 -0.4269  1.5160
  122OSM   C14F12975   5.776   3.677   8.038 -0.2085 -0.4776 -0.4815
  122OSM   H14F12976   5.813   3.590   7.979 -0.9534 -0.5963 -0.7771
  122OSM   H14G12977   5.677   3.641   8.072  0.3816 -0.4831  1.3218
  122OSM   C15F12978   5.878   3.706   8.150  0.3449 -0.1525 -0.3049
  122OSM   H15F12979   5.978   3.723   8.105  2.5069 -2.0871  3.2436
  122OSM   H15G12980   5.885   3.616   8.215  2.0198  2.1643  3.0197
  122OSM   C16F12981   5.847   3.821   8.249  0.5814  1.2619  0.0784
  122OSM   H16F12982   5.741   3.801   8.276  1.3132 -0.0885  2.2593
  122OSM   H16G12983   5.854   3.921   8.202  0.5251  1.9379  1.4320
  122OSM   C17F12984   5.921   3.821   8.385  0.3895 -1.2502  0.0908
  122OSM   H17F12985   6.018   3.868   8.359  0.0498 -0.9326 -0.6398
  122OSM   H17G12986   5.936   3.714   8.412  0.8002 -1.4439 -0.8520
  122OSM   C18F12987   5.844   3.885   8.504 -0.0108 -0.3440 -0.3116
  122OSM   H18F12988   5.746   3.833   8.515  0.5230 -1.3493 -0.1073
  122OSM   H18G12989   5.838   3.995   8.491  1.7158 -0.2176 -0.3303
  122OSM   H18H12990   5.902   3.860   8.596  1.1185  0.9232 -0.6408
  123OSM      N12991   5.407   5.890   6.178 -1.0017  0.1979  0.2156
  123OSM    C1512992   5.427   5.771   6.088 -0.2343  0.5589 -0.2089
  123OSM   H15A12993   5.491   5.790   6.004  1.1688  2.0699  1.1393
  123OSM   H15B12994   5.328   5.738   6.059 -0.4156  1.6527 -0.8722
  123OSM   H15C12995   5.465   5.682   6.136 -0.0334 -0.0071 -1.4081
  123OSM    C1412996   5.550   5.938   6.200  0.5240 -0.4162 -0.6761
  123OSM   H14A12997   5.596   5.977   6.110  1.2967  0.9708  0.2763
  123OSM   H14B12998   5.608   5.855   6.237 -1.1925 -1.1732  0.3999
  123OSM   H14C12999   5.547   6.013   6.278  1.4897 -0.1766 -0.8586
  123OSM    C1313000   5.327   5.993   6.096  0.2784 -0.3399 -0.2837
  123OSM   H13A13001   5.295   6.079   6.154 -1.4526 -0.7698 -0.5727
  123OSM   H13B13002   5.238   5.947   6.057  0.1320  2.3021 -3.4334
  123OSM   H13C13003   5.380   6.023   6.007 -0.8002 -1.2522 -1.2542
  123OSM    C1213004   5.340   5.857   6.308  0.3587  0.3067 -0.6062
  123OSM   H12A13005   5.252   5.796   6.298  1.1069 -1.1422  1.1229
  123OSM   H12B13006   5.295   5.946   6.347 -0.4139  0.3392 -1.5434
  123OSM    C1113007   5.426   5.780   6.416 -0.4221  0.0261  0.2239
  123OSM   H11A13008   5.356   5.747   6.495  0.4658  0.6516  1.2998
  123OSM   H11B13009   5.493   5.855   6.463 -0.5079  1.2280 -1.4719
  123OSM      P13010   5.628   5.618   6.441  0.3717 -0.0041  0.5778
  123OSM    O1313011   5.622   5.469   6.446 -0.3156 -0.1496 -0.2064
  123OSM    O1413012   5.756   5.677   6.396 -0.3890 -0.3731 -0.1627
  123OSM    O1113013   5.598   5.671   6.590 -0.0678  0.5696 -0.3482
  123OSM    O1213014   5.503   5.676   6.359  0.3587  0.0507  0.0042
  123OSM    C1S13015   5.511   5.593   6.671  0.5409 -0.1796 -0.1905
  123OSM    H1S13016   5.553   5.490   6.676  0.4363 -0.2329 -0.3960
  123OSM    H1T13017   5.409   5.587   6.629 -0.2397  0.7801  1.4466
  123OSM     NF13018   5.399   5.560   6.895  0.3615 -0.2618  0.2049
  123OSM    HNF13019   5.308   5.601   6.897  0.7185  0.7280 -1.4037
  123OSM    C2S13020   5.503   5.638   6.826  0.3636  0.1094 -0.1940
  123OSM    H2S13021   5.599   5.613   6.876 -0.6202 -2.2862  0.6224
  123OSM    C3S13022   5.476   5.793   6.838  0.1015  0.2345 -0.3489
  123OSM    H3S13023   5.375   5.809   6.795 -1.9243  0.5051  4.0330
  123OSM     O313024   5.575   5.864   6.767 -0.0256 -0.1564 -0.1544
  123OSM    HO313025   5.604   5.794   6.708  0.2752  1.8128 -2.5226
  123OSM    C4S13026   5.475   5.842   6.978 -0.6182  0.0667  0.7872
  123OSM    H4S13027   5.580   5.841   7.010 -0.4518 -2.5600  0.3825
  123OSM    C5S13028   5.380   5.896   7.056 -0.4189 -0.1337 -0.3025
  123OSM    H5S13029   5.274   5.894   7.027 -1.3161 -1.1007  2.7104
  123OSM    C6S13030   5.400   5.954   7.195  0.0720 -1.0119 -0.4781
  123OSM    H6S13031   5.316   6.017   7.229  0.8574 -0.9719  1.5158
  123OSM    H6T13032   5.483   6.028   7.187 -2.9296  2.5020 -1.9695
  123OSM    C7S13033   5.422   5.854   7.306 -0.6420 -0.1246  0.8856
  123OSM    H7S13034   5.509   5.796   7.267 -0.3471  0.4646  0.6587
  123OSM    H7T13035   5.326   5.798   7.301 -0.8034  0.2637 -2.4326
  123OSM    C8S13036   5.452   5.924   7.438 -0.2350  0.0558  0.3764
  123OSM    H8S13037   5.364   5.980   7.476 -0.0097  0.7622 -0.1254
  123OSM    H8T13038   5.533   6.000   7.433 -1.4658  1.5211  1.9045
  123OSM    C9S13039   5.492   5.819   7.546 -0.3366  0.4012  0.3982
  123OSM    H9S13040   5.584   5.775   7.501 -0.3058  1.5501 -0.7137
  123OSM    H9T13041   5.405   5.751   7.549 -0.9705  1.1168 -0.8830
  123OSM   C10S13042   5.533   5.891   7.667 -1.1007 -0.1202 -0.8302
  123OSM   H10S13043   5.472   5.983   7.681 -0.9955 -0.3103  1.1080
  123OSM   H10T13044   5.639   5.925   7.660 -1.5055  1.1835 -1.0083
  123OSM   C11S13045   5.525   5.801   7.792 -0.6159  0.4915  0.2119
  123OSM   H11S13046   5.585   5.708   7.782 -1.1207  0.3605 -2.0043
  123OSM   H11T13047   5.421   5.767   7.809 -0.5498  0.3905  0.4252
  123OSM   C12S13048   5.572   5.864   7.930 -0.0421  0.0743  0.1598
  123OSM   H12S13049   5.540   5.795   8.011  0.9081  0.8884  1.2632
  123OSM   H12T13050   5.514   5.957   7.950 -0.4850  0.0709 -1.0039
  123OSM   C13S13051   5.726   5.872   7.948  0.4133 -1.0405 -0.0162
  123OSM   H13S13052   5.754   5.963   7.890  1.4834 -1.2103  0.2225
  123OSM   H13T13053   5.767   5.779   7.904 -0.7795 -1.0168 -1.2557
  123OSM   C14S13054   5.763   5.889   8.095  0.0500  0.3457 -0.3755
  123OSM   H14S13055   5.694   5.971   8.122 -0.2957  0.4322 -1.4742
  123OSM   H14T13056   5.870   5.917   8.106 -0.0299  0.2766  0.6580
  123OSM   C15S13057   5.759   5.761   8.185 -0.7676 -0.1083 -0.3721
  123OSM   H15S13058   5.836   5.684   8.160 -2.1381 -0.9952 -2.1788
  123OSM   H15T13059   5.663   5.714   8.157 -1.2071  1.4635 -1.7014
  123OSM   C16S13060   5.765   5.796   8.333  0.2396 -0.2505  0.0136
  123OSM   H16S13061   5.667   5.837   8.365  0.9482 -0.3747  2.5156
  123OSM   H16T13062   5.837   5.881   8.329 -2.3935  2.0510 -1.3927
  123OSM   C17S13063   5.815   5.679   8.419  0.0052 -0.1026  0.4544
  123OSM   H17S13064   5.890   5.623   8.359 -0.8023  0.5630 -1.2460
  123OSM   H17T13065   5.732   5.608   8.441  1.0714 -1.0385  1.6156
  123OSM   C18S13066   5.880   5.725   8.552  0.3724 -0.8602 -0.1524
  123OSM   H18S13067   5.809   5.778   8.619 -0.6467 -2.3375  0.0006
  123OSM   H18T13068   5.965   5.793   8.535 -0.4791  1.2621  3.1659
  123OSM   H18U13069   5.920   5.644   8.616  2.0911  0.5089  0.5762
  123OSM    C1F13070   5.406   5.437   6.918 -0.3429  0.3517  0.2174
  123OSM     OF13071   5.509   5.371   6.894  0.1848  0.0767  0.3988
  123OSM    C2F13072   5.281   5.372   6.970 -0.1268  0.3564 -0.1162
  123OSM    H2F13073   5.225   5.319   6.889  0.8097 -1.5151  0.3964
  123OSM    H2G13074   5.226   5.462   7.005 -0.4866  0.0605  0.0895
  123OSM    C3F13075   5.306   5.300   7.102  0.1806 -0.2822 -0.5208
  123OSM    H3F13076   5.380   5.218   7.093 -1.1972 -1.4284 -1.8127
  123OSM    H3G13077   5.212   5.251   7.135  0.8226 -1.7155 -0.7659
  123OSM    C4F13078   5.338   5.404   7.210 -0.2021  0.7523  0.1444
  123OSM    H4F13079   5.245   5.461   7.228 -1.7371 -1.7906  0.7822
  123OSM    H4G13080   5.429   5.462   7.181 -0.6530  1.0575 -0.6659
  123OSM    C5F13081   5.384   5.327   7.336 -0.0087 -0.0793  0.1167
  123OSM    H5F13082   5.477   5.278   7.300  1.2992  2.6048 -0.4205
  123OSM    H5G13083   5.301   5.258   7.360  1.6295 -1.1979  3.0944
  123OSM    C6F13084   5.424   5.421   7.444  0.0641 -0.3815  0.3827
  123OSM    H6F13085   5.344   5.497   7.459  2.0988  2.3278 -1.5092
  123OSM    H6G13086   5.522   5.469   7.423  0.0202 -0.0391  0.9348
  123OSM    C7F13087   5.455   5.342   7.572  1.4796 -0.4689 -0.4236
  123OSM    H7F13088   5.542   5.275   7.552  0.3675 -1.6074 -1.6028
  123OSM    H7G13089   5.364   5.281   7.588  0.6121  0.1103 -2.7633
  123OSM    C8F13090   5.476   5.430   7.691 -0.6555  0.0520 -0.4198
  123OSM    H8F13091   5.383   5.488   7.707  0.4486  1.6266  0.5631
  123OSM    H8G13092   5.564   5.495   7.674  0.3330 -1.3012 -0.6130
  123OSM    C9F13093   5.482   5.341   7.817 -0.1699 -0.0442 -0.1390
  123OSM    H9F13094   5.550   5.254   7.818  0.2448  0.2727  1.0462
  123OSM   C10F13095   5.426   5.364   7.940 -0.3693 -0.7157 -0.4104
  123OSM   H10F13096   5.439   5.289   8.019  1.4595 -0.8930 -0.8517
  123OSM   C11F13097   5.335   5.479   7.968 -0.2848 -0.2590  0.2073
  123OSM   H11F13098   5.360   5.566   7.904  0.2197 -0.5431  0.0188
  123OSM   H11G13099   5.332   5.529   8.068 -0.4297  2.0571 -0.8755
  123OSM   C12F13100   5.187   5.440   7.940  0.3857  0.1775 -0.2130
  123OSM   H12F13101   5.185   5.387   7.842  2.9642 -1.9065  0.7383
  123OSM   H12G13102   5.123   5.531   7.939  0.5910  0.4138  2.1248
  123OSM   C13F13103   5.120   5.349   8.044  0.2498 -0.0567  0.1145
  123OSM   H13F13104   5.103   5.399   8.141  0.8758 -0.5016  0.4635
  123OSM   H13G13105   5.186   5.260   8.057  0.5675  0.2124  0.3625
  123OSM   C14F13106   4.984   5.295   7.987 -0.0394 -0.4947  0.4578
  123OSM   H14F13107   4.946   5.218   8.058 -3.0262  2.1132  1.9383
  123OSM   H14G13108   4.998   5.247   7.889 -1.0079 -1.9569  1.0048
  123OSM   C15F13109   4.872   5.395   7.985  0.0905 -0.4554 -0.4453
  123OSM   H15F13110   4.778   5.351   7.946  0.9228 -3.2124  0.4235
  123OSM   H15G13111   4.901   5.481   7.920 -2.5111  1.7332  1.0860
  123OSM   C16F13112   4.832   5.445   8.130  0.1522  0.1634 -0.2980
  123OSM   H16F13113   4.751   5.521   8.125  0.7335  0.7587 -0.7628
  123OSM   H16G13114   4.918   5.493   8.182  0.2454 -1.0908  0.7779
  123OSM   C17F13115   4.788   5.339   8.228 -0.1040 -0.1607 -0.6597
  123OSM   H17F13116   4.754   5.390   8.320  0.4409 -1.2045  0.1439
  123OSM   H17G13117   4.879   5.282   8.256 -0.0085 -0.2366 -1.1190
  123OSM   C18F13118   4.677   5.250   8.177 -0.4066  0.7746 -0.5542
  123OSM   H18F13119   4.714   5.194   8.089 -2.3710  0.4099 -1.1913
  123OSM   H18G13120   4.590   5.312   8.149 -0.1567  0.9924 -0.8548
  123OSM   H18H13121   4.638   5.179   8.254 -1.2743 -0.3607 -2.0035
  124OSM      N13122   5.678   2.802   6.011  0.0396 -0.9624 -0.5529
  124OSM    C1513123   5.722   2.670   5.966  0.4456  0.0294 -0.1973
  124OSM   H15A13124   5.684   2.596   6.034 -3.0014 -1.0562 -3.0202
  124OSM   H15B13125   5.829   2.655   5.960  0.3599 -0.9568  0.5162
  124OSM   H15C13126   5.683   2.641   5.869  1.7807 -0.0541 -0.7289
  124OSM    C1413127   5.725   2.902   5.917  0.0475  0.6370  0.3634
  124OSM   H14A13128   5.688   2.880   5.818  1.0266 -0.4796  0.2257
  124OSM   H14B13129   5.833   2.906   5.906  0.1063 -0.0084  0.7088
  124OSM   H14C13130   5.707   3.002   5.953 -0.6802  0.9614 -0.8111
  124OSM    C1313131   5.529   2.800   6.021 -0.6076  0.0164  1.2122
  124OSM   H13A13132   5.484   2.885   6.070 -0.3960  0.9229 -0.0991
  124OSM   H13B13133   5.499   2.708   6.069 -0.7124 -1.2250 -1.0854
  124OSM   H13C13134   5.488   2.807   5.921 -0.6553 -0.2251  1.2158
  124OSM    C1213135   5.729   2.823   6.155  0.2652 -0.1748  0.0958
  124OSM   H12A13136   5.836   2.829   6.142  0.0506 -0.0352 -1.8230
  124OSM   H12B13137   5.692   2.740   6.214  0.2087 -1.9217 -2.2483
  124OSM    C1113138   5.687   2.956   6.232 -0.6308  0.1045 -0.1058
  124OSM   H11A13139   5.768   2.967   6.308 -0.7705  0.5617 -0.0207
  124OSM   H11B13140   5.586   2.929   6.270 -0.3891 -0.5022  0.1352
  124OSM      P13141   5.770   3.192   6.162 -0.1808 -0.3298  0.2979
  124OSM    O1313142   5.893   3.151   6.240  0.5037  0.3330  0.2226
  124OSM    O1413143   5.790   3.261   6.034 -0.3600 -0.8724 -0.0578
  124OSM    O1113144   5.690   3.278   6.266 -0.2259  0.1307 -0.2909
  124OSM    O1213145   5.672   3.067   6.149  0.4076  0.0284 -0.0665
  124OSM    C1S13146   5.638   3.221   6.391  0.0271 -0.1415  0.2609
  124OSM    H1S13147   5.704   3.135   6.415  1.0981 -0.4202 -3.2040
  124OSM    H1T13148   5.539   3.174   6.372  0.7452 -3.0737  2.9266
  124OSM     NF13149   5.562   3.228   6.623  0.7590 -0.4967  0.1195
  124OSM    HNF13150   5.463   3.242   6.625  1.0453  2.0135  0.2328
  124OSM    C2S13151   5.631   3.305   6.518 -0.2807 -0.1960 -0.0668
  124OSM    H2S13152   5.731   3.335   6.554 -1.3162  1.3533  1.6444
  124OSM    C3S13153   5.565   3.447   6.487  0.7910  0.3478  0.2598
  124OSM    H3S13154   5.469   3.427   6.436  1.3647 -2.2770  0.0617
  124OSM     O313155   5.648   3.520   6.393  0.1326  0.1628 -0.0187
  124OSM    HO313156   5.689   3.448   6.343  1.3952 -0.0380  1.2575
  124OSM    C4S13157   5.556   3.522   6.611 -0.4168 -0.5230 -0.5778
  124OSM    H4S13158   5.649   3.565   6.650  0.2892 -1.6166 -1.0150
  124OSM    C5S13159   5.441   3.549   6.679  0.0324 -0.3252  0.0955
  124OSM    H5S13160   5.344   3.506   6.650  0.1792 -1.0533  0.6642
  124OSM    C6S13161   5.452   3.622   6.814 -0.0177  0.1067  0.1558
  124OSM    H6S13162   5.353   3.662   6.842 -0.7669 -0.8481 -1.0228
  124OSM    H6T13163   5.520   3.710   6.812  0.6178 -0.3812 -0.1966
  124OSM    C7S13164   5.491   3.527   6.929  0.4757 -0.4621 -0.5675
  124OSM    H7S13165   5.594   3.493   6.904  1.3873 -0.1966  2.4410
  124OSM    H7T13166   5.420   3.441   6.922 -0.8351  0.6730 -1.8698
  124OSM    C8S13167   5.521   3.591   7.068 -0.6341 -0.7081  0.2763
  124OSM    H8S13168   5.430   3.631   7.118 -0.0512 -0.0172  0.8037
  124OSM    H8T13169   5.596   3.671   7.053 -1.6121 -0.1217 -2.0810
  124OSM    C9S13170   5.578   3.480   7.153 -0.3779 -0.5310  0.6182
  124OSM    H9S13171   5.680   3.458   7.113 -0.0629 -0.3137  1.2898
  124OSM    H9T13172   5.533   3.381   7.131  1.2819 -1.5518  1.5964
  124OSM   C10S13173   5.584   3.516   7.299 -0.3403 -0.3435  0.4149
  124OSM   H10S13174   5.480   3.512   7.336 -1.3017  0.3124 -1.9869
  124OSM   H10T13175   5.616   3.623   7.301  0.1124 -0.4698  0.0479
  124OSM   C11S13176   5.682   3.420   7.379  0.2881  0.0220  0.0084
  124OSM   H11S13177   5.773   3.404   7.318  0.3532 -0.7073  0.2902
  124OSM   H11T13178   5.625   3.325   7.389 -0.8679  0.3975 -2.2025
  124OSM   C12S13179   5.695   3.464   7.527 -0.3041  0.5538 -0.3025
  124OSM   H12S13180   5.598   3.492   7.573  0.7247  1.6720  1.2637
  124OSM   H12T13181   5.767   3.546   7.544 -0.7744  1.0578 -0.7233
  124OSM   C13S13182   5.747   3.339   7.604 -0.1765 -0.3268 -0.7723
  124OSM   H13S13183   5.854   3.320   7.579  0.4969  0.2360  1.4588
  124OSM   H13T13184   5.692   3.245   7.582  0.7892 -1.0455 -0.1719
  124OSM   C14S13185   5.745   3.366   7.765 -0.0426  0.3785 -0.3026
  124OSM   H14S13186   5.642   3.402   7.784  0.1932  0.0186  1.8717
  124OSM   H14T13187   5.804   3.454   7.800  0.3451 -0.3904  1.0375
  124OSM   C15S13188   5.776   3.253   7.851  0.2821  0.1047 -0.6190
  124OSM   H15S13189   5.886   3.242   7.866  0.1088  1.3631  2.4291
  124OSM   H15T13190   5.723   3.166   7.809 -3.6161  2.1319 -0.3749
  124OSM   C16S13191   5.717   3.259   7.997  0.4259 -0.1155 -0.0960
  124OSM   H16S13192   5.610   3.288   7.986  0.6968  0.5815 -1.0353
  124OSM   H16T13193   5.771   3.338   8.052  0.5971 -0.1882 -0.1561
  124OSM   C17S13194   5.739   3.132   8.080  0.3087  0.4191 -0.0833
  124OSM   H17S13195   5.849   3.117   8.082  0.5399  2.0004  0.8752
  124OSM   H17T13196   5.708   3.041   8.024 -0.2523  0.6912 -0.2282
  124OSM   C18S13197   5.671   3.120   8.218  0.5938  0.3774 -0.1254
  124OSM   H18S13198   5.711   3.033   8.276  1.8305  0.0880 -1.3733
  124OSM   H18T13199   5.561   3.112   8.207  0.9392 -1.8552 -3.0017
  124OSM   H18U13200   5.701   3.209   8.277  0.5200  0.7723 -0.6834
  124OSM    C1F13201   5.623   3.121   6.685  0.0889 -0.1880 -0.6114
  124OSM     OF13202   5.745   3.097   6.670 -0.1180 -0.3432  0.0825
  124OSM    C2F13203   5.538   3.047   6.777 -0.2331 -0.2830  0.4023
  124OSM    H2F13204   5.483   2.966   6.724  2.3597 -1.3010 -0.9167
  124OSM    H2G13205   5.470   3.125   6.817  0.5194 -0.0147  1.2137
  124OSM    C3F13206   5.595   2.989   6.910 -0.0921  0.1203 -0.3556
  124OSM    H3F13207   5.674   2.913   6.890  0.2848  0.2475  0.6274
  124OSM    H3G13208   5.515   2.926   6.955 -0.7142  2.5916  2.2583
  124OSM    C4F13209   5.669   3.094   7.002  0.3842 -0.5264  0.1929
  124OSM    H4F13210   5.606   3.171   7.052  2.9248  0.4268  2.1718
  124OSM    H4G13211   5.737   3.155   6.937  0.3433 -0.6343  0.0478
  124OSM    C5F13212   5.739   3.035   7.128  0.4856 -0.3035  0.1576
  124OSM    H5F13213   5.791   3.125   7.167 -1.1437  2.1685 -2.9431
  124OSM    H5G13214   5.815   2.958   7.102  0.3693 -0.9956  1.7692
  124OSM    C6F13215   5.637   2.981   7.231 -0.1385  0.3933 -0.3745
  124OSM    H6F13216   5.617   2.875   7.205  0.6429  0.4160 -1.0977
  124OSM    H6G13217   5.540   3.035   7.239 -1.1160 -1.4068  0.9587
  124OSM    C7F13218   5.708   2.995   7.374  0.7318  0.0770  0.8382
  124OSM    H7F13219   5.707   3.105   7.387 -0.4952  0.2713 -0.7098
  124OSM    H7G13220   5.811   2.954   7.371  0.8474  0.4098  0.3487
  124OSM    C8F13221   5.631   2.922   7.483  0.4533 -0.2454  0.5991
  124OSM    H8F13222   5.603   2.820   7.452 -3.3611  0.7426  0.2691
  124OSM    H8G13223   5.529   2.965   7.497  1.3594  1.8103  1.2872
  124OSM    C9F13224   5.717   2.922   7.608 -0.3666  0.3412 -0.1250
  124OSM    H9F13225   5.769   3.017   7.620  2.7840 -1.5961  3.7908
  124OSM   C10F13226   5.724   2.829   7.702  0.2380  0.0210  0.7005
  124OSM   H10F13227   5.796   2.853   7.781  0.3606  0.6175  0.4080
  124OSM   C11F13228   5.665   2.694   7.707  0.9947 -0.2919  0.6856
  124OSM   H11F13229   5.614   2.678   7.610  0.9331  2.0553  0.2796
  124OSM   H11G13230   5.596   2.668   7.791  1.3749 -0.3163  0.9962
  124OSM   C12F13231   5.788   2.598   7.704 -0.2607  0.4323 -0.4083
  124OSM   H12F13232   5.849   2.623   7.614 -2.8468  1.4888 -2.0048
  124OSM   H12G13233   5.751   2.494   7.691  0.7681 -0.0247  0.2077
  124OSM   C13F13234   5.880   2.592   7.834 -0.3997 -0.1804 -0.3773
  124OSM   H13F13235   5.813   2.589   7.922 -1.6937 -0.0181 -1.3285
  124OSM   H13G13236   5.930   2.691   7.846 -1.2894  0.1395  0.8556
  124OSM   C14F13237   5.988   2.490   7.814 -0.1317 -0.3976 -0.2134
  124OSM   H14F13238   6.049   2.533   7.732  1.1110  0.3476  1.0614
  124OSM   H14G13239   5.944   2.394   7.778 -1.2278  0.8364 -2.3488
  124OSM   C15F13240   6.071   2.475   7.945 -0.3519  0.4949  0.3808
  124OSM   H15F13241   6.006   2.457   8.034 -0.5697  0.3770  0.1963
  124OSM   H15G13242   6.128   2.569   7.962  2.3305 -1.0924  0.6855
  124OSM   C16F13243   6.168   2.352   7.941  0.0184 -0.4779 -0.7523
  124OSM   H16F13244   6.117   2.254   7.935  1.0763 -0.9909 -1.7571
  124OSM   H16G13245   6.225   2.342   8.036 -0.4561  0.3357 -0.3679
  124OSM   C17F13246   6.258   2.360   7.827 -0.6310 -0.4113  0.5659
  124OSM   H17F13247   6.317   2.454   7.825 -2.0406  0.4756 -0.7408
  124OSM   H17G13248   6.201   2.352   7.732  2.1912 -0.2512 -1.2608
  124OSM   C18F13249   6.370   2.252   7.832 -1.5186 -0.0519  0.6628
  124OSM   H18F13250   6.435   2.274   7.744 -1.8422 -0.6253  0.2725
  124OSM   H18G13251   6.327   2.151   7.817 -0.1147 -0.3755 -1.6137
  124OSM   H18H13252   6.430   2.257   7.925 -0.0905 -1.2873 -0.1439
  125OSM      N13253   2.102   2.790   5.976  0.0704 -0.3019  0.1394
  125OSM    C1513254   2.005   2.906   5.993  0.2752  1.5629  0.5979
  125OSM   H15A13255   1.981   2.922   6.097 -0.7831  2.2105  0.2624
  125OSM   H15B13256   1.909   2.893   5.946  0.3384  1.6477  0.4445
  125OSM   H15C13257   2.044   2.992   5.940 -1.0496  1.7966 -0.0461
  125OSM    C1413258   2.110   2.732   5.836 -0.0728  0.0636  0.5196
  125OSM   H14A13259   2.135   2.806   5.760 -0.5558 -1.1660 -0.8925
  125OSM   H14B13260   2.017   2.697   5.796  1.1195 -0.3380 -2.1264
  125OSM   H14C13261   2.177   2.648   5.825 -1.7958 -1.7921  3.1036
  125OSM    C1313262   2.241   2.846   5.999  0.1556  0.0910  0.0149
  125OSM   H13A13263   2.248   2.946   5.961  1.6566  0.2170  0.5614
  125OSM   H13B13264   2.320   2.791   5.951 -0.7012 -0.0747 -1.2521
  125OSM   H13C13265   2.255   2.852   6.106 -0.6642  0.5287  0.1062
  125OSM    C1213266   2.086   2.677   6.070  0.8368  0.5072 -0.5245
  125OSM   H12A13267   2.167   2.606   6.062 -0.4171 -1.1956  1.0640
  125OSM   H12B13268   1.998   2.620   6.046  1.9199 -1.8242  0.7890
  125OSM    C1113269   2.081   2.708   6.219 -0.0583 -0.2055  1.3953
  125OSM   H11A13270   2.169   2.772   6.242 -1.3189  2.2505 -0.1467
  125OSM   H11B13271   2.092   2.611   6.272 -0.6002 -1.2365 -0.3197
  125OSM      P13272   1.831   2.686   6.268 -0.3724 -0.3687  0.3417
  125OSM    O1313273   1.714   2.770   6.297  0.6162 -0.1615  0.2300
  125OSM    O1413274   1.816   2.596   6.151  0.6902 -0.0089  0.0246
  125OSM    O1113275   1.867   2.605   6.401  0.4039  0.2263  0.1936
  125OSM    O1213276   1.960   2.776   6.248  0.2060 -0.3971 -0.1257
  125OSM    C1S13277   1.907   2.666   6.520  0.5257  0.9116 -0.0570
  125OSM    H1S13278   1.845   2.754   6.549  1.2452  1.4836 -0.2282
  125OSM    H1T13279   2.014   2.697   6.515  0.6610  0.4003 -0.3343
  125OSM     NF13280   1.901   2.663   6.770  0.3379  0.5499 -0.0884
  125OSM    HNF13281   1.978   2.649   6.831 -0.6112  2.9611  1.8335
  125OSM    C2S13282   1.895   2.577   6.647  0.2189  0.2842 -0.5406
  125OSM    H2S13283   1.798   2.527   6.627  0.8289  0.0348 -3.3580
  125OSM    C3S13284   1.996   2.458   6.634  0.6504 -0.2581 -0.0192
  125OSM    H3S13285   2.094   2.509   6.618 -0.0976  2.1419  2.3243
  125OSM     O313286   1.982   2.371   6.528 -0.2236 -0.0639  0.2265
  125OSM    HO313287   1.931   2.422   6.465 -0.2836  1.8945  1.7724
  125OSM    C4S13288   2.014   2.388   6.763  0.1047  0.3960  0.4557
  125OSM    H4S13289   2.072   2.446   6.837 -1.2892  0.8743  1.2062
  125OSM    C5S13290   1.965   2.269   6.797 -0.5080  0.1467  0.6565
  125OSM    H5S13291   1.912   2.205   6.726 -1.3068 -0.4383  1.7555
  125OSM    C6S13292   1.976   2.206   6.928  0.8450  0.1591 -0.6269
  125OSM    H6S13293   2.056   2.129   6.929  0.9537  0.2675  0.2108
  125OSM    H6T13294   1.884   2.146   6.945  0.8117  0.9147  2.3878
  125OSM    C7S13295   2.009   2.310   7.037 -0.2671  0.2872 -0.0241
  125OSM    H7S13296   1.948   2.401   7.019 -0.2127  0.3372  0.0425
  125OSM    H7T13297   2.118   2.333   7.044  0.2835 -1.7003 -1.2134
  125OSM    C8S13298   1.973   2.255   7.176 -0.1089 -0.2443 -0.4340
  125OSM    H8S13299   2.050   2.174   7.177  2.6654  2.2171  1.0148
  125OSM    H8T13300   1.868   2.221   7.182  0.5157 -2.0058  3.3072
  125OSM    C9S13301   2.003   2.357   7.284  0.3924  0.1557 -0.4173
  125OSM    H9S13302   1.958   2.458   7.273 -1.0339  0.0262  3.0889
  125OSM    H9T13303   2.111   2.385   7.291  0.1694  1.6432 -2.2583
  125OSM   C10S13304   1.961   2.294   7.426  0.3532  0.4625  0.3006
  125OSM   H10S13305   2.022   2.205   7.449  1.0821  0.2868 -2.0114
  125OSM   H10T13306   1.856   2.256   7.423  0.6599 -0.3630 -0.2871
  125OSM   C11S13307   1.968   2.390   7.548 -0.0956 -0.3222  0.2708
  125OSM   H11S13308   1.920   2.487   7.519 -2.4861 -1.7459 -0.8734
  125OSM   H11T13309   2.077   2.392   7.568  0.0138 -0.3497 -0.3273
  125OSM   C12S13310   1.913   2.323   7.672 -0.5821 -1.1362 -0.2496
  125OSM   H12S13311   1.960   2.222   7.674  1.0798 -0.4110 -0.6490
  125OSM   H12T13312   1.804   2.307   7.675 -0.6600 -0.4588  1.4814
  125OSM   C13S13313   1.952   2.399   7.803  0.3841  0.6249 -0.0466
  125OSM   H13S13314   1.928   2.505   7.781  0.2842  0.2548 -1.8599
  125OSM   H13T13315   2.061   2.392   7.823  0.0761  0.8215  1.9865
  125OSM   C14S13316   1.884   2.349   7.935 -0.6958 -0.2724 -0.2841
  125OSM   H14S13317   1.958   2.286   7.990 -1.4730  0.4237  1.6666
  125OSM   H14T13318   1.790   2.290   7.925 -2.4943  1.8257  2.5506
  125OSM   C15S13319   1.841   2.457   8.038 -0.3387  0.9290 -0.6690
  125OSM   H15S13320   1.829   2.417   8.141  0.6309 -1.3411 -1.3672
  125OSM   H15T13321   1.739   2.496   8.017 -1.2132 -0.5798  0.5594
  125OSM   C16S13322   1.953   2.566   8.047  1.0595  0.6151 -0.6219
  125OSM   H16S13323   1.925   2.646   7.975 -0.1514 -0.1784 -1.0697
  125OSM   H16T13324   2.044   2.512   8.014 -0.5445 -1.6196 -1.6462
  125OSM   C17S13325   1.962   2.605   8.196 -0.3419 -0.5173 -0.4292
  125OSM   H17S13326   1.989   2.512   8.250  1.5827  0.9622  1.3562
  125OSM   H17T13327   1.868   2.649   8.234  0.5238  1.0157  0.0086
  125OSM   C18S13328   2.078   2.698   8.218 -0.1938 -0.0708  0.1364
  125OSM   H18S13329   2.089   2.713   8.328  1.2678  2.3440 -0.2651
  125OSM   H18T13330   2.051   2.797   8.175 -2.1317 -0.4602  0.3792
  125OSM   H18U13331   2.176   2.662   8.179  0.6978 -0.9286  2.9541
  125OSM    C1F13332   1.810   2.752   6.796 -0.2095  0.0979 -0.2232
  125OSM     OF13333   1.699   2.742   6.738 -0.1811  0.1788  0.0965
  125OSM    C2F13334   1.851   2.862   6.885 -0.0631 -0.0451  0.7786
  125OSM    H2F13335   1.940   2.916   6.846 -0.4116  1.0506  1.4539
  125OSM    H2G13336   1.879   2.829   6.987  3.0842  1.4912  0.5352
  125OSM    C3F13337   1.744   2.967   6.889  0.7808  0.3233  0.1868
  125OSM    H3F13338   1.669   2.930   6.961  1.1846  0.2487  0.5715
  125OSM    H3G13339   1.686   2.981   6.795  0.8399  1.7513  0.3351
  125OSM    C4F13340   1.797   3.107   6.934  0.4145  0.5174  0.0231
  125OSM    H4F13341   1.732   3.197   6.923  0.9130  0.7459 -1.2807
  125OSM    H4G13342   1.882   3.126   6.864 -1.1158  0.1483 -2.0369
  125OSM    C5F13343   1.860   3.107   7.071 -0.3594  0.3689 -1.3058
  125OSM    H5F13344   1.922   3.199   7.072  1.1151 -0.5789  0.9202
  125OSM    H5G13345   1.920   3.015   7.086  0.5354  1.0866 -0.2893
  125OSM    C6F13346   1.754   3.123   7.180  0.1213  0.1695 -0.1628
  125OSM    H6F13347   1.682   3.039   7.169  0.1050 -0.0738  1.4573
  125OSM    H6G13348   1.685   3.209   7.164 -2.2121 -1.7441 -0.9641
  125OSM    C7F13349   1.821   3.117   7.324  0.3928 -0.5391 -0.7219
  125OSM    H7F13350   1.905   3.045   7.315  0.1773 -0.9586  0.4279
  125OSM    H7G13351   1.754   3.087   7.407  2.0322  0.9011  1.2237
  125OSM    C8F13352   1.871   3.251   7.378  0.5788 -0.4197  0.0686
  125OSM    H8F13353   1.927   3.309   7.302  0.5838 -2.0273 -1.2343
  125OSM    H8G13354   1.921   3.217   7.471 -2.0023 -0.7661  1.4183
  125OSM    C9F13355   1.762   3.349   7.410 -0.6225  0.4902  0.5791
  125OSM    H9F13356   1.691   3.310   7.484 -1.1644  1.6891  0.7203
  125OSM   C10F13357   1.741   3.474   7.354  0.3448 -0.6661 -0.3231
  125OSM   H10F13358   1.655   3.529   7.394 -0.6371 -4.0421  2.6736
  125OSM   C11F13359   1.825   3.545   7.244  0.0064  0.1617 -0.4879
  125OSM   H11F13360   1.772   3.612   7.173  0.6738 -0.7357 -1.8795
  125OSM   H11G13361   1.854   3.461   7.177  2.1364  0.4302  0.0365
  125OSM   C12F13362   1.945   3.614   7.304 -0.8610 -0.3526 -0.8568
  125OSM   H12F13363   2.013   3.542   7.354 -0.7348 -2.0504 -3.3188
  125OSM   H12G13364   1.910   3.693   7.375  3.0463  3.4129 -2.6613
  125OSM   C13F13365   2.024   3.677   7.185 -0.5603 -0.3809 -0.6513
  125OSM   H13F13366   1.955   3.724   7.111 -1.0674 -0.4075 -0.2057
  125OSM   H13G13367   2.069   3.594   7.127  1.2408  0.4391 -0.4997
  125OSM   C14F13368   2.140   3.773   7.223 -0.1121  0.4369 -0.2699
  125OSM   H14F13369   2.212   3.699   7.264 -0.5915  0.8823  1.4417
  125OSM   H14G13370   2.118   3.849   7.302  1.4751  0.8640 -0.2021
  125OSM   C15F13371   2.211   3.840   7.106 -0.3432  0.3809  0.6309
  125OSM   H15F13372   2.293   3.906   7.142  0.7057 -0.3154 -0.4059
  125OSM   H15G13373   2.136   3.908   7.061 -0.5220  1.6020  2.6370
  125OSM   C16F13374   2.264   3.745   6.999  0.2078 -0.3615  0.9381
  125OSM   H16F13375   2.192   3.673   6.954  1.3256 -0.1436 -1.3860
  125OSM   H16G13376   2.351   3.689   7.040  0.7226 -0.2901 -0.0315
  125OSM   C17F13377   2.320   3.830   6.875  0.1758  0.4448 -0.0498
  125OSM   H17F13378   2.390   3.907   6.913  0.5356  0.8620 -1.4958
  125OSM   H17G13379   2.238   3.891   6.830 -1.4526  0.0762  2.2681
  125OSM   C18F13380   2.378   3.740   6.761  0.5948 -0.2223 -1.3038
  125OSM   H18F13381   2.462   3.678   6.798 -1.3228 -1.5785  1.0433
  125OSM   H18G13382   2.422   3.795   6.674  1.2728 -0.6730 -1.2515
  125OSM   H18H13383   2.300   3.668   6.729 -0.5817 -0.2689  1.4033
  126OSM      N13384   5.997   5.384   6.094  0.5284 -0.6146 -0.4617
  126OSM    C1513385   6.041   5.246   6.054 -0.6462 -0.1422  0.4842
  126OSM   H15A13386   6.023   5.227   5.950  0.7495 -3.1004  0.6952
  126OSM   H15B13387   6.010   5.159   6.110  2.4301 -0.8676  1.2561
  126OSM   H15C13388   6.147   5.245   6.070 -0.5852 -1.6570  0.0837
  126OSM    C1413389   6.051   5.485   6.000  0.8218 -0.8441  0.0762
  126OSM   H14A13390   6.041   5.450   5.898 -1.4813  0.6521 -0.2772
  126OSM   H14B13391   6.156   5.505   6.017  0.4399  0.9398  0.5614
  126OSM   H14C13392   5.989   5.572   6.014 -0.6039 -1.8406  0.1174
  126OSM    C1313393   5.844   5.383   6.079  0.3187  0.3644 -0.2379
  126OSM   H13A13394   5.802   5.324   6.159 -0.6465  1.8246  0.3750
  126OSM   H13B13395   5.809   5.346   5.984  0.6409 -1.3856  0.2914
  126OSM   H13C13396   5.805   5.483   6.091 -2.5705 -0.8516  1.3930
  126OSM    C1213397   6.038   5.429   6.239 -0.1614  0.0518  0.0076
  126OSM   H12A13398   5.985   5.365   6.308  0.5083  0.9559  1.4147
  126OSM   H12B13399   5.989   5.524   6.254 -1.4510 -0.8509  1.8575
  126OSM    C1113400   6.187   5.433   6.280  0.0549  0.1567 -0.4739
  126OSM   H11A13401   6.230   5.340   6.237  0.3035  0.7634 -1.5604
  126OSM   H11B13402   6.193   5.423   6.391 -0.3387  0.4631 -0.4232
  126OSM      P13403   6.257   5.687   6.299 -0.4377 -0.3507 -0.2254
  126OSM    O1313404   6.349   5.772   6.222  0.3605  0.0937 -0.3006
  126OSM    O1413405   6.121   5.741   6.306  0.3283  0.0741  0.7246
  126OSM    O1113406   6.315   5.651   6.443  0.5136  0.2360  0.4098
  126OSM    O1213407   6.254   5.546   6.227  0.5336 -0.3368  0.1320
  126OSM    C1S13408   6.450   5.612   6.464 -0.3149 -0.3881 -0.0553
  126OSM    H1S13409   6.519   5.685   6.416 -2.7472  1.5615 -0.7790
  126OSM    H1T13410   6.462   5.512   6.418 -1.0073 -0.4709 -0.0546
  126OSM     NF13411   6.630   5.608   6.641  0.3807  0.6218  0.5562
  126OSM    HNF13412   6.668   5.520   6.668 -1.7111 -1.5720 -2.7694
  126OSM    C2S13413   6.486   5.606   6.618 -0.5888  0.2815 -0.0515
  126OSM    H2S13414   6.454   5.701   6.667  1.8736  0.3026  1.6954
  126OSM    C3S13415   6.418   5.484   6.685 -0.5688 -0.5694  0.3350
  126OSM    H3S13416   6.474   5.388   6.672 -0.3673 -0.2336 -1.6555
  126OSM     O313417   6.278   5.461   6.652 -0.1789  0.3777  0.3858
  126OSM    HO313418   6.255   5.529   6.588  1.1103  0.6849  0.2042
  126OSM    C4S13419   6.435   5.504   6.832  0.5824 -0.1034 -0.2346
  126OSM    H4S13420   6.525   5.465   6.883 -0.3012  0.0676  1.5277
  126OSM    C5S13421   6.342   5.555   6.920 -0.4300  0.0772  0.2657
  126OSM    H5S13422   6.239   5.574   6.884 -0.5595 -1.7569 -0.4026
  126OSM    C6S13423   6.366   5.568   7.070 -0.2487  0.7915  0.2472
  126OSM    H6S13424   6.471   5.547   7.097 -0.8750 -0.4513  1.9377
  126OSM    H6T13425   6.302   5.489   7.116  1.0609 -0.3609  0.1290
  126OSM    C7S13426   6.309   5.695   7.134 -0.1969  0.4878 -0.1449
  126OSM    H7S13427   6.199   5.691   7.120 -0.6395 -0.1648  2.7264
  126OSM    H7T13428   6.348   5.790   7.092 -0.0507  1.7683  2.6206
  126OSM    C8S13429   6.347   5.700   7.287  0.4860 -0.2033 -0.7066
  126OSM    H8S13430   6.323   5.596   7.321 -0.4045  0.3981  0.5788
  126OSM    H8T13431   6.279   5.766   7.345  1.6433  0.7103 -0.3675
  126OSM    C9S13432   6.492   5.739   7.297 -0.4002  0.3416 -0.1034
  126OSM    H9S13433   6.525   5.829   7.240 -0.5188 -1.0194 -2.4371
  126OSM    H9T13434   6.565   5.663   7.264  0.2450  0.6562  0.5672
  126OSM   C10S13435   6.535   5.749   7.448 -0.7657 -0.0198  0.5101
  126OSM   H10S13436   6.643   5.775   7.446 -0.9377  0.7281  0.8052
  126OSM   H10T13437   6.518   5.652   7.500  0.4677  0.8121  2.5431
  126OSM   C11S13438   6.477   5.860   7.536 -0.1796 -0.3046 -0.3409
  126OSM   H11S13439   6.370   5.834   7.550 -1.1841  3.7409  0.6237
  126OSM   H11T13440   6.472   5.958   7.485  0.7318 -1.2370 -2.3609
  126OSM   C12S13441   6.562   5.867   7.665  0.3378  0.5878 -0.1177
  126OSM   H12S13442   6.654   5.928   7.649  1.3122 -0.9423 -0.5317
  126OSM   H12T13443   6.588   5.763   7.695 -2.2155  0.6614  2.8426
  126OSM   C13S13444   6.479   5.907   7.785 -0.2366 -0.0918 -0.3800
  126OSM   H13S13445   6.401   5.833   7.811  1.7094 -1.7486  1.0216
  126OSM   H13T13446   6.431   6.003   7.757 -0.9055 -0.4307 -0.4092
  126OSM   C14S13447   6.559   5.940   7.914  0.3071  0.6088 -0.4832
  126OSM   H14S13448   6.485   5.993   7.977  0.5365 -1.6296  1.8282
  126OSM   H14T13449   6.629   6.020   7.883  1.6707 -1.1440 -2.2249
  126OSM   C15S13450   6.622   5.822   7.980 -0.4152 -0.0100 -0.6061
  126OSM   H15S13451   6.720   5.809   7.930  0.2042  3.4061 -0.5161
  126OSM   H15T13452   6.545   5.743   7.973 -0.3822 -0.0542 -0.4792
  126OSM   C16S13453   6.669   5.859   8.130  0.0052  0.0618  0.1494
  126OSM   H16S13454   6.730   5.952   8.127 -0.8352  0.6060 -0.5526
  126OSM   H16T13455   6.737   5.786   8.180  0.7603  1.8874  1.9222
  126OSM   C17S13456   6.547   5.874   8.218  0.5889  0.2291 -0.4665
  126OSM   H17S13457   6.462   5.813   8.182 -0.2293  1.4831 -0.7182
  126OSM   H17T13458   6.504   5.976   8.228 -0.3408 -0.2506  0.6538
  126OSM   C18S13459   6.583   5.836   8.359  0.1767  0.4470 -0.2568
  126OSM   H18S13460   6.671   5.893   8.396 -1.1375  2.1176  0.4291
  126OSM   H18T13461   6.617   5.730   8.365 -0.5391  0.1704 -0.7917
  126OSM   H18U13462   6.494   5.845   8.426 -0.3973  0.5484 -1.0158
  126OSM    C1F13463   6.717   5.698   6.602  0.3511 -0.7571 -0.7031
  126OSM     OF13464   6.677   5.809   6.562 -0.6103 -0.1747  0.3653
  126OSM    C2F13465   6.868   5.657   6.617  1.0311 -0.5241  0.4754
  126OSM    H2F13466   6.921   5.686   6.524 -1.2829  0.3582 -0.6649
  126OSM    H2G13467   6.863   5.548   6.634  0.8763 -1.3305 -3.6402
  126OSM    C3F13468   6.932   5.730   6.735  0.8604  0.8632  0.5794
  126OSM    H3F13469   6.915   5.840   6.732  1.9020  1.0402  0.9385
  126OSM    H3G13470   7.041   5.722   6.718  0.5783 -2.2643 -0.3099
  126OSM    C4F13471   6.891   5.671   6.872  0.2883 -0.5364 -0.5137
  126OSM    H4F13472   6.915   5.563   6.865  0.7021 -0.4692 -0.1876
  126OSM    H4G13473   6.783   5.674   6.896  0.5233 -1.3831  0.7438
  126OSM    C5F13474   6.965   5.741   6.985 -0.0962  0.3882  0.2370
  126OSM    H5F13475   7.067   5.778   6.960 -0.6273  0.8846 -1.2725
  126OSM    H5G13476   6.978   5.662   7.063  2.4887 -2.0250 -2.3782
  126OSM    C6F13477   6.884   5.865   7.035 -0.6173  0.1380  0.0402
  126OSM    H6F13478   6.790   5.835   7.086 -0.3637 -0.5052  0.1453
  126OSM    H6G13479   6.858   5.920   6.942  0.7878  0.0048 -0.4534
  126OSM    C7F13480   6.963   5.966   7.127  0.3657 -0.9580  0.3701
  126OSM    H7F13481   6.891   6.049   7.143  0.1864 -0.7637 -1.2950
  126OSM    H7G13482   7.048   6.014   7.073  1.0277  1.2486  3.1185
  126OSM    C8F13483   7.009   5.922   7.262  0.2448 -0.4673 -0.3123
  126OSM    H8F13484   7.076   6.003   7.297 -0.5030 -0.6627  1.6514
  126OSM    H8G13485   7.080   5.837   7.247  2.1600  1.0018  0.0024
  126OSM    C9F13486   6.910   5.885   7.366 -0.2808  0.0642 -0.8829
  126OSM    H9F13487   6.863   5.785   7.367 -1.8580  0.7779  0.5738
  126OSM   C10F13488   6.901   5.941   7.487  0.5328  0.7209  0.4325
  126OSM   H10F13489   6.830   5.899   7.561 -0.0749  2.7670  1.0660
  126OSM   C11F13490   6.973   6.065   7.532  0.1766  0.3638  0.1290
  126OSM   H11F13491   6.939   6.155   7.476  0.3022  0.9443  0.9619
  126OSM   H11G13492   7.083   6.052   7.523  0.4410  2.7197 -0.7854
  126OSM   C12F13493   6.946   6.094   7.680  0.0016  0.2219 -0.3914
  126OSM   H12F13494   6.839   6.097   7.709  0.6398  1.5082  2.0834
  126OSM   H12G13495   6.985   6.195   7.706 -1.2016  0.4169  0.7166
  126OSM   C13F13496   7.023   6.004   7.775  0.7730 -0.2767 -0.2701
  126OSM   H13F13497   7.130   5.986   7.751  1.1574  0.7610  0.5535
  126OSM   H13G13498   6.969   5.907   7.772  3.1079 -1.7844  1.6931
  126OSM   C14F13499   7.013   6.057   7.921 -0.0035  0.0104  0.2832
  126OSM   H14F13500   6.908   6.080   7.949 -0.1499 -0.3434  0.0358
  126OSM   H14G13501   7.087   6.139   7.930 -0.2333  0.2744 -0.2147
  126OSM   C15F13502   7.048   5.940   8.015  0.1816 -0.1618  0.0612
  126OSM   H15F13503   7.146   5.894   7.993  0.2154  0.0953 -0.3218
  126OSM   H15G13504   6.974   5.857   8.004  0.2295 -0.2246  0.2124
  126OSM   C16F13505   7.047   5.994   8.161  0.5079 -0.2530  0.4345
  126OSM   H16F13506   6.955   6.057   8.171  1.5153  1.0595  2.0010
  126OSM   H16G13507   7.130   6.067   8.173  0.9739 -0.2396 -2.2308
  126OSM   C17F13508   7.055   5.876   8.258  0.0947  0.2009 -0.0803
  126OSM   H17F13509   7.160   5.843   8.250 -0.1139 -0.4378 -0.1944
  126OSM   H17G13510   6.980   5.798   8.234  0.1027 -0.1766  1.0363
  126OSM   C18F13511   7.013   5.920   8.404  0.2348 -0.8819  0.6475
  126OSM   H18F13512   7.107   5.958   8.448 -0.3962  0.5072  0.8462
  126OSM   H18G13513   6.986   5.824   8.453  0.3680 -2.2234 -1.7365
  126OSM   H18H13514   6.926   5.990   8.410 -1.0789 -2.2542 -1.1675
  127OSM      N13515   4.335   0.309   5.946 -0.1190 -0.4752 -0.3596
  127OSM    C1513516   4.384   0.167   5.935 -0.5791 -0.4897 -0.2519
  127OSM   H15A13517   4.414   0.122   6.029  0.6678  1.2942  0.2637
  127OSM   H15B13518   4.464   0.177   5.864  0.0698 -0.6054  0.4435
  127OSM   H15C13519   4.311   0.095   5.901  0.6804 -2.2128  0.4880
  127OSM    C1413520   4.442   0.400   5.994  0.0315  0.4357  0.0889
  127OSM   H14A13521   4.463   0.390   6.099  0.5843 -0.6462 -0.1113
  127OSM   H14B13522   4.408   0.503   5.991 -1.3579  0.0368  0.9657
  127OSM   H14C13523   4.533   0.395   5.936 -0.0281 -1.1124  0.1044
  127OSM    C1313524   4.297   0.354   5.810 -0.5549  0.3478 -0.2705
  127OSM   H13A13525   4.377   0.365   5.737  0.2973 -0.8979  0.4330
  127OSM   H13B13526   4.247   0.450   5.806 -0.6465  0.3375  0.5355
  127OSM   H13C13527   4.225   0.281   5.777 -0.6376  0.7523 -1.0006
  127OSM    C1213528   4.212   0.332   6.035 -0.1537  0.4615  0.0031
  127OSM   H12A13529   4.125   0.284   5.992  0.4362 -0.6437 -0.0096
  127OSM   H12B13530   4.185   0.435   6.050 -1.8731  0.3650 -1.9644
  127OSM    C1113531   4.230   0.273   6.184 -0.0337 -0.4205  0.4401
  127OSM   H11A13532   4.144   0.310   6.244 -0.3226  1.7397 -1.1780
  127OSM   H11B13533   4.320   0.321   6.229 -0.6192  0.5731  0.5810
  127OSM      P13534   4.301   0.069   6.326  0.0864 -0.0629  0.4233
  127OSM    O1313535   4.244  -0.062   6.339  0.0596  0.4679  0.1005
  127OSM    O1413536   4.446   0.088   6.314 -0.1533 -0.6506  0.4105
  127OSM    O1113537   4.233   0.168   6.435 -0.0384 -0.8129  0.1755
  127OSM    O1213538   4.237   0.130   6.190 -0.0783  0.2630 -0.1642
  127OSM    C1S13539   4.090   0.171   6.462 -0.1063  0.2184 -0.4879
  127OSM    H1S13540   4.042   0.079   6.423 -0.1226 -0.4672  1.0878
  127OSM    H1T13541   4.041   0.255   6.407  0.7561  1.1056  0.0561
  127OSM     NF13542   3.920   0.155   6.648  0.4315 -0.0791  0.2214
  127OSM    HNF13543   3.852   0.226   6.667  1.0466  0.4284  0.5645
  127OSM    C2S13544   4.055   0.185   6.615 -0.0588 -0.2775 -0.1340
  127OSM    H2S13545   4.111   0.108   6.672  1.2899  0.3066 -0.6196
  127OSM    C3S13546   4.099   0.325   6.661 -0.1670 -0.2204 -0.0136
  127OSM    H3S13547   4.031   0.398   6.611 -1.1814  0.5954  2.3829
  127OSM     O313548   4.230   0.374   6.623  0.1133 -0.3347 -0.0698
  127OSM    HO313549   4.262   0.317   6.553 -0.1978  0.5233 -0.9309
  127OSM    C4S13550   4.073   0.349   6.812 -0.1397  0.5254 -0.0104
  127OSM    H4S13551   4.099   0.263   6.876  1.3647 -1.8355 -3.5102
  127OSM    C5S13552   4.016   0.459   6.855  0.4786  1.0582 -0.3773
  127OSM    H5S13553   4.005   0.544   6.785 -0.5382  1.0111 -0.2902
  127OSM    C6S13554   3.992   0.488   6.998  0.6999 -0.2508  0.0154
  127OSM    H6S13555   4.050   0.423   7.067 -0.4550  1.0037  2.2857
  127OSM    H6T13556   3.883   0.488   7.024  0.3969  0.8430 -1.1472
  127OSM    C7S13557   4.046   0.631   7.013 -1.2996  0.3620 -0.7527
  127OSM    H7S13558   3.991   0.704   6.950 -0.1046  0.7512 -1.3760
  127OSM    H7T13559   4.151   0.629   6.977 -0.2117 -2.0227  2.1615
  127OSM    C8S13560   4.059   0.676   7.160  0.3589  0.2735  0.8085
  127OSM    H8S13561   4.115   0.772   7.156  0.4242  0.1785 -1.6992
  127OSM    H8T13562   4.116   0.597   7.214 -0.7671 -1.0985  0.0388
  127OSM    C9S13563   3.925   0.689   7.229  0.2625  0.2407 -0.4768
  127OSM    H9S13564   3.855   0.603   7.221 -2.7185  2.4451  0.0366
  127OSM    H9T13565   3.879   0.779   7.184  1.4460  1.2770  0.3407
  127OSM   C10S13566   3.960   0.713   7.381  0.0067 -0.9584  0.1585
  127OSM   H10S13567   4.049   0.779   7.378  1.1315 -2.4375 -2.5802
  127OSM   H10T13568   3.991   0.615   7.422  1.8258 -0.2613  0.5495
  127OSM   C11S13569   3.849   0.780   7.456 -0.1057 -0.3525 -1.4130
  127OSM   H11S13570   3.761   0.714   7.439 -0.3955 -0.1574 -0.6836
  127OSM   H11T13571   3.832   0.884   7.421  0.9090  1.9037  3.8432
  127OSM   C12S13572   3.873   0.783   7.609 -0.7549  0.3810 -0.0307
  127OSM   H12S13573   3.814   0.860   7.662  1.5286  0.1370  3.1350
  127OSM   H12T13574   3.975   0.826   7.620 -0.8055 -0.1652  4.2861
  127OSM   C13S13575   3.856   0.647   7.677  0.2392  0.2490  0.4968
  127OSM   H13S13576   3.912   0.582   7.607 -1.5666  0.5628 -1.3453
  127OSM   H13T13577   3.747   0.625   7.673  0.0390  1.2655 -0.1400
  127OSM   C14S13578   3.915   0.637   7.815  0.0390  0.0554 -1.1073
  127OSM   H14S13579   4.024   0.653   7.809  0.2479 -0.7297  0.1558
  127OSM   H14T13580   3.897   0.536   7.859 -2.1994  1.9413  2.7995
  127OSM   C15S13581   3.872   0.746   7.918  0.7601  0.3650 -0.0881
  127OSM   H15S13582   3.762   0.748   7.908  0.7770 -0.6654 -0.6918
  127OSM   H15T13583   3.897   0.840   7.863  2.1655 -0.4555 -0.9395
  127OSM   C16S13584   3.935   0.738   8.054  0.6341 -0.3405 -0.1841
  127OSM   H16S13585   4.044   0.717   8.051  0.9792  1.3973 -1.0596
  127OSM   H16T13586   3.885   0.658   8.113 -0.9098  2.0838  2.0303
  127OSM   C17S13587   3.909   0.858   8.147 -0.6246  0.0666 -1.3930
  127OSM   H17S13588   3.806   0.900   8.150  0.0223  1.6145  0.9771
  127OSM   H17T13589   3.976   0.939   8.112 -1.5511  1.3494 -0.3043
  127OSM   C18S13590   3.953   0.826   8.290  1.0443 -0.2829  0.3635
  127OSM   H18S13591   4.060   0.796   8.298  1.4735 -0.0656 -2.9334
  127OSM   H18T13592   3.888   0.742   8.321  0.1510 -0.7670 -2.4966
  127OSM   H18U13593   3.924   0.909   8.358 -1.5990 -0.9255  0.1204
  127OSM    C1F13594   3.874   0.029   6.642  0.1974  0.4282  0.1984
  127OSM     OF13595   3.931  -0.065   6.586  0.0747  0.2001  0.1833
  127OSM    C2F13596   3.751   0.000   6.716  0.3199  0.5594 -1.0563
  127OSM    H2F13597   3.685  -0.069   6.659  1.8042 -1.1696 -0.7735
  127OSM    H2G13598   3.699   0.098   6.724 -1.3910 -0.3889 -0.2275
  127OSM    C3F13599   3.768  -0.065   6.856 -0.1922 -0.5714  0.2622
  127OSM    H3F13600   3.794  -0.173   6.848 -1.4101 -0.7443 -2.9356
  127OSM    H3G13601   3.670  -0.061   6.909  0.5126 -1.8088  1.7377
  127OSM    C4F13602   3.883   0.001   6.928  0.3103  0.3700  0.6629
  127OSM    H4F13603   3.860   0.109   6.912 -2.6501 -0.3674 -0.8715
  127OSM    H4G13604   3.980  -0.023   6.879 -0.8314  1.0007 -2.0969
  127OSM    C5F13605   3.895  -0.026   7.081 -0.4827 -0.2321  0.5936
  127OSM    H5F13606   3.795  -0.047   7.124 -1.0827  0.1419 -0.5975
  127OSM    H5G13607   3.926   0.068   7.131  0.3120  0.3567 -0.9421
  127OSM    C6F13608   4.004  -0.127   7.105  0.3804  0.0936  0.3634
  127OSM    H6F13609   4.098  -0.097   7.054 -0.9953  1.0014 -1.7667
  127OSM    H6G13610   3.964  -0.218   7.056  0.5910  0.4542 -0.4857
  127OSM    C7F13611   4.006  -0.142   7.262  0.0605 -0.2885  0.4996
  127OSM    H7F13612   3.905  -0.169   7.300  1.0044 -0.5957  3.0102
  127OSM    H7G13613   4.033  -0.045   7.308 -0.1447 -0.5725  1.2385
  127OSM    C8F13614   4.108  -0.248   7.304 -0.0863  0.8592  0.0964
  127OSM    H8F13615   4.129  -0.250   7.413  0.5373 -1.4492  0.0035
  127OSM    H8G13616   4.204  -0.218   7.257  0.6675 -0.8160  0.4763
  127OSM    C9F13617   4.059  -0.385   7.250 -0.0501 -0.6159 -0.3760
  127OSM    H9F13618   4.052  -0.395   7.141 -2.3452 -1.5330 -0.1949
  127OSM   C10F13619   4.019  -0.495   7.326 -0.9388 -0.9270  0.1458
  127OSM   H10F13620   3.989  -0.591   7.281  0.5756 -1.9496  1.2288
  127OSM   C11F13621   4.027  -0.495   7.476 -0.1425 -0.0123  0.2150
  127OSM   H11F13622   3.939  -0.543   7.523 -0.2675  0.2768  0.2785
  127OSM   H11G13623   4.029  -0.393   7.520  2.9709  1.1339 -2.1645
  127OSM   C12F13624   4.142  -0.577   7.524  0.2809  0.2275 -0.3619
  127OSM   H12F13625   4.234  -0.519   7.504  0.1323  1.1547  1.4638
  127OSM   H12G13626   4.147  -0.673   7.467 -0.0309 -0.5575  0.8989
  127OSM   C13F13627   4.130  -0.614   7.676 -0.3309 -0.3455  0.7250
  127OSM   H13F13628   4.052  -0.691   7.689  1.0741 -1.4703  2.9045
  127OSM   H13G13629   4.101  -0.516   7.719  2.4493  2.2299 -2.5892
  127OSM   C14F13630   4.262  -0.639   7.741  0.5717  0.6126 -0.1803
  127OSM   H14F13631   4.331  -0.557   7.711  0.2184  0.3792 -1.6629
  127OSM   H14G13632   4.321  -0.727   7.708  0.0566  0.2741 -0.1937
  127OSM   C15F13633   4.250  -0.645   7.900  0.0686  0.4156 -0.8222
  127OSM   H15F13634   4.324  -0.721   7.930 -0.5171 -0.0105 -0.4357
  127OSM   H15G13635   4.148  -0.665   7.941 -0.2256 -0.1562 -1.7953
  127OSM   C16F13636   4.304  -0.506   7.956  0.4329  0.4962 -0.0071
  127OSM   H16F13637   4.234  -0.426   7.924  0.0916  0.9212  1.6982
  127OSM   H16G13638   4.405  -0.490   7.912  0.8488 -1.1031  0.3343
  127OSM   C17F13639   4.312  -0.485   8.104  0.4250 -0.4283  0.3958
  127OSM   H17F13640   4.364  -0.573   8.148  0.6336 -1.0847 -1.1091
  127OSM   H17G13641   4.210  -0.469   8.145  0.6948  2.2852  0.1657
  127OSM   C18F13642   4.379  -0.354   8.136  0.3066 -0.3348 -0.1006
  127OSM   H18F13643   4.374  -0.330   8.244  2.1802  0.6669 -0.1879
  127OSM   H18G13644   4.328  -0.279   8.072  0.2971 -0.2584 -0.0030
  127OSM   H18H13645   4.485  -0.351   8.103 -0.0189  0.2247 -1.1338
  128OSM      N13646   3.901   3.363   6.380  0.4838  0.0723  0.1121
  128OSM    C1513647   4.019   3.392   6.291 -0.2925 -0.2433  0.0907
  128OSM   H15A13648   3.998   3.418   6.188  0.9340 -1.2778 -0.4476
  128OSM   H15B13649   4.085   3.306   6.288  0.5706  0.4079 -2.3727
  128OSM   H15C13650   4.085   3.467   6.331  1.1575  0.1798 -2.8141
  128OSM    C1413651   3.953   3.308   6.506  0.0622  0.2628  0.2144
  128OSM   H14A13652   3.871   3.277   6.570 -2.5725  0.3520 -2.8585
  128OSM   H14B13653   4.007   3.384   6.559 -0.0945  0.3656  0.2287
  128OSM   H14C13654   4.017   3.224   6.484 -0.8299 -0.4024  0.1140
  128OSM    C1313655   3.815   3.483   6.407 -0.4282 -0.3166  0.3315
  128OSM   H13A13656   3.769   3.527   6.320 -2.4639  0.0387  1.5300
  128OSM   H13B13657   3.869   3.569   6.444  0.4118 -0.6645 -0.0501
  128OSM   H13C13658   3.737   3.458   6.477  1.3955 -0.2474  2.4997
  128OSM    C1213659   3.812   3.264   6.309 -0.4840 -0.4701  0.6848
  128OSM   H12A13660   3.872   3.183   6.270  0.0054 -0.4193  1.3130
  128OSM   H12B13661   3.762   3.313   6.226  0.2616  0.1422  0.5952
  128OSM    C1113662   3.705   3.185   6.396 -0.4123  0.2868  0.4700
  128OSM   H11A13663   3.627   3.253   6.438 -1.0271  0.8238 -1.4362
  128OSM   H11B13664   3.750   3.136   6.485 -3.2137 -0.7385  1.4357
  128OSM      P13665   3.494   3.067   6.292  0.2035  0.4211 -0.4068
  128OSM    O1313666   3.441   3.196   6.245 -0.5302  0.3057  0.6456
  128OSM    O1413667   3.473   2.956   6.197  0.9879 -0.2097 -0.2582
  128OSM    O1113668   3.441   3.032   6.442  0.0194  0.1969 -0.1934
  128OSM    O1213669   3.651   3.079   6.312 -0.6887 -0.0149 -0.7944
  128OSM    C1S13670   3.493   2.916   6.506  0.0757  0.9178 -0.6002
  128OSM    H1S13671   3.601   2.929   6.529 -0.0820  2.5873 -0.7037
  128OSM    H1T13672   3.464   2.827   6.446  0.3719  0.4221 -0.0293
  128OSM     NF13673   3.469   2.781   6.702  0.4339  0.1380 -0.5145
  128OSM    HNF13674   3.410   2.705   6.727  1.6577 -1.0144 -1.0515
  128OSM    C2S13675   3.414   2.896   6.642  0.3865 -0.0229  0.3693
  128OSM    H2S13676   3.444   2.982   6.706  1.4378 -0.4119  0.4194
  128OSM    C3S13677   3.270   2.891   6.629  1.0178  0.4833  0.2168
  128OSM    H3S13678   3.252   2.806   6.560 -0.0139  2.0000 -1.4801
  128OSM     O313679   3.208   3.000   6.561 -0.1933 -0.7826  0.2956
  128OSM    HO313680   3.288   3.037   6.525 -0.3416 -2.2237 -1.7138
  128OSM    C4S13681   3.208   2.862   6.764 -0.4610 -0.5550 -0.1821
  128OSM    H4S13682   3.193   2.758   6.799 -1.6302  0.4042  2.4203
  128OSM    C5S13683   3.168   2.954   6.852 -0.1679 -0.7604  0.0192
  128OSM    H5S13684   3.176   3.063   6.837 -0.4460 -0.5728  1.1303
  128OSM    C6S13685   3.104   2.913   6.982  0.0854 -0.3932  0.1764
  128OSM    H6S13686   3.000   2.878   6.966 -0.8270  1.4430  1.6410
  128OSM    H6T13687   3.090   3.005   7.043 -1.0027 -1.2617  1.2827
  128OSM    C7S13688   3.191   2.808   7.057  0.5307  0.5938 -0.7235
  128OSM    H7S13689   3.296   2.845   7.060  0.7275 -0.0067  2.0213
  128OSM    H7T13690   3.188   2.712   7.001  1.0462  0.6514 -0.8522
  128OSM    C8S13691   3.145   2.784   7.210  0.8799  0.5477  0.9140
  128OSM    H8S13692   3.178   2.694   7.265 -1.6137  0.0523  1.7058
  128OSM    H8T13693   3.036   2.766   7.210  1.0456 -0.6235  2.7527
  128OSM    C9S13694   3.167   2.903   7.296 -0.2227  0.2094 -0.0316
  128OSM    H9S13695   3.102   2.982   7.251  0.0627 -1.2179 -3.2522
  128OSM    H9T13696   3.277   2.920   7.297 -0.3567  1.1214 -0.0185
  128OSM   C10S13697   3.141   2.889   7.448  0.2378  0.3805 -0.2519
  128OSM   H10S13698   3.140   2.781   7.474  1.3168  0.4914  0.2570
  128OSM   H10T13699   3.036   2.920   7.468 -0.0840 -0.6424 -0.3206
  128OSM   C11S13700   3.228   2.961   7.547 -0.6444 -1.0263  0.2362
  128OSM   H11S13701   3.206   3.069   7.527 -0.0204 -1.1907 -1.6107
  128OSM   H11T13702   3.331   2.921   7.531 -0.4201 -1.6930  2.9086
  128OSM   C12S13703   3.193   2.927   7.694 -0.8871  0.5893  0.4458
  128OSM   H12S13704   3.185   2.817   7.707  0.1838  0.2303 -1.5503
  128OSM   H12T13705   3.095   2.977   7.709 -1.1353  0.0815  0.5368
  128OSM   C13S13706   3.289   2.982   7.798 -0.9433 -0.1722 -0.5126
  128OSM   H13S13707   3.321   3.085   7.771  0.5640 -0.7556 -1.0497
  128OSM   H13T13708   3.383   2.923   7.797  0.2553  1.5250  1.8789
  128OSM   C14S13709   3.237   2.986   7.947  0.2369 -0.5972  0.4168
  128OSM   H14S13710   3.203   2.889   7.990 -3.1125  0.3315  0.1905
  128OSM   H14T13711   3.149   3.053   7.935  2.6613  2.7438 -0.0377
  128OSM   C15S13712   3.326   3.060   8.051  0.2361 -0.1904 -0.0044
  128OSM   H15S13713   3.271   3.084   8.144 -1.3602 -2.2681 -0.3288
  128OSM   H15T13714   3.344   3.157   8.000 -0.7608 -0.0227 -0.0615
  128OSM   C16S13715   3.462   2.990   8.078  0.1275 -0.8193 -0.5033
  128OSM   H16S13716   3.533   2.972   7.994  0.6845 -0.6645 -0.0786
  128OSM   H16T13717   3.417   2.895   8.112  0.4330 -0.2100  1.8201
  128OSM   C17S13718   3.548   3.064   8.180  0.2993 -0.2449 -1.1759
  128OSM   H17S13719   3.641   3.008   8.206  0.6250  0.6967 -0.2121
  128OSM   H17T13720   3.487   3.077   8.272  0.7726  1.5815 -1.0791
  128OSM   C18S13721   3.589   3.201   8.141 -0.4478 -0.2204 -0.2211
  128OSM   H18S13722   3.638   3.193   8.041  1.4656  1.0153  0.5674
  128OSM   H18T13723   3.658   3.242   8.218 -0.6115 -0.1495 -0.1106
  128OSM   H18U13724   3.507   3.275   8.129 -0.5319 -0.0258  1.3760
  128OSM    C1F13725   3.595   2.769   6.745 -0.0082 -0.7696 -0.4096
  128OSM     OF13726   3.678   2.859   6.737  0.2615  0.3557 -0.2977
  128OSM    C2F13727   3.629   2.630   6.801  0.7596  1.2451  0.0534
  128OSM    H2F13728   3.633   2.560   6.714  1.4795 -0.4571  1.3946
  128OSM    H2G13729   3.540   2.607   6.864  1.1956 -0.0995  0.2167
  128OSM    C3F13730   3.752   2.628   6.896  0.0533  0.1617  0.2086
  128OSM    H3F13731   3.841   2.662   6.840  0.4983 -0.6651  0.3966
  128OSM    H3G13732   3.768   2.524   6.932 -1.9109  0.2272  1.4624
  128OSM    C4F13733   3.742   2.714   7.023  1.2601  0.6655 -0.4403
  128OSM    H4F13734   3.654   2.675   7.078 -0.6456  2.1619 -2.2553
  128OSM    H4G13735   3.716   2.814   6.981 -1.2610  0.5947  0.7802
  128OSM    C5F13736   3.872   2.719   7.098 -0.2712 -0.1335 -0.3000
  128OSM    H5F13737   3.936   2.804   7.068  1.2008 -1.4534 -0.9872
  128OSM    H5G13738   3.937   2.629   7.095 -0.6412 -0.4977  1.4192
  128OSM    C6F13739   3.850   2.713   7.256  0.0496 -0.1786  0.0643
  128OSM    H6F13740   3.946   2.741   7.304 -0.5905  2.2650  0.0510
  128OSM    H6G13741   3.826   2.609   7.287  0.9466  0.2003  2.2323
  128OSM    C7F13742   3.743   2.815   7.317  0.1756  0.3816 -0.1119
  128OSM    H7F13743   3.647   2.781   7.273 -0.2850  1.3006  0.1678
  128OSM    H7G13744   3.764   2.919   7.283 -0.6858  0.2391 -1.1081
  128OSM    C8F13745   3.708   2.815   7.464 -0.4383  0.5953  0.3296
  128OSM    H8F13746   3.606   2.859   7.459 -1.2317 -1.2880 -0.8661
  128OSM    H8G13747   3.767   2.889   7.524 -0.4048  0.0783  0.9437
  128OSM    C9F13748   3.719   2.685   7.540  0.4511  0.0885 -0.4859
  128OSM    H9F13749   3.660   2.605   7.493 -0.2729  0.1211  0.3216
  128OSM   C10F13750   3.777   2.666   7.659 -1.1077  0.4872  0.1145
  128OSM   H10F13751   3.773   2.566   7.704 -1.1900  0.8887  1.0266
  128OSM   C11F13752   3.862   2.758   7.740 -0.3252 -0.7039 -0.1669
  128OSM   H11F13753   3.889   2.848   7.681 -0.3155 -0.6944 -0.1482
  128OSM   H11G13754   3.953   2.712   7.785 -0.5811 -1.1604 -0.1079
  128OSM   C12F13755   3.772   2.816   7.855  0.1783  0.0268 -0.8830
  128OSM   H12F13756   3.679   2.868   7.823  2.1526  4.9329  0.4511
  128OSM   H12G13757   3.833   2.897   7.900 -1.0456  1.2016 -1.2893
  128OSM   C13F13758   3.714   2.711   7.949 -0.0210  0.2981 -0.4665
  128OSM   H13F13759   3.639   2.650   7.895 -0.7410 -1.5431  2.4208
  128OSM   H13G13760   3.651   2.755   8.028 -2.2286 -5.0905  1.2232
  128OSM   C14F13761   3.819   2.636   8.025  0.2703  0.6498 -0.7143
  128OSM   H14F13762   3.885   2.715   8.065  0.1179 -0.7754  2.7402
  128OSM   H14G13763   3.872   2.578   7.947 -0.1695  1.9332 -2.0114
  128OSM   C15F13764   3.771   2.539   8.135 -0.3205  0.7650 -0.4351
  128OSM   H15F13765   3.856   2.498   8.193 -1.1655 -1.0513 -0.4378
  128OSM   H15G13766   3.702   2.460   8.100  1.5173 -1.9467  1.6186
  128OSM   C16F13767   3.691   2.628   8.242 -0.8466  0.4300 -0.2080
  128OSM   H16F13768   3.690   2.566   8.335  0.1808 -0.1384 -0.5536
  128OSM   H16G13769   3.588   2.661   8.217 -1.1361  0.2417  0.6981
  128OSM   C17F13770   3.777   2.746   8.286  0.1576  0.0373 -0.5871
  128OSM   H17F13771   3.730   2.801   8.371 -1.5138 -0.5974 -1.0696
  128OSM   H17G13772   3.776   2.825   8.207 -1.2988 -0.7146 -1.3571
  128OSM   C18F13773   3.921   2.717   8.326 -0.3691  0.4712  0.7972
  128OSM   H18F13774   3.991   2.706   8.241 -1.2700  0.9596 -0.0376
  128OSM   H18G13775   3.931   2.626   8.388  0.5506  0.7624  1.0860
  128OSM   H18H13776   3.953   2.808   8.382 -1.2484  0.8089  0.7734
  129OSM      N13777   1.502   6.782   5.811  0.3591  0.0141  0.3945
  129OSM    C1513778   1.453   6.647   5.859  0.2241 -0.4087  0.0825
  129OSM   H15A13779   1.349   6.636   5.883  0.2985 -0.9519  0.1785
  129OSM   H15B13780   1.497   6.618   5.954  2.6794 -0.5678 -1.0279
  129OSM   H15C13781   1.478   6.571   5.786  1.1746  2.0905 -2.3780
  129OSM    C1413782   1.647   6.782   5.803 -0.4686  0.2343  0.4684
  129OSM   H14A13783   1.674   6.705   5.732  0.1546  0.2072  0.7286
  129OSM   H14B13784   1.690   6.752   5.897  2.3380 -2.3394 -1.4544
  129OSM   H14C13785   1.693   6.874   5.770  0.0134  0.7256  2.3887
  129OSM    C1313786   1.441   6.796   5.677 -0.2531  0.3151 -0.6183
  129OSM   H13A13787   1.473   6.886   5.626  0.0406  0.6476  0.1294
  129OSM   H13B13788   1.334   6.789   5.683 -0.1919  0.1456  0.5426
  129OSM   H13C13789   1.466   6.706   5.622  0.1903 -0.0499  0.1663
  129OSM    C1213790   1.461   6.888   5.904  0.1598 -0.0559  0.3673
  129OSM   H12A13791   1.511   6.983   5.887 -1.2816  0.7252  0.2832
  129OSM   H12B13792   1.501   6.877   6.004 -0.7543 -0.1144  0.7332
  129OSM    C1113793   1.301   6.920   5.904  0.1314 -0.3449 -0.2692
  129OSM   H11A13794   1.289   6.964   5.803  0.8861  0.5593  0.0165
  129OSM   H11B13795   1.285   7.009   5.970  1.3340  0.9203 -1.6205
  129OSM      P13796   1.173   6.771   6.068  0.4699  0.5806 -0.0140
  129OSM    O1313797   1.112   6.896   6.127 -1.0951 -0.5923  0.3808
  129OSM    O1413798   1.090   6.652   6.065  0.5316 -0.4233  0.1536
  129OSM    O1113799   1.319   6.741   6.128 -0.1251  0.4123 -0.0378
  129OSM    O1213800   1.213   6.807   5.928 -0.0547  0.3834  0.2117
  129OSM    C1S13801   1.353   6.744   6.265 -0.0193 -0.0150 -0.5330
  129OSM    H1S13802   1.298   6.823   6.321  2.1018 -0.8164  2.9734
  129OSM    H1T13803   1.463   6.758   6.269 -0.1309  0.9346 -0.6230
  129OSM     NF13804   1.309   6.626   6.478  0.1389  0.1254 -0.2775
  129OSM    HNF13805   1.378   6.589   6.539  2.1257  1.6957 -1.4168
  129OSM    C2S13806   1.325   6.604   6.331 -0.9413 -0.1498 -0.8138
  129OSM    H2S13807   1.229   6.569   6.288 -0.8881 -1.0481 -0.2401
  129OSM    C3S13808   1.421   6.500   6.279  0.3738  0.0340  0.0622
  129OSM    H3S13809   1.522   6.535   6.310  0.6657  0.1860 -1.0219
  129OSM     O313810   1.439   6.498   6.140  0.1314 -0.0411  0.0259
  129OSM    HO313811   1.416   6.587   6.113  1.4177  0.3907  0.2481
  129OSM    C4S13812   1.387   6.357   6.333 -0.0028  0.0317 -0.1760
  129OSM    H4S13813   1.458   6.336   6.415  0.5247  0.8345 -0.4253
  129OSM    C5S13814   1.282   6.279   6.304  0.5961 -0.7356 -0.3429
  129OSM    H5S13815   1.208   6.314   6.230  0.2859  3.7582  1.7758
  129OSM    C6S13816   1.245   6.152   6.363 -0.4355  1.0731 -0.3014
  129OSM    H6S13817   1.265   6.072   6.288  0.7622  1.0156  0.0572
  129OSM    H6T13818   1.138   6.139   6.389 -0.9474  0.3455 -2.5640
  129OSM    C7S13819   1.322   6.119   6.487  0.1079 -0.3732 -0.5170
  129OSM    H7S13820   1.327   6.214   6.543  0.7889  0.7118 -2.3491
  129OSM    H7T13821   1.422   6.080   6.458  0.1065 -0.1933 -0.7689
  129OSM    C8S13822   1.264   6.017   6.593 -0.7322 -0.4503  0.3221
  129OSM    H8S13823   1.163   6.045   6.629 -0.4964  2.2132 -0.8079
  129OSM    H8T13824   1.332   6.012   6.680 -1.3201 -0.1866  0.8012
  129OSM    C9S13825   1.271   5.877   6.538 -0.0482 -0.0112  0.2095
  129OSM    H9S13826   1.377   5.857   6.510  0.0747  1.0602 -0.1082
  129OSM    H9T13827   1.215   5.866   6.442 -0.4511  2.0123  0.1815
  129OSM   C10S13828   1.217   5.769   6.632  0.2959 -0.0181 -0.8283
  129OSM   H10S13829   1.218   5.667   6.586 -0.2082 -1.3721  1.9779
  129OSM   H10T13830   1.110   5.788   6.657  0.3943 -0.1116 -0.3424
  129OSM   C11S13831   1.307   5.746   6.754 -0.2658 -0.3244  0.3909
  129OSM   H11S13832   1.303   5.837   6.816 -0.0257 -1.0280  1.4668
  129OSM   H11T13833   1.407   5.739   6.706 -0.4971  0.2207 -0.1855
  129OSM   C12S13834   1.281   5.634   6.846 -0.8619 -0.9455 -0.7023
  129OSM   H12S13835   1.270   5.536   6.796 -1.9127 -0.2933 -1.8299
  129OSM   H12T13836   1.181   5.661   6.888  0.4645  0.7969  1.6366
  129OSM   C13S13837   1.379   5.629   6.958 -0.0618 -0.0054 -0.1619
  129OSM   H13S13838   1.484   5.643   6.924  0.0218 -0.6512 -0.1780
  129OSM   H13T13839   1.382   5.526   7.000 -1.2239 -0.2956 -0.7682
  129OSM   C14S13840   1.345   5.731   7.067 -0.1935  0.2144 -0.6961
  129OSM   H14S13841   1.240   5.722   7.100  0.2100  1.2289  0.9868
  129OSM   H14T13842   1.367   5.832   7.025  2.6327 -1.7514 -4.6090
  129OSM   C15S13843   1.430   5.696   7.190 -0.4008  0.3241  0.0152
  129OSM   H15S13844   1.536   5.727   7.176  0.0537 -1.2548 -0.2031
  129OSM   H15T13845   1.438   5.585   7.187 -0.6615  0.3001  0.2455
  129OSM   C16S13846   1.368   5.737   7.322  0.3526 -0.1137  0.2844
  129OSM   H16S13847   1.270   5.691   7.344  1.3372 -0.9686  3.3531
  129OSM   H16T13848   1.358   5.848   7.317  0.3307 -0.0012  2.2527
  129OSM   C17S13849   1.453   5.690   7.438  0.9590  0.2875 -0.4695
  129OSM   H17S13850   1.558   5.725   7.432  1.3253 -0.9985 -2.6854
  129OSM   H17T13851   1.462   5.581   7.414  0.6187  0.5630 -1.9546
  129OSM   C18S13852   1.399   5.718   7.577  1.2193  0.6160  0.1720
  129OSM   H18S13853   1.392   5.829   7.590  0.9812  0.6636 -0.3471
  129OSM   H18T13854   1.475   5.681   7.649  0.7490  0.2690  0.4911
  129OSM   H18U13855   1.303   5.667   7.600  2.4726 -1.6218  0.7328
  129OSM    C1F13856   1.213   6.698   6.539 -0.0206 -0.4035  0.6961
  129OSM     OF13857   1.111   6.740   6.482 -0.1277  0.1011 -0.3538
  129OSM    C2F13858   1.239   6.728   6.681 -0.2431 -0.2716  0.3092
  129OSM    H2F13859   1.277   6.832   6.679 -0.6033 -0.1340  0.5033
  129OSM    H2G13860   1.302   6.658   6.741  1.4129  1.4276  0.6447
  129OSM    C3F13861   1.103   6.746   6.755 -0.5569 -0.6407  0.2385
  129OSM    H3F13862   1.035   6.659   6.746  0.0228 -1.0357 -0.5370
  129OSM    H3G13863   1.059   6.835   6.706  1.6963  0.1746 -0.4750
  129OSM    C4F13864   1.113   6.771   6.907  0.9858  0.2406 -0.3226
  129OSM    H4F13865   1.008   6.789   6.940  0.4135 -0.5448 -1.6334
  129OSM    H4G13866   1.177   6.861   6.921  1.2018 -0.2276  2.1094
  129OSM    C5F13867   1.168   6.655   6.991  0.1435  0.2889  0.2303
  129OSM    H5F13868   1.277   6.639   6.979  0.1184 -0.0469  0.4427
  129OSM    H5G13869   1.116   6.559   6.971 -0.5283  0.0973  2.5039
  129OSM    C6F13870   1.154   6.669   7.149  0.5392  0.4723  0.4612
  129OSM    H6F13871   1.190   6.568   7.179  1.8933  0.0870 -2.1986
  129OSM    H6G13872   1.046   6.689   7.169  0.3980  2.3788 -1.7835
  129OSM    C7F13873   1.244   6.778   7.207  0.4147 -0.2643 -0.0644
  129OSM    H7F13874   1.238   6.866   7.139  0.2321 -0.5919 -0.4754
  129OSM    H7G13875   1.351   6.748   7.199  0.2241 -1.1721  0.6429
  129OSM    C8F13876   1.223   6.804   7.358 -0.0785 -0.2490  0.1832
  129OSM    H8F13877   1.210   6.707   7.410  0.8634  0.5510  1.9753
  129OSM    H8G13878   1.126   6.857   7.365  0.4763  0.8963 -0.5860
  129OSM    C9F13879   1.334   6.884   7.417 -0.1169  0.8394 -0.7201
  129OSM    H9F13880   1.387   6.947   7.343 -2.6951  3.2678 -0.6892
  129OSM   C10F13881   1.344   6.917   7.545 -0.7261  0.0257  0.1308
  129OSM   H10F13882   1.437   6.966   7.577 -0.4171 -0.3173 -0.2440
  129OSM   C11F13883   1.258   6.862   7.652 -0.3381  0.1875 -1.0827
  129OSM   H11F13884   1.220   6.760   7.628 -1.0149  0.4087 -0.9780
  129OSM   H11G13885   1.170   6.922   7.683 -0.2879  0.0010 -0.5601
  129OSM   C12F13886   1.345   6.859   7.782 -0.8771  0.2163 -0.2990
  129OSM   H12F13887   1.277   6.818   7.860  0.3128  1.1425  1.2813
  129OSM   H12G13888   1.391   6.955   7.815  0.1484 -0.2225 -0.4156
  129OSM   C13F13889   1.470   6.766   7.775  0.6600  0.2312  0.9020
  129OSM   H13F13890   1.535   6.800   7.691 -1.3418  0.5200 -0.6141
  129OSM   H13G13891   1.436   6.667   7.735 -1.1900  0.2021  2.4054
  129OSM   C14F13892   1.541   6.768   7.912  0.0127  0.1839  0.0359
  129OSM   H14F13893   1.468   6.781   7.995 -0.4059 -0.7976 -0.1589
  129OSM   H14G13894   1.603   6.859   7.921  1.5205 -0.7270 -0.7895
  129OSM   C15F13895   1.638   6.651   7.946  0.1745 -0.3065 -0.2453
  129OSM   H15F13896   1.711   6.644   7.863 -0.5639  0.3218 -0.9627
  129OSM   H15G13897   1.573   6.561   7.947 -1.1991  0.6437  1.2165
  129OSM   C16F13898   1.711   6.648   8.077  0.0963  0.4006 -0.1731
  129OSM   H16F13899   1.633   6.636   8.156 -1.4070  1.5305 -1.4224
  129OSM   H16G13900   1.759   6.747   8.094  2.0105 -0.5552  0.2749
  129OSM   C17F13901   1.809   6.528   8.083  0.4677  0.1702  0.9931
  129OSM   H17F13902   1.890   6.543   8.007 -1.2120  0.6167 -0.7938
  129OSM   H17G13903   1.764   6.432   8.050  3.1972 -1.1058  0.7054
  129OSM   C18F13904   1.870   6.502   8.216 -0.3333  0.1830  0.2146
  129OSM   H18F13905   1.791   6.481   8.291 -1.5047  1.4145 -0.6202
  129OSM   H18G13906   1.923   6.588   8.260  0.2087 -0.0484  0.0172
  129OSM   H18H13907   1.939   6.415   8.211 -0.5498  0.0338 -0.2054
  130OSM      N13908   2.881   2.571   5.975 -0.6590  0.9249  0.1489
  130OSM    C1513909   2.800   2.650   5.890  0.0941 -0.8648  0.6642
  130OSM   H15A13910   2.696   2.622   5.893 -0.1081 -0.3828 -1.0261
  130OSM   H15B13911   2.821   2.652   5.784 -0.5124  2.3174  0.5025
  130OSM   H15C13912   2.804   2.753   5.923  0.5314 -1.7582  3.6585
  130OSM    C1413913   2.868   2.429   5.932 -0.1543  0.0938  0.1432
  130OSM   H14A13914   2.891   2.431   5.827  0.7347  1.9778  0.3329
  130OSM   H14B13915   2.776   2.378   5.959 -0.3444  0.8531  0.9832
  130OSM   H14C13916   2.945   2.373   5.983  0.5260 -0.9533 -1.9446
  130OSM    C1313917   3.028   2.612   5.946 -0.1858 -0.2798  0.1837
  130OSM   H13A13918   3.048   2.604   5.840  0.1021 -0.5792  0.2583
  130OSM   H13B13919   3.095   2.543   5.995 -0.1666  1.1077  2.2403
  130OSM   H13C13920   3.049   2.711   5.985 -2.3750  0.8047 -1.1950
  130OSM    C1213921   2.833   2.596   6.118  0.0531  0.4228  0.6184
  130OSM   H12A13922   2.734   2.553   6.117  0.5875 -0.9138 -1.2168
  130OSM   H12B13923   2.837   2.700   6.145 -1.4135  0.3981  0.9803
  130OSM    C1113924   2.910   2.523   6.236  0.3809 -0.0844 -0.2229
  130OSM   H11A13925   2.889   2.414   6.223 -2.0120  0.2817  0.0756
  130OSM   H11B13926   2.859   2.551   6.331  2.1782 -1.9840  1.3932
  130OSM      P13927   3.103   2.664   6.322 -0.0024  0.1161  0.1566
  130OSM    O1313928   3.249   2.642   6.331 -0.4180  0.6880  0.6714
  130OSM    O1413929   3.049   2.795   6.281  0.1542 -0.2095  0.5443
  130OSM    O1113930   3.037   2.631   6.470 -0.3113  0.3274  0.6401
  130OSM    O1213931   3.046   2.549   6.236 -0.2716 -0.4174  0.8722
  130OSM    C1S13932   3.078   2.516   6.535 -0.3995 -0.4144 -0.1011
  130OSM    H1S13933   3.186   2.493   6.521 -0.3298  0.3040 -0.7821
  130OSM    H1T13934   3.021   2.428   6.497 -3.1929  0.0059  2.6876
  130OSM     NF13935   3.144   2.412   6.739  0.3414 -0.1097 -0.6387
  130OSM    HNF13936   3.122   2.315   6.732  4.2659 -1.3626  1.2241
  130OSM    C2S13937   3.049   2.510   6.689 -0.6123 -0.2977 -0.5913
  130OSM    H2S13938   3.078   2.609   6.732  2.1386 -1.8784  1.5186
  130OSM    C3S13939   2.901   2.481   6.706 -0.0892  0.1670  0.2538
  130OSM    H3S13940   2.892   2.373   6.679  1.2149 -0.0526  0.6373
  130OSM     O313941   2.812   2.554   6.616 -0.1084 -0.1926 -0.1390
  130OSM    HO313942   2.871   2.602   6.557  0.8893 -1.9777 -0.7079
  130OSM    C4S13943   2.864   2.491   6.849  0.3771 -0.4914  0.5740
  130OSM    H4S13944   2.892   2.397   6.898  2.2097 -1.9276 -2.8941
  130OSM    C5S13945   2.826   2.602   6.912 -0.2931  0.3597  0.1697
  130OSM    H5S13946   2.843   2.694   6.856  1.5794  1.5247  2.4500
  130OSM    C6S13947   2.795   2.604   7.062  1.0150  0.0154  0.0508
  130OSM    H6S13948   2.685   2.605   7.077  0.8088  0.3052 -1.3996
  130OSM    H6T13949   2.839   2.696   7.107  1.6423  0.1906 -0.9063
  130OSM    C7S13950   2.866   2.495   7.146 -0.2162 -0.5134 -0.3373
  130OSM    H7S13951   2.975   2.495   7.123 -0.3685  0.8533 -1.2063
  130OSM    H7T13952   2.819   2.397   7.126  0.6434 -1.7411  3.0456
  130OSM    C8S13953   2.835   2.530   7.292  0.0952 -0.5163  0.4631
  130OSM    H8S13954   2.730   2.566   7.300  0.4220  1.2805 -2.1854
  130OSM    H8T13955   2.901   2.614   7.323  1.1282 -1.2922  0.4180
  130OSM    C9S13956   2.871   2.416   7.385 -0.1658  0.5044 -0.1987
  130OSM    H9S13957   2.976   2.389   7.361  0.4099  2.2326  0.1964
  130OSM    H9T13958   2.793   2.341   7.361  0.3011  0.7370 -2.8294
  130OSM   C10S13959   2.849   2.454   7.531 -0.1285 -0.4414 -0.2470
  130OSM   H10S13960   2.753   2.509   7.540  0.7450  1.2258 -0.5818
  130OSM   H10T13961   2.929   2.523   7.568 -1.7201  1.0272  0.6283
  130OSM   C11S13962   2.832   2.330   7.616 -0.2194 -0.6567  0.2817
  130OSM   H11S13963   2.919   2.264   7.592  1.2238  2.2334 -3.5346
  130OSM   H11T13964   2.742   2.274   7.583 -1.6449  0.9435  1.3335
  130OSM   C12S13965   2.819   2.358   7.770 -0.2329  0.3761 -0.2450
  130OSM   H12S13966   2.768   2.457   7.778 -1.6162 -0.4085  1.2784
  130OSM   H12T13967   2.922   2.359   7.812 -0.6719 -0.6679  0.9141
  130OSM   C13S13968   2.745   2.246   7.852  0.2980 -0.4202 -0.7413
  130OSM   H13S13969   2.753   2.143   7.813  1.6324 -0.0661 -1.4485
  130OSM   H13T13970   2.634   2.254   7.852 -0.0204 -3.4218  1.5127
  130OSM   C14S13971   2.785   2.240   7.999 -0.0376  1.2117  0.0451
  130OSM   H14S13972   2.883   2.188   8.009 -1.6135 -1.8736  0.7324
  130OSM   H14T13973   2.712   2.169   8.043 -0.2737  0.4023 -1.5561
  130OSM   C15S13974   2.779   2.376   8.070 -0.5171 -0.5358  0.5118
  130OSM   H15S13975   2.670   2.399   8.068 -0.2530  0.8721 -1.8273
  130OSM   H15T13976   2.835   2.462   8.030 -1.0433 -0.2901  0.2922
  130OSM   C16S13977   2.802   2.382   8.232  0.4648 -0.7200  0.6390
  130OSM   H16S13978   2.806   2.490   8.258 -1.6922 -0.4818  0.1342
  130OSM   H16T13979   2.910   2.356   8.243  0.7661  0.8236  1.5899
  130OSM   C17S13980   2.712   2.300   8.319  0.2299 -0.5499  0.1022
  130OSM   H17S13981   2.758   2.199   8.332 -0.7728 -0.7571  2.6780
  130OSM   H17T13982   2.611   2.284   8.276 -0.0476 -3.6349  1.5553
  130OSM   C18S13983   2.706   2.353   8.471 -0.0813  0.5223  0.0280
  130OSM   H18S13984   2.667   2.277   8.542  2.2940  1.1492  2.1920
  130OSM   H18T13985   2.625   2.428   8.474 -1.7700 -1.1533 -1.4460
  130OSM   H18U13986   2.797   2.402   8.512 -0.5418  1.8936 -0.5297
  130OSM    C1F13987   3.266   2.446   6.788 -0.0967 -0.2685  0.3175
  130OSM     OF13988   3.322   2.554   6.756 -0.7220  0.2535 -0.1186
  130OSM    C2F13989   3.320   2.350   6.886 -0.3487 -0.4398 -0.2348
  130OSM    H2F13990   3.348   2.254   6.837 -0.7729 -0.6932  0.0107
  130OSM    H2G13991   3.228   2.315   6.937 -0.9061 -1.6277 -1.9651
  130OSM    C3F13992   3.414   2.410   6.996 -0.1475  1.1444  0.2468
  130OSM    H3F13993   3.383   2.516   7.007  0.9092  1.7340 -1.8867
  130OSM    H3G13994   3.516   2.417   6.951 -0.2621  1.0807 -0.0209
  130OSM    C4F13995   3.408   2.332   7.131 -0.5153  0.0065  0.7916
  130OSM    H4F13996   3.492   2.380   7.187  2.0779 -2.0397 -1.0578
  130OSM    H4G13997   3.431   2.226   7.107 -0.2485  0.2805 -0.1731
  130OSM    C5F13998   3.275   2.347   7.208 -0.1515  0.3401 -0.7273
  130OSM    H5F13999   3.191   2.316   7.142 -0.1494  0.6136 -0.8617
  130OSM    H5G14000   3.266   2.455   7.231  1.9109 -0.0374  2.4324
  130OSM    C6F14001   3.278   2.278   7.346 -0.3472  0.3612 -0.3478
  130OSM    H6F14002   3.325   2.179   7.324  0.7054  0.6166  0.6604
  130OSM    H6G14003   3.171   2.255   7.367 -0.2808 -0.4980 -0.9036
  130OSM    C7F14004   3.346   2.356   7.458  0.0845 -0.1191 -0.9802
  130OSM    H7F14005   3.434   2.404   7.409 -0.5688  2.2084 -0.0455
  130OSM    H7G14006   3.378   2.280   7.533 -1.0234 -0.4776 -0.8603
  130OSM    C8F14007   3.249   2.447   7.525 -0.1148 -0.2880  0.1433
  130OSM    H8F14008   3.160   2.393   7.562 -0.4998 -0.0231 -0.3790
  130OSM    H8G14009   3.211   2.493   7.431 -1.5419 -0.6677  0.5022
  130OSM    C9F14010   3.314   2.551   7.617 -0.3467  0.1855  0.4878
  130OSM    H9F14011   3.374   2.630   7.569 -0.3211 -1.1989 -1.9424
  130OSM   C10F14012   3.315   2.552   7.754  0.6246  0.0385 -0.1814
  130OSM   H10F14013   3.379   2.630   7.799 -0.1548  0.5617  0.0625
  130OSM   C11F14014   3.240   2.466   7.855  0.7591 -0.0135  0.3555
  130OSM   H11F14015   3.305   2.390   7.903  0.0581 -0.3433  0.7860
  130OSM   H11G14016   3.165   2.405   7.801 -0.1660 -1.0479  2.7055
  130OSM   C12F14017   3.163   2.554   7.956  0.3353 -0.2080  0.1976
  130OSM   H12F14018   3.083   2.491   8.001  0.7241 -0.3673  0.6662
  130OSM   H12G14019   3.104   2.636   7.909  1.0462  0.0741 -0.2174
  130OSM   C13F14020   3.256   2.606   8.066  0.5668 -0.1133 -0.1210
  130OSM   H13F14021   3.316   2.679   8.007  2.6651 -1.6284  0.0438
  130OSM   H13G14022   3.311   2.515   8.096 -0.1328 -0.7848 -0.8387
  130OSM   C14F14023   3.174   2.664   8.178  0.2390 -0.4054  0.0067
  130OSM   H14F14024   3.086   2.599   8.197 -0.4058  0.2491 -0.6375
  130OSM   H14G14025   3.135   2.768   8.169  0.7571 -0.0388  1.6348
  130OSM   C15F14026   3.248   2.675   8.312  0.1285 -0.2155 -0.4813
  130OSM   H15F14027   3.307   2.769   8.315  2.8769 -1.8433  0.0325
  130OSM   H15G14028   3.317   2.593   8.342 -0.5471  0.3523  3.1037
  130OSM   C16F14029   3.162   2.682   8.442  0.5552  0.0117 -0.0350
  130OSM   H16F14030   3.120   2.785   8.451  0.7846 -0.0656  3.3302
  130OSM   H16G14031   3.231   2.677   8.529  0.0608  2.1260  0.5446
  130OSM   C17F14032   3.057   2.565   8.456  0.2821 -0.3037 -0.2137
  130OSM   H17F14033   2.985   2.548   8.374  0.0701 -0.4333 -0.0030
  130OSM   H17G14034   3.007   2.594   8.552  0.1319  1.3773 -0.7577
  130OSM   C18F14035   3.118   2.425   8.476  0.2530 -0.3279  0.6689
  130OSM   H18F14036   3.190   2.397   8.395  0.0751 -0.0257  0.4034
  130OSM   H18G14037   3.038   2.349   8.481  0.9187 -1.2603 -1.5734
  130OSM   H18H14038   3.179   2.418   8.569 -0.2750  1.7521  1.2347
  131OSM      N14039   5.117   0.777   6.173  0.1471  0.4469 -0.6906
  131OSM    C1514040   5.097   0.762   6.028 -0.3215 -0.9610 -0.4795
  131OSM   H15A14041   5.197   0.757   5.988  0.5061  0.9908  1.1691
  131OSM   H15B14042   5.039   0.845   5.990  1.7262  1.6830  1.7318
  131OSM   H15C14043   5.050   0.666   6.016 -0.1402 -1.3146  1.4317
  131OSM    C1414044   5.207   0.896   6.196 -0.4399  0.2133 -0.1903
  131OSM   H14A14045   5.216   0.933   6.297  1.6651  2.7934 -1.2085
  131OSM   H14B14046   5.168   0.978   6.137 -1.3371 -1.0141 -1.3710
  131OSM   H14C14047   5.309   0.871   6.170 -0.4740 -2.3220  1.7350
  131OSM    C1314048   4.984   0.812   6.231 -0.4272  0.0499  0.1044
  131OSM   H13A14049   4.920   0.730   6.201  0.0226  0.3319 -1.7709
  131OSM   H13B14050   4.940   0.902   6.192 -1.3949 -0.1636  0.6713
  131OSM   H13C14051   4.982   0.821   6.338  0.9710  0.4984  0.1138
  131OSM    C1214052   5.177   0.652   6.244 -0.1093 -0.2930 -1.0491
  131OSM   H12A14053   5.188   0.672   6.350 -0.0212 -2.2176 -0.6592
  131OSM   H12B14054   5.280   0.654   6.214 -0.8971  0.4966 -4.0062
  131OSM    C1114055   5.107   0.511   6.238  0.4492  0.0290 -0.3289
  131OSM   H11A14056   5.161   0.429   6.290  0.3488 -1.4470 -2.4336
  131OSM   H11B14057   5.108   0.473   6.133 -2.1679 -1.3436  0.0478
  131OSM      P14058   4.932   0.542   6.438 -0.0147  0.3967  0.0521
  131OSM    O1314059   4.826   0.639   6.451  0.7672 -0.2845  0.1357
  131OSM    O1414060   4.905   0.409   6.502 -0.5200  0.1922 -0.2366
  131OSM    O1114061   5.061   0.602   6.497 -0.3578  0.4204  0.4543
  131OSM    O1214062   4.976   0.517   6.281  0.2274  0.1103  0.3695
  131OSM    C1S14063   5.055   0.711   6.589 -0.6919 -0.4014 -0.2227
  131OSM    H1S14064   4.960   0.767   6.578 -1.0416 -1.0418 -0.4780
  131OSM    H1T14065   5.123   0.795   6.561 -1.1959  0.3168  0.6641
  131OSM     NF14066   5.062   0.786   6.821  0.3566 -0.0582  0.4833
  131OSM    HNF14067   5.135   0.854   6.817  1.2468 -1.0451 -0.8303
  131OSM    C2S14068   5.081   0.668   6.738 -0.1396 -1.0469 -0.2882
  131OSM    H2S14069   5.012   0.584   6.763 -2.8629  0.5243 -2.0299
  131OSM    C3S14070   5.233   0.616   6.747 -0.3813 -0.5982 -0.0068
  131OSM    H3S14071   5.305   0.695   6.715 -0.4926 -1.0960 -1.5541
  131OSM     O314072   5.255   0.512   6.659  0.2722 -0.1601 -0.2917
  131OSM    HO314073   5.185   0.509   6.594  0.4905 -0.8182 -0.5082
  131OSM    C4S14074   5.274   0.575   6.894 -0.2603 -0.4988  0.3079
  131OSM    H4S14075   5.311   0.667   6.942 -3.8903  0.9242  0.7042
  131OSM    C5S14076   5.277   0.457   6.952  0.0553  0.0628 -0.6006
  131OSM    H5S14077   5.232   0.384   6.884 -0.4358  2.1018 -2.5891
  131OSM    C6S14078   5.310   0.410   7.091 -0.3503  0.3379  0.0116
  131OSM    H6S14079   5.407   0.356   7.081 -1.9051 -3.1485  1.8685
  131OSM    H6T14080   5.242   0.333   7.133  1.3052  0.1687  2.6093
  131OSM    C7S14081   5.327   0.520   7.202 -0.1873  0.0523  0.9485
  131OSM    H7S14082   5.222   0.555   7.211 -0.0886  0.4651  0.5137
  131OSM    H7T14083   5.390   0.601   7.159  0.7895 -1.7054 -1.1648
  131OSM    C8S14084   5.397   0.465   7.327  0.4281  0.6490  0.6425
  131OSM    H8S14085   5.498   0.429   7.299  0.2862  0.5868  0.1959
  131OSM    H8T14086   5.340   0.377   7.365 -0.1109  1.9414  2.9868
  131OSM    C9S14087   5.405   0.574   7.434 -0.3045  0.1881  0.1954
  131OSM    H9S14088   5.306   0.625   7.437  0.1236  1.0111  1.7332
  131OSM    H9T14089   5.469   0.655   7.393  0.0446 -0.6509 -0.9614
  131OSM   C10S14090   5.462   0.523   7.563  0.2411 -0.6102  0.1826
  131OSM   H10S14091   5.567   0.489   7.550  0.1743 -0.7163 -0.0823
  131OSM   H10T14092   5.398   0.436   7.591  3.4900 -2.5614  2.1427
  131OSM   C11S14093   5.451   0.628   7.674  0.2833 -0.0891 -0.2049
  131OSM   H11S14094   5.343   0.652   7.670  0.7324  1.9734 -2.5732
  131OSM   H11T14095   5.512   0.718   7.651 -2.6118  2.3411  0.9133
  131OSM   C12S14096   5.501   0.581   7.810 -0.8479  0.2810 -0.4341
  131OSM   H12S14097   5.604   0.542   7.798 -0.1247  2.3616 -1.5710
  131OSM   H12T14098   5.456   0.481   7.824 -0.4149  0.2948  1.3894
  131OSM   C13S14099   5.488   0.684   7.922  0.7700  0.7197  0.6792
  131OSM   H13S14100   5.549   0.774   7.897 -1.3387  1.6668 -1.4282
  131OSM   H13T14101   5.535   0.638   8.012  1.3697  0.7831  0.4008
  131OSM   C14S14102   5.341   0.708   7.956 -0.3884  0.1472  0.3817
  131OSM   H14S14103   5.290   0.610   7.949  2.1936 -1.3502  1.1445
  131OSM   H14T14104   5.297   0.780   7.883  0.2796  2.8990  2.5205
  131OSM   C15S14105   5.311   0.762   8.096  0.2450 -0.0206  0.4652
  131OSM   H15S14106   5.204   0.790   8.100  0.1547 -0.4866  2.4273
  131OSM   H15T14107   5.353   0.864   8.112 -2.8016  1.3671  0.3046
  131OSM   C16S14108   5.351   0.671   8.210  0.0415 -0.2390  0.2709
  131OSM   H16S14109   5.461   0.662   8.206 -0.0912 -2.1633 -0.2021
  131OSM   H16T14110   5.329   0.563   8.199  3.1539 -0.9657  0.4060
  131OSM   C17S14111   5.298   0.707   8.351 -0.3488 -0.7380  0.6289
  131OSM   H17S14112   5.329   0.810   8.376  0.5655 -0.6708 -0.6466
  131OSM   H17T14113   5.346   0.642   8.428  1.4965  2.0673  2.0199
  131OSM   C18S14114   5.146   0.684   8.376 -0.1285  0.5736 -0.0647
  131OSM   H18S14115   5.110   0.716   8.476  0.5161 -0.2911  0.4595
  131OSM   H18T14116   5.121   0.578   8.353 -0.3484  0.9392 -1.5931
  131OSM   H18U14117   5.093   0.752   8.306  1.3548  1.0660 -0.7438
  131OSM    C1F14118   4.939   0.830   6.857 -0.3904 -0.2451  0.0459
  131OSM     OF14119   4.839   0.766   6.843  0.3019  0.5449  0.2855
  131OSM    C2F14120   4.934   0.979   6.902 -0.3716  0.2871  0.5986
  131OSM    H2F14121   4.925   1.035   6.806  1.3847 -1.5089 -0.7158
  131OSM    H2G14122   5.028   1.009   6.953  1.3863 -2.3126 -0.8483
  131OSM    C3F14123   4.802   1.010   6.975  0.0739 -0.0335 -0.2567
  131OSM    H3F14124   4.714   0.959   6.930  0.5739 -1.2068  0.0488
  131OSM    H3G14125   4.789   1.120   6.970 -3.1201 -0.3526 -1.7272
  131OSM    C4F14126   4.805   0.973   7.128  0.3129  0.5107 -0.1235
  131OSM    H4F14127   4.836   0.866   7.133 -0.7672  0.1786 -0.2437
  131OSM    H4G14128   4.702   0.962   7.169 -0.1319 -2.0287 -1.6767
  131OSM    C5F14129   4.895   1.060   7.212  0.5202  0.2842 -0.3505
  131OSM    H5F14130   4.872   1.169   7.206 -1.2759  0.0461  1.2942
  131OSM    H5G14131   4.999   1.040   7.179  0.3423 -3.3871  0.8614
  131OSM    C6F14132   4.869   1.021   7.360  0.2408 -0.2103  0.3445
  131OSM    H6F14133   4.884   0.912   7.367  2.1441 -0.3062 -3.1208
  131OSM    H6G14134   4.769   1.061   7.390 -0.4512 -1.2165 -0.5301
  131OSM    C7F14135   4.974   1.075   7.465 -0.9677  0.2055 -0.4762
  131OSM    H7F14136   4.926   1.159   7.520  1.5407  1.9670 -0.7897
  131OSM    H7G14137   5.054   1.119   7.402 -0.6287 -0.0391 -0.2176
  131OSM    C8F14138   5.035   0.968   7.566  0.1655 -0.5207  1.7028
  131OSM    H8F14139   5.118   1.021   7.617  0.6532  2.0698 -1.4254
  131OSM    H8G14140   5.076   0.893   7.496 -1.6676  0.2313 -0.2962
  131OSM    C9F14141   4.916   0.915   7.642 -0.8953  0.4167  0.6302
  131OSM    H9F14142   4.847   0.855   7.582  0.8039 -1.0189  0.0400
  131OSM   C10F14143   4.872   0.946   7.769 -0.6822 -0.5937 -0.7039
  131OSM   H10F14144   4.781   0.902   7.814 -0.7646  0.0943 -0.1923
  131OSM   C11F14145   4.944   1.048   7.862 -0.4887 -0.5122 -0.0673
  131OSM   H11F14146   4.872   1.132   7.878 -0.4744 -0.5929  0.4614
  131OSM   H11G14147   5.020   1.107   7.806 -1.3822  0.3050 -0.4523
  131OSM   C12F14148   4.987   0.993   8.001 -0.2309 -0.7450  0.2348
  131OSM   H12F14149   5.067   0.917   7.987  1.9031  1.6066 -1.1506
  131OSM   H12G14150   4.898   0.946   8.048 -0.3213  0.0599  0.8763
  131OSM   C13F14151   5.033   1.105   8.106 -0.0962 -0.4214  0.9334
  131OSM   H13F14152   4.941   1.167   8.108 -0.2250 -0.5227 -0.8831
  131OSM   H13G14153   5.112   1.163   8.053 -0.1527 -0.6875  0.5608
  131OSM   C14F14154   5.070   1.062   8.249  0.1379  0.1555 -0.1689
  131OSM   H14F14155   5.142   0.978   8.248  0.2606  0.2541  0.1500
  131OSM   H14G14156   4.981   1.019   8.301  0.7544  1.2244  1.9093
  131OSM   C15F14157   5.116   1.194   8.317  0.4279 -0.2541  0.6059
  131OSM   H15F14158   5.061   1.280   8.275 -0.0949 -0.9750 -0.2009
  131OSM   H15G14159   5.220   1.203   8.278  0.4172 -1.5353  0.2544
  131OSM   C16F14160   5.117   1.190   8.472 -0.2083 -0.2049 -0.1790
  131OSM   H16F14161   5.219   1.153   8.497  0.6376  0.9940 -1.6456
  131OSM   H16G14162   5.052   1.113   8.519  0.5651  0.2854  1.8044
  131OSM   C17F14163   5.089   1.324   8.542  0.1167  0.1063  0.1793
  131OSM   H17F14164   4.987   1.352   8.511 -0.7179 -1.7470  1.0576
  131OSM   H17G14165   5.158   1.400   8.501 -2.5704  1.0978 -2.9119
  131OSM   C18F14166   5.101   1.309   8.695 -0.4608 -0.1012  0.6619
  131OSM   H18F14167   5.205   1.282   8.723  0.1144  2.1334  0.9033
  131OSM   H18G14168   5.045   1.221   8.734 -0.2046  0.2019  1.7531
  131OSM   H18H14169   5.057   1.397   8.747  0.0553 -0.1801  1.2329
  132OSM      N14170   6.533   5.045   5.957 -0.5364  0.3051  0.0561
  132OSM    C1514171   6.579   5.169   5.891  0.2050 -0.1386 -0.1940
  132OSM   H15A14172   6.560   5.165   5.784 -1.1785  0.9786 -0.0159
  132OSM   H15B14173   6.685   5.184   5.909  0.0178 -0.0645  0.8609
  132OSM   H15C14174   6.536   5.256   5.936  0.6967  0.3801 -0.7038
  132OSM    C1414175   6.391   5.018   5.913  0.4240  0.3272  0.6334
  132OSM   H14A14176   6.372   5.008   5.807 -2.2065 -0.0057  1.0780
  132OSM   H14B14177   6.319   5.092   5.943 -0.2018  1.7172 -3.6556
  132OSM   H14C14178   6.350   4.931   5.963  0.3001  1.0344  1.8097
  132OSM    C1314179   6.612   4.931   5.899 -0.1137  0.2037 -0.0471
  132OSM   H13A14180   6.582   4.833   5.933  1.0689 -0.0905  0.1856
  132OSM   H13B14181   6.718   4.949   5.904 -0.5799  3.3396  0.9988
  132OSM   H13C14182   6.582   4.927   5.796 -2.4124 -0.9240  0.5818
  132OSM    C1214183   6.544   5.061   6.110  0.8451  0.1920  0.5413
  132OSM   H12A14184   6.637   5.110   6.135  0.1231  2.0020 -0.1696
  132OSM   H12B14185   6.539   4.960   6.150 -0.6786 -0.8457 -2.0418
  132OSM    C1114186   6.440   5.140   6.187  0.2980 -0.8480 -0.3825
  132OSM   H11A14187   6.459   5.245   6.160  2.1498 -0.0998  3.2185
  132OSM   H11B14188   6.453   5.131   6.297 -1.1836 -1.2135 -0.2061
  132OSM      P14189   6.248   4.974   6.253 -0.1280 -0.2942  0.2868
  132OSM    O1314190   6.104   4.964   6.221 -0.1222 -0.8303 -0.1130
  132OSM    O1414191   6.331   4.857   6.212 -0.2728 -0.5153 -0.5616
  132OSM    O1114192   6.263   5.015   6.406  0.0512 -0.2821  0.2238
  132OSM    O1214193   6.302   5.096   6.181  0.1297 -0.2811  1.0315
  132OSM    C1S14194   6.207   5.140   6.455  0.4576 -1.2050 -0.6026
  132OSM    H1S14195   6.113   5.169   6.401 -1.1356 -0.0701  2.5425
  132OSM    H1T14196   6.283   5.219   6.437  0.8333 -1.5127 -0.3757
  132OSM     NF14197   6.091   5.255   6.630 -0.4041 -0.6049 -0.4899
  132OSM    HNF14198   6.144   5.326   6.677 -0.9973 -0.4519 -0.0439
  132OSM    C2S14199   6.162   5.136   6.608  0.2139 -0.1578  0.4294
  132OSM    H2S14200   6.091   5.053   6.627 -3.7446  2.5245 -1.2294
  132OSM    C3S14201   6.277   5.114   6.705  0.2757 -0.1970 -0.7736
  132OSM    H3S14202   6.348   5.199   6.701 -0.1942  0.2750  0.3267
  132OSM     O314203   6.350   4.998   6.674 -0.3621  0.2655  0.6284
  132OSM    HO314204   6.316   4.973   6.588 -0.3935 -2.2531  1.2803
  132OSM    C4S14205   6.227   5.099   6.848  0.1412 -0.0604 -0.2402
  132OSM    H4S14206   6.285   5.179   6.898  2.2327 -0.0003 -2.5535
  132OSM    C5S14207   6.157   5.000   6.911  0.3751  0.6748 -0.3895
  132OSM    H5S14208   6.136   4.913   6.848 -0.8825  0.7389 -0.0746
  132OSM    C6S14209   6.139   4.996   7.063  0.7092 -0.0252  0.7245
  132OSM    H6S14210   6.060   4.919   7.077 -0.1481  0.8398  0.7367
  132OSM    H6T14211   6.094   5.087   7.107 -1.8653 -1.3475  0.9875
  132OSM    C7S14212   6.269   4.957   7.142  0.6851  0.2246 -0.8479
  132OSM    H7S14213   6.332   5.048   7.144  0.5498  0.3088 -0.1379
  132OSM    H7T14214   6.319   4.868   7.098 -3.1524 -2.6971  0.1323
  132OSM    C8S14215   6.238   4.941   7.293  0.2242 -0.1377  0.0189
  132OSM    H8S14216   6.331   4.908   7.345  0.7080  0.8072 -0.2138
  132OSM    H8T14217   6.164   4.858   7.288 -3.5960  2.9227  0.7879
  132OSM    C9S14218   6.167   5.069   7.357 -0.1613  0.0986  0.3480
  132OSM    H9S14219   6.057   5.066   7.338  0.0088  2.3674 -1.5170
  132OSM    H9T14220   6.204   5.164   7.312  0.6632 -0.1801  0.4253
  132OSM   C10S14221   6.180   5.081   7.513  0.2238  0.5905 -0.7085
  132OSM   H10S14222   6.288   5.083   7.540 -0.0628 -1.1341  0.8213
  132OSM   H10T14223   6.144   4.985   7.557  0.4085  0.7646 -0.1676
  132OSM   C11S14224   6.104   5.199   7.570 -0.5873  0.3056 -0.5192
  132OSM   H11S14225   6.002   5.189   7.526 -1.1844  1.9878  0.3598
  132OSM   H11T14226   6.158   5.293   7.544  1.0441  0.2572  2.2952
  132OSM   C12S14227   6.086   5.179   7.723 -0.8246  0.0289 -0.2930
  132OSM   H12S14228   6.178   5.230   7.758 -0.2886 -1.0282 -0.1233
  132OSM   H12T14229   6.097   5.074   7.756  3.0187 -0.6256 -3.0128
  132OSM   C13S14230   5.967   5.251   7.787 -0.2860  0.6478 -0.9740
  132OSM   H13S14231   5.885   5.181   7.760 -0.9825  1.3314 -0.6271
  132OSM   H13T14232   5.953   5.352   7.744 -1.5024  0.8059 -0.2235
  132OSM   C14S14233   5.964   5.256   7.939 -0.7001  0.2167  0.6070
  132OSM   H14S14234   6.053   5.313   7.973 -0.2847 -0.1884  0.2046
  132OSM   H14T14235   5.971   5.149   7.967 -0.1972 -0.0313 -0.4090
  132OSM   C15S14236   5.829   5.312   7.991  0.5012 -0.0558 -0.1120
  132OSM   H15S14237   5.758   5.241   7.946 -0.3260 -0.2868  1.4982
  132OSM   H15T14238   5.797   5.407   7.943 -1.4754 -0.1344  0.9821
  132OSM   C16S14239   5.820   5.320   8.140  0.7006  0.2186  0.1722
  132OSM   H16S14240   5.900   5.384   8.184 -0.0139  0.2943  1.3841
  132OSM   H16T14241   5.855   5.221   8.176  2.4123  1.4239  1.9879
  132OSM   C17S14242   5.683   5.360   8.189 -0.2579  0.2301  0.4832
  132OSM   H17S14243   5.609   5.297   8.134 -1.3174  2.7891 -1.2914
  132OSM   H17T14244   5.653   5.461   8.153  1.0934  0.2461 -0.7123
  132OSM   C18S14245   5.673   5.343   8.342  0.0668  0.0366 -0.2025
  132OSM   H18S14246   5.761   5.389   8.392  0.6931 -4.1746  3.2332
  132OSM   H18T14247   5.676   5.240   8.384  0.4590  0.2629  0.3448
  132OSM   H18U14248   5.580   5.392   8.377  0.3933  1.5301 -1.3219
  132OSM    C1F14249   5.975   5.298   6.575  0.2836  0.0626 -0.0306
  132OSM     OF14250   5.915   5.239   6.486  0.5698  0.2527 -0.0040
  132OSM    C2F14251   5.928   5.423   6.623  0.3070 -0.5816  0.6377
  132OSM    H2F14252   5.849   5.460   6.554  1.8825 -0.8133 -1.3634
  132OSM    H2G14253   6.011   5.497   6.616 -0.1882  0.0271  1.0322
  132OSM    C3F14254   5.858   5.424   6.763 -0.1011  0.4343 -0.6490
  132OSM    H3F14255   5.804   5.327   6.775 -0.2099  0.4416 -1.0600
  132OSM    H3G14256   5.786   5.508   6.768 -0.6887 -0.1421  1.2562
  132OSM    C4F14257   5.956   5.411   6.888 -0.5266  0.5893 -0.5168
  132OSM    H4F14258   6.044   5.478   6.890  0.4552 -0.4820  3.8622
  132OSM    H4G14259   6.003   5.311   6.880 -2.5357 -0.5291  0.7440
  132OSM    C5F14260   5.881   5.421   7.020  0.1741  0.0161 -0.0951
  132OSM    H5F14261   5.825   5.326   7.035 -2.1563  1.5579  1.6011
  132OSM    H5G14262   5.809   5.506   7.016  2.8845  2.4869  0.3310
  132OSM    C6F14263   5.967   5.457   7.147 -0.4617 -0.0982  0.0962
  132OSM    H6F14264   6.034   5.544   7.134 -1.6669  0.9194  0.5336
  132OSM    H6G14265   6.030   5.366   7.158 -0.0342  0.3678  1.7283
  132OSM    C7F14266   5.876   5.488   7.265 -0.1904 -0.0792 -0.4833
  132OSM    H7F14267   5.801   5.408   7.282 -0.3673  0.5862  2.4018
  132OSM    H7G14268   5.807   5.570   7.237 -2.3229 -2.3489 -2.3825
  132OSM    C8F14269   5.956   5.514   7.393 -0.2447  0.1349  0.0947
  132OSM    H8F14270   6.012   5.608   7.374 -2.2502  1.5853  1.0412
  132OSM    H8G14271   6.032   5.434   7.409  0.1422  0.3060 -0.7932
  132OSM    C9F14272   5.868   5.532   7.518 -0.3523 -0.4577 -0.6569
  132OSM    H9F14273   5.774   5.475   7.516 -1.2492  0.9749 -0.6166
  132OSM   C10F14274   5.878   5.628   7.620  0.0589 -0.1927  0.6511
  132OSM   H10F14275   5.800   5.633   7.697 -0.4223 -1.5442  0.2902
  132OSM   C11F14276   5.988   5.728   7.613 -0.0077  0.8202 -0.0387
  132OSM   H11F14277   5.949   5.827   7.582  0.5380  0.9726 -0.2498
  132OSM   H11G14278   6.064   5.704   7.536 -0.4271  1.0066 -0.5139
  132OSM   C12F14279   6.056   5.737   7.752 -0.3739  0.3707 -0.0745
  132OSM   H12F14280   5.981   5.763   7.830 -3.5375 -0.8376 -2.4638
  132OSM   H12G14281   6.132   5.817   7.740  0.1772 -0.1602 -0.1719
  132OSM   C13F14282   6.136   5.612   7.800 -0.1071  0.2708 -0.4797
  132OSM   H13F14283   6.209   5.585   7.721  1.9660  0.4471  1.2849
  132OSM   H13G14284   6.071   5.527   7.830  1.7979 -0.3721  2.1666
  132OSM   C14F14285   6.207   5.640   7.938 -0.5618  0.0415  0.0466
  132OSM   H14F14286   6.276   5.727   7.944  0.7181 -1.0047  1.0953
  132OSM   H14G14287   6.255   5.543   7.963 -0.6865 -0.3804 -1.2666
  132OSM   C15F14288   6.101   5.675   8.045  0.6316  0.1436 -0.8017
  132OSM   H15F14289   6.015   5.604   8.044  0.5201  0.2776 -0.8724
  132OSM   H15G14290   6.056   5.777   8.043  0.9060  0.3438  0.9716
  132OSM   C16F14291   6.153   5.645   8.188 -0.4018 -0.9483  0.5436
  132OSM   H16F14292   6.079   5.698   8.253  0.4702  2.6623 -1.1584
  132OSM   H16G14293   6.247   5.702   8.207 -0.6090  0.1428 -1.3780
  132OSM   C17F14294   6.185   5.505   8.233  0.9841 -0.2126  0.0006
  132OSM   H17F14295   6.278   5.477   8.180  0.2774 -0.0028 -1.4060
  132OSM   H17G14296   6.104   5.441   8.190  1.1070 -0.4090  0.0606
  132OSM   C18F14297   6.203   5.487   8.384 -0.0703 -0.2592  0.0861
  132OSM   H18F14298   6.262   5.571   8.426  0.6068 -0.5766 -0.2262
  132OSM   H18G14299   6.240   5.385   8.409 -2.4530 -1.1968  0.0683
  132OSM   H18H14300   6.100   5.490   8.428  0.0322  0.2654  0.2967
  133SAPE     N14301   5.593   0.898  11.135  0.2708  0.2012 -0.3630
  133SAPE   HN114302   5.675   0.953  11.102 -0.2474  1.2458  0.0572
  133SAPE   HN214303   5.571   0.925  11.233 -1.7033 -1.9146 -0.1358
  133SAPE   HN314304   5.621   0.798  11.133  0.2288  0.0578  2.5775
  133SAPE   C1214305   5.476   0.902  11.038  0.0740  0.2254  0.4076
  133SAPE  H12A14306   5.414   0.818  11.074 -1.0710  0.7830 -0.2201
  133SAPE  H12B14307   5.516   0.877  10.937  1.4938  0.7429  0.8072
  133SAPE   C1114308   5.403   1.036  11.052  0.0634  0.0555 -0.3023
  133SAPE  H11A14309   5.383   1.038  11.161  1.3609 -2.6265  0.0512
  133SAPE  H11B14310   5.310   1.033  10.992 -0.5690  0.8822  0.5901
  133SAPE     P14311   5.445   1.232  10.888  0.4996 -0.2402 -0.1358
  133SAPE   O1314312   5.296   1.235  10.877  0.1876  0.4159 -0.4052
  133SAPE   O1414313   5.511   1.363  10.901  0.1490 -0.2120 -0.3238
  133SAPE   O1214314   5.486   1.148  11.018 -0.0834  0.3243 -0.0109
  133SAPE   O1114315   5.506   1.153  10.766  0.4620  0.1879 -0.4421
  133SAPE    C114316   5.637   1.142  10.737 -0.2282 -0.2969  0.0675
  133SAPE    HA14317   5.702   1.198  10.808  0.2139 -0.3153 -0.3137
  133SAPE    HB14318   5.671   1.037  10.748  1.7747  0.5463  3.8175
  133SAPE    C214319   5.653   1.220  10.600 -0.8068 -0.3529  0.1892
  133SAPE    HS14320   5.610   1.322  10.609 -0.3968 -0.1363 -0.2749
  133SAPE   O2114321   5.593   1.142  10.497  0.6718  0.1677 -0.5210
  133SAPE   C2114322   5.478   1.201  10.450 -0.5248 -0.2568 -0.7957
  133SAPE   O2214323   5.467   1.321  10.442 -0.7594 -0.1860 -0.5509
  133SAPE   C2214324   5.383   1.095  10.410  0.3875 -0.1242 -0.3000
  133SAPE   H2R14325   5.345   1.038  10.498  2.6181 -1.2617 -0.0176
  133SAPE   H2S14326   5.290   1.144  10.373 -0.7184 -1.5549  0.4308
  133SAPE    C314327   5.803   1.234  10.569 -0.9755 -0.5927  0.2862
  133SAPE    HX14328   5.864   1.145  10.594 -0.4321  0.1683  1.8610
  133SAPE    HY14329   5.848   1.311  10.636  1.9619 -2.0972  0.1913
  133SAPE   O3114330   5.828   1.275  10.433  0.0612 -0.6699  0.1201
  133SAPE   C3114331   5.838   1.402  10.404 -0.5885 -0.2797  0.2988
  133SAPE   O3214332   5.824   1.489  10.483  0.4534  0.1267  0.0161
  133SAPE   C3214333   5.893   1.409  10.259  0.0698  0.4042  0.4660
  133SAPE   H2X14334   5.803   1.384  10.198 -0.9839  1.4043  1.5759
  133SAPE   H2Y14335   5.970   1.332  10.239  0.7330  1.4355 -1.1898
  133SAPE   C2314336   5.442   0.995  10.313  0.1350  0.5179  0.0561
  133SAPE   H3R14337   5.358   0.930  10.281  1.0411 -0.2077 -0.9408
  133SAPE   H3S14338   5.514   0.926  10.363 -1.2785  0.0774  1.5695
  133SAPE   C2414339   5.513   1.059  10.190  0.0205  0.2721 -0.5830
  133SAPE   H4R14340   5.549   0.977  10.124 -0.5650 -0.7423  0.3253
  133SAPE   H4S14341   5.603   1.115  10.224 -1.0798  1.3480  0.7098
  133SAPE   C2514342   5.420   1.147  10.117  0.4377 -0.5134  0.0142
  133SAPE   H5R14343   5.322   1.103  10.097  0.2410 -0.4351  0.7615
  133SAPE   C2614344   5.434   1.272  10.076  0.2535  0.9384 -1.0700
  133SAPE   H6R14345   5.351   1.314  10.017  0.8859  1.2966 -1.7184
  133SAPE   C2714346   5.549   1.366  10.096  0.1567 -0.2367 -0.0772
  133SAPE   H7R14347   5.644   1.318  10.065  1.3414  1.0951  1.3622
  133SAPE   H7S14348   5.564   1.392  10.203  0.6215  1.0757 -0.4546
  133SAPE   C2814349   5.533   1.500  10.025 -0.8442 -0.5764 -0.0479
  133SAPE   H8R14350   5.452   1.561  10.067  0.4943  1.1613  0.1072
  133SAPE   C2914351   5.601   1.556   9.924  0.2587 -0.3281 -0.0604
  133SAPE   H9R14352   5.571   1.660   9.904  0.7028 -0.3881 -1.1287
  133SAPE  C21014353   5.711   1.501   9.839 -0.0327 -0.1420 -0.6600
  133SAPE  H10R14354   5.677   1.409   9.786 -0.9114  0.9532 -2.0745
  133SAPE  H10S14355   5.786   1.464   9.912 -0.1782  0.6135 -0.1098
  133SAPE  C21114356   5.767   1.603   9.746  0.1024 -0.8845  0.0253
  133SAPE  H11R14357   5.771   1.706   9.786 -0.8225 -0.0507 -1.8749
  133SAPE  C21214358   5.814   1.588   9.624 -0.5339  0.6940  0.1998
  133SAPE  H12R14359   5.842   1.681   9.572 -0.9934  1.0522  0.5786
  133SAPE  C21314360   5.827   1.462   9.533  0.0098  0.4105 -0.1143
  133SAPE  H13R14361   5.772   1.481   9.439  1.3318  2.0466 -0.6009
  133SAPE  H13S14362   5.792   1.371   9.587 -1.8517 -0.3887 -2.4960
  133SAPE  C21414363   5.977   1.447   9.491  0.4286  0.7848  0.4963
  133SAPE  H14R14364   6.048   1.474   9.570  0.3185  0.1376  0.8254
  133SAPE  C21514365   6.021   1.413   9.368 -0.8339  0.6018 -0.0373
  133SAPE  H15R14366   6.129   1.421   9.349 -1.2104  0.4613 -2.5201
  133SAPE  C21614367   5.936   1.373   9.252 -0.1079 -0.2205 -0.3494
  133SAPE  H16R14368   5.830   1.360   9.284  0.5942 -1.2120  1.8300
  133SAPE  H16S14369   5.974   1.273   9.221  1.4214  1.1654 -3.3252
  133SAPE  C21714370   5.949   1.468   9.132  0.7254  0.5204  0.4569
  133SAPE  H17R14371   5.922   1.563   9.182  0.6535  1.7111 -1.7391
  133SAPE  H17S14372   5.866   1.438   9.064 -0.3930 -1.2342  2.4622
  133SAPE  C21814373   6.078   1.469   9.051 -0.4810 -0.3692  0.1351
  133SAPE  H18R14374   6.127   1.371   9.036 -0.8275 -0.8163  1.8252
  133SAPE  H18S14375   6.154   1.534   9.098 -0.9938 -0.0079  0.4788
  133SAPE  C21914376   6.054   1.530   8.911 -0.0932 -0.0905  0.0560
  133SAPE  H19R14377   6.033   1.637   8.930 -0.9955 -0.3703  0.7050
  133SAPE  H19S14378   5.963   1.490   8.860 -0.5470  0.3842  0.4899
  133SAPE  C22014379   6.172   1.506   8.823  0.4487  0.4186 -0.6676
  133SAPE  H20R14380   6.208   1.400   8.821  2.7356  1.0462  1.5734
  133SAPE  H20S14381   6.266   1.556   8.855  1.3621 -0.4148 -1.9464
  133SAPE  H20T14382   6.144   1.532   8.719  2.3734  3.3126 -0.5777
  133SAPE   C3314383   5.946   1.545  10.226  0.9161 -0.0282  0.3640
  133SAPE   H3X14384   5.994   1.539  10.126  0.9540  0.6916  0.3323
  133SAPE   H3Y14385   6.026   1.566  10.301 -0.3646 -0.1065  1.8044
  133SAPE   C3414386   5.840   1.662  10.231  0.1666  0.3646  0.8766
  133SAPE   H4X14387   5.776   1.665  10.322 -0.2672 -0.1239  0.5931
  133SAPE   H4Y14388   5.778   1.666  10.139  0.9851  2.2991  0.3565
  133SAPE   C3514389   5.906   1.797  10.242  0.0537  0.2080 -0.2871
  133SAPE   H5X14390   6.004   1.793  10.295  1.1512 -1.1942 -2.2905
  133SAPE   H5Y14391   5.831   1.868  10.283 -1.1825  0.2283 -2.4818
  133SAPE   C3614392   5.945   1.840  10.101 -0.0220  0.8880  0.0155
  133SAPE   H6X14393   5.849   1.828  10.047  0.8040 -1.2210 -1.1419
  133SAPE   H6Y14394   6.018   1.766  10.062 -0.5496  0.6099 -0.4487
  133SAPE   C3714395   6.008   1.977  10.080  0.4546 -0.3350  0.0447
  133SAPE   H7X14396   6.109   1.987  10.124  0.5163 -1.7046  0.2369
  133SAPE   H7Y14397   5.959   2.053  10.144  0.4878  0.4867 -0.8828
  133SAPE   C3814398   6.017   2.036   9.933  0.6082  0.5771  0.2525
  133SAPE   H8X14399   5.921   2.006   9.886  1.4489 -1.6885 -0.1624
  133SAPE   H8Y14400   6.085   1.974   9.871 -1.0098  0.3687 -1.3856
  133SAPE   C3914401   6.043   2.183   9.915 -0.0291  0.4889  0.8021
  133SAPE   H9X14402   6.143   2.205   9.959 -1.0815 -0.0749  3.7216
  133SAPE   H9Y14403   5.968   2.244   9.969  0.3995  1.9085 -0.1549
  133SAPE  C31014404   6.043   2.226   9.766  0.4174 -0.8659  0.4169
  133SAPE  H10X14405   6.032   2.336   9.773  2.3141 -0.5933 -0.2949
  133SAPE  H10Y14406   5.955   2.184   9.712 -0.2570 -0.0868  0.8810
  133SAPE  C31114407   6.178   2.197   9.708 -0.0786  0.4719 -0.6285
  133SAPE  H11X14408   6.195   2.090   9.728  1.7126  0.4266 -2.1546
  133SAPE  H11Y14409   6.257   2.246   9.768  1.4148 -1.3355 -1.0361
  133SAPE  C31214410   6.194   2.233   9.563 -0.1526 -0.1037  0.1433
  133SAPE  H12X14411   6.099   2.209   9.510 -1.0496  0.7863  1.2885
  133SAPE  H12Y14412   6.284   2.177   9.530  2.7493  2.4284  2.9687
  133SAPE  C31314413   6.216   2.384   9.545 -0.5248 -0.8077  0.1259
  133SAPE  H13X14414   6.307   2.412   9.603  0.0673  2.1172 -2.0046
  133SAPE  H13Y14415   6.121   2.423   9.588  0.4918  2.2581 -0.1908
  133SAPE  C31414416   6.226   2.429   9.397 -0.1677 -0.1585  0.0859
  133SAPE  H14X14417   6.317   2.381   9.356 -1.2341 -0.3629 -2.2511
  133SAPE  H14Y14418   6.228   2.540   9.396 -1.9492 -0.0590  1.8096
  133SAPE  C31514419   6.116   2.365   9.316 -0.1579 -0.9165  0.1653
  133SAPE  H15X14420   6.019   2.393   9.361  0.3390  0.5467  0.3963
  133SAPE  H15Y14421   6.122   2.255   9.313  0.8380 -0.8763 -2.4246
  133SAPE  C31614422   6.116   2.410   9.168 -0.0326 -0.7001  0.0274
  133SAPE  H16X14423   6.044   2.340   9.121 -1.8561  0.3181  1.1658
  133SAPE  H16Y14424   6.216   2.389   9.125  0.1453  0.4195 -0.1570
  133SAPE  C31714425   6.102   2.565   9.149  0.7147  0.0262  0.2918
  133SAPE  H17X14426   6.185   2.627   9.187 -0.4263  1.5806  0.3463
  133SAPE  H17Y14427   6.014   2.599   9.208  0.4264 -0.0466 -0.0890
  133SAPE  C31814428   6.072   2.607   9.004  0.6518  0.2947 -0.4735
  133SAPE  H18X14429   6.007   2.535   8.949  0.9484 -0.0431 -0.3823
  133SAPE  H18Y14430   6.161   2.601   8.938  0.0268  1.0912 -1.4243
  133SAPE  H18Z14431   6.015   2.702   8.997 -3.0059 -1.5488  0.9397
  134SAPE     N14432   4.303   5.088  10.946  0.3910  0.2004  0.6396
  134SAPE   HN114433   4.301   5.084  11.050  1.9130 -2.2608  0.6590
  134SAPE   HN214434   4.383   5.039  10.903 -0.5235  0.5350 -1.5665
  134SAPE   HN314435   4.311   5.187  10.915 -2.0531  0.3339  0.1767
  134SAPE   C1214436   4.180   5.034  10.883  0.2881  0.0095  0.4009
  134SAPE  H12A14437   4.180   5.076  10.780  2.3753  1.3556  0.8900
  134SAPE  H12B14438   4.090   5.057  10.943  0.1564  0.1293  0.1565
  134SAPE   C1114439   4.187   4.878  10.868  0.5641 -0.1108 -0.1737
  134SAPE  H11A14440   4.084   4.850  10.838  0.2953  0.7879 -0.1249
  134SAPE  H11B14441   4.203   4.846  10.973 -1.9974  0.2800  0.4102
  134SAPE     P14442   4.279   4.677  10.753  0.2957  0.5445  0.0694
  134SAPE   O1314443   4.421   4.636  10.762 -0.0106  0.2608  0.7764
  134SAPE   O1414444   4.189   4.617  10.854  0.0671 -0.5045 -0.2722
  134SAPE   O1214445   4.287   4.831  10.773  0.0579  0.2603  0.5728
  134SAPE   O1114446   4.217   4.670  10.609  0.1670  0.0272  0.1048
  134SAPE    C114447   4.136   4.556  10.571 -0.9323 -0.3805  0.8813
  134SAPE    HA14448   4.189   4.460  10.588  1.4422  0.6083 -0.4193
  134SAPE    HB14449   4.035   4.568  10.617 -1.3715 -0.0642 -0.1307
  134SAPE    C214450   4.115   4.554  10.412 -0.9911  0.3420  0.4341
  134SAPE    HS14451   4.047   4.639  10.390  0.7158  2.0166  1.3855
  134SAPE   O2114452   4.068   4.422  10.369 -0.4117  0.6790 -0.1604
  134SAPE   C2114453   3.952   4.421  10.318 -0.1621 -0.2292  0.0041
  134SAPE   O2214454   3.888   4.520  10.288 -0.0065 -0.2710 -0.5957
  134SAPE   C2214455   3.887   4.283  10.310 -0.1303  0.0410  0.1493
  134SAPE   H2R14456   3.964   4.206  10.329 -0.2059 -0.1364 -0.2558
  134SAPE   H2S14457   3.822   4.287  10.400 -1.2120  1.0614 -0.6414
  134SAPE    C314458   4.246   4.579  10.330 -0.9050  0.1436  0.1570
  134SAPE    HX14459   4.323   4.512  10.372  0.0881  0.8884 -0.4508
  134SAPE    HY14460   4.269   4.686  10.349  1.8005 -0.3256 -0.2021
  134SAPE   O3114461   4.227   4.569  10.193  0.0532  0.0690  0.7163
  134SAPE   C3114462   4.301   4.488  10.127  0.0820  0.2480  0.0798
  134SAPE   O3214463   4.397   4.422  10.172  0.1707  0.2704  0.2108
  134SAPE   C3214464   4.252   4.485   9.984  0.0759 -0.5835 -0.4737
  134SAPE   H2X14465   4.260   4.586   9.937 -2.2599 -0.6176 -1.0863
  134SAPE   H2Y14466   4.147   4.452   9.998 -0.6569  1.2427 -1.2614
  134SAPE   C2314467   3.797   4.251  10.187 -0.4771  0.0994  0.5531
  134SAPE   H3R14468   3.852   4.256  10.090 -1.8158  0.4769 -0.2191
  134SAPE   H3S14469   3.731   4.340  10.184 -2.8373 -1.4672  2.7846
  134SAPE   C2414470   3.709   4.128  10.208 -0.2139  0.0423  0.4765
  134SAPE   H4R14471   3.653   4.125  10.112  2.3572  2.2616 -1.2517
  134SAPE   H4S14472   3.641   4.149  10.294 -0.1200  2.0498  0.1164
  134SAPE   C2514473   3.788   3.999  10.219 -0.1041  0.6547 -0.6770
  134SAPE   H5R14474   3.776   3.949  10.316 -2.0198  1.5217 -0.4206
  134SAPE   C2614475   3.857   3.934  10.120 -0.4816  0.5860 -0.3664
  134SAPE   H6R14476   3.901   3.839  10.153 -0.3938  1.2480  1.5859
  134SAPE   C2714477   3.874   3.966   9.976  0.8456 -0.2359 -0.3657
  134SAPE   H7R14478   3.793   4.035   9.943 -1.6270 -2.3904  0.7900
  134SAPE   H7S14479   3.849   3.870   9.925  0.5817  0.0653 -0.8206
  134SAPE   C2814480   4.015   4.000   9.940 -0.4523 -0.5709 -0.5334
  134SAPE   H8R14481   4.091   3.928   9.974 -1.0632  0.0879  2.5198
  134SAPE   C2914482   4.059   4.114   9.882  0.0924  0.3714  0.1452
  134SAPE   H9R14483   4.168   4.126   9.873  0.2000 -0.4936  0.2037
  134SAPE  C21014484   3.968   4.229   9.837 -1.4964 -0.4950  0.4226
  134SAPE  H10R14485   3.960   4.306   9.916  3.7366 -1.3858  2.1837
  134SAPE  H10S14486   3.862   4.197   9.849 -2.3468  2.3952  1.4295
  134SAPE  C21114487   4.008   4.285   9.699  0.4018  0.7596 -0.1317
  134SAPE  H11R14488   4.070   4.376   9.700  1.0374  0.3415  1.6374
  134SAPE  C21214489   3.955   4.247   9.581  0.3202 -0.2790 -0.1505
  134SAPE  H12R14490   3.989   4.302   9.492  0.3311 -1.2554 -0.7718
  134SAPE  C21314491   3.854   4.136   9.559 -0.7522 -0.5088 -0.0435
  134SAPE  H13R14492   3.749   4.169   9.573 -0.8775 -0.7369 -0.4151
  134SAPE  H13S14493   3.864   4.056   9.636  1.0914 -1.8737 -1.6175
  134SAPE  C21414494   3.868   4.075   9.419 -0.0930  0.0370 -0.9555
  134SAPE  H14R14495   3.917   3.977   9.403 -1.2399 -0.4150 -1.8609
  134SAPE  C21514496   3.819   4.121   9.307 -0.6305 -0.7420  0.3086
  134SAPE  H15R14497   3.831   4.061   9.217 -1.4023 -0.1794 -0.1852
  134SAPE  C21614498   3.759   4.263   9.290  0.1373 -0.1275  0.1967
  134SAPE  H16R14499   3.780   4.304   9.189  0.0480 -0.2475  0.1285
  134SAPE  H16S14500   3.817   4.334   9.352 -2.4267  1.8921  0.4817
  134SAPE  C21714501   3.607   4.264   9.306  0.3631  0.3053 -0.1991
  134SAPE  H17R14502   3.584   4.220   9.405  0.2494 -1.2105 -0.8619
  134SAPE  H17S14503   3.561   4.201   9.226 -0.8189  0.7623  0.0903
  134SAPE  C21814504   3.541   4.398   9.302  0.3355 -0.6688  1.1603
  134SAPE  H18R14505   3.431   4.385   9.318 -0.2264 -0.7432 -2.0890
  134SAPE  H18S14506   3.550   4.451   9.204  2.5213 -0.5462  1.3941
  134SAPE  C21914507   3.608   4.490   9.409  0.1408  0.0761 -0.8661
  134SAPE  H19R14508   3.698   4.543   9.370 -1.1718  1.4215 -2.2354
  134SAPE  H19S14509   3.631   4.434   9.502 -0.4048  0.7199 -0.3318
  134SAPE  C22014510   3.505   4.599   9.445 -0.4020  0.0859  0.2919
  134SAPE  H20R14511   3.561   4.686   9.486 -0.5041  0.1505  0.2954
  134SAPE  H20S14512   3.438   4.551   9.520  0.5664 -2.5960 -0.4278
  134SAPE  H20T14513   3.446   4.614   9.353 -1.2939 -2.4210  0.3641
  134SAPE   C3314514   4.336   4.390   9.896  0.4397 -0.0871 -0.1181
  134SAPE   H3X14515   4.266   4.306   9.875 -0.4574  0.8036 -0.7803
  134SAPE   H3Y14516   4.428   4.350   9.946  0.2419  0.1697  0.4604
  134SAPE   C3414517   4.369   4.442   9.752 -0.3153  0.1188  0.0578
  134SAPE   H4X14518   4.441   4.526   9.760 -0.6004  0.2215  2.1371
  134SAPE   H4Y14519   4.279   4.494   9.713 -0.1762 -1.0033 -1.9218
  134SAPE   C3514520   4.430   4.335   9.650  0.3748 -0.2963  0.2153
  134SAPE   H5X14521   4.363   4.246   9.650  0.5950 -0.4855 -1.0701
  134SAPE   H5Y14522   4.528   4.305   9.692  0.5688  0.5603  0.3818
  134SAPE   C3614523   4.441   4.393   9.504 -0.2241  0.2208  1.0095
  134SAPE   H6X14524   4.494   4.319   9.440  0.1245  1.7064 -0.5064
  134SAPE   H6Y14525   4.495   4.491   9.501 -1.1452  0.7428  1.1838
  134SAPE   C3714526   4.301   4.417   9.442 -0.0845  0.0353  0.5885
  134SAPE   H7X14527   4.236   4.491   9.495  0.5650  1.6104 -0.7180
  134SAPE   H7Y14528   4.254   4.317   9.440 -3.6024  1.5169  0.9948
  134SAPE   C3814529   4.307   4.459   9.293  0.7787 -0.5155  0.3871
  134SAPE   H8X14530   4.361   4.383   9.232  2.5012 -0.2487  1.4901
  134SAPE   H8Y14531   4.361   4.555   9.278 -1.4626  0.5934 -1.0632
  134SAPE   C3914532   4.162   4.472   9.241 -0.0866 -0.0681 -0.6564
  134SAPE   H9X14533   4.109   4.554   9.295 -1.9307 -2.2284  1.0023
  134SAPE   H9Y14534   4.110   4.377   9.267  1.1867 -0.4853  0.4791
  134SAPE  C31014535   4.145   4.503   9.095 -1.0312  0.4074 -0.2160
  134SAPE  H10X14536   4.214   4.437   9.038  2.1110  0.9871  2.5944
  134SAPE  H10Y14537   4.198   4.599   9.075  1.4512 -0.6257  0.9764
  134SAPE  C31114538   4.001   4.500   9.043 -0.2435 -0.2869 -0.6046
  134SAPE  H11X14539   3.934   4.551   9.115  0.2991 -4.1512  3.0907
  134SAPE  H11Y14540   3.970   4.393   9.036  0.7498 -0.5558 -1.1489
  134SAPE  C31214541   3.985   4.546   8.890 -0.1110 -0.1938 -0.0915
  134SAPE  H12X14542   4.072   4.531   8.821  0.3900  0.6342  0.3420
  134SAPE  H12Y14543   3.965   4.655   8.900 -4.1136 -0.4350 -3.1272
  134SAPE  C31314544   3.866   4.481   8.819 -0.1439 -0.2505  1.0760
  134SAPE  H13X14545   3.778   4.483   8.886 -1.4028 -0.3217 -0.4940
  134SAPE  H13Y14546   3.895   4.374   8.812 -1.9407 -0.7228  0.3588
  134SAPE  C31414547   3.833   4.560   8.689 -0.0380  0.3342  0.9222
  134SAPE  H14X14548   3.925   4.577   8.628 -0.5260  1.2060  0.4054
  134SAPE  H14Y14549   3.801   4.664   8.709 -3.7949 -0.4510 -0.3176
  134SAPE  C31514550   3.721   4.483   8.617 -0.0380 -0.4651  0.0911
  134SAPE  H15X14551   3.637   4.475   8.690  0.8987  1.8619  1.5120
  134SAPE  H15Y14552   3.751   4.376   8.605  1.2525  0.0757 -2.1557
  134SAPE  C31614553   3.687   4.536   8.482  0.3217 -0.1078  0.1295
  134SAPE  H16X14554   3.610   4.463   8.450  0.2816 -0.1823  0.3910
  134SAPE  H16Y14555   3.757   4.521   8.398 -1.2809 -1.3839 -1.0519
  134SAPE  C31714556   3.630   4.681   8.488 -0.1803 -0.1916  0.0465
  134SAPE  H17X14557   3.585   4.691   8.589  2.1080 -0.3209  1.1361
  134SAPE  H17Y14558   3.550   4.690   8.411  1.1357 -1.1452 -1.5049
  134SAPE  C31814559   3.739   4.778   8.449 -0.1902 -0.7754  0.3957
  134SAPE  H18X14560   3.698   4.879   8.473  0.3257 -0.4679 -0.0015
  134SAPE  H18Y14561   3.758   4.772   8.339  2.5594  0.4212  0.7337
  134SAPE  H18Z14562   3.832   4.771   8.509  1.8869  0.9587 -2.3493
  135SAPE     N14563   6.437   2.982  10.864  0.6385 -0.2670 -0.2404
  135SAPE   HN114564   6.434   3.044  10.947 -0.5261  0.1752 -0.5866
  135SAPE   HN214565   6.493   2.896  10.879 -0.7674 -1.0640  0.6960
  135SAPE   HN314566   6.477   3.043  10.790  0.0585  0.0473 -0.3019
  135SAPE   C1214567   6.299   2.956  10.808  0.1499  0.1900 -0.2228
  135SAPE  H12A14568   6.270   3.051  10.757  2.5551  1.8522  1.2667
  135SAPE  H12B14569   6.235   2.929  10.895  0.1391  1.8730  0.3438
  135SAPE   C1114570   6.312   2.839  10.708 -0.5359 -0.2874  0.4687
  135SAPE  H11A14571   6.206   2.810  10.687 -0.4689 -0.4826  0.3962
  135SAPE  H11B14572   6.363   2.755  10.760 -0.0066 -0.2631 -0.0088
  135SAPE     P14573   6.518   2.806  10.542  0.0033 -0.1475 -0.1361
  135SAPE   O1314574   6.585   2.898  10.452 -1.0620  0.3186 -0.2964
  135SAPE   O1414575   6.596   2.744  10.648  0.1286 -0.0386 -0.0750
  135SAPE   O1214576   6.390   2.885  10.593  0.2927 -0.1248  0.8133
  135SAPE   O1114577   6.461   2.689  10.454 -0.1408 -0.3492 -0.1388
  135SAPE    C114578   6.345   2.724  10.370 -0.4098  0.5314  0.4202
  135SAPE    HA14579   6.255   2.729  10.436 -1.1746  2.9411 -0.6763
  135SAPE    HB14580   6.349   2.824  10.321  1.3688 -0.9788 -2.8272
  135SAPE    C214581   6.337   2.625  10.256  0.1225  0.8870  0.4904
  135SAPE    HS14582   6.254   2.663  10.193 -1.0746 -1.1924  0.6902
  135SAPE   O2114583   6.308   2.490  10.312 -0.4290  0.2303 -0.5856
  135SAPE   C2114584   6.253   2.402  10.228 -0.4111 -0.5491  0.2311
  135SAPE   O2214585   6.215   2.428  10.114  0.1554  0.6386 -0.0349
  135SAPE   C2214586   6.252   2.265  10.297 -0.1799  0.1503 -0.3935
  135SAPE   H2R14587   6.264   2.281  10.406  0.8599 -0.1249 -0.4561
  135SAPE   H2S14588   6.150   2.223  10.283  0.5201 -1.1525 -1.8841
  135SAPE    C314589   6.479   2.624  10.185  0.5845  0.5215 -0.0992
  135SAPE    HX14590   6.538   2.557  10.251  1.2661  1.1364 -0.0741
  135SAPE    HY14591   6.506   2.732  10.182 -0.1730  0.7487  0.7883
  135SAPE   O3114592   6.467   2.573  10.053  0.2518 -0.1621 -0.2377
  135SAPE   C3114593   6.583   2.540  10.002 -0.0118 -0.2674 -0.4535
  135SAPE   O3214594   6.691   2.546  10.061 -0.1138  0.4157 -0.1217
  135SAPE   C3214595   6.553   2.518   9.861 -0.3229  0.0732 -0.3868
  135SAPE   H2X14596   6.528   2.619   9.821  0.3401  0.7169  0.7654
  135SAPE   H2Y14597   6.457   2.465   9.848 -0.5046 -0.3501  2.1651
  135SAPE   C2314598   6.359   2.163  10.243  0.8451  0.1523 -1.1748
  135SAPE   H3R14599   6.355   2.176  10.132  0.1615 -0.0295 -1.1733
  135SAPE   H3S14600   6.326   2.059  10.264  1.1013  0.2754 -0.1423
  135SAPE   C2414601   6.484   2.195  10.312 -0.6094 -0.7333  0.4483
  135SAPE   H4R14602   6.478   2.191  10.422 -1.1392  0.4847  0.4778
  135SAPE   H4S14603   6.523   2.297  10.290  0.5075 -0.7866  2.0603
  135SAPE   C2514604   6.603   2.111  10.271 -0.2920  0.3324 -0.1313
  135SAPE   H5R14605   6.670   2.070  10.347 -2.4626 -0.8978  1.2253
  135SAPE   C2614606   6.656   2.097  10.147  0.5932 -0.0240 -0.2743
  135SAPE   H6R14607   6.725   2.012  10.139  0.1796 -0.6235  1.9975
  135SAPE   C2714608   6.616   2.162  10.019  0.8775 -0.5633 -0.5614
  135SAPE   H7R14609   6.708   2.180   9.960  1.9257 -1.6328  0.6916
  135SAPE   H7S14610   6.575   2.264  10.040 -0.2296 -1.4127  1.6710
  135SAPE   C2814611   6.513   2.085   9.936 -0.0642  0.0385 -0.5350
  135SAPE   H8R14612   6.420   2.065   9.991  0.8931 -0.9577  0.8097
  135SAPE   C2914613   6.526   2.037   9.811 -0.1970  0.6465 -0.1331
  135SAPE   H9R14614   6.443   1.979   9.769 -0.1956  0.9912 -0.6200
  135SAPE  C21014615   6.640   2.038   9.720 -0.3704 -0.1580  0.2494
  135SAPE  H10R14616   6.708   2.114   9.764  0.3573 -0.9495  0.5392
  135SAPE  H10S14617   6.609   2.080   9.622 -0.9148  0.3012  0.6110
  135SAPE  C21114618   6.717   1.903   9.698 -0.6669  0.7286  0.1017
  135SAPE  H11R14619   6.747   1.847   9.788 -3.3470 -0.8678  0.0875
  135SAPE  C21214620   6.748   1.836   9.580 -0.5426 -0.0594  1.0915
  135SAPE  H12R14621   6.800   1.739   9.573  1.0773  0.9081 -2.0482
  135SAPE  C21314622   6.722   1.881   9.438  0.4228 -0.2339 -0.2874
  135SAPE  H13R14623   6.667   1.977   9.452  0.0622 -0.6609  1.5226
  135SAPE  H13S14624   6.648   1.815   9.389 -0.3286  2.1845 -2.6714
  135SAPE  C21414625   6.845   1.888   9.360  0.1955  0.7697  1.1172
  135SAPE  H14R14626   6.942   1.911   9.407  1.4952 -2.5351  0.3032
  135SAPE  C21514627   6.840   1.863   9.222  0.2973 -0.3311 -0.2287
  135SAPE  H15R14628   6.930   1.849   9.160  0.5746  0.3189  0.0163
  135SAPE  C21614629   6.714   1.841   9.139 -0.9493  0.4157 -0.2851
  135SAPE  H16R14630   6.642   1.922   9.164 -0.8248  0.2699  0.5702
  135SAPE  H16S14631   6.669   1.745   9.172 -0.4256  0.0855 -0.5178
  135SAPE  C21714632   6.726   1.849   8.983 -0.2308  0.1081 -0.1087
  135SAPE  H17R14633   6.623   1.850   8.942  0.2434 -1.9016 -1.4805
  135SAPE  H17S14634   6.783   1.759   8.953  0.9291  1.1324 -1.0991
  135SAPE  C21814635   6.821   1.958   8.929 -0.3315 -0.2687  0.5789
  135SAPE  H18R14636   6.928   1.936   8.953 -0.8994 -3.2170  0.8716
  135SAPE  H18S14637   6.791   2.048   8.986  0.1165 -1.4106  2.7622
  135SAPE  C21914638   6.813   1.986   8.775  0.0639 -0.1534 -0.0534
  135SAPE  H19R14639   6.706   2.002   8.751 -1.3071 -4.4933  2.2164
  135SAPE  H19S14640   6.845   1.893   8.723 -0.9795 -0.3775 -0.3100
  135SAPE  C22014641   6.904   2.095   8.718  0.1136 -0.4230  0.2485
  135SAPE  H20R14642   6.879   2.198   8.751 -2.5897 -0.3636 -1.6486
  135SAPE  H20S14643   6.892   2.099   8.608 -1.2687 -0.3534  0.3838
  135SAPE  H20T14644   7.012   2.069   8.729  0.6383  0.1800 -2.7107
  135SAPE   C3314645   6.661   2.462   9.772 -0.3273 -0.4389 -0.3554
  135SAPE   H3X14646   6.716   2.371   9.802 -1.2937 -0.5939  1.0862
  135SAPE   H3Y14647   6.740   2.538   9.755  0.3533 -1.1515 -0.3919
  135SAPE   C3414648   6.601   2.430   9.631  0.7614  0.6875 -0.8238
  135SAPE   H4X14649   6.541   2.519   9.602 -0.4677 -0.2845 -1.3126
  135SAPE   H4Y14650   6.530   2.347   9.648 -0.1865  1.8126  0.9363
  135SAPE   C3514651   6.688   2.412   9.506  0.4025  0.4967  0.4274
  135SAPE   H5X14652   6.742   2.315   9.501 -1.7772 -0.9550  2.7770
  135SAPE   H5Y14653   6.757   2.499   9.507  1.5978 -0.4321  0.4258
  135SAPE   C3614654   6.609   2.415   9.373 -0.1447  0.4694  0.3341
  135SAPE   H6X14655   6.541   2.502   9.364 -0.3466  0.3697  0.8336
  135SAPE   H6Y14656   6.548   2.322   9.373 -0.4263  0.6483 -0.2994
  135SAPE   C3714657   6.707   2.415   9.250  0.7444 -0.4584 -0.1929
  135SAPE   H7X14658   6.777   2.331   9.268 -0.1651 -1.0606  0.6234
  135SAPE   H7Y14659   6.763   2.511   9.248 -2.2335  1.4695  1.4523
  135SAPE   C3814660   6.640   2.396   9.116  0.2565 -0.9016 -0.2193
  135SAPE   H8X14661   6.560   2.472   9.102  0.8415 -0.2083  0.1620
  135SAPE   H8Y14662   6.586   2.299   9.109  1.2782 -1.4419 -0.8575
  135SAPE   C3914663   6.738   2.408   8.994 -0.1357 -0.0032  0.1422
  135SAPE   H9X14664   6.809   2.323   8.995 -0.4199 -0.3935 -2.6251
  135SAPE   H9Y14665   6.794   2.502   9.012 -2.2277  0.8493  2.6984
  135SAPE  C31014666   6.674   2.418   8.853 -0.3036  0.3265 -0.3819
  135SAPE  H10X14667   6.595   2.341   8.838 -0.3361  0.8889 -3.5812
  135SAPE  H10Y14668   6.754   2.396   8.780  1.6856 -1.4022  2.1041
  135SAPE  C31114669   6.619   2.548   8.805 -0.1075 -0.3385  1.3850
  135SAPE  H11X14670   6.696   2.624   8.783  0.1236 -1.2542 -1.2511
  135SAPE  H11Y14671   6.540   2.589   8.872  0.1768 -0.3152  1.7063
  135SAPE  C31214672   6.554   2.520   8.662  0.2480 -0.3112 -0.3314
  135SAPE  H12X14673   6.509   2.420   8.673 -0.1828  0.0779  1.9492
  135SAPE  H12Y14674   6.629   2.517   8.580 -0.2464 -0.5434 -0.7730
  135SAPE  C31314675   6.436   2.614   8.626  0.3490  1.0685 -0.4430
  135SAPE  H13X14676   6.476   2.717   8.614  0.3140  1.1039 -0.2661
  135SAPE  H13Y14677   6.363   2.617   8.710  1.9095  2.6473  0.9373
  135SAPE  C31414678   6.366   2.559   8.499 -0.1801 -0.3663 -0.4333
  135SAPE  H14X14679   6.286   2.485   8.524 -1.0753  0.7488  0.1304
  135SAPE  H14Y14680   6.449   2.511   8.444  1.7654  1.2927  0.9176
  135SAPE  C31514681   6.289   2.666   8.418  0.5457 -0.1033  0.1011
  135SAPE  H15X14682   6.256   2.624   8.320  0.1312  0.5203 -0.0384
  135SAPE  H15Y14683   6.356   2.752   8.397 -1.2571  1.4449  0.3566
  135SAPE  C31614684   6.160   2.730   8.494 -0.9980  0.6239 -0.3134
  135SAPE  H16X14685   6.120   2.819   8.440 -0.4961  0.8924 -0.2489
  135SAPE  H16Y14686   6.216   2.764   8.583 -2.5409 -0.4819  1.1466
  135SAPE  C31714687   6.054   2.628   8.552  0.3308  1.1371  0.6509
  135SAPE  H17X14688   6.114   2.565   8.620  2.1625  0.1779 -1.7063
  135SAPE  H17Y14689   6.018   2.558   8.474 -0.4769  0.5116  1.5725
  135SAPE  C31814690   5.946   2.680   8.637 -0.3453 -0.1363 -0.1621
  135SAPE  H18X14691   5.895   2.772   8.600 -0.1287 -0.3406 -0.9908
  135SAPE  H18Y14692   5.977   2.703   8.741 -0.5955 -0.0070 -0.1152
  135SAPE  H18Z14693   5.869   2.602   8.651  0.0288 -0.3174  0.9300
  136SAPE     N14694   4.727   2.076  11.153 -0.3109 -0.6445 -0.2129
  136SAPE   HN114695   4.623   2.077  11.160 -0.2300 -0.7881  1.2664
  136SAPE   HN214696   4.751   1.980  11.121 -0.5616 -0.5936 -0.5638
  136SAPE   HN314697   4.760   2.084  11.251  0.4105  1.2035 -0.5726
  136SAPE   C1214698   4.775   2.205  11.084  0.3507 -0.5046 -0.1730
  136SAPE  H12A14699   4.880   2.213  11.120 -0.0197  1.1388  0.6630
  136SAPE  H12B14700   4.727   2.292  11.133 -0.0412 -0.5087 -0.5399
  136SAPE   C1114701   4.756   2.203  10.929 -0.0208 -0.9229 -0.4980
  136SAPE  H11A14702   4.817   2.123  10.880 -1.3509 -1.9950 -0.4635
  136SAPE  H11B14703   4.798   2.296  10.887 -1.8720 -1.1442 -3.0311
  136SAPE     P14704   4.539   2.067  10.851 -0.0528  0.6218 -0.0853
  136SAPE   O1314705   4.623   1.951  10.882 -0.0595  0.7289 -0.3452
  136SAPE   O1414706   4.406   2.059  10.911 -0.5427  0.3758  0.3132
  136SAPE   O1214707   4.616   2.202  10.900 -0.0559  0.1475 -0.3495
  136SAPE   O1114708   4.525   2.086  10.691 -0.7026 -0.8818 -0.2873
  136SAPE    C114709   4.565   2.201  10.621 -0.4087 -1.0986  0.0200
  136SAPE    HA14710   4.483   2.271  10.593 -0.8521 -1.5181  0.2615
  136SAPE    HB14711   4.631   2.270  10.678 -1.2600 -0.7548  0.6152
  136SAPE    C214712   4.652   2.165  10.497 -0.3702  0.0872 -0.0431
  136SAPE    HS14713   4.671   2.257  10.437 -1.5297  0.0770 -0.4395
  136SAPE   O2114714   4.593   2.066  10.417  0.1938  0.7797 -0.2662
  136SAPE   C2114715   4.486   2.097  10.344 -0.1651  0.2405 -0.1083
  136SAPE   O2214716   4.442   2.207  10.331 -0.2634 -0.3518  0.0577
  136SAPE   C2214717   4.422   1.970  10.282 -0.3658  0.0501  0.0397
  136SAPE   H2R14718   4.433   1.880  10.347  0.1311 -1.8238 -2.4515
  136SAPE   H2S14719   4.315   1.998  10.275  0.0062  1.3558 -0.7149
  136SAPE    C314720   4.796   2.110  10.538  0.8198  0.7455  0.0685
  136SAPE    HX14721   4.796   2.000  10.555  0.6362  0.9572  1.5832
  136SAPE    HY14722   4.817   2.172  10.627 -1.1141 -0.8417  1.7192
  136SAPE   O3114723   4.894   2.136  10.436 -0.1866 -0.0263  0.0261
  136SAPE   C3114724   4.931   2.263  10.402 -0.0052 -0.5341  0.1712
  136SAPE   O3214725   4.876   2.362  10.437 -0.1877 -0.0755 -0.0558
  136SAPE   C3214726   5.054   2.258  10.309 -0.3643  0.2576 -0.0337
  136SAPE   H2X14727   5.039   2.197  10.218 -0.4437  0.4032 -0.1183
  136SAPE   H2Y14728   5.140   2.225  10.371  2.1518  2.0814 -2.3228
  136SAPE   C2314729   4.468   1.951  10.137  0.0274  0.2255  0.1610
  136SAPE   H3R14730   4.502   2.051  10.101 -1.2157  0.4811 -0.3905
  136SAPE   H3S14731   4.385   1.925  10.068 -1.0402  0.3709  1.3533
  136SAPE   C2414732   4.580   1.848  10.130 -0.2260 -0.6794  0.1276
  136SAPE   H4R14733   4.618   1.849  10.026 -0.9490  1.2127 -0.1639
  136SAPE   H4S14734   4.535   1.750  10.155 -0.8166 -0.5506 -0.4239
  136SAPE   C2514735   4.690   1.866  10.227 -0.0898  0.1059 -0.3390
  136SAPE   H5R14736   4.685   1.797  10.312  2.5998 -0.7373 -0.7661
  136SAPE   C2614737   4.802   1.939  10.203  0.2935 -0.9675 -0.1304
  136SAPE   H6R14738   4.881   1.935  10.279  1.9903  1.3994 -1.6268
  136SAPE   C2714739   4.825   2.039  10.090 -0.3257 -0.0313  0.9097
  136SAPE   H7R14740   4.854   2.141  10.125 -1.5397  0.1825  1.3408
  136SAPE   H7S14741   4.729   2.062  10.038 -0.0030  1.4193  0.8981
  136SAPE   C2814742   4.929   1.993   9.997 -0.3747  0.8684 -1.0799
  136SAPE   H8R14743   5.027   1.989  10.047 -1.5464  1.2515  1.4257
  136SAPE   C2914744   4.922   1.960   9.870  0.1716  0.0724  0.2664
  136SAPE   H9R14745   5.008   1.915   9.819  0.7377  0.1722  1.1113
  136SAPE  C21014746   4.800   1.972   9.777  0.1667  0.3966  0.4495
  136SAPE  H10R14747   4.807   2.066   9.720  2.1667  1.1281  1.7829
  136SAPE  H10S14748   4.710   1.978   9.842 -1.6242 -0.2127 -1.8735
  136SAPE  C21114749   4.782   1.845   9.693 -0.0545 -0.0760 -0.0147
  136SAPE  H11R14750   4.723   1.767   9.743 -0.1848  0.6280  0.9545
  136SAPE  C21214751   4.796   1.843   9.557  0.4231  0.6734  0.6600
  136SAPE  H12R14752   4.789   1.745   9.508  1.0085  2.1325 -2.5954
  136SAPE  C21314753   4.840   1.958   9.466  0.1308  1.1816 -0.6168
  136SAPE  H13R14754   4.913   2.022   9.520 -1.0934  1.3555  0.8878
  136SAPE  H13S14755   4.757   2.021   9.429 -0.5303  1.3919  1.1515
  136SAPE  C21414756   4.914   1.903   9.345 -0.0152 -0.1133 -0.4297
  136SAPE  H14R14757   5.021   1.891   9.368 -0.2231 -0.4178  0.4019
  136SAPE  C21514758   4.873   1.882   9.218 -0.4250 -0.5736  0.2279
  136SAPE  H15R14759   4.934   1.846   9.134 -0.8746  1.4019 -1.0164
  136SAPE  C21614760   4.738   1.911   9.163 -0.0000  0.0177 -0.6090
  136SAPE  H16R14761   4.748   1.983   9.078 -0.6892  0.3351 -0.4257
  136SAPE  H16S14762   4.662   1.951   9.234 -0.6235 -1.6720 -0.2938
  136SAPE  C21714763   4.664   1.786   9.123 -0.4392 -0.2171 -1.0201
  136SAPE  H17R14764   4.714   1.731   9.039 -1.0201 -1.9249 -0.2979
  136SAPE  H17S14765   4.574   1.827   9.072 -1.2283  0.5623  0.9359
  136SAPE  C21814766   4.632   1.694   9.238  0.0754 -0.5978 -0.8746
  136SAPE  H18R14767   4.567   1.744   9.313  2.6885  1.5753  0.0892
  136SAPE  H18S14768   4.724   1.676   9.297 -0.6433 -1.4014  0.0415
  136SAPE  C21914769   4.568   1.560   9.195 -0.1719  0.8242 -0.1362
  136SAPE  H19R14770   4.636   1.507   9.125 -0.7201 -0.6585  0.4236
  136SAPE  H19S14771   4.471   1.577   9.144  0.5811 -0.1999 -2.0084
  136SAPE  C22014772   4.542   1.457   9.306  0.5932  0.0239 -0.3020
  136SAPE  H20R14773   4.482   1.369   9.277 -0.4512  0.4081  0.6427
  136SAPE  H20S14774   4.485   1.508   9.386 -0.3590  0.2932 -1.1396
  136SAPE  H20T14775   4.632   1.420   9.359  0.1846 -1.9211 -0.8976
  136SAPE   C3314776   5.104   2.391  10.263  0.2385  0.3044  0.4736
  136SAPE   H3X14777   5.215   2.382  10.261  0.1997 -0.2200 -1.4732
  136SAPE   H3Y14778   5.070   2.475  10.328 -1.1875  0.2783 -0.2131
  136SAPE   C3414779   5.049   2.430  10.119  0.0248 -1.4042  0.1061
  136SAPE   H4X14780   5.047   2.541  10.113 -0.5455 -1.4538 -0.6742
  136SAPE   H4Y14781   4.941   2.409  10.113 -0.4346  0.3858  1.1684
  136SAPE   C3514782   5.122   2.356  10.010 -0.0483  0.7408 -0.5667
  136SAPE   H5X14783   5.135   2.249  10.036 -0.6026 -0.1764 -3.5802
  136SAPE   H5Y14784   5.223   2.401  10.013  0.0945  0.3723  0.3683
  136SAPE   C3614785   5.058   2.358   9.865 -0.7567  0.3993  0.0703
  136SAPE   H6X14786   5.066   2.465   9.835 -0.7692  0.6004  0.7512
  136SAPE   H6Y14787   4.949   2.340   9.854 -0.7375  0.7032 -0.6577
  136SAPE   C3714788   5.126   2.278   9.757  0.1704 -0.0228  0.6834
  136SAPE   H7X14789   5.067   2.187   9.732 -0.3095  0.7091 -1.0475
  136SAPE   H7Y14790   5.229   2.245   9.783  0.7992  1.2348 -0.0917
  136SAPE   C3814791   5.138   2.353   9.627 -0.5070 -0.3819  0.7362
  136SAPE   H8X14792   5.210   2.437   9.626 -0.4616 -0.3854 -1.6488
  136SAPE   H8Y14793   5.043   2.406   9.603  0.3072  0.3750 -0.9921
  136SAPE   C3914794   5.160   2.257   9.507 -0.2502 -0.9133 -0.4343
  136SAPE   H9X14795   5.160   2.327   9.420  4.3338  0.2116  0.2086
  136SAPE   H9Y14796   5.078   2.186   9.484 -1.7071 -0.0383  1.8185
  136SAPE  C31014797   5.291   2.186   9.523  0.1054  0.4499 -0.0099
  136SAPE  H10X14798   5.271   2.083   9.560  2.6446  0.0617  0.4524
  136SAPE  H10Y14799   5.361   2.243   9.587  0.4279 -1.2743  1.2423
  136SAPE  C31114800   5.357   2.168   9.384  0.8701  0.0348  0.1767
  136SAPE  H11X14801   5.448   2.107   9.403 -0.3511 -2.1537 -0.6813
  136SAPE  H11Y14802   5.390   2.268   9.349  1.6370 -0.1655  0.3051
  136SAPE  C31214803   5.269   2.093   9.281 -0.1995 -1.0413 -0.5288
  136SAPE  H12X14804   5.176   2.153   9.277  1.6546  2.0695  0.0404
  136SAPE  H12Y14805   5.247   1.994   9.328  0.7775 -0.5109  1.1322
  136SAPE  C31314806   5.323   2.065   9.148  0.3472  0.3999  0.0011
  136SAPE  H13X14807   5.253   2.001   9.089 -1.2780 -0.5089  2.7334
  136SAPE  H13Y14808   5.417   2.008   9.163  0.7016  1.7827  4.2335
  136SAPE  C31414809   5.357   2.190   9.059 -1.0327 -0.4868 -0.3298
  136SAPE  H14X14810   5.425   2.253   9.121  0.1356  0.1777 -2.2009
  136SAPE  H14Y14811   5.273   2.257   9.033 -0.8809  0.5483  1.6830
  136SAPE  C31514812   5.421   2.153   8.929  0.3186 -0.5207  0.2645
  136SAPE  H15X14813   5.364   2.088   8.859  0.9688 -0.4113 -0.3779
  136SAPE  H15Y14814   5.510   2.089   8.949  0.4899 -0.3751 -0.0307
  136SAPE  C31614815   5.487   2.271   8.843 -0.6185  0.9405  0.2532
  136SAPE  H16X14816   5.561   2.330   8.901 -1.5367  3.0993 -0.6658
  136SAPE  H16Y14817   5.409   2.347   8.824  0.7160  2.7587  1.6349
  136SAPE  C31714818   5.556   2.230   8.713 -0.3206 -0.2893  0.7040
  136SAPE  H17X14819   5.475   2.190   8.648  1.3121  1.0771 -2.4098
  136SAPE  H17Y14820   5.628   2.147   8.726 -0.4983 -0.3765  1.1702
  136SAPE  C31814821   5.611   2.342   8.626  0.1860 -0.9117  0.4073
  136SAPE  H18X14822   5.533   2.407   8.581 -0.0211  0.0569  2.0966
  136SAPE  H18Y14823   5.666   2.304   8.537 -2.2056  0.4241 -1.7937
  136SAPE  H18Z14824   5.684   2.404   8.682 -0.3518  0.8731 -0.7770
  137SAPE     N14825   3.790   4.292  10.879  0.2740  0.7532 -0.6815
  137SAPE   HN114826   3.789   4.188  10.874 -0.2963  0.8025 -2.0612
  137SAPE   HN214827   3.761   4.325  10.785  0.6967  0.3270 -0.9675
  137SAPE   HN314828   3.888   4.323  10.891  0.5864  0.0586 -1.3741
  137SAPE   C1214829   3.707   4.336  10.994  1.4771  0.3069  0.5847
  137SAPE  H12A14830   3.679   4.441  10.970 -0.1259  0.2697  2.0713
  137SAPE  H12B14831   3.758   4.345  11.092 -0.1457 -0.0070  1.5004
  137SAPE   C1114832   3.574   4.265  11.009  0.0608 -0.0733  0.3006
  137SAPE  H11A14833   3.498   4.327  10.958  1.3002  1.6621  0.4852
  137SAPE  H11B14834   3.551   4.272  11.118  1.5267  0.3355  0.6153
  137SAPE     P14835   3.478   4.027  10.975  0.4256  0.3992 -0.2705
  137SAPE   O1314836   3.500   3.926  11.080 -0.3213  0.7397 -0.2608
  137SAPE   O1414837   3.342   4.093  10.976 -0.6277  0.2455 -0.2544
  137SAPE   O1214838   3.584   4.136  10.959  0.1089  0.1358 -0.2179
  137SAPE   O1114839   3.480   3.963  10.831  0.4328  0.4040 -0.2384
  137SAPE    C114840   3.541   4.045  10.728  0.1105  0.5164 -0.1598
  137SAPE    HA14841   3.492   4.141  10.698  0.7029  1.0849  0.6316
  137SAPE    HB14842   3.644   4.076  10.755  0.6033 -0.3559 -0.9815
  137SAPE    C214843   3.555   3.961  10.601 -0.0545  0.4236  0.4272
  137SAPE    HS14844   3.585   4.018  10.511 -0.4170  1.7759  1.1246
  137SAPE   O2114845   3.438   3.887  10.578  0.7175 -0.7790  0.0696
  137SAPE   C2114846   3.335   3.962  10.530  0.3634 -0.4352  0.4767
  137SAPE   O2214847   3.350   4.081  10.500  0.7628 -0.1574 -0.2700
  137SAPE   C2214848   3.205   3.880  10.501  0.1634 -0.6580  0.3574
  137SAPE   H2R14849   3.205   3.797  10.575  0.7834  0.4984  1.7046
  137SAPE   H2S14850   3.112   3.938  10.519 -0.8051 -1.6566 -1.1796
  137SAPE    C314851   3.660   3.850  10.612 -0.3049  0.0888  0.3682
  137SAPE    HX14852   3.632   3.772  10.686  0.6815 -0.0626  0.5921
  137SAPE    HY14853   3.754   3.895  10.649 -0.6608 -0.9367  2.6979
  137SAPE   O3114854   3.690   3.789  10.481  0.1956 -0.1693 -0.2343
  137SAPE   C3114855   3.622   3.676  10.468 -0.1684 -0.2294 -0.0596
  137SAPE   O3214856   3.544   3.629  10.546  0.0288  0.2418  0.3409
  137SAPE   C3214857   3.635   3.624  10.323 -0.1864 -0.7031 -0.1822
  137SAPE   H2X14858   3.741   3.599  10.301 -0.8674 -2.9135 -1.2741
  137SAPE   H2Y14859   3.606   3.711  10.260  0.0897  0.8623  1.7628
  137SAPE   C2314860   3.203   3.814  10.357  0.3380 -0.1508  0.0718
  137SAPE   H3R14861   3.113   3.751  10.343  0.9545 -0.3990 -4.1194
  137SAPE   H3S14862   3.290   3.746  10.344  0.2097 -0.4309  0.6376
  137SAPE   C2414863   3.201   3.919  10.252 -0.3217 -0.0457 -0.2325
  137SAPE   H4R14864   3.297   3.975  10.258 -0.7681  0.5831  1.2270
  137SAPE   H4S14865   3.117   3.990  10.265  0.6122  0.6177  2.7944
  137SAPE   C2514866   3.167   3.844  10.124  0.0315 -0.4165  0.2885
  137SAPE   H5R14867   3.077   3.781  10.133  0.9476 -1.7480  0.3401
  137SAPE   C2614868   3.225   3.858  10.007 -0.4267 -0.7735 -0.0928
  137SAPE   H6R14869   3.181   3.812   9.918 -0.7564 -2.1897  0.7876
  137SAPE   C2714870   3.345   3.945   9.989 -0.0828  0.0130  0.2050
  137SAPE   H7R14871   3.434   3.896  10.036 -0.9940 -1.8115  0.1213
  137SAPE   H7S14872   3.326   4.031  10.057 -1.1200 -1.4689  1.8822
  137SAPE   C2814873   3.388   3.985   9.853  0.1951 -0.1240 -0.3919
  137SAPE   H8R14874   3.363   3.908   9.779 -0.4205  1.0333 -1.4331
  137SAPE   C2914875   3.440   4.092   9.808 -0.7021  0.3515 -0.3052
  137SAPE   H9R14876   3.471   4.081   9.702 -1.5317 -3.3917 -0.2869
  137SAPE  C21014877   3.474   4.223   9.886 -0.4235  0.1948 -0.4670
  137SAPE  H10R14878   3.573   4.202   9.930 -1.5383 -0.3650  1.9437
  137SAPE  H10S14879   3.410   4.241   9.975  1.2243 -0.7647  0.9633
  137SAPE  C21114880   3.459   4.353   9.808  0.4030  1.1613  0.4657
  137SAPE  H11R14881   3.353   4.365   9.781  0.4734  0.2156 -0.2647
  137SAPE  C21214882   3.549   4.450   9.789  0.5733 -1.1009 -0.0201
  137SAPE  H12R14883   3.522   4.541   9.734 -0.3818  0.0788  2.2673
  137SAPE  C21314884   3.694   4.443   9.837 -0.0920  0.0922 -0.6279
  137SAPE  H13R14885   3.748   4.472   9.745 -2.5148 -0.1467 -2.2252
  137SAPE  H13S14886   3.733   4.343   9.866  1.6798  1.0173  0.3357
  137SAPE  C21414887   3.716   4.538   9.951  0.7281  0.6368 -0.5175
  137SAPE  H14R14888   3.652   4.520  10.039  0.2072  0.2662 -0.9604
  137SAPE  C21514889   3.807   4.636   9.937 -0.0376  0.5766 -0.2128
  137SAPE  H15R14890   3.827   4.696  10.027  0.2381  1.2020 -0.6889
  137SAPE  C21614891   3.894   4.663   9.820 -0.6182  0.2618  0.6421
  137SAPE  H16R14892   3.929   4.565   9.782 -1.0218 -0.3579  1.7950
  137SAPE  H16S14893   3.990   4.716   9.837 -1.4642  1.5108  1.7262
  137SAPE  C21714894   3.824   4.735   9.709  0.8803  0.5385 -0.5649
  137SAPE  H17R14895   3.745   4.671   9.664  1.0038 -0.5559  0.7083
  137SAPE  H17S14896   3.893   4.756   9.625  0.1421  2.2342 -0.7944
  137SAPE  C21814897   3.761   4.867   9.756  0.0127 -0.2243 -0.1689
  137SAPE  H18R14898   3.696   4.844   9.842  3.5097 -1.7460  2.2712
  137SAPE  H18S14899   3.695   4.906   9.675  0.8682 -1.6767 -1.6315
  137SAPE  C21914900   3.875   4.964   9.808  0.5071 -0.0903  0.0922
  137SAPE  H19R14901   3.946   4.976   9.723 -2.7081  0.0890 -2.8158
  137SAPE  H19S14902   3.928   4.910   9.889  0.4766 -0.5499 -0.1858
  137SAPE  C22014903   3.837   5.106   9.844 -0.2380 -0.8604 -0.7961
  137SAPE  H20R14904   3.824   5.174   9.757 -2.1990  1.5854  1.2442
  137SAPE  H20S14905   3.917   5.145   9.910  0.1422 -2.2065 -0.4296
  137SAPE  H20T14906   3.746   5.096   9.907  0.5006  1.0747  0.6674
  137SAPE   C3314907   3.553   3.505  10.290  0.2956 -0.3100 -0.4989
  137SAPE   H3X14908   3.445   3.518  10.315  0.5150 -1.4393  1.1663
  137SAPE   H3Y14909   3.601   3.422  10.346  0.6808  2.0996  3.0390
  137SAPE   C3414910   3.567   3.473  10.142 -0.0964 -0.4899 -0.2980
  137SAPE   H4X14911   3.548   3.364  10.128  1.9496 -1.1946  1.8763
  137SAPE   H4Y14912   3.673   3.492  10.114 -0.5205  1.8521 -0.5129
  137SAPE   C3514913   3.478   3.560  10.062  0.9301 -0.3478  0.0966
  137SAPE   H5X14914   3.500   3.664  10.092 -0.0581  0.0808 -0.6081
  137SAPE   H5Y14915   3.373   3.537  10.093  0.1838  1.7361 -0.6989
  137SAPE   C3614916   3.495   3.565   9.908 -0.3164  0.4273  0.3333
  137SAPE   H6X14917   3.415   3.633   9.871  2.2256  2.8237 -1.0882
  137SAPE   H6Y14918   3.480   3.462   9.870 -0.2470  0.0096  1.3949
  137SAPE   C3714919   3.636   3.613   9.875 -0.2034  0.9724  0.0399
  137SAPE   H7X14920   3.713   3.534   9.881  0.0149  1.0568 -1.3719
  137SAPE   H7Y14921   3.662   3.699   9.941 -0.8046  2.6713 -1.8114
  137SAPE   C3814922   3.653   3.659   9.726  0.6733  0.5087  0.2171
  137SAPE   H8X14923   3.756   3.698   9.709  0.1557  0.7641 -2.7746
  137SAPE   H8Y14924   3.580   3.743   9.724  0.5828  0.4196 -0.8079
  137SAPE   C3914925   3.608   3.545   9.633 -0.0173 -0.4499  0.3320
  137SAPE   H9X14926   3.501   3.519   9.650  0.4190 -1.1781  2.1519
  137SAPE   H9Y14927   3.670   3.458   9.664  0.9068  0.3815  0.8560
  137SAPE  C31014928   3.642   3.563   9.482 -0.4387  0.9361  0.4652
  137SAPE  H10X14929   3.635   3.464   9.433  0.6903 -0.1760  2.4528
  137SAPE  H10Y14930   3.748   3.593   9.471 -0.4025  1.0239  1.0652
  137SAPE  C31114931   3.552   3.671   9.418 -0.1212 -0.0564 -0.2502
  137SAPE  H11X14932   3.561   3.775   9.454  1.7350 -0.4872  0.6361
  137SAPE  H11Y14933   3.442   3.654   9.426 -0.1631  0.9379  2.0527
  137SAPE  C31214934   3.592   3.679   9.268  0.1725  0.3628  0.3450
  137SAPE  H12X14935   3.581   3.578   9.223  0.0456 -1.3828  3.9304
  137SAPE  H12Y14936   3.702   3.693   9.271  0.1699  0.8502 -1.0954
  137SAPE  C31314937   3.520   3.789   9.185 -0.2630  0.0738  0.1055
  137SAPE  H13X14938   3.518   3.891   9.229  1.7654  0.1994 -0.0025
  137SAPE  H13Y14939   3.417   3.748   9.181 -0.1669 -0.1009 -0.8327
  137SAPE  C31414940   3.573   3.798   9.045 -0.2893  0.2037 -0.1966
  137SAPE  H14X14941   3.565   3.697   8.998 -0.4293  1.3255 -2.7800
  137SAPE  H14Y14942   3.681   3.823   9.054 -0.2951 -0.3964  2.3991
  137SAPE  C31514943   3.498   3.897   8.955  0.0294 -0.1139 -0.4933
  137SAPE  H15X14944   3.392   3.891   8.986  1.1830 -2.0761  3.7255
  137SAPE  H15Y14945   3.511   3.871   8.847  0.4001 -0.1633 -0.4391
  137SAPE  C31614946   3.559   4.034   8.970 -0.1574 -0.1804 -0.4307
  137SAPE  H16X14947   3.668   4.042   8.950  0.0719  1.1324  1.1632
  137SAPE  H16Y14948   3.534   4.066   9.073 -3.2227 -2.7434 -0.2072
  137SAPE  C31714949   3.492   4.143   8.881 -0.1638  0.3623 -0.0895
  137SAPE  H17X14950   3.385   4.125   8.857 -0.2399  0.7481 -0.0390
  137SAPE  H17Y14951   3.540   4.135   8.781 -0.3759 -2.0498 -0.0613
  137SAPE  C31814952   3.508   4.288   8.932 -0.0499 -0.2361  0.0060
  137SAPE  H18X14953   3.468   4.365   8.863  3.4530  2.8132  1.0466
  137SAPE  H18Y14954   3.617   4.308   8.932  0.5761 -3.1193  0.2094
  137SAPE  H18Z14955   3.464   4.303   9.033 -1.1548 -1.0519 -0.3326
  138SAPE     N14956   1.422   5.121  10.444 -0.2973 -0.3812 -0.1790
  138SAPE   HN114957   1.378   5.111  10.350 -0.1768 -0.5010 -0.2230
  138SAPE   HN214958   1.419   5.221  10.471  0.8000 -0.2726 -0.4068
  138SAPE   HN314959   1.525   5.107  10.433 -0.2079 -0.3800  0.6340
  138SAPE   C1214960   1.367   5.024  10.543  0.1525  0.1801 -0.3054
  138SAPE  H12A14961   1.256   5.020  10.542  0.1536  0.0965 -0.1102
  138SAPE  H12B14962   1.388   5.065  10.645  1.5850  0.1366 -0.5634
  138SAPE   C1114963   1.424   4.888  10.528  0.3107 -0.8875  0.2065
  138SAPE  H11A14964   1.396   4.844  10.430 -3.2753  0.0254  0.6642
  138SAPE  H11B14965   1.381   4.827  10.610  1.4220 -1.2009  0.5749
  138SAPE     P14966   1.637   4.870  10.664 -0.2651  0.1806  0.2651
  138SAPE   O1314967   1.570   4.922  10.781  0.2268  0.4303  0.6205
  138SAPE   O1414968   1.675   4.731  10.670 -0.5637  0.1159 -0.3066
  138SAPE   O1214969   1.559   4.893  10.532 -0.5646 -0.0788 -0.2409
  138SAPE   O1114970   1.776   4.950  10.632  0.7956  0.0349 -0.1021
  138SAPE    C114971   1.768   5.093  10.630 -0.0788 -0.2298 -0.3125
  138SAPE    HA14972   1.669   5.133  10.597  0.2493  0.2409 -0.7354
  138SAPE    HB14973   1.794   5.135  10.729 -4.0153  0.7640  0.4948
  138SAPE    C214974   1.869   5.149  10.529  0.2266 -0.2403  0.6168
  138SAPE    HS14975   1.839   5.253  10.504 -0.4746 -1.0238 -2.1255
  138SAPE   O2114976   1.878   5.064  10.411  0.4635  0.3423  0.2349
  138SAPE   C2114977   1.776   5.062  10.324  0.2425  0.5144  0.3053
  138SAPE   O2214978   1.673   5.125  10.337 -0.0495  0.1589  0.4052
  138SAPE   C2214979   1.813   4.981  10.200  0.5552  0.3812 -0.8152
  138SAPE   H2R14980   1.790   5.040  10.109  0.0304 -1.1798 -1.7439
  138SAPE   H2S14981   1.924   4.979  10.192  0.4586 -0.2774 -2.1314
  138SAPE    C314982   2.013   5.145  10.583 -0.8044 -0.1077 -0.6113
  138SAPE    HX14983   2.049   5.040  10.592  2.3489  1.0265  1.6465
  138SAPE    HY14984   2.025   5.179  10.688  3.5941 -1.7020 -0.3816
  138SAPE   O3114985   2.114   5.215  10.508 -0.4063 -0.3945 -0.3690
  138SAPE   C3114986   2.114   5.347  10.502 -0.1777 -0.0345 -0.2324
  138SAPE   O3214987   2.047   5.421  10.572  0.0348  0.2089 -0.5223
  138SAPE   C3214988   2.204   5.409  10.390  0.2020 -0.4452  0.1614
  138SAPE   H2X14989   2.290   5.456  10.441  0.6415 -2.2038  1.1175
  138SAPE   H2Y14990   2.133   5.483  10.346  1.1234  2.4514  3.1687
  138SAPE   C2314991   1.755   4.834  10.198  0.1927  0.1845  0.0330
  138SAPE   H3R14992   1.767   4.783  10.296 -2.6936  0.7593  0.7724
  138SAPE   H3S14993   1.809   4.780  10.117  0.6341  2.4002 -1.2166
  138SAPE   C2414994   1.604   4.821  10.155 -0.0392  0.1609 -0.9304
  138SAPE   H4R14995   1.553   4.887  10.229  0.3992  0.8649 -1.2487
  138SAPE   H4S14996   1.591   4.718  10.196  0.0010  0.2589 -0.6717
  138SAPE   C2514997   1.561   4.833  10.010 -0.1752  0.2468  0.5026
  138SAPE   H5R14998   1.515   4.929   9.984  0.5901  0.6807  0.7183
  138SAPE   C2614999   1.572   4.742   9.910  0.2128  0.4579  0.5798
  138SAPE   H6R15000   1.551   4.781   9.810 -3.0985 -0.8129  0.6515
  138SAPE   C2715001   1.625   4.601   9.920 -0.1100  0.5517 -0.4239
  138SAPE   H7R15002   1.546   4.524   9.907 -0.5083  1.1119 -1.3919
  138SAPE   H7S15003   1.659   4.581  10.024  0.2929 -2.3310 -1.0432
  138SAPE   C2815004   1.731   4.563   9.823 -0.3891  0.0712  0.1848
  138SAPE   H8R15005   1.828   4.574   9.874 -0.7824 -1.5562  1.3681
  138SAPE   C2915006   1.733   4.519   9.696  0.2952 -0.3663 -0.3480
  138SAPE   H9R15007   1.836   4.495   9.664  0.7056  0.5194  0.2528
  138SAPE  C21015008   1.614   4.491   9.599 -0.0393 -0.0851  0.6876
  138SAPE  H10R15009   1.598   4.569   9.522  0.2850  1.9719  2.5937
  138SAPE  H10S15010   1.518   4.475   9.653 -0.0659 -1.8957  0.1894
  138SAPE  C21115011   1.621   4.355   9.537 -0.0427  1.0533  0.0535
  138SAPE  H11R15012   1.630   4.271   9.607  0.7589  0.7427 -0.4175
  138SAPE  C21215013   1.613   4.313   9.411  0.4506  0.2168 -0.2524
  138SAPE  H12R15014   1.624   4.204   9.395 -0.0063  0.3673 -1.7499
  138SAPE  C21315015   1.591   4.393   9.288  0.0516  0.1426 -0.5395
  138SAPE  H13R15016   1.487   4.432   9.294 -0.1705 -0.6143  3.9652
  138SAPE  H13S15017   1.582   4.320   9.205  0.3729 -2.4330  1.5633
  138SAPE  C21415018   1.674   4.520   9.256  0.2584 -0.5117 -0.1437
  138SAPE  H14R15019   1.691   4.588   9.341  1.4497  0.5626 -1.1875
  138SAPE  C21515020   1.741   4.538   9.140  0.1648 -0.6979  0.4223
  138SAPE  H15R15021   1.797   4.633   9.139 -0.7104 -0.1733  0.1202
  138SAPE  C21615022   1.749   4.449   9.018  0.2913 -0.0843 -0.1596
  138SAPE  H16R15023   1.740   4.346   9.058 -2.8091 -0.6512 -1.9921
  138SAPE  H16S15024   1.850   4.457   8.973  0.0087 -2.7854 -1.4772
  138SAPE  C21715025   1.631   4.467   8.925 -0.2887 -0.1730  0.0641
  138SAPE  H17R15026   1.590   4.570   8.919 -2.4620 -1.0735 -2.8644
  138SAPE  H17S15027   1.552   4.401   8.966  0.8193 -1.5122  0.1241
  138SAPE  C21815028   1.674   4.428   8.775  0.2554  0.4625  0.3002
  138SAPE  H18R15029   1.706   4.322   8.782  1.7048  0.8403 -0.0852
  138SAPE  H18S15030   1.762   4.495   8.761  0.5463  0.4065  1.7525
  138SAPE  C21915031   1.568   4.437   8.665 -0.2112 -0.1943 -0.3837
  138SAPE  H19R15032   1.469   4.402   8.701  0.1189  0.5774  1.3860
  138SAPE  H19S15033   1.597   4.372   8.580  0.6345  1.3744 -1.3538
  138SAPE  C22015034   1.544   4.588   8.617  0.1496 -0.6075  0.1250
  138SAPE  H20R15035   1.480   4.600   8.527 -0.0835 -1.2885  0.1924
  138SAPE  H20S15036   1.638   4.641   8.593  0.3649  0.0005  2.1205
  138SAPE  H20T15037   1.509   4.643   8.707  3.7570 -0.1814  1.4268
  138SAPE   C3315038   2.251   5.297  10.295 -0.2287 -0.3427  0.2137
  138SAPE   H3X15039   2.290   5.208  10.347 -1.7023 -0.5228  1.0440
  138SAPE   H3Y15040   2.326   5.346  10.228 -0.6785  0.0710  0.0021
  138SAPE   C3415041   2.135   5.256  10.202  0.0432  0.1008 -0.7254
  138SAPE   H4X15042   2.075   5.342  10.164 -0.8933 -0.8742 -1.5440
  138SAPE   H4Y15043   2.057   5.187  10.243  0.4187 -1.3712 -2.3613
  138SAPE   C3515044   2.171   5.170  10.076  0.1997  0.9024 -0.1592
  138SAPE   H5X15045   2.083   5.115  10.039  2.1619 -2.4038 -0.3385
  138SAPE   H5Y15046   2.237   5.089  10.114 -2.5113 -1.7686 -0.7960
  138SAPE   C3615047   2.249   5.241   9.962 -0.1789 -0.3604 -0.0428
  138SAPE   H6X15048   2.350   5.264  10.003 -1.0317  1.6447  1.0572
  138SAPE   H6Y15049   2.200   5.338   9.941  1.1956  0.1212 -1.2057
  138SAPE   C3715050   2.257   5.163   9.839  0.2250  0.0138  0.5181
  138SAPE   H7X15051   2.262   5.053   9.850  2.5401 -0.0749 -0.8208
  138SAPE   H7Y15052   2.359   5.190   9.803 -0.7631  0.9672 -1.7834
  138SAPE   C3815053   2.153   5.199   9.736 -1.0384 -0.2135  0.0546
  138SAPE   H8X15054   2.141   5.309   9.736  0.3850 -0.0339 -0.6474
  138SAPE   H8Y15055   2.053   5.159   9.762 -1.0897  0.6027  1.1810
  138SAPE   C3915056   2.195   5.153   9.597  0.6029  0.0585  0.7937
  138SAPE   H9X15057   2.188   5.042   9.591  1.0067  0.0738 -0.3129
  138SAPE   H9Y15058   2.297   5.191   9.571  0.3620  0.8629  0.9898
  138SAPE  C31015059   2.101   5.192   9.483  0.4038  1.3695  0.2850
  138SAPE  H10X15060   2.085   5.301   9.468 -2.5408  0.7092 -2.8043
  138SAPE  H10Y15061   2.001   5.154   9.512 -0.0571  0.4243 -2.2318
  138SAPE  C31115062   2.131   5.120   9.348 -0.8418 -0.1660  0.4678
  138SAPE  H11X15063   2.122   5.010   9.360 -2.6142 -0.0885  0.0645
  138SAPE  H11Y15064   2.237   5.145   9.327 -1.0103 -0.8600 -1.3416
  138SAPE  C31215065   2.048   5.185   9.233 -0.8627 -0.2446  0.2099
  138SAPE  H12X15066   2.082   5.291   9.223 -1.7569 -0.0359 -0.9042
  138SAPE  H12Y15067   1.944   5.175   9.270 -0.7051 -2.2593  0.2028
  138SAPE  C31315068   2.070   5.125   9.093 -0.4744  0.6229 -0.4096
  138SAPE  H13X15069   1.980   5.146   9.031 -0.5106 -0.1606 -0.6316
  138SAPE  H13Y15070   2.067   5.014   9.104 -0.0410  0.7298  1.0514
  138SAPE  C31415071   2.210   5.160   9.029  0.3095 -0.4112 -0.0482
  138SAPE  H14X15072   2.286   5.090   9.070  0.6990  0.9185  1.5953
  138SAPE  H14Y15073   2.245   5.258   9.068  0.0946  0.4590 -1.9406
  138SAPE  C31515074   2.209   5.148   8.874  0.2811  0.3234 -0.8472
  138SAPE  H15X15075   2.126   5.201   8.823 -0.4457 -0.2341 -0.2612
  138SAPE  H15Y15076   2.205   5.042   8.843  0.0280 -0.3416  1.3079
  138SAPE  C31615077   2.332   5.210   8.806  0.1468 -0.1222 -0.0518
  138SAPE  H16X15078   2.317   5.319   8.820  0.2763  0.2127 -2.1669
  138SAPE  H16Y15079   2.326   5.200   8.695 -1.1578  0.4781 -0.0467
  138SAPE  C31715080   2.464   5.154   8.850  0.4037 -0.2960 -0.0693
  138SAPE  H17X15081   2.485   5.178   8.957 -3.3686  0.3177  0.6738
  138SAPE  H17Y15082   2.546   5.196   8.789  0.4164 -0.2813 -0.0427
  138SAPE  C31815083   2.472   5.000   8.838  0.1446 -0.8355 -0.3297
  138SAPE  H18X15084   2.405   4.944   8.907 -0.4007  0.9963  0.6760
  138SAPE  H18Y15085   2.572   4.967   8.874 -0.0725  0.5391  1.6725
  138SAPE  H18Z15086   2.457   4.957   8.736 -1.1186  0.0683 -0.5446
  139SAPE     N15087   5.795   5.349  10.636  0.2953 -0.4182 -0.2565
  139SAPE   HN115088   5.896   5.373  10.649 -0.0364  0.7547  0.1772
  139SAPE   HN215089   5.751   5.381  10.724  1.5291 -1.2605  0.7253
  139SAPE   HN315090   5.800   5.245  10.631  1.0910 -0.4208  0.2897
  139SAPE   C1215091   5.733   5.418  10.516 -0.3223 -0.7568  0.2239
  139SAPE  H12A15092   5.629   5.382  10.503  0.3577 -2.8000  0.0421
  139SAPE  H12B15093   5.795   5.397  10.427 -0.3111 -0.3726  0.1383
  139SAPE   C1115094   5.735   5.571  10.545  0.1901 -0.7773 -0.4126
  139SAPE  H11A15095   5.687   5.629  10.463 -1.9480  0.1058  1.3527
  139SAPE  H11B15096   5.840   5.605  10.553 -0.6115  3.0318 -2.9537
  139SAPE     P15097   5.580   5.720  10.692  0.1772 -0.2747 -0.3144
  139SAPE   O1315098   5.520   5.691  10.824  0.2746 -0.3055 -0.8343
  139SAPE   O1415099   5.668   5.835  10.666  0.1003  0.1717  0.1244
  139SAPE   O1215100   5.666   5.590  10.671  0.5589 -0.6278  0.0617
  139SAPE   O1115101   5.470   5.714  10.572 -0.8359 -0.0275  0.1428
  139SAPE    C115102   5.385   5.594  10.587 -0.2712  0.5658  0.0697
  139SAPE    HA15103   5.443   5.500  10.598 -0.7446  0.4999  2.5849
  139SAPE    HB15104   5.318   5.605  10.675  0.7116  0.8923  0.7985
  139SAPE    C215105   5.275   5.580  10.484 -0.3588  0.2086  1.0305
  139SAPE    HS15106   5.232   5.479  10.501  2.1890 -1.0931  0.1680
  139SAPE   O2115107   5.320   5.606  10.347 -0.4798  0.3207 -0.4868
  139SAPE   C2115108   5.399   5.515  10.308  0.0310 -0.8487 -0.4497
  139SAPE   O2215109   5.415   5.408  10.354  0.3633  0.2848  0.3965
  139SAPE   C2215110   5.468   5.562  10.176  0.2003  0.1667  0.1308
  139SAPE   H2R15111   5.536   5.650  10.187  1.3499 -0.7507  0.5993
  139SAPE   H2S15112   5.540   5.482  10.146  0.8918  0.1338  1.7499
  139SAPE    C315113   5.163   5.681  10.514 -0.0121  0.4462  0.2354
  139SAPE    HX15114   5.216   5.777  10.497 -0.4083  0.5574 -0.4377
  139SAPE    HY15115   5.130   5.658  10.618  0.7065 -1.7227  0.0496
  139SAPE   O3115116   5.058   5.661  10.421  1.1016  0.5569  0.2532
  139SAPE   C3115117   5.031   5.759  10.338  0.4088  0.4276  0.3897
  139SAPE   O3215118   5.080   5.868  10.341 -0.0873 -0.3993  0.1111
  139SAPE   C3215119   4.932   5.716  10.229 -0.2865  0.1552 -0.2033
  139SAPE   H2X15120   4.838   5.775  10.228 -1.3110 -1.3740  0.4957
  139SAPE   H2Y15121   4.898   5.612  10.250  1.8190 -0.5743 -0.1182
  139SAPE   C2315122   5.366   5.598  10.053 -0.3502 -0.1106 -0.8063
  139SAPE   H3R15123   5.308   5.690  10.075  0.1685  0.1348 -0.4418
  139SAPE   H3S15124   5.285   5.521  10.052  0.1320 -0.6582  0.3977
  139SAPE   C2415125   5.439   5.610   9.914 -0.3998  0.4018 -0.3445
  139SAPE   H4R15126   5.495   5.705   9.928 -1.5083  0.9174  0.7954
  139SAPE   H4S15127   5.369   5.635   9.832  1.0680  2.5142 -1.0583
  139SAPE   C2515128   5.527   5.498   9.875 -0.6914  0.2426  0.1410
  139SAPE   H5R15129   5.609   5.475   9.945 -1.5955 -1.8607  0.5970
  139SAPE   C2615130   5.531   5.439   9.757  0.0248 -0.5242 -0.2893
  139SAPE   H6R15131   5.608   5.362   9.740  1.0622  0.4201 -0.0114
  139SAPE   C2715132   5.451   5.469   9.636  0.6749 -0.3730 -0.7184
  139SAPE   H7R15133   5.384   5.557   9.641 -1.8847 -2.2592 -0.1613
  139SAPE   H7S15134   5.396   5.375   9.613 -0.9779  0.7898 -1.7559
  139SAPE   C2815135   5.547   5.485   9.515  0.0942  0.1045  0.5672
  139SAPE   H8R15136   5.636   5.420   9.509 -0.7727 -1.0992  0.4022
  139SAPE   C2915137   5.534   5.571   9.413  0.0775  1.4955 -0.6143
  139SAPE   H9R15138   5.613   5.565   9.337 -1.4174 -1.8018 -2.1033
  139SAPE  C21015139   5.433   5.678   9.394  1.1220 -0.2033  0.4785
  139SAPE  H10R15140   5.445   5.745   9.481 -1.2941 -0.7940  1.3548
  139SAPE  H10S15141   5.339   5.626   9.423  0.7469  0.0661 -0.2205
  139SAPE  C21115142   5.428   5.744   9.262 -0.0357  0.2040  0.5598
  139SAPE  H11R15143   5.491   5.833   9.249 -1.8647  1.3844 -0.8503
  139SAPE  C21215144   5.361   5.701   9.152 -0.1300  0.2412 -0.0306
  139SAPE  H12R15145   5.369   5.757   9.058 -3.2327  2.2499  0.7600
  139SAPE  C21315146   5.270   5.581   9.145 -0.3314 -0.3591 -0.4069
  139SAPE  H13R15147   5.201   5.573   9.232 -1.9020 -0.5608 -1.6464
  139SAPE  H13S15148   5.338   5.493   9.141  0.3105  0.0846  0.4031
  139SAPE  C21415149   5.193   5.585   9.016  0.1134 -0.5064  0.6417
  139SAPE  H14R15150   5.098   5.640   9.021  0.4912  0.3675 -1.0966
  139SAPE  C21515151   5.207   5.506   8.906 -0.4417  0.6432  0.1863
  139SAPE  H15R15152   5.139   5.501   8.820  1.1680 -2.0993 -1.0371
  139SAPE  C21615153   5.318   5.407   8.885  0.0677  0.5737  0.2050
  139SAPE  H16R15154   5.270   5.315   8.844 -1.2208  0.5166  1.7822
  139SAPE  H16S15155   5.353   5.368   8.983 -1.5642  0.1904  0.6580
  139SAPE  C21715156   5.444   5.465   8.815 -0.5124 -0.4800  0.5280
  139SAPE  H17R15157   5.474   5.560   8.863  1.6222  0.1493 -1.7977
  139SAPE  H17S15158   5.429   5.509   8.715  2.2913  1.7321  0.9461
  139SAPE  C21815159   5.559   5.369   8.797  0.3078 -0.0173 -0.0701
  139SAPE  H18R15160   5.530   5.289   8.725  1.0130 -0.0344 -0.3409
  139SAPE  H18S15161   5.578   5.318   8.894  1.1659  1.7337  0.7171
  139SAPE  C21915162   5.683   5.437   8.738  0.0695 -0.3705 -0.2607
  139SAPE  H19R15163   5.695   5.539   8.780 -0.4399 -0.1243 -0.7042
  139SAPE  H19S15164   5.676   5.469   8.632  1.3879  0.6630 -0.0562
  139SAPE  C22015165   5.806   5.346   8.751 -0.5419 -0.7190  0.0393
  139SAPE  H20R15166   5.892   5.400   8.705 -1.1271  0.9206  0.7816
  139SAPE  H20S15167   5.789   5.244   8.710  2.5022 -1.0535 -0.5946
  139SAPE  H20T15168   5.825   5.317   8.857  0.9383 -0.8553 -0.2419
  139SAPE   C3315169   4.996   5.712  10.085  0.0521  0.4251 -0.1558
  139SAPE   H3X15170   5.093   5.661  10.101  1.6635  2.6552 -2.1480
  139SAPE   H3Y15171   5.024   5.814  10.053 -0.0120  0.3791 -0.3576
  139SAPE   C3415172   4.907   5.651   9.978  0.0284  0.7269  0.7430
  139SAPE   H4X15173   4.798   5.660  10.001 -0.8581  2.1162 -3.1308
  139SAPE   H4Y15174   4.934   5.543   9.970 -3.3273 -0.1068 -1.8176
  139SAPE   C3515175   4.927   5.712   9.833 -0.1960 -0.3044 -0.6079
  139SAPE   H5X15176   4.895   5.818   9.840  0.0460 -0.3301  1.6379
  139SAPE   H5Y15177   4.856   5.673   9.756 -1.0016 -1.1635  0.5347
  139SAPE   C3615178   5.062   5.697   9.766  0.0520  0.1326 -0.0683
  139SAPE   H6X15179   5.081   5.589   9.753 -0.6496 -0.2490  1.7595
  139SAPE   H6Y15180   5.132   5.737   9.842 -0.8610  0.7596  0.4575
  139SAPE   C3715181   5.083   5.776   9.637 -0.4683 -0.0374 -0.3144
  139SAPE   H7X15182   5.183   5.754   9.595  0.2102  2.5738 -0.2539
  139SAPE   H7Y15183   5.072   5.886   9.652  1.2186 -0.1576  2.7256
  139SAPE   C3815184   4.978   5.760   9.526  0.4946  0.4304 -0.4171
  139SAPE   H8X15185   4.888   5.823   9.545  2.8842  3.3084  2.3872
  139SAPE   H8Y15186   4.961   5.652   9.507 -1.2751  0.7631 -0.8863
  139SAPE   C3915187   5.030   5.808   9.391  0.2478  0.5009  0.2905
  139SAPE   H9X15188   5.115   5.743   9.363 -0.6598 -0.3237 -0.6195
  139SAPE   H9Y15189   5.074   5.910   9.400  2.1441 -0.0579 -1.7027
  139SAPE  C31015190   4.938   5.818   9.261 -0.0490 -0.4351  0.3976
  139SAPE  H10X15191   5.000   5.861   9.179 -0.7255 -3.0726 -1.6348
  139SAPE  H10Y15192   4.865   5.892   9.300  0.3791 -0.4750  1.3276
  139SAPE  C31115193   4.877   5.683   9.217  0.0212  0.0500  0.3173
  139SAPE  H11X15194   4.796   5.647   9.284 -0.9438  1.4933 -0.0365
  139SAPE  H11Y15195   4.957   5.606   9.211  0.0287  0.1354 -1.1422
  139SAPE  C31215196   4.801   5.703   9.080  0.3564 -0.4257 -0.4994
  139SAPE  H12X15197   4.848   5.793   9.035 -0.9649  0.1558 -0.7527
  139SAPE  H12Y15198   4.694   5.727   9.094  1.0309  1.5281  1.8585
  139SAPE  C31315199   4.815   5.580   8.991  0.2460  0.1907  0.1635
  139SAPE  H13X15200   4.758   5.496   9.035  0.3516  0.6970  1.2837
  139SAPE  H13Y15201   4.921   5.545   8.992  0.1491 -0.0877  0.5130
  139SAPE  C31415202   4.749   5.602   8.859 -0.1352  0.3300 -0.1863
  139SAPE  H14X15203   4.766   5.711   8.844  0.7681 -0.0398 -2.2347
  139SAPE  H14Y15204   4.640   5.583   8.852 -0.7051  2.3013  1.9572
  139SAPE  C31515205   4.816   5.506   8.756 -0.2253  0.3427 -0.4500
  139SAPE  H15X15206   4.811   5.406   8.805  1.8733  0.2651 -0.2924
  139SAPE  H15Y15207   4.921   5.538   8.742  1.0385 -3.1436  0.1333
  139SAPE  C31615208   4.764   5.505   8.608 -0.1098  0.0378 -0.3306
  139SAPE  H16X15209   4.812   5.446   8.527 -1.0212  0.7843 -1.4471
  139SAPE  H16Y15210   4.659   5.467   8.612 -0.6826  1.6296  0.7027
  139SAPE  C31715211   4.754   5.644   8.541  0.1092 -0.5773 -0.8030
  139SAPE  H17X15212   4.719   5.706   8.627  1.4299 -0.5603 -0.2493
  139SAPE  H17Y15213   4.674   5.647   8.464 -0.0002  1.4073 -0.6742
  139SAPE  C31815214   4.886   5.710   8.499  0.4962  0.9409  0.4300
  139SAPE  H18X15215   4.880   5.821   8.507  0.5680  0.9095  0.9421
  139SAPE  H18Y15216   4.922   5.693   8.395  0.2525  1.0587  0.3258
  139SAPE  H18Z15217   4.963   5.666   8.565 -0.7874 -0.9024  0.7755
  140SAPE     N15218   0.702   2.200  11.006  0.9285  0.0980  0.0262
  140SAPE   HN115219   0.667   2.132  11.076  1.0178  1.6244  1.6195
  140SAPE   HN215220   0.793   2.244  11.029  1.3346 -0.2398 -0.8897
  140SAPE   HN315221   0.626   2.272  10.997 -0.4614 -1.0655  1.8145
  140SAPE   C1215222   0.719   2.131  10.874  0.8032 -0.0574  0.1940
  140SAPE  H12A15223   0.617   2.109  10.835  1.2813  1.8459 -2.3858
  140SAPE  H12B15224   0.768   2.033  10.892  3.9617  0.7952 -2.7696
  140SAPE   C1115225   0.793   2.219  10.771 -0.1155  0.6283  0.0933
  140SAPE  H11A15226   0.720   2.301  10.756 -1.3720 -0.6043 -0.8581
  140SAPE  H11B15227   0.807   2.163  10.676 -2.3914 -1.2277  0.7617
  140SAPE     P15228   1.046   2.207  10.853  0.0824 -0.0648  0.0793
  140SAPE   O1315229   1.169   2.290  10.840  0.4350 -0.0518 -0.1508
  140SAPE   O1415230   1.014   2.144  10.985 -0.2182  0.6800  0.1965
  140SAPE   O1215231   0.914   2.285  10.806 -0.0531 -0.1395 -0.4103
  140SAPE   O1115232   1.057   2.085  10.753 -0.4867  0.0344 -0.3305
  140SAPE    C115233   1.128   2.086  10.633  0.0311 -0.2108  0.1000
  140SAPE    HA15234   1.212   2.157  10.623  1.0647 -1.3532  0.3692
  140SAPE    HB15235   1.180   1.988  10.624  1.6873  0.4901  1.5890
  140SAPE    C215236   1.041   2.095  10.508  0.3397  0.8404  0.5161
  140SAPE    HS15237   0.965   2.175  10.522  2.4531  2.7259  1.8204
  140SAPE   O2115238   0.987   1.968  10.476  0.9717 -0.0019 -0.0406
  140SAPE   C2115239   0.868   1.964  10.427  0.8491  0.2522 -0.4128
  140SAPE   O2215240   0.789   2.060  10.421 -0.7350  0.2778  0.3551
  140SAPE   C2215241   0.839   1.824  10.378  0.8475  0.2082 -0.4160
  140SAPE   H2R15242   0.863   1.762  10.467 -0.4109  1.2096  0.6627
  140SAPE   H2S15243   0.729   1.821  10.371  0.8853 -1.8990 -0.9043
  140SAPE    C315244   1.119   2.139  10.378 -0.2995  0.1953  1.0350
  140SAPE    HX15245   1.194   2.059  10.357 -1.3599 -0.8275  1.0658
  140SAPE    HY15246   1.172   2.234  10.399  1.0082  0.0604 -1.3427
  140SAPE   O3115247   1.034   2.149  10.260  0.0925  0.3151 -0.1170
  140SAPE   C3115248   0.983   2.262  10.227 -0.1478  0.1204 -0.3130
  140SAPE   O3215249   0.993   2.366  10.295 -0.2534  0.3786  0.2151
  140SAPE   C3215250   0.910   2.242  10.096 -0.3671 -0.1849  0.3194
  140SAPE   H2X15251   0.956   2.164  10.032  1.1360  1.9882 -1.3749
  140SAPE   H2Y15252   0.912   2.337  10.040  0.0746 -0.2162  0.2761
  140SAPE   C2315253   0.923   1.776  10.258  0.5087  0.5453 -0.6138
  140SAPE   H3R15254   0.906   1.666  10.255  1.0658  0.3315  1.9091
  140SAPE   H3S15255   1.031   1.804  10.264  0.8920 -0.8721 -0.5422
  140SAPE   C2415256   0.872   1.828  10.120 -0.2739  0.1379  0.0623
  140SAPE   H4R15257   0.922   1.927  10.112 -1.6394  0.7538 -1.3956
  140SAPE   H4S15258   0.763   1.846  10.129 -0.4804  0.0661 -1.8702
  140SAPE   C2515259   0.884   1.735  10.001  0.3440  0.3655  0.2232
  140SAPE   H5R15260   0.801   1.666   9.981  0.6452  0.5576 -1.8889
  140SAPE   C2615261   0.989   1.731   9.914  1.2162 -0.6258 -0.4216
  140SAPE   H6R15262   0.991   1.655   9.834  0.0676  0.6943 -1.7800
  140SAPE   C2715263   1.102   1.833   9.913  1.0566  0.2878 -0.4001
  140SAPE   H7R15264   1.115   1.890  10.008  1.9509 -0.3358 -0.1336
  140SAPE   H7S15265   1.076   1.903   9.831  1.0883 -1.4695 -1.9640
  140SAPE   C2815266   1.233   1.773   9.867 -0.0839  1.2167 -0.1158
  140SAPE   H8R15267   1.292   1.751   9.957 -0.0056 -0.3261 -0.5138
  140SAPE   C2915268   1.264   1.740   9.738  0.7753 -0.5566 -0.1550
  140SAPE   H9R15269   1.363   1.693   9.723  0.1515 -2.4953  1.4386
  140SAPE  C21015270   1.179   1.758   9.610 -0.0156 -0.9566 -0.3752
  140SAPE  H10R15271   1.217   1.853   9.567 -0.4918 -0.0784  1.0680
  140SAPE  H10S15272   1.079   1.782   9.650  0.7500  1.1486  0.4556
  140SAPE  C21115273   1.176   1.639   9.524 -0.1482  0.9753  0.1755
  140SAPE  H11R15274   1.143   1.546   9.573 -0.4124  0.1932 -1.3999
  140SAPE  C21215275   1.212   1.640   9.396  0.4286  0.2194 -0.5798
  140SAPE  H12R15276   1.198   1.557   9.325 -0.1354  2.4061 -3.2239
  140SAPE  C21315277   1.267   1.759   9.323 -0.1891  0.0745  0.1686
  140SAPE  H13R15278   1.289   1.850   9.383 -1.0282  0.3982 -0.0056
  140SAPE  H13S15279   1.181   1.795   9.264  2.6050  1.2036 -3.5739
  140SAPE  C21415280   1.396   1.737   9.240  0.6753  0.4778  0.1017
  140SAPE  H14R15281   1.481   1.684   9.286  0.2049 -0.0231  0.4034
  140SAPE  C21515282   1.419   1.794   9.115 -0.0115 -0.3049 -0.0170
  140SAPE  H15R15283   1.507   1.763   9.057  0.6978  0.2242  0.7688
  140SAPE  C21615284   1.326   1.888   9.041  0.0996 -0.7100  0.5017
  140SAPE  H16R15285   1.366   1.991   9.027 -1.0825 -0.5046 -1.9023
  140SAPE  H16S15286   1.227   1.898   9.090 -0.1644 -0.3144 -0.1005
  140SAPE  C21715287   1.298   1.821   8.905  0.3890  0.2790  0.4530
  140SAPE  H17R15288   1.246   1.723   8.906  0.5504  0.1717 -0.5935
  140SAPE  H17S15289   1.386   1.815   8.837 -1.7389 -0.5337 -2.3983
  140SAPE  C21815290   1.217   1.917   8.813  0.3025  0.0477  0.1407
  140SAPE  H18R15291   1.196   1.884   8.709  0.3017  0.0464  0.1409
  140SAPE  H18S15292   1.285   2.003   8.793  3.5762 -2.8168 -2.2771
  140SAPE  C21915293   1.078   1.959   8.861 -0.4778  0.4034 -0.1950
  140SAPE  H19R15294   1.069   2.001   8.964 -0.7810 -1.5030  0.5991
  140SAPE  H19S15295   1.016   1.867   8.861  0.2937 -0.1266 -0.3631
  140SAPE  C22015296   1.018   2.060   8.760  0.0179 -0.4661 -0.1259
  140SAPE  H20R15297   0.982   2.010   8.668 -0.6485 -2.8715  1.3441
  140SAPE  H20S15298   1.089   2.140   8.732 -1.1998  0.7909  0.2362
  140SAPE  H20T15299   0.931   2.116   8.801  0.1910  1.1746 -1.8550
  140SAPE   C3315300   0.749   2.211  10.106  0.2949 -0.3659 -0.4338
  140SAPE   H3X15301   0.714   2.285  10.181  1.9730  1.2957 -1.2295
  140SAPE   H3Y15302   0.735   2.107  10.142 -0.1887 -0.4705 -0.9037
  140SAPE   C3415303   0.688   2.240   9.972 -0.2135  0.1476  0.0297
  140SAPE   H4X15304   0.708   2.344   9.939  0.5471  1.2784  3.6617
  140SAPE   H4Y15305   0.578   2.227   9.978  0.1054 -2.4633  2.2463
  140SAPE   C3515306   0.742   2.131   9.876 -0.0498  0.1557  0.1323
  140SAPE   H5X15307   0.725   2.032   9.923  1.1459 -0.6354 -1.0189
  140SAPE   H5Y15308   0.848   2.138   9.845 -0.3168 -0.6725 -1.0371
  140SAPE   C3615309   0.656   2.139   9.751 -0.3000 -0.1870 -0.1967
  140SAPE   H6X15310   0.674   2.243   9.718 -0.7218  0.7276  2.1966
  140SAPE   H6Y15311   0.551   2.114   9.777  0.1180 -2.3378 -0.3482
  140SAPE   C3715312   0.703   2.047   9.640  0.1400  0.3729 -0.8887
  140SAPE   H7X15313   0.660   1.947   9.661 -0.0217  0.8251  1.1180
  140SAPE   H7Y15314   0.814   2.039   9.635  0.1933  1.6177 -2.5009
  140SAPE   C3815315   0.660   2.096   9.504 -0.2564 -0.5254 -0.5219
  140SAPE   H8X15316   0.703   2.199   9.495  2.9978 -1.3632  2.8116
  140SAPE   H8Y15317   0.550   2.099   9.490 -0.0245  0.5274 -2.4543
  140SAPE   C3915318   0.706   2.016   9.385  0.4509  0.1595 -0.0259
  140SAPE   H9X15319   0.659   2.059   9.294 -1.1643  2.1529  1.6506
  140SAPE   H9Y15320   0.664   1.914   9.392  0.0087  0.4152  1.1746
  140SAPE  C31015321   0.858   2.013   9.356 -0.3257 -0.1084 -0.5525
  140SAPE  H10X15322   0.906   1.966   9.445  0.8932 -1.1335 -1.7229
  140SAPE  H10Y15323   0.897   2.115   9.335  1.8903 -0.7748  0.0554
  140SAPE  C31115324   0.883   1.923   9.231  0.2609  0.2779 -0.1880
  140SAPE  H11X15325   0.993   1.926   9.216  0.3098 -2.5902 -0.9606
  140SAPE  H11Y15326   0.841   1.970   9.139  0.0066 -1.0352 -0.7629
  140SAPE  C31215327   0.860   1.774   9.243 -0.9993  0.3530  0.2577
  140SAPE  H12X15328   0.752   1.752   9.254 -1.1603  0.9953 -0.0237
  140SAPE  H12Y15329   0.912   1.744   9.337  1.6746  1.2753 -0.8118
  140SAPE  C31315330   0.911   1.685   9.128  0.1318  0.4364  0.0921
  140SAPE  H13X15331   1.018   1.705   9.108 -0.5609  2.6019 -1.7799
  140SAPE  H13Y15332   0.856   1.726   9.041 -1.4351  1.4228  1.4856
  140SAPE  C31415333   0.868   1.540   9.146  0.3619 -0.7792  0.0761
  140SAPE  H14X15334   0.773   1.555   9.200  0.1682  1.0361 -0.7120
  140SAPE  H14Y15335   0.930   1.472   9.209 -1.4100 -1.9499  0.6222
  140SAPE  C31515336   0.855   1.482   9.003  0.0023  0.3200  0.1026
  140SAPE  H15X15337   0.957   1.481   8.960 -0.2053 -1.2487 -0.4038
  140SAPE  H15Y15338   0.789   1.554   8.950 -1.1163 -0.5492  0.2806
  140SAPE  C31615339   0.796   1.337   9.009  0.3777  0.0833  0.2522
  140SAPE  H16X15340   0.689   1.350   9.035  0.0804 -1.5693  0.0016
  140SAPE  H16Y15341   0.844   1.285   9.094 -1.1092 -1.2741  0.3084
  140SAPE  C31715342   0.807   1.258   8.881  0.2050 -0.7064 -0.0220
  140SAPE  H17X15343   0.769   1.156   8.901  1.1301 -0.8322  1.1825
  140SAPE  H17Y15344   0.915   1.243   8.861  0.6896 -0.1778  1.9845
  140SAPE  C31815345   0.729   1.330   8.756 -0.4082  0.3150 -0.5212
  140SAPE  H18X15346   0.735   1.266   8.665 -1.2640 -1.1283  0.3912
  140SAPE  H18Y15347   0.758   1.434   8.733 -2.1612  0.8196 -0.6345
  140SAPE  H18Z15348   0.620   1.336   8.779 -0.0910  0.4559  1.0604
  141SAPE     N15349   1.608   2.007  10.970 -0.4768  0.1236 -0.3438
  141SAPE   HN115350   1.558   2.096  10.989  0.3590  0.1787  1.7687
  141SAPE   HN215351   1.612   1.991  10.867 -1.8888  0.5632 -0.4902
  141SAPE   HN315352   1.539   1.935  11.000  1.1757 -1.2054  0.3684
  141SAPE   C1215353   1.737   1.999  11.043  0.3616 -0.2884  0.7937
  141SAPE  H12A15354   1.719   2.029  11.148  0.7350  2.3344  0.1886
  141SAPE  H12B15355   1.794   2.083  10.997 -2.3645  0.6096 -1.2398
  141SAPE   C1115356   1.820   1.873  11.027 -0.6753  0.4910  0.7210
  141SAPE  H11A15357   1.762   1.788  11.070 -0.3619 -0.8061 -1.2804
  141SAPE  H11B15358   1.912   1.883  11.088 -0.4543 -0.2585  0.5193
  141SAPE     P15359   1.930   1.718  10.844 -0.0764 -0.3855  0.1403
  141SAPE   O1315360   2.063   1.760  10.892 -0.2735  0.0457 -0.7900
  141SAPE   O1415361   1.881   1.586  10.890 -0.1888  0.0199 -0.1652
  141SAPE   O1215362   1.834   1.842  10.886 -0.2794  0.1700  0.3464
  141SAPE   O1115363   1.938   1.712  10.692 -0.1188 -0.2215  0.0032
  141SAPE    C115364   1.850   1.791  10.615  0.3389  0.6234 -0.5064
  141SAPE    HA15365   1.745   1.755  10.627  1.3242 -2.1041  0.9120
  141SAPE    HB15366   1.858   1.898  10.642  1.8128  0.3322  0.3016
  141SAPE    C215367   1.882   1.773  10.461 -0.6584  0.4395 -0.0572
  141SAPE    HS15368   1.821   1.846  10.404  0.0098  0.5241 -0.6694
  141SAPE   O2115369   1.845   1.645  10.423 -0.4336  0.1182 -0.2961
  141SAPE   C2115370   1.716   1.616  10.415  0.6886 -1.1353  0.5085
  141SAPE   O2215371   1.621   1.693  10.412  0.3264  0.3546 -0.2062
  141SAPE   C2215372   1.704   1.462  10.403 -1.7270 -0.0672  0.1475
  141SAPE   H2R15373   1.744   1.423  10.498  0.1853  0.5278 -0.3759
  141SAPE   H2S15374   1.597   1.437  10.386 -1.5030 -0.2660 -1.0489
  141SAPE    C315375   2.033   1.792  10.426 -0.3005  0.3940 -0.7300
  141SAPE    HX15376   2.082   1.693  10.438  0.7233  0.6028 -2.6964
  141SAPE    HY15377   2.073   1.872  10.492 -0.7385  0.8708 -1.0371
  141SAPE   O3115378   2.034   1.851  10.295  0.0846  0.3062  0.2899
  141SAPE   C3115379   2.102   1.787  10.198  0.3921  0.6719 -0.8795
  141SAPE   O3215380   2.168   1.689  10.217  0.0258 -0.2425  0.4468
  141SAPE   C3215381   2.123   1.881  10.091 -0.4982  0.9284  0.0745
  141SAPE   H2X15382   2.222   1.927  10.111  1.4276 -2.6183 -0.5965
  141SAPE   H2Y15383   2.049   1.965  10.092 -1.1432  0.3710 -0.1583
  141SAPE   C2315384   1.784   1.418  10.276 -0.3608  0.1842 -0.7725
  141SAPE   H3R15385   1.802   1.312  10.303 -1.4282  0.9173  3.5900
  141SAPE   H3S15386   1.887   1.460  10.274 -0.5218  0.7963  1.2708
  141SAPE   C2415387   1.697   1.425  10.149  0.4038 -0.2004  0.3768
  141SAPE   H4R15388   1.603   1.373  10.175 -0.6561  0.5364 -1.7893
  141SAPE   H4S15389   1.729   1.361  10.064  0.3419 -2.1754  1.7656
  141SAPE   C2515390   1.652   1.564  10.109  0.5659 -0.2932 -0.7865
  141SAPE   H5R15391   1.585   1.609  10.184 -1.1086  0.6808 -2.7844
  141SAPE   C2615392   1.643   1.614   9.985  0.6810 -0.0422 -0.7165
  141SAPE   H6R15393   1.613   1.718   9.965 -1.7440 -0.2467  1.3500
  141SAPE   C2715394   1.678   1.543   9.858 -1.1900 -0.5962 -0.4756
  141SAPE   H7R15395   1.746   1.457   9.875 -1.3405 -0.7135 -0.4739
  141SAPE   H7S15396   1.741   1.613   9.798  1.3903 -0.9185  1.6349
  141SAPE   C2815397   1.559   1.499   9.777 -0.0855  0.1945  0.0183
  141SAPE   H8R15398   1.478   1.465   9.844 -0.0351 -0.3642 -0.1968
  141SAPE   C2915399   1.553   1.480   9.645  0.1437 -0.4957 -0.4419
  141SAPE   H9R15400   1.465   1.436   9.595  0.5031 -1.1059 -0.5448
  141SAPE  C21015401   1.677   1.497   9.556  0.3269  0.1442 -0.5820
  141SAPE  H10R15402   1.663   1.414   9.483 -0.6526 -0.7461  0.5938
  141SAPE  H10S15403   1.769   1.479   9.616 -0.7153 -1.9551  0.4592
  141SAPE  C21115404   1.687   1.634   9.493 -0.2719 -0.1581 -0.9556
  141SAPE  H11R15405   1.645   1.716   9.554  1.2178 -0.8928  1.1349
  141SAPE  C21215406   1.751   1.658   9.378 -0.2780 -0.4413 -0.2199
  141SAPE  H12R15407   1.747   1.765   9.350  1.7747 -0.1894  0.3079
  141SAPE  C21315408   1.824   1.564   9.286 -0.4745  0.1612 -0.0739
  141SAPE  H13R15409   1.813   1.464   9.334 -0.4788 -0.6272 -1.6572
  141SAPE  H13S15410   1.934   1.579   9.282 -0.2622 -1.3809 -0.5322
  141SAPE  C21415411   1.768   1.561   9.146 -0.4490  0.5464 -0.3466
  141SAPE  H14R15412   1.820   1.637   9.086  0.3185 -0.1710 -0.6056
  141SAPE  C21515413   1.685   1.478   9.080  0.9395  0.2240 -0.4454
  141SAPE  H15R15414   1.659   1.499   8.976  0.1940  0.6814 -0.1747
  141SAPE  C21615415   1.629   1.354   9.148  0.0585 -0.0963 -0.2430
  141SAPE  H16R15416   1.687   1.321   9.237  1.8334  0.1668 -1.2454
  141SAPE  H16S15417   1.639   1.267   9.079 -0.5483  0.2369 -0.7609
  141SAPE  C21715418   1.483   1.346   9.193 -0.2603  0.0613  0.1634
  141SAPE  H17R15419   1.476   1.410   9.283 -3.2988  1.2315 -0.7861
  141SAPE  H17S15420   1.466   1.240   9.221  1.5414 -1.0539 -2.5020
  141SAPE  C21815421   1.373   1.381   9.098  0.0320  0.4637  0.7462
  141SAPE  H18R15422   1.385   1.489   9.073  0.9181 -0.0322 -1.1749
  141SAPE  H18S15423   1.266   1.365   9.122 -0.2423 -0.7582 -1.0617
  141SAPE  C21915424   1.388   1.313   8.961  0.3784  0.4667 -0.0160
  141SAPE  H19R15425   1.351   1.208   8.965  0.4999  0.4572  1.9992
  141SAPE  H19S15426   1.497   1.315   8.937  0.3987  2.8722 -0.0183
  141SAPE  C22015427   1.313   1.381   8.843  0.7025  0.4242  0.1180
  141SAPE  H20R15428   1.370   1.470   8.811 -0.8536  0.6380 -2.3216
  141SAPE  H20S15429   1.209   1.405   8.872  0.7297  0.1689  0.4388
  141SAPE  H20T15430   1.305   1.310   8.758 -0.9146 -0.5913  1.0583
  141SAPE   C3315431   2.139   1.803   9.956  0.5773  0.1153 -0.2161
  141SAPE   H3X15432   2.045   1.749   9.928  1.3002 -0.9533 -0.6671
  141SAPE   H3Y15433   2.217   1.724   9.965  0.0686 -0.3113  0.5941
  141SAPE   C3415434   2.167   1.904   9.842 -0.3973  1.0193 -0.1408
  141SAPE   H4X15435   2.252   1.971   9.865 -0.7447  1.0238  1.2625
  141SAPE   H4Y15436   2.075   1.965   9.831 -0.9565  0.3459  0.6060
  141SAPE   C3515437   2.175   1.838   9.702 -0.0220  0.7097  0.2782
  141SAPE   H5X15438   2.079   1.786   9.677  0.0123 -0.1120  1.7540
  141SAPE   H5Y15439   2.252   1.758   9.703 -0.4825  0.2289  2.9153
  141SAPE   C3615440   2.207   1.936   9.591 -0.3509  0.5702  0.7100
  141SAPE   H6X15441   2.306   1.985   9.606  1.0329 -0.8998 -2.4965
  141SAPE   H6Y15442   2.128   2.013   9.583 -1.0703 -0.3018 -1.7337
  141SAPE   C3715443   2.202   1.878   9.448 -0.2363  0.6431  0.1201
  141SAPE   H7X15444   2.266   1.786   9.447 -0.6904  0.3247 -0.1009
  141SAPE   H7Y15445   2.239   1.952   9.374 -2.6406  1.7372 -0.0621
  141SAPE   C3815446   2.063   1.847   9.397  0.9153 -0.1630  0.3215
  141SAPE   H8X15447   2.006   1.941   9.414  1.9815  0.2975  1.4904
  141SAPE   H8Y15448   2.017   1.761   9.450  0.6273 -0.4729 -0.4266
  141SAPE   C3915449   2.048   1.841   9.242  0.2013 -0.2331  0.2376
  141SAPE   H9X15450   2.081   1.941   9.205 -0.3577  0.0677  0.5317
  141SAPE   H9Y15451   1.941   1.820   9.222  0.2509  1.3693 -2.1319
  141SAPE  C31015452   2.138   1.741   9.169 -1.2317 -0.9473 -0.0256
  141SAPE  H10X15453   2.148   1.649   9.232 -0.8914 -1.0245 -0.1858
  141SAPE  H10Y15454   2.242   1.778   9.161 -1.5104 -0.0964  0.2526
  141SAPE  C31115455   2.094   1.705   9.030 -0.4435  0.2223 -0.3842
  141SAPE  H11X15456   2.093   1.796   8.965 -2.0816  0.4546 -0.0680
  141SAPE  H11Y15457   1.991   1.664   9.027 -0.1257 -1.0294  2.7467
  141SAPE  C31215458   2.175   1.586   8.968  0.0282 -0.3865  0.2476
  141SAPE  H12X15459   2.155   1.490   9.021  2.2599 -2.3041 -2.0681
  141SAPE  H12Y15460   2.284   1.601   8.984 -0.1714 -0.8685  2.3508
  141SAPE  C31315461   2.156   1.564   8.816  0.3159  0.0926 -0.3096
  141SAPE  H13X15462   2.184   1.655   8.758  4.8298 -0.6372  0.3207
  141SAPE  H13Y15463   2.047   1.548   8.801  0.2500 -1.3519  1.4408
  141SAPE  C31415464   2.234   1.439   8.776 -0.0465 -0.0330  0.1138
  141SAPE  H14X15465   2.216   1.360   8.852  2.5424  0.1158  0.9803
  141SAPE  H14Y15466   2.344   1.453   8.789 -0.2403  0.0948  1.8258
  141SAPE  C31515467   2.187   1.386   8.635  0.5106 -0.2293 -0.8533
  141SAPE  H15X15468   2.205   1.467   8.560  0.6664  1.1968  0.6626
  141SAPE  H15Y15469   2.080   1.359   8.639  0.2187  0.9676  2.3689
  141SAPE  C31615470   2.271   1.256   8.604  0.7671  0.4603 -0.0146
  141SAPE  H16X15471   2.256   1.187   8.689 -0.7521  0.2459 -0.4379
  141SAPE  H16Y15472   2.377   1.289   8.599  0.9196  0.1504  1.0640
  141SAPE  C31715473   2.226   1.176   8.480 -0.4981 -0.0901 -0.7564
  141SAPE  H17X15474   2.257   1.220   8.383 -3.0175  0.8719 -1.2232
  141SAPE  H17Y15475   2.118   1.151   8.466 -0.0151 -3.2657  0.4117
  141SAPE  C31815476   2.302   1.033   8.485  0.2396 -0.3670  0.5420
  141SAPE  H18X15477   2.334   0.996   8.585  3.1110 -1.0155 -0.5398
  141SAPE  H18Y15478   2.390   1.032   8.418 -0.7531 -1.9551 -0.8066
  141SAPE  H18Z15479   2.230   0.955   8.451  0.7097 -2.0325  3.0977
  142SAPE     N15480   3.781   0.827  10.888 -0.1059  0.5254 -0.2807
  142SAPE   HN115481   3.878   0.864  10.885 -0.0022  0.2395 -3.0078
  142SAPE   HN215482   3.775   0.762  10.807  0.5486 -0.1995  0.2418
  142SAPE   HN315483   3.715   0.904  10.864  0.2850  0.4195 -1.7785
  142SAPE   C1215484   3.762   0.744  11.016 -0.0067 -0.3036  0.0679
  142SAPE  H12A15485   3.653   0.721  11.023 -0.1143 -0.3730 -1.4884
  142SAPE  H12B15486   3.786   0.800  11.108  0.1364  3.0883 -1.8920
  142SAPE   C1115487   3.834   0.613  10.995 -0.2017 -0.1009  0.0589
  142SAPE  H11A15488   3.824   0.546  11.084  1.3353  1.8239  1.7917
  142SAPE  H11B15489   3.939   0.650  10.996 -0.2361 -0.0088  0.4747
  142SAPE     P15490   3.686   0.457  10.847 -0.1970  0.5347  0.3414
  142SAPE   O1315491   3.664   0.376  10.970 -0.0294 -0.1716 -0.3494
  142SAPE   O1415492   3.573   0.546  10.806  0.5197 -0.0014 -0.4084
  142SAPE   O1215493   3.816   0.543  10.874 -0.0355 -0.6248 -0.6258
  142SAPE   O1115494   3.718   0.359  10.726 -0.3586 -0.0651  0.0565
  142SAPE    C115495   3.849   0.354  10.668 -0.1270  0.4754  0.6431
  142SAPE    HA15496   3.933   0.396  10.728 -1.3398  2.1769  1.2549
  142SAPE    HB15497   3.871   0.248  10.642  0.9979  0.1221  2.8359
  142SAPE    C215498   3.853   0.438  10.539  0.2232 -0.4300 -0.2415
  142SAPE    HS15499   3.839   0.545  10.567  0.3529 -0.1009 -1.3465
  142SAPE   O2115500   3.753   0.389  10.444  0.4230  0.1357 -0.1951
  142SAPE   C2115501   3.665   0.473  10.411  0.3269  0.6080  0.5984
  142SAPE   O2215502   3.653   0.590  10.435 -0.5000 -0.2516 -0.3381
  142SAPE   C2215503   3.565   0.401  10.311 -1.0651 -0.7206 -0.7929
  142SAPE   H2R15504   3.568   0.290  10.313 -0.4221 -0.7395 -1.9030
  142SAPE   H2S15505   3.469   0.433  10.356  0.0730  0.9426  0.5619
  142SAPE    C315506   3.987   0.446  10.453 -0.1756 -0.1996  0.3729
  142SAPE    HX15507   4.010   0.339  10.435 -0.1886  0.4363 -4.6749
  142SAPE    HY15508   4.070   0.488  10.514 -1.9267  1.1270  1.9743
  142SAPE   O3115509   3.976   0.510  10.321  0.1654 -0.3901 -0.4198
  142SAPE   C3115510   3.959   0.638  10.328 -0.0452  0.2450  0.5457
  142SAPE   O3215511   3.968   0.703  10.433  0.2883 -0.6338 -0.1223
  142SAPE   C3215512   3.927   0.692  10.195  0.1329  0.0567  0.3673
  142SAPE   H2X15513   3.862   0.620  10.141 -0.7159  0.8320  0.3248
  142SAPE   H2Y15514   4.027   0.709  10.150  1.1231 -1.9927  1.6271
  142SAPE   C2315515   3.581   0.456  10.166 -0.5886 -0.0274 -0.0093
  142SAPE   H3R15516   3.681   0.425  10.130 -0.3051 -1.6184  1.9080
  142SAPE   H3S15517   3.575   0.566  10.181 -0.5327 -0.0396  0.1065
  142SAPE   C2415518   3.473   0.414  10.066  0.1754  1.2486 -0.0352
  142SAPE   H4R15519   3.457   0.486   9.983  0.3519  0.3024 -0.9058
  142SAPE   H4S15520   3.374   0.411  10.118  0.2681 -1.3226  0.1435
  142SAPE   C2515521   3.490   0.263  10.022 -0.1429  0.0931  0.7494
  142SAPE   H5R15522   3.509   0.191  10.103 -0.2610 -2.5214 -1.3984
  142SAPE   C2615523   3.490   0.205   9.901 -0.0973 -0.2850  0.1326
  142SAPE   H6R15524   3.492   0.096   9.886  1.5249 -0.4084  1.0281
  142SAPE   C2715525   3.476   0.290   9.775  0.0871  0.4771  0.4132
  142SAPE   H7R15526   3.571   0.344   9.755  0.1092  0.5570  0.7312
  142SAPE   H7S15527   3.391   0.360   9.791 -2.0051 -2.0840  1.2426
  142SAPE   C2815528   3.450   0.199   9.652  0.9798 -0.1097  0.0249
  142SAPE   H8R15529   3.403   0.102   9.674  1.1849  0.0807  1.3783
  142SAPE   C2915530   3.481   0.232   9.525 -0.3687 -0.2272  0.4446
  142SAPE   H9R15531   3.442   0.159   9.453  3.3923 -0.9867 -1.0211
  142SAPE  C21015532   3.544   0.360   9.475 -0.1654  0.2708 -0.1703
  142SAPE  H10R15533   3.653   0.342   9.466  0.0444  0.2486  1.9965
  142SAPE  H10S15534   3.538   0.437   9.554 -2.0034 -2.0945  2.1968
  142SAPE  C21115535   3.484   0.404   9.343 -0.1151  0.2761 -0.4783
  142SAPE  H11R15536   3.383   0.446   9.347 -0.0414  0.5138 -0.9472
  142SAPE  C21215537   3.541   0.407   9.223  0.6560 -0.1167  0.0907
  142SAPE  H12R15538   3.482   0.445   9.138 -0.0723 -2.3598 -0.4947
  142SAPE  C21315539   3.684   0.355   9.194  0.4002 -0.2421 -0.5583
  142SAPE  H13R15540   3.694   0.278   9.114  0.9224 -0.4918 -0.2574
  142SAPE  H13S15541   3.733   0.302   9.278  1.0865  0.9219 -0.2110
  142SAPE  C21415542   3.751   0.485   9.154 -0.5712 -0.1302  0.2357
  142SAPE  H14R15543   3.788   0.550   9.235 -1.0444  0.0644  0.2986
  142SAPE  C21515544   3.775   0.529   9.027  0.1163  0.7629 -0.0720
  142SAPE  H15R15545   3.824   0.625   9.006  0.5210  0.0750 -2.4361
  142SAPE  C21615546   3.744   0.453   8.897 -0.1083 -0.1247  0.4389
  142SAPE  H16R15547   3.658   0.502   8.847 -0.5400 -0.2512  1.0435
  142SAPE  H16S15548   3.724   0.344   8.899 -0.4566 -0.4084 -4.6347
  142SAPE  C21715549   3.861   0.467   8.794  0.0984  0.1744  0.2713
  142SAPE  H17R15550   3.855   0.404   8.703 -1.0110  0.3250  0.2260
  142SAPE  H17S15551   3.951   0.437   8.853 -0.7540  0.1085  1.5851
  142SAPE  C21815552   3.884   0.605   8.739  0.8874 -0.3747 -0.0327
  142SAPE  H18R15553   3.894   0.671   8.827 -0.1916  0.2191 -0.3419
  142SAPE  H18S15554   3.798   0.646   8.682  0.4089  1.5413  1.9528
  142SAPE  C21915555   3.999   0.630   8.636  0.5077 -0.1649 -0.2770
  142SAPE  H19R15556   3.965   0.589   8.538  1.5654 -1.0475 -0.2982
  142SAPE  H19S15557   4.093   0.574   8.660  1.6276  1.8542  0.2944
  142SAPE  C22015558   4.043   0.776   8.628  0.0902 -0.1199 -0.7669
  142SAPE  H20R15559   3.960   0.835   8.584 -0.4097  0.4149  0.8211
  142SAPE  H20S15560   4.138   0.778   8.571  0.9116  3.0403  0.5083
  142SAPE  H20T15561   4.055   0.823   8.728 -0.3249 -1.4362 -0.0654
  142SAPE   C3315562   3.855   0.827  10.205  0.6640  1.1704 -0.2793
  142SAPE   H3X15563   3.929   0.910  10.213  1.9498 -0.0751  1.7117
  142SAPE   H3Y15564   3.795   0.828  10.298 -0.2561  1.0723 -0.8545
  142SAPE   C3415565   3.767   0.854  10.083 -0.3287  0.5059  0.4623
  142SAPE   H4X15566   3.727   0.956  10.105 -0.0985 -0.1470  4.7960
  142SAPE   H4Y15567   3.695   0.770  10.079  0.2372 -0.0125  0.9324
  142SAPE   C3515568   3.838   0.837   9.959 -0.4474 -0.6531  0.4371
  142SAPE   H5X15569   3.883   0.738   9.937 -0.1225 -0.7534  1.4860
  142SAPE   H5Y15570   3.922   0.909   9.951  0.7328 -1.8578  1.5190
  142SAPE   C3615571   3.741   0.857   9.844  0.2912 -0.6027  0.2883
  142SAPE   H6X15572   3.684   0.951   9.858 -0.1718 -0.5967 -1.4004
  142SAPE   H6Y15573   3.666   0.774   9.847  0.6547 -0.9084  1.7092
  142SAPE   C3715574   3.802   0.870   9.698  0.5118  0.0308  0.7625
  142SAPE   H7X15575   3.861   0.779   9.678  1.6878  1.2709 -1.9361
  142SAPE   H7Y15576   3.857   0.967   9.690 -1.2704  1.1098  0.8904
  142SAPE   C3815577   3.683   0.869   9.600 -0.0626  0.0378 -0.1624
  142SAPE   H8X15578   3.612   0.949   9.628  0.1085 -0.0712  0.5941
  142SAPE   H8Y15579   3.622   0.777   9.610 -0.6688  0.3775 -0.6830
  142SAPE   C3915580   3.738   0.875   9.454  0.3147  0.2526 -0.5568
  142SAPE   H9X15581   3.802   0.787   9.432 -1.3901 -1.1141 -0.2448
  142SAPE   H9Y15582   3.800   0.967   9.455 -0.3772  0.7210  0.9255
  142SAPE  C31015583   3.624   0.880   9.344  0.3226  0.2094 -0.5689
  142SAPE  H10X15584   3.556   0.968   9.358 -0.8455 -0.6670 -0.5564
  142SAPE  H10Y15585   3.561   0.789   9.353  0.6000 -0.0006 -0.7431
  142SAPE  C31115586   3.674   0.886   9.199  0.3902 -0.3496 -0.1028
  142SAPE  H11X15587   3.711   0.782   9.185 -0.2211 -0.7765  1.2457
  142SAPE  H11Y15588   3.752   0.965   9.198 -0.2915  0.4121  2.0877
  142SAPE  C31215589   3.559   0.913   9.094 -0.3288 -0.5935 -0.4035
  142SAPE  H12X15590   3.500   1.007   9.100  0.8133  0.1589 -0.6082
  142SAPE  H12Y15591   3.496   0.821   9.098  0.8267 -1.3647  0.6716
  142SAPE  C31315592   3.624   0.910   8.956  0.0633  0.2590 -0.5490
  142SAPE  H13X15593   3.663   0.808   8.934  1.3830  0.7535 -0.6194
  142SAPE  H13Y15594   3.712   0.977   8.946  1.0828 -0.9369  0.1550
  142SAPE  C31415595   3.524   0.946   8.844  0.6070  0.5773 -0.5231
  142SAPE  H14X15596   3.477   1.044   8.866 -1.0562 -0.2529 -0.2569
  142SAPE  H14Y15597   3.438   0.879   8.825 -1.6697  2.8500  1.0486
  142SAPE  C31515598   3.602   0.973   8.713 -0.2854 -0.1771  0.2435
  142SAPE  H15X15599   3.682   0.901   8.686  0.1375  0.4141 -0.1305
  142SAPE  H15Y15600   3.648   1.074   8.722 -1.0797  0.4593 -2.1925
  142SAPE  C31615601   3.505   0.971   8.591 -0.4142 -0.3522  0.9766
  142SAPE  H16X15602   3.409   1.021   8.617  1.3409  3.0381  1.5248
  142SAPE  H16Y15603   3.476   0.868   8.561  0.6275 -1.0289  2.1700
  142SAPE  C31715604   3.540   1.065   8.474  0.1142 -0.2733  0.3787
  142SAPE  H17X15605   3.644   1.047   8.439  0.7549  1.5327  1.2154
  142SAPE  H17Y15606   3.553   1.169   8.513  4.9521 -1.1540  1.7653
  142SAPE  C31815607   3.447   1.064   8.356 -0.2935  0.0737  0.6548
  142SAPE  H18X15608   3.442   0.961   8.315 -1.3677  0.2995  0.1699
  142SAPE  H18Y15609   3.490   1.133   8.279 -0.2369 -0.0569  0.5693
  142SAPE  H18Z15610   3.347   1.104   8.384 -0.8425 -0.3066 -0.6933
  143SAPE     N15611   5.806   6.574  11.119 -0.2703 -0.7161  0.1637
  143SAPE   HN115612   5.815   6.473  11.140 -2.2575 -1.0496 -0.3763
  143SAPE   HN215613   5.708   6.573  11.084 -0.2908  0.8898  0.1093
  143SAPE   HN315614   5.866   6.601  11.038 -1.0669  0.0819 -0.1852
  143SAPE   C1215615   5.814   6.666  11.244  0.2741 -0.9651 -0.1503
  143SAPE  H12A15616   5.919   6.679  11.276 -0.3105  0.5293  1.2934
  143SAPE  H12B15617   5.760   6.615  11.327 -0.7899  0.9460  0.3973
  143SAPE   C1115618   5.761   6.808  11.218  0.0349  0.1338  0.3035
  143SAPE  H11A15619   5.791   6.874  11.302 -1.3678  1.3889 -0.1426
  143SAPE  H11B15620   5.650   6.801  11.211  0.0536  0.4925 -0.4662
  143SAPE     P15621   5.767   6.987  11.047 -0.1999  0.2807  0.0501
  143SAPE   O1315622   5.633   7.009  11.093  0.6753 -0.0319  0.2732
  143SAPE   O1415623   5.865   7.085  11.088  0.2279  0.5135  0.4005
  143SAPE   O1215624   5.822   6.848  11.099  0.3692 -0.4076  0.0875
  143SAPE   O1115625   5.775   6.982  10.889  0.1142 -0.4525 -0.3444
  143SAPE    C115626   5.808   6.858  10.822 -0.0455  0.1943 -0.0397
  143SAPE    HA15627   5.916   6.839  10.803  0.2900  1.6623  0.2534
  143SAPE    HB15628   5.761   6.770  10.871 -2.1907  0.1544 -1.9901
  143SAPE    C215629   5.724   6.852  10.692 -0.1653 -0.3077 -0.0833
  143SAPE    HS15630   5.729   6.746  10.658 -1.0785 -0.3683 -0.0766
  143SAPE   O2115631   5.769   6.939  10.587 -0.2894  0.5008  0.4499
  143SAPE   C2115632   5.878   6.890  10.523 -0.0842 -0.9191  0.3632
  143SAPE   O2215633   5.943   6.799  10.553 -0.8318 -0.0759 -0.7174
  143SAPE   C2215634   5.900   6.965  10.392 -0.0776  0.5969 -0.8560
  143SAPE   H2R15635   5.802   6.948  10.342 -0.2472  0.0644 -0.3625
  143SAPE   H2S15636   5.927   7.069  10.423 -0.1782  0.3448  0.1330
  143SAPE    C315637   5.567   6.877  10.718 -0.1308 -0.0446  0.4183
  143SAPE    HX15638   5.556   6.971  10.777  1.0552 -0.5820  1.5379
  143SAPE    HY15639   5.527   6.795  10.781 -0.5274 -0.2822 -0.1394
  143SAPE   O3115640   5.496   6.882  10.596 -0.3113 -0.0655  0.2028
  143SAPE   C3115641   5.484   7.016  10.543  0.7805  0.5026  0.4321
  143SAPE   O3215642   5.531   7.117  10.584  0.4621  0.3273 -0.2928
  143SAPE   C3215643   5.407   7.008  10.407 -0.4241  0.6407  0.0950
  143SAPE   H2X15644   5.308   7.060  10.412 -1.4954 -1.3252  0.1106
  143SAPE   H2Y15645   5.381   6.902  10.384  1.3704  0.0966  0.5011
  143SAPE   C2315646   6.000   6.896  10.305  0.0315  0.7718  0.0202
  143SAPE   H3R15647   5.957   6.800  10.269  0.1435  1.2299 -1.3600
  143SAPE   H3S15648   6.089   6.862  10.363 -0.2081 -0.1983 -0.1658
  143SAPE   C2415649   6.040   6.985  10.189  0.3719 -0.3547 -0.3169
  143SAPE   H4R15650   6.109   6.926  10.124 -0.9130 -0.2196 -1.8712
  143SAPE   H4S15651   6.092   7.080  10.215  0.0273 -0.5755  1.2688
  143SAPE   C2515652   5.924   7.029  10.101  0.3701 -0.6729 -0.6239
  143SAPE   H5R15653   5.872   7.124  10.122  0.1186 -1.1302  0.8780
  143SAPE   C2615654   5.879   6.959  10.002  0.3168 -0.2669 -0.0697
  143SAPE   H6R15655   5.810   7.010   9.934 -1.6514 -1.3004  1.0781
  143SAPE   C2715656   5.937   6.834   9.950 -0.1204 -0.6848  0.5155
  143SAPE   H7R15657   5.942   6.757  10.030  0.7212 -2.4043 -1.1308
  143SAPE   H7S15658   6.043   6.860   9.928 -0.5376  0.6458 -0.0159
  143SAPE   C2815659   5.864   6.776   9.830  0.0476 -0.8272  0.0630
  143SAPE   H8R15660   5.793   6.838   9.773  1.9726  2.1605  0.7190
  143SAPE   C2915661   5.869   6.645   9.789 -0.0279 -0.5794 -0.5059
  143SAPE   H9R15662   5.819   6.617   9.695 -1.1883 -0.3916  0.0458
  143SAPE  C21015663   5.938   6.531   9.855 -0.6308  0.2855  0.5029
  143SAPE  H10R15664   6.012   6.568   9.929 -1.4069 -0.7664  1.8420
  143SAPE  H10S15665   5.993   6.481   9.772  1.2212  2.1597  0.5020
  143SAPE  C21115666   5.851   6.443   9.938  0.0678  1.1183 -0.1013
  143SAPE  H11R15667   5.811   6.484  10.031 -1.3121  0.2692 -0.2992
  143SAPE  C21215668   5.816   6.317   9.903 -0.2440  0.4905  0.4165
  143SAPE  H12R15669   5.734   6.277   9.964 -1.3694 -0.0435 -1.3899
  143SAPE  C21315670   5.855   6.232   9.778  0.4922 -0.1171 -0.6302
  143SAPE  H13R15671   5.809   6.133   9.800 -3.5325  1.4609 -1.1650
  143SAPE  H13S15672   5.966   6.228   9.771  0.6173  0.2080  0.9418
  143SAPE  C21415673   5.812   6.281   9.646 -0.1497  0.4716  0.4802
  143SAPE  H14R15674   5.766   6.380   9.638 -0.4095  0.3471  0.4170
  143SAPE  C21515675   5.838   6.227   9.522 -0.3951  0.4138 -0.4827
  143SAPE  H15R15676   5.795   6.271   9.431 -0.5322  0.4804 -0.3846
  143SAPE  C21615677   5.918   6.099   9.483 -0.1613 -0.0350 -0.0860
  143SAPE  H16R15678   5.988   6.050   9.554 -0.4039 -0.6241 -0.2522
  143SAPE  H16S15679   5.983   6.120   9.395  0.1237 -0.8224 -0.0699
  143SAPE  C21715680   5.815   5.999   9.430  0.3323 -0.5649 -0.4404
  143SAPE  H17R15681   5.868   5.916   9.378  0.8695 -0.4284 -0.1197
  143SAPE  H17S15682   5.737   6.039   9.362  0.8861 -1.2797 -1.5159
  143SAPE  C21815683   5.743   5.936   9.546  0.7474 -0.1704  0.3591
  143SAPE  H18R15684   5.675   5.854   9.515  0.0979  0.6160 -0.3655
  143SAPE  H18S15685   5.684   6.015   9.597 -1.5586  0.3425 -2.7794
  143SAPE  C21915686   5.838   5.857   9.641 -0.2239  0.4586  0.2731
  143SAPE  H19R15687   5.888   5.936   9.701  1.3133 -0.4399  0.2433
  143SAPE  H19S15688   5.915   5.808   9.577 -0.0717  2.2956 -1.0290
  143SAPE  C22015689   5.768   5.747   9.728 -1.0134 -0.1944 -0.2869
  143SAPE  H20R15690   5.844   5.688   9.784  0.1108  1.4772  0.0241
  143SAPE  H20S15691   5.705   5.678   9.667  0.0656  0.1261 -1.8446
  143SAPE  H20T15692   5.695   5.801   9.792 -0.2133  1.0973 -0.4300
  143SAPE   C3315693   5.483   7.077  10.289  0.2988 -0.1888 -0.2940
  143SAPE   H3X15694   5.551   7.146  10.344  0.3142 -0.5430  0.1339
  143SAPE   H3Y15695   5.407   7.124  10.224  0.5728 -1.4789 -1.5974
  143SAPE   C3415696   5.569   6.978  10.212 -1.1236 -0.2285 -0.4392
  143SAPE   H4X15697   5.595   6.886  10.267 -1.4840 -0.8921 -1.3558
  143SAPE   H4Y15698   5.664   7.028  10.183 -0.3956 -2.0744 -1.3280
  143SAPE   C3515699   5.490   6.916  10.094 -0.2000  0.2167 -0.5677
  143SAPE   H5X15700   5.398   6.871  10.134  1.2104 -0.1779  2.4840
  143SAPE   H5Y15701   5.550   6.830  10.056 -0.5458 -1.2504  2.0082
  143SAPE   C3615702   5.462   7.010   9.980  0.4391  0.0868 -0.1983
  143SAPE   H6X15703   5.542   7.086   9.965  0.7291 -0.2233 -0.2452
  143SAPE   H6Y15704   5.363   7.055  10.002 -0.3563 -0.7974 -1.8225
  143SAPE   C3715705   5.452   6.944   9.839 -0.2333  0.3839  0.0406
  143SAPE   H7X15706   5.355   6.898   9.811  0.2803 -0.4559 -0.4042
  143SAPE   H7Y15707   5.528   6.862   9.838  0.1322  0.7160  0.2749
  143SAPE   C3815708   5.519   7.036   9.729  0.1814 -0.4181 -0.2207
  143SAPE   H8X15709   5.613   7.081   9.769 -0.0624 -1.0599  1.1151
  143SAPE   H8Y15710   5.448   7.119   9.712 -0.0915 -1.3968 -5.6336
  143SAPE   C3915711   5.555   6.969   9.594  0.0527 -0.1902  0.1913
  143SAPE   H9X15712   5.470   6.902   9.569 -0.9564  0.4314  1.8151
  143SAPE   H9Y15713   5.643   6.902   9.608  0.6294  0.6969  0.8758
  143SAPE  C31015714   5.593   7.065   9.488  0.3106 -1.5290  1.4405
  143SAPE  H10X15715   5.675   7.140   9.502 -1.6209  1.3693 -1.3339
  143SAPE  H10Y15716   5.505   7.129   9.466  2.6896  1.5452 -0.0140
  143SAPE  C31115717   5.630   6.982   9.365  0.1862  0.2855  0.8791
  143SAPE  H11X15718   5.584   6.882   9.365  0.1930  0.2331 -1.3447
  143SAPE  H11Y15719   5.740   6.965   9.367  0.2133  0.5074  1.5614
  143SAPE  C31215720   5.604   7.046   9.228 -0.8527  0.2945  0.4113
  143SAPE  H12X15721   5.662   7.141   9.227  2.8399 -1.7540  0.0855
  143SAPE  H12Y15722   5.497   7.072   9.221 -0.4699  1.9436  0.3158
  143SAPE  C31315723   5.650   6.955   9.116  1.0216  0.0188 -0.2721
  143SAPE  H13X15724   5.591   6.864   9.134 -0.2390  0.8008 -0.3406
  143SAPE  H13Y15725   5.761   6.946   9.126  1.2403  0.6760 -1.8452
  143SAPE  C31415726   5.612   7.005   8.971 -0.5533 -0.2420  0.3679
  143SAPE  H14X15727   5.510   7.050   8.975 -0.1981  1.0576 -2.5359
  143SAPE  H14Y15728   5.602   6.915   8.908  0.9272 -0.8651  0.9826
  143SAPE  C31515729   5.699   7.115   8.902  0.6172 -0.5495  0.2432
  143SAPE  H15X15730   5.718   7.195   8.977 -1.1824  0.1278  0.0232
  143SAPE  H15Y15731   5.644   7.163   8.819  1.7249  0.3124 -0.0128
  143SAPE  C31615732   5.827   7.059   8.849  0.1658 -0.1825  0.1789
  143SAPE  H16X15733   5.883   7.154   8.831 -0.3342  0.0937  0.0527
  143SAPE  H16Y15734   5.807   7.015   8.750  1.1129 -0.2120 -0.0119
  143SAPE  C31715735   5.922   6.967   8.931  0.0957 -0.1665  0.0661
  143SAPE  H17X15736   5.863   6.878   8.964  0.4154 -0.6942 -0.7485
  143SAPE  H17Y15737   5.953   7.014   9.027  1.3832  3.4593 -1.9394
  143SAPE  C31815738   6.034   6.918   8.849 -0.0919  0.0768  0.1280
  143SAPE  H18X15739   6.095   6.837   8.895  0.3477 -1.6810 -3.2669
  143SAPE  H18Y15740   6.088   7.009   8.815 -0.4595 -0.1755 -1.1776
  143SAPE  H18Z15741   5.996   6.872   8.756  0.7805  1.4972 -0.9658
  144SAPE     N15742   2.588   4.838  11.158 -0.5384  0.1300 -0.2287
  144SAPE   HN115743   2.485   4.852  11.149 -1.0297 -2.9598 -0.5557
  144SAPE   HN215744   2.628   4.915  11.215 -0.1142  0.4757 -0.9864
  144SAPE   HN315745   2.631   4.840  11.063  0.6611 -1.7846  0.2184
  144SAPE   C1215746   2.599   4.706  11.226  0.6103  0.4404  0.1246
  144SAPE  H12A15747   2.600   4.722  11.336 -0.1126  5.4667 -0.3818
  144SAPE  H12B15748   2.699   4.672  11.191 -0.7924 -3.3578 -0.7390
  144SAPE   C1115749   2.501   4.599  11.178  0.4673 -0.2346 -0.1868
  144SAPE  H11A15750   2.394   4.609  11.203  0.5158  1.8674 -0.6373
  144SAPE  H11B15751   2.530   4.513  11.242 -0.3463 -0.7169 -0.4612
  144SAPE     P15752   2.456   4.462  10.968  0.1989  0.0470  0.0234
  144SAPE   O1315753   2.504   4.338  11.028  0.4313 -0.3209  0.5129
  144SAPE   O1415754   2.313   4.486  10.955  0.1488 -0.5085 -0.0732
  144SAPE   O1215755   2.531   4.580  11.042 -0.0750 -0.3789  0.2709
  144SAPE   O1115756   2.525   4.463  10.819 -0.4230  0.2315  0.3805
  144SAPE    C115757   2.548   4.588  10.747  0.2627 -0.3204  0.2640
  144SAPE    HA15758   2.543   4.679  10.811  0.9660  0.9322 -1.3802
  144SAPE    HB15759   2.649   4.591  10.702  0.4506  2.7922  0.6730
  144SAPE    C215760   2.434   4.589  10.638 -0.3149  0.1792  0.9939
  144SAPE    HS15761   2.336   4.590  10.690 -0.6350  0.6176  0.3999
  144SAPE   O2115762   2.463   4.477  10.548 -0.1644 -0.1197  0.0088
  144SAPE   C2115763   2.356   4.403  10.528  0.0501  0.1977  0.0064
  144SAPE   O2215764   2.250   4.421  10.586  0.6183 -1.2055  0.7970
  144SAPE   C2215765   2.376   4.299  10.413 -0.1531  0.2639  0.1003
  144SAPE   H2R15766   2.427   4.209  10.453  2.4976  1.6935  0.2051
  144SAPE   H2S15767   2.275   4.270  10.379 -0.2894  1.0239 -0.1672
  144SAPE    C315768   2.430   4.723  10.555  0.5377 -0.1242  0.2045
  144SAPE    HX15769   2.526   4.744  10.503  0.5901  0.3360  0.4844
  144SAPE    HY15770   2.409   4.804  10.628  0.3840  0.9741 -1.0168
  144SAPE   O3115771   2.335   4.714  10.451  0.6509 -0.1484 -0.0693
  144SAPE   C3115772   2.282   4.822  10.398 -0.1189 -0.4325 -0.0310
  144SAPE   O3215773   2.308   4.938  10.424 -0.1018 -0.9151  0.0921
  144SAPE   C3215774   2.180   4.776  10.297 -0.4573  0.7974  0.3883
  144SAPE   H2X15775   2.105   4.856  10.279 -1.6054 -0.2691  0.2755
  144SAPE   H2Y15776   2.139   4.685  10.347 -0.3991 -0.0631 -1.0681
  144SAPE   C2315777   2.450   4.357  10.285  0.5756 -0.1692 -0.3348
  144SAPE   H3R15778   2.538   4.414  10.321  0.2384 -0.8236  1.6189
  144SAPE   H3S15779   2.387   4.431  10.230 -0.5561 -2.0903 -1.7916
  144SAPE   C2415780   2.507   4.248  10.186 -0.0658 -0.4470  0.3950
  144SAPE   H4R15781   2.571   4.183  10.250 -0.9126 -1.1034  0.5996
  144SAPE   H4S15782   2.575   4.294  10.112  4.3884 -1.7261  3.2764
  144SAPE   C2515783   2.395   4.175  10.126  0.0393  0.1725  0.8239
  144SAPE   H5R15784   2.336   4.125  10.204  1.0097  0.2642  1.6378
  144SAPE   C2615785   2.389   4.131   9.999 -0.0066  0.1887  0.2586
  144SAPE   H6R15786   2.306   4.072   9.957  0.5336 -0.6344  0.3351
  144SAPE   C2715787   2.485   4.175   9.892 -0.1908  0.6116 -0.0668
  144SAPE   H7R15788   2.509   4.283   9.906  2.1049 -0.1927  3.6370
  144SAPE   H7S15789   2.420   4.179   9.802 -1.2772  1.3214  0.7337
  144SAPE   C2815790   2.617   4.098   9.889 -0.3713 -0.1497  0.6093
  144SAPE   H8R15791   2.667   4.098   9.987 -0.4804 -1.0874  0.6770
  144SAPE   C2915792   2.672   4.050   9.776 -0.1812 -0.3974  0.2575
  144SAPE   H9R15793   2.769   4.000   9.789 -0.2866 -1.2548 -1.8104
  144SAPE  C21015794   2.619   4.066   9.634 -0.4511 -0.7132  0.2003
  144SAPE  H10R15795   2.536   4.141   9.642 -0.6600 -1.0355  1.0981
  144SAPE  H10S15796   2.581   3.969   9.595 -0.3798 -1.8434  2.7844
  144SAPE  C21115797   2.718   4.122   9.538  0.6541 -0.5826  0.1946
  144SAPE  H11R15798   2.803   4.174   9.586 -0.2274  2.6340 -1.4339
  144SAPE  C21215799   2.706   4.140   9.411  0.5293 -0.0343 -0.9779
  144SAPE  H12R15800   2.794   4.186   9.363  2.2094  0.1130  1.9552
  144SAPE  C21315801   2.594   4.095   9.323  0.0281 -0.2704 -0.9677
  144SAPE  H13R15802   2.555   4.003   9.371 -0.0120  0.0786 -0.3287
  144SAPE  H13S15803   2.641   4.063   9.228 -1.2668 -1.1170 -1.3540
  144SAPE  C21415804   2.486   4.199   9.313 -0.2574  0.1648 -0.2299
  144SAPE  H14R15805   2.457   4.242   9.410  0.0347  1.4643 -0.6949
  144SAPE  C21515806   2.419   4.243   9.200 -0.1365  0.0439 -0.1378
  144SAPE  H15R15807   2.336   4.315   9.209  1.0008  1.4244 -0.3390
  144SAPE  C21615808   2.445   4.194   9.061 -0.1887 -0.3454 -0.1086
  144SAPE  H16R15809   2.507   4.102   9.059 -1.2639 -1.1971  2.1984
  144SAPE  H16S15810   2.506   4.271   9.009 -1.7440  0.7788 -0.3645
  144SAPE  C21715811   2.331   4.184   8.966 -0.1523  0.9110 -0.2368
  144SAPE  H17R15812   2.293   4.287   8.951  0.7988  1.5140  1.1750
  144SAPE  H17S15813   2.247   4.123   9.004 -1.3326  2.2984 -0.5584
  144SAPE  C21815814   2.381   4.128   8.833 -0.2592  0.3582  0.0143
  144SAPE  H18R15815   2.475   4.185   8.814  0.7148 -0.8992  0.9198
  144SAPE  H18S15816   2.305   4.157   8.757 -0.7203 -2.4523 -0.6887
  144SAPE  C21915817   2.396   3.974   8.833  1.1881 -0.2725 -0.3508
  144SAPE  H19R15818   2.296   3.927   8.842  1.4111 -1.0219 -1.5696
  144SAPE  H19S15819   2.454   3.945   8.923 -4.0313  0.4317  3.7517
  144SAPE  C22015820   2.473   3.923   8.716 -0.2759 -0.0346  0.4287
  144SAPE  H20R15821   2.581   3.939   8.739  0.2841 -1.3678 -1.1261
  144SAPE  H20S15822   2.438   3.972   8.623  1.6974  2.7249  0.9967
  144SAPE  H20T15823   2.462   3.813   8.710 -0.8332  0.0917 -2.6203
  144SAPE   C3315824   2.242   4.742  10.155 -0.4325  0.1220 -0.1892
  144SAPE   H3X15825   2.299   4.647  10.150 -2.0501 -0.8947 -0.2053
  144SAPE   H3Y15826   2.322   4.817  10.145 -0.1144 -0.3306 -1.1418
  144SAPE   C3415827   2.141   4.750  10.043  1.0856  0.8370  0.2087
  144SAPE   H4X15828   2.109   4.855  10.028  0.5207  0.7288  0.6148
  144SAPE   H4Y15829   2.055   4.692  10.083 -0.2709  2.3395 -0.4308
  144SAPE   C3515830   2.192   4.694   9.913  0.0092  0.1213  0.2927
  144SAPE   H5X15831   2.178   4.584   9.919 -1.0012  0.1334 -1.3193
  144SAPE   H5Y15832   2.301   4.714   9.905  0.1389 -1.2517 -2.3639
  144SAPE   C3615833   2.118   4.741   9.801  0.1636 -0.7605  0.3055
  144SAPE   H6X15834   2.123   4.851   9.797  0.3375 -0.7743  0.1089
  144SAPE   H6Y15835   2.007   4.728   9.807  0.0236  0.9108  2.8142
  144SAPE   C3715836   2.170   4.673   9.672 -0.2212 -0.0940  0.0215
  144SAPE   H7X15837   2.162   4.562   9.672  2.1563 -0.3261 -0.3756
  144SAPE   H7Y15838   2.280   4.685   9.662 -0.3358  1.4050  0.4445
  144SAPE   C3815839   2.108   4.723   9.541 -0.1964  0.0601 -0.3743
  144SAPE   H8X15840   2.146   4.825   9.518  0.1451  0.2358  0.9064
  144SAPE   H8Y15841   1.998   4.725   9.554  0.0711  0.2195  2.5378
  144SAPE   C3915842   2.141   4.631   9.421  0.8097 -0.3918  0.3925
  144SAPE   H9X15843   2.094   4.531   9.430 -0.7924  0.2474 -0.4253
  144SAPE   H9Y15844   2.252   4.622   9.419  0.7500 -1.1237 -0.2912
  144SAPE  C31015845   2.106   4.680   9.277  0.1262 -0.6713  0.1728
  144SAPE  H10X15846   2.160   4.775   9.259 -0.4741 -0.0800  1.3753
  144SAPE  H10Y15847   1.999   4.705   9.256  0.3970 -0.5765 -1.1511
  144SAPE  C31115848   2.152   4.579   9.172 -0.3310  0.4178 -0.5291
  144SAPE  H11X15849   2.117   4.482   9.213 -0.9886  0.2642 -1.4275
  144SAPE  H11Y15850   2.263   4.572   9.165 -0.1449  1.3653  1.0087
  144SAPE  C31215851   2.109   4.614   9.034  0.3601  0.3615  1.0558
  144SAPE  H12X15852   2.155   4.704   8.990  0.3248 -0.8738 -1.7573
  144SAPE  H12Y15853   1.999   4.629   9.037  0.2811  1.3367 -2.6306
  144SAPE  C31315854   2.152   4.508   8.934 -0.8002 -0.4858  0.0847
  144SAPE  H13X15855   2.101   4.415   8.965 -3.3123  0.9803  0.6466
  144SAPE  H13Y15856   2.262   4.491   8.930 -0.7841 -0.2861 -0.6299
  144SAPE  C31415857   2.106   4.523   8.788 -0.3174  0.0198  0.5235
  144SAPE  H14X15858   2.137   4.616   8.736 -1.4860 -1.0478 -2.2850
  144SAPE  H14Y15859   1.995   4.525   8.794 -0.3384  0.6344  0.0297
  144SAPE  C31515860   2.123   4.391   8.705  0.3518  0.8454 -0.2126
  144SAPE  H15X15861   2.228   4.362   8.684  0.2150 -0.2933  0.5581
  144SAPE  H15Y15862   2.091   4.416   8.602 -1.6546  2.2082  0.6760
  144SAPE  C31615863   2.019   4.286   8.759 -0.0912 -0.3238  0.3201
  144SAPE  H16X15864   1.959   4.319   8.847  1.5874  0.6893  1.1511
  144SAPE  H16Y15865   2.082   4.198   8.785  2.2312  0.5847 -1.8472
  144SAPE  C31715866   1.920   4.236   8.654 -0.0457  1.3694 -0.0569
  144SAPE  H17X15867   1.863   4.324   8.617 -0.3202  0.9237 -0.7104
  144SAPE  H17Y15868   1.849   4.159   8.694  1.2487  1.2610  2.1722
  144SAPE  C31815869   1.987   4.185   8.528 -0.0305  0.4806 -0.8584
  144SAPE  H18X15870   2.058   4.262   8.491  0.4230 -0.2752 -1.5723
  144SAPE  H18Y15871   1.925   4.148   8.444  0.4152 -0.9735 -0.5641
  144SAPE  H18Z15872   2.054   4.102   8.558  0.1077  1.3525  1.4998
  145SAPE     N15873   6.753   0.632  11.041 -0.3503  0.4115 -0.1848
  145SAPE   HN115874   6.726   0.625  11.141  0.9093 -2.0501  0.0522
  145SAPE   HN215875   6.802   0.551  10.999  0.7556  0.2180  1.4132
  145SAPE   HN315876   6.834   0.697  11.037  0.2362 -0.1017  1.9105
  145SAPE   C1215877   6.652   0.669  10.943 -0.0428  0.3716  0.2782
  145SAPE  H12A15878   6.559   0.615  10.970 -0.2401 -0.8804 -2.5062
  145SAPE  H12B15879   6.687   0.621  10.849 -3.3236 -1.5843 -0.1172
  145SAPE   C1115880   6.640   0.818  10.939  0.4841  0.4519 -0.8983
  145SAPE  H11A15881   6.549   0.834  10.878 -0.2994  1.0852  0.3928
  145SAPE  H11B15882   6.735   0.864  10.904  0.4392  1.7817  0.6221
  145SAPE     P15883   6.615   1.015  11.104 -0.7662 -0.0266 -0.2716
  145SAPE   O1315884   6.561   1.027  11.240 -0.0949  0.8161  0.4511
  145SAPE   O1415885   6.751   1.065  11.090 -0.5725  0.0186 -0.0263
  145SAPE   O1215886   6.609   0.862  11.076 -0.6491  0.4757 -0.4393
  145SAPE   O1115887   6.524   1.079  11.001  0.1079  0.1699  0.0798
  145SAPE    C115888   6.519   1.214  10.954 -0.4027  0.5570 -0.0196
  145SAPE    HA15889   6.419   1.256  10.978 -1.2517 -0.7703 -1.0859
  145SAPE    HB15890   6.583   1.282  11.015 -1.1618  2.2362 -1.0200
  145SAPE    C215891   6.556   1.231  10.803  0.0745 -0.0867  0.6204
  145SAPE    HS15892   6.553   1.340  10.783 -2.9884 -0.3908 -1.2663
  145SAPE   O2115893   6.467   1.162  10.714  0.3016  1.1028 -0.0105
  145SAPE   C2115894   6.350   1.223  10.695 -0.1575  0.6366 -0.6431
  145SAPE   O2215895   6.328   1.331  10.747 -0.1095  0.1747  0.3671
  145SAPE   C2215896   6.262   1.149  10.600 -0.3212  0.6109  0.1113
  145SAPE   H2R15897   6.318   1.078  10.536 -0.0068  2.7686 -2.1823
  145SAPE   H2S15898   6.201   1.086  10.669 -1.1819  1.4780  0.1752
  145SAPE    C315899   6.694   1.174  10.769  0.3119  0.5320 -0.2851
  145SAPE    HX15900   6.703   1.066  10.795 -0.9748 -0.2680 -2.7611
  145SAPE    HY15901   6.762   1.234  10.832 -1.5641  1.8649  0.5778
  145SAPE   O3115902   6.721   1.184  10.628 -0.2871 -0.1284  0.1872
  145SAPE   C3115903   6.759   1.299  10.581  0.5206 -1.0878 -0.3297
  145SAPE   O3215904   6.768   1.398  10.649  0.6405 -0.2547  0.0580
  145SAPE   C3215905   6.790   1.301  10.434 -0.1748 -0.2559 -0.0712
  145SAPE   H2X15906   6.736   1.219  10.381  1.6319 -1.2963 -0.3911
  145SAPE   H2Y15907   6.900   1.287  10.438 -0.3577 -2.6691 -1.3406
  145SAPE   C2315908   6.167   1.244  10.518 -0.1063 -0.0303 -0.7593
  145SAPE   H3R15909   6.106   1.315  10.577  0.4934  1.5154 -1.9190
  145SAPE   H3S15910   6.093   1.192  10.454 -0.5850 -1.0575  0.5811
  145SAPE   C2415911   6.250   1.329  10.415  0.0342  0.1531  0.8827
  145SAPE   H4R15912   6.300   1.410  10.472  0.7328 -0.9047  1.8317
  145SAPE   H4S15913   6.188   1.381  10.339 -1.8443  0.4550  2.5382
  145SAPE   C2515914   6.351   1.258  10.338  0.0211 -0.3654  0.1901
  145SAPE   H5R15915   6.446   1.246  10.392  1.5721  1.4517 -1.9568
  145SAPE   C2615916   6.342   1.204  10.216 -0.1611 -0.5236  0.0998
  145SAPE   H6R15917   6.437   1.161  10.179  0.7881 -0.1862  2.0241
  145SAPE   C2715918   6.226   1.194  10.119 -0.0613  1.0812 -0.6803
  145SAPE   H7R15919   6.138   1.150  10.171  0.1280  1.3533 -0.1122
  145SAPE   H7S15920   6.255   1.109  10.054 -1.9482 -0.5964  0.5366
  145SAPE   C2815921   6.188   1.317  10.046  0.9133  0.2577  0.3318
  145SAPE   H8R15922   6.235   1.411  10.078  0.6923  1.1716 -1.8407
  145SAPE   C2915923   6.101   1.323   9.941 -0.1414 -0.0350  0.0080
  145SAPE   H9R15924   6.058   1.421   9.915 -2.1474 -0.9070 -0.1555
  145SAPE  C21015925   6.050   1.199   9.874  0.0147 -0.1377 -0.2524
  145SAPE  H10R15926   6.130   1.124   9.888  1.0377  1.1138  1.0209
  145SAPE  H10S15927   6.050   1.216   9.765  0.7011 -1.8080 -0.5376
  145SAPE  C21115928   5.920   1.139   9.916  0.2653 -0.3155  0.3575
  145SAPE  H11R15929   5.898   1.126  10.024 -0.6379  1.6162  0.4401
  145SAPE  C21215930   5.833   1.085   9.820 -0.0824  0.1412  0.0820
  145SAPE  H12R15931   5.738   1.044   9.856 -1.0267  0.9681 -1.3465
  145SAPE  C21315932   5.859   1.082   9.670 -0.5004  0.6119  0.0733
  145SAPE  H13R15933   5.924   1.163   9.632 -1.8128  1.7730  0.1961
  145SAPE  H13S15934   5.773   1.118   9.610  1.2048  1.6990 -1.8192
  145SAPE  C21415935   5.918   0.946   9.635  0.4935 -0.0894 -0.3439
  145SAPE  H14R15936   5.954   0.882   9.717 -1.1650 -2.9522 -1.6834
  145SAPE  C21515937   5.922   0.896   9.514  0.1999 -0.5503  0.6404
  145SAPE  H15R15938   5.984   0.807   9.495  1.0460  0.4565 -1.5449
  145SAPE  C21615939   5.878   0.968   9.391  0.4573 -0.2977 -0.0647
  145SAPE  H16R15940   5.895   1.078   9.390 -0.7528 -0.0273  2.3741
  145SAPE  H16S15941   5.770   0.945   9.375  0.0590  0.6147  1.1453
  145SAPE  C21715942   5.957   0.900   9.273  0.1361 -0.5737 -0.4245
  145SAPE  H17R15943   5.918   0.943   9.179  2.2717  3.1535  0.1807
  145SAPE  H17S15944   5.959   0.789   9.282 -2.1166 -0.5291  2.0524
  145SAPE  C21815945   6.106   0.932   9.261  0.0702 -0.4212 -0.6748
  145SAPE  H18R15946   6.164   0.860   9.201  2.9194  1.0820  0.0740
  145SAPE  H18S15947   6.154   0.934   9.362  1.4614  2.8936 -1.2445
  145SAPE  C21915948   6.133   1.065   9.192  0.1109  0.0043 -0.9984
  145SAPE  H19R15949   6.119   1.142   9.271 -1.6921 -0.3602 -0.9268
  145SAPE  H19S15950   6.059   1.091   9.114 -1.6557  0.6716  0.8080
  145SAPE  C22015951   6.269   1.067   9.131  0.0532 -0.6808 -0.3040
  145SAPE  H20R15952   6.288   1.165   9.083 -2.5852  0.8653  1.5283
  145SAPE  H20S15953   6.273   0.989   9.052  0.2010 -1.4183  0.4235
  145SAPE  H20T15954   6.356   1.047   9.196  0.1790  1.4650  0.2449
  145SAPE   C3315955   6.744   1.432  10.370 -0.5485 -0.9341  0.0269
  145SAPE   H3X15956   6.781   1.516  10.432  0.2669 -3.0669  2.6240
  145SAPE   H3Y15957   6.634   1.445  10.382 -0.3044  1.5491 -0.0490
  145SAPE   C3415958   6.788   1.444  10.226 -0.2397 -0.4295 -0.5359
  145SAPE   H4X15959   6.896   1.467  10.221 -0.3046  0.5513  1.4803
  145SAPE   H4Y15960   6.743   1.537  10.187  1.9157  0.6779 -0.5176
  145SAPE   C3515961   6.758   1.331  10.135 -0.4879 -0.5206 -0.2611
  145SAPE   H5X15962   6.663   1.289  10.174 -1.5782  2.1895  0.2445
  145SAPE   H5Y15963   6.829   1.246  10.128  0.5709  0.3121  0.1973
  145SAPE   C3615964   6.749   1.378   9.985 -0.5417 -0.5116  0.6395
  145SAPE   H6X15965   6.654   1.434   9.976  0.0376  0.5995  1.2123
  145SAPE   H6Y15966   6.716   1.288   9.930 -0.6478 -1.4445  2.1612
  145SAPE   C3715967   6.860   1.461   9.923 -0.4772  0.5285  0.3039
  145SAPE   H7X15968   6.958   1.410   9.914 -0.3885  0.5771  0.9127
  145SAPE   H7Y15969   6.877   1.545   9.995  0.4457  1.3456 -0.8392
  145SAPE   C3815970   6.822   1.509   9.784 -0.0471  0.1072 -0.3211
  145SAPE   H8X15971   6.904   1.571   9.741 -0.0035 -0.4629 -1.0857
  145SAPE   H8Y15972   6.729   1.569   9.781 -0.9480 -1.2203  0.1330
  145SAPE   C3915973   6.815   1.394   9.686  0.6620  0.4110 -0.1125
  145SAPE   H9X15974   6.722   1.335   9.705  1.0337 -0.6781 -1.5509
  145SAPE   H9Y15975   6.907   1.333   9.696  0.6025  0.6579  3.1407
  145SAPE  C31015976   6.804   1.449   9.546 -0.1150  0.2942 -0.4018
  145SAPE  H10X15977   6.895   1.506   9.520 -0.8220  0.8461 -1.7679
  145SAPE  H10Y15978   6.715   1.515   9.552  0.3743  0.8263  1.6654
  145SAPE  C31115979   6.779   1.340   9.443  0.2910  1.0938 -1.1099
  145SAPE  H11X15980   6.686   1.284   9.467  0.9838  1.0385  1.8587
  145SAPE  H11Y15981   6.848   1.252   9.451 -0.6828  0.3053 -1.1772
  145SAPE  C31215982   6.802   1.379   9.291  0.0040 -0.3717 -1.4477
  145SAPE  H12X15983   6.885   1.453   9.301 -1.3656  0.8778  3.6501
  145SAPE  H12Y15984   6.705   1.428   9.264 -0.4065 -0.9146 -0.9828
  145SAPE  C31315985   6.829   1.264   9.198  0.0876  0.2995  0.1820
  145SAPE  H13X15986   6.763   1.177   9.218  0.2563 -0.2355 -1.5013
  145SAPE  H13Y15987   6.935   1.237   9.213 -0.0572 -0.7724 -0.6483
  145SAPE  C31415988   6.803   1.308   9.051  0.2787  0.5967  0.1151
  145SAPE  H14X15989   6.890   1.277   8.989 -0.9373 -0.8760 -0.9152
  145SAPE  H14Y15990   6.788   1.418   9.044 -0.9759  0.3316 -2.1092
  145SAPE  C31515991   6.677   1.234   8.999  0.3391 -0.1536  0.2721
  145SAPE  H15X15992   6.596   1.248   9.073 -0.1082  0.1313 -0.2574
  145SAPE  H15Y15993   6.699   1.125   8.998  0.6815 -0.0845  0.1599
  145SAPE  C31615994   6.625   1.272   8.860 -0.3818 -0.7365  0.3189
  145SAPE  H16X15995   6.709   1.281   8.788 -0.6702  1.6629  0.2229
  145SAPE  H16Y15996   6.586   1.375   8.864  0.1458 -0.4559 -1.1860
  145SAPE  C31715997   6.526   1.184   8.789 -0.0299  0.2540 -0.4404
  145SAPE  H17X15998   6.433   1.175   8.848 -0.2210 -0.3543 -0.8282
  145SAPE  H17Y15999   6.559   1.078   8.783 -0.7740  0.0433 -0.8591
  145SAPE  C31816000   6.483   1.234   8.653 -0.1469 -0.2473  0.5101
  145SAPE  H18X16001   6.570   1.244   8.584 -2.2974 -3.8308 -3.2230
  145SAPE  H18Y16002   6.432   1.332   8.667 -0.9566 -0.6634  0.5739
  145SAPE  H18Z16003   6.411   1.162   8.607 -1.2709  0.2120  1.5076
  146SAPE     N16004   5.033   0.328  10.747 -0.6842  1.3560 -0.9335
  146SAPE   HN116005   4.964   0.268  10.798  1.3252  0.7074  1.2169
  146SAPE   HN216006   5.053   0.287  10.654  0.3859  2.5187 -1.2308
  146SAPE   HN316007   5.113   0.316  10.813 -1.6098  1.7221  0.3000
  146SAPE   C1216008   4.978   0.467  10.726 -0.5901  0.5108  0.2467
  146SAPE  H12A16009   4.891   0.454  10.658 -0.3855  1.6760 -0.2672
  146SAPE  H12B16010   5.063   0.520  10.677  0.1466 -1.6473 -0.9651
  146SAPE   C1116011   4.943   0.526  10.863 -0.0858 -0.0116 -0.7166
  146SAPE  H11A16012   4.861   0.472  10.915  1.8591 -1.6460  0.8322
  146SAPE  H11B16013   4.898   0.623  10.832 -0.6056 -0.0015  0.0223
  146SAPE     P16014   5.171   0.647  10.926 -0.1992 -0.1273 -0.1860
  146SAPE   O1316015   5.154   0.758  11.025  0.3105  0.4743 -0.0196
  146SAPE   O1416016   5.304   0.585  10.913  0.2588 -0.2168 -0.3268
  146SAPE   O1216017   5.060   0.534  10.951  0.5670  0.2386  0.0299
  146SAPE   O1116018   5.135   0.714  10.784  0.3189 -0.0782 -0.3267
  146SAPE    C116019   5.249   0.770  10.712 -0.0906 -0.2132  0.2651
  146SAPE    HA16020   5.242   0.878  10.737  0.1047 -0.8707  3.7521
  146SAPE    HB16021   5.350   0.750  10.756 -1.1084 -0.0832  2.8734
  146SAPE    C216022   5.242   0.722  10.564  0.4891 -0.5689  0.2509
  146SAPE    HS16023   5.304   0.789  10.500 -0.2950 -0.2550 -0.1920
  146SAPE   O2116024   5.106   0.720  10.511  0.0692 -0.1977  0.7058
  146SAPE   C2116025   5.040   0.840  10.514 -0.0411  0.0086 -0.5584
  146SAPE   O2216026   5.080   0.943  10.565 -0.8510 -0.2242 -0.3933
  146SAPE   C2216027   4.900   0.828  10.456 -0.1336 -0.7398  0.3627
  146SAPE   H2R16028   4.903   0.748  10.379  1.1589 -2.2491  1.8791
  146SAPE   H2S16029   4.837   0.801  10.544 -0.0859 -0.8065  0.3770
  146SAPE    C316030   5.305   0.580  10.538 -0.0920  0.2257  0.0123
  146SAPE    HX16031   5.242   0.506  10.591  0.1811 -3.4700 -4.2187
  146SAPE    HY16032   5.414   0.586  10.561  0.1671 -0.0198 -1.0790
  146SAPE   O3116033   5.291   0.546  10.396  0.0648 -0.0200 -0.3117
  146SAPE   C3116034   5.364   0.614  10.314 -0.2396 -0.1243 -0.3574
  146SAPE   O3216035   5.446   0.702  10.346  0.0099  0.3493 -0.0340
  146SAPE   C3216036   5.323   0.588  10.178 -0.5981  0.3116  0.1405
  146SAPE   H2X16037   5.258   0.671  10.143  0.9265  1.6339  0.2898
  146SAPE   H2Y16038   5.275   0.490  10.163  0.7784 -0.3910  0.1279
  146SAPE   C2316039   4.854   0.956  10.384 -0.2872 -0.6501 -0.1721
  146SAPE   H3R16040   4.840   1.035  10.462  0.5450 -2.3712  1.8220
  146SAPE   H3S16041   4.752   0.944  10.342 -1.4464  1.2268  1.8462
  146SAPE   C2416042   4.952   1.002  10.275 -0.2320  0.3322 -0.0819
  146SAPE   H4R16043   4.977   0.909  10.219 -1.8628  0.5583 -1.2544
  146SAPE   H4S16044   5.042   1.044  10.326 -0.9469 -0.2894  1.7855
  146SAPE   C2516045   4.891   1.109  10.186 -0.1124  0.6452  0.2244
  146SAPE   H5R16046   4.855   1.195  10.245 -1.2150 -0.3886  1.1307
  146SAPE   C2616047   4.878   1.116  10.052  0.0375  0.7114  0.5234
  146SAPE   H6R16048   4.837   1.210  10.013 -0.0185  1.3105  1.9637
  146SAPE   C2716049   4.922   1.012   9.952 -0.3354 -0.4557 -0.4900
  146SAPE   H7R16050   4.837   0.945   9.927  0.0086 -1.9575  1.9551
  146SAPE   H7S16051   4.997   0.944   9.998 -0.1517 -0.4355 -0.7608
  146SAPE   C2816052   4.974   1.060   9.824  0.2917  0.8052 -0.4139
  146SAPE   H8R16053   4.913   1.140   9.779  0.3789  1.5657  0.7905
  146SAPE   C2916054   5.087   1.020   9.759  0.2252  0.7890  0.1903
  146SAPE   H9R16055   5.107   1.066   9.661 -2.2832  1.2413 -0.1559
  146SAPE  C21016056   5.186   0.911   9.801 -1.0382  0.7067  0.2421
  146SAPE  H10R16057   5.206   0.844   9.715 -3.6948  0.0532  0.0529
  146SAPE  H10S16058   5.142   0.846   9.879  1.8842 -1.1155  0.5328
  146SAPE  C21116059   5.315   0.965   9.854  0.5624 -0.3752  0.2453
  146SAPE  H11R16060   5.341   0.951   9.960  1.6312  2.3657  0.4263
  146SAPE  C21216061   5.424   1.020   9.792  0.0931 -0.1667 -0.2101
  146SAPE  H12R16062   5.500   1.077   9.846 -0.4238 -0.8075  1.2605
  146SAPE  C21316063   5.439   1.057   9.643  0.2279 -0.3335 -1.1504
  146SAPE  H13R16064   5.351   1.015   9.590 -0.6548 -0.4478  0.3363
  146SAPE  H13S16065   5.526   1.003   9.600  0.5532 -0.0862 -0.8113
  146SAPE  C21416066   5.455   1.206   9.635 -0.1345 -0.0398 -0.2237
  146SAPE  H14R16067   5.428   1.264   9.724  0.4197  2.2600 -1.4824
  146SAPE  C21516068   5.526   1.272   9.542 -0.9804 -0.5670  0.1715
  146SAPE  H15R16069   5.525   1.381   9.554 -0.6576 -0.6879  1.3797
  146SAPE  C21616070   5.591   1.220   9.413 -0.1364 -0.0752 -0.4874
  146SAPE  H16R16071   5.580   1.110   9.402  0.2750 -0.0864 -0.7868
  146SAPE  H16S16072   5.699   1.245   9.408 -0.8181  3.6721  0.5653
  146SAPE  C21716073   5.529   1.277   9.281 -0.1151 -0.5308 -0.0337
  146SAPE  H17R16074   5.615   1.272   9.211  0.4206  0.2007  0.5596
  146SAPE  H17S16075   5.497   1.383   9.290 -0.6542 -0.4380 -2.3122
  146SAPE  C21816076   5.417   1.196   9.208 -0.0382 -0.2752  0.1151
  146SAPE  H18R16077   5.327   1.193   9.274 -0.4002 -1.3191 -0.3992
  146SAPE  H18S16078   5.455   1.092   9.199  1.2166  0.0705  1.0724
  146SAPE  C21916079   5.383   1.255   9.076  0.0719  0.3719  0.0718
  146SAPE  H19R16080   5.480   1.285   9.031  0.4477 -3.7442 -2.4379
  146SAPE  H19S16081   5.313   1.337   9.102 -2.4821 -1.3415 -0.9466
  146SAPE  C22016082   5.302   1.157   8.985  0.0282  0.3580 -0.5038
  146SAPE  H20R16083   5.212   1.119   9.037 -1.1500  1.9858 -1.2936
  146SAPE  H20S16084   5.378   1.080   8.960  2.3729  2.5389 -0.5703
  146SAPE  H20T16085   5.255   1.203   8.896 -3.9585  3.5767  2.8202
  146SAPE   C3316086   5.440   0.570  10.085 -0.3334 -0.2235  0.4052
  146SAPE   H3X16087   5.495   0.473  10.094  0.7535  0.2544 -0.7490
  146SAPE   H3Y16088   5.505   0.656  10.112 -0.9537 -0.1043  1.5708
  146SAPE   C3416089   5.405   0.568   9.935  0.0300 -0.2467  0.6174
  146SAPE   H4X16090   5.322   0.640   9.920  0.1093 -0.0402  1.1473
  146SAPE   H4Y16091   5.370   0.465   9.909 -0.0293 -0.1799  0.4324
  146SAPE   C3516092   5.513   0.622   9.844 -0.2030 -0.5197 -0.5770
  146SAPE   H5X16093   5.611   0.571   9.856  0.7067  1.1082 -0.7471
  146SAPE   H5Y16094   5.527   0.731   9.864 -1.2766 -0.4807  0.0276
  146SAPE   C3616095   5.478   0.620   9.699 -0.1568  0.0460  0.2886
  146SAPE   H6X16096   5.400   0.696   9.676  0.6202  1.1617  1.2079
  146SAPE   H6Y16097   5.430   0.522   9.680  0.5095 -0.1356 -0.5088
  146SAPE   C3716098   5.597   0.630   9.601  0.4145 -0.1445  0.1031
  146SAPE   H7X16099   5.657   0.537   9.614 -0.6065 -0.8042  0.1561
  146SAPE   H7Y16100   5.671   0.708   9.629  0.0706 -0.8011  3.2099
  146SAPE   C3816101   5.556   0.654   9.453 -0.2292 -0.5777 -0.3052
  146SAPE   H8X16102   5.532   0.762   9.443 -1.2076 -0.9899 -3.6328
  146SAPE   H8Y16103   5.464   0.597   9.428 -0.3310 -0.5820  0.0824
  146SAPE   C3916104   5.665   0.621   9.354 -0.0991 -0.3933  0.6968
  146SAPE   H9X16105   5.662   0.510   9.352  0.4763 -0.4070  0.1152
  146SAPE   H9Y16106   5.763   0.655   9.392 -0.5460 -0.2521  1.7360
  146SAPE  C31016107   5.621   0.684   9.225 -0.4205 -0.1931  0.0038
  146SAPE  H10X16108   5.634   0.794   9.234 -0.7661 -0.0672 -0.8965
  146SAPE  H10Y16109   5.519   0.650   9.196 -0.1896  0.9382 -2.3754
  146SAPE  C31116110   5.713   0.645   9.110  0.5943 -0.4093 -0.1358
  146SAPE  H11X16111   5.721   0.535   9.095  3.3898  0.0010 -2.5911
  146SAPE  H11Y16112   5.821   0.667   9.124  1.1841 -0.9757 -3.2039
  146SAPE  C31216113   5.681   0.728   8.983  0.2124 -0.0328 -0.1062
  146SAPE  H12X16114   5.666   0.835   9.013  0.2494  0.5120 -1.9361
  146SAPE  H12Y16115   5.588   0.698   8.931  1.3474  0.5215 -2.5860
  146SAPE  C31316116   5.809   0.738   8.896  0.5174  0.4338  0.1948
  146SAPE  H13X16117   5.833   0.643   8.843 -0.2920  0.4108 -0.1503
  146SAPE  H13Y16118   5.896   0.777   8.954  0.7687  0.3342 -0.1087
  146SAPE  C31416119   5.795   0.844   8.790  0.2517  0.0253 -0.1658
  146SAPE  H14X16120   5.890   0.856   8.734  1.1360 -0.6646  1.1241
  146SAPE  H14Y16121   5.755   0.938   8.835 -1.8190 -0.8510 -0.0472
  146SAPE  C31516122   5.680   0.818   8.687 -0.3083 -0.4226  0.6936
  146SAPE  H15X16123   5.580   0.829   8.734 -0.2710  1.5531  0.4136
  146SAPE  H15Y16124   5.704   0.718   8.646 -0.0393 -0.2376  0.3969
  146SAPE  C31616125   5.672   0.929   8.570 -0.9389 -0.0090  0.4986
  146SAPE  H16X16126   5.767   0.903   8.518 -1.3568 -1.5251  0.4395
  146SAPE  H16Y16127   5.685   1.028   8.619  1.0324  0.3010 -0.5452
  146SAPE  C31716128   5.564   0.919   8.466  0.7461  0.0569  0.2554
  146SAPE  H17X16129   5.464   0.952   8.503 -1.0192 -2.6139 -1.7086
  146SAPE  H17Y16130   5.571   0.811   8.439 -1.5998 -0.2770  0.7689
  146SAPE  C31816131   5.592   1.007   8.341 -0.2998  0.8850  0.1439
  146SAPE  H18X16132   5.622   1.112   8.363  0.9473  0.9037 -1.4497
  146SAPE  H18Y16133   5.499   1.002   8.280  0.3487 -0.6221 -0.7566
  146SAPE  H18Z16134   5.669   0.960   8.278  0.1076  1.9134 -0.1517
  147SAPE     N16135   5.474   5.253   6.477  0.2183  0.2793 -0.2152
  147SAPE   HN116136   5.540   5.322   6.437  2.1125 -1.2244  0.1686
  147SAPE   HN216137   5.429   5.196   6.402  1.6410  0.8377 -1.5469
  147SAPE   HN316138   5.393   5.303   6.519 -1.2282 -0.8642 -1.5054
  147SAPE   C1216139   5.550   5.162   6.559 -0.5918  0.3819 -0.2077
  147SAPE  H12A16140   5.581   5.214   6.652 -2.1394  0.2249  0.4091
  147SAPE  H12B16141   5.640   5.128   6.504 -0.3924 -0.1682  0.4433
  147SAPE   C1116142   5.457   5.042   6.604  0.0868  0.0045 -0.2751
  147SAPE  H11A16143   5.375   5.079   6.668  0.0916  0.4703 -0.5344
  147SAPE  H11B16144   5.508   4.966   6.668 -1.4507 -0.6271  0.2362
  147SAPE     P16145   5.455   4.834   6.441  0.3656  0.2215  0.0101
  147SAPE   O1316146   5.345   4.749   6.482  0.3319  0.3056  0.0433
  147SAPE   O1416147   5.493   4.833   6.300  0.3475  0.4281 -0.2782
  147SAPE   O1216148   5.406   4.981   6.484  0.4323  0.4587 -0.3026
  147SAPE   O1116149   5.587   4.816   6.524 -0.2546 -0.4156 -0.2931
  147SAPE    C116150   5.719   4.842   6.482  0.4255  0.0969  0.3061
  147SAPE    HA16151   5.742   4.784   6.390 -1.3682 -3.0341  1.6459
  147SAPE    HB16152   5.731   4.949   6.455  0.2870  0.0564  0.0809
  147SAPE    C216153   5.823   4.800   6.588 -1.0342  0.5838  0.1409
  147SAPE    HS16154   5.809   4.692   6.608  4.3506 -0.3614  0.0687
  147SAPE   O2116155   5.806   4.886   6.701 -0.3886  0.2223 -0.1873
  147SAPE   C2116156   5.775   4.818   6.810 -0.9593  0.3512  0.2766
  147SAPE   O2216157   5.765   4.695   6.816 -0.4161 -0.2329  0.6463
  147SAPE   C2216158   5.757   4.911   6.925 -0.2012  0.1921  0.2405
  147SAPE   H2R16159   5.845   4.979   6.923  0.9537 -1.1496  1.9341
  147SAPE   H2S16160   5.671   4.980   6.911 -1.4217 -1.2476  0.4587
  147SAPE    C316161   5.971   4.816   6.539  0.3516 -0.2787  0.6252
  147SAPE    HX16162   5.979   4.924   6.515  1.1417 -1.1498 -4.3038
  147SAPE    HY16163   5.988   4.767   6.440 -3.6495  0.2719 -0.5339
  147SAPE   O3116164   6.070   4.775   6.632 -0.1162 -0.0831  0.0268
  147SAPE   C3116165   6.124   4.662   6.628 -0.0168 -0.1547 -0.4203
  147SAPE   O3216166   6.108   4.571   6.544 -0.2398  0.2814  0.3269
  147SAPE   C3216167   6.220   4.653   6.745  0.0214 -0.4551 -0.1466
  147SAPE   H2X16168   6.278   4.747   6.746 -0.8816  0.1119  0.8115
  147SAPE   H2Y16169   6.292   4.568   6.737  2.0412  1.1809 -0.1649
  147SAPE   C2316170   5.767   4.852   7.069  0.1014  0.1087  0.4909
  147SAPE   H3R16171   5.855   4.784   7.069 -1.6625 -2.3184  0.2507
  147SAPE   H3S16172   5.677   4.789   7.087 -2.7091  2.5403 -3.3150
  147SAPE   C2416173   5.777   4.956   7.179 -0.5382  0.5027 -0.6710
  147SAPE   H4R16174   5.855   5.031   7.153  0.5667 -0.5302 -0.4764
  147SAPE   H4S16175   5.818   4.908   7.271 -4.2262 -1.2501  0.2516
  147SAPE   C2516176   5.651   5.030   7.208 -0.8765 -0.1229 -0.5805
  147SAPE   H5R16177   5.609   5.084   7.123  0.0150 -0.4463 -1.2450
  147SAPE   C2616178   5.572   5.018   7.319 -0.1249  0.0102  0.2904
  147SAPE   H6R16179   5.481   5.079   7.332 -0.7536 -0.2132 -2.3295
  147SAPE   C2716180   5.606   4.935   7.441  0.2654  0.2624 -1.0179
  147SAPE   H7R16181   5.674   4.849   7.425  0.9991  0.9177 -1.4861
  147SAPE   H7S16182   5.510   4.886   7.469  0.8931  0.3446  1.4702
  147SAPE   C2816183   5.655   5.027   7.548  0.4194 -0.5012  0.1157
  147SAPE   H8R16184   5.720   5.109   7.514  0.6376  0.1088  1.8894
  147SAPE   C2916185   5.630   5.037   7.677 -0.0527  0.7988  0.0845
  147SAPE   H9R16186   5.679   5.116   7.735  0.6516  1.0072 -0.7716
  147SAPE  C21016187   5.542   4.944   7.761 -0.0370  0.0736  0.2339
  147SAPE  H10R16188   5.607   4.913   7.845 -0.6635  2.1172  1.5600
  147SAPE  H10S16189   5.519   4.855   7.699  2.3404 -0.5309  0.1381
  147SAPE  C21116190   5.413   4.984   7.826  0.3809 -0.8157  0.1264
  147SAPE  H11R16191   5.324   4.994   7.762  0.3396 -0.5743  0.2210
  147SAPE  C21216192   5.393   5.000   7.959 -0.3295  0.1187  0.5027
  147SAPE  H12R16193   5.303   5.054   7.991  0.5329  1.0930  1.3671
  147SAPE  C21316194   5.482   4.976   8.080 -0.6929 -0.6431  1.1700
  147SAPE  H13R16195   5.511   5.072   8.129  2.7555 -1.7086  1.4997
  147SAPE  H13S16196   5.578   4.929   8.050  0.0616  1.3368  0.3509
  147SAPE  C21416197   5.418   4.889   8.181 -0.0587  0.2202 -0.2343
  147SAPE  H14R16198   5.439   4.781   8.177  2.8970  0.7152 -0.1002
  147SAPE  C21516199   5.324   4.937   8.264  0.2107 -0.0259 -0.1207
  147SAPE  H15R16200   5.271   4.857   8.317  0.5185 -0.3312 -0.2705
  147SAPE  C21616201   5.265   5.078   8.284  0.5827 -0.3264  0.3908
  147SAPE  H16R16202   5.168   5.086   8.231  0.1519  0.1187  1.2338
  147SAPE  H16S16203   5.323   5.161   8.238 -0.8136  1.1233  1.1587
  147SAPE  C21716204   5.249   5.122   8.426  0.0417  0.0123  0.4280
  147SAPE  H17R16205   5.340   5.159   8.478 -0.4833  0.3716  1.1075
  147SAPE  H17S16206   5.186   5.051   8.484  0.4144  0.5925  1.5750
  147SAPE  C21816207   5.166   5.256   8.417 -0.7457  0.2271  0.3536
  147SAPE  H18R16208   5.070   5.241   8.364  0.3927 -1.4827 -1.3717
  147SAPE  H18S16209   5.229   5.323   8.355  0.5522 -0.1189  1.2538
  147SAPE  C21916210   5.120   5.319   8.552  0.6111  0.4478 -0.3259
  147SAPE  H19R16211   5.084   5.421   8.526  2.8687  1.1767 -0.8292
  147SAPE  H19S16212   5.203   5.328   8.625 -0.1874  1.2065  0.5129
  147SAPE  C22016213   5.005   5.240   8.618  0.4257  0.7104 -0.7619
  147SAPE  H20R16214   4.918   5.242   8.549  0.3135  1.2224 -0.6151
  147SAPE  H20S16215   4.971   5.285   8.714 -1.4717  0.6805 -1.3706
  147SAPE  H20T16216   5.034   5.134   8.631 -2.0839  0.0831  0.2736
  147SAPE   C3316217   6.143   4.627   6.886  0.2408 -0.0727  0.4627
  147SAPE   H3X16218   6.087   4.533   6.868  1.9361 -0.9907 -0.1822
  147SAPE   H3Y16219   6.074   4.709   6.915 -0.0115  0.5991 -1.8225
  147SAPE   C3416220   6.237   4.605   7.011  0.3813  0.4086 -0.7257
  147SAPE   H4X16221   6.170   4.650   7.088  1.5800 -0.0680  0.6230
  147SAPE   H4Y16222   6.329   4.666   7.011  1.0316 -0.4219  1.9975
  147SAPE   C3516223   6.261   4.464   7.054 -0.2678  0.1194  0.6156
  147SAPE   H5X16224   6.336   4.418   6.985  1.4695  0.9161  1.8984
  147SAPE   H5Y16225   6.167   4.405   7.050 -1.2007  1.5966 -0.0151
  147SAPE   C3616226   6.329   4.441   7.192 -0.2104  0.1497  0.5223
  147SAPE   H6X16227   6.430   4.487   7.194 -0.7461  1.5190 -1.4778
  147SAPE   H6Y16228   6.349   4.332   7.204 -1.4549 -0.2124 -0.5299
  147SAPE   C3716229   6.267   4.516   7.312  0.0168  0.7119 -0.2996
  147SAPE   H7X16230   6.175   4.459   7.334 -0.5567  0.6456 -2.5885
  147SAPE   H7Y16231   6.249   4.620   7.277  0.2971  0.3114 -1.7249
  147SAPE   C3816232   6.350   4.517   7.443 -0.3598 -0.6080  0.1436
  147SAPE   H8X16233   6.448   4.566   7.421 -0.9692  1.0176  0.8980
  147SAPE   H8Y16234   6.373   4.416   7.484 -0.0270 -1.4820 -2.0290
  147SAPE   C3916235   6.295   4.606   7.558 -0.1489  0.3685 -0.6000
  147SAPE   H9X16236   6.270   4.706   7.518 -3.2106 -0.1141 -0.1926
  147SAPE   H9Y16237   6.374   4.621   7.635  0.9101 -2.5227 -0.9758
  147SAPE  C31016238   6.171   4.552   7.625 -0.9900 -0.2855 -0.2103
  147SAPE  H10X16239   6.181   4.444   7.646 -3.2243 -0.7082 -0.9961
  147SAPE  H10Y16240   6.099   4.568   7.542  1.1150  2.2259 -1.7058
  147SAPE  C31116241   6.127   4.628   7.749 -0.0054  0.0195 -0.1321
  147SAPE  H11X16242   6.205   4.631   7.828  0.0714 -2.4387 -0.0480
  147SAPE  H11Y16243   6.047   4.563   7.790  1.2222 -0.7993  1.0433
  147SAPE  C31216244   6.068   4.773   7.727  0.6684 -0.0545 -0.3578
  147SAPE  H12X16245   6.025   4.778   7.624 -1.1458 -0.1074  0.3498
  147SAPE  H12Y16246   6.149   4.848   7.740  0.6515 -0.3605  2.0413
  147SAPE  C31316247   5.958   4.807   7.823 -0.4633 -0.0912 -0.2813
  147SAPE  H13X16248   5.891   4.719   7.825 -1.8720  0.9487  1.9854
  147SAPE  H13Y16249   5.919   4.902   7.780  2.3145  0.6736 -1.3512
  147SAPE  C31416250   6.005   4.830   7.969 -0.2423  0.3177  0.3863
  147SAPE  H14X16251   6.083   4.907   7.987 -0.4326 -0.0172  3.0636
  147SAPE  H14Y16252   6.044   4.733   8.006  0.9958  0.9767  0.8512
  147SAPE  C31516253   5.878   4.869   8.060 -0.3964  0.3861 -0.2794
  147SAPE  H15X16254   5.789   4.808   8.032  0.3436 -1.8609  1.8385
  147SAPE  H15Y16255   5.857   4.977   8.045 -3.0665 -0.0171  0.0614
  147SAPE  C31616256   5.908   4.837   8.208 -0.5450 -0.1208  0.9484
  147SAPE  H16X16257   5.991   4.903   8.244 -0.0842  0.1579 -0.5638
  147SAPE  H16Y16258   5.951   4.735   8.212  2.0234  0.7954 -0.5524
  147SAPE  C31716259   5.786   4.843   8.301 -0.3384 -0.9807  0.0286
  147SAPE  H17X16260   5.816   4.799   8.398 -1.7444  1.3370  1.6093
  147SAPE  H17Y16261   5.695   4.784   8.274 -1.0774 -1.3549  2.9906
  147SAPE  C31816262   5.722   4.983   8.339 -0.9087  0.8815  0.2826
  147SAPE  H18X16263   5.806   5.048   8.370 -1.8077  1.5186  1.4629
  147SAPE  H18Y16264   5.671   4.972   8.438  1.5044 -2.4760  1.3315
  147SAPE  H18Z16265   5.658   5.021   8.257 -2.5091 -1.6231  0.2499
  148SAPE     N16266   6.064   3.581   6.444  0.6740 -0.1684 -0.3464
  148SAPE   HN116267   6.048   3.615   6.347  0.6341  0.1243 -0.2354
  148SAPE   HN216268   6.055   3.477   6.440  1.6677 -0.2399 -1.3668
  148SAPE   HN316269   5.993   3.618   6.509  1.1838  0.2984 -0.0524
  148SAPE   C1216270   6.203   3.619   6.484  0.3250  0.5032  0.0480
  148SAPE  H12A16271   6.196   3.617   6.595 -1.4991 -0.1768 -0.0343
  148SAPE  H12B16272   6.227   3.720   6.446 -0.1548  0.3221 -0.7736
  148SAPE   C1116273   6.318   3.526   6.426 -0.4808  0.1556  0.5213
  148SAPE  H11A16274   6.411   3.582   6.449 -1.6015  2.0513  0.6220
  148SAPE  H11B16275   6.317   3.524   6.315 -1.9093  2.5769  0.4151
  148SAPE     P16276   6.436   3.298   6.451 -0.2802 -0.2737 -0.0034
  148SAPE   O1316277   6.386   3.166   6.481 -0.4362 -0.1023 -0.0141
  148SAPE   O1416278   6.481   3.333   6.315  0.3866 -0.3310  0.4233
  148SAPE   O1216279   6.319   3.401   6.497  0.2084  0.6218  0.4042
  148SAPE   O1116280   6.553   3.327   6.550  0.3017 -0.5206  0.2513
  148SAPE    C116281   6.549   3.345   6.689  0.3612 -0.1413  0.7471
  148SAPE    HA16282   6.635   3.409   6.717  0.1877  1.0498 -1.2241
  148SAPE    HB16283   6.459   3.404   6.716 -1.0471 -2.9897  2.8104
  148SAPE    C216284   6.525   3.205   6.765 -0.7358 -0.3452  0.5290
  148SAPE    HS16285   6.422   3.176   6.734 -0.4357 -1.2425  0.3267
  148SAPE   O2116286   6.550   3.233   6.902  0.0650  0.1475 -0.6008
  148SAPE   C2116287   6.468   3.180   6.990  0.0890  0.0300 -0.0513
  148SAPE   O2216288   6.365   3.118   6.969 -0.3461 -0.0273  0.4108
  148SAPE   C2216289   6.525   3.202   7.131  0.5342  0.3118  0.5997
  148SAPE   H2R16290   6.636   3.204   7.129  0.7046 -0.5534  3.4681
  148SAPE   H2S16291   6.493   3.305   7.156 -1.2135 -0.2593  0.8941
  148SAPE    C316292   6.626   3.104   6.704  0.3673  0.6335  0.4796
  148SAPE    HX16293   6.589   3.100   6.599 -1.3957 -1.8937  1.1185
  148SAPE    HY16294   6.608   3.001   6.740  0.4555 -0.0502 -1.3573
  148SAPE   O3116295   6.761   3.147   6.702  1.1024 -0.0153 -0.2386
  148SAPE   C3116296   6.853   3.080   6.770  0.8592  0.3634  0.2009
  148SAPE   O3216297   6.827   2.974   6.821  0.4204  0.7387 -0.9117
  148SAPE   C3216298   6.979   3.157   6.778  0.0590  0.4219 -0.4987
  148SAPE   H2X16299   6.979   3.248   6.714 -1.9078  0.7621 -0.0708
  148SAPE   H2Y16300   7.053   3.086   6.735 -0.7760 -0.7715 -0.0010
  148SAPE   C2316301   6.482   3.097   7.236  0.1960 -0.4547  0.3032
  148SAPE   H3R16302   6.460   2.994   7.201  1.4479 -0.4709 -0.5289
  148SAPE   H3S16303   6.384   3.127   7.277 -0.0276 -0.0084 -0.5414
  148SAPE   C2416304   6.590   3.100   7.344  1.2002 -0.1654  0.4131
  148SAPE   H4R16305   6.614   3.206   7.366 -0.0612  0.3189 -0.4292
  148SAPE   H4S16306   6.679   3.049   7.301 -1.4538 -2.9127 -2.3576
  148SAPE   C2516307   6.548   3.040   7.472 -0.0401  0.4065 -1.0278
  148SAPE   H5R16308   6.439   3.028   7.481 -0.5556  3.2770 -2.2959
  148SAPE   C2616309   6.624   3.001   7.573  0.2975 -0.0183  0.1699
  148SAPE   H6R16310   6.572   2.981   7.668 -1.3797  3.6106  0.2014
  148SAPE   C2716311   6.773   3.022   7.567 -0.0779 -0.1819  0.0877
  148SAPE   H7R16312   6.792   3.130   7.550  0.0458 -0.1002  0.7134
  148SAPE   H7S16313   6.808   2.977   7.472 -1.2055  0.8351 -0.8507
  148SAPE   C2816314   6.850   2.980   7.688  0.0190 -0.1141  0.0314
  148SAPE   H8R16315   6.873   2.872   7.688  0.1875 -0.0785 -0.4017
  148SAPE   C2916316   6.883   3.056   7.792 -0.0257 -0.9595 -0.3455
  148SAPE   H9R16317   6.950   3.014   7.868  0.6983  1.1545  0.2554
  148SAPE  C21016318   6.861   3.206   7.808 -0.0133  0.5392  0.1618
  148SAPE  H10R16319   6.909   3.256   7.721 -2.0205 -0.4560 -1.6485
  148SAPE  H10S16320   6.919   3.237   7.897 -0.1525  1.1935  0.0329
  148SAPE  C21116321   6.718   3.240   7.806  0.1532 -0.2992  0.4124
  148SAPE  H11R16322   6.687   3.268   7.704  1.8364 -1.1327 -0.3565
  148SAPE  C21216323   6.637   3.242   7.917  0.0075  0.3025  0.1421
  148SAPE  H12R16324   6.533   3.275   7.908 -0.0202  0.1494 -0.0998
  148SAPE  C21316325   6.686   3.200   8.059 -0.7157  0.9879  0.2926
  148SAPE  H13R16326   6.792   3.166   8.053 -1.1776 -0.2598 -1.3706
  148SAPE  H13S16327   6.633   3.106   8.087 -0.9196  1.0415  0.0913
  148SAPE  C21416328   6.667   3.296   8.171 -0.0613  0.1714  0.0306
  148SAPE  H14R16329   6.584   3.365   8.147  0.3885  0.3264 -1.1588
  148SAPE  C21516330   6.730   3.307   8.288 -0.0379 -0.2805  0.2729
  148SAPE  H15R16331   6.694   3.386   8.355 -1.4970 -0.2870 -0.4686
  148SAPE  C21616332   6.831   3.217   8.338 -0.4337 -0.1252  0.0434
  148SAPE  H16R16333   6.877   3.152   8.261  0.8071 -0.8891  1.3747
  148SAPE  H16S16334   6.784   3.152   8.416  0.3867  1.6550  2.1300
  148SAPE  C21716335   6.951   3.280   8.412  0.1057  0.5093 -0.3396
  148SAPE  H17R16336   6.986   3.370   8.357 -1.5708  2.1073  1.0578
  148SAPE  H17S16337   7.031   3.204   8.413 -1.1452 -0.9715 -2.4895
  148SAPE  C21816338   6.927   3.335   8.559 -0.0973 -0.2074  0.3685
  148SAPE  H18R16339   6.881   3.249   8.612  0.7299  0.2653  1.9070
  148SAPE  H18S16340   6.847   3.411   8.543 -0.3632 -0.8765 -1.8742
  148SAPE  C21916341   7.061   3.368   8.635  0.0200 -0.1200  0.7127
  148SAPE  H19R16342   7.108   3.463   8.603  0.7272 -0.1467  1.6213
  148SAPE  H19S16343   7.144   3.298   8.611 -0.6148 -0.9321  0.8471
  148SAPE  C22016344   7.038   3.367   8.784  0.6194 -0.1967 -0.7526
  148SAPE  H20R16345   7.070   3.274   8.836  0.3623  0.6915  1.0336
  148SAPE  H20S16346   6.935   3.392   8.818  0.5850 -1.2812  0.0019
  148SAPE  H20T16347   7.110   3.440   8.826 -0.5324  1.3161 -1.3276
  148SAPE   C3316348   7.004   3.197   6.926 -0.0620  0.1553  0.2928
  148SAPE   H3X16349   7.104   3.246   6.935 -0.0461  0.4043 -1.0899
  148SAPE   H3Y16350   7.004   3.098   6.978 -0.7411 -0.6823 -1.2285
  148SAPE   C3416351   6.900   3.290   6.983  0.6407  0.0757  0.0725
  148SAPE   H4X16352   6.804   3.235   6.977  0.6518  0.1565 -1.0918
  148SAPE   H4Y16353   6.891   3.365   6.902 -0.5292 -0.8633 -0.7017
  148SAPE   C3516354   6.923   3.355   7.118  0.1335 -0.2285  0.3971
  148SAPE   H5X16355   6.822   3.390   7.151  0.6029 -0.4678  2.1641
  148SAPE   H5Y16356   7.002   3.433   7.113 -0.5756  0.4503 -1.3812
  148SAPE   C3616357   6.964   3.247   7.222 -0.0560 -0.3019  0.1853
  148SAPE   H6X16358   7.059   3.193   7.203 -1.1211 -2.9803  1.9450
  148SAPE   H6Y16359   6.886   3.168   7.222  0.3779 -0.7298  0.0673
  148SAPE   C3716360   6.957   3.303   7.361 -0.1519  0.1368  0.1793
  148SAPE   H7X16361   6.944   3.214   7.426 -0.4539  1.7242  2.4048
  148SAPE   H7Y16362   6.864   3.363   7.371 -0.6725 -0.5384 -0.5004
  148SAPE   C3816363   7.077   3.389   7.406  0.2111  0.0276  0.3036
  148SAPE   H8X16364   7.137   3.422   7.319 -0.8959 -1.3523 -1.0192
  148SAPE   H8Y16365   7.132   3.334   7.486 -1.3120 -0.8459  0.7816
  148SAPE   C3916366   7.021   3.518   7.470 -0.1725 -0.3201  0.0966
  148SAPE   H9X16367   6.945   3.499   7.548 -2.3324 -0.3530 -1.9032
  148SAPE   H9Y16368   6.965   3.573   7.391 -0.1591  0.8707  0.8883
  148SAPE  C31016369   7.122   3.621   7.518 -0.1462 -0.2600 -0.5124
  148SAPE  H10X16370   7.064   3.704   7.565  0.1945  0.0959 -0.7090
  148SAPE  H10Y16371   7.181   3.662   7.433  0.1413  0.2112 -0.0965
  148SAPE  C31116372   7.223   3.557   7.617  0.3432 -0.6084 -0.7680
  148SAPE  H11X16373   7.285   3.485   7.559 -1.3669  0.0497 -3.6156
  148SAPE  H11Y16374   7.173   3.498   7.696  0.5188 -0.4233 -0.5172
  148SAPE  C31216375   7.310   3.651   7.696  0.5916  0.3359  0.5855
  148SAPE  H12X16376   7.249   3.738   7.730 -1.0872 -0.7023  0.3111
  148SAPE  H12Y16377   7.378   3.698   7.622 -0.4692  0.5887 -0.2631
  148SAPE  C31316378   7.390   3.585   7.810 -0.0923 -0.0274 -0.2947
  148SAPE  H13X16379   7.476   3.524   7.773  1.2323  0.9799  1.0061
  148SAPE  H13Y16380   7.322   3.510   7.855 -0.8894  0.5653 -0.5003
  148SAPE  C31416381   7.436   3.690   7.904 -0.2321 -0.2683 -0.2673
  148SAPE  H14X16382   7.365   3.772   7.930 -0.3444 -0.3360 -0.3615
  148SAPE  H14Y16383   7.526   3.731   7.852 -0.1088 -1.4831 -1.0470
  148SAPE  C31516384   7.489   3.634   8.041  0.2179  0.1032  0.3992
  148SAPE  H15X16385   7.544   3.540   8.017 -1.7529 -0.5923 -1.7341
  148SAPE  H15Y16386   7.406   3.594   8.103  0.7394  0.2152  1.1841
  148SAPE  C31616387   7.564   3.736   8.125  0.6918 -0.2972  1.1158
  148SAPE  H16X16388   7.615   3.681   8.207 -1.6027 -1.2498  1.9983
  148SAPE  H16Y16389   7.484   3.803   8.163 -0.2539 -1.2745  0.8906
  148SAPE  C31716390   7.669   3.822   8.059 -0.7823 -0.2530  0.3914
  148SAPE  H17X16391   7.620   3.894   7.990 -1.1935 -1.7520 -0.9570
  148SAPE  H17Y16392   7.732   3.751   8.001  0.1621 -0.4991  1.6715
  148SAPE  C31816393   7.759   3.897   8.161 -0.0343  0.3303 -0.2853
  148SAPE  H18X16394   7.820   3.822   8.215  0.5227  1.4015  0.6374
  148SAPE  H18Y16395   7.704   3.963   8.232 -2.3022 -0.1989 -1.4652
  148SAPE  H18Z16396   7.841   3.959   8.119  2.2891 -1.3511  1.5401
  149SAPE     N16397   6.292   2.455   6.351  0.2994 -0.2565 -0.4647
  149SAPE   HN116398   6.197   2.490   6.328 -0.0988 -0.5530  0.6662
  149SAPE   HN216399   6.360   2.532   6.367 -1.4694  1.3547 -0.4346
  149SAPE   HN316400   6.326   2.403   6.267  2.0480  3.8978 -2.6056
  149SAPE   C1216401   6.285   2.346   6.457 -0.0793 -0.6157  0.4861
  149SAPE  H12A16402   6.232   2.386   6.547 -0.3262 -3.1017  1.5096
  149SAPE  H12B16403   6.389   2.322   6.485  0.2506  0.4500  0.2404
  149SAPE   C1116404   6.201   2.224   6.407 -0.6243  0.6234 -0.3497
  149SAPE  H11A16405   6.194   2.155   6.493 -1.6840  0.3084 -0.6613
  149SAPE  H11B16406   6.256   2.184   6.319 -0.1031  2.0105 -0.6952
  149SAPE     P16407   5.973   2.121   6.363 -0.1763 -0.0789 -0.1470
  149SAPE   O1316408   5.867   2.142   6.267  0.2191 -0.1286  0.3385
  149SAPE   O1416409   6.061   2.002   6.346 -0.4700 -0.5771  0.8151
  149SAPE   O1216410   6.067   2.251   6.362  0.1585  0.5086 -0.5248
  149SAPE   O1116411   5.903   2.126   6.506 -0.8881 -0.0166 -0.0591
  149SAPE    C116412   5.891   2.251   6.576  0.1999  0.4576  0.2350
  149SAPE    HA16413   5.992   2.297   6.579  0.6891 -0.5189 -0.6102
  149SAPE    HB16414   5.835   2.320   6.509  1.7607  0.0787 -1.5837
  149SAPE    C216415   5.826   2.231   6.712 -0.6522 -0.5076 -1.0601
  149SAPE    HS16416   5.847   2.323   6.771  2.0327 -1.3296 -0.6157
  149SAPE   O2116417   5.892   2.119   6.784 -0.2236  0.7326 -0.7600
  149SAPE   C2116418   6.014   2.130   6.824 -0.9268  0.3078 -1.2059
  149SAPE   O2216419   6.094   2.220   6.799  0.1182 -0.2015  0.0721
  149SAPE   C2216420   6.055   2.018   6.918 -0.1511 -0.4956  1.0260
  149SAPE   H2R16421   6.003   1.925   6.886 -0.1108  0.2270 -1.3636
  149SAPE   H2S16422   6.165   2.003   6.910 -0.0718  0.9086 -2.6111
  149SAPE    C316423   5.678   2.223   6.721 -0.4050  0.4073  0.1334
  149SAPE    HX16424   5.648   2.141   6.653  0.2465 -0.5919  1.0129
  149SAPE    HY16425   5.636   2.319   6.684 -4.0174 -0.9261  0.3550
  149SAPE   O3116426   5.639   2.209   6.857  0.1580 -0.5400 -0.2037
  149SAPE   C3116427   5.616   2.085   6.895 -0.0228  0.3931  0.0153
  149SAPE   O3216428   5.592   1.993   6.819 -0.4458 -0.4577  0.3644
  149SAPE   C3216429   5.598   2.067   7.044  0.3451 -0.4751  0.4554
  149SAPE   H2X16430   5.576   2.167   7.089  1.5502 -0.6964  1.6150
  149SAPE   H2Y16431   5.698   2.042   7.087 -0.3837 -2.0212  1.3517
  149SAPE   C2316432   6.032   2.045   7.062 -0.2437  0.8853 -0.6228
  149SAPE   H3R16433   5.933   2.090   7.082 -0.3843 -0.2679  1.5788
  149SAPE   H3S16434   6.103   2.123   7.100  0.6474 -0.3737  0.3803
  149SAPE   C2416435   6.061   1.923   7.145 -0.1789  0.3949 -1.1139
  149SAPE   H4R16436   6.087   1.953   7.249 -2.5677 -1.7841  0.2316
  149SAPE   H4S16437   6.149   1.870   7.104 -0.1953 -1.2151  0.7532
  149SAPE   C2516438   5.939   1.836   7.142  0.0915  0.0581 -0.0696
  149SAPE   H5R16439   5.908   1.805   7.041  1.0944 -2.4715  0.3286
  149SAPE   C2616440   5.875   1.787   7.248 -0.3561 -0.1316 -1.3335
  149SAPE   H6R16441   5.791   1.718   7.230  0.5796 -1.3879 -1.0220
  149SAPE   C2716442   5.895   1.817   7.397 -0.8644 -0.0585 -0.2854
  149SAPE   H7R16443   5.997   1.799   7.437 -1.4140  0.0731  1.2684
  149SAPE   H7S16444   5.826   1.750   7.452 -0.8449 -1.5977 -2.0569
  149SAPE   C2816445   5.853   1.958   7.421 -0.3433  0.3727  0.1578
  149SAPE   H8R16446   5.837   2.014   7.327 -0.1598  0.6951  0.3192
  149SAPE   C2916447   5.832   2.011   7.540  0.5903 -0.2172 -0.2674
  149SAPE   H9R16448   5.799   2.116   7.536  0.4868 -0.2697 -1.0099
  149SAPE  C21016449   5.843   1.929   7.664  0.2352  0.4452  0.0803
  149SAPE  H10R16450   5.903   1.836   7.655 -1.2110 -0.8155  2.5786
  149SAPE  H10S16451   5.745   1.884   7.691 -0.5414  1.9137 -0.1725
  149SAPE  C21116452   5.907   2.014   7.775 -0.8010  0.2539 -0.3486
  149SAPE  H11R16453   5.960   2.102   7.737  0.4778  0.2573  1.2992
  149SAPE  C21216454   5.913   1.996   7.909 -0.5071  0.4135  0.2570
  149SAPE  H12R16455   5.965   2.053   7.987  1.2454  0.3813 -0.8563
  149SAPE  C21316456   5.834   1.887   7.982 -0.4975  0.4326 -0.0494
  149SAPE  H13R16457   5.759   1.845   7.911 -0.6755 -0.2009  0.5057
  149SAPE  H13S16458   5.778   1.946   8.058 -1.4449 -1.9885  1.2292
  149SAPE  C21416459   5.905   1.759   8.015  0.4120 -0.2174  0.5027
  149SAPE  H14R16460   5.964   1.715   7.934 -2.8673 -0.3372 -2.0118
  149SAPE  C21516461   5.883   1.697   8.137  0.0598  0.7376  0.1003
  149SAPE  H15R16462   5.939   1.602   8.142  1.3344  1.4315 -0.4685
  149SAPE  C21616463   5.800   1.728   8.258  0.2522 -0.7365 -0.3214
  149SAPE  H16R16464   5.722   1.656   8.291 -1.7602  0.6127 -1.8616
  149SAPE  H16S16465   5.756   1.828   8.239 -0.6113 -1.1548 -0.5785
  149SAPE  C21716466   5.894   1.760   8.380 -0.6222 -0.1309  0.1750
  149SAPE  H17R16467   5.960   1.846   8.355 -2.3503  0.4352 -3.0123
  149SAPE  H17S16468   5.954   1.668   8.400  0.6779  0.4907 -0.7316
  149SAPE  C21816469   5.819   1.775   8.514 -0.1510 -0.4822 -0.0343
  149SAPE  H18R16470   5.775   1.675   8.532 -1.5002 -0.0553 -0.8217
  149SAPE  H18S16471   5.748   1.857   8.491  0.7908  0.4677  0.3651
  149SAPE  C21916472   5.902   1.825   8.631  0.0684 -0.1578  0.0859
  149SAPE  H19R16473   5.945   1.927   8.627  0.8163 -0.3561  1.9914
  149SAPE  H19S16474   5.989   1.757   8.627  0.9611  0.9260  0.6180
  149SAPE  C22016475   5.824   1.814   8.756  0.2748  0.1249  0.3800
  149SAPE  H20R16476   5.743   1.889   8.744  0.1492 -0.2692 -1.6051
  149SAPE  H20S16477   5.882   1.833   8.849  1.0246 -0.5880  0.0720
  149SAPE  H20T16478   5.780   1.713   8.770 -0.8528  0.6237  0.5315
  149SAPE   C3316479   5.487   1.959   7.064  0.4019  0.3837  0.3834
  149SAPE   H3X16480   5.523   1.863   7.021 -0.5124  0.7795 -1.3154
  149SAPE   H3Y16481   5.393   1.994   7.016  1.3779  2.4974 -0.1244
  149SAPE   C3416482   5.459   1.932   7.215  0.2689 -0.2834 -0.1988
  149SAPE   H4X16483   5.548   1.887   7.264  0.7006 -0.9017 -1.4950
  149SAPE   H4Y16484   5.370   1.865   7.214 -1.2575  1.6590 -0.4955
  149SAPE   C3516485   5.404   2.055   7.289  0.1125 -0.2298 -0.5424
  149SAPE   H5X16486   5.315   2.080   7.229 -0.1333 -0.4101 -0.2542
  149SAPE   H5Y16487   5.469   2.145   7.285 -0.5064  0.2494 -0.0222
  149SAPE   C3616488   5.368   2.024   7.436 -0.1194 -0.0267 -0.3304
  149SAPE   H6X16489   5.363   1.914   7.447 -0.8260 -0.0379 -0.7468
  149SAPE   H6Y16490   5.271   2.076   7.453 -0.5963 -1.0510  0.1414
  149SAPE   C3716491   5.471   2.095   7.533  0.2196 -0.0579 -1.0983
  149SAPE   H7X16492   5.491   2.198   7.496 -0.4948  0.2716 -0.5945
  149SAPE   H7Y16493   5.563   2.033   7.531  0.0096 -0.3402 -2.2137
  149SAPE   C3816494   5.422   2.107   7.681  0.5061 -0.0389 -0.4775
  149SAPE   H8X16495   5.433   2.009   7.733  0.1891  0.0022 -0.3277
  149SAPE   H8Y16496   5.317   2.142   7.676  0.3976 -0.0989  0.9104
  149SAPE   C3916497   5.492   2.218   7.762  0.7423  0.2561 -0.0275
  149SAPE   H9X16498   5.474   2.320   7.724  0.9457  0.3938  0.2409
  149SAPE   H9Y16499   5.602   2.202   7.755  0.6065 -1.1042  0.4825
  149SAPE  C31016500   5.473   2.211   7.921 -0.5057 -0.2186 -0.0594
  149SAPE  H10X16501   5.530   2.128   7.967 -0.7877  0.3924  1.4499
  149SAPE  H10Y16502   5.366   2.199   7.950 -0.5936  1.4419  0.4272
  149SAPE  C31116503   5.531   2.335   7.986 -0.0528  0.1948 -0.6152
  149SAPE  H11X16504   5.451   2.409   8.004 -1.4441 -1.6932  1.5057
  149SAPE  H11Y16505   5.614   2.379   7.927 -0.5454 -0.1498 -1.5840
  149SAPE  C31216506   5.590   2.317   8.134 -0.1378 -0.6127  0.1723
  149SAPE  H12X16507   5.521   2.250   8.190 -2.2719  1.7712  0.5481
  149SAPE  H12Y16508   5.584   2.408   8.197 -1.6970 -0.9326  0.5394
  149SAPE  C31316509   5.735   2.260   8.137  0.3522  0.3950  0.6885
  149SAPE  H13X16510   5.809   2.315   8.076  1.1681 -2.3468 -0.9659
  149SAPE  H13Y16511   5.745   2.161   8.088  3.4883  0.7725  0.4076
  149SAPE  C31416512   5.776   2.240   8.289  0.2157 -0.0926 -0.6178
  149SAPE  H14X16513   5.732   2.151   8.340  2.2520 -0.9873 -0.3292
  149SAPE  H14Y16514   5.754   2.334   8.344  0.5675  0.0263 -0.6786
  149SAPE  C31516515   5.928   2.209   8.316 -0.4952 -0.8818  0.1091
  149SAPE  H15X16516   5.994   2.293   8.285  0.3999 -0.7257  2.2289
  149SAPE  H15Y16517   5.959   2.126   8.248  1.3072 -0.7875  0.7602
  149SAPE  C31616518   5.968   2.180   8.464 -0.3178  0.1933  0.0039
  149SAPE  H16X16519   5.918   2.092   8.511 -0.0629 -0.4737 -0.9155
  149SAPE  H16Y16520   5.935   2.265   8.527 -3.9672 -1.0093 -0.0425
  149SAPE  C31716521   6.114   2.159   8.480 -0.5945  0.4925  0.0135
  149SAPE  H17X16522   6.160   2.257   8.454  3.8505 -0.6326  2.5300
  149SAPE  H17Y16523   6.158   2.073   8.425  0.4935  0.2380  1.2428
  149SAPE  C31816524   6.159   2.142   8.626  0.5933 -1.0416 -0.2603
  149SAPE  H18X16525   6.270   2.151   8.627  0.4321  2.1101  0.4217
  149SAPE  H18Y16526   6.132   2.048   8.678 -0.1943 -0.8744 -0.3549
  149SAPE  H18Z16527   6.123   2.218   8.698  1.9848 -2.8198  2.5033
  150SAPE     N16528   3.119   4.426   6.345  0.2545  0.4038 -0.0087
  150SAPE   HN116529   3.047   4.482   6.394  1.0186 -0.2433  1.9390
  150SAPE   HN216530   3.192   4.487   6.304  2.1600 -1.0586  1.0402
  150SAPE   HN316531   3.067   4.372   6.273  1.6619  1.9271 -2.2877
  150SAPE   C1216532   3.191   4.329   6.433 -0.6229  0.1954 -0.2515
  150SAPE  H12A16533   3.230   4.244   6.373 -0.4010 -1.2000  1.7851
  150SAPE  H12B16534   3.111   4.296   6.503 -0.9459  0.6815 -0.3863
  150SAPE   C1116535   3.309   4.399   6.503 -0.1557 -0.1650 -0.6350
  150SAPE  H11A16536   3.374   4.331   6.563  1.7946  0.8849 -1.4359
  150SAPE  H11B16537   3.270   4.471   6.578 -1.0167  0.4007 -1.6023
  150SAPE     P16538   3.504   4.393   6.338 -0.2152  0.0370  0.1852
  150SAPE   O1316539   3.438   4.279   6.270  0.8152 -0.3151 -0.0312
  150SAPE   O1416540   3.586   4.491   6.257  0.7986  0.4512 -0.0945
  150SAPE   O1216541   3.392   4.473   6.409  0.3746  0.6307 -0.3168
  150SAPE   O1116542   3.597   4.347   6.467 -0.0406  0.1690  0.5631
  150SAPE    C116543   3.700   4.436   6.506 -0.1611 -0.1345 -0.1851
  150SAPE    HA16544   3.786   4.435   6.435 -0.1933  1.3406 -0.2755
  150SAPE    HB16545   3.660   4.540   6.509  0.1590  0.0002 -0.4612
  150SAPE    C216546   3.742   4.403   6.654 -0.4259  0.2577  0.1921
  150SAPE    HS16547   3.794   4.305   6.651 -0.3526  0.1058  3.5315
  150SAPE   O2116548   3.625   4.403   6.736 -0.1865 -0.3421  0.4382
  150SAPE   C2116549   3.567   4.286   6.749  0.6566  0.5191 -0.3518
  150SAPE   O2216550   3.603   4.180   6.702  0.0588 -0.2047 -0.0215
  150SAPE   C2216551   3.425   4.300   6.825 -0.5085 -0.3897  0.0300
  150SAPE   H2R16552   3.369   4.373   6.763  0.9379 -0.0535 -0.9154
  150SAPE   H2S16553   3.380   4.198   6.816  1.4848 -1.4399  1.1577
  150SAPE    C316554   3.846   4.503   6.704 -0.1709  0.3094  0.2128
  150SAPE    HX16555   3.820   4.611   6.697 -0.7764  0.1367 -0.3737
  150SAPE    HY16556   3.933   4.492   6.636  0.8786 -1.1717  1.7036
  150SAPE   O3116557   3.875   4.475   6.841 -0.5778  0.6930  0.3819
  150SAPE   C3116558   3.983   4.541   6.884  0.0800 -0.3993  0.1348
  150SAPE   O3216559   4.058   4.608   6.816 -0.1026 -0.2714  0.2919
  150SAPE   C3216560   3.998   4.507   7.031  0.9317 -1.2220  0.0796
  150SAPE   H2X16561   4.058   4.414   7.032  1.0966 -1.1437 -1.0050
  150SAPE   H2Y16562   3.898   4.491   7.078  1.9798  0.1586  3.0001
  150SAPE   C2316563   3.436   4.334   6.976 -0.2987  0.2603  0.4231
  150SAPE   H3R16564   3.492   4.253   7.029  0.3298  0.9160  0.7799
  150SAPE   H3S16565   3.334   4.322   7.017 -0.1953 -0.9992  0.3627
  150SAPE   C2416566   3.472   4.480   7.018 -0.4102  0.0840  0.2615
  150SAPE   H4R16567   3.563   4.514   6.965 -0.1084  1.4380  1.5751
  150SAPE   H4S16568   3.495   4.478   7.127  1.7444  1.4056 -0.1077
  150SAPE   C2516569   3.367   4.585   6.992  0.1587 -0.1056  0.5776
  150SAPE   H5R16570   3.343   4.600   6.885  0.0146  0.0277  0.6279
  150SAPE   C2616571   3.297   4.652   7.089  0.3228  0.4375  0.4296
  150SAPE   H6R16572   3.221   4.725   7.057  0.2300 -0.0289 -0.4403
  150SAPE   C2716573   3.312   4.643   7.233  0.2755  0.1862  0.1985
  150SAPE   H7R16574   3.237   4.711   7.279 -1.2640 -0.1165 -1.7318
  150SAPE   H7S16575   3.407   4.690   7.268 -0.5220  2.9535 -1.0285
  150SAPE   C2816576   3.305   4.512   7.312 -0.6011  0.2516  0.7202
  150SAPE   H8R16577   3.249   4.446   7.245 -0.8976  2.4897 -1.3606
  150SAPE   C2916578   3.366   4.475   7.425 -0.1805  0.6752 -0.1569
  150SAPE   H9R16579   3.335   4.375   7.459 -0.9551  1.6098  2.0906
  150SAPE  C21016580   3.451   4.556   7.526 -0.1511 -0.0318  0.3061
  150SAPE  H10R16581   3.514   4.630   7.472  1.6330 -3.0550 -2.1173
  150SAPE  H10S16582   3.530   4.490   7.570  1.3109  1.6758  0.3654
  150SAPE  C21116583   3.371   4.610   7.641 -0.2503 -0.3222 -0.1738
  150SAPE  H11R16584   3.327   4.709   7.620 -2.2903 -1.1330  0.0510
  150SAPE  C21216585   3.342   4.557   7.757 -0.7485 -0.2471  0.6286
  150SAPE  H12R16586   3.270   4.609   7.822 -2.6363 -1.2002 -0.6252
  150SAPE  C21316587   3.379   4.416   7.789 -0.5432  0.1083  0.0324
  150SAPE  H13R16588   3.487   4.388   7.794 -1.1952 -2.7761 -0.3201
  150SAPE  H13S16589   3.338   4.347   7.711  1.2525 -0.2695 -0.6370
  150SAPE  C21416590   3.318   4.378   7.925  0.6057  0.2987 -0.1635
  150SAPE  H14R16591   3.213   4.346   7.915  0.5184  0.8655 -1.2473
  150SAPE  C21516592   3.388   4.361   8.036 -0.1341 -0.1471  0.1168
  150SAPE  H15R16593   3.329   4.333   8.125 -0.6207  1.9705  0.5148
  150SAPE  C21616594   3.534   4.384   8.055  0.2975 -0.8798  0.3392
  150SAPE  H16R16595   3.591   4.360   7.963  2.0024 -0.8779  1.3585
  150SAPE  H16S16596   3.565   4.306   8.128 -1.6530 -1.4815  0.5918
  150SAPE  C21716597   3.563   4.529   8.108 -0.2002  0.5953  0.2420
  150SAPE  H17R16598   3.510   4.553   8.202  1.2486  3.1387  0.4948
  150SAPE  H17S16599   3.517   4.602   8.038 -1.7984  0.5357  1.1910
  150SAPE  C21816600   3.709   4.572   8.106  0.3013  0.0482  0.4911
  150SAPE  H18R16601   3.783   4.516   8.168 -0.7537  0.5763  2.3219
  150SAPE  H18S16602   3.716   4.680   8.132  0.8019  0.0471  0.3638
  150SAPE  C21916603   3.770   4.563   7.958  0.6830 -0.0155  0.7407
  150SAPE  H19R16604   3.780   4.455   7.933  0.8171  0.7344 -2.9734
  150SAPE  H19S16605   3.867   4.616   7.962  1.9483 -1.9058 -1.9066
  150SAPE  C22016606   3.698   4.636   7.848  0.0119  0.5454 -0.7082
  150SAPE  H20R16607   3.773   4.636   7.766  0.9981 -2.9174  0.0669
  150SAPE  H20S16608   3.665   4.734   7.890  0.4839 -0.6204  2.6929
  150SAPE  H20T16609   3.607   4.582   7.815 -0.4867  1.0044 -0.1208
  150SAPE   C3316610   4.059   4.613   7.129 -0.2969  0.4612  0.2047
  150SAPE   H3X16611   4.010   4.712   7.117 -1.2985 -0.1080 -0.5807
  150SAPE   H3Y16612   4.168   4.617   7.106 -0.2687 -1.2623 -0.0679
  150SAPE   C3416613   4.046   4.572   7.278 -0.3246 -0.2782 -0.3182
  150SAPE   H4X16614   3.936   4.575   7.289 -0.7098 -1.7576 -2.8627
  150SAPE   H4Y16615   4.095   4.648   7.342 -0.7727  0.1022 -0.4257
  150SAPE   C3516616   4.117   4.442   7.306  0.3246 -0.0873  0.2299
  150SAPE   H5X16617   4.215   4.435   7.256 -0.4316 -1.5501 -1.0994
  150SAPE   H5Y16618   4.064   4.355   7.262  2.5719 -1.2151 -0.4087
  150SAPE   C3616619   4.140   4.430   7.465 -0.4949  0.0207  0.2906
  150SAPE   H6X16620   4.217   4.508   7.485  0.1867 -0.3143 -0.9327
  150SAPE   H6Y16621   4.193   4.333   7.478  0.0660  0.1153 -1.0440
  150SAPE   C3716622   4.016   4.428   7.555  0.2577 -0.9000  0.1050
  150SAPE   H7X16623   3.947   4.342   7.542 -1.2623 -0.0849  2.1746
  150SAPE   H7Y16624   3.951   4.513   7.525  0.6641 -0.7661 -0.4019
  150SAPE   C3816625   4.053   4.441   7.703 -0.6571  0.1243  0.4414
  150SAPE   H8X16626   3.980   4.498   7.766 -2.2295  0.0209 -1.1936
  150SAPE   H8Y16627   4.152   4.489   7.713 -0.6397  0.4800 -1.1443
  150SAPE   C3916628   4.080   4.299   7.756 -0.8533 -0.2062 -0.5879
  150SAPE   H9X16629   4.153   4.251   7.687  0.4530  1.7363 -0.6332
  150SAPE   H9Y16630   3.983   4.245   7.754 -1.9484  1.6710 -2.6134
  150SAPE  C31016631   4.154   4.297   7.887 -0.2426 -0.1305 -0.1428
  150SAPE  H10X16632   4.246   4.357   7.894 -0.2129 -0.0082 -1.3833
  150SAPE  H10Y16633   4.193   4.194   7.899 -0.1980 -0.4942 -2.7083
  150SAPE  C31116634   4.065   4.344   8.003 -0.4485 -0.1768 -0.3457
  150SAPE  H11X16635   3.963   4.300   8.005 -0.4303 -0.4026  3.3691
  150SAPE  H11Y16636   4.057   4.455   8.000 -1.7878 -0.2734 -0.9861
  150SAPE  C31216637   4.110   4.307   8.142 -0.5863 -0.4175  0.2678
  150SAPE  H12X16638   4.147   4.203   8.152 -0.0180 -0.0747  2.0028
  150SAPE  H12Y16639   4.039   4.323   8.225 -1.0558 -1.0322 -0.0130
  150SAPE  C31316640   4.233   4.404   8.189  1.1305  0.5136  0.8121
  150SAPE  H13X16641   4.197   4.509   8.191  1.9796  0.8043  1.2893
  150SAPE  H13Y16642   4.317   4.381   8.121 -2.1599 -0.4130 -3.3445
  150SAPE  C31416643   4.296   4.375   8.320 -0.0789 -0.6612  0.8843
  150SAPE  H14X16644   4.333   4.270   8.325 -0.1033 -0.7406 -0.4656
  150SAPE  H14Y16645   4.212   4.380   8.393 -0.2867  1.3303  0.5554
  150SAPE  C31516646   4.413   4.471   8.359  0.6462 -0.8237 -0.1376
  150SAPE  H15X16647   4.373   4.572   8.384  1.1738 -1.0685  1.8658
  150SAPE  H15Y16648   4.484   4.485   8.274 -0.0280  1.6798 -0.3798
  150SAPE  C31616649   4.482   4.424   8.490  0.0467 -0.8379  0.4580
  150SAPE  H16X16650   4.411   4.379   8.563  0.3870 -2.0732  0.0534
  150SAPE  H16Y16651   4.538   4.510   8.534  0.5635 -0.7222 -0.4031
  150SAPE  C31716652   4.594   4.321   8.458  0.2024  0.5589  0.2952
  150SAPE  H17X16653   4.691   4.375   8.447 -0.1472  0.6676 -2.9703
  150SAPE  H17Y16654   4.570   4.252   8.375 -1.2514  2.6279 -1.1286
  150SAPE  C31816655   4.611   4.236   8.588  0.0858 -0.9912 -0.1510
  150SAPE  H18X16656   4.702   4.174   8.572 -0.4417 -1.5607 -1.0232
  150SAPE  H18Y16657   4.516   4.177   8.582  1.0898 -2.5154 -2.2144
  150SAPE  H18Z16658   4.607   4.292   8.684 -1.5884 -0.9452 -0.2055
  151SAPE     N16659   6.084   0.409   6.551  0.1963 -0.1444 -0.1092
  151SAPE   HN116660   6.025   0.330   6.520 -0.1695  0.4381 -0.9441
  151SAPE   HN216661   6.132   0.460   6.473 -0.9394  1.8747  0.4504
  151SAPE   HN316662   6.165   0.366   6.600  0.2257 -0.2548 -0.2529
  151SAPE   C1216663   6.013   0.514   6.625  0.0941 -0.5201 -0.0420
  151SAPE  H12A16664   5.996   0.483   6.730 -0.9845 -3.4271 -0.9810
  151SAPE  H12B16665   5.910   0.517   6.584  0.4424 -0.8416 -0.9695
  151SAPE   C1116666   6.073   0.657   6.608 -0.1498 -0.7799 -0.1285
  151SAPE  H11A16667   6.179   0.653   6.642 -0.1152 -1.6951 -0.3219
  151SAPE  H11B16668   6.011   0.727   6.668  0.6824  2.1130 -2.4383
  151SAPE     P16669   5.982   0.810   6.420  0.1272 -0.3986  0.1706
  151SAPE   O1316670   6.018   0.850   6.283  0.0338 -0.3059  0.2964
  151SAPE   O1416671   5.844   0.763   6.442  0.7496 -0.6697 -0.2497
  151SAPE   O1216672   6.074   0.688   6.466  0.3434 -0.4147 -0.6041
  151SAPE   O1116673   6.013   0.926   6.514  0.6104  0.2557 -0.0464
  151SAPE    C116674   6.140   0.993   6.516 -0.4118 -0.4477  0.8948
  151SAPE    HA16675   6.211   0.919   6.559  0.2856  0.5178  1.4670
  151SAPE    HB16676   6.171   1.018   6.413 -0.9979  0.1813  0.8668
  151SAPE    C216677   6.150   1.118   6.610 -0.1264  0.0043 -0.1601
  151SAPE    HS16678   6.257   1.126   6.639 -0.0029 -4.0924  1.1392
  151SAPE   O2116679   6.066   1.116   6.726  0.1724 -0.0606 -0.2559
  151SAPE   C2116680   6.112   1.036   6.818 -0.2036 -0.0704  0.0980
  151SAPE   O2216681   6.222   0.981   6.819  0.5458  0.1655  0.3030
  151SAPE   C2216682   6.014   1.042   6.935  0.1356 -0.1704 -0.3687
  151SAPE   H2R16683   5.946   1.130   6.931 -1.9927 -1.5932  2.1181
  151SAPE   H2S16684   5.942   0.960   6.914  0.0918 -0.4326  0.7397
  151SAPE    C316685   6.115   1.247   6.521  0.0570 -0.4305 -0.3400
  151SAPE    HX16686   6.007   1.241   6.496 -0.1929  0.2177  0.5444
  151SAPE    HY16687   6.180   1.239   6.432  0.6266  1.8306 -0.1813
  151SAPE   O3116688   6.146   1.370   6.599 -0.2725  0.3204  0.3033
  151SAPE   C3116689   6.275   1.395   6.597  0.2319 -0.1046  0.1936
  151SAPE   O3216690   6.367   1.337   6.549  0.1696  0.4121  0.0478
  151SAPE   C3216691   6.296   1.514   6.686 -0.1553 -0.4293 -0.8493
  151SAPE   H2X16692   6.269   1.603   6.627 -0.2127  0.5013  0.5224
  151SAPE   H2Y16693   6.399   1.522   6.727 -0.4788  2.0471 -0.3560
  151SAPE   C2316694   6.082   1.018   7.073 -0.2529 -0.9180  0.5533
  151SAPE   H3R16695   6.148   1.105   7.089 -0.0318 -0.7819 -0.9487
  151SAPE   H3S16696   6.128   0.917   7.074 -1.7412 -1.6693 -0.8679
  151SAPE   C2416697   5.978   1.016   7.182 -0.1527  0.0562 -0.4615
  151SAPE   H4R16698   5.927   0.918   7.169  0.0529  0.1025 -1.7381
  151SAPE   H4S16699   5.903   1.096   7.173 -1.0277 -0.7470 -0.4630
  151SAPE   C2516700   6.055   1.012   7.309 -0.2549 -0.7259 -0.2696
  151SAPE   H5R16701   6.141   0.944   7.311  0.4705  0.1644 -0.2830
  151SAPE   C2616702   6.018   1.080   7.419  0.3626  1.2619  0.1695
  151SAPE   H6R16703   6.083   1.062   7.506 -0.8537 -1.8002  0.5856
  151SAPE   C2716704   5.902   1.159   7.443  0.6668 -0.5526 -0.9931
  151SAPE   H7R16705   5.838   1.135   7.531 -3.0125  1.8947 -2.7260
  151SAPE   H7S16706   5.824   1.154   7.364 -2.3288 -0.0123  1.6804
  151SAPE   C2816707   5.945   1.301   7.445 -0.1708 -0.5062 -0.1838
  151SAPE   H8R16708   5.947   1.340   7.343  1.9998 -1.7255 -0.6861
  151SAPE   C2916709   5.963   1.380   7.553 -0.0367 -0.9605 -0.0813
  151SAPE   H9R16710   5.996   1.484   7.539  1.9198 -1.0882  2.7730
  151SAPE  C21016711   5.960   1.337   7.698  0.0696  0.6185  0.2999
  151SAPE  H10R16712   5.884   1.260   7.720  0.9902 -0.5055 -0.3587
  151SAPE  H10S16713   5.936   1.417   7.772  1.1201 -0.7819  2.2542
  151SAPE  C21116714   6.082   1.261   7.753 -0.2200 -0.0401  0.1594
  151SAPE  H11R16715   6.167   1.240   7.687  0.1828 -1.5859  1.1246
  151SAPE  C21216716   6.074   1.215   7.880 -0.3081  0.2571  0.7430
  151SAPE  H12R16717   6.167   1.169   7.916  0.2389  1.0602  0.3882
  151SAPE  C21316718   5.953   1.232   7.964  0.3024  0.4388 -0.5730
  151SAPE  H13R16719   5.862   1.201   7.909 -0.7283  0.3094  1.1279
  151SAPE  H13S16720   5.945   1.338   7.999  2.2404 -0.3700  2.7239
  151SAPE  C21416721   5.964   1.143   8.088 -0.1579 -0.2675  0.5267
  151SAPE  H14R16722   5.985   1.036   8.072  0.2631  0.0702 -1.3881
  151SAPE  C21516723   5.956   1.185   8.220  0.6320  0.1083  0.0503
  151SAPE  H15R16724   5.958   1.106   8.297  0.5874  0.1115  0.0551
  151SAPE  C21616725   5.931   1.323   8.278 -0.7467  0.5028  0.5666
  151SAPE  H16R16726   5.841   1.316   8.344 -1.5247  0.5209 -0.4744
  151SAPE  H16S16727   5.906   1.391   8.194  0.1901 -0.3101 -0.4019
  151SAPE  C21716728   6.052   1.368   8.363  0.2804 -0.3182  0.1825
  151SAPE  H17R16729   6.035   1.475   8.389  1.5176 -0.0479 -0.0587
  151SAPE  H17S16730   6.140   1.374   8.296  1.4203 -0.1268  1.6388
  151SAPE  C21816731   6.098   1.278   8.488  0.3750 -0.0058 -0.7538
  151SAPE  H18R16732   6.190   1.306   8.544  0.1419 -1.2920  0.3198
  151SAPE  H18S16733   6.114   1.177   8.446 -3.4635 -1.2244  0.2650
  151SAPE  C21916734   5.979   1.258   8.588  0.2270  0.5730 -0.6764
  151SAPE  H19R16735   5.891   1.222   8.529 -1.1962  1.2144  0.9915
  151SAPE  H19S16736   5.949   1.348   8.644  0.3159  0.3465 -0.2609
  151SAPE  C22016737   6.003   1.144   8.686  0.2097 -0.2219  0.6319
  151SAPE  H20R16738   6.037   1.052   8.633 -0.2503 -0.6261  1.0315
  151SAPE  H20S16739   6.089   1.152   8.756  0.0158 -1.2674  1.0129
  151SAPE  H20T16740   5.904   1.121   8.731 -0.6774  1.1367 -0.5333
  151SAPE   C3316741   6.209   1.498   6.810  1.1022  0.4796 -0.2310
  151SAPE   H3X16742   6.220   1.398   6.856  1.8757  1.5234  2.0115
  151SAPE   H3Y16743   6.103   1.520   6.784  0.1760 -1.8390  1.2986
  151SAPE   C3416744   6.259   1.580   6.929  0.6124 -0.2757  0.0086
  151SAPE   H4X16745   6.231   1.686   6.909 -0.8979 -0.6332  0.1760
  151SAPE   H4Y16746   6.369   1.577   6.946  1.2578  0.5365 -3.2947
  151SAPE   C3516747   6.205   1.543   7.071  0.9943  1.0475 -0.3004
  151SAPE   H5X16748   6.202   1.433   7.085  1.6110  1.0081 -0.4690
  151SAPE   H5Y16749   6.100   1.579   7.066  0.6246  0.1399  0.6874
  151SAPE   C3616750   6.292   1.613   7.176  1.1990  0.0949 -0.4035
  151SAPE   H6X16751   6.297   1.719   7.145  1.0325  0.9419  2.2454
  151SAPE   H6Y16752   6.392   1.566   7.167  1.2034  0.0522 -0.1243
  151SAPE   C3716753   6.226   1.601   7.313 -0.5509  0.3101  0.6821
  151SAPE   H7X16754   6.178   1.501   7.310  1.8809 -0.9032 -1.1621
  151SAPE   H7Y16755   6.144   1.675   7.325 -1.6114 -0.9884  1.7921
  151SAPE   C3816756   6.325   1.611   7.428  0.1767  0.6143  0.7816
  151SAPE   H8X16757   6.368   1.714   7.421 -0.6101  0.8666 -1.1545
  151SAPE   H8Y16758   6.406   1.536   7.425 -0.7660 -0.4000  0.0172
  151SAPE   C3916759   6.247   1.602   7.563 -0.3633  0.1952 -0.0438
  151SAPE   H9X16760   6.222   1.494   7.576  1.9094 -0.4821 -0.8263
  151SAPE   H9Y16761   6.153   1.660   7.553 -0.9684 -0.3444  2.0445
  151SAPE  C31016762   6.319   1.659   7.685  0.0887 -0.0555 -0.4794
  151SAPE  H10X16763   6.330   1.769   7.679  1.8539 -0.1054  0.9966
  151SAPE  H10Y16764   6.427   1.634   7.687  0.2068  0.4342  1.6198
  151SAPE  C31116765   6.259   1.624   7.831 -0.5921 -0.0602 -0.1171
  151SAPE  H11X16766   6.262   1.513   7.830  3.1108 -0.1050  0.7468
  151SAPE  H11Y16767   6.156   1.665   7.842  0.1324  1.5049  1.1083
  151SAPE  C31216768   6.351   1.666   7.953  0.1313  0.2524  0.2461
  151SAPE  H12X16769   6.365   1.776   7.950  2.2817  0.0023 -1.0947
  151SAPE  H12Y16770   6.446   1.616   7.925 -0.9449 -1.1952 -0.9771
  151SAPE  C31316771   6.302   1.621   8.093  0.1695 -0.2998 -0.4421
  151SAPE  H13X16772   6.320   1.513   8.108 -0.2139 -0.0431  2.5243
  151SAPE  H13Y16773   6.193   1.642   8.101 -0.2184 -2.3447  0.0485
  151SAPE  C31416774   6.362   1.693   8.219  0.3012  0.0558 -0.2525
  151SAPE  H14X16775   6.369   1.803   8.204 -0.7125  0.4532  1.7772
  151SAPE  H14Y16776   6.467   1.658   8.215  0.7857  1.3728  0.3597
  151SAPE  C31516777   6.278   1.656   8.343 -0.0603  0.4309 -0.5485
  151SAPE  H15X16778   6.272   1.547   8.367 -0.7057  0.8302  1.3340
  151SAPE  H15Y16779   6.182   1.702   8.313  0.6710  1.4235 -1.4169
  151SAPE  C31616780   6.319   1.720   8.472 -1.1235 -0.7684 -0.5426
  151SAPE  H16X16781   6.237   1.701   8.545  0.5213  2.3246  2.4391
  151SAPE  H16Y16782   6.326   1.830   8.456 -1.1364 -0.8452 -1.1007
  151SAPE  C31716783   6.455   1.677   8.531 -0.1808  0.6248 -0.2353
  151SAPE  H17X16784   6.525   1.656   8.447  1.1661 -0.1291  1.0296
  151SAPE  H17Y16785   6.434   1.584   8.588  0.2703  0.0439 -0.9895
  151SAPE  C31816786   6.522   1.775   8.626 -0.1321  0.1049  0.7602
  151SAPE  H18X16787   6.450   1.806   8.704 -1.4852 -0.4299 -0.2207
  151SAPE  H18Y16788   6.554   1.860   8.562 -0.9743 -1.9323 -2.6875
  151SAPE  H18Z16789   6.612   1.734   8.677 -0.6995 -1.7023  0.3845
  152SAPE     N16790   3.723   4.001   6.517  0.4838  0.4109  0.6516
  152SAPE   HN116791   3.654   3.998   6.438  1.9636  0.0472 -0.6760
  152SAPE   HN216792   3.675   4.041   6.599  0.2479  0.1717  0.6351
  152SAPE   HN316793   3.798   4.058   6.474 -0.3141  0.6598 -0.4611
  152SAPE   C1216794   3.779   3.859   6.532  0.0290 -0.8032 -0.0475
  152SAPE  H12A16795   3.866   3.869   6.601 -0.1494 -1.5720  0.2935
  152SAPE  H12B16796   3.816   3.823   6.433  0.3232 -1.1069  0.1708
  152SAPE   C1116797   3.674   3.764   6.587  0.4505  0.0436  0.1995
  152SAPE  H11A16798   3.637   3.805   6.684  0.3089  2.6613 -0.8839
  152SAPE  H11B16799   3.715   3.667   6.622 -0.1537 -1.5031 -3.0878
  152SAPE     P16800   3.441   3.656   6.517 -0.1120  0.3868  0.7333
  152SAPE   O1316801   3.321   3.741   6.492  0.5233  0.1970  0.0880
  152SAPE   O1416802   3.457   3.535   6.431  0.2545  0.0186 -0.6163
  152SAPE   O1216803   3.570   3.744   6.495  0.1418  0.4790 -0.3494
  152SAPE   O1116804   3.446   3.600   6.663  0.1000  0.8186 -0.4931
  152SAPE    C116805   3.334   3.570   6.739  0.0075  0.4890 -0.0008
  152SAPE    HA16806   3.298   3.654   6.803  0.8895  1.2558 -0.4726
  152SAPE    HB16807   3.253   3.528   6.677  3.1665 -1.0282 -3.4752
  152SAPE    C216808   3.370   3.452   6.835 -0.1118 -0.1130 -0.3066
  152SAPE    HS16809   3.279   3.437   6.896  0.1377  0.3303  0.1828
  152SAPE   O2116810   3.476   3.494   6.918 -0.2440 -0.1403  0.4366
  152SAPE   C2116811   3.435   3.580   7.014  0.1855 -0.0390 -0.0367
  152SAPE   O2216812   3.323   3.609   7.050 -0.0191  0.2675  0.7383
  152SAPE   C2216813   3.558   3.644   7.084  0.2478  0.3514  0.4616
  152SAPE   H2R16814   3.512   3.692   7.174 -0.8497 -0.6858  0.4703
  152SAPE   H2S16815   3.620   3.562   7.125  1.0586  1.2320  1.0539
  152SAPE    C316816   3.392   3.314   6.757 -0.3515  0.5004 -0.0655
  152SAPE    HX16817   3.482   3.323   6.692  0.1694  2.6272  0.8554
  152SAPE    HY16818   3.304   3.301   6.691 -0.3467 -1.8481  0.2940
  152SAPE   O3116819   3.383   3.205   6.846 -0.6869  0.1989 -0.4315
  152SAPE   C3116820   3.491   3.184   6.921  0.1974 -0.4811 -0.6840
  152SAPE   O3216821   3.603   3.224   6.896 -0.3188 -0.0053  0.4850
  152SAPE   C3216822   3.461   3.091   7.038  0.2987  0.0700  0.3281
  152SAPE   H2X16823   3.471   2.983   7.010  2.0429 -0.0195  1.1454
  152SAPE   H2Y16824   3.356   3.111   7.068  1.1084  4.0537  0.9839
  152SAPE   C2316825   3.620   3.745   6.993  0.1171 -0.0239 -0.0186
  152SAPE   H3R16826   3.594   3.745   6.885  1.1334  1.2071 -0.2913
  152SAPE   H3S16827   3.731   3.741   6.985 -0.0283 -1.2664 -2.2719
  152SAPE   C2416828   3.594   3.890   7.037  1.1838  0.3339  0.2042
  152SAPE   H4R16829   3.632   3.961   6.960 -2.4076  1.7373 -0.4757
  152SAPE   H4S16830   3.648   3.913   7.131  0.3431  2.4105  0.2435
  152SAPE   C2516831   3.447   3.917   7.028 -0.3887 -0.2893 -0.1325
  152SAPE   H5R16832   3.399   3.894   6.931 -2.0305 -1.8107  0.9778
  152SAPE   C2616833   3.372   3.979   7.121  0.2372 -0.3165 -0.4313
  152SAPE   H6R16834   3.265   3.993   7.102  0.1814 -0.8891 -0.5776
  152SAPE   C2716835   3.427   4.020   7.259  0.9268  0.2653 -0.3087
  152SAPE   H7R16836   3.516   4.083   7.233 -0.0610  1.7104 -0.3045
  152SAPE   H7S16837   3.458   3.923   7.304 -0.0308  0.8626  1.7226
  152SAPE   C2816838   3.325   4.095   7.337  0.1959 -0.0932  0.0512
  152SAPE   H8R16839   3.265   4.175   7.290 -2.2945 -2.4293 -1.0196
  152SAPE   C2916840   3.295   4.065   7.465 -0.2534 -0.1175 -0.5451
  152SAPE   H9R16841   3.204   4.114   7.504  0.4831  0.9991 -0.1826
  152SAPE  C21016842   3.361   3.964   7.554  0.2092  0.4794  0.5292
  152SAPE  H10R16843   3.467   3.958   7.519 -0.6864  1.2860 -2.6215
  152SAPE  H10S16844   3.316   3.864   7.534 -1.0492  0.9849  0.7667
  152SAPE  C21116845   3.357   4.007   7.698 -0.0995  0.0231 -0.8865
  152SAPE  H11R16846   3.414   4.098   7.724  1.3437 -0.8218 -1.0040
  152SAPE  C21216847   3.263   3.951   7.779  0.1395 -0.4469  0.4195
  152SAPE  H12R16848   3.265   3.988   7.882  0.7897  0.6507  0.0308
  152SAPE  C21316849   3.146   3.852   7.755 -0.5391  0.0746  0.0212
  152SAPE  H13R16850   3.142   3.786   7.844  0.4015  1.4049  1.0897
  152SAPE  H13S16851   3.154   3.782   7.669 -3.1047 -1.6640  1.0823
  152SAPE  C21416852   3.022   3.929   7.736  0.1282  0.1505 -0.7816
  152SAPE  H14R16853   3.012   3.954   7.630  2.4821  1.9439 -0.6706
  152SAPE  C21516854   2.923   3.962   7.823 -0.1073 -0.3195 -0.2761
  152SAPE  H15R16855   2.838   4.020   7.784 -1.2059 -3.4094 -2.9304
  152SAPE  C21616856   2.924   3.929   7.969 -0.1222  0.4769 -0.8640
  152SAPE  H16R16857   2.966   3.828   7.990 -0.7789  0.0978 -1.3478
  152SAPE  H16S16858   2.826   3.920   8.019  0.0703 -2.1662 -0.8385
  152SAPE  C21716859   3.006   4.021   8.066 -0.4708 -0.7866  0.3396
  152SAPE  H17R16860   2.969   4.126   8.063 -0.3242 -0.7415  0.0649
  152SAPE  H17S16861   3.113   4.034   8.040 -0.7665  4.4701  0.5071
  152SAPE  C21816862   3.000   3.987   8.217  0.2041 -0.0200 -0.8835
  152SAPE  H18R16863   3.075   4.046   8.273 -1.8871  1.1244  0.9038
  152SAPE  H18S16864   3.033   3.881   8.223  1.8580  0.4948 -0.6136
  152SAPE  C21916865   2.872   4.018   8.281  1.0238  0.2331  0.0156
  152SAPE  H19R16866   2.784   3.957   8.250  1.0971 -0.1518  0.5615
  152SAPE  H19S16867   2.851   4.126   8.262  1.5115  0.3202 -0.0319
  152SAPE  C22016868   2.892   3.996   8.435  0.0832  0.1495 -0.7875
  152SAPE  H20R16869   2.795   4.005   8.489 -0.0776 -3.7189 -0.1222
  152SAPE  H20S16870   2.955   4.079   8.473 -2.4090  0.8633  2.1492
  152SAPE  H20T16871   2.933   3.898   8.469  0.0321  0.2191 -0.5268
  152SAPE   C3316872   3.553   3.127   7.158  0.2861  0.1383  0.4099
  152SAPE   H3X16873   3.659   3.134   7.123 -0.4409 -0.5925 -2.0942
  152SAPE   H3Y16874   3.538   3.048   7.234 -1.2352  1.2048  1.2699
  152SAPE   C3416875   3.520   3.265   7.229 -0.1484 -0.5822  0.1407
  152SAPE   H4X16876   3.557   3.344   7.160 -0.4613  0.5558  1.2371
  152SAPE   H4Y16877   3.577   3.261   7.325 -0.6564  1.4545  0.5925
  152SAPE   C3516878   3.375   3.278   7.263  0.1193 -0.4062  0.5961
  152SAPE   H5X16879   3.338   3.176   7.285  0.3686 -0.7407 -0.5072
  152SAPE   H5Y16880   3.325   3.319   7.173  0.3001 -1.6470 -0.0962
  152SAPE   C3616881   3.348   3.368   7.389 -0.3707 -0.5697  0.2377
  152SAPE   H6X16882   3.368   3.300   7.474  0.7403  0.4075  0.7927
  152SAPE   H6Y16883   3.242   3.401   7.392 -1.1107 -2.8331  3.0293
  152SAPE   C3716884   3.439   3.486   7.403  0.1456  0.2487  1.0002
  152SAPE   H7X16885   3.434   3.551   7.312  1.4712 -1.6534 -0.5166
  152SAPE   H7Y16886   3.545   3.454   7.415  0.1659  0.4894  1.4629
  152SAPE   C3816887   3.397   3.567   7.529 -0.0772  0.2021 -0.2816
  152SAPE   H8X16888   3.291   3.601   7.527 -0.8473 -1.9505  0.4522
  152SAPE   H8Y16889   3.454   3.662   7.534  1.3714 -0.6439 -0.0900
  152SAPE   C3916890   3.436   3.508   7.665 -0.4043  0.1100  0.3293
  152SAPE   H9X16891   3.542   3.477   7.652  0.4584  3.0453 -0.3729
  152SAPE   H9Y16892   3.370   3.422   7.689 -1.1036  0.3531 -0.6579
  152SAPE  C31016893   3.428   3.609   7.782 -0.5606 -0.5792 -0.2351
  152SAPE  H10X16894   3.334   3.669   7.778  0.2393  0.7573  0.1577
  152SAPE  H10Y16895   3.507   3.688   7.778 -0.0439 -1.1010 -3.4918
  152SAPE  C31116896   3.445   3.532   7.915  0.3843 -0.6945 -0.1842
  152SAPE  H11X16897   3.532   3.463   7.912 -0.5075 -2.2215  3.6213
  152SAPE  H11Y16898   3.356   3.465   7.911 -0.6280  0.1621 -7.9769
  152SAPE  C31216899   3.459   3.621   8.043  0.3063  0.1544 -0.3431
  152SAPE  H12X16900   3.547   3.686   8.024  0.9299 -0.7896 -0.7760
  152SAPE  H12Y16901   3.461   3.560   8.135 -0.3865  0.2279 -0.2764
  152SAPE  C31316902   3.342   3.725   8.070  0.3600  0.2469  0.0813
  152SAPE  H13X16903   3.247   3.669   8.078 -0.9184  2.2442 -0.3724
  152SAPE  H13Y16904   3.323   3.796   7.987 -0.0103 -1.8801 -1.7559
  152SAPE  C31416905   3.369   3.807   8.202 -0.4754  0.2274  0.4365
  152SAPE  H14X16906   3.326   3.909   8.199  0.7474  0.7332 -0.7008
  152SAPE  H14Y16907   3.479   3.820   8.211 -0.4999  0.1313  0.8978
  152SAPE  C31516908   3.324   3.727   8.326  0.4046  0.4870 -0.3054
  152SAPE  H15X16909   3.381   3.632   8.329  2.8898  1.5410 -4.8626
  152SAPE  H15Y16910   3.215   3.702   8.328  0.6196 -0.4341  0.4511
  152SAPE  C31616911   3.350   3.794   8.455  0.0383 -0.1897 -0.0077
  152SAPE  H16X16912   3.449   3.844   8.454  1.4595 -2.8523 -0.3977
  152SAPE  H16Y16913   3.327   3.730   8.543 -1.5474  0.4018  0.0465
  152SAPE  C31716914   3.251   3.914   8.477 -0.1477 -0.6856 -0.2638
  152SAPE  H17X16915   3.148   3.877   8.455 -0.8502 -1.6682  3.8397
  152SAPE  H17Y16916   3.258   3.994   8.400  2.6169 -0.5903 -0.0164
  152SAPE  C31816917   3.241   3.979   8.620 -0.6844 -0.4824  0.3128
  152SAPE  H18X16918   3.327   4.040   8.654  1.4711 -4.5416  2.9381
  152SAPE  H18Y16919   3.237   3.899   8.696  0.6137  2.5190  3.8364
  152SAPE  H18Z16920   3.150   4.041   8.632 -0.8512 -0.7321  0.3379
  153SAPE     N16921   0.739   5.195   6.294  0.0363 -0.2651  0.6030
  153SAPE   HN116922   0.830   5.214   6.246  1.6139 -2.1108  2.6934
  153SAPE   HN216923   0.711   5.105   6.250  0.8195 -0.9012  1.3762
  153SAPE   HN316924   0.667   5.267   6.271  0.1580 -1.0212 -2.5156
  153SAPE   C1216925   0.767   5.173   6.439  0.0284  0.5681  1.0883
  153SAPE  H12A16926   0.678   5.124   6.483 -0.7172  2.9978  2.5041
  153SAPE  H12B16927   0.778   5.274   6.483 -0.5542  0.8721  0.5679
  153SAPE   C1116928   0.898   5.100   6.462  0.2736  0.1593  0.0853
  153SAPE  H11A16929   0.894   4.999   6.415  2.3238  0.5442 -1.0071
  153SAPE  H11B16930   0.903   5.094   6.572 -1.4790  0.1964  0.2013
  153SAPE     P16931   1.144   5.122   6.386  0.3203  0.2400 -0.1086
  153SAPE   O1316932   1.150   4.997   6.311  0.3216 -0.5196  0.1356
  153SAPE   O1416933   1.222   5.241   6.342  0.2906 -0.0183  0.4424
  153SAPE   O1216934   0.996   5.183   6.410  0.5105 -0.2574  0.1532
  153SAPE   O1116935   1.198   5.087   6.529  0.1756 -0.3084 -0.8093
  153SAPE    C116936   1.336   5.058   6.564  0.3168  0.4179  0.1265
  153SAPE    HA16937   1.354   4.953   6.531 -1.8173 -0.6285  2.0203
  153SAPE    HB16938   1.395   5.133   6.507 -0.1849  0.0643 -0.8982
  153SAPE    C216939   1.354   5.082   6.719  0.2719  0.3345 -0.0534
  153SAPE    HS16940   1.455   5.045   6.749  0.9051 -0.0553 -2.4854
  153SAPE   O2116941   1.245   5.010   6.786  0.5961 -0.4554 -0.2638
  153SAPE   C2116942   1.279   4.944   6.894 -0.3371 -0.0822 -0.2303
  153SAPE   O2216943   1.389   4.954   6.950  0.2833 -0.1368 -0.3049
  153SAPE   C2216944   1.174   4.858   6.944 -0.8929 -0.2896  0.4719
  153SAPE   H2R16945   1.121   4.819   6.855 -1.0816 -0.3474  0.6075
  153SAPE   H2S16946   1.222   4.776   7.002 -1.2368  0.2847  1.6124
  153SAPE    C316947   1.339   5.229   6.760 -0.4594 -0.0329  0.0024
  153SAPE    HX16948   1.234   5.260   6.740 -0.4682 -0.0889 -0.0388
  153SAPE    HY16949   1.409   5.295   6.703 -0.9264  1.4913  1.1306
  153SAPE   O3116950   1.360   5.247   6.904  0.1148  0.2871  0.1513
  153SAPE   C3116951   1.487   5.236   6.929 -0.5369  0.0686  0.6443
  153SAPE   O3216952   1.578   5.220   6.848 -0.2136 -0.4532 -0.3283
  153SAPE   C3216953   1.509   5.237   7.085  1.2685  0.0941 -0.2102
  153SAPE   H2X16954   1.461   5.144   7.123 -1.8221  2.0311  0.9506
  153SAPE   H2Y16955   1.458   5.322   7.133  1.9729 -0.0013  0.7395
  153SAPE   C2316956   1.086   4.935   7.045 -0.6068  0.4991 -0.0649
  153SAPE   H3R16957   1.143   5.006   7.110  0.1703  1.5339 -1.8077
  153SAPE   H3S16958   1.034   4.863   7.112 -1.2136  0.9751 -0.0143
  153SAPE   C2416959   0.979   5.026   6.980 -0.7259 -0.7191  0.3171
  153SAPE   H4R16960   1.036   5.101   6.921  0.8083  0.3804  3.0203
  153SAPE   H4S16961   0.932   5.084   7.063  0.3155 -1.0324  1.1472
  153SAPE   C2516962   0.870   4.969   6.889 -0.3444 -0.2822 -0.3272
  153SAPE   H5R16963   0.898   4.882   6.829  1.8708 -0.6168  1.0760
  153SAPE   C2616964   0.743   5.022   6.896 -0.1094  0.1816 -0.5263
  153SAPE   H6R16965   0.665   4.976   6.833  0.4614  0.6104 -1.5699
  153SAPE   C2716966   0.697   5.138   6.987 -0.2478 -0.7794  0.5274
  153SAPE   H7R16967   0.630   5.208   6.934 -1.4110 -1.2932  1.2799
  153SAPE   H7S16968   0.780   5.200   7.026 -1.0105  1.8829 -1.7867
  153SAPE   C2816969   0.611   5.072   7.088 -0.1431 -0.2451 -0.4323
  153SAPE   H8R16970   0.523   5.017   7.053 -1.0342  0.6227  0.3564
  153SAPE   C2916971   0.631   5.066   7.222  0.0500 -0.6107 -0.2496
  153SAPE   H9R16972   0.558   5.012   7.284 -1.9099  2.0839 -0.0344
  153SAPE  C21016973   0.748   5.126   7.304 -0.2036  0.2338 -0.2186
  153SAPE  H10R16974   0.843   5.133   7.246  1.7592  0.0337  2.7301
  153SAPE  H10S16975   0.774   5.055   7.386  0.7516  0.0341 -0.6706
  153SAPE  C21116976   0.722   5.264   7.355  0.1385  0.8970 -0.4596
  153SAPE  H11R16977   0.672   5.327   7.280 -2.3631 -0.8013 -0.3469
  153SAPE  C21216978   0.733   5.301   7.484  0.8148 -0.0739 -0.2794
  153SAPE  H12R16979   0.692   5.402   7.499 -1.1401 -0.9568  0.5889
  153SAPE  C21316980   0.786   5.226   7.607 -0.3189  0.5585  0.5695
  153SAPE  H13R16981   0.839   5.306   7.663 -0.8786  1.6005 -0.3774
  153SAPE  H13S16982   0.859   5.149   7.573 -0.0369 -0.4881  3.2443
  153SAPE  C21416983   0.673   5.163   7.681  0.3316 -0.0319 -0.1701
  153SAPE  H14R16984   0.619   5.081   7.631 -2.0012  1.9062 -1.0324
  153SAPE  C21516985   0.616   5.191   7.801  0.3671 -0.6356  0.6021
  153SAPE  H15R16986   0.542   5.126   7.850  2.3651 -1.8693  2.1352
  153SAPE  C21616987   0.659   5.295   7.900  0.5439 -0.1666 -0.3294
  153SAPE  H16R16988   0.579   5.319   7.973  0.7562 -0.2770 -0.0543
  153SAPE  H16S16989   0.688   5.381   7.836 -0.9736  0.6708  0.0780
  153SAPE  C21716990   0.787   5.254   7.986  0.1244  0.0848  0.2206
  153SAPE  H17R16991   0.858   5.217   7.908 -1.8114 -1.2767 -0.9896
  153SAPE  H17S16992   0.749   5.164   8.038 -1.2089 -1.1121 -2.6135
  153SAPE  C21816993   0.837   5.350   8.088  0.5103 -0.6353  0.4107
  153SAPE  H18R16994   0.772   5.383   8.171 -0.6947 -0.3459 -0.6115
  153SAPE  H18S16995   0.857   5.441   8.027 -1.4932 -0.2208  0.3086
  153SAPE  C21916996   0.979   5.314   8.136 -0.7316  0.8998  0.4766
  153SAPE  H19R16997   1.045   5.394   8.177  3.0982 -0.5367 -2.3125
  153SAPE  H19S16998   1.023   5.268   8.046 -0.0775  1.3455  0.5615
  153SAPE  C22016999   0.981   5.217   8.257  0.2453  0.1868  0.1631
  153SAPE  H20R17000   1.084   5.177   8.272 -0.6197 -1.6656  1.5540
  153SAPE  H20S17001   0.920   5.124   8.250 -0.1100  0.5231 -2.3246
  153SAPE  H20T17002   0.959   5.264   8.355  1.1858 -0.5657  0.7492
  153SAPE   C3317003   1.653   5.234   7.111  0.2798  1.0077  0.4025
  153SAPE   H3X17004   1.695   5.328   7.070 -1.2567  2.1105  1.2486
  153SAPE   H3Y17005   1.710   5.157   7.054 -0.1038  2.4095 -2.0363
  153SAPE   C3417006   1.688   5.213   7.261 -0.7569 -0.0654  0.4147
  153SAPE   H4X17007   1.797   5.194   7.264 -1.0251 -1.6493  1.8085
  153SAPE   H4Y17008   1.631   5.123   7.294  0.7800 -2.3942 -2.7669
  153SAPE   C3517009   1.656   5.332   7.363  0.1187  0.2781  0.1483
  153SAPE   H5X17010   1.546   5.348   7.357 -0.4740 -3.3770 -1.1756
  153SAPE   H5Y17011   1.704   5.418   7.313 -0.9644  0.3489 -0.8145
  153SAPE   C3617012   1.717   5.309   7.503 -0.9330 -0.1018  0.6808
  153SAPE   H6X17013   1.827   5.317   7.498 -0.9220 -1.0045 -1.4477
  153SAPE   H6Y17014   1.701   5.206   7.540 -1.5669 -0.4719 -0.5485
  153SAPE   C3717015   1.670   5.406   7.611  0.7181 -0.0308  0.1477
  153SAPE   H7X17016   1.562   5.382   7.612  0.4060  0.8516 -2.8397
  153SAPE   H7Y17017   1.675   5.510   7.573 -0.3657 -0.1552 -0.3644
  153SAPE   C3817018   1.733   5.378   7.747  0.8295  0.7488 -0.8365
  153SAPE   H8X17019   1.706   5.467   7.809  0.1584 -0.4043  0.5757
  153SAPE   H8Y17020   1.844   5.381   7.740  0.7849  1.4350 -1.3707
  153SAPE   C3917021   1.673   5.262   7.817 -0.1188  0.2845  0.1336
  153SAPE   H9X17022   1.682   5.167   7.759 -0.1241  1.1635 -1.3736
  153SAPE   H9Y17023   1.566   5.291   7.823 -0.7634 -2.0954  1.5636
  153SAPE  C31017024   1.744   5.250   7.953  0.4539  0.0584 -0.5525
  153SAPE  H10X17025   1.739   5.351   8.000  1.0400  0.2985 -0.9904
  153SAPE  H10Y17026   1.850   5.217   7.951  0.5079  0.0988  0.8672
  153SAPE  C31117027   1.668   5.154   8.045  0.1116  0.4029  0.0836
  153SAPE  H11X17028   1.666   5.050   8.007 -0.0868  0.0730  0.9682
  153SAPE  H11Y17029   1.562   5.185   8.049 -0.0562 -0.2577  0.9255
  153SAPE  C31217030   1.738   5.136   8.181 -0.0089  0.0829  0.3226
  153SAPE  H12X17031   1.847   5.146   8.159  0.4723 -2.2440  1.3570
  153SAPE  H12Y17032   1.712   5.031   8.206  0.0773 -0.2008 -0.7262
  153SAPE  C31317033   1.691   5.239   8.285 -0.1643 -0.2195 -0.8065
  153SAPE  H13X17034   1.722   5.340   8.252 -2.5681  1.7317  2.3211
  153SAPE  H13Y17035   1.734   5.218   8.386 -1.7823  0.6595  0.0990
  153SAPE  C31417036   1.539   5.220   8.314  0.7511 -0.4819 -0.0412
  153SAPE  H14X17037   1.524   5.110   8.323  2.7558 -0.6368  3.4562
  153SAPE  H14Y17038   1.476   5.262   8.234  1.2811  1.0533  0.3232
  153SAPE  C31517039   1.487   5.292   8.441 -0.1190 -0.4307  0.0597
  153SAPE  H15X17040   1.527   5.395   8.444 -0.7499 -0.2088  1.7526
  153SAPE  H15Y17041   1.551   5.243   8.518  1.2862  2.7716  1.0654
  153SAPE  C31617042   1.338   5.287   8.461 -0.9285 -0.0428  0.4427
  153SAPE  H16X17043   1.306   5.181   8.473  2.0593 -0.8011  3.1242
  153SAPE  H16Y17044   1.294   5.326   8.367  0.1240 -0.2600 -0.1591
  153SAPE  C31717045   1.283   5.361   8.585 -0.2710 -0.0090 -0.9636
  153SAPE  H17X17046   1.306   5.469   8.581 -0.3591 -0.0195 -1.9460
  153SAPE  H17Y17047   1.336   5.327   8.677  0.1862  0.5203 -1.0230
  153SAPE  C31817048   1.130   5.334   8.618 -0.4443  0.1854 -0.1653
  153SAPE  H18X17049   1.090   5.392   8.704  0.3320 -0.6459  0.7881
  153SAPE  H18Y17050   1.118   5.229   8.653  0.0352 -0.4360 -1.8085
  153SAPE  H18Z17051   1.075   5.360   8.526 -0.9864 -2.1145 -0.5495
  154SAPE     N17052   6.735   2.350   6.171  0.7612  0.0826 -0.1009
  154SAPE   HN117053   6.635   2.353   6.196  0.7899  0.7566 -0.0358
  154SAPE   HN217054   6.739   2.308   6.076  0.2089 -0.3315  0.0543
  154SAPE   HN317055   6.791   2.300   6.243 -1.3159  2.2600  3.2700
  154SAPE   C1217056   6.778   2.495   6.169 -0.0707 -0.3478 -0.5704
  154SAPE  H12A17057   6.708   2.547   6.101 -0.9360  0.0284  0.5783
  154SAPE  H12B17058   6.874   2.486   6.114  0.1209 -1.6332 -0.0768
  154SAPE   C1117059   6.790   2.564   6.306  0.1307  0.3970  0.0721
  154SAPE  H11A17060   6.853   2.655   6.305 -0.4335  0.7970  0.3767
  154SAPE  H11B17061   6.843   2.487   6.367  0.8360  0.6442 -0.2307
  154SAPE     P17062   6.572   2.713   6.328  0.0192  0.1304 -0.2557
  154SAPE   O1317063   6.618   2.767   6.199  0.3219  0.6618 -0.1506
  154SAPE   O1417064   6.428   2.695   6.344 -0.1901  0.0083  0.0941
  154SAPE   O1217065   6.655   2.573   6.357  0.8085 -0.8464  0.1722
  154SAPE   O1117066   6.617   2.797   6.451  0.7802  0.8791  0.1133
  154SAPE    C117067   6.670   2.743   6.575 -0.3372 -0.5722  0.6215
  154SAPE    HA17068   6.757   2.677   6.555  1.4169  2.1275 -1.1526
  154SAPE    HB17069   6.714   2.829   6.629 -0.6676  0.3153 -0.4855
  154SAPE    C217070   6.562   2.677   6.656  0.4209 -0.6454  0.0025
  154SAPE    HS17071   6.512   2.599   6.593  0.8004  1.5611 -3.2844
  154SAPE   O2117072   6.462   2.778   6.702 -0.2952  0.2986  0.2407
  154SAPE   C2117073   6.344   2.727   6.720 -0.2117 -0.0929 -0.2459
  154SAPE   O2217074   6.310   2.611   6.718  0.5427 -0.1524 -0.7553
  154SAPE   C2217075   6.258   2.851   6.735 -0.0372  0.0172  0.1479
  154SAPE   H2R17076   6.326   2.938   6.744 -0.3520  0.1919  0.8871
  154SAPE   H2S17077   6.207   2.863   6.637 -1.5378 -2.0927  0.5843
  154SAPE    C317078   6.635   2.598   6.776 -0.1189 -0.0821  0.0537
  154SAPE    HX17079   6.722   2.555   6.723  0.0912  0.5943 -0.1662
  154SAPE    HY17080   6.565   2.524   6.819  0.8078 -1.3493 -0.5700
  154SAPE   O3117081   6.678   2.695   6.880  0.1249  0.9187 -0.1711
  154SAPE   C3117082   6.809   2.706   6.911  0.4481  0.3167  0.3071
  154SAPE   O3217083   6.901   2.657   6.849  0.5714  0.2158  0.1476
  154SAPE   C3217084   6.830   2.768   7.047  0.2046 -0.0397  0.0274
  154SAPE   H2X17085   6.734   2.767   7.103  1.1524 -2.2918  1.7533
  154SAPE   H2Y17086   6.850   2.876   7.031 -3.8826  0.8005 -0.6615
  154SAPE   C2317087   6.145   2.841   6.841  0.1131  0.5261  0.6016
  154SAPE   H3R17088   6.062   2.783   6.794 -0.9619  1.5317  1.1919
  154SAPE   H3S17089   6.097   2.938   6.865 -0.0930 -0.0622  2.8461
  154SAPE   C2417090   6.189   2.785   6.974  0.0551  0.2153  0.3938
  154SAPE   H4R17091   6.269   2.851   7.014  0.3376 -0.9827  1.8977
  154SAPE   H4S17092   6.214   2.678   6.956  1.8209  0.8694 -1.5454
  154SAPE   C2517093   6.075   2.781   7.069  0.1867  0.0461  0.0600
  154SAPE   H5R17094   5.999   2.710   7.033  0.6229  0.0552 -0.9006
  154SAPE   C2617095   6.048   2.856   7.174  0.7949 -0.5469 -0.0959
  154SAPE   H6R17096   5.958   2.838   7.235  1.2400 -1.3578  0.3443
  154SAPE   C2717097   6.130   2.973   7.212 -0.3165  0.1210  0.4184
  154SAPE   H7R17098   6.134   3.042   7.124 -1.1500  0.8522  0.9364
  154SAPE   H7S17099   6.234   2.949   7.241 -0.0877  0.5052 -0.0677
  154SAPE   C2817100   6.087   3.041   7.339  0.1211 -0.4999 -0.0509
  154SAPE   H8R17101   6.048   3.140   7.309 -0.2344 -0.1078  1.6311
  154SAPE   C2917102   6.096   3.007   7.461  0.6960 -0.2249  0.0095
  154SAPE   H9R17103   6.053   3.080   7.532 -3.2312 -0.7260 -1.5700
  154SAPE  C21017104   6.164   2.886   7.514 -0.5358  0.7104  0.7681
  154SAPE  H10R17105   6.275   2.888   7.512 -0.5397  0.4047 -0.0395
  154SAPE  H10S17106   6.158   2.807   7.436 -2.1642  0.3148  1.2439
  154SAPE  C21117107   6.117   2.841   7.651  0.4445 -0.2775  0.4730
  154SAPE  H11R17108   6.047   2.757   7.657  1.8001 -1.4143  1.1384
  154SAPE  C21217109   6.157   2.889   7.768  0.1536 -0.3184 -0.0799
  154SAPE  H12R17110   6.113   2.852   7.862  1.2489 -3.2486 -0.6136
  154SAPE  C21317111   6.247   3.008   7.798  0.1324  0.1889  0.0082
  154SAPE  H13R17112   6.189   3.102   7.805  0.9236  0.6365  0.7514
  154SAPE  H13S17113   6.325   3.040   7.725  1.2182  1.8128  1.7910
  154SAPE  C21417114   6.314   2.993   7.929 -0.1285  0.6377 -0.1997
  154SAPE  H14R17115   6.423   3.006   7.923  0.3435 -0.9474  2.7772
  154SAPE  C21517116   6.265   2.984   8.051  0.0878  0.2588  0.5709
  154SAPE  H15R17117   6.337   2.959   8.131  2.1361  1.2162 -0.8918
  154SAPE  C21617118   6.124   2.987   8.094  0.0062  0.0506  0.3358
  154SAPE  H16R17119   6.057   3.012   8.008  0.6925 -0.3957 -0.3488
  154SAPE  H16S17120   6.119   3.058   8.179 -0.3133 -2.6520  2.7298
  154SAPE  C21717121   6.091   2.848   8.150  0.4615 -0.5816 -0.1600
  154SAPE  H17R17122   6.169   2.829   8.227 -1.2842 -1.4477  1.5013
  154SAPE  H17S17123   6.114   2.769   8.077  1.5086 -2.3551  1.9587
  154SAPE  C21817124   5.953   2.828   8.204  0.5631 -0.1785 -0.1590
  154SAPE  H18R17125   5.887   2.883   8.134  2.2210  1.0183 -0.8533
  154SAPE  H18S17126   5.928   2.885   8.296 -0.3389 -0.9681  0.0911
  154SAPE  C21917127   5.905   2.685   8.213 -0.0150 -0.1602 -0.2884
  154SAPE  H19R17128   5.969   2.622   8.278  1.0502  1.8828  0.7160
  154SAPE  H19S17129   5.922   2.646   8.110 -1.5675 -0.0230 -0.6229
  154SAPE  C22017130   5.766   2.651   8.268  0.3598 -0.4593 -0.2059
  154SAPE  H20R17131   5.767   2.639   8.379 -0.6555  1.7675  0.1003
  154SAPE  H20S17132   5.739   2.555   8.220  0.4119  0.3948 -2.0360
  154SAPE  H20T17133   5.692   2.729   8.240  0.3651  0.0351  1.0921
  154SAPE   C3317134   6.945   2.708   7.130 -0.0066 -0.2770  0.0303
  154SAPE   H3X17135   7.042   2.722   7.079 -0.3125 -0.3328 -0.5781
  154SAPE   H3Y17136   6.930   2.598   7.138 -0.0797 -0.3507 -0.9367
  154SAPE   C3417137   6.952   2.760   7.276 -0.5433 -0.1110 -0.7414
  154SAPE   H4X17138   6.848   2.760   7.315  0.0295  2.7733  1.1188
  154SAPE   H4Y17139   6.995   2.863   7.272  0.0944 -0.2020  1.7879
  154SAPE   C3517140   7.035   2.674   7.375 -0.4284 -0.2462 -0.2470
  154SAPE   H5X17141   7.142   2.671   7.345 -0.0818 -0.0772  0.9315
  154SAPE   H5Y17142   6.992   2.572   7.374  1.3864 -1.0498 -1.0153
  154SAPE   C3617143   7.021   2.730   7.516  0.1338 -0.1344 -0.3760
  154SAPE   H6X17144   6.913   2.730   7.540  0.9080 -0.2212  4.0194
  154SAPE   H6Y17145   7.050   2.836   7.534  0.4809 -0.1827 -0.6403
  154SAPE   C3717146   7.104   2.650   7.617 -0.8275  0.3447 -0.4766
  154SAPE   H7X17147   7.209   2.658   7.581 -0.3289  0.2876  0.9243
  154SAPE   H7Y17148   7.070   2.544   7.625  2.2789 -0.7407 -0.4968
  154SAPE   C3817149   7.091   2.724   7.749  0.0005 -0.0063 -0.9574
  154SAPE   H8X17150   6.985   2.723   7.783  0.2033  1.9610 -0.1253
  154SAPE   H8Y17151   7.130   2.827   7.738 -0.6305  0.8201  3.1207
  154SAPE   C3917152   7.163   2.646   7.867 -0.3391 -0.4119  0.0282
  154SAPE   H9X17153   7.262   2.612   7.830 -2.0050 -1.6682 -3.7785
  154SAPE   H9Y17154   7.096   2.560   7.888 -2.0293  1.0966  1.1177
  154SAPE  C31017155   7.182   2.720   7.996  0.5240 -0.2558  0.1386
  154SAPE  H10X17156   7.084   2.733   8.047 -0.5201 -2.4004 -1.1890
  154SAPE  H10Y17157   7.222   2.816   7.957 -0.5774  0.4784  0.7457
  154SAPE  C31117158   7.289   2.680   8.109  0.0341 -0.0950  0.0537
  154SAPE  H11X17159   7.377   2.623   8.072  0.0839 -2.0162  2.8827
  154SAPE  H11Y17160   7.233   2.611   8.175 -2.4428  1.9714  0.3077
  154SAPE  C31217161   7.344   2.801   8.194  0.1975 -0.3158  0.6453
  154SAPE  H12X17162   7.268   2.856   8.254  0.7444  0.1207  0.9464
  154SAPE  H12Y17163   7.384   2.879   8.126  0.0150 -0.1927  0.6778
  154SAPE  C31317164   7.454   2.751   8.286 -0.3906  0.4363 -0.4977
  154SAPE  H13X17165   7.551   2.769   8.235  1.2643  2.1754  2.8734
  154SAPE  H13Y17166   7.443   2.642   8.306 -0.4708  0.5933  0.3546
  154SAPE  C31417167   7.463   2.827   8.423  0.5961  0.3605  0.6287
  154SAPE  H14X17168   7.376   2.811   8.490  0.4925  0.5311  0.5326
  154SAPE  H14Y17169   7.478   2.934   8.397 -0.2673  0.3870  0.2051
  154SAPE  C31517170   7.590   2.787   8.492 -0.3770  0.1868 -0.1661
  154SAPE  H15X17171   7.673   2.800   8.420  1.1732 -0.0088  1.5175
  154SAPE  H15Y17172   7.579   2.679   8.513  0.8259  0.2052  0.6634
  154SAPE  C31617173   7.622   2.879   8.608  0.7612  0.4665 -0.3650
  154SAPE  H16X17174   7.545   2.882   8.688  1.8494 -0.7117  0.7436
  154SAPE  H16Y17175   7.615   2.982   8.566  0.0368 -0.0193 -1.4969
  154SAPE  C31717176   7.761   2.847   8.672 -0.0409 -0.3369  0.0716
  154SAPE  H17X17177   7.786   2.917   8.754  2.2704 -1.4887  0.4375
  154SAPE  H17Y17178   7.840   2.867   8.597 -1.2274  1.5732 -0.7175
  154SAPE  C31817179   7.759   2.702   8.720 -0.2066 -0.4232  0.3270
  154SAPE  H18X17180   7.847   2.675   8.781 -0.8767  0.9687  1.9987
  154SAPE  H18Y17181   7.748   2.635   8.632  0.7220  2.7258 -2.4212
  154SAPE  H18Z17182   7.665   2.690   8.778 -1.1430  0.0796 -1.0309
  155SAPE     N17183   4.507   4.093   6.301 -0.4863  0.1723  0.1159
  155SAPE   HN117184   4.524   4.117   6.201  0.8014 -2.9804 -0.5350
  155SAPE   HN217185   4.592   4.120   6.354 -0.0137  1.9395 -1.4183
  155SAPE   HN317186   4.494   3.990   6.303 -1.7078  0.3178  1.6160
  155SAPE   C1217187   4.382   4.169   6.335 -1.1351  0.0130 -0.7685
  155SAPE  H12A17188   4.385   4.275   6.303  0.4163  0.9287  2.0937
  155SAPE  H12B17189   4.387   4.178   6.445 -1.6420  0.1671 -0.7562
  155SAPE   C1117190   4.250   4.090   6.309 -0.0597  0.4864  0.5656
  155SAPE  H11A17191   4.251   4.011   6.386  1.1554  1.4949  1.6204
  155SAPE  H11B17192   4.244   4.054   6.204 -1.7514  1.3231  0.3404
  155SAPE     P17193   4.067   4.215   6.455  0.9642 -0.4838  0.2722
  155SAPE   O1317194   4.054   4.363   6.453  0.4954  0.3647  0.0076
  155SAPE   O1417195   3.946   4.136   6.459 -0.0585 -0.2764  0.3378
  155SAPE   O1217196   4.134   4.180   6.323 -0.1164  0.0277  0.0965
  155SAPE   O1117197   4.170   4.172   6.563  1.2548  1.0314  0.3611
  155SAPE    C117198   4.212   4.256   6.670  0.4391 -0.2449  0.0049
  155SAPE    HA17199   4.320   4.279   6.662 -0.1957  2.3405 -2.9510
  155SAPE    HB17200   4.153   4.350   6.674 -0.3015 -0.5548 -2.3361
  155SAPE    C217201   4.192   4.190   6.809 -0.2348  0.1174  0.5315
  155SAPE    HS17202   4.247   4.094   6.795  1.0755  0.7327  1.2708
  155SAPE   O2117203   4.052   4.189   6.832  0.2771  0.0261  0.0030
  155SAPE   C2117204   4.020   4.076   6.900  0.9592  0.2409  1.0504
  155SAPE   O2217205   4.103   3.997   6.937 -0.2347  0.0726 -0.2307
  155SAPE   C2217206   3.870   4.059   6.930 -0.6460  0.4001  0.0806
  155SAPE   H2R17207   3.823   4.057   6.830  0.5482 -0.7201 -0.4884
  155SAPE   H2S17208   3.867   3.959   6.978  0.2459 -0.3477 -1.3446
  155SAPE    C317209   4.269   4.274   6.915 -0.6676  0.2945 -0.0820
  155SAPE    HX17210   4.241   4.382   6.910  0.7757  0.6861 -0.3436
  155SAPE    HY17211   4.378   4.268   6.891 -0.6369 -2.7112  0.4704
  155SAPE   O3117212   4.243   4.228   7.046 -0.3037 -0.5798 -0.3593
  155SAPE   C3117213   4.327   4.141   7.095 -0.5371 -0.3253  0.4404
  155SAPE   O3217214   4.428   4.088   7.039 -0.4477  0.1037 -0.3921
  155SAPE   C3217215   4.277   4.094   7.233 -0.0716  0.2345 -0.1363
  155SAPE   H2X17216   4.176   4.141   7.242 -0.5634 -0.7973 -0.1067
  155SAPE   H2Y17217   4.354   4.131   7.303 -1.4772  1.1402  0.9869
  155SAPE   C2317218   3.806   4.175   7.018  0.0344  0.4377 -0.1552
  155SAPE   H3R17219   3.696   4.165   7.020  0.1990 -1.8668  0.0859
  155SAPE   H3S17220   3.836   4.265   6.959 -1.6955  0.4898 -1.0095
  155SAPE   C2417221   3.850   4.143   7.163  0.2144 -0.0117  0.1599
  155SAPE   H4R17222   3.957   4.169   7.177  0.3617  0.0709 -1.0067
  155SAPE   H4S17223   3.841   4.033   7.172  1.4623 -0.1093  0.3864
  155SAPE   C2517224   3.764   4.229   7.254 -0.1714  0.2356  0.0388
  155SAPE   H5R17225   3.707   4.312   7.210 -0.1625  0.0215 -0.3874
  155SAPE   C2617226   3.750   4.191   7.388 -0.1320 -0.4115  0.5009
  155SAPE   H6R17227   3.703   4.250   7.467  0.5760  1.1283 -0.1943
  155SAPE   C2717228   3.830   4.084   7.460  0.2461  0.3833 -0.5994
  155SAPE   H7R17229   3.824   4.099   7.570 -1.8797  0.7473 -0.7056
  155SAPE   H7S17230   3.937   4.103   7.439  0.3963 -1.3624 -1.5647
  155SAPE   C2817231   3.788   3.943   7.433  0.7996  0.0684  0.3517
  155SAPE   H8R17232   3.793   3.914   7.327  1.6446  1.7979 -0.1135
  155SAPE   C2917233   3.732   3.859   7.519  0.2066  0.1222 -0.4023
  155SAPE   H9R17234   3.719   3.752   7.494  3.3351 -1.0308  2.2072
  155SAPE  C21017235   3.700   3.900   7.668  0.3053  0.2469  1.0503
  155SAPE  H10R17236   3.619   3.828   7.691  0.2476 -0.1731 -0.3617
  155SAPE  H10S17237   3.664   4.005   7.675  2.4849  0.9335  3.3090
  155SAPE  C21117238   3.806   3.878   7.773 -0.4353 -0.9300  0.2492
  155SAPE  H11R17239   3.893   3.820   7.739  0.2864  1.2601 -1.9593
  155SAPE  C21217240   3.810   3.950   7.887  1.0377 -0.2939 -0.3298
  155SAPE  H12R17241   3.886   3.931   7.964  0.0625  1.7324  1.2507
  155SAPE  C21317242   3.715   4.053   7.935 -0.0024 -0.3228 -0.0917
  155SAPE  H13R17243   3.640   4.080   7.858  2.3289  1.3170 -1.9595
  155SAPE  H13S17244   3.763   4.153   7.949  0.4210 -0.4904 -0.3128
  155SAPE  C21417245   3.643   4.020   8.061  0.3950  0.5518 -1.3329
  155SAPE  H14R17246   3.535   4.005   8.047  0.4296 -3.1012  1.0306
  155SAPE  C21517247   3.685   4.030   8.194 -0.6516  0.3688  0.3716
  155SAPE  H15R17248   3.615   4.006   8.275 -2.0888 -3.2961 -1.6939
  155SAPE  C21617249   3.828   4.052   8.238  0.1339  0.2886 -0.1383
  155SAPE  H16R17250   3.889   4.089   8.153 -0.6901 -2.1279 -1.8984
  155SAPE  H16S17251   3.864   3.954   8.276 -0.4326 -0.0802 -0.5388
  155SAPE  C21717252   3.845   4.143   8.370 -0.0893 -0.0282 -0.8486
  155SAPE  H17R17253   3.760   4.121   8.437  0.0910 -0.9485 -0.9109
  155SAPE  H17S17254   3.838   4.248   8.335  0.1080  0.3171  0.1414
  155SAPE  C21817255   3.970   4.101   8.456  0.2997  0.2895 -0.4529
  155SAPE  H18R17256   4.057   4.143   8.400 -1.0466  2.0877 -1.3217
  155SAPE  H18S17257   3.979   3.991   8.459 -0.2088  0.2287 -0.9106
  155SAPE  C21917258   3.976   4.165   8.595 -0.0817 -0.5074  0.7124
  155SAPE  H19R17259   3.896   4.130   8.665  1.0588 -1.3055  1.6580
  155SAPE  H19S17260   3.971   4.276   8.594  1.5561 -0.3612  2.5861
  155SAPE  C22017261   4.117   4.151   8.653 -0.7507  0.4410 -1.1096
  155SAPE  H20R17262   4.157   4.047   8.658  1.2198  1.2062  0.5137
  155SAPE  H20S17263   4.126   4.191   8.756 -1.8643 -2.0172  0.0131
  155SAPE  H20T17264   4.189   4.212   8.593  0.2281  0.6484  0.2154
  155SAPE   C3317265   4.267   3.936   7.244  0.9474 -0.3111 -0.3571
  155SAPE   H3X17266   4.366   3.885   7.236  0.3402 -1.9424  1.8457
  155SAPE   H3Y17267   4.198   3.920   7.159  0.5434  3.7929 -1.0497
  155SAPE   C3417268   4.205   3.875   7.370  0.4139 -0.2916  0.1877
  155SAPE   H4X17269   4.174   3.772   7.341 -1.4850  0.5407 -0.9614
  155SAPE   H4Y17270   4.115   3.940   7.371 -0.6619 -1.6803 -1.0552
  155SAPE   C3517271   4.290   3.881   7.496  0.0442  0.4123  0.3012
  155SAPE   H5X17272   4.300   3.988   7.522 -2.1310  0.4866  1.0768
  155SAPE   H5Y17273   4.390   3.846   7.462  0.2183  2.3386 -1.3077
  155SAPE   C3617274   4.240   3.813   7.618 -0.0466  0.8239 -0.3435
  155SAPE   H6X17275   4.292   3.716   7.635 -0.7904  0.6955  1.5137
  155SAPE   H6Y17276   4.130   3.797   7.607 -0.0034 -0.1052  0.4457
  155SAPE   C3717277   4.262   3.887   7.748  0.2304  0.0569 -0.2859
  155SAPE   H7X17278   4.205   3.983   7.753 -0.1082 -0.2040  1.1705
  155SAPE   H7Y17279   4.367   3.917   7.768  0.3666 -1.7208  1.9749
  155SAPE   C3817280   4.229   3.804   7.870 -0.0823 -0.4153  0.1591
  155SAPE   H8X17281   4.281   3.706   7.866 -0.6782 -0.8966  2.5022
  155SAPE   H8Y17282   4.120   3.784   7.878 -0.0753  0.1414  2.4420
  155SAPE   C3917283   4.265   3.872   8.006  0.4690 -0.0767 -0.3337
  155SAPE   H9X17284   4.267   3.983   8.000  2.0932  0.0017  0.9115
  155SAPE   H9Y17285   4.367   3.837   8.033  0.3124  0.3871  0.9321
  155SAPE  C31017286   4.168   3.838   8.118  0.3872  0.0467  0.1102
  155SAPE  H10X17287   4.144   3.730   8.112  1.5900 -0.1675 -1.7255
  155SAPE  H10Y17288   4.073   3.889   8.092  0.1983 -0.9809 -1.3421
  155SAPE  C31117289   4.205   3.894   8.256  0.1406 -0.2148  0.7014
  155SAPE  H11X17290   4.113   3.880   8.317 -1.4338  0.6562 -1.3398
  155SAPE  H11Y17291   4.234   4.000   8.244  0.1270 -0.3454 -0.6485
  155SAPE  C31217292   4.315   3.815   8.328  0.0979  0.3197  0.0365
  155SAPE  H12X17293   4.404   3.856   8.276 -0.6776  2.7189  0.5016
  155SAPE  H12Y17294   4.293   3.707   8.315  0.1304  0.4648 -1.2868
  155SAPE  C31317295   4.343   3.845   8.480  0.2128  0.3303  0.4367
  155SAPE  H13X17296   4.249   3.831   8.538 -0.0659 -0.7695 -0.2419
  155SAPE  H13Y17297   4.375   3.951   8.482  0.1466  0.3736 -0.5871
  155SAPE  C31417298   4.447   3.749   8.544  0.0171 -0.2806 -0.0124
  155SAPE  H14X17299   4.538   3.759   8.481 -0.2468  0.2503 -0.3169
  155SAPE  H14Y17300   4.402   3.649   8.524  1.8006 -0.9973 -0.5896
  155SAPE  C31517301   4.486   3.775   8.693 -0.4257  0.1913  0.7177
  155SAPE  H15X17302   4.546   3.689   8.727 -0.8344  0.1956  1.4597
  155SAPE  H15Y17303   4.394   3.776   8.754 -1.6397 -1.4062 -0.9761
  155SAPE  C31617304   4.571   3.906   8.698  0.7799  0.0077 -0.3935
  155SAPE  H16X17305   4.514   3.997   8.669 -2.3793 -0.9161  2.2811
  155SAPE  H16Y17306   4.653   3.893   8.624  1.3672  0.7790  0.0982
  155SAPE  C31717307   4.625   3.937   8.841  0.3778 -0.5230 -0.0119
  155SAPE  H17X17308   4.546   3.955   8.917  0.7991  1.1546  0.0620
  155SAPE  H17Y17309   4.692   4.026   8.832  1.5926 -1.1465  2.1315
  155SAPE  C31817310   4.720   3.840   8.899 -1.1465  0.0566  0.3993
  155SAPE  H18X17311   4.811   3.821   8.838 -0.7440  0.3411  0.9028
  155SAPE  H18Y17312   4.666   3.743   8.907 -1.5558  0.4054  2.4063
  155SAPE  H18Z17313   4.761   3.868   8.999  1.6986 -1.3998 -0.2626
  156SAPE     N17314   4.623   0.798   6.344  0.0813  0.1665  0.4416
  156SAPE   HN117315   4.622   0.779   6.242  0.7000 -0.8928  0.6093
  156SAPE   HN217316   4.649   0.898   6.355  0.7920  0.2369 -1.5695
  156SAPE   HN317317   4.700   0.739   6.382  2.1198  2.1278 -0.4463
  156SAPE   C1217318   4.478   0.763   6.382 -0.4282 -0.6000  0.2087
  156SAPE  H12A17319   4.404   0.844   6.362  2.2356  1.9949  0.1935
  156SAPE  H12B17320   4.481   0.756   6.493 -0.7112 -3.5900  0.1131
  156SAPE   C1117321   4.421   0.635   6.309  0.0136  0.6200  0.3705
  156SAPE  H11A17322   4.333   0.610   6.371 -0.8459 -0.7914 -1.3434
  156SAPE  H11B17323   4.489   0.548   6.301  0.6906  0.8705  2.7169
  156SAPE     P17324   4.241   0.731   6.125  0.5323  0.0367 -0.4938
  156SAPE   O1317325   4.283   0.857   6.073  0.3766  0.1356 -0.4209
  156SAPE   O1417326   4.166   0.649   6.031 -0.2837  0.1652 -0.6070
  156SAPE   O1217327   4.379   0.659   6.170 -0.4668  0.5244 -0.0881
  156SAPE   O1117328   4.163   0.753   6.268  0.4275  0.6876  0.3513
  156SAPE    C117329   4.060   0.662   6.302  0.8053 -0.2738  0.1036
  156SAPE    HA17330   3.984   0.665   6.220  1.0599 -0.1215 -0.1284
  156SAPE    HB17331   4.090   0.556   6.313 -2.1353 -1.1794  0.3999
  156SAPE    C217332   3.995   0.695   6.443 -0.1042 -0.3646  0.2403
  156SAPE    HS17333   3.958   0.799   6.441 -0.4971 -0.4873  1.0630
  156SAPE   O2117334   4.082   0.663   6.552 -0.5459  0.5722 -0.4167
  156SAPE   C2117335   4.161   0.759   6.592  0.3400 -0.4030  0.1005
  156SAPE   O2217336   4.163   0.870   6.541  0.0128 -0.0198 -0.2745
  156SAPE   C2217337   4.252   0.727   6.716  0.3316  0.2038 -0.4326
  156SAPE   H2R17338   4.214   0.641   6.775  1.5965 -0.0943 -0.0342
  156SAPE   H2S17339   4.345   0.695   6.665 -0.5292  0.7241 -2.4376
  156SAPE    C317340   3.859   0.617   6.457  0.2955 -0.1764  0.0413
  156SAPE    HX17341   3.897   0.514   6.443 -1.2410 -0.7624  0.0448
  156SAPE    HY17342   3.790   0.632   6.371  0.2521 -0.7491 -0.0279
  156SAPE   O3117343   3.803   0.655   6.586 -0.1377  0.1061 -0.1810
  156SAPE   C3117344   3.771   0.546   6.659 -0.0914 -0.2947  0.0670
  156SAPE   O3217345   3.793   0.429   6.622  0.1319 -0.7246 -0.5873
  156SAPE   C3217346   3.683   0.589   6.780 -0.3621  0.3330 -0.4546
  156SAPE   H2X17347   3.612   0.672   6.761 -0.5625 -0.1271 -1.7780
  156SAPE   H2Y17348   3.749   0.618   6.865 -1.8028 -0.6029  1.0377
  156SAPE   C2317349   4.280   0.849   6.815  0.4686  0.1870  0.1239
  156SAPE   H3R17350   4.180   0.877   6.856 -0.1286  0.1111 -1.2302
  156SAPE   H3S17351   4.314   0.934   6.753 -1.3322  0.4902 -0.5243
  156SAPE   C2417352   4.386   0.830   6.926  0.2998  0.3018  0.6865
  156SAPE   H4R17353   4.481   0.825   6.868 -1.1170  1.5360 -1.9183
  156SAPE   H4S17354   4.371   0.731   6.975 -0.5682 -0.5285 -1.1455
  156SAPE   C2517355   4.376   0.939   7.029  0.1714  0.0728  0.9232
  156SAPE   H5R17356   4.360   1.035   6.978 -0.3869 -0.9129 -0.8545
  156SAPE   C2617357   4.369   0.934   7.165 -0.2646  0.0557 -0.2917
  156SAPE   H6R17358   4.373   1.024   7.228  2.0483 -1.9754  2.8161
  156SAPE   C2717359   4.378   0.805   7.240 -0.2359 -0.7193 -0.1965
  156SAPE   H7R17360   4.369   0.720   7.168 -1.2357 -0.1791 -0.7381
  156SAPE   H7S17361   4.291   0.800   7.309 -1.0493 -2.2403 -1.2565
  156SAPE   C2817362   4.507   0.789   7.322 -0.1587 -0.0679 -0.2391
  156SAPE   H8R17363   4.604   0.760   7.277  1.3255  0.6422  2.2972
  156SAPE   C2917364   4.517   0.810   7.457  0.4583  1.2771  0.7776
  156SAPE   H9R17365   4.612   0.806   7.512 -0.2560  2.9189  2.2244
  156SAPE  C21017366   4.403   0.852   7.551  0.5651  0.2069  0.4702
  156SAPE  H10R17367   4.318   0.905   7.502  0.3828 -1.4406 -1.0793
  156SAPE  H10S17368   4.442   0.916   7.633  0.1191  2.4906 -0.9972
  156SAPE  C21117369   4.334   0.739   7.611  0.1188 -0.5064 -0.4602
  156SAPE  H11R17370   4.289   0.678   7.531  1.1113  1.4693 -2.6492
  156SAPE  C21217371   4.327   0.715   7.742 -0.5438  0.1576  0.1460
  156SAPE  H12R17372   4.264   0.627   7.765 -0.6237 -0.3984 -1.9651
  156SAPE  C21317373   4.387   0.808   7.841 -0.2834 -0.2380 -0.2560
  156SAPE  H13R17374   4.362   0.910   7.806  1.3833  0.5515  0.7160
  156SAPE  H13S17375   4.497   0.805   7.852 -0.1056 -3.2968 -1.7344
  156SAPE  C21417376   4.330   0.800   7.982 -0.3048  0.5707  0.0278
  156SAPE  H14R17377   4.266   0.879   8.024 -1.9645 -1.1736  0.8862
  156SAPE  C21517378   4.354   0.693   8.059 -0.2633 -0.9857  0.2756
  156SAPE  H15R17379   4.307   0.677   8.157  0.4044 -0.2645  0.7223
  156SAPE  C21617380   4.445   0.578   8.030 -0.1215 -0.3028 -0.0119
  156SAPE  H16R17381   4.477   0.582   7.924 -0.3122  0.5264 -0.0433
  156SAPE  H16S17382   4.382   0.487   8.029 -0.1031 -0.3590 -2.2774
  156SAPE  C21717383   4.561   0.567   8.134  0.1776 -0.3307  0.4459
  156SAPE  H17R17384   4.641   0.637   8.100 -2.1878  1.8388 -0.9929
  156SAPE  H17S17385   4.589   0.459   8.128  2.0134  0.1104  0.3849
  156SAPE  C21817386   4.521   0.600   8.281 -0.3837 -0.0350  0.3249
  156SAPE  H18R17387   4.435   0.543   8.323 -0.5506 -0.0163  0.0186
  156SAPE  H18S17388   4.508   0.710   8.288  2.6664  0.3222  2.1878
  156SAPE  C21917389   4.650   0.578   8.372 -0.4443  0.2929 -0.2194
  156SAPE  H19R17390   4.728   0.641   8.325  0.3093 -1.1389 -0.9822
  156SAPE  H19S17391   4.681   0.471   8.382  0.5299  0.5714 -0.1441
  156SAPE  C22017392   4.652   0.628   8.515  0.0358 -0.4119 -0.4296
  156SAPE  H20R17393   4.622   0.735   8.516  2.1425  0.2214  0.0151
  156SAPE  H20S17394   4.758   0.621   8.546 -0.2609 -1.0952  0.4825
  156SAPE  H20T17395   4.585   0.573   8.585  0.8397  0.4772  1.1122
  156SAPE   C3317396   3.598   0.467   6.833  0.1286  0.2080  0.1148
  156SAPE   H3X17397   3.670   0.395   6.877 -0.2179 -1.3539 -1.7495
  156SAPE   H3Y17398   3.539   0.418   6.753  1.3377 -1.0349 -0.0491
  156SAPE   C3417399   3.496   0.518   6.948 -0.8828  0.6935 -0.3357
  156SAPE   H4X17400   3.424   0.441   6.982  1.8276 -0.8692  2.3776
  156SAPE   H4Y17401   3.441   0.608   6.914  0.2932  1.1713 -1.0622
  156SAPE   C3517402   3.566   0.547   7.077 -0.0776 -0.2082 -0.4260
  156SAPE   H5X17403   3.495   0.592   7.150 -0.5515 -1.7896  0.1316
  156SAPE   H5Y17404   3.651   0.619   7.075 -0.3948  0.3688  2.4469
  156SAPE   C3617405   3.626   0.418   7.140 -0.5465  0.0460  0.4131
  156SAPE   H6X17406   3.719   0.384   7.089  0.6491  4.0856 -0.5161
  156SAPE   H6Y17407   3.547   0.343   7.119  0.8844 -1.1244 -1.0777
  156SAPE   C3717408   3.660   0.420   7.294 -1.3702  0.0892  0.6392
  156SAPE   H7X17409   3.561   0.429   7.344 -0.8810  1.8258  1.3766
  156SAPE   H7Y17410   3.716   0.514   7.313 -0.3889 -0.7346  1.9788
  156SAPE   C3817411   3.728   0.294   7.339 -0.3559  0.8030  0.0349
  156SAPE   H8X17412   3.820   0.285   7.278 -0.7409 -0.6736 -0.3779
  156SAPE   H8Y17413   3.657   0.213   7.310  0.9690  0.0879 -1.3533
  156SAPE   C3917414   3.757   0.299   7.498  0.4983 -0.2331  0.3404
  156SAPE   H9X17415   3.666   0.275   7.557  0.1013 -2.1703 -0.9750
  156SAPE   H9Y17416   3.799   0.400   7.519 -2.1966  0.5781  2.3933
  156SAPE  C31017417   3.848   0.184   7.550  0.1812 -0.4450  0.1000
  156SAPE  H10X17418   3.861   0.190   7.660  1.7125 -4.5250  0.3197
  156SAPE  H10Y17419   3.951   0.190   7.509  0.7687 -0.6249  1.5066
  156SAPE  C31117420   3.791   0.037   7.535 -0.4236 -0.0734 -0.5566
  156SAPE  H11X17421   3.779   0.017   7.426  0.8859 -3.0188 -0.2725
  156SAPE  H11Y17422   3.695   0.037   7.591 -0.1453 -1.2916 -0.0547
  156SAPE  C31217423   3.890  -0.070   7.585  0.4894  0.0085 -0.2366
  156SAPE  H12X17424   3.986  -0.054   7.530 -0.5461 -0.7582 -2.3647
  156SAPE  H12Y17425   3.845  -0.167   7.556  0.4606 -0.3733  1.0277
  156SAPE  C31317426   3.906  -0.078   7.747 -0.0112  0.2812 -0.3548
  156SAPE  H13X17427   3.819  -0.133   7.788  1.4798 -0.1803  2.4081
  156SAPE  H13Y17428   3.899   0.022   7.794  0.2385  0.3374 -0.4344
  156SAPE  C31417429   4.036  -0.159   7.791  0.5828 -0.4021 -0.3887
  156SAPE  H14X17430   4.118  -0.085   7.781  1.5706 -0.9102  2.8028
  156SAPE  H14Y17431   4.038  -0.250   7.727 -1.0391 -2.2155  1.9366
  156SAPE  C31517432   4.032  -0.204   7.940 -0.2927 -0.0102  0.0996
  156SAPE  H15X17433   4.004  -0.119   8.006  2.2311  1.7844 -0.9664
  156SAPE  H15Y17434   4.139  -0.228   7.955  0.2558  2.0542 -0.1883
  156SAPE  C31617435   3.932  -0.318   7.969 -0.3417 -0.0386 -0.4072
  156SAPE  H16X17436   3.957  -0.403   7.902  2.0575 -1.2045  1.7829
  156SAPE  H16Y17437   3.834  -0.275   7.940  0.1899  0.5249 -1.4034
  156SAPE  C31717438   3.940  -0.360   8.113 -0.8788 -0.7276  0.5335
  156SAPE  H17X17439   3.874  -0.295   8.175 -1.1215  0.4908 -0.9506
  156SAPE  H17Y17440   4.047  -0.353   8.144 -0.8260  1.3200  0.0738
  156SAPE  C31817441   3.891  -0.500   8.133 -0.6484  0.7441 -0.1337
  156SAPE  H18X17442   3.974  -0.564   8.095 -0.7090  0.6566 -0.1179
  156SAPE  H18Y17443   3.798  -0.509   8.073 -0.6098  2.6520 -0.5541
  156SAPE  H18Z17444   3.871  -0.517   8.241  0.0468  1.9295  0.2036
  157SAPE     N17445   1.233   0.954   6.094 -0.7792 -0.3581 -0.2099
  157SAPE   HN117446   1.272   1.030   6.035 -0.8513  0.0553  0.2683
  157SAPE   HN217447   1.216   1.002   6.185  0.2624  2.5517 -1.4331
  157SAPE   HN317448   1.296   0.872   6.104  0.1411  0.1893 -1.3148
  157SAPE   C1217449   1.103   0.908   6.042 -0.3306  0.1305  1.1127
  157SAPE  H12A17450   1.104   0.889   5.932 -1.7327 -1.7415  1.3630
  157SAPE  H12B17451   1.024   0.980   6.072  0.2581  1.2831  0.0073
  157SAPE   C1117452   1.062   0.774   6.112  0.7149 -0.0593  0.4576
  157SAPE  H11A17453   1.134   0.698   6.077  0.9831  0.0897  0.6822
  157SAPE  H11B17454   0.963   0.740   6.075  1.9612 -3.1035 -0.3344
  157SAPE     P17455   1.130   0.687   6.354  0.5420 -0.0509  0.0823
  157SAPE   O1317456   1.270   0.729   6.373  0.1739  0.1335 -0.6690
  157SAPE   O1417457   1.044   0.677   6.471  0.0314 -0.1009 -0.0837
  157SAPE   O1217458   1.061   0.789   6.256  0.3181 -0.4679  0.5207
  157SAPE   O1117459   1.132   0.552   6.276 -0.2752  0.0899 -0.1557
  157SAPE    C117460   1.246   0.483   6.237 -0.2627 -0.9307 -0.0955
  157SAPE    HA17461   1.226   0.439   6.137  0.8334  2.1825 -1.8222
  157SAPE    HB17462   1.337   0.545   6.221 -0.0787 -0.6810  1.7988
  157SAPE    C217463   1.302   0.368   6.329 -0.2446 -0.0452  0.0269
  157SAPE    HS17464   1.239   0.277   6.319 -0.0619 -0.3700  1.5397
  157SAPE   O2117465   1.309   0.421   6.466 -0.0157  0.2172 -0.2286
  157SAPE   C2117466   1.206   0.396   6.540 -0.1761  0.3370 -0.7320
  157SAPE   O2217467   1.109   0.325   6.512 -0.0442 -0.0378  0.4501
  157SAPE   C2217468   1.235   0.454   6.682 -0.1226  0.0863  0.1306
  157SAPE   H2R17469   1.345   0.449   6.701 -0.1332  1.7327  0.8372
  157SAPE   H2S17470   1.204   0.561   6.683  0.7313  0.3809  2.0912
  157SAPE    C317471   1.452   0.326   6.290  1.0288 -0.1685  0.1259
  157SAPE    HX17472   1.508   0.421   6.307 -0.0071  0.4158  0.3825
  157SAPE    HY17473   1.462   0.301   6.182  2.2173  0.7398 -0.0055
  157SAPE   O3117474   1.505   0.211   6.361  0.7218 -0.0200  0.2675
  157SAPE   C3117475   1.555   0.247   6.479 -0.8212 -0.2454  0.8808
  157SAPE   O3217476   1.573   0.357   6.530  0.4449 -0.5264  0.3426
  157SAPE   C3217477   1.598   0.125   6.550 -0.1282 -0.0600 -0.6736
  157SAPE   H2X17478   1.709   0.116   6.548 -0.2826 -3.4874  0.0676
  157SAPE   H2Y17479   1.565   0.032   6.499  1.4311 -0.7766 -0.4380
  157SAPE   C2317480   1.152   0.393   6.787 -0.3445  0.1888 -0.8212
  157SAPE   H3R17481   1.116   0.290   6.765  0.7456 -0.0141 -1.7628
  157SAPE   H3S17482   1.062   0.457   6.801 -0.8650 -0.6895 -0.0113
  157SAPE   C2417483   1.237   0.375   6.912 -0.4444  0.4505 -0.8124
  157SAPE   H4R17484   1.259   0.477   6.951 -0.5993 -0.4295  1.8048
  157SAPE   H4S17485   1.333   0.325   6.886 -1.4091 -2.7975  1.3117
  157SAPE   C2517486   1.169   0.311   7.035  0.5374  0.1921  0.0174
  157SAPE   H5R17487   1.091   0.238   7.010  0.6825 -0.1873  0.6699
  157SAPE   C2617488   1.166   0.356   7.163 -0.4571  0.3566  0.1280
  157SAPE   H6R17489   1.110   0.286   7.227 -0.2987  0.1605  0.0495
  157SAPE   C2717490   1.234   0.477   7.221  0.2765 -0.0916 -0.7739
  157SAPE   H7R17491   1.153   0.541   7.260 -1.5096 -0.9240 -2.8601
  157SAPE   H7S17492   1.301   0.523   7.144  0.3405  0.7971 -0.1986
  157SAPE   C2817493   1.333   0.422   7.323 -0.5631  0.4899 -0.0430
  157SAPE   H8R17494   1.417   0.368   7.276 -1.4203 -1.6963  0.7798
  157SAPE   C2917495   1.331   0.437   7.455  0.3276 -0.0125 -0.4867
  157SAPE   H9R17496   1.409   0.390   7.517 -2.1083  0.1444  3.0287
  157SAPE  C21017497   1.223   0.507   7.538 -0.3638 -0.1476  0.5676
  157SAPE  H10R17498   1.124   0.519   7.490  0.0385 -0.0610 -0.2661
  157SAPE  H10S17499   1.259   0.603   7.583  0.0704 -0.8227  1.7088
  157SAPE  C21117500   1.198   0.419   7.658 -0.3359  0.8877  0.0101
  157SAPE  H11R17501   1.156   0.320   7.634  0.6124  0.3404  0.5636
  157SAPE  C21217502   1.254   0.435   7.782 -0.4428  0.2163  0.1121
  157SAPE  H12R17503   1.234   0.353   7.852  1.5523 -0.8560 -0.4970
  157SAPE  C21317504   1.343   0.548   7.833  0.4038 -0.3829 -0.7685
  157SAPE  H13R17505   1.275   0.630   7.866 -0.0156 -0.9877 -0.1096
  157SAPE  H13S17506   1.398   0.603   7.754 -0.8184 -0.5942 -1.8062
  157SAPE  C21417507   1.441   0.508   7.946 -0.0813  0.1039  0.7339
  157SAPE  H14R17508   1.545   0.486   7.917  0.1625 -0.0976  1.7354
  157SAPE  C21517509   1.422   0.485   8.078  0.2207  0.0769  0.3085
  157SAPE  H15R17510   1.503   0.446   8.142  0.8784  0.8152 -0.0668
  157SAPE  C21617511   1.287   0.493   8.150 -0.3259 -0.1904 -0.7382
  157SAPE  H16R17512   1.234   0.397   8.135 -0.3313 -0.0974 -1.3197
  157SAPE  H16S17513   1.229   0.580   8.112  1.7661  1.1223 -1.0745
  157SAPE  C21717514   1.314   0.517   8.302 -0.4960  0.0303 -0.1764
  157SAPE  H17R17515   1.341   0.624   8.306 -1.4642  0.3012 -0.4963
  157SAPE  H17S17516   1.399   0.461   8.345 -1.1097 -0.8344 -0.0557
  157SAPE  C21817517   1.196   0.498   8.392  0.7066  0.6240  0.0981
  157SAPE  H18R17518   1.225   0.531   8.494 -0.0294 -0.3069  0.6283
  157SAPE  H18S17519   1.172   0.389   8.394  0.5957  0.6289 -0.5971
  157SAPE  C21917520   1.072   0.585   8.360 -0.4402 -0.0063  0.1336
  157SAPE  H19R17521   0.983   0.544   8.413  1.8187 -2.8283  2.0558
  157SAPE  H19S17522   1.062   0.577   8.250  1.9116 -0.2212 -0.1142
  157SAPE  C22017523   1.091   0.738   8.396  0.0742  0.4111 -0.1266
  157SAPE  H20R17524   1.143   0.744   8.494  0.5175 -0.9182 -0.2675
  157SAPE  H20S17525   0.992   0.789   8.402 -0.1305 -0.0158  0.1136
  157SAPE  H20T17526   1.158   0.782   8.319  0.4056 -0.3543 -0.2797
  157SAPE   C3317527   1.558   0.126   6.703 -0.3752  0.1791 -0.3039
  157SAPE   H3X17528   1.450   0.153   6.703 -0.3349  0.5762 -2.7122
  157SAPE   H3Y17529   1.614   0.203   6.760  2.3711 -2.5473  0.9115
  157SAPE   C3417530   1.565  -0.024   6.754 -0.2678  0.1109 -0.1591
  157SAPE   H4X17531   1.659  -0.074   6.722 -1.2238 -0.0100 -3.0122
  157SAPE   H4Y17532   1.483  -0.075   6.700  1.8249 -3.0532 -0.5963
  157SAPE   C3517533   1.558  -0.025   6.913  0.0233  0.2168 -0.5845
  157SAPE   H5X17534   1.452  -0.048   6.939 -0.6527  2.2204 -1.3899
  157SAPE   H5Y17535   1.572   0.080   6.947  3.6448 -0.9822  2.2546
  157SAPE   C3617536   1.677  -0.099   6.980 -0.3369  0.3935 -0.1051
  157SAPE   H6X17537   1.774  -0.067   6.935  1.3059 -1.9649  1.4751
  157SAPE   H6Y17538   1.657  -0.205   6.953 -0.2561 -0.1018  1.6632
  157SAPE   C3717539   1.682  -0.101   7.130  0.4008  0.6815  0.0993
  157SAPE   H7X17540   1.739  -0.188   7.168  0.4420  0.7640  0.2276
  157SAPE   H7Y17541   1.578  -0.116   7.167 -0.3547  1.8172 -1.4890
  157SAPE   C3817542   1.746   0.022   7.200 -0.5701  0.2181  0.3750
  157SAPE   H8X17543   1.711   0.115   7.149  2.5837  0.1517 -2.2440
  157SAPE   H8Y17544   1.854   0.012   7.177 -0.9676  1.4539 -2.5038
  157SAPE   C3917545   1.722   0.017   7.349 -0.3835 -0.0361  0.3819
  157SAPE   H9X17546   1.765  -0.075   7.395 -0.2777 -0.3790 -0.3906
  157SAPE   H9Y17547   1.613   0.016   7.371 -0.9198 -1.0572 -2.0201
  157SAPE  C31017548   1.783   0.146   7.408 -0.1777  0.1110  0.3277
  157SAPE  H10X17549   1.712   0.231   7.401 -0.2813  0.1540  1.5823
  157SAPE  H10Y17550   1.868   0.180   7.346 -0.8756  4.0728  1.2561
  157SAPE  C31117551   1.819   0.128   7.555 -0.1213  0.5239 -0.3976
  157SAPE  H11X17552   1.912   0.069   7.563  0.5197  1.5828  0.3063
  157SAPE  H11Y17553   1.732   0.080   7.604 -1.1364  2.4643 -0.1658
  157SAPE  C31217554   1.856   0.258   7.625  0.2134 -0.4423  0.3489
  157SAPE  H12X17555   1.758   0.300   7.657 -0.4219 -1.4736 -0.1844
  157SAPE  H12Y17556   1.905   0.325   7.551 -3.9262  0.9066 -1.4794
  157SAPE  C31317557   1.948   0.242   7.743  0.2804 -0.2847 -0.1268
  157SAPE  H13X17558   2.039   0.206   7.690  0.6331 -0.4734  0.5853
  157SAPE  H13Y17559   1.908   0.166   7.814  1.2116  1.4701  2.4259
  157SAPE  C31417560   1.957   0.380   7.808  0.5047  0.9029  0.1403
  157SAPE  H14X17561   1.852   0.412   7.826  0.0439  0.1072 -1.0417
  157SAPE  H14Y17562   2.009   0.445   7.735  2.7878  0.2237  1.0857
  157SAPE  C31517563   2.035   0.375   7.946 -0.0489 -0.5859 -0.2157
  157SAPE  H15X17564   2.059   0.481   7.969 -1.8297  0.2326 -1.8576
  157SAPE  H15Y17565   2.127   0.318   7.921  1.0254  1.9098 -2.3973
  157SAPE  C31617566   1.953   0.311   8.063 -0.0560 -0.3234  0.0572
  157SAPE  H16X17567   2.037   0.301   8.136  1.1800  2.8875 -0.7440
  157SAPE  H16Y17568   1.922   0.210   8.028 -0.9726  0.0844 -0.3374
  157SAPE  C31717569   1.832   0.394   8.104  1.1983 -0.0451  0.0332
  157SAPE  H17X17570   1.781   0.331   8.180  2.0345 -0.2448  0.4436
  157SAPE  H17Y17571   1.769   0.415   8.015  0.2575  0.8762  0.9062
  157SAPE  C31817572   1.858   0.534   8.170 -0.6566  0.7438 -0.5987
  157SAPE  H18X17573   1.923   0.593   8.102 -0.0548  0.3098 -0.4119
  157SAPE  H18Y17574   1.912   0.521   8.266 -0.8577  1.6336 -0.3634
  157SAPE  H18Z17575   1.769   0.599   8.183 -1.6908 -0.9075  1.0829
  158SAPE     N17576   1.672   3.590   6.147 -0.4854 -0.5236  0.0370
  158SAPE   HN117577   1.604   3.668   6.135  0.2489  0.2437  0.7099
  158SAPE   HN217578   1.654   3.519   6.073  1.3138 -0.5008 -0.4644
  158SAPE   HN317579   1.645   3.541   6.235  1.4500 -0.8771  0.4686
  158SAPE   C1217580   1.815   3.637   6.144  0.5853  0.1655 -0.2602
  158SAPE  H12A17581   1.838   3.658   6.251  1.0880 -0.7078 -0.1836
  158SAPE  H12B17582   1.824   3.728   6.082  0.5130 -0.2672 -0.9176
  158SAPE   C1117583   1.926   3.541   6.099 -0.2635  0.7535  0.0731
  158SAPE  H11A17584   2.027   3.584   6.117  0.1874  0.2857 -1.2654
  158SAPE  H11B17585   1.926   3.538   5.988  2.8754 -0.0166 -0.0098
  158SAPE     P17586   2.021   3.361   6.264  0.3134 -0.1949  0.0759
  158SAPE   O1317587   2.143   3.316   6.196  0.1976 -0.5952  0.1304
  158SAPE   O1417588   2.047   3.464   6.368  0.1555 -0.0597  0.0592
  158SAPE   O1217589   1.910   3.411   6.155  0.5130  0.3681 -0.9329
  158SAPE   O1117590   1.965   3.235   6.340 -0.4376  0.3833  0.1235
  158SAPE    C117591   1.840   3.235   6.405  0.8240 -0.6086  0.2679
  158SAPE    HA17592   1.763   3.282   6.340 -0.0812 -1.6533  0.5482
  158SAPE    HB17593   1.800   3.132   6.407  0.7713 -0.5780  1.2301
  158SAPE    C217594   1.838   3.311   6.543  0.2338 -0.1989  0.2017
  158SAPE    HS17595   1.842   3.418   6.516 -0.5380 -0.0682  0.5687
  158SAPE   O2117596   1.942   3.259   6.624  0.4236  0.1977  0.1730
  158SAPE   C2117597   2.027   3.342   6.672  0.0929  0.0649 -0.3009
  158SAPE   O2217598   2.017   3.465   6.668 -0.0185 -0.0331 -0.2118
  158SAPE   C2217599   2.132   3.262   6.747  0.1512  0.9968 -0.2896
  158SAPE   H2R17600   2.088   3.221   6.840  3.3252  0.5966  1.1372
  158SAPE   H2S17601   2.159   3.176   6.682 -0.8123  2.4239 -2.7151
  158SAPE    C317602   1.690   3.281   6.609  0.0154 -0.1474  0.2258
  158SAPE    HX17603   1.681   3.170   6.615 -0.5729 -0.0876  0.4785
  158SAPE    HY17604   1.603   3.313   6.549 -1.4975  0.5878  2.7001
  158SAPE   O3117605   1.687   3.336   6.746 -0.0928  0.7084  0.3939
  158SAPE   C3117606   1.668   3.462   6.748  1.3226  0.3257 -0.3052
  158SAPE   O3217607   1.651   3.535   6.654 -0.7749 -0.3952  0.4556
  158SAPE   C3217608   1.702   3.508   6.894 -0.0672  1.0677  0.8878
  158SAPE   H2X17609   1.793   3.570   6.884 -0.2666  1.1333 -0.7898
  158SAPE   H2Y17610   1.724   3.419   6.957 -0.2669  0.2864 -0.1272
  158SAPE   C2317611   2.256   3.335   6.802  0.4282 -0.7559 -0.1358
  158SAPE   H3R17612   2.229   3.396   6.890  0.4255  0.1748 -0.7716
  158SAPE   H3S17613   2.281   3.409   6.724 -1.4129 -1.4219 -1.4458
  158SAPE   C2417614   2.373   3.243   6.842 -0.3204 -0.1740  0.1833
  158SAPE   H4R17615   2.400   3.170   6.763 -0.6003 -2.9499  2.4975
  158SAPE   H4S17616   2.353   3.176   6.929 -1.0375 -0.6418 -0.3300
  158SAPE   C2517617   2.490   3.335   6.865 -0.3769 -0.0985  0.7738
  158SAPE   H5R17618   2.538   3.385   6.780  0.5535  0.0522  1.3627
  158SAPE   C2617619   2.542   3.373   6.981 -0.3418  0.6222  0.0601
  158SAPE   H6R17620   2.623   3.447   6.981 -0.2752  0.5847  1.6833
  158SAPE   C2717621   2.515   3.302   7.105  0.4619 -0.4545 -0.3739
  158SAPE   H7R17622   2.614   3.271   7.146  0.0891  0.0510  0.9660
  158SAPE   H7S17623   2.465   3.204   7.089 -1.0613  0.3335 -0.5322
  158SAPE   C2817624   2.428   3.383   7.206 -0.7417 -0.3024  0.3260
  158SAPE   H8R17625   2.358   3.451   7.154 -1.9971 -1.1570  0.8539
  158SAPE   C2917626   2.445   3.382   7.339 -0.3380 -0.1398  0.1592
  158SAPE   H9R17627   2.382   3.444   7.404  0.0187 -0.0420  0.4126
  158SAPE  C21017628   2.545   3.303   7.412 -0.3748 -0.0949  0.3635
  158SAPE  H10R17629   2.610   3.379   7.460  0.2056  0.5142 -1.3307
  158SAPE  H10S17630   2.604   3.232   7.350  1.4258  0.9639  0.8189
  158SAPE  C21117631   2.473   3.222   7.516  0.0126 -0.3797 -0.7007
  158SAPE  H11R17632   2.399   3.157   7.467  0.7625 -2.1425  0.4239
  158SAPE  C21217633   2.489   3.233   7.650 -0.1304  0.1379  0.2848
  158SAPE  H12R17634   2.419   3.168   7.704 -1.3886 -0.1110 -1.5404
  158SAPE  C21317635   2.582   3.328   7.723  0.2181  0.3761 -0.2839
  158SAPE  H13R17636   2.544   3.432   7.717  0.5816  0.4111 -3.4925
  158SAPE  H13S17637   2.677   3.336   7.667  0.3096 -1.2493 -0.4182
  158SAPE  C21417638   2.611   3.270   7.862 -0.9345  0.8394 -0.4669
  158SAPE  H14R17639   2.690   3.194   7.857 -0.3088  1.4631 -0.3332
  158SAPE  C21517640   2.554   3.308   7.979  0.9228  0.3032  0.2495
  158SAPE  H15R17641   2.591   3.258   8.070 -0.8769 -1.2284  0.2014
  158SAPE  C21617642   2.446   3.414   8.004  0.3498 -0.2381 -0.1704
  158SAPE  H16R17643   2.346   3.381   8.040  1.3519 -2.2532  0.9743
  158SAPE  H16S17644   2.430   3.472   7.911 -0.7088  0.6653  0.5393
  158SAPE  C21717645   2.491   3.528   8.098  0.3795 -0.0813  0.5978
  158SAPE  H17R17646   2.588   3.573   8.067  0.1823  0.4185  0.6986
  158SAPE  H17S17647   2.515   3.486   8.198  2.0900  4.0589  2.1588
  158SAPE  C21817648   2.376   3.633   8.109 -0.0074 -0.1016 -0.8717
  158SAPE  H18R17649   2.287   3.582   8.152  0.6513  0.0294  0.7148
  158SAPE  H18S17650   2.349   3.667   8.007  0.0199  2.1772 -0.1710
  158SAPE  C21917651   2.426   3.749   8.197  0.0002 -0.4902 -0.1272
  158SAPE  H19R17652   2.534   3.764   8.173  0.3043 -1.5686  0.4666
  158SAPE  H19S17653   2.426   3.714   8.303  1.7166  0.7247  0.3139
  158SAPE  C22017654   2.344   3.874   8.188 -0.2098 -0.1211 -0.0026
  158SAPE  H20R17655   2.246   3.842   8.229  0.1790 -1.3858 -0.0071
  158SAPE  H20S17656   2.336   3.911   8.084  1.7060  0.2070 -0.0737
  158SAPE  H20T17657   2.391   3.953   8.250 -0.9229  1.1291 -1.0178
  158SAPE   C3317658   1.577   3.583   6.947  0.4307  0.2444  0.1506
  158SAPE   H3X17659   1.544   3.657   6.870 -1.9762 -0.1956  0.6699
  158SAPE   H3Y17660   1.618   3.636   7.035  2.2135  0.5613 -0.8355
  158SAPE   C3417661   1.454   3.501   6.991 -0.2407 -0.1476  0.5092
  158SAPE   H4X17662   1.440   3.441   6.899  2.7337  0.1200 -0.2355
  158SAPE   H4Y17663   1.376   3.569   7.031 -0.2128 -0.6403  1.4309
  158SAPE   C3517664   1.478   3.395   7.099  0.5366  0.1786  0.3414
  158SAPE   H5X17665   1.527   3.436   7.190 -1.9513  1.7252  1.0656
  158SAPE   H5Y17666   1.543   3.315   7.058 -1.1267 -0.0397 -2.0863
  158SAPE   C3617667   1.348   3.322   7.142 -0.2768  0.3943 -0.3535
  158SAPE   H6X17668   1.285   3.295   7.054  0.1268  2.7514 -1.4687
  158SAPE   H6Y17669   1.289   3.392   7.205  1.0786  0.0598  1.3354
  158SAPE   C3717670   1.382   3.186   7.205 -0.2532  0.0193 -0.3558
  158SAPE   H7X17671   1.398   3.110   7.125  0.6761 -0.0506 -0.1137
  158SAPE   H7Y17672   1.479   3.198   7.259 -1.0064  2.1092  0.6257
  158SAPE   C3817673   1.288   3.124   7.312 -0.3293 -0.2868  0.7845
  158SAPE   H8X17674   1.182   3.134   7.279 -0.6545  1.2008  2.1160
  158SAPE   H8Y17675   1.293   3.188   7.403 -1.6268  0.5836  0.2790
  158SAPE   C3917676   1.327   2.982   7.352  0.3058  0.2827  0.6919
  158SAPE   H9X17677   1.426   2.979   7.404  0.6975  0.5257 -0.0241
  158SAPE   H9Y17678   1.341   2.923   7.259 -1.1674  0.7723  0.1448
  158SAPE  C31017679   1.216   2.919   7.433 -0.6178 -0.0005  0.1725
  158SAPE  H10X17680   1.257   2.825   7.474 -0.2440  0.5180  1.0186
  158SAPE  H10Y17681   1.127   2.897   7.370 -1.3867  2.0138  0.4794
  158SAPE  C31117682   1.173   2.999   7.561  0.1015  0.5858 -0.0068
  158SAPE  H11X17683   1.105   2.932   7.618 -0.1452 -1.9566 -2.9880
  158SAPE  H11Y17684   1.126   3.096   7.535  1.3858  1.5142  0.9737
  158SAPE  C31217685   1.297   3.032   7.643  0.9514 -0.4232 -0.1028
  158SAPE  H12X17686   1.366   3.102   7.592 -0.2037  0.9097  0.0779
  158SAPE  H12Y17687   1.358   2.942   7.663 -1.5621 -1.7016  2.5665
  158SAPE  C31317688   1.256   3.110   7.768 -0.2417 -0.1171 -0.4060
  158SAPE  H13X17689   1.205   3.031   7.828  1.2695 -2.2987 -1.8181
  158SAPE  H13Y17690   1.193   3.199   7.746  2.8721  2.9300  1.9294
  158SAPE  C31417691   1.372   3.149   7.858  0.1769  0.2317  0.3733
  158SAPE  H14X17692   1.429   3.239   7.825 -0.5229 -0.3427 -2.6312
  158SAPE  H14Y17693   1.446   3.066   7.865  2.5558  2.0432 -1.5795
  158SAPE  C31517694   1.342   3.160   8.010 -0.0437  0.1760  0.1053
  158SAPE  H15X17695   1.290   3.065   8.035 -0.4115  0.5952  0.9639
  158SAPE  H15Y17696   1.268   3.241   8.027 -1.2000 -0.9937  0.8623
  158SAPE  C31617697   1.466   3.166   8.100 -0.5177 -0.0750 -0.0371
  158SAPE  H16X17698   1.523   3.071   8.091 -0.5305 -0.0393 -0.5587
  158SAPE  H16Y17699   1.444   3.186   8.207  0.1126 -0.8243  0.2364
  158SAPE  C31717700   1.552   3.288   8.059  0.1602 -0.0017  0.5757
  158SAPE  H17X17701   1.492   3.382   8.058 -0.1881 -0.1919 -1.7620
  158SAPE  H17Y17702   1.589   3.285   7.954  0.2348  1.3696  0.5466
  158SAPE  C31817703   1.678   3.302   8.145  0.5509  0.2097 -0.6402
  158SAPE  H18X17704   1.722   3.402   8.127  2.6720 -0.2084  1.6568
  158SAPE  H18Y17705   1.744   3.213   8.134 -0.5912 -0.5726 -1.3855
  158SAPE  H18Z17706   1.649   3.289   8.251 -2.9786  0.6699 -1.4376
  159SAPE     N17707   4.979   1.450   6.108  0.5541  0.7501 -0.0231
  159SAPE   HN117708   5.002   1.441   6.007  1.0111  1.2385  0.0304
  159SAPE   HN217709   5.048   1.516   6.149 -0.0389  0.6549  1.1929
  159SAPE   HN317710   4.991   1.361   6.160  0.3590  0.9282  0.3317
  159SAPE   C1217711   4.832   1.491   6.119 -0.5291  0.4897  0.3366
  159SAPE  H12A17712   4.809   1.579   6.055 -1.9755  0.5599  0.9190
  159SAPE  H12B17713   4.817   1.523   6.224 -0.4709  0.3216  0.3970
  159SAPE   C1117714   4.740   1.364   6.096  0.8231  0.0157 -0.4643
  159SAPE  H11A17715   4.741   1.324   5.993 -1.0304 -0.7725 -0.2114
  159SAPE  H11B17716   4.635   1.397   6.110  0.5431 -0.2241 -1.8693
  159SAPE     P17717   4.657   1.151   6.202  0.0871 -0.2165  0.0068
  159SAPE   O1317718   4.631   1.096   6.068  0.1746  0.1851  0.5940
  159SAPE   O1417719   4.682   1.047   6.306 -0.0151  0.0359 -0.5055
  159SAPE   O1217720   4.769   1.256   6.193  0.6742 -0.7546 -0.2361
  159SAPE   O1117721   4.532   1.230   6.244 -0.6746  0.3102  0.2233
  159SAPE    C117722   4.522   1.337   6.339 -0.7772 -0.9078  0.5076
  159SAPE    HA17723   4.615   1.387   6.372 -0.6126 -0.2528 -0.8993
  159SAPE    HB17724   4.460   1.412   6.284  1.7020  0.2422 -0.8534
  159SAPE    C217725   4.452   1.294   6.466 -0.2123  0.2114  0.3250
  159SAPE    HS17726   4.376   1.214   6.449 -1.3839  0.9932  1.5991
  159SAPE   O2117727   4.376   1.413   6.514  0.2895  0.3497  0.0814
  159SAPE   C2117728   4.273   1.388   6.590 -0.0851  0.7764 -0.0065
  159SAPE   O2217729   4.231   1.269   6.607 -0.5637  0.0349  0.6394
  159SAPE   C2217730   4.202   1.510   6.645  0.6424 -0.1599  0.6741
  159SAPE   H2R17731   4.281   1.583   6.671 -0.4612  0.9437  1.0522
  159SAPE   H2S17732   4.149   1.553   6.557  2.0367  1.9468  0.7781
  159SAPE    C317733   4.558   1.225   6.562 -0.8001  0.0248 -0.0334
  159SAPE    HX17734   4.666   1.249   6.554 -1.2157  2.1894  0.1722
  159SAPE    HY17735   4.564   1.119   6.528  1.5249  0.2703 -0.5343
  159SAPE   O3117736   4.524   1.220   6.705 -0.2835 -0.5155 -0.5521
  159SAPE   C3117737   4.571   1.326   6.773 -0.1618 -0.0340  1.0316
  159SAPE   O3217738   4.624   1.425   6.726 -0.7534  0.1108 -0.1929
  159SAPE   C3217739   4.552   1.298   6.928 -0.3347  0.2386 -0.2917
  159SAPE   H2X17740   4.579   1.194   6.957 -0.7523  0.7461  2.1068
  159SAPE   H2Y17741   4.445   1.315   6.950 -0.9500 -1.3953 -1.7888
  159SAPE   C2317742   4.107   1.498   6.763 -0.3272 -0.4562  0.1529
  159SAPE   H3R17743   4.022   1.429   6.750 -0.5964 -0.6835  2.6220
  159SAPE   H3S17744   4.056   1.596   6.777 -2.2989 -1.2437 -1.1776
  159SAPE   C2417745   4.177   1.463   6.890 -0.7394 -0.0338 -0.0347
  159SAPE   H4R17746   4.269   1.405   6.865 -1.2490 -0.1005 -1.9668
  159SAPE   H4S17747   4.107   1.394   6.942  1.6750 -2.3019  0.4312
  159SAPE   C2517748   4.214   1.583   6.972 -0.2392  0.8032  0.4555
  159SAPE   H5R17749   4.280   1.646   6.910  2.0549  0.3450  2.2865
  159SAPE   C2617750   4.193   1.603   7.100 -0.4152 -0.0053 -0.3660
  159SAPE   H6R17751   4.215   1.704   7.139  1.4729  0.8780 -3.3239
  159SAPE   C2717752   4.115   1.504   7.186 -0.2035 -0.3582 -0.0035
  159SAPE   H7R17753   4.029   1.470   7.124 -0.6218 -0.8345  0.8242
  159SAPE   H7S17754   4.058   1.552   7.268 -3.2507  0.6037 -2.4688
  159SAPE   C2817755   4.200   1.389   7.230  0.5001  0.3075  0.6305
  159SAPE   H8R17756   4.284   1.362   7.163 -0.4138  1.0277 -0.8595
  159SAPE   C2917757   4.204   1.314   7.342  0.1736 -0.1753  0.2552
  159SAPE   H9R17758   4.288   1.244   7.354  0.5490 -0.5208 -3.3851
  159SAPE  C21017759   4.109   1.331   7.464 -0.0356 -0.2651  0.2650
  159SAPE  H10R17760   4.049   1.425   7.459  0.0074 -0.2555 -0.1298
  159SAPE  H10S17761   4.165   1.342   7.559  1.2439  1.8169 -0.6418
  159SAPE  C21117762   4.018   1.214   7.469 -0.5839  0.1085  0.1107
  159SAPE  H11R17763   3.979   1.162   7.380  0.1148 -0.9188  0.3894
  159SAPE  C21217764   3.963   1.166   7.580 -0.3101 -0.8856  0.2497
  159SAPE  H12R17765   3.920   1.065   7.577  0.0802 -1.0495  0.1650
  159SAPE  C21317766   3.965   1.202   7.729 -0.1284  0.7657  0.9661
  159SAPE  H13R17767   3.867   1.179   7.775 -0.1249  0.3184  0.7540
  159SAPE  H13S17768   3.963   1.313   7.737  1.1461  0.8366  0.6149
  159SAPE  C21417769   4.082   1.145   7.798 -0.2150  0.8843 -0.6467
  159SAPE  H14R17770   4.150   1.092   7.731 -1.6316 -0.7037 -0.9001
  159SAPE  C21517771   4.102   1.148   7.930  0.8126 -0.2943 -0.4228
  159SAPE  H15R17772   4.189   1.093   7.969 -0.4335 -1.4073  0.9130
  159SAPE  C21617773   4.017   1.224   8.024 -0.0746 -0.2975 -0.4607
  159SAPE  H16R17774   3.927   1.168   8.057 -0.6218  1.3130  0.9092
  159SAPE  H16S17775   3.980   1.316   7.975  1.1919  1.7946  2.1869
  159SAPE  C21717776   4.103   1.261   8.148 -0.1154 -0.0811  0.9920
  159SAPE  H17R17777   4.053   1.341   8.207  0.9014 -0.2830  2.1534
  159SAPE  H17S17778   4.205   1.296   8.121  0.0153 -1.4265 -0.4366
  159SAPE  C21817779   4.113   1.142   8.251 -0.1701  0.4943 -0.1266
  159SAPE  H18R17780   4.148   1.048   8.204 -0.6679 -0.5704  1.5620
  159SAPE  H18S17781   4.010   1.117   8.285  1.4566 -3.3429  2.6437
  159SAPE  C21917782   4.202   1.170   8.366 -0.9508  0.4748 -0.2409
  159SAPE  H19R17783   4.172   1.268   8.409  0.4558  0.2678  1.2892
  159SAPE  H19S17784   4.306   1.185   8.328 -0.9276  0.5727 -0.1361
  159SAPE  C22017785   4.226   1.055   8.464 -0.4272 -1.1656 -0.1427
  159SAPE  H20R17786   4.326   1.071   8.509 -0.0801  1.9801 -1.7558
  159SAPE  H20S17787   4.234   0.962   8.403  0.1710 -0.1924 -1.5971
  159SAPE  H20T17788   4.146   1.033   8.538  0.5698 -4.6548  0.0652
  159SAPE   C3317789   4.638   1.394   7.011  0.0035  0.2503 -0.6099
  159SAPE   H3X17790   4.591   1.492   6.986 -0.8388 -0.4594 -1.8969
  159SAPE   H3Y17791   4.742   1.383   6.972 -0.5259 -1.4268 -1.6368
  159SAPE   C3417792   4.624   1.366   7.162 -0.0438  0.2005  0.6008
  159SAPE   H4X17793   4.696   1.286   7.191 -0.7810 -0.7266 -0.0547
  159SAPE   H4Y17794   4.519   1.344   7.189 -0.1218 -0.1564  0.0295
  159SAPE   C3517795   4.656   1.504   7.237 -1.1265 -0.0981  0.4054
  159SAPE   H5X17796   4.577   1.580   7.221 -1.6589 -0.6305  0.5066
  159SAPE   H5Y17797   4.743   1.548   7.183 -0.6914  1.6800  2.4290
  159SAPE   C3617798   4.690   1.482   7.382 -0.1171 -0.7356  0.0869
  159SAPE   H6X17799   4.721   1.580   7.424  0.2569 -0.7453 -0.1657
  159SAPE   H6Y17800   4.770   1.405   7.391  0.8198  0.3823  2.0586
  159SAPE   C3717801   4.578   1.423   7.467 -0.7974  0.6611  0.2236
  159SAPE   H7X17802   4.544   1.324   7.429  1.2095 -0.8680  2.1620
  159SAPE   H7Y17803   4.487   1.486   7.462 -1.7677 -0.7358 -0.6614
  159SAPE   C3817804   4.625   1.380   7.611 -0.3748 -0.0805  0.5359
  159SAPE   H8X17805   4.657   1.470   7.668 -1.8300  0.6610  0.2332
  159SAPE   H8Y17806   4.719   1.328   7.584  0.9186  1.9524  0.8414
  159SAPE   C3917807   4.536   1.288   7.683 -0.1009 -0.6425 -0.2439
  159SAPE   H9X17808   4.514   1.198   7.622  0.1948 -3.5041  3.4852
  159SAPE   H9Y17809   4.433   1.328   7.693  0.1819  0.8191 -2.5194
  159SAPE  C31017810   4.601   1.258   7.817 -0.1052 -0.6118  0.1456
  159SAPE  H10X17811   4.620   1.358   7.861 -1.0111  0.1179 -1.0560
  159SAPE  H10Y17812   4.702   1.221   7.789 -0.2128 -0.4741 -0.4418
  159SAPE  C31117813   4.525   1.172   7.908 -0.2789  0.5789  0.1949
  159SAPE  H11X17814   4.495   1.084   7.847  0.6185  1.1072 -1.0584
  159SAPE  H11Y17815   4.432   1.229   7.927 -0.4336  0.9157 -1.4357
  159SAPE  C31217816   4.600   1.134   8.041 -0.1580 -0.2234  0.6724
  159SAPE  H12X17817   4.626   1.220   8.107  0.0666 -0.2639  0.6376
  159SAPE  H12Y17818   4.687   1.071   8.014 -0.4550 -0.4409  0.2171
  159SAPE  C31317819   4.526   1.033   8.132 -0.0729  0.2890  0.7189
  159SAPE  H13X17820   4.513   0.936   8.081 -1.7701  2.3846 -3.2430
  159SAPE  H13Y17821   4.423   1.072   8.148 -0.0233  1.1198 -0.8310
  159SAPE  C31417822   4.593   1.007   8.273 -0.0189  0.0784  0.6562
  159SAPE  H14X17823   4.678   0.938   8.256  0.0720  0.2682  0.3103
  159SAPE  H14Y17824   4.510   0.956   8.326 -2.0437  2.2798 -0.1890
  159SAPE  C31517825   4.637   1.127   8.350 -0.8367 -0.0622 -0.7672
  159SAPE  H15X17826   4.558   1.194   8.390 -0.8026  0.7312 -1.9710
  159SAPE  H15Y17827   4.706   1.188   8.288  0.2086 -0.1701  0.2532
  159SAPE  C31617828   4.716   1.089   8.482 -0.2300  0.9495 -0.2014
  159SAPE  H16X17829   4.776   1.172   8.524 -2.2597  1.2164  2.4608
  159SAPE  H16Y17830   4.778   1.003   8.447 -1.5134 -0.5872  1.1373
  159SAPE  C31717831   4.632   1.024   8.595  0.0175  0.4951  0.6213
  159SAPE  H17X17832   4.565   0.948   8.549 -0.7308  0.8960  1.0326
  159SAPE  H17Y17833   4.570   1.102   8.644 -0.5595  1.3095 -1.3370
  159SAPE  C31817834   4.725   0.958   8.700  0.2213 -0.7929  0.1616
  159SAPE  H18X17835   4.676   0.925   8.793 -1.5164  2.0870  0.3827
  159SAPE  H18Y17836   4.795   1.042   8.721 -1.3435  0.9307 -1.2334
  159SAPE  H18Z17837   4.781   0.870   8.662  0.5310 -1.0220  1.1188
  160SAPE     N17838   3.264   6.123   5.951 -0.3580 -0.0797  0.1822
  160SAPE   HN117839   3.199   6.186   5.899  0.9769  1.0490 -0.1662
  160SAPE   HN217840   3.359   6.140   5.913 -0.7106 -1.1328 -1.2667
  160SAPE   HN317841   3.246   6.026   5.917  1.9992 -0.2063 -0.8773
  160SAPE   C1217842   3.262   6.138   6.098 -0.6932  0.5983  0.8407
  160SAPE  H12A17843   3.277   6.246   6.119 -1.8013  0.6673  1.3207
  160SAPE  H12B17844   3.350   6.088   6.143 -0.0631 -0.0397 -1.0039
  160SAPE   C1117845   3.134   6.090   6.166  0.3758 -0.0332  0.3613
  160SAPE  H11A17846   3.159   6.103   6.274 -0.4847 -1.2491  0.7297
  160SAPE  H11B17847   3.123   5.981   6.153  1.8160 -0.0484 -0.9833
  160SAPE     P17848   2.931   6.256   6.222  0.1676  0.2013 -0.2228
  160SAPE   O1317849   3.009   6.379   6.263 -0.1563  0.2809  0.2477
  160SAPE   O1417850   2.799   6.277   6.162 -0.4984  0.2625  0.3293
  160SAPE   O1217851   3.022   6.171   6.126 -0.0234 -0.3612  0.0433
  160SAPE   O1117852   2.920   6.165   6.349  0.5812 -0.1513 -0.4844
  160SAPE    C117853   2.813   6.069   6.361 -0.9782  0.6433  1.0911
  160SAPE    HA17854   2.719   6.126   6.351 -0.7877  0.6281 -1.6595
  160SAPE    HB17855   2.824   5.989   6.284  0.6963  2.2063 -0.4162
  160SAPE    C217856   2.834   5.995   6.486 -0.0978  0.9543 -0.6372
  160SAPE    HS17857   2.757   5.915   6.484 -1.0906  1.6422  3.1252
  160SAPE   O2117858   2.810   6.079   6.602  0.1410 -0.1771  0.0162
  160SAPE   C2117859   2.683   6.115   6.623 -0.2302 -0.1468 -0.2400
  160SAPE   O2217860   2.582   6.087   6.556 -0.7624  0.3709  0.3251
  160SAPE   C2217861   2.683   6.190   6.753 -0.1604 -0.7146  0.0610
  160SAPE   H2R17862   2.688   6.113   6.834  1.9625 -0.6599  0.0468
  160SAPE   H2S17863   2.774   6.255   6.756  0.8527 -2.1083  1.6826
  160SAPE    C317864   2.970   5.933   6.500  0.7988 -0.6613 -1.1454
  160SAPE    HX17865   3.021   6.023   6.540 -1.9067 -0.0463  1.2288
  160SAPE    HY17866   3.014   5.891   6.407  1.7173  0.8536 -1.4271
  160SAPE   O3117867   2.972   5.840   6.606 -0.1851  0.2471 -0.9829
  160SAPE   C3117868   2.902   5.725   6.575 -0.0401 -0.8612  0.3294
  160SAPE   O3217869   2.854   5.698   6.466 -0.2777 -0.7303  0.2391
  160SAPE   C3217870   2.904   5.632   6.696  0.7230 -0.1388  0.7657
  160SAPE   H2X17871   2.856   5.688   6.780 -2.1342 -0.6231 -0.4339
  160SAPE   H2Y17872   3.011   5.620   6.725  0.5238 -1.7832  0.8963
  160SAPE   C2317873   2.563   6.284   6.760  0.3601 -0.0724 -0.3130
  160SAPE   H3R17874   2.465   6.241   6.732  0.5112  1.2640 -3.3087
  160SAPE   H3S17875   2.575   6.370   6.690  2.2671  0.4097  0.5292
  160SAPE   C2417876   2.545   6.331   6.910 -0.1558  0.4004  0.0107
  160SAPE   H4R17877   2.562   6.238   6.969 -0.1392  0.6969  0.4871
  160SAPE   H4S17878   2.438   6.362   6.912 -0.8139 -1.6887  1.9222
  160SAPE   C2517879   2.624   6.446   6.961 -0.3393 -0.3434 -0.4312
  160SAPE   H5R17880   2.587   6.542   6.923 -1.7547 -0.5475  0.3789
  160SAPE   C2617881   2.726   6.433   7.055  0.1181  0.1211  0.1609
  160SAPE   H6R17882   2.770   6.526   7.095 -0.0301  0.0695  0.4462
  160SAPE   C2717883   2.783   6.306   7.116 -0.7094 -0.4243 -0.1130
  160SAPE   H7R17884   2.892   6.317   7.134 -0.3723  1.0878 -2.6692
  160SAPE   H7S17885   2.778   6.232   7.034 -1.3728 -0.5712  0.0591
  160SAPE   C2817886   2.703   6.247   7.233  0.1014 -0.1658 -0.1555
  160SAPE   H8R17887   2.701   6.137   7.240  1.6548 -0.1854  0.3084
  160SAPE   C2917888   2.642   6.308   7.339 -0.1363 -0.0853 -0.3925
  160SAPE   H9R17889   2.597   6.248   7.419 -0.2847 -0.3250 -0.6527
  160SAPE  C21017890   2.635   6.454   7.375 -0.1020 -0.3235  0.0938
  160SAPE  H10R17891   2.533   6.487   7.406 -0.0852  2.2842 -2.2321
  160SAPE  H10S17892   2.656   6.520   7.288  3.7117  0.6424  1.5598
  160SAPE  C21117893   2.740   6.475   7.482  1.0402 -0.0089 -0.2213
  160SAPE  H11R17894   2.841   6.497   7.444  1.4850  2.3338  1.9909
  160SAPE  C21217895   2.719   6.474   7.615  0.2162  0.7619  0.2966
  160SAPE  H12R17896   2.803   6.516   7.673 -0.3647  0.4057  1.4157
  160SAPE  C21317897   2.582   6.444   7.680 -0.1993  0.1100 -0.1181
  160SAPE  H13R17898   2.507   6.404   7.608  0.6715 -1.6641 -0.0912
  160SAPE  H13S17899   2.550   6.536   7.733  0.0226 -0.2107  0.5859
  160SAPE  C21417900   2.606   6.324   7.771  1.1257  0.2665 -0.0696
  160SAPE  H14R17901   2.638   6.233   7.718  1.8717  0.6142 -0.2252
  160SAPE  C21517902   2.605   6.318   7.904 -0.7055  0.1700  0.3565
  160SAPE  H15R17903   2.641   6.231   7.961 -0.2915 -0.4272 -0.8011
  160SAPE  C21617904   2.573   6.430   8.000  0.8879  0.7567  0.0460
  160SAPE  H16R17905   2.523   6.389   8.091  1.6360 -0.5342 -0.1168
  160SAPE  H16S17906   2.495   6.500   7.961 -0.3465  1.6067  3.6165
  160SAPE  C21717907   2.702   6.508   8.038 -0.1153 -0.0543 -0.6629
  160SAPE  H17R17908   2.673   6.606   8.080  0.1978 -0.2436 -0.0031
  160SAPE  H17S17909   2.759   6.519   7.943 -0.0821 -0.0535 -0.6430
  160SAPE  C21817910   2.789   6.453   8.153 -0.4370  0.3186 -0.4546
  160SAPE  H18R17911   2.873   6.524   8.169 -0.9907  0.2750  4.1504
  160SAPE  H18S17912   2.821   6.352   8.119 -0.2212  0.1740  0.1618
  160SAPE  C21917913   2.707   6.440   8.283  0.0070 -0.0496  0.1472
  160SAPE  H19R17914   2.648   6.346   8.278  0.3015 -0.1921 -2.8321
  160SAPE  H19S17915   2.628   6.518   8.280  0.6697  0.7174  1.5254
  160SAPE  C22017916   2.789   6.454   8.416  0.1286 -0.4393  0.4100
  160SAPE  H20R17917   2.725   6.473   8.505  0.2849  1.0826  0.2379
  160SAPE  H20S17918   2.864   6.534   8.401 -1.1511  0.6272 -0.6210
  160SAPE  H20T17919   2.852   6.370   8.450  0.0232 -1.1821 -1.1626
  160SAPE   C3317920   2.831   5.499   6.681  0.4946  0.0265  0.3126
  160SAPE   H3X17921   2.862   5.457   6.583  0.2854  0.1078  0.2092
  160SAPE   H3Y17922   2.723   5.528   6.686  0.7320  1.2051 -0.6629
  160SAPE   C3417923   2.877   5.399   6.791  0.0779 -0.5177 -0.1738
  160SAPE   H4X17924   2.803   5.317   6.782 -0.6299 -0.0406  1.0273
  160SAPE   H4Y17925   2.864   5.443   6.892  3.2020  0.3165 -0.0099
  160SAPE   C3517926   3.027   5.354   6.785 -0.4098 -0.3150 -0.4310
  160SAPE   H5X17927   3.105   5.433   6.798 -0.4486 -0.2058 -0.8512
  160SAPE   H5Y17928   3.033   5.310   6.684 -0.1205  0.6282 -0.8362
  160SAPE   C3617929   3.060   5.250   6.890 -0.1058  0.3498  0.7716
  160SAPE   H6X17930   2.992   5.165   6.871  0.8473 -0.5518  1.2884
  160SAPE   H6Y17931   3.050   5.306   6.986  0.3842  1.7719  0.0276
  160SAPE   C3717932   3.199   5.186   6.876  0.1058 -0.0933 -0.0761
  160SAPE   H7X17933   3.272   5.267   6.897  0.3943 -0.4420  0.2974
  160SAPE   H7Y17934   3.220   5.150   6.773 -4.6934 -0.2483 -1.2049
  160SAPE   C3817935   3.211   5.083   6.995 -0.0541 -0.3943 -0.5247
  160SAPE   H8X17936   3.310   5.034   6.981  0.4550  0.0239  1.3474
  160SAPE   H8Y17937   3.127   5.010   7.000 -2.2081  1.8769 -1.2680
  160SAPE   C3917938   3.222   5.162   7.133  0.1324 -0.2252 -0.2786
  160SAPE   H9X17939   3.121   5.187   7.172  0.3693 -1.8149  1.4897
  160SAPE   H9Y17940   3.283   5.254   7.123 -0.3874  0.1908  0.2525
  160SAPE  C31017941   3.297   5.079   7.238  0.4968  0.2179 -0.2915
  160SAPE  H10X17942   3.404   5.067   7.211  1.1038  1.6544  1.3022
  160SAPE  H10Y17943   3.258   4.976   7.251  1.2033  0.3224  3.6146
  160SAPE  C31117944   3.277   5.139   7.383  0.2154 -0.3593  0.2162
  160SAPE  H11X17945   3.166   5.141   7.395  0.1042 -1.8789 -0.3667
  160SAPE  H11Y17946   3.299   5.247   7.392 -1.0401 -0.0118 -0.5789
  160SAPE  C31217947   3.351   5.074   7.500 -0.2139 -0.1134 -0.1239
  160SAPE  H12X17948   3.460   5.082   7.481 -0.2683  1.0870  0.0089
  160SAPE  H12Y17949   3.323   4.966   7.506 -2.7022  0.5196  1.7119
  160SAPE  C31317950   3.309   5.122   7.640  0.0249 -0.4506 -0.0533
  160SAPE  H13X17951   3.199   5.116   7.652  0.2192 -0.4564  2.0371
  160SAPE  H13Y17952   3.338   5.229   7.653 -0.1432 -0.7094  3.2399
  160SAPE  C31417953   3.393   5.043   7.737 -0.4209 -0.4453 -0.5926
  160SAPE  H14X17954   3.496   5.081   7.718  0.7669 -2.5600  1.1959
  160SAPE  H14Y17955   3.389   4.934   7.717  1.9196 -0.7331  0.2203
  160SAPE  C31517956   3.359   5.073   7.888  0.2122  0.0072  0.1334
  160SAPE  H15X17957   3.249   5.086   7.897  0.4756  0.8573  2.8687
  160SAPE  H15Y17958   3.404   5.172   7.912  0.7739  0.2730 -1.8189
  160SAPE  C31617959   3.400   4.955   7.977  0.5283  0.0019  0.4371
  160SAPE  H16X17960   3.510   4.951   7.990  0.4674 -0.9253  0.7874
  160SAPE  H16Y17961   3.362   4.855   7.944 -0.4948 -0.1999  2.0765
  160SAPE  C31717962   3.349   4.972   8.124  0.5348 -0.9053  0.1109
  160SAPE  H17X17963   3.243   5.003   8.123  0.3473 -1.5583 -1.2664
  160SAPE  H17Y17964   3.401   5.044   8.192  2.4158 -2.0223 -0.0824
  160SAPE  C31817965   3.339   4.844   8.214  0.8991  0.0961 -0.3282
  160SAPE  H18X17966   3.278   4.776   8.151 -0.1056  2.3726 -1.9397
  160SAPE  H18Y17967   3.284   4.869   8.307  0.1253  0.1963 -0.8024
  160SAPE  H18Z17968   3.443   4.809   8.230  1.8908  2.2187 -1.6442
  161SOPE     N17969   6.307   3.102  10.438  0.0561  0.3225 -0.0582
  161SOPE   HN117970   6.363   3.085  10.352 -2.0986  1.4594 -1.7726
  161SOPE   HN217971   6.320   3.197  10.477 -0.2860  0.1016  0.6307
  161SOPE   HN317972   6.325   3.034  10.515 -2.2800 -1.9050 -1.3163
  161SOPE   C1217973   6.162   3.102  10.393 -0.5907  0.5054  0.0651
  161SOPE  H12A17974   6.139   2.999  10.360  4.6647 -1.7378  2.3679
  161SOPE  H12B17975   6.173   3.173  10.308  1.3181  0.3004  0.1117
  161SOPE   C1117976   6.067   3.150  10.499  0.3264  0.1326 -0.5706
  161SOPE  H11A17977   5.964   3.173  10.463 -0.8643 -0.2748  2.3602
  161SOPE  H11B17978   6.101   3.244  10.547  0.3036  0.9156 -2.0119
  161SOPE     P17979   5.939   3.026  10.704  0.2319  0.0443 -0.1064
  161SOPE   O1317980   5.930   3.154  10.782 -0.0353  0.4548  0.3803
  161SOPE   O1417981   5.964   2.903  10.786  0.1033  0.4267  0.4131
  161SOPE   O1217982   6.050   3.045  10.592 -0.3738 -0.0566 -0.1835
  161SOPE   O1117983   5.808   2.997  10.626 -0.3873 -0.0158 -0.0279
  161SOPE    C117984   5.786   2.871  10.562  0.0112  0.5982  0.7717
  161SOPE    HA17985   5.678   2.845  10.572  0.6453 -2.9924 -0.1867
  161SOPE    HB17986   5.841   2.784  10.603 -0.8604 -0.9896 -1.2342
  161SOPE    C217987   5.820   2.874  10.409  1.0060 -0.1049 -0.1244
  161SOPE    HS17988   5.928   2.898  10.399  0.9035 -0.3489 -2.3241
  161SOPE   O2117989   5.731   2.981  10.359 -0.1527 -0.0097 -0.7602
  161SOPE   C2117990   5.778   3.065  10.274 -0.2274  0.6814 -1.1211
  161SOPE   O2217991   5.896   3.075  10.240 -0.2455 -0.3826 -0.3631
  161SOPE   C2217992   5.669   3.167  10.222  0.5559  0.1904  0.6604
  161SOPE   H2R17993   5.706   3.255  10.279  0.9496  0.8244 -0.5222
  161SOPE   H2S17994   5.565   3.143  10.253  0.1259 -3.2956 -2.6245
  161SOPE    C317995   5.807   2.729  10.350 -0.3834  0.8397 -0.1643
  161SOPE    HX17996   5.705   2.694  10.377  0.4631  1.0790  3.9089
  161SOPE    HY17997   5.879   2.660  10.398 -1.8087 -1.4994 -1.1922
  161SOPE   O3117998   5.818   2.722  10.205  0.2312  0.0149  0.4217
  161SOPE   C3117999   5.936   2.712  10.164 -0.6003  0.4278 -0.6488
  161SOPE   O3218000   6.039   2.724  10.233  0.5987 -0.3715  0.1698
  161SOPE   C3218001   5.932   2.679  10.014  0.0916  0.1945  0.2179
  161SOPE   H2X18002   5.833   2.709   9.974 -0.1666 -1.4169 -0.4285
  161SOPE   H2Y18003   5.939   2.568  10.012 -0.2348  0.1759  0.1031
  161SOPE   C2318004   5.680   3.190  10.070 -0.3818 -0.3350  0.4606
  161SOPE   H3R18005   5.785   3.218  10.045 -0.1157  0.0650  1.9130
  161SOPE   H3S18006   5.624   3.283  10.044 -0.9681 -0.4943  1.1257
  161SOPE   C2418007   5.636   3.075   9.979  0.8061 -0.7411  0.8979
  161SOPE   H4R18008   5.699   2.985   9.992  2.5101  0.4192  1.0952
  161SOPE   H4S18009   5.532   3.037   9.983  0.1803  0.1933 -2.7495
  161SOPE   C2518010   5.661   3.120   9.833 -0.0736 -0.1094  0.2392
  161SOPE   H5R18011   5.643   3.228   9.817  1.0167  0.5413  2.8970
  161SOPE   H5S18012   5.767   3.095   9.809 -0.5378  0.0477 -2.1962
  161SOPE   C2618013   5.577   3.044   9.723 -0.1447 -0.4976  0.0348
  161SOPE   H6R18014   5.637   3.067   9.632 -2.8040  1.0309 -1.4817
  161SOPE   H6S18015   5.586   2.934   9.732  0.3445 -0.3841  1.1204
  161SOPE   C2718016   5.439   3.092   9.710  0.0249 -0.2722 -0.3204
  161SOPE   H7R18017   5.382   3.069   9.802  2.6696 -1.9319  1.0069
  161SOPE   H7S18018   5.445   3.203   9.701  0.4534 -0.2159  0.6377
  161SOPE   C2818019   5.360   3.032   9.589  0.4075 -0.7782 -0.1597
  161SOPE   H8R18020   5.429   2.959   9.543  0.2630 -2.3739  2.0057
  161SOPE   H8S18021   5.277   2.972   9.632  1.0813  0.5835  3.4075
  161SOPE   C2918022   5.311   3.140   9.491  0.8583  0.2290 -0.7555
  161SOPE   H9118023   5.238   3.210   9.534 -1.2125 -0.0118 -3.6315
  161SOPE  C21018024   5.350   3.155   9.365 -0.4190  0.4141  0.4087
  161SOPE  H10118025   5.307   3.235   9.303 -0.3367  0.2452  0.1343
  161SOPE  C21118026   5.455   3.069   9.293  0.6683  0.4953 -0.4559
  161SOPE  H11R18027   5.404   2.999   9.224  1.7675 -1.5974  0.7464
  161SOPE  H11S18028   5.514   2.998   9.356 -0.8416 -1.8968 -1.5813
  161SOPE  C21218029   5.557   3.144   9.205  0.2428  0.1287  0.1340
  161SOPE  H12R18030   5.635   3.071   9.175 -2.1904 -2.1586 -1.0840
  161SOPE  H12S18031   5.595   3.230   9.263  0.3337  0.0816  0.1445
  161SOPE  C21318032   5.493   3.199   9.079  0.2016  0.1929 -0.3930
  161SOPE  H13R18033   5.496   3.308   9.057 -2.1947  0.1508 -1.2335
  161SOPE  H13S18034   5.383   3.183   9.068 -0.3487  4.0214 -1.8050
  161SOPE  C21418035   5.551   3.134   8.951  0.5065 -0.0477 -0.3274
  161SOPE  H14R18036   5.519   3.028   8.950  0.2839 -0.0003  0.5872
  161SOPE  H14S18037   5.662   3.140   8.949  0.5114 -0.1888 -0.5293
  161SOPE  C21518038   5.486   3.206   8.823 -0.3011  0.5973  0.1419
  161SOPE  H15R18039   5.505   3.315   8.834  3.0220 -0.0980  3.1836
  161SOPE  H15S18040   5.378   3.181   8.830 -0.7663  2.2795 -0.5960
  161SOPE  C21618041   5.521   3.142   8.683  0.2768  0.4514 -0.1890
  161SOPE  H16R18042   5.620   3.166   8.640  0.1796 -0.5760 -1.0062
  161SOPE  H16S18043   5.452   3.174   8.602  2.3530  0.4924 -2.0321
  161SOPE  C21718044   5.510   2.988   8.693  0.1961 -0.5900 -0.8103
  161SOPE  H17R18045   5.411   2.964   8.736  0.8007 -0.9985  0.4132
  161SOPE  H17S18046   5.577   2.949   8.774  1.1773  0.5708 -1.0281
  161SOPE  C21818047   5.548   2.925   8.564 -0.2061 -0.3463  0.4339
  161SOPE  H18R18048   5.518   2.986   8.476  1.1301 -0.8615 -0.4088
  161SOPE  H18S18049   5.491   2.829   8.564  0.7148 -0.9121  0.0747
  161SOPE  H18T18050   5.656   2.902   8.559 -0.1565 -0.2103  0.8559
  161SOPE   C3318051   6.052   2.733   9.935 -0.6684  0.2036 -0.2098
  161SOPE   H3X18052   6.149   2.707   9.982 -0.1307  2.0884 -0.1747
  161SOPE   H3Y18053   6.040   2.843   9.945 -1.4986 -0.0063  1.4833
  161SOPE   C3418054   6.048   2.698   9.792 -0.7259  0.0432 -0.3660
  161SOPE   H4X18055   5.950   2.722   9.745 -1.3595 -3.2451 -0.9617
  161SOPE   H4Y18056   6.055   2.587   9.797 -2.1152 -0.0449  0.0302
  161SOPE   C3518057   6.158   2.755   9.704  0.6468 -0.5229 -0.5811
  161SOPE   H5X18058   6.245   2.687   9.722  0.2581 -0.3726  2.2450
  161SOPE   H5Y18059   6.182   2.858   9.738  2.4658 -1.0521 -0.1533
  161SOPE   C3618060   6.105   2.777   9.559 -0.0113 -0.3062  0.1222
  161SOPE   H6X18061   6.010   2.833   9.545 -0.4341 -0.7138  1.2242
  161SOPE   H6Y18062   6.098   2.677   9.511  2.7488 -0.5796  0.1769
  161SOPE   C3718063   6.209   2.847   9.476 -0.9202 -0.1068  0.2569
  161SOPE   H7X18064   6.298   2.784   9.456 -0.1272  1.0027  0.2651
  161SOPE   H7Y18065   6.242   2.940   9.526  1.1043  0.0645 -1.2506
  161SOPE   C3818066   6.133   2.889   9.345 -0.1042 -0.2336  0.9690
  161SOPE   H8X18067   6.050   2.952   9.382 -1.7547 -0.8090 -1.4827
  161SOPE   H8Y18068   6.082   2.799   9.304 -1.2967  0.1811  1.5034
  161SOPE   C3918069   6.204   2.977   9.246  0.4815  0.0804  0.4222
  161SOPE   H9X18070   6.277   2.908   9.200 -0.1247  0.0826 -0.5644
  161SOPE   H9Y18071   6.251   3.064   9.298 -1.4674  1.7821 -0.5186
  161SOPE  C31018072   6.107   3.036   9.147 -0.3362  0.6061  0.3245
  161SOPE  H10X18073   6.026   3.093   9.197 -0.1156  2.3853 -1.2526
  161SOPE  H10Y18074   6.055   2.953   9.093 -0.5277  1.2761 -0.5378
  161SOPE  C31118075   6.185   3.112   9.044 -0.0782 -0.7663  0.2708
  161SOPE  H11X18076   6.232   3.038   8.976 -0.0150 -1.1289  0.7081
  161SOPE  H11Y18077   6.262   3.183   9.083 -0.0403  0.0948 -1.2924
  161SOPE  C31218078   6.089   3.192   8.952  0.2899 -0.0986  0.1424
  161SOPE  H12X18079   6.156   3.243   8.880  1.0863 -2.5410 -0.9688
  161SOPE  H12Y18080   6.035   3.266   9.015 -2.1513 -1.3295 -0.3984
  161SOPE  C31318081   6.001   3.101   8.867 -1.2994  0.5085  0.6323
  161SOPE  H13X18082   5.903   3.084   8.916 -3.0556 -0.0454 -2.7222
  161SOPE  H13Y18083   6.051   3.002   8.865 -2.8035 -0.2911  1.2779
  161SOPE  C31418084   5.980   3.145   8.721 -0.5131 -0.5210 -0.3879
  161SOPE  H14X18085   5.951   3.251   8.710 -0.5586 -0.4491  0.4311
  161SOPE  H14Y18086   5.905   3.077   8.675  0.7146 -2.6888  0.5989
  161SOPE  C31518087   6.107   3.116   8.636 -0.1807  0.4342  0.3774
  161SOPE  H15X18088   6.136   3.010   8.657  0.3076  0.4449 -0.2367
  161SOPE  H15Y18089   6.187   3.178   8.680  0.8397 -0.7630  0.2487
  161SOPE  C31618090   6.091   3.139   8.489  0.3693 -0.4244 -0.3867
  161SOPE  H16X18091   5.994   3.101   8.448 -0.1859 -0.3396  0.8218
  161SOPE  H16Y18092   6.168   3.088   8.427  0.7978  0.3353 -0.4917
  161SOPE  C31718093   6.099   3.289   8.460  0.4909 -0.0617  0.9124
  161SOPE  H17X18094   6.199   3.322   8.493  0.1566  1.7174  0.2525
  161SOPE  H17Y18095   6.033   3.356   8.519 -1.4855  0.9818 -2.2589
  161SOPE  C31818096   6.085   3.334   8.317 -0.0239  0.2704  0.6980
  161SOPE  H18X18097   5.982   3.307   8.286 -0.0369 -0.5570  1.4154
  161SOPE  H18Y18098   6.172   3.295   8.259  1.0196  1.3038  1.5235
  161SOPE  H18Z18099   6.098   3.444   8.306  0.0414  0.0399 -2.3256
  162SOPE     N18100   5.601   3.135  10.694  0.3987 -0.6947  0.0187
  162SOPE   HN118101   5.619   3.225  10.646  0.7379  0.0350  1.4591
  162SOPE   HN218102   5.685   3.075  10.683  0.6306 -0.1406 -1.4649
  162SOPE   HN318103   5.519   3.087  10.651 -0.0714  0.2279 -0.1436
  162SOPE   C1218104   5.562   3.168  10.834 -0.1732 -0.0354  0.4270
  162SOPE  H12A18105   5.457   3.204  10.829  0.2639  1.0804 -1.6642
  162SOPE  H12B18106   5.617   3.256  10.875 -0.3477 -1.3171  3.7196
  162SOPE   C1118107   5.585   3.042  10.921 -0.1979  0.4483 -0.3814
  162SOPE  H11A18108   5.569   3.077  11.025  0.0902 -0.4178 -0.0333
  162SOPE  H11B18109   5.689   3.005  10.916 -0.5793 -0.7919  0.4645
  162SOPE     P18110   5.477   2.811  10.947  0.0916 -0.2118  0.4068
  162SOPE   O1318111   5.349   2.815  11.019  0.0012  0.1306  0.6262
  162SOPE   O1418112   5.595   2.797  11.028 -0.2898  0.1657  1.0648
  162SOPE   O1218113   5.488   2.948  10.883  0.0436 -0.0910  0.0908
  162SOPE   O1118114   5.477   2.706  10.827 -0.6195  0.2543  0.0083
  162SOPE    C118115   5.397   2.729  10.708 -0.1656 -0.1411 -0.7159
  162SOPE    HA18116   5.445   2.809  10.648 -0.2885 -0.1003 -0.7602
  162SOPE    HB18117   5.295   2.762  10.738  0.1079 -1.1095  1.4486
  162SOPE    C218118   5.377   2.601  10.627 -0.6709  0.2707  0.1474
  162SOPE    HS18119   5.352   2.520  10.699  1.0248 -0.7264 -0.3428
  162SOPE   O2118120   5.503   2.561  10.561  0.7608  0.3621 -0.2645
  162SOPE   C2118121   5.503   2.444  10.510 -0.3681  0.7359 -0.0963
  162SOPE   O2218122   5.418   2.358  10.519  0.3743 -0.0485 -0.1128
  162SOPE   C2218123   5.624   2.431  10.421 -0.6985  0.5948 -0.0636
  162SOPE   H2R18124   5.716   2.456  10.478 -0.0111 -1.0359 -0.4160
  162SOPE   H2S18125   5.608   2.507  10.341 -0.8652 -1.0667 -1.6618
  162SOPE    C318126   5.259   2.603  10.522  0.3289 -0.3150 -0.5650
  162SOPE    HX18127   5.164   2.617  10.577  0.4525  0.9403 -0.6451
  162SOPE    HY18128   5.253   2.507  10.466 -0.9799 -1.4525  1.3936
  162SOPE   O3118129   5.263   2.719  10.432  0.2032 -0.4738  0.3003
  162SOPE   C3118130   5.329   2.711  10.319 -0.2442 -0.6650  0.6211
  162SOPE   O3218131   5.391   2.614  10.278  0.1650 -0.1447 -0.1868
  162SOPE   C3218132   5.344   2.849  10.257 -0.1596  0.2867 -0.3259
  162SOPE   H2X18133   5.420   2.839  10.177  0.7095  0.3654  0.4657
  162SOPE   H2Y18134   5.391   2.910  10.338  1.4013  2.3483 -2.6494
  162SOPE   C2318135   5.641   2.300  10.349  0.1880  0.3922  0.2830
  162SOPE   H3R18136   5.540   2.253  10.339 -0.2035  0.8948  1.6732
  162SOPE   H3S18137   5.692   2.230  10.419 -0.1404 -3.0591 -2.6083
  162SOPE   C2418138   5.698   2.296  10.213 -0.1088  0.2243 -0.5122
  162SOPE   H4R18139   5.790   2.359  10.217 -0.0169  0.0349  0.8563
  162SOPE   H4S18140   5.729   2.191  10.194  0.8312  0.3417  0.2692
  162SOPE   C2518141   5.614   2.348  10.101  0.0115  0.2470 -0.7388
  162SOPE   H5R18142   5.531   2.275  10.103  0.7450 -0.5935 -0.6629
  162SOPE   H5S18143   5.552   2.440  10.113 -1.0325 -0.4061 -1.0565
  162SOPE   C2618144   5.687   2.353   9.965 -0.6356 -0.1161 -0.3996
  162SOPE   H6R18145   5.773   2.422   9.979 -0.7669 -0.2163  1.0742
  162SOPE   H6S18146   5.735   2.256   9.937 -1.0278  0.1137 -1.9710
  162SOPE   C2718147   5.597   2.411   9.852  1.1916  0.1178  0.4097
  162SOPE   H7R18148   5.660   2.401   9.761  1.5974  3.5276  0.2037
  162SOPE   H7S18149   5.505   2.349   9.842 -0.3808  2.5093 -0.7048
  162SOPE   C2818150   5.545   2.556   9.878 -0.1166  0.5484 -0.7975
  162SOPE   H8R18151   5.496   2.570   9.976 -0.1116  1.4442 -0.9129
  162SOPE   H8S18152   5.628   2.629   9.870 -0.9778  1.6032 -0.3170
  162SOPE   C2918153   5.444   2.593   9.781  0.1217  0.3508 -0.0049
  162SOPE   H9118154   5.343   2.607   9.823 -0.3448  0.4354 -1.1349
  162SOPE  C21018155   5.445   2.617   9.650 -0.1935  0.5704  0.4509
  162SOPE  H10118156   5.345   2.635   9.607 -1.2179 -2.4245  1.3606
  162SOPE  C21118157   5.567   2.624   9.562 -0.0626  1.6542  0.2508
  162SOPE  H11R18158   5.663   2.643   9.616  0.6961 -0.4643 -0.2576
  162SOPE  H11S18159   5.559   2.704   9.485  0.5424 -0.3431 -2.0192
  162SOPE  C21218160   5.594   2.490   9.486  0.2155  0.3080  0.4181
  162SOPE  H12R18161   5.506   2.464   9.422  0.9545 -1.0417 -0.0892
  162SOPE  H12S18162   5.618   2.410   9.559  1.1205  0.7142  0.5702
  162SOPE  C21318163   5.723   2.505   9.396 -0.0600  0.2081 -0.3273
  162SOPE  H13R18164   5.754   2.404   9.361  1.0250  0.8678 -1.3501
  162SOPE  H13S18165   5.807   2.542   9.457 -0.0974  2.3123 -1.4613
  162SOPE  C21418166   5.714   2.592   9.277 -0.6480  0.1992  0.3106
  162SOPE  H14R18167   5.796   2.581   9.204 -1.4155 -3.0604 -0.2067
  162SOPE  H14S18168   5.709   2.699   9.309 -2.5915  0.4554 -0.6790
  162SOPE  C21518169   5.580   2.567   9.201  0.2392  0.7872 -0.1525
  162SOPE  H15R18170   5.495   2.627   9.239  0.8576 -0.1788  3.0648
  162SOPE  H15S18171   5.555   2.459   9.213  1.0964  0.6205  0.2728
  162SOPE  C21618172   5.599   2.567   9.051  0.1314  0.4291 -0.4973
  162SOPE  H16R18173   5.513   2.515   9.004 -0.9342  1.1168  0.6173
  162SOPE  H16S18174   5.689   2.510   9.019 -0.5022 -0.2509 -1.0816
  162SOPE  C21718175   5.593   2.709   8.992 -0.0979  0.1795 -0.5398
  162SOPE  H17R18176   5.510   2.761   9.045 -0.8086 -0.8313 -0.6344
  162SOPE  H17S18177   5.563   2.702   8.885 -2.3505 -0.7137  0.0934
  162SOPE  C21818178   5.728   2.796   9.001  0.5514  0.3748 -0.5212
  162SOPE  H18R18179   5.716   2.884   8.934  3.5406 -0.3441 -2.1703
  162SOPE  H18S18180   5.810   2.745   8.946 -0.5623  1.5049 -3.4371
  162SOPE  H18T18181   5.763   2.828   9.101 -1.3572 -2.9603  1.3910
  162SOPE   C3318182   5.223   2.920  10.203 -0.1699  0.7341  0.7789
  162SOPE   H3X18183   5.246   3.027  10.183  1.3965  0.3479  0.3293
  162SOPE   H3Y18184   5.136   2.907  10.270  0.0222 -3.9176  0.4677
  162SOPE   C3418185   5.180   2.858  10.065 -0.2173 -0.3701 -0.1939
  162SOPE   H4X18186   5.161   2.749  10.079 -1.9280 -0.3366 -1.8235
  162SOPE   H4Y18187   5.259   2.873   9.989 -2.0724  1.6051 -1.8654
  162SOPE   C3518188   5.048   2.918  10.018  0.4308  0.4335 -0.5921
  162SOPE   H5X18189   5.043   3.024  10.049  0.0780  0.7983 -1.8617
  162SOPE   H5Y18190   4.961   2.877  10.074  0.4262 -1.2780 -1.7577
  162SOPE   C3618191   5.026   2.910   9.865  0.1553  0.4150 -0.1086
  162SOPE   H6X18192   5.113   2.936   9.802  0.9246 -2.3205 -0.2802
  162SOPE   H6Y18193   4.941   2.980   9.852 -1.2362 -1.0918  0.4273
  162SOPE   C3718194   4.956   2.779   9.833 -0.9012  0.5776  0.3205
  162SOPE   H7X18195   4.881   2.748   9.909 -0.2463  0.2366  0.8368
  162SOPE   H7Y18196   5.037   2.703   9.845  0.2456  1.7455  0.1826
  162SOPE   C3818197   4.901   2.764   9.689  0.4612 -0.0091  0.9192
  162SOPE   H8X18198   4.840   2.852   9.661  2.4533  1.3147  0.4663
  162SOPE   H8Y18199   4.830   2.679   9.679  0.1311  0.4013 -0.3873
  162SOPE   C3918200   5.015   2.752   9.585 -0.0505  0.7933  0.6227
  162SOPE   H9X18201   5.087   2.677   9.623  0.4283  1.2974  0.7126
  162SOPE   H9Y18202   5.073   2.847   9.585  0.0553  0.7362  1.6456
  162SOPE  C31018203   4.976   2.707   9.441 -0.1991  0.1443 -0.6279
  162SOPE  H10X18204   4.908   2.775   9.386 -1.2658 -0.6862 -0.3471
  162SOPE  H10Y18205   4.934   2.605   9.436 -1.1601  0.5861 -1.9870
  162SOPE  C31118206   5.108   2.697   9.347 -0.8630 -0.5300 -0.1290
  162SOPE  H11X18207   5.183   2.628   9.392 -0.3894 -0.5366 -0.9078
  162SOPE  H11Y18208   5.154   2.797   9.354 -0.3512 -0.7106 -0.8444
  162SOPE  C31218209   5.077   2.661   9.197 -0.6866 -0.0148 -0.3155
  162SOPE  H12X18210   4.984   2.716   9.170 -1.3809 -0.3643  1.2615
  162SOPE  H12Y18211   5.055   2.552   9.198  1.0718 -0.4281  1.5103
  162SOPE  C31318212   5.195   2.684   9.104  0.0299 -0.0585  0.7394
  162SOPE  H13X18213   5.260   2.599   9.132 -0.0968 -0.7037 -0.8020
  162SOPE  H13Y18214   5.256   2.775   9.117  0.6613 -0.2338 -0.7827
  162SOPE  C31418215   5.147   2.677   8.960  1.0196  0.4876  0.3425
  162SOPE  H14X18216   5.100   2.773   8.932 -0.3106 -0.3186 -0.3375
  162SOPE  H14Y18217   5.067   2.600   8.960  0.6335  0.8835 -0.0179
  162SOPE  C31518218   5.256   2.625   8.861  0.1366  0.1539  0.7389
  162SOPE  H15X18219   5.283   2.521   8.890  0.1915 -0.3465 -1.0122
  162SOPE  H15Y18220   5.354   2.674   8.880 -1.2572  2.8606  1.4988
  162SOPE  C31618221   5.206   2.628   8.724  0.0944  0.0404 -0.0417
  162SOPE  H16X18222   5.127   2.551   8.714 -1.2253  1.3302  0.1760
  162SOPE  H16Y18223   5.285   2.607   8.648 -0.0476  1.1750 -0.5223
  162SOPE  C31718224   5.140   2.756   8.678 -0.4020 -0.2081 -0.0215
  162SOPE  H17X18225   5.222   2.831   8.676 -2.5192  2.2131 -0.9638
  162SOPE  H17Y18226   5.057   2.793   8.742  0.6131 -1.4474  2.1428
  162SOPE  C31818227   5.080   2.746   8.537  0.8408 -0.8242  0.0044
  162SOPE  H18X18228   4.979   2.698   8.546  1.1223 -1.2907  0.8584
  162SOPE  H18Y18229   5.144   2.690   8.467 -0.2464 -2.1495  0.0185
  162SOPE  H18Z18230   5.081   2.847   8.492  4.5380 -0.8703 -0.2953
  163SOPE     N18231   1.890   3.690  10.839  0.5001 -0.2498  0.1312
  163SOPE   HN118232   1.907   3.788  10.871 -2.0550  0.1726  0.3459
  163SOPE   HN218233   1.803   3.667  10.891  0.4605 -1.2564 -0.3546
  163SOPE   HN318234   1.970   3.632  10.872 -0.1845 -0.4991  1.4091
  163SOPE   C1218235   1.854   3.683  10.692  0.7807 -0.1868  0.1484
  163SOPE  H12A18236   1.793   3.591  10.679 -0.6815  0.9231 -1.2862
  163SOPE  H12B18237   1.945   3.689  10.629  0.2752 -1.1029 -0.6861
  163SOPE   C1118238   1.762   3.797  10.651  0.5627  0.0860 -0.0461
  163SOPE  H11A18239   1.732   3.777  10.546  0.2435 -3.3958  0.6165
  163SOPE  H11B18240   1.814   3.894  10.669  1.2891 -0.5924  1.7471
  163SOPE     P18241   1.545   3.915  10.726 -0.4550  0.1549  0.0876
  163SOPE   O1318242   1.573   4.003  10.846  0.4822  0.6705 -0.4858
  163SOPE   O1418243   1.405   3.859  10.709 -0.4410 -0.4300  0.3916
  163SOPE   O1218244   1.641   3.796  10.729 -0.0310 -0.3954 -0.2403
  163SOPE   O1118245   1.578   4.002  10.595 -0.2188  0.1987 -0.2611
  163SOPE    C118246   1.520   4.127  10.565  0.5614  0.6354  0.5176
  163SOPE    HA18247   1.517   4.195  10.653  1.3293  4.6983 -2.2774
  163SOPE    HB18248   1.420   4.113  10.519  1.0738  0.2084 -0.4901
  163SOPE    C218249   1.616   4.204  10.467  0.0091 -0.0642 -0.0244
  163SOPE    HS18250   1.588   4.312  10.467  1.2602  0.2891  1.4210
  163SOPE   O2118251   1.604   4.140  10.340 -0.1350  0.0520 -0.5480
  163SOPE   C2118252   1.568   4.210  10.240 -0.8310  0.0077 -0.7015
  163SOPE   O2218253   1.529   4.328  10.243 -0.1861 -0.0013  0.0192
  163SOPE   C2218254   1.596   4.134  10.104  0.0474 -0.0943  0.0484
  163SOPE   H2R18255   1.563   4.030  10.124 -0.8683 -0.2971 -2.1155
  163SOPE   H2S18256   1.700   4.134  10.066  0.7619 -2.0134  1.8705
  163SOPE    C318257   1.758   4.185  10.519 -0.3798  0.2148  0.3656
  163SOPE    HX18258   1.778   4.076  10.524 -0.6505  0.1331 -0.1988
  163SOPE    HY18259   1.750   4.214  10.626 -0.2733 -1.0567  0.7347
  163SOPE   O3118260   1.861   4.255  10.440 -0.5717  0.7169 -1.0923
  163SOPE   C3118261   1.904   4.367  10.491 -0.2175 -0.5147 -0.1517
  163SOPE   O3218262   1.880   4.404  10.604  0.0755  0.0954 -0.7668
  163SOPE   C3218263   1.996   4.443  10.393  0.7115 -0.1839 -0.5070
  163SOPE   H2X18264   2.078   4.372  10.367  0.7889 -1.0162  1.7762
  163SOPE   H2Y18265   2.033   4.526  10.456  0.8997 -1.2096  0.7919
  163SOPE   C2318266   1.500   4.195   9.993  0.3246  1.3579 -0.3835
  163SOPE   H3R18267   1.539   4.297   9.975  0.4977  1.4197  0.3195
  163SOPE   H3S18268   1.400   4.202  10.042 -0.3054 -1.8619 -0.9504
  163SOPE   C2418269   1.488   4.122   9.864  0.1349 -0.3398 -0.0083
  163SOPE   H4R18270   1.425   4.031   9.872  1.0721 -1.0909 -0.9137
  163SOPE   H4S18271   1.439   4.188   9.790  1.7764  0.1866 -0.6589
  163SOPE   C2518272   1.622   4.078   9.808 -0.3192  0.0349 -0.4993
  163SOPE   H5R18273   1.691   4.163   9.790  1.6892 -1.5378 -0.6371
  163SOPE   H5S18274   1.692   4.034   9.882  0.9497  2.2764 -0.2655
  163SOPE   C2618275   1.630   3.990   9.678  0.0992 -0.0040  0.0587
  163SOPE   H6R18276   1.571   3.899   9.701 -1.4532  1.0304  0.3936
  163SOPE   H6S18277   1.584   4.034   9.586  2.4228 -2.4059 -2.4466
  163SOPE   C2718278   1.772   3.960   9.629 -0.0721 -0.2387  0.2214
  163SOPE   H7R18279   1.804   4.064   9.605 -0.8028 -0.0568 -0.0118
  163SOPE   H7S18280   1.834   3.913   9.708 -0.4244 -0.0334  0.6189
  163SOPE   C2818281   1.775   3.870   9.502 -0.2020  0.5622  0.1921
  163SOPE   H8R18282   1.698   3.901   9.428  1.3804  0.3658 -1.6148
  163SOPE   H8S18283   1.870   3.880   9.445 -0.1219 -0.7689  0.0568
  163SOPE   C2918284   1.754   3.723   9.530  0.0729 -0.5118  0.0145
  163SOPE   H9118285   1.816   3.683   9.612  1.1677  0.3669 -0.3648
  163SOPE  C21018286   1.678   3.635   9.460 -0.4751  0.7697 -0.6338
  163SOPE  H10118287   1.666   3.536   9.506  2.6822  0.4355 -0.2919
  163SOPE  C21118288   1.604   3.671   9.336 -0.2066 -0.0033 -0.0323
  163SOPE  H11R18289   1.604   3.781   9.318 -0.7146  0.4099  2.2339
  163SOPE  H11S18290   1.496   3.649   9.351 -0.3924 -0.4624 -1.7359
  163SOPE  C21218291   1.633   3.585   9.211 -0.3567 -0.1953 -0.1625
  163SOPE  H12R18292   1.628   3.480   9.248  1.3534 -0.2326  0.0348
  163SOPE  H12S18293   1.737   3.597   9.174 -0.1060 -1.3148  0.1235
  163SOPE  C21318294   1.534   3.622   9.095  0.1836 -0.1282  0.3458
  163SOPE  H13R18295   1.562   3.727   9.071 -0.3873  0.0058  0.2544
  163SOPE  H13S18296   1.425   3.613   9.114  0.4371 -2.5418  1.0176
  163SOPE  C21418297   1.551   3.530   8.981 -0.0730 -0.2332  0.9890
  163SOPE  H14R18298   1.484   3.443   9.001 -0.5389 -0.0923  0.1058
  163SOPE  H14S18299   1.656   3.491   8.987 -1.0466 -3.4599 -0.4674
  163SOPE  C21518300   1.535   3.601   8.843 -0.1424  0.3887  0.5578
  163SOPE  H15R18301   1.619   3.675   8.839 -0.3446  0.5970 -0.0637
  163SOPE  H15S18302   1.440   3.657   8.831 -0.4912 -0.3179 -0.0165
  163SOPE  C21618303   1.553   3.501   8.721  0.3647 -0.2716 -0.4024
  163SOPE  H16R18304   1.480   3.419   8.740  1.9648 -1.7139 -0.1946
  163SOPE  H16S18305   1.655   3.458   8.725  0.5229  0.0026 -1.2514
  163SOPE  C21718306   1.527   3.555   8.583  0.1333  0.3337  0.1327
  163SOPE  H17R18307   1.596   3.638   8.556  0.5992  0.7129  2.3645
  163SOPE  H17S18308   1.423   3.596   8.581 -1.0609 -2.3928 -1.8805
  163SOPE  C21818309   1.518   3.454   8.471 -0.7152 -0.1138  0.4585
  163SOPE  H18R18310   1.618   3.407   8.458  0.6948  2.5540  1.0107
  163SOPE  H18S18311   1.483   3.500   8.376 -0.3119  1.3920  1.0060
  163SOPE  H18T18312   1.451   3.372   8.502  2.1476 -2.3325  1.2306
  163SOPE   C3318313   1.913   4.491  10.269  0.2666 -0.2190 -0.0758
  163SOPE   H3X18314   1.971   4.577  10.229 -1.9887  1.1497 -0.6010
  163SOPE   H3Y18315   1.825   4.547  10.307  1.1721  1.7464 -0.7184
  163SOPE   C3418316   1.877   4.385  10.165 -0.3209  0.0761  0.2873
  163SOPE   H4X18317   1.786   4.432  10.121 -1.6455  0.2792  2.9833
  163SOPE   H4Y18318   1.846   4.291  10.216  0.9651 -0.1196  0.7512
  163SOPE   C3518319   1.984   4.367  10.051  0.8578 -0.0930  0.5692
  163SOPE   H5X18320   2.078   4.344  10.105  0.1634 -0.1262  1.7999
  163SOPE   H5Y18321   1.983   4.459   9.989  0.1452 -0.3749  0.1504
  163SOPE   C3618322   1.940   4.248   9.955 -0.2674  0.3464 -0.2408
  163SOPE   H6X18323   1.855   4.283   9.893  0.7048  0.5289 -1.5141
  163SOPE   H6Y18324   1.906   4.175  10.031 -1.6436 -0.2436 -1.3948
  163SOPE   C3718325   2.036   4.184   9.855 -0.4874 -0.5015  0.3443
  163SOPE   H7X18326   1.980   4.104   9.801  1.8972 -1.0145 -1.5336
  163SOPE   H7Y18327   2.113   4.122   9.906 -0.6510 -1.4987 -0.5889
  163SOPE   C3818328   2.096   4.292   9.757  0.0405  0.5437 -0.1549
  163SOPE   H8X18329   2.170   4.340   9.825 -2.0216  0.5978  2.1692
  163SOPE   H8Y18330   2.018   4.366   9.732  0.2259  0.5915 -0.6069
  163SOPE   C3918331   2.167   4.235   9.631  0.2579 -0.1791 -0.1978
  163SOPE   H9X18332   2.227   4.150   9.670 -0.4864 -2.1966 -3.1184
  163SOPE   H9Y18333   2.244   4.304   9.592  0.4853 -0.5917 -0.4842
  163SOPE  C31018334   2.069   4.194   9.521 -0.0973 -0.1382  0.1360
  163SOPE  H10X18335   2.020   4.281   9.471  0.5927  0.6560  0.8131
  163SOPE  H10Y18336   1.991   4.128   9.564 -0.0486 -0.9674 -0.9941
  163SOPE  C31118337   2.136   4.106   9.409  0.3920  0.0256 -0.1523
  163SOPE  H11X18338   2.119   4.000   9.440  1.7864 -0.0659  0.3822
  163SOPE  H11Y18339   2.246   4.124   9.404  0.5266 -0.4310  0.9412
  163SOPE  C31218340   2.088   4.134   9.270  0.1805  0.6688  0.0309
  163SOPE  H12X18341   2.151   4.072   9.202 -1.2059 -0.2408 -0.4718
  163SOPE  H12Y18342   2.104   4.241   9.242 -1.0235  0.9146  0.1973
  163SOPE  C31318343   1.944   4.086   9.236  0.3295 -0.6847  0.1163
  163SOPE  H13X18344   1.880   4.160   9.288  0.1102 -0.9609  0.2458
  163SOPE  H13Y18345   1.930   3.987   9.283  0.5917 -0.3538  0.8995
  163SOPE  C31418346   1.904   4.074   9.080  0.0106  0.6398  0.0275
  163SOPE  H14X18347   1.940   4.159   9.018  0.3531  1.2626  1.0625
  163SOPE  H14Y18348   1.794   4.081   9.077 -0.0069  0.1949 -2.5038
  163SOPE  C31518349   1.961   3.950   9.019  0.0985 -0.2332 -0.8466
  163SOPE  H15X18350   1.942   3.862   9.084 -0.7271  0.0246 -0.7244
  163SOPE  H15Y18351   2.072   3.951   9.023  0.1067  1.1174  3.0624
  163SOPE  C31618352   1.924   3.922   8.879  0.1662  0.3875  0.7601
  163SOPE  H16X18353   1.968   3.995   8.807  1.2709 -0.5845  0.4151
  163SOPE  H16Y18354   1.814   3.934   8.870  0.4339  0.9045 -4.1954
  163SOPE  C31718355   1.949   3.774   8.839  0.4973  0.4455  0.1918
  163SOPE  H17X18356   1.908   3.712   8.922 -0.3570  1.2514  0.3930
  163SOPE  H17Y18357   2.059   3.761   8.831  0.4043 -1.5574  1.4427
  163SOPE  C31818358   1.869   3.732   8.715 -0.7226 -0.2934  0.0011
  163SOPE  H18X18359   1.909   3.774   8.620  0.2275 -0.2959  0.3894
  163SOPE  H18Y18360   1.762   3.752   8.738 -0.6441 -1.3443  1.3995
  163SOPE  H18Z18361   1.875   3.622   8.703 -0.3798 -0.2448 -0.2869
  164SOPE     N18362   2.560   3.466  10.974 -0.1525  0.0171 -0.1477
  164SOPE   HN118363   2.642   3.529  10.963  1.3511 -2.1437 -2.5582
  164SOPE   HN218364   2.476   3.521  10.998 -0.8525 -1.9218  2.3062
  164SOPE   HN318365   2.572   3.413  11.063 -1.0523 -0.2050 -0.1528
  164SOPE   C1218366   2.537   3.383  10.852  0.5625 -0.0843 -0.1084
  164SOPE  H12A18367   2.625   3.316  10.842  1.4383  0.9985  0.2323
  164SOPE  H12B18368   2.526   3.460  10.772 -2.6929  0.9669  1.1597
  164SOPE   C1118369   2.420   3.282  10.876 -0.6471 -0.5678 -0.6814
  164SOPE  H11A18370   2.437   3.229  10.972 -0.0269  0.1143 -0.4041
  164SOPE  H11B18371   2.425   3.207  10.794 -2.2612  1.3794 -2.6912
  164SOPE     P18372   2.164   3.314  10.810  0.6393 -0.0554  0.2513
  164SOPE   O1318373   2.093   3.436  10.762  0.0175  0.3849  0.0819
  164SOPE   O1418374   2.085   3.223  10.887  0.3332  0.2970 -0.0086
  164SOPE   O1218375   2.297   3.346  10.890  0.2687  0.2906  0.6225
  164SOPE   O1118376   2.212   3.231  10.685  0.2157 -1.0609  0.4677
  164SOPE    C118377   2.279   3.297  10.570 -0.1245 -0.0151 -0.2977
  164SOPE    HA18378   2.383   3.325  10.599  0.5168 -1.9326 -0.5721
  164SOPE    HB18379   2.220   3.383  10.533  0.2165  0.5343  0.4197
  164SOPE    C218380   2.301   3.202  10.451  0.0461 -0.1971 -0.7169
  164SOPE    HS18381   2.384   3.129  10.457  1.7095  1.3651 -3.0335
  164SOPE   O2118382   2.336   3.276  10.332  0.5378  0.2208  0.2179
  164SOPE   C2118383   2.466   3.302  10.311  0.3396  0.3074 -0.8111
  164SOPE   O2218384   2.550   3.280  10.394  0.0568  0.0358  0.0867
  164SOPE   C2218385   2.474   3.369  10.176 -0.6937 -0.4952  0.0118
  164SOPE   H2R18386   2.475   3.476  10.204 -0.6916 -0.1280 -1.3541
  164SOPE   H2S18387   2.380   3.349  10.119 -1.1875 -0.1274  0.6818
  164SOPE    C318388   2.163   3.121  10.437  0.4028  0.1310  0.0189
  164SOPE    HX18389   2.086   3.195  10.469  1.6783  1.8623 -0.7591
  164SOPE    HY18390   2.152   3.050  10.522  3.6721  0.7801  1.1099
  164SOPE   O3118391   2.142   3.050  10.311  0.1569 -0.2165  0.2071
  164SOPE   C3118392   2.062   3.109  10.225 -0.9845  0.2760 -0.6418
  164SOPE   O3218393   2.008   3.221  10.236 -0.0434  0.5866  0.8664
  164SOPE   C3218394   2.037   3.017  10.103  0.3368 -0.4427  0.9420
  164SOPE   H2X18395   1.928   3.009  10.086  0.4308 -1.5895  0.8087
  164SOPE   H2Y18396   2.061   2.910  10.124  0.8293 -0.5937 -0.2927
  164SOPE   C2318397   2.603   3.326  10.085 -0.4960 -0.2859 -0.1895
  164SOPE   H3R18398   2.694   3.327  10.150 -0.2036 -0.5571 -0.5959
  164SOPE   H3S18399   2.624   3.400  10.005  3.7994  0.2300  1.1477
  164SOPE   C2418400   2.588   3.190  10.024 -0.5024  0.2976  0.1382
  164SOPE   H4R18401   2.690   3.151  10.003 -0.9019 -0.5509 -0.2994
  164SOPE   H4S18402   2.551   3.121  10.103 -2.5722 -1.2858 -2.0752
  164SOPE   C2518403   2.504   3.173   9.892  0.3385 -0.7448 -0.2259
  164SOPE   H5R18404   2.516   3.072   9.847 -1.7603  0.1062 -2.9627
  164SOPE   H5S18405   2.399   3.192   9.922  0.6796 -2.8125  2.7221
  164SOPE   C2618406   2.534   3.274   9.779 -0.0275  0.2193  0.4604
  164SOPE   H6R18407   2.502   3.376   9.809 -1.4110 -0.2418  0.6205
  164SOPE   H6S18408   2.641   3.282   9.751 -0.0855 -2.4813 -0.8237
  164SOPE   C2718409   2.468   3.236   9.646  0.4807 -0.0245  1.0439
  164SOPE   H7R18410   2.501   3.132   9.629 -0.1489 -0.0864  0.1508
  164SOPE   H7S18411   2.357   3.230   9.658  0.5293  0.1073  1.6248
  164SOPE   C2818412   2.511   3.315   9.525  0.0791  0.1048 -0.1943
  164SOPE   H8R18413   2.460   3.413   9.528 -0.3298 -0.1072 -0.2259
  164SOPE   H8S18414   2.621   3.333   9.531  0.7200 -2.9120 -0.9950
  164SOPE   C2918415   2.456   3.260   9.396 -0.3395  0.1706  1.0261
  164SOPE   H9118416   2.353   3.222   9.402 -0.0493 -0.6468  0.9821
  164SOPE  C21018417   2.527   3.238   9.283 -0.5535  0.4794 -0.5053
  164SOPE  H10118418   2.503   3.172   9.198  2.3732  0.2275 -1.2368
  164SOPE  C21118419   2.673   3.272   9.268 -0.1244 -0.6751  0.2760
  164SOPE  H11R18420   2.728   3.206   9.197  2.7480  0.7188  1.0840
  164SOPE  H11S18421   2.725   3.262   9.365 -0.6780  1.3465  0.8249
  164SOPE  C21218422   2.696   3.415   9.221 -0.4025 -0.2511  0.1886
  164SOPE  H12R18423   2.635   3.429   9.129 -1.8753 -2.4270  0.7751
  164SOPE  H12S18424   2.804   3.422   9.196 -0.6079  3.0606 -0.2191
  164SOPE  C21318425   2.671   3.529   9.330 -0.7453  0.6516  0.2867
  164SOPE  H13R18426   2.721   3.488   9.421 -0.1713  2.2795  0.7511
  164SOPE  H13S18427   2.563   3.551   9.344 -0.5584  0.2879  2.7030
  164SOPE  C21418428   2.746   3.659   9.289 -0.1864  0.8875 -0.2403
  164SOPE  H14R18429   2.855   3.649   9.311 -0.5902 -1.1380  1.1445
  164SOPE  H14S18430   2.701   3.731   9.361 -1.0940  0.7467 -0.6582
  164SOPE  C21518431   2.735   3.688   9.138  0.8343  0.5455  0.2895
  164SOPE  H15R18432   2.626   3.700   9.122  0.7888 -1.2292 -1.0076
  164SOPE  H15S18433   2.779   3.617   9.065  0.2690  1.1515 -0.6579
  164SOPE  C21618434   2.810   3.819   9.095  0.2743  0.0640  0.8971
  164SOPE  H16R18435   2.918   3.796   9.100 -0.0812 -2.0540 -0.1561
  164SOPE  H16S18436   2.775   3.893   9.171 -1.3882  0.0022  0.2446
  164SOPE  C21718437   2.762   3.868   8.953  0.0116  0.5443 -0.0146
  164SOPE  H17R18438   2.657   3.892   8.981  0.2638  0.3123  1.2167
  164SOPE  H17S18439   2.757   3.789   8.876 -0.0385 -0.3055  0.8514
  164SOPE  C21818440   2.814   4.000   8.897 -0.0341  0.3499 -0.2497
  164SOPE  H18R18441   2.781   4.078   8.969 -0.1914  1.0863 -1.1043
  164SOPE  H18S18442   2.767   4.032   8.801  0.6978  0.1344 -0.6829
  164SOPE  H18T18443   2.924   3.992   8.883 -0.0941  1.9323 -1.9255
  164SOPE   C3318444   2.125   3.069   9.983  0.5737 -0.0374 -0.3551
  164SOPE   H3X18445   2.234   3.054   9.997  1.0621  0.8114 -2.8251
  164SOPE   H3Y18446   2.114   3.177   9.961 -1.2157 -0.6139 -2.6888
  164SOPE   C3418447   2.078   3.008   9.850  0.5159  0.0699 -1.0053
  164SOPE   H4X18448   1.969   3.026   9.839  0.8896  2.1700 -1.6702
  164SOPE   H4Y18449   2.097   2.899   9.840 -0.6780 -0.2765  0.1135
  164SOPE   C3518450   2.143   3.065   9.719  0.2994  0.6773  0.2220
  164SOPE   H5X18451   2.254   3.071   9.729  0.5210  1.9015 -2.0592
  164SOPE   H5Y18452   2.112   3.171   9.708 -0.2485  0.8628  2.9627
  164SOPE   C3618453   2.086   2.992   9.603 -0.3211  1.0947  0.0513
  164SOPE   H6X18454   1.977   3.012   9.611 -0.1789  2.8632 -1.7530
  164SOPE   H6Y18455   2.108   2.884   9.616  2.5787  1.5675 -0.2040
  164SOPE   C3718456   2.134   3.044   9.468 -0.7266 -0.8366 -0.5676
  164SOPE   H7X18457   2.245   3.036   9.468 -0.8046 -2.4492  0.8255
  164SOPE   H7Y18458   2.095   3.144   9.442  1.5309  0.1267 -0.4329
  164SOPE   C3818459   2.116   2.951   9.344  0.4874 -0.5797  0.3737
  164SOPE   H8X18460   2.008   2.935   9.321  0.8338 -2.6178  0.0082
  164SOPE   H8Y18461   2.159   2.849   9.339  2.3779  0.2257 -0.5207
  164SOPE   C3918462   2.172   3.017   9.213  0.1493 -0.2167 -0.3435
  164SOPE   H9X18463   2.281   3.024   9.234  0.3024 -0.1969 -1.1382
  164SOPE   H9Y18464   2.127   3.118   9.214 -1.1067 -0.7367 -1.5876
  164SOPE  C31018465   2.137   2.947   9.079  0.4713  0.0849  0.0668
  164SOPE  H10X18466   2.155   3.030   9.008 -0.1211  1.9884  2.0244
  164SOPE  H10Y18467   2.026   2.940   9.084  0.3479  1.6510  0.1014
  164SOPE  C31118468   2.192   2.805   9.052 -0.7535 -0.7010  0.6693
  164SOPE  H11X18469   2.120   2.751   8.986 -1.4611  0.4455  0.4597
  164SOPE  H11Y18470   2.187   2.752   9.149 -0.0266  0.9892  1.6795
  164SOPE  C31218471   2.336   2.793   8.999  0.7148 -1.0766 -0.0922
  164SOPE  H12X18472   2.397   2.814   9.089 -0.7189 -1.9913  1.1282
  164SOPE  H12Y18473   2.360   2.872   8.924 -3.4968  1.2761  0.7108
  164SOPE  C31318474   2.369   2.652   8.948 -0.6008 -0.4910 -0.4481
  164SOPE  H13X18475   2.313   2.647   8.853  0.7881 -1.3885 -1.2681
  164SOPE  H13Y18476   2.320   2.587   9.024  0.0161  0.7990  1.1101
  164SOPE  C31418477   2.512   2.622   8.907  0.7243  0.5288  0.0706
  164SOPE  H14X18478   2.522   2.532   8.843 -0.8352 -1.2156  2.0923
  164SOPE  H14Y18479   2.573   2.591   8.995  1.5269 -3.1186 -1.5925
  164SOPE  C31518480   2.580   2.725   8.820 -0.1832  0.2261 -0.1092
  164SOPE  H15X18481   2.558   2.830   8.850 -2.3557 -0.6083  1.4038
  164SOPE  H15Y18482   2.518   2.710   8.730 -0.7672  4.3874 -0.6353
  164SOPE  C31618483   2.727   2.694   8.791  0.1666  0.3133 -0.6945
  164SOPE  H16X18484   2.746   2.585   8.803 -0.6555  0.4391  3.0487
  164SOPE  H16Y18485   2.806   2.739   8.856 -0.0273 -2.8498  2.0170
  164SOPE  C31718486   2.767   2.730   8.647 -0.6523 -0.2412 -0.5489
  164SOPE  H17X18487   2.737   2.650   8.576 -0.6083 -0.0529 -0.7805
  164SOPE  H17Y18488   2.877   2.738   8.649 -0.5912 -0.7187  2.1298
  164SOPE  C31818489   2.713   2.870   8.604  0.1100 -0.0279  0.7145
  164SOPE  H18X18490   2.621   2.909   8.652 -0.1620  2.7014 -1.7340
  164SOPE  H18Y18491   2.678   2.863   8.498  3.9800  0.9100 -0.7711
  164SOPE  H18Z18492   2.794   2.945   8.605  0.9213 -0.8821  2.7740
  165SOPE     N18493   3.120   4.895  11.184  0.0580 -0.1433  0.4842
  165SOPE   HN118494   3.063   4.892  11.271 -1.7534  3.0555 -0.4185
  165SOPE   HN218495   3.217   4.921  11.211  0.1992 -0.4054  0.2363
  165SOPE   HN318496   3.078   4.966  11.119  1.2812  1.9032  1.8180
  165SOPE   C1218497   3.117   4.761  11.111 -0.3593  0.1880 -0.3713
  165SOPE  H12A18498   3.137   4.676  11.181  1.5532  1.2721  0.4571
  165SOPE  H12B18499   3.204   4.764  11.042  0.1533 -0.5976  0.2139
  165SOPE   C1118500   2.993   4.732  11.027  0.8440  0.0557  0.0779
  165SOPE  H11A18501   2.907   4.707  11.093  1.0564  0.3677  0.4778
  165SOPE  H11B18502   3.009   4.641  10.965  0.7939  0.3274 -0.3308
  165SOPE     P18503   2.851   4.830  10.826 -0.1533  0.2497 -0.0427
  165SOPE   O1318504   2.867   4.934  10.728 -0.0084 -0.2195  0.3877
  165SOPE   O1418505   2.726   4.831  10.911  0.0234  0.3964  0.6177
  165SOPE   O1218506   2.964   4.839  10.937  0.0954 -0.4892 -0.6213
  165SOPE   O1118507   2.872   4.691  10.760 -0.8548  0.8358  0.1295
  165SOPE    C118508   2.996   4.629  10.712  0.3724  0.1729 -0.1429
  165SOPE    HA18509   3.008   4.531  10.763 -2.2479  0.5180  1.2671
  165SOPE    HB18510   3.082   4.691  10.747 -0.4799  0.8994  0.7346
  165SOPE    C218511   2.999   4.606  10.558  0.8525  0.8571  0.1148
  165SOPE    HS18512   3.096   4.564  10.523  1.0661  0.6248  0.9798
  165SOPE   O2118513   2.979   4.731  10.485  0.2390  0.0481 -0.6992
  165SOPE   C2118514   3.088   4.804  10.498 -0.2063 -0.4195  0.5001
  165SOPE   O2218515   3.195   4.775  10.552  0.5771 -0.3770  0.2670
  165SOPE   C2218516   3.067   4.929  10.420  0.1762  0.4239  0.8268
  165SOPE   H2R18517   2.972   4.968  10.462  0.1624 -0.5694  1.7602
  165SOPE   H2S18518   3.067   4.902  10.312  2.0556 -0.7570  1.0793
  165SOPE    C318519   2.897   4.496  10.513  0.0086 -0.0810 -0.4173
  165SOPE    HX18520   2.795   4.539  10.508 -0.8534 -1.7955  1.0646
  165SOPE    HY18521   2.898   4.420  10.594 -0.0858  1.7281  1.3624
  165SOPE   O3118522   2.940   4.448  10.384  0.0194 -0.0436  0.0257
  165SOPE   C3118523   2.868   4.344  10.342 -0.0515  0.0668  0.2420
  165SOPE   O3218524   2.786   4.283  10.409  0.0644  0.2140 -0.8584
  165SOPE   C3218525   2.889   4.324  10.191 -0.1247  0.1635 -0.5973
  165SOPE   H2X18526   2.919   4.420  10.143  3.8039  0.3065  1.7278
  165SOPE   H2Y18527   2.789   4.285  10.165 -0.1846 -0.9964  1.1818
  165SOPE   C2318528   3.183   5.036  10.433 -0.3445 -0.2619  0.0727
  165SOPE   H3R18529   3.281   5.003  10.392 -0.3403  1.0209 -0.9866
  165SOPE   H3S18530   3.195   5.041  10.544  0.2886 -1.1217  0.0501
  165SOPE   C2418531   3.138   5.170  10.371  0.1438  0.4447  0.2261
  165SOPE   H4R18532   3.029   5.183  10.386 -0.0290  1.4037 -1.5745
  165SOPE   H4S18533   3.187   5.251  10.430 -3.1156  2.3524  0.5328
  165SOPE   C2518534   3.170   5.194  10.218 -0.5335  0.7918 -0.0353
  165SOPE   H5R18535   3.279   5.179  10.206 -0.2267  3.5842 -1.7620
  165SOPE   H5S18536   3.117   5.111  10.165 -1.3089  1.6473 -0.6490
  165SOPE   C2618537   3.129   5.332  10.157  0.5668  0.4741  1.2934
  165SOPE   H6R18538   3.023   5.351  10.185  0.2276  1.1332 -0.2609
  165SOPE   H6S18539   3.185   5.418  10.199 -0.5113  1.7200  0.3049
  165SOPE   C2718540   3.143   5.327  10.003  0.5837  0.2929 -0.6103
  165SOPE   H7R18541   3.244   5.297   9.967  1.1558  2.7385 -1.2030
  165SOPE   H7S18542   3.071   5.246   9.976 -0.1206  1.0514 -1.0614
  165SOPE   C2818543   3.087   5.458   9.946 -0.5734 -0.7014 -0.2684
  165SOPE   H8R18544   2.983   5.481   9.978 -0.5094 -0.5293 -0.1814
  165SOPE   H8S18545   3.147   5.536   9.997 -0.3813 -0.7320 -0.4468
  165SOPE   C2918546   3.090   5.458   9.798 -0.3595 -0.0916  0.0984
  165SOPE   H9118547   3.168   5.396   9.751 -0.3795  1.1176 -1.6041
  165SOPE  C21018548   3.007   5.517   9.709 -0.1237  0.1178  0.5275
  165SOPE  H10118549   3.045   5.499   9.608 -1.0773 -0.2925  0.2253
  165SOPE  C21118550   2.890   5.612   9.739 -0.2276 -0.1395  0.0035
  165SOPE  H11R18551   2.875   5.631   9.848 -1.5142 -0.6407 -0.0704
  165SOPE  H11S18552   2.801   5.571   9.688 -0.0637  1.8521 -2.0188
  165SOPE  C21218553   2.905   5.755   9.684 -0.1029 -0.8358 -0.1268
  165SOPE  H12R18554   2.978   5.810   9.746 -2.1248 -0.6585  2.2306
  165SOPE  H12S18555   2.818   5.823   9.684 -0.3259 -1.0892 -1.3570
  165SOPE  C21318556   2.918   5.760   9.531  0.0237  1.0831 -0.0398
  165SOPE  H13R18557   2.828   5.716   9.483  1.8313 -1.2467 -1.5540
  165SOPE  H13S18558   3.001   5.700   9.487 -1.6374 -1.2979 -0.1646
  165SOPE  C21418559   2.931   5.902   9.477  0.4667  0.8069  0.2017
  165SOPE  H14R18560   3.020   5.950   9.524  0.5888  0.6574  0.1263
  165SOPE  H14S18561   2.843   5.965   9.501  0.9238  1.2797  0.6781
  165SOPE  C21518562   2.959   5.895   9.323  0.2686 -0.5577 -0.1324
  165SOPE  H15R18563   2.894   5.812   9.289  0.0914  0.3208 -2.0328
  165SOPE  H15S18564   3.066   5.872   9.305  1.0474  1.0958  1.9213
  165SOPE  C21618565   2.904   6.015   9.253  0.5320  0.3090  0.3601
  165SOPE  H16R18566   2.969   6.098   9.290 -0.4852  0.5373  1.7345
  165SOPE  H16S18567   2.799   6.036   9.282  0.6682  0.1474  0.9787
  165SOPE  C21718568   2.909   5.994   9.102 -0.2266 -0.7955 -0.8172
  165SOPE  H17R18569   2.839   5.911   9.076  0.5882 -2.2716  1.4338
  165SOPE  H17S18570   3.014   5.968   9.079  0.7438  0.7997  1.4269
  165SOPE  C21818571   2.858   6.107   9.014  0.5767  0.1064 -0.2753
  165SOPE  H18R18572   2.842   6.061   8.915 -1.1053  0.3827 -0.1531
  165SOPE  H18S18573   2.921   6.198   9.004  0.3411  0.3769  0.6326
  165SOPE  H18T18574   2.760   6.139   9.056  1.3055  1.3322  0.5779
  165SOPE   C3318575   2.995   4.211  10.152  0.3981  0.3923  0.0786
  165SOPE   H3X18576   2.966   4.120  10.207  1.5061 -0.6569 -0.9901
  165SOPE   H3Y18577   3.095   4.249  10.183  2.7136 -3.2988 -2.1436
  165SOPE   C3418578   2.991   4.190  10.006  0.3255  0.0985  0.3346
  165SOPE   H4X18579   2.884   4.182   9.978  1.0857 -2.2457 -2.4338
  165SOPE   H4Y18580   3.029   4.092   9.969  1.1897  0.7553 -0.5538
  165SOPE   C3518581   3.059   4.302   9.914  0.5047  0.7989 -0.2623
  165SOPE   H5X18582   3.168   4.311   9.933  0.4308  0.6580  0.2471
  165SOPE   H5Y18583   3.012   4.399   9.942 -0.4637  0.0908  0.6256
  165SOPE   C3618584   3.046   4.277   9.766 -0.2660 -0.9272 -0.1090
  165SOPE   H6X18585   2.945   4.239   9.740  0.3576 -2.6882 -0.1326
  165SOPE   H6Y18586   3.109   4.188   9.745 -0.6552 -1.1157 -0.4920
  165SOPE   C3718587   3.087   4.399   9.684  0.2325 -0.3388  0.3176
  165SOPE   H7X18588   3.175   4.459   9.714 -0.5928 -0.4027  3.0929
  165SOPE   H7Y18589   3.010   4.474   9.710  0.0749 -0.4654  0.2221
  165SOPE   C3818590   3.080   4.384   9.534  1.2451 -0.0471 -0.1065
  165SOPE   H8X18591   2.992   4.326   9.497  1.4035 -0.9044  0.8103
  165SOPE   H8Y18592   3.163   4.314   9.506  0.3704 -0.8449 -0.7886
  165SOPE   C3918593   3.089   4.520   9.459 -0.3424 -0.3700 -0.2060
  165SOPE   H9X18594   3.177   4.580   9.491 -0.5879  0.8291 -1.6650
  165SOPE   H9Y18595   2.996   4.576   9.484  0.1533 -0.5140  2.2338
  165SOPE  C31018596   3.108   4.484   9.314  0.1900 -0.3402  0.7873
  165SOPE  H10X18597   3.028   4.410   9.291  0.7373 -0.4299 -0.9961
  165SOPE  H10Y18598   3.203   4.429   9.299 -0.1547 -0.9933  0.9370
  165SOPE  C31118599   3.097   4.604   9.218  0.0674 -0.2377 -0.0352
  165SOPE  H11X18600   3.144   4.692   9.266 -0.8193 -0.2404  0.8560
  165SOPE  H11Y18601   2.992   4.631   9.193 -0.6116 -0.8430  1.9933
  165SOPE  C31218602   3.173   4.573   9.083  0.2172 -0.2424  0.3619
  165SOPE  H12X18603   3.137   4.472   9.054  1.1543 -0.5953  0.4018
  165SOPE  H12Y18604   3.280   4.560   9.108  0.7148 -0.8899 -1.9548
  165SOPE  C31318605   3.154   4.677   8.974  0.0579  0.0453  0.4194
  165SOPE  H13X18606   3.199   4.775   9.001  1.7372 -0.8979  1.1830
  165SOPE  H13Y18607   3.046   4.690   8.952  0.5096 -0.0856 -2.3072
  165SOPE  C31418608   3.232   4.641   8.844  0.2582  0.0996  0.1053
  165SOPE  H14X18609   3.333   4.609   8.878  0.8083  3.2644  1.8302
  165SOPE  H14Y18610   3.246   4.729   8.777 -1.2241  2.0658  2.2059
  165SOPE  C31518611   3.175   4.523   8.772 -0.1788  0.5200  0.3885
  165SOPE  H15X18612   3.068   4.546   8.756 -0.3988 -0.4372  0.4216
  165SOPE  H15Y18613   3.181   4.434   8.838 -0.4987  0.2380  0.0362
  165SOPE  C31618614   3.239   4.501   8.634  0.4368 -0.1886 -0.8008
  165SOPE  H16X18615   3.341   4.460   8.650 -0.9118 -3.4544  0.4321
  165SOPE  H16Y18616   3.229   4.597   8.580 -3.2275  0.9662  1.5689
  165SOPE  C31718617   3.156   4.393   8.549 -0.2726  0.2880 -0.5954
  165SOPE  H17X18618   3.167   4.292   8.594 -1.6450  0.3476 -0.0766
  165SOPE  H17Y18619   3.195   4.392   8.445 -0.6402 -2.8146 -0.8135
  165SOPE  C31818620   3.003   4.412   8.540  0.3998  0.1972 -0.1906
  165SOPE  H18X18621   2.944   4.338   8.482  0.1343 -1.2145  1.7699
  165SOPE  H18Y18622   2.978   4.510   8.495 -1.1362 -0.1469 -0.1446
  165SOPE  H18Z18623   2.964   4.413   8.644 -1.1625  3.7444 -0.6657
  166SOPE     N18624   5.776   0.386  10.727 -0.4778 -0.3724  0.0006
  166SOPE   HN118625   5.701   0.427  10.786 -1.3174  0.0057 -1.2907
  166SOPE   HN218626   5.737   0.359  10.634  1.2536  0.8783 -1.1451
  166SOPE   HN318627   5.827   0.305  10.768  2.1076  1.0696 -0.1652
  166SOPE   C1218628   5.878   0.486  10.721 -0.8110 -0.0658 -0.0195
  166SOPE  H12A18629   5.898   0.517  10.826 -2.8664  1.2782  0.0447
  166SOPE  H12B18630   5.824   0.573  10.676 -3.1840 -1.2610  0.3293
  166SOPE   C1118631   5.997   0.438  10.645  0.3100 -0.5647  0.9245
  166SOPE  H11A18632   6.067   0.523  10.660 -1.6788  1.0178  1.5857
  166SOPE  H11B18633   5.988   0.421  10.535  2.7629 -2.2208  0.8691
  166SOPE     P18634   6.157   0.293  10.802  0.2926  0.0199 -0.0954
  166SOPE   O1318635   6.156   0.154  10.848 -0.0202  0.4850 -0.3064
  166SOPE   O1418636   6.149   0.405  10.897  0.5989  0.1711 -0.0354
  166SOPE   O1218637   6.033   0.314  10.701  0.4336  0.3964 -0.7512
  166SOPE   O1118638   6.273   0.323  10.695  0.5310 -0.1115  0.3449
  166SOPE    C118639   6.289   0.215  10.598  0.1103 -0.7232  0.4278
  166SOPE    HA18640   6.245   0.253  10.504  0.2539 -0.9972  0.2445
  166SOPE    HB18641   6.243   0.119  10.630 -0.3055 -0.4594  0.6239
  166SOPE    C218642   6.436   0.177  10.576  0.5994  0.2178  0.2690
  166SOPE    HS18643   6.471   0.146  10.677  2.3874 -0.9469 -0.6612
  166SOPE   O2118644   6.500   0.294  10.518  0.0506 -0.0315  0.8873
  166SOPE   C2118645   6.634   0.301  10.540  0.0098  0.6605 -1.0088
  166SOPE   O2218646   6.702   0.219  10.604  0.0862 -0.1969 -0.0073
  166SOPE   C2218647   6.680   0.421  10.458 -0.2440 -0.6786 -0.3268
  166SOPE   H2R18648   6.700   0.504  10.529  1.4830 -0.7124 -0.7155
  166SOPE   H2S18649   6.607   0.461  10.385  1.7593  0.9944 -1.5282
  166SOPE    C318650   6.458   0.056  10.478  0.0723 -0.1609  0.5320
  166SOPE    HX18651   6.425   0.093  10.379  0.9999 -1.3589 -0.2609
  166SOPE    HY18652   6.396  -0.029  10.514 -2.4458  2.2179  2.1365
  166SOPE   O3118653   6.600   0.009  10.460  0.2043  0.0565 -0.3209
  166SOPE   C3118654   6.646  -0.058  10.569  0.3030 -0.4270  0.0626
  166SOPE   O3218655   6.573  -0.096  10.659  0.1341 -0.3711  0.4821
  166SOPE   C3218656   6.796  -0.071  10.566 -0.8342  0.2548 -0.0199
  166SOPE   H2X18657   6.834  -0.047  10.667  3.1344 -0.3959 -1.1665
  166SOPE   H2Y18658   6.837   0.016  10.510  2.4329 -0.1185  1.5292
  166SOPE   C2318659   6.820   0.394  10.383 -0.0966  0.1450 -0.9990
  166SOPE   H3R18660   6.895   0.359  10.457 -0.7787  0.2419 -0.2433
  166SOPE   H3S18661   6.863   0.484  10.334  0.6799  0.0527 -0.5097
  166SOPE   C2418662   6.802   0.284  10.276  0.2348  0.1443  0.2483
  166SOPE   H4R18663   6.770   0.183  10.311  0.5041 -0.0563 -0.0720
  166SOPE   H4S18664   6.734   0.328  10.200  0.8626  0.3564 -0.1972
  166SOPE   C2518665   6.933   0.249  10.201 -0.1506  0.4163 -0.3872
  166SOPE   H5R18666   6.972   0.347  10.166 -1.4264  2.0232  2.3686
  166SOPE   H5S18667   7.004   0.199  10.269 -1.2817 -2.0161 -0.8931
  166SOPE   C2618668   6.912   0.154  10.075  0.0739 -0.9470 -0.1105
  166SOPE   H6R18669   7.011   0.131  10.031 -1.3226 -1.6096 -3.1068
  166SOPE   H6S18670   6.864   0.058  10.104 -1.9074 -0.0714 -0.3547
  166SOPE   C2718671   6.831   0.221   9.965 -0.5149  0.0702 -1.0329
  166SOPE   H7R18672   6.730   0.245  10.005  0.0503  1.9022 -0.6411
  166SOPE   H7S18673   6.876   0.322   9.966 -2.6993  1.1970  2.9665
  166SOPE   C2818674   6.839   0.147   9.832 -0.5694  0.0292  0.1665
  166SOPE   H8R18675   6.782   0.214   9.764  1.9822  2.6588  0.4427
  166SOPE   H8S18676   6.947   0.144   9.806 -0.3648 -0.0976  1.0268
  166SOPE   C2918677   6.781   0.011   9.834 -0.1181 -0.0086 -0.2240
  166SOPE   H9118678   6.770  -0.035   9.933  1.3436 -0.5198 -0.2707
  166SOPE  C21018679   6.745  -0.061   9.725  0.6878  1.3347 -0.0159
  166SOPE  H10118680   6.711  -0.165   9.730 -0.3538  1.4707 -2.6761
  166SOPE  C21118681   6.762  -0.014   9.583  0.0065  0.2524  0.7821
  166SOPE  H11R18682   6.864  -0.035   9.544 -0.2519  0.1854  0.1214
  166SOPE  H11S18683   6.720   0.087   9.560 -1.3526 -0.2024  1.1396
  166SOPE  C21218684   6.675  -0.119   9.501  0.2273 -0.4591  0.3074
  166SOPE  H12R18685   6.572  -0.129   9.541  0.8545 -0.6301  1.9617
  166SOPE  H12S18686   6.710  -0.224   9.497  0.3494 -0.4093  0.0253
  166SOPE  C21318687   6.652  -0.069   9.358 -0.4563 -0.1986  0.2654
  166SOPE  H13R18688   6.749  -0.062   9.305 -0.4255  0.5603  0.4074
  166SOPE  H13S18689   6.616   0.035   9.366 -0.4562 -0.1589 -0.2327
  166SOPE  C21418690   6.550  -0.148   9.280 -0.1533 -0.4329 -0.2246
  166SOPE  H14R18691   6.453  -0.149   9.335  1.4088  0.6584  2.7859
  166SOPE  H14S18692   6.571  -0.257   9.269  0.8964 -0.3029  0.3488
  166SOPE  C21518693   6.530  -0.095   9.135 -0.0341  0.1755 -0.3185
  166SOPE  H15R18694   6.491  -0.176   9.070 -0.2424  1.0789 -1.3649
  166SOPE  H15S18695   6.628  -0.055   9.100  0.8239 -0.5964  1.1115
  166SOPE  C21618696   6.422   0.014   9.128  0.4019  0.1367 -0.5758
  166SOPE  H16R18697   6.448   0.097   9.197 -0.5551  1.5435 -1.8438
  166SOPE  H16S18698   6.318  -0.014   9.154 -0.1882  0.8467 -2.0401
  166SOPE  C21718699   6.409   0.073   8.990 -0.3217 -0.0896  0.6910
  166SOPE  H17R18700   6.492   0.141   8.961 -0.2473  0.6082  2.3995
  166SOPE  H17S18701   6.314   0.130   8.989 -2.0008 -2.7426 -0.1344
  166SOPE  C21818702   6.400  -0.044   8.886  0.9054 -0.3348  0.4385
  166SOPE  H18R18703   6.491  -0.107   8.880  1.1646  0.1705 -1.3837
  166SOPE  H18S18704   6.381   0.006   8.789  1.5165 -1.7759 -0.4506
  166SOPE  H18T18705   6.315  -0.114   8.903 -0.8040  1.0782 -1.6759
  166SOPE   C3318706   6.843  -0.200  10.500 -0.1635 -0.2262  0.2947
  166SOPE   H3X18707   6.781  -0.288  10.526 -0.6161 -0.5713 -1.7788
  166SOPE   H3Y18708   6.944  -0.234  10.534  1.3722  2.7177 -0.9848
  166SOPE   C3418709   6.860  -0.183  10.348 -0.0865  0.0727  0.8324
  166SOPE   H4X18710   6.920  -0.091  10.330  0.1670 -0.1495  0.5320
  166SOPE   H4Y18711   6.768  -0.175  10.286  1.2819 -0.8125 -1.4391
  166SOPE   C3518712   6.944  -0.297  10.286  1.4851  0.7546 -0.0068
  166SOPE   H5X18713   6.880  -0.388  10.293 -0.6869  2.1032 -1.3629
  166SOPE   H5Y18714   7.035  -0.321  10.345  1.4327 -2.7566 -1.1503
  166SOPE   C3618715   6.976  -0.279  10.136 -0.0255  0.7474  0.1102
  166SOPE   H6X18716   7.079  -0.318  10.117 -0.4747  0.0552 -0.9809
  166SOPE   H6Y18717   6.991  -0.174  10.103  0.2453  0.7341  0.1864
  166SOPE   C3718718   6.877  -0.349  10.048 -0.4702 -0.2549  0.6626
  166SOPE   H7X18719   6.772  -0.314  10.051  0.1286  1.6925  0.4400
  166SOPE   H7Y18720   6.868  -0.459  10.060 -1.8298 -0.4594 -1.5731
  166SOPE   C3818721   6.943  -0.349   9.913 -0.0109 -0.1948  0.0509
  166SOPE   H8X18722   7.042  -0.400   9.913 -0.2812 -0.7675 -1.5935
  166SOPE   H8Y18723   6.960  -0.244   9.883  1.2516 -0.3731  0.0678
  166SOPE   C3918724   6.871  -0.423   9.799  0.0563  0.4778 -0.3195
  166SOPE   H9X18725   6.767  -0.387   9.815 -1.1303 -2.1861 -1.4063
  166SOPE   H9Y18726   6.883  -0.531   9.822  2.9799  0.8651  0.3757
  166SOPE  C31018727   6.915  -0.383   9.660 -0.4354 -0.0392  0.5580
  166SOPE  H10X18728   7.025  -0.389   9.648 -0.4508 -2.1336  1.2128
  166SOPE  H10Y18729   6.884  -0.280   9.631  0.1276 -0.2580 -0.9236
  166SOPE  C31118730   6.853  -0.489   9.566 -0.1559  0.0294  0.0067
  166SOPE  H11X18731   6.742  -0.476   9.558 -0.2122  1.9318  2.4946
  166SOPE  H11Y18732   6.884  -0.590   9.598  0.5640 -0.2074 -1.3673
  166SOPE  C31218733   6.901  -0.482   9.417  0.0607  0.0321 -0.4687
  166SOPE  H12X18734   7.011  -0.502   9.413 -0.0011 -0.3675 -0.2039
  166SOPE  H12Y18735   6.868  -0.382   9.381  0.2698 -0.1987 -1.3380
  166SOPE  C31318736   6.821  -0.576   9.334  0.0885 -0.2466  0.2384
  166SOPE  H13X18737   6.712  -0.561   9.353  0.0595  3.5741 -1.8823
  166SOPE  H13Y18738   6.858  -0.675   9.368  0.8016 -0.1455 -0.2242
  166SOPE  C31418739   6.835  -0.543   9.182 -0.3148 -0.2521 -0.0547
  166SOPE  H14X18740   6.823  -0.638   9.125  1.6161 -1.1699  0.9556
  166SOPE  H14Y18741   6.936  -0.505   9.157 -0.1230  0.0596  1.1320
  166SOPE  C31518742   6.721  -0.458   9.115 -0.3928  0.2760 -0.2834
  166SOPE  H15X18743   6.732  -0.356   9.158  0.3300 -0.6168  1.7546
  166SOPE  H15Y18744   6.623  -0.502   9.143  0.7042 -3.1027 -1.2235
  166SOPE  C31618745   6.722  -0.466   8.963 -0.0428  0.6784  0.7743
  166SOPE  H16X18746   6.633  -0.407   8.931 -0.2000  1.0728  1.8723
  166SOPE  H16Y18747   6.724  -0.569   8.922  2.3122  0.9974 -0.0384
  166SOPE  C31718748   6.837  -0.384   8.905  0.5693 -0.3525  0.2267
  166SOPE  H17X18749   6.931  -0.420   8.952  0.4475 -3.7194 -1.7206
  166SOPE  H17Y18750   6.833  -0.276   8.931 -0.2289 -0.5490  0.9692
  166SOPE  C31818751   6.872  -0.412   8.765  0.5819  0.3616  0.6559
  166SOPE  H18X18752   6.968  -0.361   8.738  1.6050 -1.7257  0.1651
  166SOPE  H18Y18753   6.796  -0.372   8.694  1.9229  0.4972 -0.7916
  166SOPE  H18Z18754   6.888  -0.520   8.749 -0.2591 -0.1046  2.6930
  167SOPE     N18755   6.447   4.633   6.182 -0.4854 -0.5955  0.9789
  167SOPE   HN118756   6.523   4.659   6.115 -1.0697  0.3788  0.6614
  167SOPE   HN218757   6.391   4.554   6.145 -0.8016 -0.3071  0.8400
  167SOPE   HN318758   6.393   4.720   6.200  2.0297  1.2579  0.3230
  167SOPE   C1218759   6.520   4.585   6.308  0.3976  0.1190  0.1214
  167SOPE  H12A18760   6.437   4.558   6.378  0.1204 -1.1354 -0.6694
  167SOPE  H12B18761   6.578   4.672   6.345 -1.2527  0.1462  2.9642
  167SOPE   C1118762   6.610   4.460   6.281  0.0025 -0.6269 -0.2766
  167SOPE  H11A18763   6.546   4.383   6.233 -0.1534 -1.4461  1.1734
  167SOPE  H11B18764   6.657   4.430   6.377  2.0767 -0.9757 -1.3419
  167SOPE     P18765   6.850   4.431   6.170  0.3318  0.5387 -0.1318
  167SOPE   O1318766   6.930   4.495   6.064 -0.3484 -0.3417 -0.7683
  167SOPE   O1418767   6.836   4.281   6.157  0.1889  0.6380 -0.0778
  167SOPE   O1218768   6.711   4.506   6.187 -0.3898  1.0263  0.2811
  167SOPE   O1118769   6.909   4.467   6.315  0.5483  0.1242 -0.4932
  167SOPE    C118770   6.991   4.368   6.386 -0.4023  0.0945  0.5099
  167SOPE    HA18771   7.056   4.432   6.450  0.3651  1.5386 -1.5637
  167SOPE    HB18772   7.060   4.313   6.319  1.7013  1.2827  1.5902
  167SOPE    C218773   6.900   4.278   6.469  0.0768 -0.2757  0.8110
  167SOPE    HS18774   6.815   4.247   6.404  1.0952  0.0396 -0.7203
  167SOPE   O2118775   6.849   4.355   6.580  0.5319  1.1479 -0.3356
  167SOPE   C2118776   6.746   4.297   6.634  0.3322 -0.5483 -0.3185
  167SOPE   O2218777   6.677   4.206   6.590 -0.4445 -0.3084 -0.4557
  167SOPE   C2218778   6.721   4.365   6.774 -0.1031 -0.1396  0.4070
  167SOPE   H2R18779   6.619   4.406   6.760 -0.4859 -1.3739 -0.6056
  167SOPE   H2S18780   6.792   4.450   6.775 -2.4712  2.1727 -3.2439
  167SOPE    C318781   6.986   4.161   6.519 -0.1430 -0.2191 -0.4379
  167SOPE    HX18782   7.036   4.108   6.434  1.8450 -1.0696  1.1703
  167SOPE    HY18783   6.923   4.077   6.557  0.8999 -0.1786  1.5121
  167SOPE   O3118784   7.083   4.195   6.628 -0.1363  0.2586  0.0449
  167SOPE   C3118785   7.208   4.225   6.596 -0.1609  0.5435  0.9403
  167SOPE   O3218786   7.256   4.228   6.479  0.1998  0.1714 -0.3805
  167SOPE   C3218787   7.283   4.251   6.725 -0.0637 -0.6226  0.9987
  167SOPE   H2X18788   7.301   4.156   6.780  0.9097 -2.1681 -1.7980
  167SOPE   H2Y18789   7.209   4.310   6.784  1.2862  2.0703  0.1866
  167SOPE   C2318790   6.732   4.268   6.893  0.8086 -0.1227 -0.1051
  167SOPE   H3R18791   6.840   4.241   6.895  1.5949  2.3610 -2.9366
  167SOPE   H3S18792   6.674   4.176   6.872 -0.3383  0.5040  0.2662
  167SOPE   C2418793   6.686   4.323   7.027  0.1659  0.6984 -0.3004
  167SOPE   H4R18794   6.743   4.414   7.056  0.8903  0.2231 -0.2241
  167SOPE   H4S18795   6.581   4.359   7.018 -0.8223 -2.0629 -0.7905
  167SOPE   C2518796   6.692   4.221   7.144  0.2280 -0.9316 -0.3580
  167SOPE   H5R18797   6.638   4.128   7.117  1.2049 -1.4706 -0.5029
  167SOPE   H5S18798   6.800   4.193   7.145  0.8840  1.3195 -0.2713
  167SOPE   C2618799   6.641   4.283   7.268 -0.2586  0.2685  0.0219
  167SOPE   H6R18800   6.568   4.365   7.252  1.0351  1.1682 -1.5372
  167SOPE   H6S18801   6.590   4.198   7.319  0.3907 -0.2762 -0.2143
  167SOPE   C2718802   6.750   4.323   7.362 -0.6062  0.4870 -0.3531
  167SOPE   H7R18803   6.821   4.238   7.348 -2.8851 -1.1732 -2.8333
  167SOPE   H7S18804   6.798   4.414   7.320  2.1607 -1.5074 -1.8182
  167SOPE   C2818805   6.707   4.333   7.512 -0.1862  0.6081 -0.4094
  167SOPE   H8R18806   6.630   4.412   7.523  1.6016  2.3073  0.4280
  167SOPE   H8S18807   6.654   4.237   7.532 -2.5346  1.8489 -0.4160
  167SOPE   C2918808   6.831   4.363   7.600 -0.8696 -0.0157  0.0530
  167SOPE   H9118809   6.911   4.287   7.592 -2.5254 -1.9864  1.2348
  167SOPE  C21018810   6.835   4.452   7.698 -0.1788  0.2723  0.0938
  167SOPE  H10118811   6.927   4.457   7.758  0.2869  1.0892 -0.6609
  167SOPE  C21118812   6.718   4.535   7.747  0.1690 -0.2039  0.7658
  167SOPE  H11R18813   6.653   4.577   7.668 -2.6840  0.1335  3.0895
  167SOPE  H11S18814   6.760   4.625   7.798 -0.1774  1.1597 -1.2230
  167SOPE  C21218815   6.616   4.452   7.840 -0.1933  0.3196  0.5818
  167SOPE  H12R18816   6.600   4.354   7.789  2.0648  0.8771 -1.4276
  167SOPE  H12S18817   6.519   4.504   7.847 -0.5630 -0.0189 -1.3731
  167SOPE  C21318818   6.668   4.422   7.972 -0.5948 -0.4603 -0.1275
  167SOPE  H13R18819   6.708   4.513   8.022 -0.0022 -2.0094  2.4040
  167SOPE  H13S18820   6.752   4.350   7.966  0.2102  0.3452  1.0835
  167SOPE  C21418821   6.558   4.365   8.065 -0.9123 -0.3368  0.1262
  167SOPE  H14R18822   6.523   4.273   8.014 -0.4012  1.0075 -2.9205
  167SOPE  H14S18823   6.476   4.439   8.080 -0.9594 -0.6762  1.7612
  167SOPE  C21518824   6.612   4.330   8.201  0.8453  0.3358 -0.6009
  167SOPE  H15R18825   6.652   4.419   8.255  0.6670  1.2297 -1.8847
  167SOPE  H15S18826   6.690   4.256   8.176  1.0122  0.9083 -1.8897
  167SOPE  C21618827   6.503   4.261   8.286  0.4716  0.1951  0.0437
  167SOPE  H16R18828   6.430   4.207   8.223  1.3332 -1.9685  0.7719
  167SOPE  H16S18829   6.457   4.348   8.338  1.1642  0.1306  0.7978
  167SOPE  C21718830   6.574   4.164   8.380  0.1539  0.3684  0.4935
  167SOPE  H17R18831   6.642   4.231   8.436 -0.3258  0.3961  1.0515
  167SOPE  H17S18832   6.629   4.085   8.324  1.3801  0.4163  1.5721
  167SOPE  C21818833   6.478   4.086   8.471 -0.0439 -0.1448  0.2232
  167SOPE  H18R18834   6.394   4.054   8.407 -0.7696  2.3756 -0.2004
  167SOPE  H18S18835   6.429   4.152   8.547 -0.7294 -0.5144  0.1138
  167SOPE  H18T18836   6.531   4.000   8.516  0.2539 -0.4410 -0.6860
  167SOPE   C3318837   7.409   4.335   6.696  0.2858  0.3093  0.3637
  167SOPE   H3X18838   7.386   4.421   6.630 -2.3970 -0.6449 -0.0534
  167SOPE   H3Y18839   7.481   4.259   6.657 -0.8736 -1.2140  1.0919
  167SOPE   C3418840   7.472   4.388   6.827  0.0854  0.2968 -0.3017
  167SOPE   H4X18841   7.528   4.305   6.874 -0.3334 -0.3808 -0.9793
  167SOPE   H4Y18842   7.397   4.437   6.894 -0.2007 -1.9352  1.1044
  167SOPE   C3518843   7.566   4.507   6.788  0.6927  0.3805 -0.9316
  167SOPE   H5X18844   7.515   4.601   6.759  0.5583  1.4450  2.3598
  167SOPE   H5Y18845   7.627   4.474   6.701  1.9230 -0.4254  0.2028
  167SOPE   C3618846   7.667   4.533   6.897  0.7012  0.1130 -0.0261
  167SOPE   H6X18847   7.725   4.619   6.857 -0.7735  1.4895  0.7126
  167SOPE   H6Y18848   7.735   4.446   6.916  3.5545  1.7816 -1.8240
  167SOPE   C3718849   7.604   4.587   7.029 -0.5041  0.8210 -0.0567
  167SOPE   H7X18850   7.535   4.518   7.081  0.6356  0.3367  0.8625
  167SOPE   H7Y18851   7.557   4.682   6.996 -0.6144  0.6636 -0.3512
  167SOPE   C3818852   7.719   4.620   7.129 -0.1289 -0.3387  0.1369
  167SOPE   H8X18853   7.794   4.675   7.069 -0.1773  1.4776  1.6566
  167SOPE   H8Y18854   7.760   4.520   7.157 -0.3646 -0.0014  1.7930
  167SOPE   C3918855   7.673   4.695   7.253 -0.8761  0.2778 -0.0193
  167SOPE   H9X18856   7.570   4.659   7.272 -1.3953  1.2807 -0.8198
  167SOPE   H9Y18857   7.656   4.803   7.232  1.6173  0.8569  0.6563
  167SOPE  C31018858   7.774   4.683   7.369 -0.1291  0.4545 -0.0493
  167SOPE  H10X18859   7.869   4.727   7.332 -1.3811  1.2987 -2.4740
  167SOPE  H10Y18860   7.786   4.578   7.403  1.3401  0.3129 -0.9801
  167SOPE  C31118861   7.708   4.770   7.481  0.1027  0.2971 -0.4172
  167SOPE  H11X18862   7.605   4.731   7.491 -0.0589  1.0544  1.0356
  167SOPE  H11Y18863   7.694   4.872   7.438  0.5533  0.7124  0.3976
  167SOPE  C31218864   7.776   4.744   7.614  0.3069 -0.1645  0.5524
  167SOPE  H12X18865   7.886   4.747   7.596 -0.1709  0.1667 -3.0120
  167SOPE  H12Y18866   7.747   4.644   7.652 -2.9688 -0.5706 -2.5453
  167SOPE  C31318867   7.728   4.843   7.722 -0.1934 -0.1062  0.7244
  167SOPE  H13X18868   7.618   4.834   7.733 -0.2499  0.0001  0.2628
  167SOPE  H13Y18869   7.756   4.948   7.702  2.3699 -0.3067  2.8019
  167SOPE  C31418870   7.782   4.798   7.852 -0.2671 -0.0576 -0.8910
  167SOPE  H14X18871   7.891   4.821   7.860 -0.3576 -0.3147  1.9215
  167SOPE  H14Y18872   7.780   4.687   7.858 -0.3228 -0.1983 -2.8632
  167SOPE  C31518873   7.707   4.844   7.983  0.7865  0.0861  0.2620
  167SOPE  H15X18874   7.690   4.954   7.988  1.1594  0.0943  1.5597
  167SOPE  H15Y18875   7.779   4.811   8.061 -1.0872 -2.3438  1.0884
  167SOPE  C31618876   7.576   4.770   8.002 -0.0325 -0.9821 -0.0913
  167SOPE  H16X18877   7.593   4.668   7.963  0.2044 -0.3690 -1.6997
  167SOPE  H16Y18878   7.500   4.820   7.939 -0.3919 -2.6788 -1.0428
  167SOPE  C31718879   7.523   4.778   8.154 -0.1791  0.0928  1.1377
  167SOPE  H17X18880   7.596   4.737   8.226  0.1967 -0.3161  0.5282
  167SOPE  H17Y18881   7.437   4.707   8.156  0.7743 -1.1701 -0.3416
  167SOPE  C31818882   7.476   4.916   8.191 -0.0451 -0.4061 -0.3203
  167SOPE  H18X18883   7.563   4.976   8.156 -1.0046  1.1545 -0.0724
  167SOPE  H18Y18884   7.452   4.925   8.299  0.6084  1.0570 -0.2743
  167SOPE  H18Z18885   7.390   4.944   8.126  0.6513  0.6079 -0.8327
  168SOPE     N18886   0.703   0.867   6.388 -0.0252 -0.1917 -0.3408
  168SOPE   HN118887   0.655   0.928   6.318  1.7375  1.7038  0.0005
  168SOPE   HN218888   0.635   0.859   6.466 -0.7033  1.6010 -0.6881
  168SOPE   HN318889   0.791   0.914   6.417  0.6828 -1.9774  0.4846
  168SOPE   C1218890   0.738   0.732   6.351 -0.7289  0.1411  0.8355
  168SOPE  H12A18891   0.806   0.695   6.430  2.4046  0.4357 -1.5129
  168SOPE  H12B18892   0.810   0.736   6.266  1.8879  1.9413  2.9675
  168SOPE   C1118893   0.621   0.640   6.318  0.4884 -0.4529 -0.7152
  168SOPE  H11A18894   0.652   0.534   6.305 -0.4641 -0.9589  0.7731
  168SOPE  H11B18895   0.595   0.684   6.220  0.0491  0.1338 -0.3419
  168SOPE     P18896   0.396   0.545   6.405  0.3530  0.2890 -0.1596
  168SOPE   O1318897   0.380   0.505   6.264 -0.1420 -0.3016  0.3612
  168SOPE   O1418898   0.273   0.606   6.463 -0.3631 -0.6972 -1.1115
  168SOPE   O1218899   0.507   0.655   6.405 -0.0687 -0.2065  0.6607
  168SOPE   O1118900   0.457   0.426   6.495  0.0398  0.2796  0.1243
  168SOPE    C118901   0.562   0.439   6.591 -0.4150  0.0824  1.2013
  168SOPE    HA18902   0.523   0.445   6.694 -1.9809 -0.9998  0.7028
  168SOPE    HB18903   0.622   0.532   6.578  0.1411 -0.4328 -0.1875
  168SOPE    C218904   0.671   0.327   6.582  0.2763  0.1624 -0.2485
  168SOPE    HS18905   0.674   0.296   6.475 -3.1171  1.3235 -0.8066
  168SOPE   O2118906   0.630   0.227   6.672  0.2738 -0.0026 -0.2890
  168SOPE   C2118907   0.677   0.101   6.647 -0.7110  0.2150 -0.7564
  168SOPE   O2218908   0.750   0.068   6.562 -0.6025  0.3624  0.3180
  168SOPE   C2218909   0.602   0.009   6.743 -0.1370  0.4019 -0.2244
  168SOPE   H2R18910   0.536  -0.056   6.681  1.6304  0.3613 -2.1657
  168SOPE   H2S18911   0.550   0.067   6.822 -0.6955  0.3979 -0.5836
  168SOPE    C318912   0.814   0.374   6.635  0.2730  0.1185 -0.0726
  168SOPE    HX18913   0.859   0.439   6.557 -0.2509 -1.8366 -2.0992
  168SOPE    HY18914   0.880   0.285   6.639 -0.1526 -0.2302 -0.6586
  168SOPE   O3118915   0.800   0.432   6.765  0.4555 -0.3980 -0.3695
  168SOPE   C3118916   0.806   0.343   6.867  0.7116  0.0520  0.1401
  168SOPE   O3218917   0.832   0.227   6.863  0.5155 -0.4976 -0.0880
  168SOPE   C3218918   0.779   0.416   6.996  0.0705  0.1860 -0.0785
  168SOPE   H2X18919   0.686   0.475   6.981 -0.4549 -0.6991 -0.4170
  168SOPE   H2Y18920   0.870   0.477   7.013  0.1619 -0.1482  0.6428
  168SOPE   C2318921   0.702  -0.085   6.821 -0.3151  0.1678  0.5658
  168SOPE   H3R18922   0.780  -0.030   6.879  0.7907 -0.1311 -0.5883
  168SOPE   H3S18923   0.755  -0.141   6.741 -1.1566 -2.1545  1.5615
  168SOPE   C2418924   0.626  -0.173   6.920 -0.0077 -0.1302  0.3223
  168SOPE   H4R18925   0.565  -0.115   6.992 -2.3090 -0.9289 -0.8823
  168SOPE   H4S18926   0.556  -0.228   6.853 -0.5086 -0.1404  0.8400
  168SOPE   C2518927   0.726  -0.265   6.991 -0.4403 -0.1160  0.1418
  168SOPE   H5R18928   0.782  -0.328   6.918 -2.4276 -1.4319 -0.3382
  168SOPE   H5S18929   0.794  -0.201   7.051  0.7851 -0.3427 -0.9494
  168SOPE   C2618930   0.644  -0.358   7.080 -0.4097 -0.3550 -1.0413
  168SOPE   H6R18931   0.565  -0.305   7.136  1.1869  0.1549  0.8639
  168SOPE   H6S18932   0.591  -0.433   7.017  1.0692 -1.1952 -1.3458
  168SOPE   C2718933   0.727  -0.424   7.193  0.3975  0.0534  0.5156
  168SOPE   H7R18934   0.779  -0.513   7.153  1.1264  1.1744 -1.1601
  168SOPE   H7S18935   0.810  -0.357   7.223 -0.4787  0.7490  1.4875
  168SOPE   C2818936   0.646  -0.459   7.318  0.7978  0.1148  0.2540
  168SOPE   H8R18937   0.722  -0.492   7.392  0.1105 -0.3069  0.7768
  168SOPE   H8S18938   0.592  -0.374   7.366 -0.8759 -0.1404 -1.0881
  168SOPE   C2918939   0.545  -0.570   7.288 -0.1299 -0.5158 -0.2420
  168SOPE   H9118940   0.457  -0.530   7.237 -0.9242 -2.5012 -0.5075
  168SOPE  C21018941   0.546  -0.694   7.340 -0.0109  0.2760 -0.1890
  168SOPE  H10118942   0.457  -0.755   7.313  2.1376 -3.0748 -0.3029
  168SOPE  C21118943   0.660  -0.761   7.423  0.9810  0.0040 -0.3541
  168SOPE  H11R18944   0.748  -0.694   7.429 -0.5915  2.0420  1.9469
  168SOPE  H11S18945   0.689  -0.858   7.379 -1.1899 -1.1209  0.5197
  168SOPE  C21218946   0.624  -0.787   7.571  0.0736  0.0473 -0.7377
  168SOPE  H12R18947   0.680  -0.874   7.609 -1.4323 -0.2951  0.8567
  168SOPE  H12S18948   0.514  -0.793   7.588  0.3072  1.1492  1.5891
  168SOPE  C21318949   0.660  -0.666   7.653 -0.0050  0.0269  0.3402
  168SOPE  H13R18950   0.622  -0.573   7.605  1.8115  0.4545 -0.3310
  168SOPE  H13S18951   0.771  -0.671   7.650  0.0395  0.9407 -2.3360
  168SOPE  C21418952   0.607  -0.655   7.795 -0.0360 -0.9806 -0.0682
  168SOPE  H14R18953   0.621  -0.756   7.839 -0.4826 -1.0826 -0.1476
  168SOPE  H14S18954   0.499  -0.626   7.802  0.8844  2.7425  1.2114
  168SOPE  C21518955   0.670  -0.544   7.886 -0.2488  0.7025  1.2442
  168SOPE  H15R18956   0.649  -0.443   7.845 -1.0429 -0.9870 -2.9945
  168SOPE  H15S18957   0.780  -0.557   7.885 -0.4553 -1.3936  1.0876
  168SOPE  C21618958   0.632  -0.562   8.033 -0.2291  0.1465  0.5238
  168SOPE  H16R18959   0.651  -0.666   8.068 -0.8932  0.8746  3.3002
  168SOPE  H16S18960   0.521  -0.564   8.030 -0.2071 -0.0920 -0.5813
  168SOPE  C21718961   0.685  -0.455   8.130  1.0332  0.4112  0.5137
  168SOPE  H17R18962   0.795  -0.462   8.143  1.0568  0.7091  0.4827
  168SOPE  H17S18963   0.643  -0.495   8.224  0.7950 -0.1682  0.1644
  168SOPE  C21818964   0.627  -0.316   8.102 -0.3441  0.0480  0.3083
  168SOPE  H18R18965   0.516  -0.314   8.103 -0.4429 -2.5499 -0.4179
  168SOPE  H18S18966   0.677  -0.295   8.006  0.3326  0.4724  0.7419
  168SOPE  H18T18967   0.665  -0.258   8.190  2.1423  0.6969 -1.0999
  168SOPE   C3318968   0.773   0.326   7.127  0.4615  0.0461  0.4137
  168SOPE   H3X18969   0.845   0.242   7.132 -0.4329 -0.6685  2.3588
  168SOPE   H3Y18970   0.672   0.279   7.132 -0.6941  2.4562  1.2149
  168SOPE   C3418971   0.790   0.404   7.252 -0.5765 -0.7850 -0.5808
  168SOPE   H4X18972   0.697   0.453   7.287  0.6955  0.0546  1.8771
  168SOPE   H4Y18973   0.870   0.479   7.242 -0.3336 -0.8882  0.4138
  168SOPE   C3518974   0.823   0.304   7.370 -0.4872 -0.1438  0.7424
  168SOPE   H5X18975   0.929   0.274   7.353 -1.3324 -2.2546 -1.4037
  168SOPE   H5Y18976   0.759   0.213   7.363 -2.9330  1.5456 -0.4507
  168SOPE   C3618977   0.804   0.361   7.506 -0.5896 -0.1847  0.2855
  168SOPE   H6X18978   0.695   0.380   7.522 -0.6144  0.8035 -0.8407
  168SOPE   H6Y18979   0.866   0.453   7.504  2.3823 -2.0636  0.7108
  168SOPE   C3718980   0.857   0.259   7.616  0.3689 -0.1825  0.1454
  168SOPE   H7X18981   0.966   0.250   7.597  0.7433 -0.3381  2.1293
  168SOPE   H7Y18982   0.812   0.158   7.604  2.9611 -1.5834  1.3055
  168SOPE   C3818983   0.836   0.323   7.756 -0.4799  0.5440  0.3364
  168SOPE   H8X18984   0.730   0.343   7.782 -0.6995 -0.1868  0.0228
  168SOPE   H8Y18985   0.888   0.421   7.758  2.3115 -0.8042 -0.5978
  168SOPE   C3918986   0.897   0.236   7.869 -0.8120 -0.4315  0.1601
  168SOPE   H9X18987   1.006   0.228   7.850 -1.0918  0.5411 -2.3305
  168SOPE   H9Y18988   0.867   0.129   7.862  0.4819 -0.7577 -1.0662
  168SOPE  C31018989   0.864   0.296   8.001  0.1008  0.8549 -0.7437
  168SOPE  H10X18990   0.754   0.314   8.005 -0.1859 -0.7630 -0.7318
  168SOPE  H10Y18991   0.908   0.394   8.027 -1.4195  0.5682  3.9552
  168SOPE  C31118992   0.897   0.206   8.128  0.4757 -0.0729  0.1401
  168SOPE  H11X18993   0.939   0.274   8.204  0.7445  2.7175 -2.3085
  168SOPE  H11Y18994   0.991   0.157   8.092  0.2233 -0.2949 -0.2320
  168SOPE  C31218995   0.796   0.095   8.166  0.2245 -1.0977  0.0514
  168SOPE  H12X18996   0.775   0.041   8.071  0.6495 -1.9622  0.4450
  168SOPE  H12Y18997   0.699   0.142   8.193  0.8500 -0.6500  1.6263
  168SOPE  C31318998   0.841  -0.013   8.263 -0.2963  0.1651 -0.5122
  168SOPE  H13X18999   0.769  -0.093   8.288  0.1618 -0.1915 -0.3207
  168SOPE  H13Y19000   0.841   0.050   8.355  0.1462 -0.8357  0.1827
  168SOPE  C31419001   0.977  -0.085   8.263  0.4314  0.7447 -0.3437
  168SOPE  H14X19002   0.995  -0.128   8.363  0.4907 -0.4188 -0.8330
  168SOPE  H14Y19003   1.048  -0.001   8.249  0.9205  0.6686  1.4709
  168SOPE  C31519004   1.009  -0.193   8.156  0.7304  0.0852  0.1051
  168SOPE  H15X19005   0.995  -0.155   8.053 -2.5169 -2.7819 -0.7097
  168SOPE  H15Y19006   0.935  -0.275   8.169  2.4333 -1.6124 -0.5292
  168SOPE  C31619007   1.153  -0.256   8.181  0.0248  0.0786 -0.2505
  168SOPE  H16X19008   1.160  -0.298   8.283  1.3887  1.6413  0.3432
  168SOPE  H16Y19009   1.223  -0.170   8.183 -1.5997  1.4431  1.0077
  168SOPE  C31719010   1.195  -0.347   8.064 -0.5500  0.1291  0.4140
  168SOPE  H17X19011   1.196  -0.287   7.970 -1.8561 -2.1084 -1.1521
  168SOPE  H17Y19012   1.102  -0.409   8.058 -1.2792  1.2711 -3.5018
  168SOPE  C31819013   1.320  -0.429   8.088  0.6578  0.3862  0.1202
  168SOPE  H18X19014   1.329  -0.514   8.018 -0.8648 -0.1609  0.5427
  168SOPE  H18Y19015   1.299  -0.473   8.188 -1.5636 -0.2196 -0.5563
  168SOPE  H18Z19016   1.409  -0.363   8.090 -0.1153  1.5093 -0.7450
  169SOPE     N19017   3.187   6.573   6.237 -0.2867  0.1422 -0.3927
  169SOPE   HN119018   3.116   6.497   6.241  0.2671 -0.3581  0.3271
  169SOPE   HN219019   3.275   6.517   6.231 -0.5819 -1.1672  3.8900
  169SOPE   HN319020   3.190   6.625   6.327  0.9260 -2.0484  0.9313
  169SOPE   C1219021   3.173   6.654   6.116  0.2573 -0.6357 -0.4253
  169SOPE  H12A19022   3.122   6.591   6.040  1.0417 -1.0528 -0.6154
  169SOPE  H12B19023   3.274   6.684   6.084  0.2349 -0.3145 -0.2034
  169SOPE   C1119024   3.082   6.778   6.139 -0.1043 -0.3602 -0.2889
  169SOPE  H11A19025   3.079   6.825   6.039 -0.9740 -1.6146 -0.8773
  169SOPE  H11B19026   3.129   6.848   6.211 -0.4720  0.4283 -0.8136
  169SOPE     P19027   2.842   6.845   6.214  0.1467  0.0448 -0.2152
  169SOPE   O1319028   2.749   6.787   6.314 -0.2021  0.0018 -0.2171
  169SOPE   O1419029   2.776   6.886   6.084 -0.5768 -0.1360 -0.4709
  169SOPE   O1219030   2.954   6.734   6.175  0.0253 -0.5108 -0.3225
  169SOPE   O1119031   2.903   6.971   6.287  0.2159 -0.0906  0.1605
  169SOPE    C119032   2.968   6.971   6.417 -0.0516 -0.2141 -0.0803
  169SOPE    HA19033   3.050   7.045   6.421  0.8684 -1.0737 -1.8516
  169SOPE    HB19034   3.021   6.879   6.449  1.3640  1.4086  2.5980
  169SOPE    C219035   2.863   7.006   6.522  0.4999 -0.9106  0.7327
  169SOPE    HS19036   2.787   6.926   6.514 -1.6202  0.7727  2.7871
  169SOPE   O2119037   2.808   7.136   6.497 -0.4640 -0.4115  0.1048
  169SOPE   C2119038   2.674   7.148   6.528 -0.8432  0.2940 -0.1223
  169SOPE   O2219039   2.611   7.061   6.576  0.2593  0.5848 -0.1827
  169SOPE   C2219040   2.626   7.295   6.483  1.1499  0.5710  0.0443
  169SOPE   H2R19041   2.575   7.279   6.386 -1.6361  1.0579  1.3288
  169SOPE   H2S19042   2.710   7.365   6.465 -0.7491  3.0202  0.2164
  169SOPE    C319043   2.920   7.006   6.664  0.6544 -0.1672 -1.0145
  169SOPE    HX19044   2.970   7.103   6.681 -1.3874  0.8470 -0.5543
  169SOPE    HY19045   2.997   6.928   6.684  1.2118  0.7901  0.7187
  169SOPE   O3119046   2.812   6.991   6.757  0.3253  0.8671 -0.2049
  169SOPE   C3119047   2.802   6.876   6.838 -0.4803 -0.5824 -0.3683
  169SOPE   O3219048   2.884   6.785   6.824  0.3312 -0.1518  0.4482
  169SOPE   C3219049   2.695   6.887   6.941  0.3182 -0.0683 -0.5289
  169SOPE   H2X19050   2.654   6.784   6.953  1.6127 -0.4036  1.2350
  169SOPE   H2Y19051   2.615   6.964   6.926 -1.5153 -2.1562 -2.2985
  169SOPE   C2319052   2.530   7.362   6.579 -0.3267  0.6304  0.4544
  169SOPE   H3R19053   2.454   7.290   6.618 -1.8626  1.2469 -1.2626
  169SOPE   H3S19054   2.468   7.435   6.523 -0.3701  1.8020  1.9785
  169SOPE   C2419055   2.586   7.422   6.708 -0.4096 -0.0250  0.4883
  169SOPE   H4R19056   2.669   7.483   6.667 -2.2812  0.6344 -2.6645
  169SOPE   H4S19057   2.509   7.487   6.755  0.7331 -0.1551  2.6714
  169SOPE   C2519058   2.643   7.323   6.812  0.6979  0.4307  0.5756
  169SOPE   H5R19059   2.572   7.242   6.838  2.9244 -2.4655 -1.7233
  169SOPE   H5S19060   2.735   7.273   6.773  1.6654  0.2263  2.9666
  169SOPE   C2619061   2.681   7.393   6.942  0.3841 -0.3465 -1.1634
  169SOPE   H6R19062   2.726   7.490   6.910  0.5145  0.2569  0.7336
  169SOPE   H6S19063   2.585   7.416   6.991  1.1724 -1.2655  0.9289
  169SOPE   C2719064   2.778   7.318   7.035 -0.0054 -0.5165  0.5629
  169SOPE   H7R19065   2.742   7.228   7.090 -1.9699 -0.7889 -1.0689
  169SOPE   H7S19066   2.866   7.290   6.973 -1.1426  2.2055 -2.5749
  169SOPE   C2819067   2.832   7.413   7.148  0.0546  0.1280 -0.3980
  169SOPE   H8R19068   2.880   7.496   7.091  1.3770  0.1772  0.7299
  169SOPE   H8S19069   2.740   7.447   7.199  0.1832  1.3846 -0.9692
  169SOPE   C2919070   2.917   7.341   7.252  0.2149 -0.9216 -0.6107
  169SOPE   H9119071   3.003   7.285   7.213  2.5603 -0.7855  3.7641
  169SOPE  C21019072   2.895   7.331   7.386 -0.0779  0.0774 -0.3437
  169SOPE  H10119073   2.973   7.274   7.439 -2.2692 -2.7659  0.0665
  169SOPE  C21119074   2.776   7.380   7.468  0.3559  0.6481 -0.2287
  169SOPE  H11R19075   2.700   7.300   7.474 -1.3361  2.1743 -0.6107
  169SOPE  H11S19076   2.734   7.471   7.419 -1.0896 -0.5248 -1.2400
  169SOPE  C21219077   2.810   7.431   7.613  0.7580 -0.8037  0.4802
  169SOPE  H12R19078   2.743   7.510   7.653 -0.9006 -1.8420 -0.1481
  169SOPE  H12S19079   2.910   7.478   7.609  1.0146 -1.4109 -1.9350
  169SOPE  C21319080   2.822   7.316   7.715 -0.1481  0.3062 -0.4191
  169SOPE  H13R19081   2.896   7.240   7.681  1.7247  1.7736  0.2298
  169SOPE  H13S19082   2.725   7.266   7.738 -1.1771  2.1683 -0.4982
  169SOPE  C21419083   2.861   7.373   7.857 -0.0403  0.3347 -0.6008
  169SOPE  H14R19084   2.769   7.409   7.907  1.5243  1.9886  1.2438
  169SOPE  H14S19085   2.937   7.453   7.846  1.2129 -0.9708 -1.8988
  169SOPE  C21519086   2.923   7.277   7.956 -0.7201  0.8837 -0.7749
  169SOPE  H15R19087   3.020   7.243   7.915  0.8017  1.1478  2.3697
  169SOPE  H15S19088   2.853   7.193   7.980  0.2560  0.2734 -0.0101
  169SOPE  C21619089   2.970   7.343   8.085 -0.0694  0.3173 -0.3530
  169SOPE  H16R19090   2.882   7.365   8.149 -1.1051 -0.7313 -1.3654
  169SOPE  H16S19091   3.018   7.440   8.059 -0.0146  0.9901  1.9928
  169SOPE  C21719092   3.088   7.275   8.170 -0.0371  0.1895 -0.2358
  169SOPE  H17R19093   3.051   7.183   8.220  0.3399  0.7964  1.2243
  169SOPE  H17S19094   3.099   7.344   8.257 -1.4509  0.5719 -0.3392
  169SOPE  C21819095   3.214   7.259   8.092 -0.4255 -0.0808 -0.4401
  169SOPE  H18R19096   3.305   7.216   8.139 -1.5750 -1.0339  1.0188
  169SOPE  H18S19097   3.239   7.354   8.040  0.7403 -0.6834 -1.0314
  169SOPE  H18T19098   3.195   7.189   8.007 -0.3675 -3.1367  1.8829
  169SOPE   C3319099   2.752   6.907   7.083 -0.7741 -0.6747  0.0710
  169SOPE   H3X19100   2.784   7.013   7.091 -0.5257 -0.6613 -0.9216
  169SOPE   H3Y19101   2.846   6.848   7.093 -0.2086  0.0172 -0.9118
  169SOPE   C3419102   2.662   6.877   7.205 -0.0780  0.2809  0.1778
  169SOPE   H4X19103   2.634   6.771   7.188  1.5941  0.0549 -1.4701
  169SOPE   H4Y19104   2.567   6.935   7.203 -0.5187 -0.4286 -1.5270
  169SOPE   C3519105   2.732   6.890   7.350  0.0079 -0.2271  0.3784
  169SOPE   H5X19106   2.758   6.998   7.358 -0.3267 -0.0516 -0.7813
  169SOPE   H5Y19107   2.828   6.835   7.347  1.4361  2.1181 -0.5905
  169SOPE   C3619108   2.646   6.865   7.472  0.0333 -0.0268  0.0217
  169SOPE   H6X19109   2.630   6.758   7.494  2.2197 -0.4167 -0.0934
  169SOPE   H6Y19110   2.549   6.917   7.457  0.6173  0.9688 -0.4703
  169SOPE   C3719111   2.717   6.907   7.601 -0.5634  0.4297  0.8307
  169SOPE   H7X19112   2.780   6.996   7.581  1.4965 -0.8843  1.0846
  169SOPE   H7Y19113   2.797   6.836   7.632  0.7966  2.4150  2.1095
  169SOPE   C3819114   2.618   6.928   7.711  0.0033  0.4711  0.0230
  169SOPE   H8X19115   2.562   7.019   7.683 -0.5911 -0.4015 -1.7922
  169SOPE   H8Y19116   2.560   6.834   7.725 -0.5600  0.9851  1.3192
  169SOPE   C3919117   2.696   6.963   7.837  0.3666 -0.4234 -0.2020
  169SOPE   H9X19118   2.747   7.058   7.809 -1.8663  1.1568  0.7812
  169SOPE   H9Y19119   2.767   6.886   7.873  0.4226  0.5364  1.8821
  169SOPE  C31019120   2.612   6.996   7.958  0.0439  0.9699 -0.9685
  169SOPE  H10X19121   2.674   6.959   8.042 -1.7645  0.2563  0.1125
  169SOPE  H10Y19122   2.531   6.920   7.968  0.0890  1.1385  1.0645
  169SOPE  C31119123   2.553   7.134   7.992 -0.5880  0.2176  0.4983
  169SOPE  H11X19124   2.478   7.146   7.910 -1.3030 -3.8870  0.3219
  169SOPE  H11Y19125   2.626   7.217   7.988 -1.1744  0.7371  0.4277
  169SOPE  C31219126   2.483   7.139   8.129  0.1084 -0.2332  0.3829
  169SOPE  H12X19127   2.558   7.127   8.210 -1.7285  0.2363  2.2107
  169SOPE  H12Y19128   2.402   7.064   8.136 -0.4633 -0.2694 -3.7288
  169SOPE  C31319129   2.417   7.279   8.145  0.5745 -0.4096 -0.1482
  169SOPE  H13X19130   2.324   7.280   8.085  0.6887  1.1501 -0.3561
  169SOPE  H13Y19131   2.492   7.356   8.115 -1.1935  1.0548 -0.9822
  169SOPE  C31419132   2.364   7.308   8.288  0.0671 -0.4315 -0.1976
  169SOPE  H14X19133   2.306   7.403   8.287  0.7825  0.0572  1.2306
  169SOPE  H14Y19134   2.445   7.332   8.360 -2.1025  0.6989  2.0287
  169SOPE  C31519135   2.268   7.196   8.323 -0.6429  0.5959 -0.0573
  169SOPE  H15X19136   2.344   7.118   8.344  2.5840  3.6171  0.4861
  169SOPE  H15Y19137   2.194   7.176   8.243 -0.4841  0.6925 -0.2274
  169SOPE  C31619138   2.190   7.236   8.455 -0.8905 -0.3987  1.0787
  169SOPE  H16X19139   2.100   7.171   8.455 -1.1838  0.0009  1.2750
  169SOPE  H16Y19140   2.155   7.341   8.449  0.3362  0.0129  0.8437
  169SOPE  C31719141   2.256   7.209   8.588  0.3178  0.1969  0.5385
  169SOPE  H17X19142   2.304   7.109   8.587 -0.8186 -0.3650 -0.6826
  169SOPE  H17Y19143   2.183   7.201   8.671  1.1103 -0.9298  1.1549
  169SOPE  C31819144   2.354   7.311   8.640  0.1387 -0.3192 -0.1538
  169SOPE  H18X19145   2.436   7.325   8.567  1.3906  2.0015  1.5551
  169SOPE  H18Y19146   2.401   7.265   8.730 -0.2406 -2.6741 -1.0888
  169SOPE  H18Z19147   2.307   7.411   8.651  1.9092  0.5731 -0.5115
  170SOPE     N19148   5.587   1.404   6.277 -0.1779 -0.2291 -0.6356
  170SOPE   HN119149   5.528   1.329   6.318  0.4045 -0.4067 -0.1044
  170SOPE   HN219150   5.684   1.374   6.253 -0.0254 -1.3234  1.1641
  170SOPE   HN319151   5.586   1.495   6.329  0.4229  0.3474 -1.5920
  170SOPE   C1219152   5.512   1.447   6.155  0.0128  0.7477 -0.4138
  170SOPE  H12A19153   5.519   1.364   6.082 -2.7669  0.5033 -0.5137
  170SOPE  H12B19154   5.562   1.535   6.109  0.1914  0.3458 -1.0041
  170SOPE   C1119155   5.367   1.475   6.189 -0.5200 -0.4333  0.6916
  170SOPE  H11A19156   5.325   1.390   6.247 -1.5479 -0.6871 -0.3956
  170SOPE  H11B19157   5.304   1.487   6.099 -2.2258  0.8246  2.0012
  170SOPE     P19158   5.223   1.648   6.310  0.2676  0.0424 -0.2565
  170SOPE   O1319159   5.130   1.632   6.199  0.0849 -0.4455  0.0946
  170SOPE   O1419160   5.249   1.783   6.363  0.0453  0.1041 -0.3717
  170SOPE   O1219161   5.365   1.591   6.275  0.4070 -0.4810  0.3199
  170SOPE   O1119162   5.177   1.557   6.425  0.4779 -0.0278 -0.6152
  170SOPE    C119163   5.265   1.543   6.540  0.0152  0.5543  0.4907
  170SOPE    HA19164   5.333   1.631   6.547 -1.8025  1.9949  0.8559
  170SOPE    HB19165   5.329   1.454   6.522 -1.1163 -0.3373  0.7944
  170SOPE    C219166   5.199   1.509   6.674  0.1493 -0.1863  0.1957
  170SOPE    HS19167   5.151   1.411   6.652  0.1635 -0.4054  1.0870
  170SOPE   O2119168   5.098   1.605   6.707  0.4542  0.1427  0.6333
  170SOPE   C2119169   4.990   1.556   6.785  0.4304 -0.5901  0.7087
  170SOPE   O2219170   4.983   1.444   6.834  0.6732 -0.1371 -0.1917
  170SOPE   C2219171   4.881   1.660   6.794 -0.1545  0.1872  0.6750
  170SOPE   H2R19172   4.788   1.613   6.833  0.7710 -0.2812  2.4518
  170SOPE   H2S19173   4.854   1.681   6.689 -0.5377  1.5758  1.0365
  170SOPE    C319174   5.307   1.499   6.790  0.0843  0.2539 -1.0672
  170SOPE    HX19175   5.344   1.603   6.805 -0.2665  0.2704 -0.2985
  170SOPE    HY19176   5.394   1.441   6.753  1.0388  0.2502  1.0518
  170SOPE   O3119177   5.256   1.459   6.921 -0.2509 -0.6872  0.3988
  170SOPE   C3119178   5.228   1.329   6.930  0.6439 -0.2089  0.0099
  170SOPE   O3219179   5.265   1.248   6.850 -0.4011  0.3031 -0.2086
  170SOPE   C3219180   5.177   1.303   7.071 -0.7730  0.4321 -0.1457
  170SOPE   H2X19181   5.256   1.257   7.133  0.4673  3.6276  0.8740
  170SOPE   H2Y19182   5.095   1.228   7.069  1.0301 -1.7543  1.8974
  170SOPE   C2319183   4.929   1.787   6.871 -0.5004 -0.1423 -0.4247
  170SOPE   H3R19184   4.853   1.866   6.855  0.0430 -0.0576 -3.1898
  170SOPE   H3S19185   5.012   1.836   6.816 -2.0651  4.9809  1.2068
  170SOPE   C2419186   4.969   1.763   7.018  0.3442 -0.1148  0.4351
  170SOPE   H4R19187   4.889   1.692   7.050 -0.7011 -0.0593 -1.8638
  170SOPE   H4S19188   5.068   1.715   7.029  0.8991  0.5023 -1.5288
  170SOPE   C2519189   4.957   1.887   7.106  0.1003  1.0424  0.4927
  170SOPE   H5R19190   5.032   1.962   7.074  1.5325 -0.4126  0.2950
  170SOPE   H5S19191   4.857   1.935   7.099 -0.2781  0.2965  0.6359
  170SOPE   C2619192   4.977   1.855   7.258  0.8458  0.0319  0.4704
  170SOPE   H6R19193   4.905   1.774   7.283 -0.1385  0.1338 -1.7916
  170SOPE   H6S19194   5.084   1.825   7.272  1.0219  1.1656  1.6592
  170SOPE   C2719195   4.954   1.973   7.347 -0.2575  0.0902 -0.2513
  170SOPE   H7R19196   5.025   2.055   7.328 -1.7553  1.4128 -0.3457
  170SOPE   H7S19197   4.848   2.007   7.337 -0.6431 -1.0137 -0.0944
  170SOPE   C2819198   4.977   1.934   7.496 -0.2829  0.2090  0.5109
  170SOPE   H8R19199   4.925   1.840   7.526  3.4013 -1.9251  0.7272
  170SOPE   H8S19200   5.084   1.906   7.503 -0.0965  0.0283 -2.1090
  170SOPE   C2919201   4.925   2.050   7.583 -0.0081 -0.2339  0.1641
  170SOPE   H9119202   4.873   2.135   7.536 -0.7579 -0.7737 -0.0156
  170SOPE  C21019203   4.950   2.051   7.715 -0.0909  0.1515 -0.1399
  170SOPE  H10119204   4.920   2.141   7.770 -3.5497 -0.4402 -0.8070
  170SOPE  C21119205   5.032   1.949   7.796  0.4418 -0.8381 -0.4503
  170SOPE  H11R19206   5.093   1.894   7.721  0.1545  0.1534 -1.4382
  170SOPE  H11S19207   4.950   1.881   7.829  0.3476  0.2163  1.6173
  170SOPE  C21219208   5.116   1.998   7.912 -0.4048 -0.3348 -0.6737
  170SOPE  H12R19209   5.185   2.083   7.891 -1.4568  0.5749 -0.5398
  170SOPE  H12S19210   5.182   1.923   7.960  0.1976  0.1308 -0.7548
  170SOPE  C21319211   5.025   2.045   8.028 -0.7588  0.7501  0.1821
  170SOPE  H13R19212   4.965   1.956   8.060  0.4962  0.4510  1.7974
  170SOPE  H13S19213   4.961   2.133   8.006  1.5140  2.0638 -1.5201
  170SOPE  C21419214   5.102   2.095   8.154 -0.5836  0.1604  0.8595
  170SOPE  H14R19215   5.177   2.171   8.125 -0.4946 -1.3017 -3.3023
  170SOPE  H14S19216   5.159   2.011   8.199  0.7180  1.1438  1.1219
  170SOPE  C21519217   4.999   2.150   8.250 -0.8673  0.2835  0.0590
  170SOPE  H15R19218   4.910   2.085   8.263 -0.6310  0.2209  1.6088
  170SOPE  H15S19219   4.967   2.250   8.215  2.3669  0.9918 -1.2202
  170SOPE  C21619220   5.065   2.170   8.388 -0.4503 -0.8329 -0.6434
  170SOPE  H16R19221   5.108   2.080   8.437  0.5753  0.7664  1.5402
  170SOPE  H16S19222   4.989   2.215   8.455  1.7585 -0.7497  1.9517
  170SOPE  C21719223   5.183   2.271   8.393 -0.4817  0.0639  0.3000
  170SOPE  H17R19224   5.156   2.367   8.345 -0.1491 -0.7519 -1.6596
  170SOPE  H17S19225   5.273   2.233   8.339 -0.5686  1.6398 -1.0129
  170SOPE  C21819226   5.238   2.297   8.537  0.1537  0.2643 -0.7366
  170SOPE  H18R19227   5.316   2.376   8.525  3.3185 -2.6650 -1.1211
  170SOPE  H18S19228   5.287   2.210   8.585  0.0828  0.5238 -0.1921
  170SOPE  H18T19229   5.156   2.321   8.607 -1.0638 -2.5882 -1.0706
  170SOPE   C3319230   5.116   1.430   7.143 -0.4825 -0.1788 -0.4151
  170SOPE   H3X19231   5.009   1.426   7.114 -0.5458 -0.5828 -0.1359
  170SOPE   H3Y19232   5.154   1.528   7.109 -1.2347 -0.0058 -0.7892
  170SOPE   C3419233   5.119   1.417   7.298 -0.1694  0.1904 -0.0592
  170SOPE   H4X19234   5.225   1.391   7.321  0.5319  2.5994 -0.2876
  170SOPE   H4Y19235   5.048   1.343   7.339 -0.8944 -0.2600 -2.0180
  170SOPE   C3519236   5.094   1.553   7.373  0.4112  0.5744 -0.3356
  170SOPE   H5X19237   4.993   1.594   7.353  1.4635  3.6505  0.1216
  170SOPE   H5Y19238   5.173   1.622   7.337  0.3392  0.8875  0.1026
  170SOPE   C3619239   5.119   1.543   7.524 -0.4751  0.1581  0.1094
  170SOPE   H6X19240   5.147   1.640   7.569  3.5862  0.3087 -2.1887
  170SOPE   H6Y19241   5.213   1.486   7.544  0.3509  1.5232  0.2777
  170SOPE   C3719242   4.999   1.483   7.608 -0.3651 -0.1923  0.2283
  170SOPE   H7X19243   4.972   1.386   7.562 -3.3664  1.3540 -1.5654
  170SOPE   H7Y19244   4.910   1.549   7.600  1.1998  1.8009 -2.2721
  170SOPE   C3819245   5.039   1.461   7.756 -0.2672  0.8940  0.0513
  170SOPE   H8X19246   5.114   1.381   7.771 -1.7463 -0.8000 -1.1725
  170SOPE   H8Y19247   4.951   1.410   7.800 -1.3455  1.0745 -1.8121
  170SOPE   C3919248   5.077   1.580   7.840  0.6763 -0.8257  0.0721
  170SOPE   H9X19249   4.991   1.649   7.831  0.3875 -1.2026 -0.0733
  170SOPE   H9Y19250   5.166   1.629   7.796 -0.8527  2.5546  0.4516
  170SOPE  C31019251   5.093   1.540   7.994 -0.0796  0.0405  0.9131
  170SOPE  H10X19252   5.187   1.484   8.011  1.4230  2.3685  0.8696
  170SOPE  H10Y19253   5.010   1.469   8.008 -0.2390 -0.2768 -1.3614
  170SOPE  C31119254   5.086   1.667   8.080 -0.2528 -0.1312 -0.7783
  170SOPE  H11X19255   4.992   1.719   8.054 -0.6165 -1.1402 -1.5253
  170SOPE  H11Y19256   5.171   1.738   8.068 -0.8094  0.7358  0.2333
  170SOPE  C31219257   5.081   1.633   8.223 -0.7912  0.6448  0.1700
  170SOPE  H12X19258   5.174   1.577   8.248 -0.4572  0.3087 -1.6556
  170SOPE  H12Y19259   4.995   1.570   8.252 -0.5274 -0.8759 -2.1428
  170SOPE  C31319260   5.076   1.758   8.313 -0.5505  0.0437 -0.7612
  170SOPE  H13X19261   4.981   1.816   8.315  0.5894  2.0172  2.0563
  170SOPE  H13Y19262   5.160   1.832   8.308 -1.2655  0.8378 -1.3518
  170SOPE  C31419263   5.078   1.706   8.450 -0.8021 -0.1912  0.1320
  170SOPE  H14X19264   5.165   1.643   8.478  0.0800  1.7168  1.9912
  170SOPE  H14Y19265   4.996   1.632   8.457 -0.3046 -0.5954  2.6562
  170SOPE  C31519266   5.048   1.812   8.557 -0.1141  0.5080 -0.5520
  170SOPE  H15X19267   4.961   1.873   8.527 -0.0262  0.1017 -1.6819
  170SOPE  H15Y19268   5.129   1.885   8.577 -1.3169  1.5419  0.7599
  170SOPE  C31619269   5.007   1.731   8.683 -1.0068  0.7358 -0.4362
  170SOPE  H16X19270   5.097   1.726   8.749 -0.7264  0.7305 -0.8181
  170SOPE  H16Y19271   4.976   1.630   8.650  2.6628 -0.0553 -1.8843
  170SOPE  C31719272   4.892   1.789   8.770 -0.1185 -0.6350  0.0706
  170SOPE  H17X19273   4.854   1.714   8.843  0.0439 -1.0244 -0.2443
  170SOPE  H17Y19274   4.804   1.800   8.702 -0.3485  1.9502  0.6806
  170SOPE  C31819275   4.929   1.925   8.831  0.8990 -0.0807 -0.5309
  170SOPE  H18X19276   4.839   1.962   8.885 -0.5807 -2.2506 -1.3684
  170SOPE  H18Y19277   4.952   1.999   8.751 -1.8001  0.6320 -0.7608
  170SOPE  H18Z19278   5.014   1.912   8.901  0.8256 -0.8922 -0.5925
  171SOPE     N19279   1.868   4.603   6.181  0.0237  0.3750 -0.3206
  171SOPE   HN119280   1.917   4.512   6.170  2.4190  1.5385  0.0403
  171SOPE   HN219281   1.768   4.587   6.155  0.9081 -2.1969 -2.6117
  171SOPE   HN319282   1.903   4.670   6.110  0.7318 -1.1169 -1.4332
  171SOPE   C1219283   1.891   4.642   6.328  0.1899 -0.5075  0.1014
  171SOPE  H12A19284   1.998   4.640   6.355 -0.2405 -2.4923  1.9578
  171SOPE  H12B19285   1.827   4.578   6.392 -1.0713 -0.9372 -1.5200
  171SOPE   C1119286   1.847   4.790   6.351 -0.4007  0.1870 -0.1546
  171SOPE  H11A19287   1.867   4.824   6.455 -0.9523  0.8432 -0.2496
  171SOPE  H11B19288   1.736   4.798   6.355 -0.2330  4.4912  0.8385
  171SOPE     P19289   2.044   4.939   6.260  0.0360 -0.0723  0.2576
  171SOPE   O1319290   2.106   4.947   6.132 -0.1234  0.1752  0.1614
  171SOPE   O1419291   2.120   4.864   6.371 -0.3844 -0.1250  0.1042
  171SOPE   O1219292   1.895   4.883   6.248  0.1650 -0.0170 -0.1005
  171SOPE   O1119293   2.022   5.090   6.313 -0.7756  0.1733 -0.5192
  171SOPE    C119294   1.977   5.115   6.437  0.0109  0.9557  0.1010
  171SOPE    HA19295   1.904   5.037   6.468 -0.6681  1.4915 -0.1242
  171SOPE    HB19296   1.922   5.211   6.437  1.8993  2.0842  0.0838
  171SOPE    C219297   2.095   5.135   6.542 -0.8177  0.4575 -0.8964
  171SOPE    HS19298   2.166   5.050   6.542  3.3402  3.5974 -1.8887
  171SOPE   O2119299   2.035   5.178   6.666  0.7662  0.4037  0.1962
  171SOPE   C2119300   2.058   5.105   6.765  0.0512 -0.3263 -0.1966
  171SOPE   O2219301   2.114   5.001   6.778 -0.6280 -0.8913  0.1530
  171SOPE   C2219302   2.021   5.187   6.888  0.5172  0.2517 -0.0402
  171SOPE   H2R19303   1.925   5.143   6.924  1.4209 -0.2457  1.9104
  171SOPE   H2S19304   2.002   5.294   6.866 -0.6584  0.5679  2.1307
  171SOPE    C319305   2.201   5.238   6.501  0.1888  0.3802  0.9378
  171SOPE    HX19306   2.151   5.334   6.475 -1.1373 -0.7022 -0.7355
  171SOPE    HY19307   2.246   5.200   6.407  0.7530 -0.0447  1.3684
  171SOPE   O3119308   2.303   5.247   6.607  0.4101  0.1996  0.2272
  171SOPE   C3119309   2.380   5.352   6.590 -0.6859  0.2908  0.0534
  171SOPE   O3219310   2.372   5.437   6.506 -0.1530  0.0264  0.1705
  171SOPE   C3219311   2.463   5.369   6.712  0.2555 -1.3879  0.3469
  171SOPE   H2X19312   2.545   5.439   6.687 -0.0018 -0.6881  1.3465
  171SOPE   H2Y19313   2.495   5.270   6.749  0.2426 -0.8607  1.8429
  171SOPE   C2319314   2.116   5.172   7.002 -0.2354 -0.2480 -0.3510
  171SOPE   H3R19315   2.219   5.208   6.979 -0.6531  1.1598 -0.1200
  171SOPE   H3S19316   2.123   5.065   7.030 -1.1725 -0.7623 -1.9490
  171SOPE   C2419317   2.081   5.251   7.132 -0.2997  0.8964  0.2888
  171SOPE   H4R19318   2.056   5.354   7.100 -1.0692  0.2238 -1.4729
  171SOPE   H4S19319   1.991   5.212   7.184 -0.4072  0.5923 -0.1127
  171SOPE   C2519320   2.195   5.241   7.241 -0.1213 -0.4569  0.8443
  171SOPE   H5R19321   2.212   5.133   7.261  1.5867 -0.7032 -1.4811
  171SOPE   H5S19322   2.294   5.283   7.213 -1.2261  1.5290 -0.3540
  171SOPE   C2619323   2.143   5.310   7.367  0.4471 -0.2864  0.7043
  171SOPE   H6R19324   2.076   5.394   7.339 -0.2631 -1.4013 -1.1383
  171SOPE   H6S19325   2.083   5.230   7.416  0.9126 -2.5432 -2.1209
  171SOPE   C2719326   2.268   5.365   7.442  0.2480  0.4479 -0.0982
  171SOPE   H7R19327   2.350   5.293   7.465  0.4172  1.3332  2.3053
  171SOPE   H7S19328   2.310   5.434   7.365 -0.0832  1.3267  0.4956
  171SOPE   C2819329   2.250   5.453   7.557  0.1809  0.1467  0.0304
  171SOPE   H8R19330   2.352   5.494   7.574  0.6679  0.6579 -3.4445
  171SOPE   H8S19331   2.171   5.529   7.547 -1.2001 -1.1476  0.6380
  171SOPE   C2919332   2.208   5.368   7.677  0.6836 -0.1051 -0.1518
  171SOPE   H9119333   2.144   5.279   7.666 -0.5279  0.7993 -0.6611
  171SOPE  C21019334   2.238   5.406   7.803  0.3883  0.0692 -0.0298
  171SOPE  H10119335   2.217   5.339   7.887 -1.7690  2.7329  1.7661
  171SOPE  C21119336   2.311   5.531   7.838 -0.4557  0.1495 -1.0758
  171SOPE  H11R19337   2.270   5.583   7.927  0.6875 -0.2735 -0.2723
  171SOPE  H11S19338   2.296   5.601   7.753  0.2408 -1.3716 -2.5023
  171SOPE  C21219339   2.460   5.492   7.873  0.9078 -0.0207  0.6420
  171SOPE  H12R19340   2.515   5.587   7.879  0.4182  0.3618 -0.6059
  171SOPE  H12S19341   2.498   5.438   7.783  2.2017  1.2118  0.4358
  171SOPE  C21319342   2.454   5.412   8.005  0.1077 -0.6838 -0.3587
  171SOPE  H13R19343   2.421   5.306   7.994 -0.5112 -0.3106 -2.6017
  171SOPE  H13S19344   2.401   5.457   8.092 -0.3993 -1.4430 -0.2639
  171SOPE  C21419345   2.589   5.411   8.066 -0.6943 -0.5951  0.1480
  171SOPE  H14R19346   2.587   5.366   8.168  1.7388 -1.8623 -0.2763
  171SOPE  H14S19347   2.630   5.510   8.094  3.5891 -2.2272  0.4721
  171SOPE  C21519348   2.701   5.359   7.979  0.0650  0.2812 -0.0546
  171SOPE  H15R19349   2.722   5.422   7.890  2.9537  2.5993  2.0885
  171SOPE  H15S19350   2.680   5.262   7.929  2.0386  0.0591 -0.5159
  171SOPE  C21619351   2.844   5.352   8.043 -0.1028  0.4261  0.5190
  171SOPE  H16R19352   2.888   5.454   8.038  0.8588  0.0556  1.0491
  171SOPE  H16S19353   2.897   5.278   7.981 -1.3096 -1.4087  1.5708
  171SOPE  C21719354   2.843   5.297   8.185 -0.7025 -0.3247  0.2792
  171SOPE  H17R19355   2.815   5.190   8.183  0.7931 -0.7339 -1.0631
  171SOPE  H17S19356   2.764   5.349   8.243  0.5711  3.0513 -0.7700
  171SOPE  C21819357   2.983   5.308   8.242  0.2049 -0.7458 -0.2151
  171SOPE  H18R19358   2.986   5.276   8.349 -1.1157 -1.6865 -0.4401
  171SOPE  H18S19359   3.026   5.410   8.238 -0.2285 -0.5197  0.5726
  171SOPE  H18T19360   3.059   5.249   8.187  2.5652  0.7892  1.1924
  171SOPE   C3319361   2.381   5.420   6.828  0.1449 -0.2856 -0.1861
  171SOPE   H3X19362   2.310   5.341   6.861 -1.9159  1.4596 -0.1655
  171SOPE   H3Y19363   2.332   5.516   6.802  0.4970  0.2658  1.0930
  171SOPE   C3419364   2.477   5.454   6.945 -0.2889  0.4742 -0.2200
  171SOPE   H4X19365   2.431   5.486   7.041 -1.7074 -2.1270  0.0509
  171SOPE   H4Y19366   2.544   5.535   6.908 -0.0911  0.0221 -0.8749
  171SOPE   C3519367   2.560   5.325   6.996  0.4133  0.1843  0.2277
  171SOPE   H5X19368   2.619   5.279   6.913  0.4035 -0.0117  0.3297
  171SOPE   H5Y19369   2.492   5.250   7.040  0.4049  1.2939  2.2133
  171SOPE   C3619370   2.658   5.365   7.110 -0.3779 -0.2896 -0.1138
  171SOPE   H6X19371   2.732   5.444   7.084  0.1251 -0.1449  1.6154
  171SOPE   H6Y19372   2.714   5.270   7.124  1.0218  0.6320  0.8377
  171SOPE   C3719373   2.587   5.421   7.231  0.0601  0.1327  0.1135
  171SOPE   H7X19374   2.498   5.356   7.245 -1.0005  1.4060 -0.5251
  171SOPE   H7Y19375   2.533   5.516   7.209  1.8524  1.2629  0.3993
  171SOPE   C3819376   2.675   5.448   7.347  0.5156  0.2052 -0.0773
  171SOPE   H8X19377   2.624   5.513   7.421  0.6843  0.8049 -0.4801
  171SOPE   H8Y19378   2.762   5.511   7.316  0.9837 -1.1237 -1.5781
  171SOPE   C3919379   2.720   5.324   7.431  0.7414  0.1207  0.2815
  171SOPE   H9X19380   2.803   5.275   7.375 -1.1471 -1.7442 -1.0447
  171SOPE   H9Y19381   2.640   5.247   7.428 -0.2365  1.1404 -0.6063
  171SOPE  C31019382   2.763   5.339   7.576  0.6594  0.3917  0.0514
  171SOPE  H10X19383   2.794   5.239   7.614  0.0242 -0.5769 -1.8458
  171SOPE  H10Y19384   2.680   5.377   7.639 -0.9974 -0.1532 -1.7025
  171SOPE  C31119385   2.888   5.427   7.591  0.2673  0.0166  0.1515
  171SOPE  H11X19386   2.924   5.435   7.696  1.1146 -2.0772  0.0722
  171SOPE  H11Y19387   2.858   5.532   7.568 -0.3331 -0.3266 -0.6624
  171SOPE  C31219388   3.012   5.377   7.506  0.6068  0.1327 -0.2678
  171SOPE  H12X19389   2.990   5.400   7.399  1.6396  1.6306 -0.1925
  171SOPE  H12Y19390   3.012   5.267   7.522  0.3124  0.0370 -0.8914
  171SOPE  C31319391   3.142   5.451   7.543  0.4675 -0.0422  0.3628
  171SOPE  H13X19392   3.218   5.411   7.472  1.8391  2.1612  0.4899
  171SOPE  H13Y19393   3.170   5.402   7.639  1.4056  1.7531  1.0424
  171SOPE  C31419394   3.137   5.600   7.531 -0.5230  0.4674 -0.2341
  171SOPE  H14X19395   3.075   5.646   7.611 -0.5272  0.6745 -0.3556
  171SOPE  H14Y19396   3.084   5.618   7.435 -0.6591 -1.1768 -0.4918
  171SOPE  C31519397   3.277   5.669   7.525 -0.0023 -0.4486  0.1213
  171SOPE  H15X19398   3.343   5.645   7.438  0.4454 -0.9516  0.5943
  171SOPE  H15Y19399   3.325   5.670   7.625  1.5673  1.9805 -0.5422
  171SOPE  C31619400   3.244   5.820   7.507  0.8573  0.0173 -0.2890
  171SOPE  H16X19401   3.181   5.863   7.587  0.6688  2.4061 -1.6082
  171SOPE  H16Y19402   3.189   5.839   7.413  1.8990  1.0713 -0.7158
  171SOPE  C31719403   3.372   5.906   7.492  0.2423  0.5334  0.1275
  171SOPE  H17X19404   3.325   6.006   7.475  0.0976  0.3401 -0.6384
  171SOPE  H17Y19405   3.396   5.870   7.390 -2.3257  0.0326 -0.3590
  171SOPE  C31819406   3.480   5.908   7.599 -0.1868  0.2480 -0.1035
  171SOPE  H18X19407   3.562   5.971   7.558 -0.4893 -0.3660 -1.7290
  171SOPE  H18Y19408   3.515   5.803   7.610 -1.2611 -0.1575 -0.4583
  171SOPE  H18Z19409   3.445   5.940   7.699  0.6393  1.3801 -0.1516
  172SOPE     N19410   3.771   6.348   6.643  0.2360  0.0560  0.2496
  172SOPE   HN119411   3.857   6.345   6.703 -0.3605 -0.2413  1.1170
  172SOPE   HN219412   3.699   6.394   6.703 -0.9301 -1.9640  0.4977
  172SOPE   HN319413   3.741   6.249   6.630  0.3095  0.0349  0.2386
  172SOPE   C1219414   3.808   6.411   6.509  0.1785  0.3155 -0.1672
  172SOPE  H12A19415   3.849   6.332   6.444  0.7392 -0.4474  1.0765
  172SOPE  H12B19416   3.889   6.484   6.529  0.5557  0.0876 -0.8630
  172SOPE   C1119417   3.693   6.488   6.444  0.1308  0.2275 -0.3351
  172SOPE  H11A19418   3.733   6.513   6.344 -1.0443 -0.5587 -1.0284
  172SOPE  H11B19419   3.685   6.582   6.503  2.2243  1.1197 -1.3771
  172SOPE     P19420   3.514   6.356   6.315 -0.5611  0.4014  0.1362
  172SOPE   O1319421   3.609   6.251   6.258  0.1180 -0.1981 -0.4330
  172SOPE   O1419422   3.478   6.472   6.234 -0.1498 -0.3875 -1.2983
  172SOPE   O1219423   3.579   6.410   6.447 -0.0126  0.0322 -0.1738
  172SOPE   O1119424   3.386   6.290   6.381 -0.5791 -0.4670  0.6882
  172SOPE    C119425   3.298   6.354   6.470  0.2543 -0.0028  0.4146
  172SOPE    HA19426   3.194   6.354   6.431  0.5971  0.2715 -0.5176
  172SOPE    HB19427   3.318   6.463   6.476  0.8077 -0.1750  3.0074
  172SOPE    C219428   3.316   6.313   6.614  0.3415 -0.2546 -0.4209
  172SOPE    HS19429   3.420   6.273   6.622 -0.6906 -3.1639 -0.6327
  172SOPE   O2119430   3.220   6.219   6.658  1.0896 -0.0745  0.4779
  172SOPE   C2119431   3.280   6.125   6.732  0.3062  0.0385  0.4512
  172SOPE   O2219432   3.396   6.093   6.739 -0.2798  0.6998  0.0317
  172SOPE   C2219433   3.165   6.069   6.814 -0.4357  0.3501  0.3046
  172SOPE   H2R19434   3.153   5.969   6.767 -1.4939  0.4106  0.4176
  172SOPE   H2S19435   3.069   6.123   6.803 -0.5426 -0.1221 -1.3824
  172SOPE    C319436   3.294   6.432   6.704 -0.2766  0.6347  0.3869
  172SOPE    HX19437   3.186   6.455   6.706  0.2169  3.4007  0.2503
  172SOPE    HY19438   3.337   6.532   6.678 -1.1765  1.8206  3.0738
  172SOPE   O3119439   3.350   6.410   6.836 -0.0523  0.0486  0.0616
  172SOPE   C3119440   3.483   6.414   6.851  0.8862 -0.0577  0.3366
  172SOPE   O3219441   3.561   6.449   6.767  0.4510 -0.4775 -0.4621
  172SOPE   C3219442   3.516   6.383   6.999  0.0267 -0.0047  0.3318
  172SOPE   H2X19443   3.555   6.278   7.002 -0.0264 -0.0106  2.8345
  172SOPE   H2Y19444   3.426   6.389   7.063  0.0340  0.6981  0.2771
  172SOPE   C2319445   3.195   6.062   6.964 -0.1680  1.0722 -0.7634
  172SOPE   H3R19446   3.288   6.004   6.981 -0.5861  0.5202 -0.3154
  172SOPE   H3S19447   3.123   5.990   7.008  4.2194 -1.7681  2.7091
  172SOPE   C2419448   3.185   6.195   7.041  0.3574  0.3475 -0.2914
  172SOPE   H4R19449   3.255   6.266   6.994 -1.4650  0.5524 -2.8838
  172SOPE   H4S19450   3.092   6.251   7.016  0.0038  0.1967  0.6256
  172SOPE   C2519451   3.203   6.168   7.193  0.6326 -0.0992  0.0316
  172SOPE   H5R19452   3.124   6.104   7.237 -2.1646  3.3736  0.5228
  172SOPE   H5S19453   3.304   6.126   7.213  1.0319 -1.1427 -3.5465
  172SOPE   C2619454   3.197   6.304   7.264 -0.4994 -0.6899  0.0371
  172SOPE   H6R19455   3.293   6.358   7.249 -0.5627 -0.7283 -0.5413
  172SOPE   H6S19456   3.104   6.357   7.233 -0.7066  0.1375  1.9579
  172SOPE   C2719457   3.190   6.293   7.418 -0.2561  0.3508  0.3421
  172SOPE   H7R19458   3.293   6.257   7.439 -0.6600 -0.3338  1.2335
  172SOPE   H7S19459   3.179   6.394   7.465 -2.4660  0.8263 -1.0518
  172SOPE   C2819460   3.084   6.197   7.480  0.2683  0.6113  0.2883
  172SOPE   H8R19461   3.000   6.193   7.408  0.5188  2.2291 -0.1239
  172SOPE   H8S19462   3.121   6.092   7.488 -2.2537 -0.3026  0.9132
  172SOPE   C2919463   3.030   6.249   7.610  0.6072  0.1156  0.1666
  172SOPE   H9119464   2.954   6.322   7.579  2.8963  1.9608 -1.4857
  172SOPE  C21019465   3.074   6.216   7.734 -0.3644 -0.1589  0.4373
  172SOPE  H10119466   3.025   6.266   7.819 -1.0134 -0.1307  0.0569
  172SOPE  C21119467   3.182   6.123   7.777  0.2964  0.1305  0.1618
  172SOPE  H11R19468   3.251   6.181   7.843  1.6062 -0.9021 -0.2562
  172SOPE  H11S19469   3.238   6.079   7.692  0.7111  3.5249 -1.4659
  172SOPE  C21219470   3.122   6.016   7.873 -0.5957 -0.8257 -0.0019
  172SOPE  H12R19471   3.050   5.944   7.830 -0.4274 -0.7651 -0.3943
  172SOPE  H12S19472   3.068   6.064   7.957 -1.7154 -1.2146 -0.4887
  172SOPE  C21319473   3.234   5.938   7.928  0.1621  0.1242 -0.2387
  172SOPE  H13R19474   3.316   5.989   7.983  1.4880 -3.3935  1.3271
  172SOPE  H13S19475   3.282   5.877   7.848  3.7610 -0.0520  1.8743
  172SOPE  C21419476   3.182   5.820   8.020  0.1781 -0.3564  1.2648
  172SOPE  H14R19477   3.097   5.769   7.969  2.1377 -1.3185 -1.2554
  172SOPE  H14S19478   3.157   5.866   8.118 -0.4297  1.7430  0.1884
  172SOPE  C21519479   3.288   5.716   8.045  0.4367 -0.0394 -0.2625
  172SOPE  H15R19480   3.382   5.757   8.087 -1.0492  1.0067  2.3003
  172SOPE  H15S19481   3.308   5.657   7.953 -1.1331  1.5518 -1.7023
  172SOPE  C21619482   3.245   5.610   8.154 -0.0812  0.3721  0.1458
  172SOPE  H16R19483   3.140   5.578   8.138  0.0054 -0.5438  1.2830
  172SOPE  H16S19484   3.252   5.663   8.251 -1.1636  1.8239 -0.5338
  172SOPE  C21719485   3.344   5.495   8.152 -0.1983  0.1988  0.1698
  172SOPE  H17R19486   3.441   5.548   8.153 -0.4750  0.6995  0.9575
  172SOPE  H17S19487   3.346   5.444   8.053  1.6463  0.9459 -0.2173
  172SOPE  C21819488   3.337   5.402   8.275  0.0857  0.0675  0.5455
  172SOPE  H18R19489   3.343   5.471   8.361 -1.9655  1.4766 -0.3653
  172SOPE  H18S19490   3.423   5.332   8.272  2.7081  3.0712  1.0711
  172SOPE  H18T19491   3.243   5.343   8.288  0.8155 -0.6283  3.1951
  172SOPE   C3319492   3.628   6.479   7.048 -0.1821  0.1998 -0.5247
  172SOPE   H3X19493   3.600   6.586   7.060 -0.4388 -0.0039  0.8504
  172SOPE   H3Y19494   3.713   6.484   6.975  0.0682  2.5433 -0.1757
  172SOPE   C3419495   3.687   6.443   7.189  0.1612  0.8767  0.2316
  172SOPE   H4X19496   3.768   6.516   7.209  2.0842 -0.8187 -0.9440
  172SOPE   H4Y19497   3.736   6.344   7.175  1.2243  1.2498  1.2337
  172SOPE   C3519498   3.586   6.441   7.299 -0.6956 -0.4820  0.6294
  172SOPE   H5X19499   3.525   6.348   7.297 -2.5671  0.6817  1.4174
  172SOPE   H5Y19500   3.517   6.525   7.280  1.0528  1.5650  2.7936
  172SOPE   C3619501   3.647   6.451   7.441  0.3964  0.3129 -0.2248
  172SOPE   H6X19502   3.704   6.545   7.459  0.7799  0.3272 -1.4184
  172SOPE   H6Y19503   3.714   6.366   7.466 -0.4364  0.5798  3.3605
  172SOPE   C3719504   3.537   6.430   7.554 -0.4127  0.1191 -0.4501
  172SOPE   H7X19505   3.462   6.352   7.528  1.2814 -2.3630  1.6224
  172SOPE   H7Y19506   3.470   6.517   7.572  1.6944  1.4329  1.5047
  172SOPE   C3819507   3.601   6.397   7.688  0.3495  0.1847 -0.0080
  172SOPE   H8X19508   3.627   6.494   7.736 -2.9988  1.0052  0.3955
  172SOPE   H8Y19509   3.699   6.344   7.688  0.3804  0.1212  2.4454
  172SOPE   C3919510   3.502   6.318   7.782 -0.2023  0.2398  1.0109
  172SOPE   H9X19511   3.496   6.214   7.741  2.3585  0.7547 -0.9092
  172SOPE   H9Y19512   3.396   6.352   7.773  0.1534  1.0388 -0.5753
  172SOPE  C31019513   3.543   6.313   7.932 -0.5615 -0.2265  0.4548
  172SOPE  H10X19514   3.547   6.416   7.975  2.7379 -0.3771  0.7214
  172SOPE  H10Y19515   3.644   6.268   7.936 -0.6865 -0.4151  2.3331
  172SOPE  C31119516   3.458   6.227   8.026  0.2987  0.1895  0.3911
  172SOPE  H11X19517   3.462   6.123   7.987 -0.7758  0.4953 -0.5884
  172SOPE  H11Y19518   3.353   6.260   8.012 -0.3139 -2.2157 -1.1847
  172SOPE  C31219519   3.509   6.216   8.173 -0.0279  0.1992 -0.7141
  172SOPE  H12X19520   3.560   6.310   8.202 -3.6650  1.1307  3.8806
  172SOPE  H12Y19521   3.585   6.135   8.169 -2.6413 -2.3467 -2.3762
  172SOPE  C31319522   3.403   6.198   8.282  0.0283  0.4236  0.8055
  172SOPE  H13X19523   3.317   6.267   8.268 -0.2291  0.1604  1.0828
  172SOPE  H13Y19524   3.449   6.232   8.378 -2.3788 -0.8765  2.5051
  172SOPE  C31419525   3.340   6.060   8.294 -0.0418  0.3883  0.0753
  172SOPE  H14X19526   3.420   5.986   8.274  0.6904  0.8727  1.1124
  172SOPE  H14Y19527   3.267   6.048   8.211 -0.9035  0.7121  0.7594
  172SOPE  C31519528   3.273   6.041   8.428  0.1849  0.4426  0.0040
  172SOPE  H15X19529   3.257   6.138   8.479  0.7845 -0.5337  2.1896
  172SOPE  H15Y19530   3.341   5.988   8.498 -3.5185 -3.3739  1.1738
  172SOPE  C31619531   3.149   5.945   8.417 -0.1284  0.6413 -0.0484
  172SOPE  H16X19532   3.188   5.842   8.397  0.7751  0.5059  2.1413
  172SOPE  H16Y19533   3.083   5.991   8.341  0.1668  0.0200 -0.6983
  172SOPE  C31719534   3.064   5.945   8.539 -1.1936 -0.3749 -0.8514
  172SOPE  H17X19535   3.009   6.038   8.563  0.6773  0.9467 -1.4961
  172SOPE  H17Y19536   3.146   5.929   8.612 -0.2851  0.0129 -1.7734
  172SOPE  C31819537   2.971   5.822   8.528  0.6248 -0.0092 -0.4040
  172SOPE  H18X19538   2.901   5.840   8.444  0.0890  1.5384  0.3226
  172SOPE  H18Y19539   2.898   5.808   8.611  0.8654  0.6571 -0.0696
  172SOPE  H18Z19540   3.028   5.729   8.510  3.1375  1.1374  1.0952
  173SAPI   C1219541   5.514   4.467  10.633  0.6340  0.3902 -0.7635
  173SAPI    H219542   5.606   4.424  10.588  1.4467  1.1888  0.0795
  173SAPI    O219543   5.519   4.605  10.611 -0.3967 -0.4374 -0.3070
  173SAPI   HO219544   5.602   4.637  10.575 -1.5627 -0.6370 -3.4851
  173SAPI   C1319545   5.399   4.417  10.554  0.2880 -0.1343  0.0162
  173SAPI    H319546   5.401   4.306  10.557  1.7397 -0.1486 -0.5749
  173SAPI    O319547   5.405   4.441  10.412 -0.1923 -0.0492 -0.2361
  173SAPI   HO319548   5.402   4.537  10.406  0.0361  0.0776  1.3334
  173SAPI   C1419549   5.269   4.473  10.611 -0.2492  0.2149 -0.0576
  173SAPI    H419550   5.274   4.584  10.605  0.2305  0.1236 -1.6664
  173SAPI    O419551   5.151   4.438  10.532  0.1458 -0.3902 -0.0530
  173SAPI   HO419552   5.113   4.518  10.498  0.6589  0.2483  0.8276
  173SAPI   C1519553   5.242   4.442  10.756 -0.3824 -0.6386 -0.5964
  173SAPI    H519554   5.229   4.332  10.754  0.3207 -0.7667 -3.8563
  173SAPI    O519555   5.124   4.504  10.800  0.0656 -0.1520 -0.5529
  173SAPI   HO519556   5.114   4.592  10.763  0.2892 -0.0887 -0.4612
  173SAPI   C1619557   5.365   4.476  10.839  0.4813 -0.0760 -0.5013
  173SAPI    H619558   5.385   4.586  10.836  1.3341 -0.1610  0.9226
  173SAPI    O619559   5.352   4.444  10.978  0.0152  0.5527  0.4862
  173SAPI   HO619560   5.381   4.353  10.990 -0.0092  0.5538  0.5522
  173SAPI   C1119561   5.497   4.425  10.779 -0.5487  0.3189  0.6253
  173SAPI    H119562   5.498   4.315  10.791 -1.9848  0.2819  0.6503
  173SAPI     P19563   5.760   4.396  10.858  0.6058 -0.5414 -0.0201
  173SAPI   O1319564   5.737   4.258  10.904 -0.6172  0.2364 -0.2745
  173SAPI   O1419565   5.851   4.475  10.944  0.1230  0.6676 -0.0626
  173SAPI   O1219566   5.613   4.471  10.856  0.3043 -0.1107 -0.2388
  173SAPI   O1119567   5.821   4.385  10.710  0.2371 -0.1386  0.3993
  173SAPI    C119568   5.940   4.310  10.683 -0.1631  0.1897 -0.7598
  173SAPI    HA19569   6.022   4.360  10.738 -1.7536  3.0773 -0.8346
  173SAPI    HB19570   5.933   4.201  10.704 -1.0426 -0.0460 -2.1800
  173SAPI    C219571   5.993   4.336  10.535  0.0209 -0.2635 -0.7898
  173SAPI    HS19572   6.015   4.445  10.531 -0.9839  0.0306  0.7417
  173SAPI   O2119573   5.897   4.288  10.439 -0.2767  0.4238 -0.0985
  173SAPI   C2119574   5.827   4.376  10.379 -0.5140  0.0110  0.0096
  173SAPI   O2219575   5.845   4.497  10.384  0.5337  0.8773  0.3142
  173SAPI   C2219576   5.725   4.315  10.286 -0.6912  0.2694  0.8109
  173SAPI   H2R19577   5.657   4.246  10.341  0.3826 -1.1198  0.4720
  173SAPI   H2S19578   5.647   4.377  10.236 -0.8526 -1.6687 -1.5701
  173SAPI    C319579   6.127   4.250  10.519 -0.1377  0.7252  0.4207
  173SAPI    HX19580   6.095   4.145  10.536  2.3504  0.3477  3.8422
  173SAPI    HY19581   6.194   4.259  10.606 -1.0423 -2.8586  1.6369
  173SAPI   O3119582   6.188   4.247  10.385 -0.4476 -0.5176 -0.1614
  173SAPI   C3119583   6.278   4.348  10.374 -0.0769 -0.5744  0.3167
  173SAPI   O3219584   6.312   4.425  10.465  0.1839  0.0364  0.4536
  173SAPI   C3219585   6.329   4.358  10.228  0.5434  0.8635 -0.2309
  173SAPI   H2X19586   6.419   4.421  10.243  0.7822  0.0188  2.1121
  173SAPI   H2Y19587   6.246   4.415  10.180  1.3504  1.5891 -0.8000
  173SAPI   C2319588   5.798   4.225  10.185  0.3401  0.3368  1.1532
  173SAPI   H3R19589   5.719   4.193  10.113  3.0082 -0.5736 -1.6284
  173SAPI   H3S19590   5.838   4.138  10.242 -3.8811 -1.9082  1.0620
  173SAPI   C2419591   5.898   4.304  10.089  0.2474  0.5051 -0.0783
  173SAPI   H4R19592   5.970   4.344  10.163  1.9757 -2.3394 -0.0763
  173SAPI   H4S19593   5.847   4.399  10.059 -0.3908  0.1538 -0.1213
  173SAPI   C2519594   5.968   4.234   9.975  0.2321  0.4164  0.9223
  173SAPI   H5R19595   6.037   4.158  10.016 -0.7152  0.4659  2.6903
  173SAPI   C2619596   5.950   4.258   9.844 -0.3016  0.1485 -0.5705
  173SAPI   H6R19597   6.020   4.204   9.779  1.9473  3.2814 -1.0062
  173SAPI   C2719598   5.857   4.358   9.779  0.3910 -0.1911  0.8459
  173SAPI   H7R19599   5.770   4.381   9.844 -0.3465  0.4642 -0.3146
  173SAPI   H7S19600   5.823   4.292   9.696  1.1627  1.1766 -0.6270
  173SAPI   C2819601   5.930   4.478   9.727 -0.5506  0.5471 -0.5090
  173SAPI   H8R19602   5.949   4.558   9.800  0.5927  0.3217 -0.5509
  173SAPI   C2919603   5.970   4.494   9.596  0.4659 -0.6695 -0.1802
  173SAPI   H9R19604   6.022   4.582   9.555 -1.1327  0.7267  0.6533
  173SAPI  C21019605   5.953   4.402   9.474  0.2102  0.1248 -1.1361
  173SAPI  H10R19606   5.858   4.427   9.422  0.8989  2.7025 -1.3099
  173SAPI  H10S19607   5.954   4.295   9.501 -1.0351 -0.1954 -2.2789
  173SAPI  C21119608   6.052   4.425   9.367  0.1713 -0.0814  0.0916
  173SAPI  H11R19609   6.155   4.442   9.399  0.0407  1.2005 -0.1474
  173SAPI  C21219610   6.030   4.431   9.229 -0.1334  0.0284  0.4743
  173SAPI  H12R19611   6.113   4.449   9.159  1.5064  0.1098  2.3407
  173SAPI  C21319612   5.897   4.407   9.170 -0.2375 -1.0230 -0.1419
  173SAPI  H13R19613   5.839   4.351   9.247  0.3285  2.3419  2.9606
  173SAPI  H13S19614   5.892   4.351   9.074 -1.0246  2.4521 -2.2918
  173SAPI  C21419615   5.814   4.535   9.159  0.0472 -0.2585  0.2532
  173SAPI  H14R19616   5.787   4.572   9.259  0.7350  0.8678  0.0480
  173SAPI  C21519617   5.777   4.601   9.044 -0.2590 -0.0577  0.4472
  173SAPI  H15R19618   5.717   4.693   9.045 -1.1130 -0.5174 -1.9578
  173SAPI  C21619619   5.819   4.567   8.910  0.3510  0.3150  0.5374
  173SAPI  H16R19620   5.729   4.552   8.847  1.3589 -0.1091 -0.8266
  173SAPI  H16S19621   5.874   4.471   8.901 -0.7617 -0.2954  0.0279
  173SAPI  C21719622   5.912   4.674   8.849  0.4718 -0.6019  0.0469
  173SAPI  H17R19623   6.009   4.689   8.901 -0.7287  1.4789  1.8519
  173SAPI  H17S19624   5.866   4.774   8.860  1.6630 -0.2722  2.6797
  173SAPI  C21819625   5.927   4.653   8.697  0.2183  0.6637 -0.1850
  173SAPI  H18R19626   5.980   4.738   8.648  0.8830  1.2707  1.5125
  173SAPI  H18S19627   5.826   4.625   8.660  0.3703  0.2138 -0.2573
  173SAPI  C21919628   6.016   4.530   8.668 -0.0503  0.3879  0.6962
  173SAPI  H19R19629   6.013   4.521   8.557  3.3215  0.3487  0.5065
  173SAPI  H19S19630   5.982   4.436   8.716  0.6649  0.0086  0.4674
  173SAPI  C22019631   6.166   4.557   8.702  0.4234 -0.1066  0.2590
  173SAPI  H20R19632   6.197   4.651   8.651  2.5729 -0.7366  0.3443
  173SAPI  H20S19633   6.225   4.471   8.664 -1.6841 -1.3005 -0.4951
  173SAPI  H20T19634   6.190   4.579   8.808 -1.0808 -0.3019  0.6747
  173SAPI   C3319635   6.360   4.223  10.160  0.8967 -0.5374  0.4396
  173SAPI   H3X19636   6.272   4.165  10.126  0.6228 -0.1085  0.4031
  173SAPI   H3Y19637   6.422   4.152  10.219  0.9752  0.2856  1.3812
  173SAPI   C3419638   6.457   4.258  10.043 -0.5249 -0.3647 -0.3075
  173SAPI   H4X19639   6.515   4.167  10.017  0.5763  0.3339 -0.3760
  173SAPI   H4Y19640   6.548   4.300  10.093 -0.0105  1.0750 -2.3256
  173SAPI   C3519641   6.405   4.337   9.923  0.0556  0.1995 -0.7810
  173SAPI   H5X19642   6.382   4.442   9.951  0.8192  0.8347 -2.4029
  173SAPI   H5Y19643   6.317   4.290   9.875  0.9607  0.7957 -3.1813
  173SAPI   C3619644   6.511   4.335   9.815  0.1833  0.3889 -0.0307
  173SAPI   H6X19645   6.535   4.228   9.795  0.7907  0.3186  0.9949
  173SAPI   H6Y19646   6.606   4.386   9.840  1.1447 -1.1047 -0.4559
  173SAPI   C3719647   6.430   4.384   9.691  0.0440 -0.1896  0.1134
  173SAPI   H7X19648   6.379   4.478   9.719  0.4380  0.2424 -0.6134
  173SAPI   H7Y19649   6.357   4.304   9.666  0.6277 -0.6235 -0.2272
  173SAPI   C3819650   6.519   4.409   9.567 -0.4499 -1.0393 -0.3013
  173SAPI   H8X19651   6.576   4.314   9.559 -0.5177 -1.0805 -0.2939
  173SAPI   H8Y19652   6.594   4.489   9.585 -2.1209  0.5027  0.0669
  173SAPI   C3919653   6.427   4.453   9.452 -0.2174 -0.2773 -0.2267
  173SAPI   H9X19654   6.386   4.551   9.482 -0.7875 -0.7964  0.7639
  173SAPI   H9Y19655   6.353   4.371   9.442  2.0768 -2.5351  0.1506
  173SAPI  C31019656   6.495   4.471   9.320 -0.3252  0.1372 -0.6195
  173SAPI  H10X19657   6.565   4.386   9.305  1.2345  0.9248  1.6945
  173SAPI  H10Y19658   6.560   4.561   9.321 -1.1044  0.7169 -0.9062
  173SAPI  C31119659   6.404   4.470   9.191  0.1998  0.7807 -0.1296
  173SAPI  H11X19660   6.335   4.557   9.189 -5.4264 -3.0277  1.9961
  173SAPI  H11Y19661   6.335   4.384   9.194  0.7157  0.2894 -1.5464
  173SAPI  C31219662   6.503   4.476   9.073  0.1832  0.0076  0.2571
  173SAPI  H12X19663   6.574   4.391   9.083  0.4480  0.0684 -0.9646
  173SAPI  H12Y19664   6.576   4.559   9.058  1.2537 -1.3589 -3.3447
  173SAPI  C31319665   6.441   4.462   8.930 -0.5512 -0.0617  0.0584
  173SAPI  H13X19666   6.405   4.558   8.888  1.2417 -0.0164 -1.5081
  173SAPI  H13Y19667   6.354   4.396   8.950 -0.8381  0.2089 -0.2830
  173SAPI  C31419668   6.536   4.393   8.839 -0.3719 -0.3217  0.8203
  173SAPI  H14X19669   6.479   4.373   8.746  2.5327 -0.8653 -0.9623
  173SAPI  H14Y19670   6.585   4.302   8.878 -0.7160 -0.8261  0.1030
  173SAPI  C31519671   6.652   4.500   8.802 -1.2192  0.2733  0.1446
  173SAPI  H15X19672   6.698   4.518   8.901 -0.1710  3.0874 -0.7560
  173SAPI  H15Y19673   6.615   4.598   8.764 -0.1297  0.3333 -0.8184
  173SAPI  C31619674   6.757   4.437   8.713  0.2858 -0.7262  0.3162
  173SAPI  H16X19675   6.705   4.386   8.629 -0.5060  0.3231  0.1489
  173SAPI  H16Y19676   6.807   4.355   8.768  1.5941 -0.2441 -0.1210
  173SAPI  C31719677   6.847   4.539   8.643 -0.0256 -0.1530 -0.5640
  173SAPI  H17X19678   6.937   4.493   8.597  0.4764 -0.4426  0.6595
  173SAPI  H17Y19679   6.894   4.611   8.714  0.7174  0.4786 -1.6709
  173SAPI  C31819680   6.777   4.625   8.533 -0.5841 -0.4176 -0.3992
  173SAPI  H18X19681   6.759   4.565   8.441 -0.3112  0.2761 -0.9227
  173SAPI  H18Y19682   6.841   4.712   8.507 -1.4668  0.6892  1.0139
  173SAPI  H18Z19683   6.679   4.661   8.570 -1.2628 -2.7638  0.2388
  174SAPI   C1219684   2.228   4.178  11.225 -0.7030 -0.6491 -0.3248
  174SAPI    H219685   2.258   4.245  11.141 -0.3397  0.7968  0.9012
  174SAPI    O219686   2.334   4.080  11.242 -0.4978  0.0812 -0.0915
  174SAPI   HO219687   2.393   4.067  11.168  3.1829 -0.5911  2.6273
  174SAPI   C1319688   2.198   4.264  11.349  0.2494  0.4682 -0.0504
  174SAPI    H319689   2.133   4.351  11.324  0.8628  0.8446 -0.3538
  174SAPI    O319690   2.321   4.322  11.388  0.3987  0.0781 -0.7243
  174SAPI   HO319691   2.310   4.410  11.424  0.0967 -0.1618 -0.2188
  174SAPI   C1419692   2.150   4.175  11.459  0.1983 -0.3727  1.0808
  174SAPI    H419693   2.233   4.104  11.481  0.1947 -0.8647 -0.3707
  174SAPI    O419694   2.125   4.253  11.577  0.5188  0.2176  0.3527
  174SAPI   HO419695   2.203   4.279  11.627  1.1532 -0.2237 -0.3881
  174SAPI   C1519696   2.025   4.105  11.396 -0.4506 -0.1430 -0.3584
  174SAPI    H519697   1.948   4.180  11.370 -2.3048 -1.9057 -0.2843
  174SAPI    O519698   1.957   4.033  11.499  0.0880 -0.7566 -0.3643
  174SAPI   HO519699   2.016   3.968  11.537  1.9046  1.1638  0.3296
  174SAPI   C1619700   2.034   4.033  11.270  0.5215 -0.1771 -0.4803
  174SAPI    H619701   2.088   3.936  11.275 -0.5735 -0.9236 -2.2747
  174SAPI    O619702   1.905   3.991  11.220 -0.2170 -0.6644  0.1842
  174SAPI   HO619703   1.847   4.067  11.208  0.9101 -0.1861 -4.1690
  174SAPI   C1119704   2.096   4.128  11.168 -0.3262 -0.1583  0.4490
  174SAPI    H119705   2.027   4.213  11.151 -0.1450 -0.4338 -1.9723
  174SAPI     P19706   2.036   4.063  10.915  0.0895 -0.3996 -0.0511
  174SAPI   O1319707   1.937   4.172  10.920 -0.0897 -0.3233  0.0486
  174SAPI   O1419708   1.989   3.927  10.886 -0.0537  0.1663 -0.0722
  174SAPI   O1219709   2.129   4.059  11.046  0.8059  0.0349  0.0142
  174SAPI   O1119710   2.138   4.101  10.802 -0.2336 -0.4569  0.1755
  174SAPI    C119711   2.103   4.095  10.663 -0.0001  0.1845 -0.0963
  174SAPI    HA19712   1.993   4.084  10.653 -0.0149 -1.5184  1.4035
  174SAPI    HB19713   2.136   4.193  10.624  0.2843  1.3580  2.8194
  174SAPI    C219714   2.175   3.982  10.581 -1.0811  0.4967  0.2973
  174SAPI    HS19715   2.154   3.885  10.632 -1.5922  0.3281 -0.2161
  174SAPI   O2119716   2.316   4.020  10.568 -0.7044 -0.0179 -0.0238
  174SAPI   C2119717   2.394   3.973  10.665  0.0804  0.1948 -0.0905
  174SAPI   O2219718   2.372   3.870  10.729  0.4256 -0.1945  0.2468
  174SAPI   C2219719   2.523   4.047  10.674 -0.0860  0.3393  0.5545
  174SAPI   H2R19720   2.499   4.155  10.682  1.7683  0.7971  0.3173
  174SAPI   H2S19721   2.585   4.012  10.760  0.5458  1.0350  0.3866
  174SAPI    C319722   2.133   3.962  10.427 -0.1983  0.1327  0.8592
  174SAPI    HX19723   2.187   3.875  10.384 -1.9107 -0.0020 -1.1323
  174SAPI    HY19724   2.173   4.051  10.374 -0.4543  0.1453  0.6869
  174SAPI   O3119725   1.993   3.939  10.405 -0.0247 -0.2206  0.1854
  174SAPI   C3119726   1.950   3.955  10.278 -0.6243  0.2186 -0.5261
  174SAPI   O3219727   2.011   4.009  10.190 -0.1381  0.6719 -0.3254
  174SAPI   C3219728   1.820   3.876  10.259  0.7210  0.0451  0.0097
  174SAPI   H2X19729   1.734   3.942  10.284  0.5834 -0.4788  0.9758
  174SAPI   H2Y19730   1.833   3.782  10.317 -0.2041 -0.0448  0.0938
  174SAPI   C2319731   2.591   4.038  10.531 -0.3343  0.3591 -0.8487
  174SAPI   H3R19732   2.629   4.141  10.513 -1.7802  1.0898  0.1549
  174SAPI   H3S19733   2.525   4.013  10.445  0.3827 -0.7822 -1.0915
  174SAPI   C2419734   2.719   3.947  10.530  0.4297 -0.7215 -0.1063
  174SAPI   H4R19735   2.687   3.841  10.547  1.3967 -0.7523  1.8701
  174SAPI   H4S19736   2.780   3.976  10.618  0.8035  1.0570 -0.9281
  174SAPI   C2519737   2.810   3.965  10.412 -0.5768 -0.0337  0.2413
  174SAPI   H5R19738   2.886   4.044  10.412  0.5918 -1.1066 -0.4789
  174SAPI   C2619739   2.791   3.908  10.289 -0.0066 -0.3144 -0.6567
  174SAPI   H6R19740   2.869   3.921  10.213 -0.6487 -0.0321 -1.2823
  174SAPI   C2719741   2.695   3.805  10.245  0.7940  0.0996  0.5685
  174SAPI   H7R19742   2.622   3.858  10.180  0.7382 -1.1224 -0.4035
  174SAPI   H7S19743   2.636   3.776  10.335 -1.1422  1.9779 -0.0237
  174SAPI   C2819744   2.751   3.681  10.176 -0.1835 -0.1811 -0.3610
  174SAPI   H8R19745   2.794   3.611  10.250 -1.9396 -1.7463 -0.7359
  174SAPI   C2919746   2.777   3.661  10.047  0.1119 -0.3039 -0.2588
  174SAPI   H9R19747   2.839   3.572  10.030  2.4407  0.7203  2.1593
  174SAPI  C21019748   2.737   3.753   9.937 -0.3108  0.1652 -0.1138
  174SAPI  H10R19749   2.799   3.844   9.953 -1.0388  0.6105  0.2148
  174SAPI  H10S19750   2.633   3.788   9.952 -0.6071 -0.1731 -1.2780
  174SAPI  C21119751   2.748   3.689   9.803 -0.2528  0.4726  0.4093
  174SAPI  H11R19752   2.661   3.631   9.769 -0.4331  0.4961  0.8254
  174SAPI  C21219753   2.848   3.701   9.715 -0.1765  0.2133  0.7391
  174SAPI  H12R19754   2.845   3.646   9.619 -0.1547  0.7255  0.4395
  174SAPI  C21319755   2.974   3.787   9.732 -0.2342 -0.4194 -0.2858
  174SAPI  H13R19756   2.992   3.792   9.841 -1.4575 -1.5644 -0.0022
  174SAPI  H13S19757   2.960   3.887   9.686 -1.4616 -1.4030 -2.2034
  174SAPI  C21419758   3.103   3.732   9.675  0.1821  0.4375 -0.7910
  174SAPI  H14R19759   3.149   3.656   9.740 -0.9154 -0.2875 -0.8244
  174SAPI  C21519760   3.151   3.745   9.548  0.0628 -0.2426 -0.1304
  174SAPI  H15R19761   3.250   3.706   9.522  0.9723  1.5454  0.5340
  174SAPI  C21619762   3.081   3.815   9.437 -0.0698  0.3073  0.3033
  174SAPI  H16R19763   2.994   3.874   9.472 -0.5801 -0.2459 -0.0222
  174SAPI  H16S19764   3.044   3.746   9.358 -0.0757  0.1531  0.4412
  174SAPI  C21719765   3.175   3.922   9.369  0.8214 -0.0931  0.6482
  174SAPI  H17R19766   3.274   3.889   9.333  0.3021 -1.2729  0.2378
  174SAPI  H17S19767   3.204   3.994   9.449 -0.2445 -1.0043  1.9118
  174SAPI  C21819768   3.109   3.992   9.249  0.0066  0.1415 -0.5818
  174SAPI  H18R19769   3.010   4.037   9.271 -0.0755  1.3425 -3.0780
  174SAPI  H18S19770   3.088   3.917   9.170 -0.5123 -0.3628  0.0285
  174SAPI  C21919771   3.207   4.101   9.200 -0.2309  0.1484  0.0228
  174SAPI  H19R19772   3.310   4.066   9.180  0.2268  0.9043  0.9786
  174SAPI  H19S19773   3.221   4.170   9.286  1.0305  1.2426 -1.0157
  174SAPI  C22019774   3.165   4.191   9.082  0.8481 -0.0022  0.2451
  174SAPI  H20R19775   3.230   4.281   9.079 -0.9309  1.3109 -1.2664
  174SAPI  H20S19776   3.058   4.218   9.095  0.4157 -1.9460  1.0828
  174SAPI  H20T19777   3.185   4.124   8.996  0.7816 -0.5316  0.6322
  174SAPI   C3319778   1.805   3.846  10.111 -0.4613 -0.6421  0.3344
  174SAPI   H3X19779   1.899   3.797  10.075 -0.6835 -0.9195  0.1324
  174SAPI   H3Y19780   1.811   3.941  10.053 -1.2164 -1.0166 -0.3770
  174SAPI   C3419781   1.689   3.755  10.077 -0.2012 -0.2252  0.1280
  174SAPI   H4X19782   1.606   3.811  10.124  0.8675  2.3288 -0.8581
  174SAPI   H4Y19783   1.712   3.659  10.127  2.5569  0.2211 -0.1637
  174SAPI   C3519784   1.646   3.734   9.932 -0.1714 -0.0693 -0.0470
  174SAPI   H5X19785   1.711   3.652   9.895  1.6168  2.0911 -1.9857
  174SAPI   H5Y19786   1.650   3.819   9.861  0.3579 -0.6295 -0.6992
  174SAPI   C3619787   1.503   3.681   9.917 -0.1054 -0.5438  0.1242
  174SAPI   H6X19788   1.430   3.760   9.945 -0.5555 -1.7253  2.5987
  174SAPI   H6Y19789   1.495   3.595   9.987  1.4177  0.0587  1.0672
  174SAPI   C3719790   1.469   3.625   9.774  0.1786 -0.5333 -0.0736
  174SAPI   H7X19791   1.558   3.570   9.738  0.0176 -0.4804 -0.5664
  174SAPI   H7Y19792   1.451   3.713   9.708 -1.7389 -1.4962 -0.8940
  174SAPI   C3819793   1.354   3.531   9.787  0.1766  0.1046 -0.3383
  174SAPI   H8X19794   1.262   3.581   9.826 -1.5620 -1.8420 -1.7074
  174SAPI   H8Y19795   1.369   3.456   9.868 -2.0203 -0.0644 -0.0268
  174SAPI   C3919796   1.316   3.452   9.654  0.1137  0.4684 -0.6406
  174SAPI   H9X19797   1.217   3.403   9.667 -0.2815  1.4431  0.2308
  174SAPI   H9Y19798   1.394   3.381   9.621  0.8004 -1.2714  3.9468
  174SAPI  C31019799   1.281   3.545   9.525  0.3634 -0.1390  0.1211
  174SAPI  H10X19800   1.379   3.595   9.510 -0.2360  0.9977 -0.1582
  174SAPI  H10Y19801   1.200   3.618   9.545  1.3544  1.3054 -0.9322
  174SAPI  C31119802   1.246   3.452   9.406  0.3641  0.3598  0.0923
  174SAPI  H11X19803   1.167   3.383   9.444  0.8212 -0.5339 -0.5428
  174SAPI  H11Y19804   1.335   3.392   9.378  0.0732 -1.4634  2.6488
  174SAPI  C31219805   1.184   3.526   9.284  0.1046  0.4547 -0.2511
  174SAPI  H12X19806   1.253   3.610   9.262  2.7760 -1.3120  0.8845
  174SAPI  H12Y19807   1.084   3.563   9.314  0.2894  0.8291 -0.0931
  174SAPI  C31319808   1.165   3.424   9.167  0.5357 -0.2132  0.2947
  174SAPI  H13X19809   1.119   3.328   9.197 -1.8423  0.1427 -1.8724
  174SAPI  H13Y19810   1.266   3.384   9.144 -0.6200 -2.1321 -1.8764
  174SAPI  C31419811   1.097   3.474   9.033 -0.1830  0.2247 -0.7968
  174SAPI  H14X19812   0.987   3.462   9.041  0.0285 -0.6553  1.7468
  174SAPI  H14Y19813   1.126   3.401   8.954 -1.6455 -0.6429 -0.5643
  174SAPI  C31519814   1.128   3.619   8.987 -0.1657  0.8180  0.4230
  174SAPI  H15X19815   1.239   3.623   8.982 -0.1202 -1.1491 -1.3484
  174SAPI  H15Y19816   1.075   3.688   9.056 -0.3417 -0.5441  1.7213
  174SAPI  C31619817   1.065   3.646   8.844 -0.1223 -0.4349 -0.3697
  174SAPI  H16X19818   0.959   3.678   8.856  0.4931  1.3179  0.9569
  174SAPI  H16Y19819   1.063   3.548   8.792  1.4486 -1.1960  0.9115
  174SAPI  C31719820   1.146   3.752   8.775 -0.0902 -0.4545 -0.0265
  174SAPI  H17X19821   1.240   3.704   8.739  1.2626  2.1161 -0.1591
  174SAPI  H17Y19822   1.169   3.837   8.842  0.8632 -1.0438  0.4086
  174SAPI  C31819823   1.079   3.822   8.652  0.0968 -0.8651  0.0846
  174SAPI  H18X19824   1.152   3.887   8.599  0.2961 -0.9634  0.2388
  174SAPI  H18Y19825   0.993   3.884   8.686  1.6127  2.5849 -1.8752
  174SAPI  H18Z19826   1.037   3.743   8.585  0.4462  0.6106 -1.9704
  175SAPI   C1219827   4.880   3.262   6.555  0.4745 -0.4982 -0.2596
  175SAPI    H219828   4.987   3.234   6.570  0.8235  0.9605  0.1443
  175SAPI    O219829   4.799   3.147   6.565  0.2098 -0.1938 -0.2735
  175SAPI   HO219830   4.828   3.071   6.616 -1.1285 -0.1834  0.5516
  175SAPI   C1319831   4.844   3.362   6.658 -0.0258 -0.3484 -0.1664
  175SAPI    H319832   4.909   3.450   6.644 -2.3711  1.6107  0.5358
  175SAPI    O319833   4.868   3.309   6.792 -0.5303  0.2791 -0.6825
  175SAPI   HO319834   4.795   3.251   6.815 -0.2054  0.5069  1.0212
  175SAPI   C1419835   4.703   3.400   6.644 -0.6293  0.0802 -0.5059
  175SAPI    H419836   4.642   3.312   6.670  0.4494 -0.8276 -0.9657
  175SAPI    O419837   4.672   3.505   6.730 -0.6248  0.4070  0.1043
  175SAPI   HO419838   4.607   3.482   6.797  0.1014  2.9460  1.8623
  175SAPI   C1519839   4.682   3.460   6.503  0.3817  0.0355  0.3822
  175SAPI    H519840   4.746   3.550   6.491  0.7099 -0.1850  0.4801
  175SAPI    O519841   4.545   3.492   6.483  0.0008  0.0887 -0.2290
  175SAPI   HO519842   4.533   3.577   6.526 -1.2629 -0.2626  0.1836
  175SAPI   C1619843   4.728   3.364   6.396  0.6961 -0.2401  0.5764
  175SAPI    H619844   4.659   3.278   6.404 -1.9440  1.7023  0.0475
  175SAPI    O619845   4.720   3.411   6.262 -0.4087 -0.2505 -0.6463
  175SAPI   HO619846   4.799   3.462   6.243 -2.7133  2.7755 -2.8891
  175SAPI   C1119847   4.873   3.320   6.415 -0.7120 -1.3528 -0.1549
  175SAPI    H119848   4.935   3.412   6.420 -1.5877 -0.7160 -0.6200
  175SAPI     P19849   5.072   3.200   6.278  0.2846  0.2592 -0.2773
  175SAPI   O1319850   5.145   3.323   6.312 -0.3747  0.4165  0.1383
  175SAPI   O1419851   5.079   3.140   6.141  0.1987  0.1398  0.3512
  175SAPI   O1219852   4.912   3.230   6.308 -0.2533 -0.0632 -0.4631
  175SAPI   O1119853   5.120   3.094   6.388 -0.0838  0.0011  0.6146
  175SAPI    C119854   5.082   2.957   6.404  0.1362 -0.5555 -0.0410
  175SAPI    HA19855   4.976   2.950   6.438  0.7585 -0.9437  1.9549
  175SAPI    HB19856   5.085   2.893   6.313  1.7377 -0.3073 -0.1944
  175SAPI    C219857   5.178   2.881   6.504 -0.4307  0.0243  0.0662
  175SAPI    HS19858   5.135   2.779   6.518  0.7989 -0.9106 -2.2919
  175SAPI   O2119859   5.204   2.947   6.625  0.7647  0.2672 -0.4622
  175SAPI   C2119860   5.091   2.967   6.698  0.0686 -0.0492 -0.3360
  175SAPI   O2219861   4.984   2.922   6.675 -0.2719  0.2654 -0.4347
  175SAPI   C2219862   5.127   3.055   6.818 -0.4875 -0.1522 -0.2882
  175SAPI   H2R19863   5.237   3.063   6.832 -0.8234  1.8324  1.6750
  175SAPI   H2S19864   5.086   3.157   6.802 -0.9672 -0.2611  0.2206
  175SAPI    C319865   5.308   2.854   6.428 -0.3261 -0.4648 -0.3244
  175SAPI    HX19866   5.340   2.951   6.385 -1.1208 -0.6000 -1.2574
  175SAPI    HY19867   5.277   2.793   6.341 -1.7898 -1.5585  0.8955
  175SAPI   O3119868   5.415   2.807   6.508 -0.2255  0.3110 -0.1083
  175SAPI   C3119869   5.446   2.672   6.498 -0.4242 -0.4463 -0.3148
  175SAPI   O3219870   5.388   2.596   6.425  0.4801 -0.1142 -0.3093
  175SAPI   C3219871   5.562   2.625   6.593  1.0529 -0.0996  0.5993
  175SAPI   H2X19872   5.652   2.684   6.565 -1.5720  3.5200 -0.9747
  175SAPI   H2Y19873   5.578   2.519   6.562  0.4140 -0.0515  0.0959
  175SAPI   C2319874   5.065   3.008   6.955  0.4360  0.2370 -0.5448
  175SAPI   H3R19875   5.044   2.900   6.969 -0.0617  0.3244 -0.5955
  175SAPI   H3S19876   4.965   3.055   6.956 -0.0504 -0.6942 -2.2283
  175SAPI   C2419877   5.148   3.048   7.072 -0.3363  0.2411 -1.2815
  175SAPI   H4R19878   5.256   3.027   7.054  0.2111 -1.0813  2.6519
  175SAPI   H4S19879   5.114   2.990   7.160  2.2707  0.9869  0.3416
  175SAPI   C2519880   5.129   3.190   7.113 -0.1183 -0.0660  0.0970
  175SAPI   H5R19881   5.079   3.250   7.036 -0.4089 -0.3311  0.0774
  175SAPI   C2619882   5.152   3.239   7.233 -0.3060 -0.3596 -1.0034
  175SAPI   H6R19883   5.121   3.343   7.246 -0.7539 -0.6849  0.8913
  175SAPI   C2719884   5.212   3.174   7.358  0.3923  1.2840 -0.5684
  175SAPI   H7R19885   5.236   3.066   7.350 -0.6672  0.9760  0.1320
  175SAPI   H7S19886   5.137   3.164   7.440  1.1314 -0.4513 -0.0605
  175SAPI   C2819887   5.346   3.239   7.399 -0.3876  0.5980  0.7678
  175SAPI   H8R19888   5.419   3.263   7.320 -2.2243  0.1146 -1.1581
  175SAPI   C2919889   5.368   3.285   7.523  0.1097  0.3598  0.1026
  175SAPI   H9R19890   5.471   3.314   7.546 -0.3229  0.3437  2.2640
  175SAPI  C21019891   5.268   3.280   7.630 -0.2976 -0.3637  0.1772
  175SAPI  H10R19892   5.174   3.317   7.585  1.2940  1.4349 -1.8363
  175SAPI  H10S19893   5.300   3.350   7.711 -0.9124 -0.6521  0.6772
  175SAPI  C21119894   5.264   3.139   7.689 -0.7217  0.6039  0.1405
  175SAPI  H11R19895   5.276   3.059   7.615 -2.7134  1.2657 -0.9509
  175SAPI  C21219896   5.245   3.109   7.814 -0.0079  0.1763 -0.2623
  175SAPI  H12R19897   5.253   3.003   7.842 -0.3871  0.1473 -0.2588
  175SAPI  C21319898   5.200   3.206   7.919 -0.4773  0.2556 -1.3573
  175SAPI  H13R19899   5.155   3.150   8.003  0.7108  0.2150 -0.7235
  175SAPI  H13S19900   5.120   3.277   7.890 -0.1475  2.6561  2.9019
  175SAPI  C21419901   5.309   3.287   7.979  0.7564 -0.1149 -0.0075
  175SAPI  H14R19902   5.391   3.301   7.907 -0.1000 -1.5352 -1.3050
  175SAPI  C21519903   5.303   3.352   8.100 -0.3763  0.7520 -0.4953
  175SAPI  H15R19904   5.389   3.414   8.130 -0.3561  0.4518  0.0848
  175SAPI  C21619905   5.190   3.359   8.199 -0.2080 -0.0404 -0.6515
  175SAPI  H16R19906   5.111   3.284   8.176  0.0250 -1.6821  3.1500
  175SAPI  H16S19907   5.142   3.459   8.199  0.3752  0.2682  0.6365
  175SAPI  C21719908   5.230   3.327   8.342 -0.0481 -0.2396  0.2565
  175SAPI  H17R19909   5.305   3.401   8.378 -0.1410 -0.6349  1.2851
  175SAPI  H17S19910   5.273   3.225   8.341  0.0602 -0.2124 -1.9280
  175SAPI  C21819911   5.116   3.313   8.439  0.9456 -0.0268  0.1851
  175SAPI  H18R19912   5.056   3.221   8.417  1.3452 -0.4357  0.7553
  175SAPI  H18S19913   5.041   3.395   8.432 -2.2498 -2.7650 -0.6708
  175SAPI  C21919914   5.163   3.312   8.590  0.5127  0.2793 -0.8049
  175SAPI  H19R19915   5.222   3.219   8.607 -0.3965 -0.6028 -2.2552
  175SAPI  H19S19916   5.062   3.309   8.636  1.1488  0.4468  0.6574
  175SAPI  C22019917   5.226   3.444   8.638  0.2108  0.4270 -0.0529
  175SAPI  H20R19918   5.157   3.527   8.611 -2.0652 -0.7939  1.6251
  175SAPI  H20S19919   5.326   3.471   8.597 -0.3142  0.8864 -1.0911
  175SAPI  H20T19920   5.231   3.444   8.749  0.4715  1.4982 -0.0504
  175SAPI   C3319921   5.533   2.649   6.744  0.0348  0.1608  0.1772
  175SAPI   H3X19922   5.457   2.572   6.768  1.4677 -1.3116  0.1840
  175SAPI   H3Y19923   5.499   2.754   6.757  0.4822  0.2866  0.3329
  175SAPI   C3419924   5.667   2.634   6.825 -0.4338 -0.4432  0.7859
  175SAPI   H4X19925   5.711   2.735   6.833  0.3349 -0.7656  0.6650
  175SAPI   H4Y19926   5.742   2.567   6.777 -0.2375  0.9175 -0.8845
  175SAPI   C3519927   5.632   2.596   6.975 -0.5049  0.1153  0.2342
  175SAPI   H5X19928   5.618   2.485   6.979  1.1232 -0.1725 -0.9457
  175SAPI   H5Y19929   5.539   2.651   7.000 -0.6974  0.4148 -1.0460
  175SAPI   C3619930   5.745   2.638   7.073 -0.0724  0.6339 -0.9301
  175SAPI   H6X19931   5.743   2.749   7.078 -0.4376  0.5880  1.7054
  175SAPI   H6Y19932   5.842   2.610   7.028  0.0279  2.7640 -2.1602
  175SAPI   C3719933   5.729   2.580   7.211 -0.1637 -0.3916  0.3606
  175SAPI   H7X19934   5.621   2.594   7.236 -0.9946 -1.6206 -2.1002
  175SAPI   H7Y19935   5.795   2.627   7.286  0.6469  0.5073 -0.8888
  175SAPI   C3819936   5.750   2.430   7.211 -0.4184  0.2741  0.4959
  175SAPI   H8X19937   5.848   2.407   7.164 -0.5309 -0.0461  0.4150
  175SAPI   H8Y19938   5.667   2.379   7.157 -0.5835 -0.3480  1.3122
  175SAPI   C3919939   5.768   2.376   7.351  0.5591  0.2039 -0.1484
  175SAPI   H9X19940   5.773   2.265   7.344  0.8403  0.2512 -0.8025
  175SAPI   H9Y19941   5.683   2.386   7.422  0.9877 -2.2323  0.8051
  175SAPI  C31019942   5.892   2.417   7.430 -0.1743  0.4165  0.5964
  175SAPI  H10X19943   5.883   2.383   7.535 -0.2106 -0.2098  0.3953
  175SAPI  H10Y19944   5.903   2.527   7.423 -0.6884  0.3553 -2.5892
  175SAPI  C31119945   6.019   2.349   7.370 -0.6261 -0.4524  0.5624
  175SAPI  H11X19946   6.037   2.397   7.271 -0.4781 -1.0553  0.2911
  175SAPI  H11Y19947   6.018   2.238   7.374 -0.5273 -0.4118  2.0602
  175SAPI  C31219948   6.144   2.386   7.461 -0.3814 -0.3994 -0.1966
  175SAPI  H12X19949   6.106   2.383   7.565 -1.5866  0.5617 -0.5814
  175SAPI  H12Y19950   6.180   2.489   7.444  1.4275 -1.2643 -2.0812
  175SAPI  C31319951   6.266   2.297   7.445 -0.1802 -0.1865  0.2626
  175SAPI  H13X19952   6.360   2.344   7.482  1.0986 -2.4385  0.0289
  175SAPI  H13Y19953   6.275   2.278   7.336  2.8837 -0.2164  0.4331
  175SAPI  C31419954   6.246   2.156   7.509 -0.3036  0.0589 -0.7156
  175SAPI  H14X19955   6.163   2.097   7.466 -1.9926 -0.3348  2.7174
  175SAPI  H14Y19956   6.213   2.169   7.614 -0.0226  0.1702 -0.6385
  175SAPI  C31519957   6.374   2.072   7.516 -0.4959  0.5475 -0.7433
  175SAPI  H15X19958   6.361   1.969   7.557  3.2248  0.0020 -0.6324
  175SAPI  H15Y19959   6.436   2.128   7.589 -0.9703 -2.5975  2.3810
  175SAPI  C31619960   6.461   2.055   7.396 -0.3099  0.0818  1.0293
  175SAPI  H16X19961   6.548   1.989   7.417  1.0118  1.7010  0.9278
  175SAPI  H16Y19962   6.504   2.155   7.371 -2.3023  1.0811  1.4110
  175SAPI  C31719963   6.386   1.993   7.275  0.1083 -0.0658  0.3603
  175SAPI  H17X19964   6.333   2.074   7.221  0.3869 -1.0723 -1.5374
  175SAPI  H17Y19965   6.307   1.929   7.321  0.6085  1.3911  3.5079
  175SAPI  C31819966   6.471   1.915   7.174 -0.4398  1.0230 -0.2799
  175SAPI  H18X19967   6.497   1.816   7.218  0.0849  1.0913 -0.4248
  175SAPI  H18Y19968   6.563   1.978   7.170  2.3412 -2.6778 -0.5699
  175SAPI  H18Z19969   6.415   1.904   7.079  2.4366 -1.6380 -1.8651
  176SAPI   C1219970   5.076   6.750   6.491  0.3058 -0.1227 -0.6690
  176SAPI    H219971   5.052   6.755   6.600  0.4980 -0.5845 -0.6070
  176SAPI    O219972   4.955   6.755   6.422  0.3200  0.2076 -0.0759
  176SAPI   HO219973   4.899   6.698   6.476  0.1084  0.4574 -0.0293
  176SAPI   C1319974   5.162   6.869   6.469 -0.1533  0.6990  0.1697
  176SAPI    H319975   5.251   6.855   6.535 -1.5562 -0.5230  1.9212
  176SAPI    O319976   5.100   6.986   6.513 -0.1180 -0.2518  0.4213
  176SAPI   HO319977   5.075   7.044   6.441 -0.0790  0.8984  1.3012
  176SAPI   C1419978   5.200   6.868   6.320 -0.1945 -0.0664 -0.0268
  176SAPI    H419979   5.103   6.870   6.267  0.8662 -2.9581 -2.3387
  176SAPI    O419980   5.274   6.990   6.283  0.3223  0.3865  0.3409
  176SAPI   HO419981   5.295   6.981   6.190  2.2632 -0.4421  0.7918
  176SAPI   C1519982   5.272   6.742   6.281  0.4869  0.0005  0.3771
  176SAPI    H519983   5.365   6.741   6.342  0.8522  1.4968 -0.0902
  176SAPI    O519984   5.310   6.751   6.144  0.2474 -0.7950 -0.0088
  176SAPI   HO519985   5.233   6.769   6.090  1.2689 -0.9364 -1.5682
  176SAPI   C1619986   5.185   6.622   6.316 -0.3397  1.0800  0.4694
  176SAPI    H619987   5.091   6.638   6.259 -0.8540  3.8665  1.9133
  176SAPI    O619988   5.251   6.505   6.274 -0.2518 -0.5457 -0.0283
  176SAPI   HO619989   5.226   6.436   6.336 -1.1556 -1.8978 -1.7803
  176SAPI   C1119990   5.146   6.616   6.461 -0.7461  0.4746 -0.1881
  176SAPI    H119991   5.238   6.623   6.523  0.6470 -1.0319 -1.9768
  176SAPI     P19992   5.119   6.365   6.567  0.3293 -0.0168 -0.0470
  176SAPI   O1319993   5.209   6.303   6.474 -0.3078  0.7119  0.5174
  176SAPI   O1419994   5.009   6.276   6.611  0.4524  0.9762 -0.4054
  176SAPI   O1219995   5.067   6.501   6.491  0.1368  0.3597 -0.4300
  176SAPI   O1119996   5.197   6.418   6.694 -0.4792  0.3898 -0.1666
  176SAPI    C119997   5.142   6.518   6.775  0.1599 -0.5932  0.2292
  176SAPI    HA19998   5.200   6.612   6.766 -1.7445  0.8485  1.9710
  176SAPI    HB19999   5.037   6.541   6.747  0.7894  3.5543  0.6418
  176SAPI    C220000   5.144   6.475   6.927 -0.1408  0.0328  0.9446
  176SAPI    HS20001   5.117   6.560   6.993 -2.4611  0.2899 -0.2077
  176SAPI   O2120002   5.272   6.413   6.966  0.0321 -0.5209 -0.1345
  176SAPI   C2120003   5.365   6.502   6.977  0.6719  0.5860  0.1919
  176SAPI   O2220004   5.350   6.621   6.959  0.0048 -0.7623  0.1363
  176SAPI   C2220005   5.491   6.433   7.037 -0.0917  0.9644  0.6477
  176SAPI   H2R20006   5.459   6.329   7.055 -0.9223  1.2348  0.7699
  176SAPI   H2S20007   5.560   6.442   6.951  0.1202 -2.1779  0.3930
  176SAPI    C320008   5.035   6.363   6.942 -0.1390 -0.0654 -0.0654
  176SAPI    HX20009   5.062   6.269   6.889 -2.1606  0.4755 -2.1893
  176SAPI    HY20010   4.943   6.393   6.888  0.5489 -1.6622 -2.2404
  176SAPI   O3120011   5.013   6.338   7.081 -0.1729 -0.1300 -0.5936
  176SAPI   C3120012   5.071   6.235   7.137  0.2161 -0.5819  0.4507
  176SAPI   O3220013   5.149   6.162   7.087  0.0912  0.9388  0.0695
  176SAPI   C3220014   5.026   6.229   7.283  0.0976  0.1500 -0.3347
  176SAPI   H2X20015   5.076   6.136   7.316 -1.1115 -1.3025 -2.4112
  176SAPI   H2Y20016   4.915   6.228   7.285 -0.1447  2.4450 -3.8598
  176SAPI   C2320017   5.534   6.503   7.166 -0.0015  0.1125  0.2691
  176SAPI   H3R20018   5.449   6.561   7.206 -1.6553  0.1551 -3.0385
  176SAPI   H3S20019   5.627   6.559   7.142 -0.0981  0.1757  0.0421
  176SAPI   C2420020   5.596   6.399   7.268 -0.4460 -0.3765  0.0486
  176SAPI   H4R20021   5.670   6.457   7.328  0.5805 -1.0970 -0.4968
  176SAPI   H4S20022   5.653   6.328   7.204 -0.4893 -0.7518  0.4204
  176SAPI   C2520023   5.490   6.328   7.343  0.3937 -0.2450 -0.2480
  176SAPI   H5R20024   5.409   6.287   7.281  0.2023  1.0034 -0.8641
  176SAPI   C2620025   5.493   6.298   7.473  0.4318  0.4173 -0.5705
  176SAPI   H6R20026   5.411   6.240   7.516  1.0665  2.5259  4.0822
  176SAPI   C2720027   5.610   6.335   7.566 -0.5690  0.0948 -0.3339
  176SAPI   H7R20028   5.563   6.360   7.664  0.8315  1.0168  0.1364
  176SAPI   H7S20029   5.657   6.432   7.540  0.2692 -0.0361  0.6456
  176SAPI   C2820030   5.719   6.235   7.576  0.0585 -0.3770  0.4374
  176SAPI   H8R20031   5.745   6.189   7.480 -1.5610  0.0943 -0.2640
  176SAPI   C2920032   5.766   6.196   7.699  0.0115 -0.2122 -0.4173
  176SAPI   H9R20033   5.856   6.133   7.704  0.3864  0.2536 -1.1784
  176SAPI  C21020034   5.720   6.244   7.838 -0.2862 -0.1193 -0.5882
  176SAPI  H10R20035   5.736   6.354   7.849  0.6764 -0.3224  0.1667
  176SAPI  H10S20036   5.801   6.199   7.898 -0.0729 -0.4719 -1.1339
  176SAPI  C21120037   5.584   6.207   7.895  0.6699  0.6973 -0.2645
  176SAPI  H11R20038   5.514   6.155   7.828  1.4558  0.1153 -0.6509
  176SAPI  C21220039   5.537   6.227   8.015  0.1316 -0.0878  0.1898
  176SAPI  H12R20040   5.439   6.183   8.037 -0.7215  1.2358 -0.8032
  176SAPI  C21320041   5.601   6.299   8.126  0.6284 -0.2114  0.5961
  176SAPI  H13R20042   5.523   6.349   8.187  0.7090  1.9492 -0.9646
  176SAPI  H13S20043   5.646   6.393   8.089  0.7555  1.2915  4.1140
  176SAPI  C21420044   5.710   6.227   8.197  0.3844 -0.1889  0.4940
  176SAPI  H14R20045   5.793   6.188   8.135  0.2390  1.0260 -0.5072
  176SAPI  C21520046   5.718   6.199   8.326  0.3392 -0.1916  0.7087
  176SAPI  H15R20047   5.804   6.143   8.366  0.2845 -0.9852 -0.2651
  176SAPI  C21620048   5.628   6.240   8.438 -0.2162  0.4224  0.3932
  176SAPI  H16R20049   5.550   6.161   8.444  0.6553 -0.5606 -0.6446
  176SAPI  H16S20050   5.587   6.343   8.430  0.0818  0.6288  1.4172
  176SAPI  C21720051   5.716   6.255   8.553  0.4168 -0.0520 -0.8160
  176SAPI  H17R20052   5.784   6.340   8.532  1.3559 -0.4645  0.3827
  176SAPI  H17S20053   5.765   6.158   8.578  1.5219  0.5870 -0.4398
  176SAPI  C21820054   5.624   6.298   8.673  0.1822 -0.2421  0.0355
  176SAPI  H18R20055   5.570   6.209   8.714 -0.4070  0.0840 -0.0248
  176SAPI  H18S20056   5.543   6.364   8.635  0.2599 -0.5034 -0.5830
  176SAPI  C21920057   5.697   6.377   8.781 -0.0690 -0.1719  0.4771
  176SAPI  H19R20058   5.630   6.394   8.867 -0.1280 -0.0958  0.4161
  176SAPI  H19S20059   5.723   6.477   8.739  0.1962 -1.0089 -1.4847
  176SAPI  C22020060   5.827   6.307   8.842  0.5975  0.0594  0.5006
  176SAPI  H20R20061   5.852   6.372   8.928  2.0486  1.2077 -0.7407
  176SAPI  H20S20062   5.916   6.307   8.776  1.0298 -0.1324  1.0778
  176SAPI  H20T20063   5.796   6.208   8.881  1.1861 -0.6436 -0.7488
  176SAPI   C3320064   5.078   6.343   7.363 -0.2619 -0.2987  0.4631
  176SAPI   H3X20065   5.053   6.442   7.320 -2.1743  0.4949  3.1716
  176SAPI   H3Y20066   5.189   6.330   7.362 -0.3701 -1.3831  0.6588
  176SAPI   C3420067   5.027   6.341   7.506 -0.2386  0.4342 -0.4543
  176SAPI   H4X20068   4.917   6.353   7.509 -0.0477  2.3286  1.4458
  176SAPI   H4Y20069   5.055   6.438   7.554 -1.9591  0.7414 -0.0030
  176SAPI   C3520070   5.072   6.228   7.588  0.5150 -0.8426  0.0103
  176SAPI   H5X20071   5.180   6.201   7.582  0.9506  0.8241 -0.1073
  176SAPI   H5Y20072   5.022   6.130   7.572 -0.6709 -0.1620 -0.5379
  176SAPI   C3620073   5.039   6.260   7.737  0.6342 -0.6654  0.4450
  176SAPI   H6X20074   4.936   6.300   7.749  1.0485 -0.0702  2.3551
  176SAPI   H6Y20075   5.104   6.347   7.761  0.6767 -0.5216 -0.1846
  176SAPI   C3720076   5.062   6.143   7.836  0.1303  0.0325 -0.9582
  176SAPI   H7X20077   4.988   6.065   7.809 -1.3067  0.7226  0.7975
  176SAPI   H7Y20078   5.049   6.188   7.937  2.0298 -2.8551  0.7156
  176SAPI   C3820079   5.197   6.069   7.830  0.4568  0.1984  0.0478
  176SAPI   H8X20080   5.276   6.144   7.807  0.2454  0.7591  1.1017
  176SAPI   H8Y20081   5.209   5.991   7.751  1.6825 -1.6861  2.0003
  176SAPI   C3920082   5.234   5.992   7.950  0.3620  0.3311  0.2201
  176SAPI   H9X20083   5.287   6.056   8.023 -3.5397  2.4673  1.4662
  176SAPI   H9Y20084   5.308   5.917   7.917  0.7141  1.0066 -0.5842
  176SAPI  C31020085   5.112   5.914   8.007 -0.1759  0.2526  0.9196
  176SAPI  H10X20086   5.061   5.878   7.916 -1.9217 -0.5632  2.1590
  176SAPI  H10Y20087   5.046   5.980   8.068  0.7268  2.1929 -0.1127
  176SAPI  C31120088   5.157   5.794   8.091 -0.1177  0.0106 -0.8265
  176SAPI  H11X20089   5.236   5.742   8.033 -0.3603 -3.5802  1.7164
  176SAPI  H11Y20090   5.066   5.731   8.096 -0.1867  0.1282 -0.5097
  176SAPI  C31220091   5.201   5.820   8.232  0.1893 -0.1651 -0.8978
  176SAPI  H12X20092   5.114   5.862   8.285  0.9047  0.4211 -0.1586
  176SAPI  H12Y20093   5.286   5.891   8.243  0.9740 -1.4781  3.3012
  176SAPI  C31320094   5.251   5.702   8.316 -0.3930  0.5483  0.2832
  176SAPI  H13X20095   5.249   5.617   8.245 -2.0418  2.2398 -1.8291
  176SAPI  H13Y20096   5.180   5.669   8.395  0.5835  1.7021  1.6908
  176SAPI  C31420097   5.392   5.723   8.370 -0.7695 -0.0548 -0.5696
  176SAPI  H14X20098   5.435   5.782   8.285 -0.5346  0.9992  0.2618
  176SAPI  H14Y20099   5.443   5.631   8.405 -0.7946  0.2461  0.2730
  176SAPI  C31520100   5.379   5.818   8.495 -1.0758  0.0414  0.1684
  176SAPI  H15X20101   5.293   5.778   8.554 -1.1503 -2.4584 -1.4631
  176SAPI  H15Y20102   5.354   5.925   8.481  1.7613  0.9455  1.1995
  176SAPI  C31620103   5.503   5.811   8.588  0.1225  0.3816  0.0661
  176SAPI  H16X20104   5.591   5.858   8.538  0.0999 -1.3130 -1.6746
  176SAPI  H16Y20105   5.530   5.703   8.596  0.0939  0.3390 -0.3733
  176SAPI  C31720106   5.488   5.877   8.720 -0.3380  0.1876 -0.5281
  176SAPI  H17X20107   5.411   5.833   8.787  2.4406  1.1961  3.7509
  176SAPI  H17Y20108   5.467   5.986   8.721  0.7475  0.4396  1.9241
  176SAPI  C31820109   5.623   5.861   8.801  0.2504 -0.5496 -0.2921
  176SAPI  H18X20110   5.606   5.885   8.908  1.5937 -1.1579  0.0670
  176SAPI  H18Y20111   5.697   5.931   8.757  1.4728 -0.8793  1.1596
  176SAPI  H18Z20112   5.647   5.753   8.796  1.8057 -0.2381 -0.0699
  177SLPC     N20113   5.058   6.647  11.246  0.4117  0.3691  0.5755
  177SLPC   C1320114   5.168   6.543  11.235  0.2297  0.3389 -0.0153
  177SLPC  H13A20115   5.116   6.459  11.278 -1.5059  0.9250 -0.9041
  177SLPC  H13B20116   5.197   6.519  11.134 -0.1041  1.9865 -0.5258
  177SLPC  H13C20117   5.264   6.561  11.282  0.5043 -0.5413 -0.2121
  177SLPC   C1420118   5.102   6.781  11.197  0.2478 -0.1805 -0.1369
  177SLPC  H14A20119   5.180   6.823  11.258 -1.1415  1.5176  0.5445
  177SLPC  H14B20120   5.129   6.773  11.093  1.5819  0.7654  0.1098
  177SLPC  H14C20121   5.024   6.855  11.202 -0.5388 -0.8405 -1.7357
  177SLPC   C1520122   5.020   6.641  11.390  0.1955 -0.7223  0.5083
  177SLPC  H15A20123   5.109   6.662  11.449  1.1093 -1.1100 -0.7001
  177SLPC  H15B20124   4.956   6.724  11.418 -0.8660 -2.0129  2.1030
  177SLPC  H15C20125   4.983   6.547  11.429  0.3194 -1.0470 -0.1590
  177SLPC   C1220126   4.941   6.608  11.159 -0.0862 -0.6959  0.8840
  177SLPC  H12A20127   4.893   6.520  11.199  2.1432 -1.3851  2.2245
  177SLPC  H12B20128   4.971   6.582  11.058 -1.3101 -0.5177  0.4644
  177SLPC   C1120129   4.823   6.708  11.142 -0.1381 -0.1125 -0.2308
  177SLPC  H11A20130   4.803   6.749  11.243  0.9083 -0.0405 -0.0354
  177SLPC  H11B20131   4.737   6.654  11.097  1.6336 -1.2044 -2.5159
  177SLPC     P20132   4.758   6.901  10.970 -0.2910 -0.4206  0.3634
  177SLPC   O1320133   4.669   6.973  11.063 -0.0091 -0.1479 -0.4921
  177SLPC   O1420134   4.839   6.991  10.884 -0.0923 -0.1714  0.4307
  177SLPC   O1220135   4.859   6.813  11.055 -0.5234 -0.0801  0.3695
  177SLPC   O1120136   4.675   6.790  10.892  0.3183 -0.2010  0.1182
  177SLPC    C120137   4.745   6.695  10.813 -0.3347  0.3295  0.4742
  177SLPC    HA20138   4.842   6.661  10.855  0.2723  1.0777 -0.2714
  177SLPC    HB20139   4.685   6.605  10.790 -1.1455  1.0428 -0.2800
  177SLPC    C220140   4.774   6.756  10.672  0.4820  0.0234  0.3100
  177SLPC    HS20141   4.841   6.844  10.686  0.4221  0.0368  0.5118
  177SLPC   O2120142   4.646   6.788  10.602  0.1048  1.0262 -0.0147
  177SLPC   C2120143   4.651   6.898  10.522  0.4564  0.4933  0.0408
  177SLPC   O2220144   4.754   6.959  10.496 -0.7735  0.2818 -0.4350
  177SLPC   C2220145   4.508   6.936  10.474  0.3720  1.0634 -0.3709
  177SLPC   H2R20146   4.443   6.875  10.541  1.2196 -1.0528 -1.3704
  177SLPC   H2S20147   4.479   7.038  10.506 -0.7309  0.8445 -0.6203
  177SLPC    C320148   4.842   6.648  10.591 -0.0157  1.0457 -0.3690
  177SLPC    HX20149   4.949   6.635  10.619 -0.3091 -0.3382  0.1319
  177SLPC    HY20150   4.827   6.692  10.490 -1.3041  1.9690  0.1983
  177SLPC   O3120151   4.774   6.521  10.595  0.2927  0.0319  0.0032
  177SLPC   C3120152   4.847   6.406  10.596 -0.1622 -0.7220 -0.5877
  177SLPC   O3220153   4.958   6.401  10.638 -0.0946  0.8769  0.1133
  177SLPC   C3220154   4.762   6.287  10.554 -0.2220 -1.1777 -0.0284
  177SLPC   H2X20155   4.662   6.291  10.601 -0.9360 -0.2655 -1.5400
  177SLPC   H2Y20156   4.815   6.193  10.580  0.8581 -0.0963  1.9101
  177SLPC   C2320157   4.459   6.902  10.332 -0.1885  0.1362  0.5298
  177SLPC   H3R20158   4.373   6.831  10.341 -0.4853  0.2374 -1.1077
  177SLPC   H3S20159   4.530   6.834  10.280 -1.0447 -0.6863  0.4115
  177SLPC   C2420160   4.451   7.023  10.236  1.0530 -0.3237 -0.0406
  177SLPC   H4R20161   4.553   7.066  10.223  2.4473 -3.0760  1.0472
  177SLPC   H4S20162   4.384   7.108  10.262  0.3112 -0.6998 -0.6647
  177SLPC   C2520163   4.396   6.978  10.098  0.4905 -0.7223 -0.0980
  177SLPC   H5R20164   4.296   6.932  10.115  0.5886 -0.7683  0.3786
  177SLPC   H5S20165   4.440   6.888  10.050  1.6134 -0.5975  0.6474
  177SLPC   C2620166   4.386   7.089   9.990 -0.0924  0.0935 -0.0730
  177SLPC   H6R20167   4.478   7.147   9.969 -1.7647  2.5364 -1.0992
  177SLPC   H6S20168   4.315   7.166  10.026 -2.2088 -2.0804  0.7186
  177SLPC   C2720169   4.327   7.039   9.855  0.2865 -0.6651 -0.1107
  177SLPC   H7R20170   4.225   7.001   9.877 -0.5779  1.1498 -0.7375
  177SLPC   H7S20171   4.394   6.960   9.817  0.4746 -0.7549  0.4050
  177SLPC   C2820172   4.310   7.147   9.746 -0.1680 -0.3225  0.1053
  177SLPC   H8R20173   4.254   7.234   9.786  0.4877  1.8572 -3.2161
  177SLPC   H8S20174   4.258   7.096   9.662  0.4988 -1.1762  0.1972
  177SLPC   C2920175   4.448   7.195   9.702  0.1548 -0.0815 -0.2015
  177SLPC   H9R20176   4.501   7.240   9.787 -0.3861 -1.4969  0.9256
  177SLPC  C21020177   4.513   7.193   9.588 -0.2709  0.2382  0.1025
  177SLPC  H10R20178   4.603   7.255   9.573  0.8299 -0.8366  1.9301
  177SLPC  C21120179   4.449   7.134   9.462  0.4030  0.7770 -0.0402
  177SLPC  H11R20180   4.407   7.035   9.489 -0.4954  0.9454 -0.7590
  177SLPC  H11S20181   4.370   7.199   9.419  1.6058  1.7732 -0.8227
  177SLPC  C21220182   4.555   7.101   9.364 -0.0369 -0.3093 -0.3711
  177SLPC  H12R20183   4.588   7.000   9.393  0.8262  0.0410 -0.1135
  177SLPC  C21320184   4.605   7.181   9.268 -0.6963 -0.8034  0.4367
  177SLPC  H13R20185   4.681   7.138   9.202  0.3839  0.5103  0.7614
  177SLPC  C21420186   4.553   7.317   9.235  0.4399 -0.3673  0.4066
  177SLPC  H14R20187   4.464   7.340   9.298  1.1736 -1.1946  1.7857
  177SLPC  H14S20188   4.524   7.316   9.127  3.6674 -2.0774 -0.5695
  177SLPC  C21520189   4.659   7.426   9.249  0.4872 -0.6937  0.0240
  177SLPC  H15R20190   4.703   7.433   9.350  2.8953  1.8399 -1.0680
  177SLPC  H15S20191   4.603   7.522   9.239  1.8805  0.3552  1.6334
  177SLPC  C21620192   4.773   7.416   9.152  0.0596 -0.0856 -0.6364
  177SLPC  H16R20193   4.825   7.319   9.168 -1.2495 -0.2097  4.4258
  177SLPC  H16S20194   4.849   7.494   9.170  0.4818 -1.2077  3.3618
  177SLPC  C21720195   4.730   7.425   9.003 -0.1086 -0.0952 -0.6497
  177SLPC  H17R20196   4.658   7.510   8.995 -2.4799 -2.0273 -0.9556
  177SLPC  H17S20197   4.674   7.337   8.967 -0.5784  0.8982 -2.5096
  177SLPC  C21820198   4.840   7.440   8.907 -0.3575 -0.5062  0.0024
  177SLPC  H18R20199   4.885   7.542   8.907 -2.3595  0.4310 -0.4469
  177SLPC  H18S20200   4.803   7.443   8.802 -1.7651  1.7452  0.4709
  177SLPC  H18T20201   4.908   7.353   8.915  2.6308  1.5380 -1.0318
  177SLPC   C3320202   4.740   6.284  10.396 -0.2582 -0.6230 -0.6402
  177SLPC   H3X20203   4.755   6.382  10.346 -1.0942 -0.7930 -1.2543
  177SLPC   H3Y20204   4.647   6.231  10.366  0.1751 -1.3588 -0.7132
  177SLPC   C3420205   4.875   6.218  10.334 -0.5307  0.1879 -0.2002
  177SLPC   H4X20206   4.877   6.115  10.375 -2.6856 -0.2179 -0.9679
  177SLPC   H4Y20207   4.960   6.272  10.382  0.1161  0.2816 -1.4131
  177SLPC   C3520208   4.880   6.225  10.180  0.8391 -0.5793 -0.0903
  177SLPC   H5X20209   4.880   6.334  10.158  2.6135 -0.8889 -1.9857
  177SLPC   H5Y20210   4.789   6.182  10.134  1.0900 -0.7017 -0.4807
  177SLPC   C3620211   5.001   6.148  10.134  0.7278 -0.2102 -0.1299
  177SLPC   H6X20212   4.991   6.051  10.187 -1.4900  1.0270  1.8994
  177SLPC   H6Y20213   5.095   6.202  10.161  1.1696 -0.0269 -1.9428
  177SLPC   C3720214   4.998   6.122   9.976 -0.2114  0.3249 -0.7586
  177SLPC   H7X20215   4.913   6.052   9.963  0.0237 -0.0393 -0.3621
  177SLPC   H7Y20216   5.092   6.066   9.957 -0.0693  1.5070 -4.0739
  177SLPC   C3820217   4.986   6.235   9.878  0.7394 -0.3020 -0.1817
  177SLPC   H8X20218   5.074   6.302   9.873  0.7706 -0.2725  0.6389
  177SLPC   H8Y20219   4.907   6.303   9.917 -1.2554 -1.6689 -1.6240
  177SLPC   C3920220   4.951   6.183   9.738  0.3682  0.3990 -0.0915
  177SLPC   H9X20221   4.868   6.110   9.744  0.4995  0.3214  1.0097
  177SLPC   H9Y20222   5.042   6.128   9.705 -0.2089 -0.9354  0.4838
  177SLPC  C31020223   4.904   6.303   9.642 -0.7442 -0.8215  0.5709
  177SLPC  H10X20224   4.989   6.372   9.626  0.0430 -1.6161  1.2017
  177SLPC  H10Y20225   4.824   6.367   9.685 -1.3472  0.6331 -2.4233
  177SLPC  C31120226   4.881   6.246   9.500  0.2162 -0.0116  0.4526
  177SLPC  H11X20227   4.779   6.201   9.498  0.5361 -0.7401 -1.3066
  177SLPC  H11Y20228   4.961   6.171   9.484 -0.7164 -1.0015  0.3104
  177SLPC  C31220229   4.900   6.352   9.391 -0.1002  0.1937  0.6026
  177SLPC  H12X20230   5.000   6.401   9.386  0.1794 -0.4687 -1.9987
  177SLPC  H12Y20231   4.820   6.429   9.397 -0.4828 -0.2572  1.4037
  177SLPC  C31320232   4.892   6.297   9.252  0.3076 -0.2566  0.0128
  177SLPC  H13X20233   4.826   6.208   9.251  2.4305 -2.1258  3.7203
  177SLPC  H13Y20234   4.991   6.257   9.223  0.2451 -0.6438  0.3180
  177SLPC  C31420235   4.857   6.407   9.158  0.7521 -0.2348  0.3867
  177SLPC  H14X20236   4.936   6.485   9.167  0.0039  0.4133  1.5488
  177SLPC  H14Y20237   4.758   6.453   9.178  0.7580  0.7642 -1.6350
  177SLPC  C31520238   4.855   6.360   9.010  0.3004 -0.1484  0.6555
  177SLPC  H15X20239   4.777   6.284   8.992  0.2917  0.1017 -0.4754
  177SLPC  H15Y20240   4.946   6.296   9.004 -0.4858 -1.2184 -0.5349
  177SLPC  C31620241   4.835   6.457   8.892  0.1830  0.0596  0.0432
  177SLPC  H16X20242   4.744   6.511   8.927  0.3206 -0.1574  0.7537
  177SLPC  H16Y20243   4.812   6.398   8.801 -0.1893  1.6940 -0.9755
  177SLPC  C31720244   4.952   6.553   8.868  0.5064 -0.3252  0.0511
  177SLPC  H17X20245   5.046   6.500   8.840  0.1827 -0.8571 -0.0438
  177SLPC  H17Y20246   4.972   6.622   8.953  0.1958  0.3220 -0.3904
  177SLPC  C31820247   4.926   6.650   8.749  0.4391  0.1209  0.0391
  177SLPC  H18X20248   4.995   6.738   8.747  0.4981  0.0596 -1.2553
  177SLPC  H18Y20249   4.821   6.685   8.748  0.0975 -0.8957 -0.4054
  177SLPC  H18Z20250   4.953   6.600   8.654  0.6224 -0.8876  0.6110
  178SLPC     N20251   6.093   5.693  10.931  0.0350 -0.0887 -0.5908
  178SLPC   C1320252   5.981   5.632  10.862  0.6751  0.5035 -0.2158
  178SLPC  H13A20253   6.016   5.559  10.790 -0.7358 -2.7793  2.1521
  178SLPC  H13B20254   5.918   5.570  10.925  0.1038 -1.1614 -2.2791
  178SLPC  H13C20255   5.923   5.711  10.817  0.3060 -0.9132 -2.3723
  178SLPC   C1420256   6.194   5.727  10.827 -0.0942  0.2142  0.2807
  178SLPC  H14A20257   6.275   5.790  10.859  0.3449  0.1630 -0.6858
  178SLPC  H14B20258   6.237   5.634  10.791 -1.5517 -1.0523  1.6166
  178SLPC  H14C20259   6.147   5.782  10.747  0.8228  1.0577  0.3098
  178SLPC   C1520260   6.149   5.596  11.034 -0.1167 -0.2826  0.3363
  178SLPC  H15A20261   6.178   5.499  10.997  1.2848  0.0424  0.5276
  178SLPC  H15B20262   6.236   5.639  11.082  0.7950  0.8260 -2.1622
  178SLPC  H15C20263   6.085   5.580  11.120  1.2006 -1.3096  1.1525
  178SLPC   C1220264   6.055   5.820  11.010  0.1090 -0.1495  0.0802
  178SLPC  H12A20265   6.146   5.862  11.050  0.4686  0.1684 -1.0253
  178SLPC  H12B20266   5.993   5.788  11.092 -0.6502  2.2402  0.5267
  178SLPC   C1120267   5.989   5.942  10.934  0.2426 -0.1737  0.4441
  178SLPC  H11A20268   5.962   6.016  11.013 -2.1333 -0.4136 -0.0684
  178SLPC  H11B20269   5.891   5.901  10.902  0.0479  0.1807  0.5825
  178SLPC     P20270   6.201   6.083  10.869 -0.6415 -0.0034  0.0720
  178SLPC   O1320271   6.164   6.218  10.916  0.2885  0.3369  0.7118
  178SLPC   O1420272   6.278   6.003  10.971 -0.3616  0.2022 -0.2776
  178SLPC   O1220273   6.071   6.005  10.827 -0.6147 -0.1553 -0.4430
  178SLPC   O1120274   6.292   6.092  10.743  0.2109 -0.8587 -0.3316
  178SLPC    C120275   6.241   6.052  10.617 -0.1480  0.0426  0.7438
  178SLPC    HA20276   6.326   6.057  10.545  0.2778  0.3364  1.2627
  178SLPC    HB20277   6.197   5.950  10.621 -3.8026  1.4971  1.9397
  178SLPC    C220278   6.127   6.142  10.555  0.3778 -0.4762  0.1150
  178SLPC    HS20279   6.050   6.153  10.634  1.2718  0.4221  0.8781
  178SLPC   O2120280   6.080   6.075  10.426 -0.0482  0.8279 -0.3350
  178SLPC   C2120281   5.953   6.090  10.414  0.1693  0.5664 -0.3616
  178SLPC   O2220282   5.880   6.152  10.489  0.7893  0.2232  0.5358
  178SLPC   C2220283   5.904   6.025  10.284  0.1226 -0.1965 -0.0185
  178SLPC   H2R20284   5.796   6.052  10.272 -0.2360 -2.2610 -2.3648
  178SLPC   H2S20285   5.955   6.069  10.196 -0.7839  1.3428  0.1909
  178SLPC    C320286   6.175   6.288  10.519 -0.1839 -0.1756 -0.2513
  178SLPC    HX20287   6.279   6.274  10.482 -0.1475  0.9725 -0.6177
  178SLPC    HY20288   6.191   6.345  10.614 -2.4405 -1.5626  1.0483
  178SLPC   O3120289   6.090   6.363  10.428  0.7387  1.0257  0.4963
  178SLPC   C3120290   6.000   6.442  10.481  0.5022 -0.3449  0.3913
  178SLPC   O3220291   5.981   6.464  10.602  0.1805 -0.4387 -0.3792
  178SLPC   C3220292   5.910   6.511  10.375 -0.5610  0.2719  0.5034
  178SLPC   H2X20293   5.918   6.450  10.283  1.7983  0.3915  0.5656
  178SLPC   H2Y20294   5.957   6.607  10.346 -0.7056 -0.2068 -1.4415
  178SLPC   C2320295   5.910   5.872  10.294 -0.6313 -0.5800 -0.1243
  178SLPC   H3R20296   5.845   5.833  10.375  0.5487 -1.0669  0.6119
  178SLPC   H3S20297   6.013   5.843  10.323  0.0293  1.4264 -0.2902
  178SLPC   C2420298   5.881   5.797  10.156 -0.6937 -0.5518  0.1610
  178SLPC   H4R20299   5.950   5.822  10.073 -0.9830 -1.5005 -0.3766
  178SLPC   H4S20300   5.781   5.823  10.115 -0.4823  0.3288  0.1948
  178SLPC   C2520301   5.868   5.642  10.173  0.2553 -0.0133  0.4375
  178SLPC   H5R20302   5.774   5.616  10.225  0.6930  1.8508  2.2739
  178SLPC   H5S20303   5.954   5.623  10.240  0.0307  1.2896  1.1233
  178SLPC   C2620304   5.895   5.566  10.053  0.2011  0.1141 -0.0998
  178SLPC   H6R20305   5.992   5.594  10.006  0.5993  0.3962  0.8828
  178SLPC   H6S20306   5.817   5.583   9.975 -0.5858 -0.0197  0.6497
  178SLPC   C2720307   5.896   5.414  10.082 -0.1516 -0.0964 -0.2365
  178SLPC   H7R20308   5.808   5.385  10.144 -0.3523  1.4882  0.2634
  178SLPC   H7S20309   5.989   5.398  10.141 -0.6938  1.6739  1.2000
  178SLPC   C2820310   5.902   5.325   9.956 -0.1038  0.3099  0.0446
  178SLPC   H8R20311   5.826   5.341   9.876 -0.5103  2.7262  0.8314
  178SLPC   H8S20312   5.901   5.224  10.003  0.4886  0.9141  1.3926
  178SLPC   C2920313   6.040   5.334   9.896 -0.2341  0.0640  0.5754
  178SLPC   H9R20314   6.119   5.332   9.973 -0.6555  0.0855  1.0093
  178SLPC  C21020315   6.076   5.320   9.762  0.5588 -0.2817 -0.6107
  178SLPC  H10R20316   6.183   5.326   9.737  0.3432  2.8661 -1.2001
  178SLPC  C21120317   5.984   5.305   9.645  0.9912 -1.0511 -0.2903
  178SLPC  H11R20318   5.901   5.250   9.694 -1.4578  0.8359 -2.0664
  178SLPC  H11S20319   6.030   5.241   9.566 -0.3624 -1.1568 -1.0286
  178SLPC  C21220320   5.924   5.428   9.587  0.6451 -0.1600  1.3092
  178SLPC  H12R20321   5.887   5.502   9.660  0.7183  1.4363 -0.2101
  178SLPC  C21320322   5.892   5.456   9.458 -0.1456 -0.1560 -0.4524
  178SLPC  H13R20323   5.850   5.554   9.431 -0.1885 -0.4448 -1.4809
  178SLPC  C21420324   5.912   5.369   9.340  0.3064 -0.2630 -0.0697
  178SLPC  H14R20325   5.834   5.292   9.359  0.1718  0.1948  1.3176
  178SLPC  H14S20326   6.014   5.327   9.353 -0.0534 -1.1799 -0.1219
  178SLPC  C21520327   5.893   5.427   9.204  0.0046 -0.1769  0.9413
  178SLPC  H15R20328   5.786   5.455   9.197 -0.7037 -3.0023 -1.6021
  178SLPC  H15S20329   5.915   5.344   9.133 -1.0639  0.7071 -0.4688
  178SLPC  C21620330   5.978   5.551   9.163 -0.2650  0.1269 -0.0023
  178SLPC  H16R20331   6.023   5.538   9.063  0.5748 -0.2086  0.4109
  178SLPC  H16S20332   6.065   5.568   9.230  0.1598  1.4291 -0.8563
  178SLPC  C21720333   5.899   5.682   9.163  0.1105 -0.0380  0.4380
  178SLPC  H17R20334   5.894   5.726   9.264  1.6156  0.2727  0.4039
  178SLPC  H17S20335   5.795   5.669   9.124 -0.6616  0.3527  2.2851
  178SLPC  C21820336   5.958   5.796   9.074  0.3218 -0.2386  0.0625
  178SLPC  H18R20337   5.923   5.895   9.109  1.3873 -0.0822  0.7308
  178SLPC  H18S20338   5.941   5.772   8.967  0.8119 -0.0772 -0.0523
  178SLPC  H18T20339   6.068   5.807   9.070  0.1584  2.5036  1.1470
  178SLPC   C3320340   5.769   6.525  10.431 -0.3232 -0.5035  0.1172
  178SLPC   H3X20341   5.779   6.594  10.518  2.0146  1.9708 -1.9624
  178SLPC   H3Y20342   5.730   6.424  10.459  0.7051 -1.9272 -3.1349
  178SLPC   C3420343   5.674   6.592  10.339 -0.6194 -0.1578 -0.2000
  178SLPC   H4X20344   5.735   6.666  10.283 -1.8411 -0.6248 -2.2667
  178SLPC   H4Y20345   5.607   6.662  10.393  3.2817  1.2269  3.3885
  178SLPC   C3520346   5.599   6.492  10.255  0.4167  0.2262  0.4341
  178SLPC   H5X20347   5.532   6.438  10.325  1.2789 -1.0959  0.2663
  178SLPC   H5Y20348   5.663   6.414  10.210 -2.9335 -2.2504 -0.4400
  178SLPC   C3620349   5.512   6.542  10.137 -0.8400 -1.1783 -0.6196
  178SLPC   H6X20350   5.575   6.609  10.075 -2.7887  1.1362 -0.2595
  178SLPC   H6Y20351   5.422   6.587  10.185  0.3844  0.3107  0.3915
  178SLPC   C3720352   5.472   6.446  10.023  0.5684  0.5919 -0.9136
  178SLPC   H7X20353   5.428   6.353  10.067 -0.9667  0.9005 -1.7130
  178SLPC   H7Y20354   5.558   6.411   9.962  0.2639 -1.2751 -0.3380
  178SLPC   C3820355   5.368   6.502   9.920 -0.0187 -0.1291  0.0294
  178SLPC   H8X20356   5.321   6.594   9.961  0.3617  0.3575 -0.6051
  178SLPC   H8Y20357   5.287   6.428   9.904 -1.1708  1.1151 -0.0359
  178SLPC   C3920358   5.429   6.520   9.784  0.6650 -0.1876 -0.2866
  178SLPC   H9X20359   5.465   6.425   9.741 -1.0732 -1.6870  1.3775
  178SLPC   H9Y20360   5.512   6.592   9.801  0.4052 -0.2149  1.3025
  178SLPC  C31020361   5.331   6.572   9.671  0.0615 -0.2927  0.1323
  178SLPC  H10X20362   5.309   6.679   9.693  1.2040  0.5057 -2.2044
  178SLPC  H10Y20363   5.233   6.519   9.679  0.6884 -1.4147  0.5437
  178SLPC  C31120364   5.397   6.586   9.534  0.2280 -0.4504 -0.1184
  178SLPC  H11X20365   5.449   6.490   9.511 -1.1006 -1.8864  2.4256
  178SLPC  H11Y20366   5.475   6.665   9.538  0.5939 -0.6904 -1.7648
  178SLPC  C31220367   5.297   6.612   9.420  0.1495 -0.3716  0.4180
  178SLPC  H12X20368   5.234   6.700   9.445 -0.6233 -0.7579 -0.1418
  178SLPC  H12Y20369   5.225   6.528   9.421 -0.7442  0.3271 -1.2211
  178SLPC  C31320370   5.354   6.615   9.281  0.1572  0.1050 -0.8891
  178SLPC  H13X20371   5.447   6.560   9.254  1.9643  2.3733  0.2804
  178SLPC  H13Y20372   5.368   6.724   9.266 -1.1381  1.0282  3.3774
  178SLPC  C31420373   5.250   6.578   9.175 -0.4944  0.1654 -0.2004
  178SLPC  H14X20374   5.172   6.656   9.166  0.6862  1.1221 -3.7455
  178SLPC  H14Y20375   5.205   6.480   9.204 -0.8828 -0.2076 -1.9258
  178SLPC  C31520376   5.303   6.563   9.037 -0.8155 -0.3386 -0.3727
  178SLPC  H15X20377   5.397   6.504   9.039 -0.9985 -0.7653 -2.4391
  178SLPC  H15Y20378   5.236   6.504   8.970 -0.9998 -0.3192 -0.2079
  178SLPC  C31620379   5.310   6.697   8.973 -0.1276  0.0723  0.1048
  178SLPC  H16X20380   5.370   6.775   9.025  0.8183  1.0114 -2.2124
  178SLPC  H16Y20381   5.203   6.724   8.961 -0.4906 -0.9198  1.0067
  178SLPC  C31720382   5.372   6.706   8.831 -0.0450 -0.7237  0.3053
  178SLPC  H17X20383   5.350   6.614   8.773 -0.2751 -0.2793 -0.3220
  178SLPC  H17Y20384   5.482   6.719   8.831 -0.1428  0.2389  1.5103
  178SLPC  C31820385   5.326   6.827   8.752  0.6546  0.0632 -0.7616
  178SLPC  H18X20386   5.349   6.815   8.644 -1.2827  2.2609 -1.5155
  178SLPC  H18Y20387   5.376   6.912   8.804  0.8924  0.0036 -0.8921
  178SLPC  H18Z20388   5.216   6.835   8.763  0.5179 -0.8668 -1.4113
  179SLPC     N20389   0.342   3.481  10.428  0.2554 -0.4729 -0.0361
  179SLPC   C1320390   0.284   3.578  10.329  0.2144 -0.3072 -0.1400
  179SLPC  H13A20391   0.357   3.657  10.323 -0.9508  1.1537  2.7452
  179SLPC  H13B20392   0.279   3.534  10.231  0.6597 -1.3715  0.3015
  179SLPC  H13C20393   0.190   3.621  10.361 -0.3639 -1.6574  0.0521
  179SLPC   C1420394   0.241   3.399  10.501 -0.2613  0.2533  0.4184
  179SLPC  H14A20395   0.196   3.322  10.440  0.0425  1.8449 -1.9565
  179SLPC  H14B20396   0.289   3.356  10.588  0.9911  2.1220  0.6886
  179SLPC  H14C20397   0.162   3.455  10.549 -1.0526 -1.4657  1.2236
  179SLPC   C1520398   0.407   3.561  10.533 -0.2707 -0.0549 -0.0744
  179SLPC  H15A20399   0.339   3.614  10.598 -1.0550 -0.0328 -0.8846
  179SLPC  H15B20400   0.469   3.495  10.592  0.4842 -0.2371 -1.0555
  179SLPC  H15C20401   0.472   3.639  10.496  0.2315 -0.1384  0.6043
  179SLPC   C1220402   0.449   3.391  10.358 -0.1163  0.6384  0.3088
  179SLPC  H12A20403   0.513   3.350  10.435  1.6749  3.2326  0.3550
  179SLPC  H12B20404   0.518   3.458  10.309  0.0798  0.7296  0.7023
  179SLPC   C1120405   0.396   3.267  10.272  0.2285 -1.3885 -0.0738
  179SLPC  H11A20406   0.470   3.238  10.195  2.9224 -1.5878  2.4353
  179SLPC  H11B20407   0.315   3.314  10.212 -0.9711  0.8712  3.0182
  179SLPC     P20408   0.445   3.040  10.374 -0.6160 -0.1010  0.3846
  179SLPC   O1320409   0.570   3.111  10.418  1.2307 -0.3199  0.0936
  179SLPC   O1420410   0.386   2.942  10.469  0.3207  0.5443  0.7893
  179SLPC   O1220411   0.341   3.154  10.346 -0.0592  0.3077 -0.1240
  179SLPC   O1120412   0.475   2.979  10.233 -0.3245  0.7686  0.0566
  179SLPC    C120413   0.355   2.907  10.173 -0.0463  0.1732  0.1145
  179SLPC    HA20414   0.276   2.894  10.251  0.8531  0.2223  1.0623
  179SLPC    HB20415   0.304   2.973  10.099 -1.0112 -2.1466 -1.4152
  179SLPC    C220416   0.396   2.768  10.120  0.7602  0.1804  0.2349
  179SLPC    HS20417   0.442   2.713  10.204 -1.6512 -1.3837  0.6258
  179SLPC   O2120418   0.479   2.782  10.009 -0.6473 -0.1053 -0.0670
  179SLPC   C2120419   0.532   2.678   9.964 -0.2065  0.0911 -0.2051
  179SLPC   O2220420   0.521   2.565  10.012 -0.2501 -0.0638 -0.1578
  179SLPC   C2220421   0.602   2.702   9.829 -0.4994  0.3397  0.0226
  179SLPC   H2R20422   0.536   2.770   9.772 -0.9600 -0.1003  0.0194
  179SLPC   H2S20423   0.700   2.750   9.851 -0.7092  0.9786 -0.4303
  179SLPC    C320424   0.263   2.692  10.077 -0.1391  0.0874 -0.3644
  179SLPC    HX20425   0.215   2.666  10.173  4.3312 -2.6916  1.4570
  179SLPC    HY20426   0.299   2.597  10.032  2.1387  1.0714 -0.7688
  179SLPC   O3120427   0.172   2.769   9.994 -0.2255  0.2235 -0.6985
  179SLPC   C3120428   0.194   2.764   9.866  0.2484 -0.2415 -0.8115
  179SLPC   O3220429   0.288   2.707   9.810  0.3158 -0.0675  0.0903
  179SLPC   C3220430   0.089   2.849   9.790  0.4810 -0.1058  0.2372
  179SLPC   H2X20431  -0.002   2.819   9.847  1.9685 -0.8837  2.3526
  179SLPC   H2Y20432   0.083   2.815   9.685  0.2906 -1.5498  0.6816
  179SLPC   C2320433   0.631   2.575   9.750 -0.4155 -0.5273 -0.1827
  179SLPC   H3R20434   0.554   2.495   9.761  0.8480 -1.8179 -0.4498
  179SLPC   H3S20435   0.728   2.535   9.786  0.7892  2.2047 -0.1431
  179SLPC   C2420436   0.650   2.604   9.605 -0.0767 -0.3548 -0.1915
  179SLPC   H4R20437   0.721   2.681   9.568 -0.8841  0.1107 -0.7834
  179SLPC   H4S20438   0.564   2.647   9.551  0.4299 -1.5705 -2.0601
  179SLPC   C2520439   0.677   2.471   9.530  0.5178  0.3001  0.0246
  179SLPC   H5R20440   0.596   2.404   9.567 -2.6420  1.3954 -4.2030
  179SLPC   H5S20441   0.775   2.426   9.558 -0.1321 -0.4767  1.1369
  179SLPC   C2620442   0.663   2.486   9.384  0.4942 -0.2600  0.1695
  179SLPC   H6R20443   0.572   2.544   9.358  0.0656 -0.4874  1.1421
  179SLPC   H6S20444   0.642   2.382   9.351  0.3656 -0.8362  1.9817
  179SLPC   C2720445   0.802   2.532   9.324 -0.0096  0.6292 -0.3368
  179SLPC   H7R20446   0.871   2.456   9.365 -1.1165 -0.6890 -0.8134
  179SLPC   H7S20447   0.828   2.634   9.360  3.6505 -0.6828  1.2184
  179SLPC   C2820448   0.812   2.519   9.173  0.7856 -0.7142 -0.4451
  179SLPC   H8R20449   0.907   2.560   9.131  0.2149  0.7743 -0.3508
  179SLPC   H8S20450   0.739   2.587   9.123  1.7937 -0.4356 -1.6044
  179SLPC   C2920451   0.792   2.378   9.124  0.0478 -0.1824  0.2460
  179SLPC   H9R20452   0.854   2.312   9.186  0.0642 -1.8197 -1.4490
  179SLPC  C21020453   0.730   2.327   9.015 -0.7226 -0.5810 -0.0857
  179SLPC  H10R20454   0.747   2.220   9.002 -0.1241 -0.9187  2.8900
  179SLPC  C21120455   0.651   2.396   8.909 -0.0365  0.5551  0.2544
  179SLPC  H11R20456   0.657   2.506   8.922  1.0641  0.4384  0.9239
  179SLPC  H11S20457   0.544   2.372   8.921 -0.3127 -0.6052 -3.2339
  179SLPC  C21220458   0.686   2.374   8.764  0.5962  0.1802  0.3738
  179SLPC  H12R20459   0.766   2.304   8.738  0.5430 -0.2281  1.2690
  179SLPC  C21320460   0.625   2.432   8.659  0.0613  0.9523  0.3536
  179SLPC  H13R20461   0.677   2.421   8.563 -1.2519 -1.6951 -0.1412
  179SLPC  C21420462   0.517   2.536   8.658 -0.0668 -0.6981 -0.8356
  179SLPC  H14R20463   0.566   2.635   8.647 -0.4851 -0.6107 -2.0655
  179SLPC  H14S20464   0.462   2.541   8.755 -1.3832 -1.2014 -1.5303
  179SLPC  C21520465   0.404   2.528   8.553  0.0720  0.1030 -0.2205
  179SLPC  H15R20466   0.432   2.513   8.447 -1.7401 -1.1545 -0.5767
  179SLPC  H15S20467   0.353   2.626   8.546  1.3043  0.8422  0.7196
  179SLPC  C21620468   0.306   2.420   8.592  0.3434 -0.3023 -0.5352
  179SLPC  H16R20469   0.271   2.446   8.695 -0.5330  0.2246 -0.9574
  179SLPC  H16S20470   0.368   2.328   8.592  2.7407  1.1820 -2.7766
  179SLPC  C21720471   0.181   2.401   8.495 -0.5546 -0.2279  0.5128
  179SLPC  H17R20472   0.125   2.494   8.472 -1.5950 -1.0165 -0.2026
  179SLPC  H17S20473   0.118   2.328   8.550  0.6985 -0.9991  0.9733
  179SLPC  C21820474   0.228   2.337   8.364  0.8295 -0.4470 -0.5269
  179SLPC  H18R20475   0.297   2.253   8.389  2.3440  1.4370  2.1371
  179SLPC  H18S20476   0.278   2.418   8.308 -0.1388  0.2301 -0.4221
  179SLPC  H18T20477   0.138   2.298   8.312 -0.0089  1.6321 -0.7395
  179SLPC   C3320478   0.128   3.002   9.793 -0.3635 -0.4917 -0.1503
  179SLPC   H3X20479   0.111   3.031   9.899  1.4196 -3.2281  1.0154
  179SLPC   H3Y20480   0.058   3.068   9.737 -0.9610  0.1236  1.2869
  179SLPC   C3420481   0.269   3.043   9.754  0.5880  0.3686 -0.0945
  179SLPC   H4X20482   0.337   2.980   9.815  0.0034 -0.6357 -0.4514
  179SLPC   H4Y20483   0.288   3.149   9.780  0.1294  1.2976 -3.1038
  179SLPC   C3520484   0.290   3.041   9.605 -0.2014 -0.3515 -0.0882
  179SLPC   H5X20485   0.323   3.140   9.568  2.3349  0.4556  3.7498
  179SLPC   H5Y20486   0.190   3.041   9.558 -0.7598  1.7342  1.0227
  179SLPC   C3620487   0.368   2.922   9.551 -0.3312 -0.4695 -0.4072
  179SLPC   H6X20488   0.344   2.830   9.608  0.8316  0.3867  1.6041
  179SLPC   H6Y20489   0.479   2.933   9.551 -0.3964  0.5325  0.8895
  179SLPC   C3720490   0.337   2.894   9.401 -0.5039 -0.2070 -0.0260
  179SLPC   H7X20491   0.370   2.984   9.345  0.4734  0.2138  1.1653
  179SLPC   H7Y20492   0.227   2.884   9.390 -0.9642 -1.3596  3.9702
  179SLPC   C3820493   0.403   2.760   9.344  0.5394 -0.7314 -0.4915
  179SLPC   H8X20494   0.355   2.674   9.395  2.2150 -1.1051  0.5397
  179SLPC   H8Y20495   0.513   2.766   9.355  0.4807  2.2700 -0.5830
  179SLPC   C3920496   0.387   2.748   9.192 -0.0014  0.0573  1.5338
  179SLPC   H9X20497   0.468   2.686   9.148 -1.9608 -2.3643  1.1057
  179SLPC   H9Y20498   0.393   2.847   9.142 -0.8218 -1.2369 -1.3979
  179SLPC  C31020499   0.256   2.684   9.150  0.8576  0.5023  0.1963
  179SLPC  H10X20500   0.174   2.749   9.185  0.6240  0.5454 -0.4209
  179SLPC  H10Y20501   0.241   2.596   9.216 -1.1246 -0.9322 -2.0073
  179SLPC  C31120502   0.246   2.656   9.001  0.2501 -0.0348  0.2758
  179SLPC  H11X20503   0.160   2.591   8.976 -0.3733 -0.2017  2.6344
  179SLPC  H11Y20504   0.335   2.604   8.958 -0.7254 -0.7379 -0.9593
  179SLPC  C31220505   0.196   2.790   8.931 -0.3511  0.6847  0.5070
  179SLPC  H12X20506   0.252   2.878   8.971 -1.9280  1.5451  0.8760
  179SLPC  H12Y20507   0.089   2.809   8.955 -0.9917 -1.8981 -0.0223
  179SLPC  C31320508   0.212   2.795   8.779 -0.3481 -0.8761  0.0793
  179SLPC  H13X20509   0.138   2.729   8.728  0.9173 -1.0419 -1.6267
  179SLPC  H13Y20510   0.307   2.744   8.754 -1.5666 -3.1075 -0.3133
  179SLPC  C31420511   0.203   2.932   8.710 -0.1921  0.6471 -0.5508
  179SLPC  H14X20512   0.275   3.003   8.755  0.0867  1.0985 -1.6870
  179SLPC  H14Y20513   0.103   2.976   8.729 -1.6224 -1.7897 -1.8438
  179SLPC  C31520514   0.235   2.936   8.565  0.2410  0.3580 -0.2366
  179SLPC  H15X20515   0.343   2.912   8.549  1.0220 -0.4660  4.6205
  179SLPC  H15Y20516   0.212   3.041   8.537  0.2085  0.2907 -0.4586
  179SLPC  C31620517   0.148   2.845   8.469  0.1953  0.2949 -0.5196
  179SLPC  H16X20518   0.175   2.744   8.507  0.4402  1.1853  1.8811
  179SLPC  H16Y20519   0.172   2.853   8.361 -3.7935 -1.7721 -1.7665
  179SLPC  C31720520  -0.003   2.843   8.497 -0.4306 -1.2236  0.0708
  179SLPC  H17X20521  -0.045   2.946   8.501  0.3019 -0.9519  2.6457
  179SLPC  H17Y20522  -0.042   2.800   8.592 -0.7268 -1.2143 -0.0478
  179SLPC  C31820523  -0.082   2.777   8.380  0.1563 -0.1902  0.3710
  179SLPC  H18X20524  -0.191   2.788   8.402  0.2139 -2.2399  1.8456
  179SLPC  H18Y20525  -0.067   2.667   8.383 -1.7928 -0.4960  0.2822
  179SLPC  H18Z20526  -0.057   2.833   8.287 -1.2996  2.1763  1.3132
  180SLPC     N20527   2.140   0.771  10.611 -0.4677 -0.0562  0.2355
  180SLPC   C1320528   2.257   0.859  10.620  0.1836  0.4213  0.0385
  180SLPC  H13A20529   2.320   0.863  10.707  0.9700 -2.2416 -0.3216
  180SLPC  H13B20530   2.328   0.841  10.541  1.1228  0.8253  0.7771
  180SLPC  H13C20531   2.207   0.953  10.599 -1.4137 -0.4243 -0.1261
  180SLPC   C1420532   2.188   0.626  10.624  0.2802 -0.3254  0.7090
  180SLPC  H14A20533   2.260   0.601  10.547  1.0361 -1.6437  1.7918
  180SLPC  H14B20534   2.229   0.613  10.723 -0.6830  0.1043  1.1802
  180SLPC  H14C20535   2.106   0.560  10.599 -2.2534  3.8428 -3.6480
  180SLPC   C1520536   2.064   0.794  10.481 -0.5306  0.7589  0.1625
  180SLPC  H15A20537   1.986   0.721  10.477  0.2632 -0.0500 -1.7156
  180SLPC  H15B20538   2.014   0.890  10.481 -0.0483  1.0701 -1.6880
  180SLPC  H15C20539   2.126   0.793  10.392  2.3279  1.7176  2.0029
  180SLPC   C1220540   2.034   0.799  10.718  0.6081 -0.5966 -0.5587
  180SLPC  H12A20541   2.069   0.749  10.807  0.5153 -1.6368 -1.0982
  180SLPC  H12B20542   1.952   0.735  10.690 -0.3525 -0.5580  1.9484
  180SLPC   C1120543   1.969   0.938  10.740  0.4181 -0.0364  0.0652
  180SLPC  H11A20544   2.037   1.025  10.752  0.4388 -0.0267 -0.1107
  180SLPC  H11B20545   1.909   0.932  10.833  1.1307 -0.0512  0.5363
  180SLPC     P20546   1.845   1.112  10.586 -0.3676 -0.1303  0.1550
  180SLPC   O1320547   1.802   1.194  10.704  0.2784  0.5425 -0.3957
  180SLPC   O1420548   1.932   1.178  10.484 -0.5208 -0.2290  0.5860
  180SLPC   O1220549   1.902   0.972  10.624  0.5095  0.4558 -0.1470
  180SLPC   O1120550   1.715   1.062  10.501 -0.3569 -0.9349  0.5799
  180SLPC    C120551   1.674   0.925  10.494 -0.3859 -0.1942 -0.1188
  180SLPC    HA20552   1.715   0.856  10.571 -0.2329  1.3503  1.2394
  180SLPC    HB20553   1.564   0.927  10.508 -0.7856 -0.5958 -2.7043
  180SLPC    C220554   1.707   0.858  10.360  0.2133 -0.2062  0.7378
  180SLPC    HS20555   1.816   0.882  10.354 -0.2482  2.0948  0.3509
  180SLPC   O2120556   1.632   0.940  10.264  0.3621  0.4905 -0.4901
  180SLPC   C2120557   1.704   0.968  10.152  0.1482  0.1344 -0.3659
  180SLPC   O2220558   1.819   0.939  10.130  0.2056  0.3067  0.8492
  180SLPC   C2220559   1.622   1.067  10.067 -0.5201  1.1423  0.4500
  180SLPC   H2R20560   1.518   1.030  10.056 -0.7037  1.3467  1.4362
  180SLPC   H2S20561   1.617   1.160  10.128  0.3574  2.3406 -1.2032
  180SLPC    C320562   1.674   0.712  10.355  0.3724  1.1977 -0.5814
  180SLPC    HX20563   1.565   0.701  10.372  0.7735  0.0315  1.6722
  180SLPC    HY20564   1.726   0.655  10.435 -1.6326  0.0360 -0.0512
  180SLPC   O3120565   1.698   0.655  10.222  0.0073  0.0960 -0.2919
  180SLPC   C3120566   1.827   0.606  10.206  0.7570 -0.6515  0.0645
  180SLPC   O3220567   1.915   0.608  10.290 -0.5696  0.3236  0.5588
  180SLPC   C3220568   1.829   0.535  10.073 -0.5048  0.7544  0.2260
  180SLPC   H2X20569   1.779   0.437  10.087  1.9229 -0.6165 -0.1402
  180SLPC   H2Y20570   1.938   0.521  10.060 -0.4907 -0.5030  1.4715
  180SLPC   C2320571   1.680   1.115   9.939  0.2902  0.2390 -0.2312
  180SLPC   H3R20572   1.788   1.131   9.954  0.5103 -2.6654  2.6369
  180SLPC   H3S20573   1.620   1.205   9.913 -0.9839 -0.3051  0.7005
  180SLPC   C2420574   1.652   1.014   9.825  0.0426  0.4809  0.1646
  180SLPC   H4R20575   1.541   1.008   9.825 -0.3600  4.3679 -1.9243
  180SLPC   H4S20576   1.694   0.914   9.848  1.7921  1.1975  0.2686
  180SLPC   C2520577   1.703   1.055   9.683 -0.5726  0.0868 -0.1109
  180SLPC   H5R20578   1.811   1.032   9.675 -0.3631  0.7653  0.6299
  180SLPC   H5S20579   1.690   1.166   9.679  0.0617  0.1298 -1.7828
  180SLPC   C2620580   1.629   0.992   9.565 -0.3590 -0.3019 -0.0847
  180SLPC   H6R20581   1.524   1.028   9.554 -0.3816 -0.4081 -0.2210
  180SLPC   H6S20582   1.616   0.882   9.570  2.9933 -0.8340 -0.8966
  180SLPC   C2720583   1.707   1.012   9.431 -0.3722 -0.3758  0.4210
  180SLPC   H7R20584   1.816   0.993   9.445 -0.0540 -0.2455 -1.4830
  180SLPC   H7S20585   1.702   1.121   9.412 -0.0639 -0.6689 -1.6274
  180SLPC   C2820586   1.647   0.942   9.308 -0.4357  0.7368  0.2267
  180SLPC   H8R20587   1.552   0.997   9.291 -1.7969 -1.0824  1.5191
  180SLPC   H8S20588   1.615   0.838   9.332 -1.0816  0.5954 -1.1513
  180SLPC   C2920589   1.727   0.928   9.178  0.3687  0.6566  0.1856
  180SLPC   H9R20590   1.821   0.985   9.173 -0.3338  1.7937 -0.4641
  180SLPC  C21020591   1.676   0.865   9.071 -0.0636 -0.6718  0.0437
  180SLPC  H10R20592   1.733   0.862   8.977  1.0357 -0.3354  0.6896
  180SLPC  C21120593   1.540   0.801   9.057 -0.3398  0.4473  0.2883
  180SLPC  H11R20594   1.524   0.755   9.156  2.7323 -0.0093  0.6608
  180SLPC  H11S20595   1.541   0.719   8.982 -3.0275  0.8090 -0.2516
  180SLPC  C21220596   1.429   0.896   9.022 -0.4361  0.2141 -0.7424
  180SLPC  H12R20597   1.432   0.988   9.083  3.6102 -0.2630  0.0141
  180SLPC  C21320598   1.324   0.859   8.943  0.2329 -0.5351 -0.1228
  180SLPC  H13R20599   1.249   0.939   8.927 -0.8682 -1.5627 -0.2167
  180SLPC  C21420600   1.308   0.728   8.869  0.4339  0.1807 -0.7872
  180SLPC  H14R20601   1.199   0.708   8.869  0.5985 -1.3271  2.5259
  180SLPC  H14S20602   1.364   0.649   8.922  1.3874  0.1839 -1.7490
  180SLPC  C21520603   1.360   0.718   8.723  0.1492 -0.3730  0.3056
  180SLPC  H15R20604   1.291   0.775   8.658 -0.6929 -1.6176  0.0892
  180SLPC  H15S20605   1.341   0.612   8.696 -0.4536 -0.1907 -0.0065
  180SLPC  C21620606   1.505   0.749   8.698 -0.1693  1.1507 -0.0928
  180SLPC  H16R20607   1.572   0.671   8.740 -0.6819  0.2424 -0.9240
  180SLPC  H16S20608   1.526   0.856   8.721  0.4873  1.0159 -0.0464
  180SLPC  C21720609   1.549   0.757   8.549 -0.0037 -0.1775 -0.4336
  180SLPC  H17R20610   1.477   0.827   8.501  0.2310 -0.2715 -0.9311
  180SLPC  H17S20611   1.539   0.657   8.500  0.5219  0.1353 -1.1824
  180SLPC  C21820612   1.689   0.798   8.511 -0.1186  0.0615 -0.8853
  180SLPC  H18R20613   1.771   0.756   8.573  0.0415 -0.5862 -1.5305
  180SLPC  H18S20614   1.700   0.909   8.522  0.2669  0.0112 -0.7193
  180SLPC  H18T20615   1.704   0.767   8.406  0.9659 -0.1895 -0.6674
  180SLPC   C3320616   1.761   0.605   9.953  0.6895 -0.0605  0.1676
  180SLPC   H3X20617   1.795   0.709   9.932  0.7099  0.0367  0.6802
  180SLPC   H3Y20618   1.651   0.616   9.964  0.8408 -0.4743  2.5595
  180SLPC   C3420619   1.793   0.540   9.822  0.4650 -0.0509  0.2742
  180SLPC   H4X20620   1.769   0.433   9.841  1.2245 -0.2376  0.2175
  180SLPC   H4Y20621   1.904   0.536   9.817  0.4355  0.5224 -2.7319
  180SLPC   C3520622   1.732   0.596   9.695 -0.2175 -0.6576  0.0091
  180SLPC   H5X20623   1.767   0.700   9.678  0.6462 -0.9155  0.1317
  180SLPC   H5Y20624   1.623   0.602   9.716  0.2620 -0.4788  2.8717
  180SLPC   C3620625   1.752   0.496   9.578  0.1541 -0.4238 -0.3061
  180SLPC   H6X20626   1.697   0.409   9.619 -0.3404  0.5908  1.2616
  180SLPC   H6Y20627   1.862   0.485   9.578  0.3378  1.1793  0.4336
  180SLPC   C3720628   1.693   0.543   9.447 -0.2044 -0.3865 -0.0617
  180SLPC   H7X20629   1.749   0.634   9.416 -0.4763  0.0691  0.7517
  180SLPC   H7Y20630   1.587   0.574   9.462  0.0218 -0.1517  1.1452
  180SLPC   C3820631   1.693   0.435   9.333  0.5452 -1.2436 -0.4071
  180SLPC   H8X20632   1.620   0.365   9.379 -0.2090  0.3583  0.9424
  180SLPC   H8Y20633   1.792   0.387   9.322  0.4879 -1.4021 -0.2262
  180SLPC   C3920634   1.643   0.496   9.196 -0.6016  0.0744 -0.8415
  180SLPC   H9X20635   1.722   0.562   9.153  0.0969  0.5863  1.1177
  180SLPC   H9Y20636   1.543   0.543   9.214 -2.0824 -3.3507  0.6854
  180SLPC  C31020637   1.605   0.369   9.110 -0.8115  0.4561 -0.5018
  180SLPC  H10X20638   1.552   0.303   9.182  1.1196 -0.0087  0.5510
  180SLPC  H10Y20639   1.700   0.330   9.069 -0.5980  1.1681 -0.7046
  180SLPC  C31120640   1.517   0.402   8.995  0.1327 -0.2534 -0.3409
  180SLPC  H11X20641   1.551   0.492   8.939 -1.4146  0.0563 -0.8234
  180SLPC  H11Y20642   1.416   0.428   9.034  0.4890  0.0914  0.3787
  180SLPC  C31220643   1.500   0.295   8.886  0.7967  0.3546  0.0263
  180SLPC  H12X20644   1.424   0.228   8.932  1.2109  1.0381  1.7486
  180SLPC  H12Y20645   1.589   0.233   8.860  0.2925  0.3209 -1.7767
  180SLPC  C31320646   1.436   0.358   8.762  0.6727  0.1403  0.0425
  180SLPC  H13X20647   1.503   0.443   8.737  0.0347  0.6437  0.0312
  180SLPC  H13Y20648   1.339   0.400   8.795  0.5447 -0.6962  0.7349
  180SLPC  C31420649   1.417   0.269   8.639  0.6428  0.2001 -0.0716
  180SLPC  H14X20650   1.403   0.331   8.548  3.0584  2.0927  0.7302
  180SLPC  H14Y20651   1.333   0.203   8.667 -0.3625  1.8991  1.0371
  180SLPC  C31520652   1.541   0.173   8.619  0.1363 -0.1199 -0.2937
  180SLPC  H15X20653   1.572   0.121   8.712  1.1180 -0.3726 -0.7512
  180SLPC  H15Y20654   1.619   0.248   8.592 -2.9427  3.4006 -0.2238
  180SLPC  C31620655   1.509   0.069   8.510 -0.4265 -0.2581 -0.5099
  180SLPC  H16X20656   1.414   0.014   8.525 -0.1633 -1.1718 -2.0400
  180SLPC  H16Y20657   1.586  -0.011   8.504  0.6066  0.6578  0.0568
  180SLPC  C31720658   1.509   0.107   8.368  0.2158 -0.0821 -0.3019
  180SLPC  H17X20659   1.443   0.196   8.360 -0.3070  0.1874  4.3700
  180SLPC  H17Y20660   1.475   0.023   8.304 -2.8799  0.5491  0.3769
  180SLPC  C31820661   1.639   0.157   8.314 -0.4480  0.1824  0.0686
  180SLPC  H18X20662   1.624   0.211   8.217 -0.7239 -0.8436 -0.4791
  180SLPC  H18Y20663   1.714   0.076   8.304 -0.5720  0.1866 -1.1434
  180SLPC  H18Z20664   1.692   0.217   8.391  2.0298 -1.1713 -0.4783
  181SLPC     N20665   1.009   6.363  11.141  0.5913 -0.5675 -0.3732
  181SLPC   C1320666   1.136   6.278  11.150  0.0450 -0.1530  0.1919
  181SLPC  H13A20667   1.134   6.214  11.237 -0.2053  1.2205  1.2460
  181SLPC  H13B20668   1.156   6.227  11.057  1.1095 -1.1043  0.9159
  181SLPC  H13C20669   1.222   6.341  11.168  1.0587 -1.8226  1.4657
  181SLPC   C1420670   0.898   6.264  11.111 -0.0620 -0.0344  0.2586
  181SLPC  H14A20671   0.901   6.229  11.009  1.9029 -0.9966  0.6054
  181SLPC  H14B20672   0.899   6.180  11.179  0.4690 -1.0934 -1.0260
  181SLPC  H14C20673   0.802   6.315  11.119  0.3120  0.6856  0.2732
  181SLPC   C1520674   1.029   6.462  11.032 -0.4298 -0.2505 -0.1611
  181SLPC  H15A20675   1.045   6.413  10.937 -0.4636 -0.4281 -0.0758
  181SLPC  H15B20676   0.950   6.535  11.026  0.4465  1.0129  2.1693
  181SLPC  H15C20677   1.120   6.519  11.046 -0.9258  1.3809 -2.7659
  181SLPC   C1220678   0.979   6.423  11.281 -0.0611 -0.4213 -1.1325
  181SLPC  H12A20679   1.069   6.464  11.324 -1.5401  0.7164  1.0258
  181SLPC  H12B20680   0.946   6.346  11.348 -1.6033  1.0279 -0.1611
  181SLPC   C1120681   0.863   6.527  11.288 -0.9138 -0.5424 -0.5173
  181SLPC  H11A20682   0.911   6.612  11.234  0.2001 -1.5976 -1.2467
  181SLPC  H11B20683   0.844   6.555  11.394 -2.4674  2.4392 -1.4606
  181SLPC     P20684   0.637   6.579  11.161  0.3285  0.1007 -0.4681
  181SLPC   O1320685   0.585   6.492  11.054  0.2781  0.0280  0.1783
  181SLPC   O1420686   0.541   6.622  11.263  0.3813 -0.3084  0.4002
  181SLPC   O1220687   0.746   6.489  11.228 -0.2663 -0.0811 -0.3699
  181SLPC   O1120688   0.712   6.702  11.103 -0.3598  0.4234  0.4227
  181SLPC    C120689   0.788   6.709  10.977  0.0607  0.4074 -0.0509
  181SLPC    HA20690   0.898   6.715  10.988  0.0624  0.5821 -0.1598
  181SLPC    HB20691   0.776   6.616  10.918 -1.2370  0.6865 -0.2608
  181SLPC    C220692   0.751   6.824  10.886 -0.1966 -0.1062 -0.8497
  181SLPC    HS20693   0.703   6.906  10.943 -2.2741 -1.4000 -0.5863
  181SLPC   O2120694   0.668   6.774  10.786 -0.2975  0.3977 -0.5067
  181SLPC   C2120695   0.568   6.847  10.747 -0.1868 -0.4892  0.0973
  181SLPC   O2220696   0.542   6.961  10.788  0.0127 -0.1855 -0.2129
  181SLPC   C2220697   0.486   6.791  10.634  0.1594 -0.9846  0.3243
  181SLPC   H2R20698   0.480   6.680  10.645  1.3892 -1.1432 -0.3914
  181SLPC   H2S20699   0.390   6.836  10.668 -0.3075 -1.9509  0.3148
  181SLPC    C320700   0.873   6.883  10.825 -0.5696  0.9748 -0.2432
  181SLPC    HX20701   0.940   6.811  10.772 -0.3329  0.2017  1.0656
  181SLPC    HY20702   0.938   6.896  10.914 -1.1178 -2.7283  0.8576
  181SLPC   O3120703   0.848   7.008  10.764  0.0005  0.8669  0.7947
  181SLPC   C3120704   0.848   7.012  10.638  0.6882  0.4460 -0.4663
  181SLPC   O3220705   0.879   6.919  10.559 -0.1229 -0.5140 -0.6031
  181SLPC   C3220706   0.790   7.141  10.595 -0.4407 -0.3296  0.8493
  181SLPC   H2X20707   0.854   7.220  10.639 -0.5821 -0.5934  1.5305
  181SLPC   H2Y20708   0.687   7.146  10.637  0.1676 -1.6825  2.6208
  181SLPC   C2320709   0.523   6.848  10.495  0.6307  0.0766  0.8210
  181SLPC   H3R20710   0.625   6.819  10.462  1.6636 -0.7381  4.3331
  181SLPC   H3S20711   0.531   6.958  10.514  0.1483 -0.0763  2.0156
  181SLPC   C2420712   0.418   6.832  10.391  0.6325  0.2109  1.0017
  181SLPC   H4R20713   0.321   6.875  10.427  0.2204 -0.2137  0.4138
  181SLPC   H4S20714   0.403   6.725  10.367 -1.5233  0.5037  0.8145
  181SLPC   C2520715   0.458   6.896  10.253 -0.2677  0.1372 -0.3019
  181SLPC   H5R20716   0.486   7.003  10.270  1.2662 -0.3341  0.2553
  181SLPC   H5S20717   0.372   6.875  10.186 -2.4741 -0.2672  2.4757
  181SLPC   C2620718   0.581   6.822  10.193  0.8748  0.5313  0.1917
  181SLPC   H6R20719   0.548   6.717  10.174 -0.0927  1.0300 -1.0680
  181SLPC   H6S20720   0.668   6.839  10.259  0.1845 -0.9311  1.5527
  181SLPC   C2720721   0.624   6.877  10.055  0.5466  0.2902  0.0649
  181SLPC   H7R20722   0.726   6.836  10.041  0.3572  0.3095 -1.5614
  181SLPC   H7S20723   0.622   6.986  10.074  0.0532  0.6963 -2.0204
  181SLPC   C2820724   0.537   6.841   9.933  0.4119  0.8816  0.3860
  181SLPC   H8R20725   0.432   6.877   9.946 -1.0051 -2.1954 -1.5717
  181SLPC   H8S20726   0.526   6.732   9.918 -1.8022  1.3644 -2.4181
  181SLPC   C2920727   0.610   6.892   9.812 -0.0888 -0.2353 -0.0712
  181SLPC   H9R20728   0.681   6.972   9.840 -2.1512  1.8799 -0.5661
  181SLPC  C21020729   0.607   6.826   9.693  0.0360 -0.2251 -0.2766
  181SLPC  H10R20730   0.658   6.872   9.606  1.7276 -1.1614  0.1656
  181SLPC  C21120731   0.530   6.703   9.662  0.9084  0.8391 -0.1736
  181SLPC  H11R20732   0.514   6.631   9.745 -0.9150  2.0103  0.5500
  181SLPC  H11S20733   0.583   6.656   9.577 -2.0197  1.6361 -2.6414
  181SLPC  C21220734   0.395   6.739   9.614  0.6776  0.5745 -0.4054
  181SLPC  H12R20735   0.332   6.802   9.677 -0.4571  0.4334 -1.3627
  181SLPC  C21320736   0.334   6.697   9.504 -0.2786 -0.0256 -0.2528
  181SLPC  H13R20737   0.238   6.743   9.476 -1.0180 -0.0794  2.0404
  181SLPC  C21420738   0.385   6.607   9.397 -0.4068  0.5034  0.2779
  181SLPC  H14R20739   0.310   6.533   9.362 -0.5503  1.0631 -0.6313
  181SLPC  H14S20740   0.469   6.548   9.440 -0.0454  0.7528 -0.0878
  181SLPC  C21520741   0.440   6.696   9.278  0.1536 -0.3779  0.0222
  181SLPC  H15R20742   0.499   6.622   9.219 -0.7604 -0.3929 -0.9031
  181SLPC  H15S20743   0.513   6.765   9.323 -1.2043  0.4472  1.0460
  181SLPC  C21620744   0.325   6.751   9.201 -0.1919 -0.4565  0.2463
  181SLPC  H16R20745   0.270   6.812   9.276 -0.6296 -0.9278  0.3138
  181SLPC  H16S20746   0.256   6.676   9.156 -0.5743 -0.3746  0.6986
  181SLPC  C21720747   0.362   6.864   9.101  0.2234  0.1573 -0.7955
  181SLPC  H17R20748   0.445   6.822   9.041  0.7189 -2.0950  1.3092
  181SLPC  H17S20749   0.404   6.946   9.163 -1.0259  0.2361 -0.0106
  181SLPC  C21820750   0.258   6.909   8.999 -0.1568  0.4145 -0.5607
  181SLPC  H18R20751   0.304   6.998   8.951  0.1583  1.8619  2.2142
  181SLPC  H18S20752   0.174   6.944   9.063  0.3443 -1.9042  1.5226
  181SLPC  H18T20753   0.233   6.817   8.942 -0.0026  0.0747 -0.0761
  181SLPC   C3320754   0.780   7.162  10.443 -0.2698  1.1006  0.4571
  181SLPC   H3X20755   0.701   7.099  10.397 -0.1350  1.6865 -0.6125
  181SLPC   H3Y20756   0.874   7.137  10.389  0.4773  1.3702  1.5808
  181SLPC   C3420757   0.736   7.304  10.403  0.2986 -0.8138 -0.1926
  181SLPC   H4X20758   0.789   7.383  10.460 -1.5557 -0.3545  0.9598
  181SLPC   H4Y20759   0.630   7.306  10.436  0.1124  0.2154 -0.8101
  181SLPC   C3520760   0.756   7.331  10.252 -0.5627  0.1033 -0.2710
  181SLPC   H5X20761   0.865   7.344  10.237 -0.7611  1.1137 -0.8593
  181SLPC   H5Y20762   0.719   7.432  10.227 -0.9122  0.2965  0.9659
  181SLPC   C3620763   0.700   7.231  10.156  0.4596 -0.0531  0.2558
  181SLPC   H6X20764   0.595   7.203  10.180  0.4357  0.0348  0.2560
  181SLPC   H6Y20765   0.753   7.133  10.158 -2.9660 -2.1015 -0.8388
  181SLPC   C3720766   0.707   7.277  10.010  1.0669  0.8878  0.2781
  181SLPC   H7X20767   0.681   7.188   9.948  3.2576 -2.1471  3.3787
  181SLPC   H7Y20768   0.813   7.298   9.986  0.4667  0.9158 -2.7952
  181SLPC   C3820769   0.608   7.393   9.982 -0.7068  0.4005 -0.5999
  181SLPC   H8X20770   0.668   7.476   9.939 -0.0392  0.4913  0.4658
  181SLPC   H8Y20771   0.565   7.428  10.078 -2.7146  0.6763 -1.5432
  181SLPC   C3920772   0.487   7.351   9.895 -0.5268  0.8316 -0.6597
  181SLPC   H9X20773   0.425   7.269   9.936  0.2371  0.8476  0.5644
  181SLPC   H9Y20774   0.530   7.315   9.799  1.9199 -1.7063  1.2350
  181SLPC  C31020775   0.384   7.465   9.876  0.0862  0.4942  0.4679
  181SLPC  H10X20776   0.432   7.563   9.852  0.4045 -0.0284 -1.0996
  181SLPC  H10Y20777   0.328   7.472   9.972 -0.7613 -0.6956  0.0836
  181SLPC  C31120778   0.277   7.455   9.765  0.0836  0.9406 -0.0221
  181SLPC  H11X20779   0.321   7.458   9.663  1.0243  1.1186  0.3812
  181SLPC  H11Y20780   0.219   7.550   9.772  0.7368  1.3911 -0.5925
  181SLPC  C31220781   0.188   7.333   9.775 -0.2228  0.8812  0.5821
  181SLPC  H12X20782   0.115   7.370   9.851 -1.6418  0.9473 -0.7565
  181SLPC  H12Y20783   0.237   7.246   9.824 -0.6236 -0.9953 -2.1411
  181SLPC  C31320784   0.130   7.290   9.646 -0.0963 -0.7595  1.0519
  181SLPC  H13X20785   0.094   7.379   9.589 -3.0604 -2.3541  0.2136
  181SLPC  H13Y20786   0.048   7.217   9.665  0.4492 -2.2797 -1.9138
  181SLPC  C31420787   0.231   7.211   9.563 -0.3181 -0.4692 -0.2971
  181SLPC  H14X20788   0.254   7.113   9.610  2.8346  0.6652  0.7789
  181SLPC  H14Y20789   0.327   7.266   9.551 -1.9393  2.7784  0.4939
  181SLPC  C31520790   0.164   7.177   9.427 -0.3963  0.0652  0.0458
  181SLPC  H15X20791   0.074   7.115   9.447 -0.8115  1.2153  2.0061
  181SLPC  H15Y20792   0.235   7.115   9.368  2.3297  1.5187  1.5930
  181SLPC  C31620793   0.125   7.302   9.348  0.5551  0.0262 -0.1086
  181SLPC  H16X20794   0.215   7.367   9.347  1.6940 -1.3233  2.6793
  181SLPC  H16Y20795   0.044   7.364   9.392  0.2872  1.2558 -2.1992
  181SLPC  C31720796   0.061   7.262   9.212  0.1679  0.0272 -0.1177
  181SLPC  H17X20797   0.142   7.208   9.158  0.2212 -0.3355  0.3238
  181SLPC  H17Y20798   0.038   7.348   9.146  2.0652  1.1141  0.5641
  181SLPC  C31820799  -0.061   7.172   9.223  0.8809  0.6621  0.2776
  181SLPC  H18X20800  -0.131   7.188   9.139 -0.2507  0.6520  1.1983
  181SLPC  H18Y20801  -0.118   7.197   9.315  1.0613 -0.5622  0.7437
  181SLPC  H18Z20802  -0.040   7.063   9.225 -2.9304 -0.4195 -3.5049
  182SLPC     N20803   6.201   0.872  11.175 -0.0002 -0.1432 -0.1880
  182SLPC   C1320804   6.203   0.949  11.307 -0.5155 -0.6597 -0.0433
  182SLPC  H13A20805   6.220   0.887  11.394 -1.5698 -1.6869 -0.5456
  182SLPC  H13B20806   6.279   1.026  11.301 -2.2576  1.0696 -1.1205
  182SLPC  H13C20807   6.109   0.999  11.323 -1.2539 -2.3111  1.0018
  182SLPC   C1420808   6.074   0.792  11.179  0.3176 -0.2392  0.5636
  182SLPC  H14A20809   5.987   0.851  11.156  0.4047 -1.5896 -4.5506
  182SLPC  H14B20810   6.055   0.724  11.097 -2.4189 -0.0694  0.9352
  182SLPC  H14C20811   6.065   0.749  11.277  0.3443 -1.5760  0.0053
  182SLPC   C1520812   6.318   0.779  11.174  0.3021 -0.2442  0.1060
  182SLPC  H15A20813   6.331   0.727  11.080  2.6611  0.6526 -0.1251
  182SLPC  H15B20814   6.408   0.836  11.190  0.2223 -0.3114  0.8391
  182SLPC  H15C20815   6.316   0.702  11.251  1.4835 -0.8234 -0.4096
  182SLPC   C1220816   6.200   0.968  11.056 -0.2492  0.0304  0.0755
  182SLPC  H12A20817   6.279   1.041  11.065  1.9478 -2.1658 -0.2700
  182SLPC  H12B20818   6.108   1.023  11.050 -0.1501  0.5079  1.9965
  182SLPC   C1120819   6.220   0.911  10.909  0.2458  0.0864  0.1046
  182SLPC  H11A20820   6.322   0.866  10.905  0.2787  0.0745  0.9042
  182SLPC  H11B20821   6.233   0.990  10.833  0.2343 -0.4144 -0.4217
  182SLPC     P20822   5.996   0.892  10.797  0.2923  0.1007  0.0069
  182SLPC   O1320823   5.879   0.800  10.790  0.4979 -0.8399  0.1549
  182SLPC   O1420824   5.975   1.030  10.850 -0.4181  0.0526  0.0572
  182SLPC   O1220825   6.115   0.824  10.876  0.3377  0.2464 -0.2236
  182SLPC   O1120826   6.056   0.897  10.660  0.1334 -0.0820  0.0424
  182SLPC    C120827   6.151   0.796  10.612 -0.0771  0.3982  0.2496
  182SLPC    HA20828   6.256   0.830  10.620  0.2770 -0.3143 -1.1349
  182SLPC    HB20829   6.150   0.699  10.666  1.2822 -0.2960 -0.9330
  182SLPC    C220830   6.112   0.750  10.468 -0.1711 -0.5249  0.0288
  182SLPC    HS20831   6.009   0.708  10.473 -0.2180 -0.5865 -1.1087
  182SLPC   O2120832   6.220   0.663  10.415  0.3575 -0.5583  0.1888
  182SLPC   C2120833   6.181   0.557  10.353  0.2730  0.3905 -0.2085
  182SLPC   O2220834   6.068   0.527  10.325  0.0170  0.1003 -0.1981
  182SLPC   C2220835   6.306   0.481  10.306  0.3972 -0.2757  0.3517
  182SLPC   H2R20836   6.399   0.530  10.340 -0.7041  2.2945 -0.0751
  182SLPC   H2S20837   6.308   0.378  10.345  0.1327 -1.5328 -2.6946
  182SLPC    C320838   6.113   0.884  10.383 -0.5147  0.4362 -0.1404
  182SLPC    HX20839   6.211   0.931  10.407  0.2905 -0.3817 -1.6616
  182SLPC    HY20840   6.032   0.953  10.416 -0.0477  0.8780  0.0864
  182SLPC   O3120841   6.110   0.863  10.239 -0.4313 -0.5356  0.6415
  182SLPC   C3120842   6.001   0.826  10.187  0.3893  0.2655  0.4329
  182SLPC   O3220843   5.891   0.809  10.245 -0.9314  0.1747  0.6044
  182SLPC   C3220844   6.006   0.797  10.038 -0.0681  0.1067 -0.1105
  182SLPC   H2X20845   6.105   0.833   9.999 -1.6268  2.4415 -2.2843
  182SLPC   H2Y20846   5.927   0.859   9.992 -1.5326 -1.6679 -0.0923
  182SLPC   C2320847   6.302   0.452  10.152 -0.4011  0.3075  0.0129
  182SLPC   H3R20848   6.304   0.544  10.090 -2.4409  0.0801 -0.4553
  182SLPC   H3S20849   6.209   0.399  10.123  0.1365  1.7162 -5.4475
  182SLPC   C2420850   6.430   0.374  10.105 -0.4739  0.8966  0.0018
  182SLPC   H4R20851   6.431   0.272  10.151 -0.4386  1.1668  0.6056
  182SLPC   H4S20852   6.520   0.425  10.144 -0.8435  1.1944  0.4825
  182SLPC   C2520853   6.450   0.336   9.951  0.4182 -0.0126  0.2047
  182SLPC   H5R20854   6.557   0.324   9.925  0.5714 -0.3215  0.9638
  182SLPC   H5S20855   6.435   0.434   9.899  2.3116 -0.1563 -0.6899
  182SLPC   C2620856   6.360   0.223   9.894  0.4040 -0.2202  0.0987
  182SLPC   H6R20857   6.254   0.229   9.927  0.6847 -2.0332  1.4826
  182SLPC   H6S20858   6.381   0.121   9.933 -1.3419 -0.0015  1.7415
  182SLPC   C2720859   6.348   0.233   9.741 -1.1291  0.6832 -0.2950
  182SLPC   H7R20860   6.330   0.341   9.727 -0.7472  0.8589  0.5108
  182SLPC   H7S20861   6.268   0.168   9.699 -0.0321  0.3659 -1.9920
  182SLPC   C2820862   6.477   0.195   9.668  0.1906  0.3265 -0.2296
  182SLPC   H8R20863   6.492   0.085   9.669 -0.7159  0.1956 -0.1504
  182SLPC   H8S20864   6.575   0.228   9.710 -0.5721  0.6029  1.4156
  182SLPC   C2920865   6.470   0.232   9.527 -0.1164  0.4410  0.2709
  182SLPC   H9R20866   6.431   0.151   9.464  3.4308 -0.8608 -0.5160
  182SLPC  C21020867   6.508   0.347   9.469  0.7106 -0.7739 -0.9052
  182SLPC  H10R20868   6.499   0.356   9.360  1.9659 -0.2507 -0.9766
  182SLPC  C21120869   6.556   0.476   9.543  0.4630  0.7688 -0.1321
  182SLPC  H11R20870   6.633   0.528   9.482  1.7992 -1.9744 -0.9396
  182SLPC  H11S20871   6.597   0.450   9.644 -2.1706 -0.6829  0.6560
  182SLPC  C21220872   6.441   0.573   9.556  0.1188 -0.1839 -0.2432
  182SLPC  H12R20873   6.370   0.562   9.639 -0.6604 -1.1083 -1.0069
  182SLPC  C21320874   6.420   0.686   9.481 -0.0806  0.1231  0.1204
  182SLPC  H13R20875   6.327   0.745   9.491 -0.9229 -0.7982 -1.6626
  182SLPC  C21420876   6.508   0.733   9.361  0.2894  0.3256 -1.1294
  182SLPC  H14R20877   6.445   0.787   9.287 -2.2188  1.7806  1.8446
  182SLPC  H14S20878   6.554   0.639   9.325  0.4288 -0.7916  1.7025
  182SLPC  C21520879   6.626   0.828   9.408 -0.6257 -0.2073  0.6350
  182SLPC  H15R20880   6.672   0.775   9.494 -1.5510 -0.0502  1.2422
  182SLPC  H15S20881   6.578   0.927   9.422 -0.8089 -0.0660 -0.9013
  182SLPC  C21620882   6.736   0.855   9.301  0.7154  0.4080 -0.0778
  182SLPC  H16R20883   6.696   0.947   9.254  1.0307  0.0998 -0.9717
  182SLPC  H16S20884   6.744   0.773   9.226 -1.9867 -0.6801  0.7075
  182SLPC  C21720885   6.867   0.870   9.375 -0.7894  0.1867  0.1152
  182SLPC  H17R20886   6.896   0.776   9.428 -2.0719 -0.3442 -0.0798
  182SLPC  H17S20887   6.856   0.935   9.464  0.3475 -0.5813  0.8558
  182SLPC  C21820888   6.987   0.919   9.292 -0.1876  0.4714 -0.1214
  182SLPC  H18R20889   6.957   1.009   9.235 -0.1220  1.3290  1.1564
  182SLPC  H18S20890   7.013   0.853   9.207  0.1966 -0.1266  0.4426
  182SLPC  H18T20891   7.077   0.922   9.357 -0.3803 -2.2389  0.3906
  182SLPC   C3320892   5.978   0.644  10.008 -0.1541 -0.3939  0.3054
  182SLPC   H3X20893   5.870   0.619  10.007 -0.4940  0.8499 -1.8293
  182SLPC   H3Y20894   6.025   0.588  10.091 -2.3793 -1.8113  0.6993
  182SLPC   C3420895   6.036   0.600   9.876  0.0862 -0.3529  0.5737
  182SLPC   H4X20896   6.146   0.598   9.894  0.4678  1.0803 -1.3200
  182SLPC   H4Y20897   6.010   0.679   9.803 -0.6788  0.2875  1.5152
  182SLPC   C3520898   5.997   0.462   9.842 -0.4925  0.0815 -0.0980
  182SLPC   H5X20899   5.892   0.433   9.865 -0.9228 -0.6692 -2.6844
  182SLPC   H5Y20900   6.057   0.398   9.909  1.3373  2.4312  0.6153
  182SLPC   C3620901   6.012   0.419   9.695 -0.7028 -0.1908  0.0943
  182SLPC   H6X20902   6.119   0.431   9.668 -0.8621 -0.5666 -0.7466
  182SLPC   H6Y20903   5.951   0.489   9.634  0.6489  0.0784 -1.0067
  182SLPC   C3720904   5.950   0.281   9.666 -0.3620 -0.6259  0.1930
  182SLPC   H7X20905   5.841   0.291   9.685 -0.4487  2.6978 -1.3868
  182SLPC   H7Y20906   5.991   0.203   9.733 -0.7924  0.0696  1.2832
  182SLPC   C3820907   5.969   0.233   9.521 -0.1270  0.0126  0.1517
  182SLPC   H8X20908   5.909   0.291   9.448 -0.6625 -0.8951 -0.1408
  182SLPC   H8Y20909   5.925   0.131   9.518  0.9361 -0.4313 -1.3457
  182SLPC   C3920910   6.118   0.238   9.459  0.5170 -0.2037 -0.4223
  182SLPC   H9X20911   6.177   0.153   9.502  2.2852  0.4858 -1.3835
  182SLPC   H9Y20912   6.169   0.333   9.486 -1.4351  0.6297  0.5591
  182SLPC  C31020913   6.124   0.230   9.303  0.4247  0.2487  0.3274
  182SLPC  H10X20914   6.058   0.143   9.280 -1.1318  1.5433 -0.2679
  182SLPC  H10Y20915   6.229   0.200   9.282 -0.3827 -2.8495  0.1248
  182SLPC  C31120916   6.093   0.360   9.226 -0.5916  0.1143  0.6298
  182SLPC  H11X20917   6.005   0.397   9.283 -1.6902  0.3729 -1.1544
  182SLPC  H11Y20918   6.054   0.340   9.124  0.0751 -0.1874  0.4255
  182SLPC  C31220919   6.207   0.450   9.207 -0.7139  0.9985  0.0128
  182SLPC  H12X20920   6.283   0.405   9.139 -1.8454 -3.2987  1.2870
  182SLPC  H12Y20921   6.262   0.462   9.303  0.0086  3.5384 -0.6196
  182SLPC  C31320922   6.171   0.590   9.161  0.0868 -0.6430 -0.0583
  182SLPC  H13X20923   6.259   0.655   9.183 -0.1402 -0.4061  0.1591
  182SLPC  H13Y20924   6.090   0.632   9.225  2.6943 -0.0359  3.1005
  182SLPC  C31420925   6.141   0.598   9.005  0.2703  0.3572 -0.8451
  182SLPC  H14X20926   6.110   0.700   8.975 -1.5967 -0.1035 -0.6166
  182SLPC  H14Y20927   6.058   0.526   8.984 -0.7347  1.5456 -1.0736
  182SLPC  C31520928   6.256   0.565   8.911 -0.3197 -0.3379  0.1627
  182SLPC  H15X20929   6.228   0.590   8.806 -1.4177  0.8024  0.7036
  182SLPC  H15Y20930   6.279   0.456   8.906 -2.5718 -1.1015  3.2421
  182SLPC  C31620931   6.381   0.631   8.962 -0.2272 -0.4478  0.2328
  182SLPC  H16X20932   6.408   0.596   9.064 -2.7507  0.5248  1.3325
  182SLPC  H16Y20933   6.365   0.740   8.972  0.1769 -0.2944 -0.7227
  182SLPC  C31720934   6.496   0.603   8.860 -0.2043 -0.3697 -0.1563
  182SLPC  H17X20935   6.581   0.674   8.874  0.8617 -1.5918 -0.2781
  182SLPC  H17Y20936   6.459   0.624   8.758  0.9896 -1.5253 -0.8519
  182SLPC  C31820937   6.542   0.456   8.869 -0.6015  0.0992 -0.4257
  182SLPC  H18X20938   6.461   0.389   8.833  0.4393 -0.3964 -1.9708
  182SLPC  H18Y20939   6.586   0.432   8.968 -0.6201  0.9216 -0.2124
  182SLPC  H18Z20940   6.630   0.447   8.801 -0.4508 -0.9282 -0.1089
  183SLPC     N20941   3.999   6.315  10.984 -0.0345 -0.8101  0.6206
  183SLPC   C1320942   4.028   6.313  10.838 -0.2372  0.3158  0.1847
  183SLPC  H13A20943   3.942   6.298  10.774 -0.3979  1.7679  0.0147
  183SLPC  H13B20944   4.059   6.412  10.809 -0.1251  0.2834  0.1956
  183SLPC  H13C20945   4.099   6.239  10.805  0.6660  1.6848 -1.0338
  183SLPC   C1420946   3.993   6.175  11.037  0.4710  0.5054 -0.2378
  183SLPC  H14A20947   3.964   6.102  10.963  2.7919  0.0831 -0.8358
  183SLPC  H14B20948   4.090   6.141  11.072  0.5780  0.5385 -0.5006
  183SLPC  H14C20949   3.919   6.171  11.115  1.5370 -0.9079  0.7539
  183SLPC   C1520950   3.856   6.373  11.000  0.6357  1.3337  0.0703
  183SLPC  H15A20951   3.852   6.473  10.958 -1.0251  0.6061 -1.6860
  183SLPC  H15B20952   3.785   6.327  10.932  1.7150 -0.9717  0.3997
  183SLPC  H15C20953   3.820   6.373  11.102 -0.3944  1.1756 -0.2766
  183SLPC   C1220954   4.100   6.405  11.060  0.1790  0.5311 -0.2487
  183SLPC  H12A20955   4.199   6.364  11.042 -0.1098  0.3705 -1.5428
  183SLPC  H12B20956   4.085   6.389  11.166  0.5007 -0.2065 -0.3064
  183SLPC   C1120957   4.112   6.557  11.030 -0.0630  0.6623  0.0704
  183SLPC  H11A20958   4.166   6.575  10.934  1.5694  2.3201  1.2139
  183SLPC  H11B20959   4.178   6.605  11.107 -0.6442  0.4558  0.7041
  183SLPC     P20960   3.929   6.728  10.932 -0.2323  0.3205  0.1962
  183SLPC   O1320961   3.779   6.736  10.941 -0.5883  0.4267 -0.3739
  183SLPC   O1420962   3.997   6.854  10.955  0.3543  1.0599 -0.0927
  183SLPC   O1220963   3.988   6.625  11.033  0.1359 -0.2945 -0.4415
  183SLPC   O1120964   3.981   6.668  10.794  0.2456 -0.4803 -0.5062
  183SLPC    C120965   3.903   6.617  10.688 -0.0173 -0.3148  0.5006
  183SLPC    HA20966   3.912   6.507  10.680  1.3364 -0.2525  0.8289
  183SLPC    HB20967   3.798   6.645  10.711 -0.6093 -2.9161  1.2837
  183SLPC    C220968   3.963   6.678  10.551 -0.3622  0.5918 -0.3259
  183SLPC    HS20969   3.916   6.610  10.477  1.1323 -0.2664 -0.5040
  183SLPC   O2120970   4.103   6.677  10.543 -0.2613 -0.1882  0.0056
  183SLPC   C2120971   4.156   6.565  10.566  0.0277 -0.0101  0.1452
  183SLPC   O2220972   4.106   6.455  10.561  0.1306 -0.4113  0.6820
  183SLPC   C2220973   4.298   6.587  10.618 -0.5405  0.4627  0.0897
  183SLPC   H2R20974   4.326   6.695  10.617  1.6447  0.0207  2.4275
  183SLPC   H2S20975   4.290   6.556  10.725 -0.7230  0.8237  0.1829
  183SLPC    C320976   3.909   6.827  10.539  0.5857 -0.0847  1.5824
  183SLPC    HX20977   3.950   6.878  10.628  0.2727  2.3789  0.4045
  183SLPC    HY20978   3.798   6.840  10.545  0.1933 -0.4893 -2.0592
  183SLPC   O3120979   3.964   6.894  10.423 -0.5997  0.1415 -0.3412
  183SLPC   C3120980   3.918   6.855  10.300  0.3936 -0.5405 -0.0940
  183SLPC   O3220981   3.829   6.775  10.289 -0.4241  0.0353  0.5769
  183SLPC   C3220982   3.980   6.928  10.187  0.9218 -0.0156  0.2976
  183SLPC   H2X20983   4.033   6.855  10.123 -0.4534 -0.3901 -0.4513
  183SLPC   H2Y20984   4.055   6.997  10.231 -1.3608  0.0210  4.7286
  183SLPC   C2320985   4.408   6.490  10.567  0.2385  0.0979  0.6285
  183SLPC   H3R20986   4.389   6.381  10.571  3.3505 -0.6104 -0.7057
  183SLPC   H3S20987   4.488   6.506  10.643  0.1245 -3.1631  1.5707
  183SLPC   C2420988   4.456   6.514  10.421  0.2591 -0.4837 -0.5834
  183SLPC   H4R20989   4.566   6.498  10.424  0.3702  0.0326 -1.5384
  183SLPC   H4S20990   4.440   6.623  10.412  1.5782 -0.1545  0.7263
  183SLPC   C2520991   4.383   6.447  10.311 -0.2864 -0.5500 -0.1413
  183SLPC   H5R20992   4.275   6.453  10.335 -0.2442  0.6853 -0.1891
  183SLPC   H5S20993   4.410   6.339  10.313 -0.5201 -0.6078  1.4568
  183SLPC   C2620994   4.417   6.499  10.168 -0.5234  0.2452  0.3267
  183SLPC   H6R20995   4.414   6.609  10.171  0.8274  0.2729  2.1453
  183SLPC   H6S20996   4.340   6.458  10.098  2.1058 -0.7204 -2.2056
  183SLPC   C2720997   4.562   6.465  10.118  0.8286  0.2795 -0.3967
  183SLPC   H7R20998   4.573   6.357  10.140  1.6573  0.5705  0.6991
  183SLPC   H7S20999   4.636   6.508  10.189 -1.1585  1.6164  0.9571
  183SLPC   C2821000   4.588   6.486   9.973 -0.4940  0.0358 -0.4453
  183SLPC   H8R21001   4.498   6.453   9.917  0.4466 -2.5512 -0.5660
  183SLPC   H8S21002   4.666   6.415   9.938  0.4405  1.0739 -0.5016
  183SLPC   C2921003   4.623   6.627   9.952 -0.1673  0.4094  0.3877
  183SLPC   H9R21004   4.697   6.665  10.024 -0.7569 -1.8264  2.2888
  183SLPC  C21021005   4.581   6.716   9.860 -0.4368  0.9151 -0.0980
  183SLPC  H10R21006   4.630   6.814   9.861  1.1816  0.2098 -2.2066
  183SLPC  C21121007   4.479   6.694   9.751 -0.7797  0.5777 -0.5138
  183SLPC  H11R21008   4.438   6.792   9.717 -1.1489  0.2334 -1.0924
  183SLPC  H11S21009   4.395   6.643   9.804  0.2930 -2.8958 -1.8603
  183SLPC  C21221010   4.530   6.603   9.641  0.5427 -0.4329 -0.2639
  183SLPC  H12R21011   4.589   6.521   9.685 -2.1730 -2.3989 -0.0147
  183SLPC  C21321012   4.509   6.612   9.509 -0.9746  0.3087  0.3312
  183SLPC  H13R21013   4.547   6.534   9.441 -2.1376  0.0979 -0.1005
  183SLPC  C21421014   4.427   6.720   9.440  0.3001  0.4918 -0.1988
  183SLPC  H14R21015   4.493   6.760   9.360  1.0827  0.0309  0.1969
  183SLPC  H14S21016   4.407   6.812   9.499  0.4816  0.6157 -0.3279
  183SLPC  C21521017   4.307   6.648   9.373  0.2645 -0.4720 -0.2288
  183SLPC  H15R21018   4.229   6.725   9.357  0.6023 -0.2007 -0.5829
  183SLPC  H15S21019   4.256   6.585   9.450  1.1657  0.9928  1.6591
  183SLPC  C21621020   4.339   6.565   9.247 -0.1452  0.1121 -0.2942
  183SLPC  H16R21021   4.250   6.505   9.220 -1.1509  0.7824  1.3327
  183SLPC  H16S21022   4.414   6.487   9.272  1.3615  0.3447 -3.5081
  183SLPC  C21721023   4.398   6.654   9.128  0.0574  0.8217  0.2946
  183SLPC  H17R21024   4.488   6.711   9.159 -1.8582  3.0023  2.3605
  183SLPC  H17S21025   4.323   6.735   9.113 -0.6625  0.4272  1.5832
  183SLPC  C21821026   4.430   6.565   9.004 -0.1026 -0.4323  0.2436
  183SLPC  H18R21027   4.342   6.508   8.968 -0.2175 -1.6745  2.3053
  183SLPC  H18S21028   4.504   6.490   9.039  0.8596  1.3091  2.1613
  183SLPC  H18T21029   4.488   6.606   8.919 -0.2922  0.2350  0.4320
  183SLPC   C3321030   3.873   7.001  10.104  1.1937  0.5250  0.0921
  183SLPC   H3X21031   3.815   7.075  10.163  0.2735  0.0237 -0.1495
  183SLPC   H3Y21032   3.798   6.922  10.080  2.8076 -1.3726  0.9581
  183SLPC   C3421033   3.939   7.062   9.987 -0.2109  0.6770  0.5945
  183SLPC   H4X21034   4.013   6.989   9.948 -0.8968  0.4738 -0.3456
  183SLPC   H4Y21035   3.998   7.144  10.033 -0.3753  1.3105 -0.2923
  183SLPC   C3521036   3.857   7.113   9.869  0.0119 -0.8702  0.2089
  183SLPC   H5X21037   3.788   7.193   9.904  1.8787  0.4167  1.1299
  183SLPC   H5Y21038   3.806   7.028   9.819  3.0208 -1.8353 -1.5218
  183SLPC   C3621039   3.949   7.188   9.764  0.0602 -0.0015 -0.7695
  183SLPC   H6X21040   4.029   7.118   9.730 -1.9474 -2.0436 -1.5741
  183SLPC   H6Y21041   4.014   7.259   9.819  0.4862  1.4683 -3.0144
  183SLPC   C3721042   3.877   7.272   9.664  0.3477 -0.3779 -0.6398
  183SLPC   H7X21043   3.814   7.342   9.724 -0.1994  0.0925 -1.7255
  183SLPC   H7Y21044   3.808   7.195   9.624  0.1103 -0.3874 -0.2173
  183SLPC   C3821045   3.962   7.344   9.561 -0.2963 -0.2200  1.3663
  183SLPC   H8X21046   4.025   7.417   9.615  0.3931  1.5448 -1.6248
  183SLPC   H8Y21047   3.895   7.402   9.494  0.3550 -0.8258  0.1405
  183SLPC   C3921048   4.045   7.260   9.462  0.5373 -0.2180  0.0356
  183SLPC   H9X21049   3.984   7.177   9.420 -0.4806  0.1768  0.6804
  183SLPC   H9Y21050   4.137   7.219   9.509  2.0078  0.7326 -1.8425
  183SLPC  C31021051   4.097   7.344   9.344  0.1295  0.6664  0.1956
  183SLPC  H10X21052   4.010   7.380   9.285  0.8690 -0.0943 -1.3932
  183SLPC  H10Y21053   4.172   7.291   9.283  0.3368  0.3756  0.6909
  183SLPC  C31121054   4.172   7.471   9.385 -0.6814 -0.2402 -0.5741
  183SLPC  H11X21055   4.254   7.447   9.456  0.1289  1.9567 -0.6706
  183SLPC  H11Y21056   4.104   7.538   9.441 -0.0324 -0.3441  0.3569
  183SLPC  C31221057   4.239   7.552   9.269  0.3131  0.1737  0.7034
  183SLPC  H12X21058   4.317   7.490   9.220  0.8226  0.3240  1.3127
  183SLPC  H12Y21059   4.302   7.632   9.314  0.9638  0.6264 -0.9647
  183SLPC  C31321060   4.138   7.615   9.175 -0.2363  0.5312  0.1640
  183SLPC  H13X21061   4.084   7.695   9.231  0.0936  1.2767 -0.5647
  183SLPC  H13Y21062   4.060   7.541   9.149 -0.3601  0.7730 -0.1547
  183SLPC  C31421063   4.190   7.665   9.037 -0.0021  1.0735  0.0732
  183SLPC  H14X21064   4.107   7.712   8.979 -0.7384  1.6016  1.5084
  183SLPC  H14Y21065   4.212   7.576   8.975  0.3972  0.2276  1.4116
  183SLPC  C31521066   4.293   7.781   9.042 -0.0860  0.8568  0.0409
  183SLPC  H15X21067   4.390   7.761   9.093  0.6519 -0.1657 -1.6849
  183SLPC  H15Y21068   4.248   7.869   9.092  1.1942  2.5335 -1.6253
  183SLPC  C31621069   4.326   7.832   8.903 -0.2214 -0.1890 -0.3633
  183SLPC  H16X21070   4.235   7.858   8.845 -1.2276 -0.5988  0.9865
  183SLPC  H16Y21071   4.377   7.755   8.842 -0.4138 -1.2398  0.7728
  183SLPC  C31721072   4.427   7.945   8.910 -0.0486  0.2503 -0.6846
  183SLPC  H17X21073   4.445   7.976   8.805 -0.2835 -1.0438 -1.1182
  183SLPC  H17Y21074   4.525   7.913   8.951 -0.4444 -0.0044  0.0725
  183SLPC  C31821075   4.379   8.075   8.981  0.0397 -0.3629 -0.3023
  183SLPC  H18X21076   4.299   8.130   8.928  0.3783 -0.2293 -0.6802
  183SLPC  H18Y21077   4.468   8.142   8.986 -1.9345  2.4206 -0.0445
  183SLPC  H18Z21078   4.350   8.060   9.088 -0.6008  1.7214 -0.1507
  184SLPC     N21079   0.909   5.310  11.038 -0.2143  0.1895  0.0929
  184SLPC   C1321080   0.929   5.455  11.087 -0.1714  0.4289  0.1289
  184SLPC  H13A21081   0.990   5.466  11.176  0.0460 -0.9824  0.1881
  184SLPC  H13B21082   0.987   5.499  11.008 -1.4323 -2.1609 -2.4229
  184SLPC  H13C21083   0.830   5.497  11.094  0.0020  1.1476 -1.5003
  184SLPC   C1421084   0.816   5.243  11.135 -0.4627 -0.2189 -0.0509
  184SLPC  H14A21085   0.726   5.303  11.137 -2.2618 -2.7084 -0.6938
  184SLPC  H14B21086   0.790   5.145  11.098  2.2489 -1.3941  0.8921
  184SLPC  H14C21087   0.858   5.232  11.234 -1.7915  1.9868  0.8121
  184SLPC   C1521088   1.038   5.237  11.050 -0.3828  0.1399  0.0221
  184SLPC  H15A21089   1.118   5.286  10.996 -0.3541 -2.5776 -2.6509
  184SLPC  H15B21090   1.068   5.223  11.153 -1.3700 -0.4281  0.2385
  184SLPC  H15C21091   1.020   5.139  11.009  1.5018 -0.2470  0.0366
  184SLPC   C1221092   0.862   5.310  10.898  0.5718 -0.2269 -0.3917
  184SLPC  H12A21093   0.761   5.348  10.889  0.1944 -1.6029 -3.2529
  184SLPC  H12B21094   0.846   5.210  10.861  1.7163 -0.6190  0.1167
  184SLPC   C1121095   0.940   5.394  10.794  0.5267  0.4586  0.3504
  184SLPC  H11A21096   0.916   5.498  10.823 -1.4296  0.2062 -0.2553
  184SLPC  H11B21097   0.899   5.376  10.692  0.0822 -1.3970  0.8152
  184SLPC     P21098   1.163   5.447  10.677 -0.0146  0.0726 -0.1004
  184SLPC   O1321099   1.156   5.588  10.719 -0.1599 -0.1577 -0.3546
  184SLPC   O1421100   1.294   5.385  10.672  0.6218 -0.3419  0.2676
  184SLPC   O1221101   1.079   5.363  10.791 -0.5988  0.3703 -0.1679
  184SLPC   O1121102   1.082   5.432  10.537 -0.0531  0.0549  0.2134
  184SLPC    C121103   1.062   5.297  10.479  0.0054  0.3519  0.4658
  184SLPC    HA21104   1.155   5.262  10.428  0.8479  2.4811  0.3962
  184SLPC    HB21105   1.033   5.219  10.552  0.0781 -1.9393 -1.8213
  184SLPC    C221106   0.954   5.288  10.366 -0.2036  0.6616 -0.5875
  184SLPC    HS21107   0.944   5.178  10.355 -1.3860  0.3053  2.7082
  184SLPC   O2121108   0.995   5.367  10.254  0.1106 -0.8671  0.1562
  184SLPC   C2121109   1.041   5.300  10.145 -0.3047 -0.7521  0.4093
  184SLPC   O2221110   1.066   5.187  10.129 -0.0388 -0.0566 -0.5156
  184SLPC   C2221111   1.070   5.408  10.036 -0.3815 -0.3553 -0.3684
  184SLPC   H2R21112   1.033   5.507  10.069  0.1031 -0.1421 -0.4531
  184SLPC   H2S21113   1.180   5.417  10.021 -0.5874  0.6527 -1.3513
  184SLPC    C321114   0.813   5.337  10.408 -1.0942 -0.2270  0.5403
  184SLPC    HX21115   0.807   5.448  10.411 -0.9152 -0.2125  3.5288
  184SLPC    HY21116   0.791   5.306  10.512 -0.1785 -3.0900 -0.0377
  184SLPC   O3121117   0.729   5.288  10.305  0.0944 -0.4239  0.7944
  184SLPC   C3121118   0.604   5.325  10.309  0.5795 -0.2748  0.3035
  184SLPC   O3221119   0.563   5.413  10.376 -0.4019  0.3992  0.1985
  184SLPC   C3221120   0.517   5.247  10.211 -0.5469  0.0172  0.4051
  184SLPC   H2X21121   0.416   5.250  10.257 -1.4668 -1.0788 -1.4195
  184SLPC   H2Y21122   0.557   5.144  10.198  1.6258  0.7420  0.8469
  184SLPC   C2321123   1.000   5.370   9.901  0.5050  0.3741  0.6472
  184SLPC   H3R21124   0.891   5.376   9.923  0.6532  2.8320  1.0026
  184SLPC   H3S21125   1.030   5.270   9.864  3.1851  0.8170  1.4648
  184SLPC   C2421126   1.044   5.470   9.796  0.2950  0.2635 -0.6125
  184SLPC   H4R21127   1.006   5.572   9.818  1.3003  0.9493 -1.8896
  184SLPC   H4S21128   0.992   5.431   9.705  2.6154 -3.7909 -0.4687
  184SLPC   C2521129   1.194   5.478   9.764  0.2746 -0.4174  0.3724
  184SLPC   H5R21130   1.261   5.529   9.836 -0.5875  0.1531  0.7948
  184SLPC   H5S21131   1.212   5.541   9.673  1.7956 -0.5957  0.5340
  184SLPC   C2621132   1.260   5.345   9.724 -0.0771 -0.3577  0.0711
  184SLPC   H6R21133   1.266   5.282   9.816  2.9423 -2.1201 -1.1779
  184SLPC   H6S21134   1.361   5.367   9.683 -0.5052 -0.1948 -0.9037
  184SLPC   C2721135   1.179   5.263   9.615  0.3008  0.6108 -0.0426
  184SLPC   H7R21136   1.167   5.314   9.517 -1.4232  1.0903  0.3902
  184SLPC   H7S21137   1.076   5.256   9.657  0.8683  0.1721  1.2995
  184SLPC   C2821138   1.235   5.119   9.577  0.3956  0.5140 -0.2372
  184SLPC   H8R21139   1.336   5.127   9.533  0.0763 -0.2989 -1.1780
  184SLPC   H8S21140   1.164   5.077   9.502  0.9680  1.3037 -1.2283
  184SLPC   C2921141   1.228   5.017   9.688 -0.3551 -0.1551  0.1209
  184SLPC   H9R21142   1.235   5.064   9.787 -1.5542 -0.1112  0.2048
  184SLPC  C21021143   1.202   4.884   9.682  1.2086 -0.7007 -0.8260
  184SLPC  H10R21144   1.201   4.823   9.773  1.2423 -1.3811 -1.2676
  184SLPC  C21121145   1.183   4.800   9.560 -0.3327 -0.4954  0.4825
  184SLPC  H11R21146   1.131   4.860   9.482  0.6950  0.1689  0.2938
  184SLPC  H11S21147   1.110   4.719   9.582  0.8795 -1.3373  1.5958
  184SLPC  C21221148   1.312   4.740   9.503  0.5722 -0.0801  0.3320
  184SLPC  H12R21149   1.385   4.707   9.579  1.6739  1.9345  0.1984
  184SLPC  C21321150   1.343   4.727   9.373 -0.3448  0.5284  0.0382
  184SLPC  H13R21151   1.435   4.672   9.350  0.6739  2.3997 -0.6201
  184SLPC  C21421152   1.264   4.753   9.250  0.0627 -1.3556  0.9728
  184SLPC  H14R21153   1.305   4.837   9.190 -5.5805  1.5426  0.4269
  184SLPC  H14S21154   1.159   4.785   9.272 -0.1423 -0.8765 -0.6216
  184SLPC  C21521155   1.251   4.631   9.157  0.3761  0.0483 -0.2117
  184SLPC  H15R21156   1.355   4.610   9.123  0.4954  1.1270 -0.5716
  184SLPC  H15S21157   1.187   4.651   9.069  0.4531  0.9655 -0.0683
  184SLPC  C21621158   1.183   4.505   9.217 -0.2787  0.0542 -0.5042
  184SLPC  H16R21159   1.091   4.529   9.275 -0.3977 -2.7810  0.6230
  184SLPC  H16S21160   1.247   4.442   9.282 -1.4684  0.9044  1.5906
  184SLPC  C21721161   1.144   4.404   9.109  0.4514 -0.1781  0.9856
  184SLPC  H17R21162   1.071   4.463   9.049  0.2518 -1.0272  0.3547
  184SLPC  H17S21163   1.090   4.322   9.161 -0.1994  1.4270  2.9390
  184SLPC  C21821164   1.262   4.363   9.013  0.9097 -0.0768  0.1522
  184SLPC  H18R21165   1.263   4.252   9.010 -0.8822 -0.1221  0.2148
  184SLPC  H18S21166   1.359   4.383   9.063  0.9062 -1.9569  1.0029
  184SLPC  H18T21167   1.253   4.396   8.907 -1.7642 -1.9825 -0.2965
  184SLPC   C3321168   0.513   5.315  10.073 -0.4510  0.4643 -0.1776
  184SLPC   H3X21169   0.614   5.346  10.040  0.3456 -0.4766  1.2609
  184SLPC   H3Y21170   0.454   5.409  10.082 -1.8312 -0.2469 -1.3512
  184SLPC   C3421171   0.450   5.227   9.964  0.2721  0.2322  0.6313
  184SLPC   H4X21172   0.359   5.176  10.002 -0.4576  1.3868  0.4840
  184SLPC   H4Y21173   0.512   5.138   9.942  1.0784  0.6117  1.2880
  184SLPC   C3521174   0.429   5.300   9.836 -0.4925  1.0055  0.6641
  184SLPC   H5X21175   0.527   5.327   9.792 -0.2602  0.6260  0.9383
  184SLPC   H5Y21176   0.367   5.392   9.845 -1.6347  0.5833 -1.7829
  184SLPC   C3621177   0.351   5.219   9.724 -0.7666  0.4284 -0.1248
  184SLPC   H6X21178   0.251   5.199   9.769 -1.9570  1.7238 -2.0642
  184SLPC   H6Y21179   0.412   5.126   9.715 -1.1126  0.1742  0.0912
  184SLPC   C3721180   0.331   5.286   9.592 -0.0889 -0.5955  0.2327
  184SLPC   H7X21181   0.433   5.301   9.550 -0.2574  3.0184  0.7973
  184SLPC   H7Y21182   0.275   5.379   9.615 -0.0765 -0.6897  0.6415
  184SLPC   C3821183   0.261   5.210   9.478  0.7864 -0.4068 -0.0797
  184SLPC   H8X21184   0.180   5.144   9.514 -0.8303  0.4705 -1.9454
  184SLPC   H8Y21185   0.328   5.133   9.433 -1.6854 -2.2037 -0.8686
  184SLPC   C3921186   0.206   5.305   9.369 -0.2581 -0.0034  0.2215
  184SLPC   H9X21187   0.284   5.372   9.328 -0.5031 -0.8572 -1.7704
  184SLPC   H9Y21188   0.130   5.366   9.421 -0.7021  1.6156 -2.1529
  184SLPC  C31021189   0.169   5.239   9.238 -0.2094 -0.9055  0.4849
  184SLPC  H10X21190   0.127   5.137   9.256 -0.2411 -1.6279 -3.0601
  184SLPC  H10Y21191   0.264   5.219   9.184 -1.2413 -1.2671 -1.2767
  184SLPC  C31121192   0.075   5.329   9.155  0.4795  0.3009  0.0890
  184SLPC  H11X21193   0.125   5.428   9.144 -1.5516  1.1114 -2.9487
  184SLPC  H11Y21194  -0.019   5.347   9.211  1.3650  0.8620  1.4582
  184SLPC  C31221195   0.044   5.272   9.020 -0.0606 -0.3804 -0.6159
  184SLPC  H12X21196  -0.029   5.192   9.047  2.4553 -2.4373  0.4643
  184SLPC  H12Y21197   0.134   5.228   8.974 -0.0537 -0.8401 -0.1727
  184SLPC  C31321198  -0.010   5.373   8.923  0.2948  0.2274  0.6879
  184SLPC  H13X21199   0.041   5.471   8.930  1.1607 -0.2570  1.3129
  184SLPC  H13Y21200  -0.116   5.382   8.956  0.2305 -3.5022  1.9614
  184SLPC  C31421201  -0.009   5.320   8.782 -0.5540  0.8950  0.3188
  184SLPC  H14X21202  -0.075   5.230   8.785  0.7622 -0.1000  0.3713
  184SLPC  H14Y21203   0.095   5.290   8.756 -1.3340 -0.5119 -1.3976
  184SLPC  C31521204  -0.074   5.421   8.681 -0.2921  0.1987 -1.3565
  184SLPC  H15X21205   0.001   5.494   8.644 -0.5789  1.1642 -0.0698
  184SLPC  H15Y21206  -0.153   5.481   8.732  0.6750  0.5636 -0.2694
  184SLPC  C31621207  -0.137   5.344   8.566  0.6673 -0.7702 -0.3014
  184SLPC  H16X21208  -0.210   5.269   8.604  0.2369 -0.3454 -0.2649
  184SLPC  H16Y21209  -0.054   5.287   8.520  2.1830 -0.4965  1.9566
  184SLPC  C31721210  -0.201   5.436   8.456  0.4448  0.1210  0.8290
  184SLPC  H17X21211  -0.124   5.473   8.384 -0.6200 -0.7432 -0.8245
  184SLPC  H17Y21212  -0.251   5.522   8.503  1.2814  1.5890 -0.8324
  184SLPC  C31821213  -0.294   5.346   8.369  0.3932 -0.1498  0.2532
  184SLPC  H18X21214  -0.244   5.256   8.328  0.5417 -0.4158  1.0037
  184SLPC  H18Y21215  -0.344   5.406   8.291  0.4827 -0.4428 -0.0295
  184SLPC  H18Z21216  -0.375   5.308   8.436  0.3182  0.2474  0.3894
  185SLPC     N21217   5.805   6.120   6.558 -0.6360 -0.1217  0.0867
  185SLPC   C1321218   5.779   6.250   6.489 -0.0766 -0.8975  0.3379
  185SLPC  H13A21219   5.865   6.315   6.478 -0.0344 -0.7687  1.2972
  185SLPC  H13B21220   5.757   6.220   6.388 -2.4557  0.6088  0.3405
  185SLPC  H13C21221   5.696   6.307   6.527  1.1824  1.1496  0.2185
  185SLPC   C1421222   5.719   6.002   6.499 -0.7907 -0.2228 -0.1077
  185SLPC  H14A21223   5.737   5.913   6.558 -0.1207  0.1910  0.3213
  185SLPC  H14B21224   5.616   6.035   6.502 -0.5433  0.6528 -0.9617
  185SLPC  H14C21225   5.754   5.987   6.398  2.9599  3.0521  0.4528
  185SLPC   C1521226   5.785   6.125   6.705  0.0319  0.1091  0.0151
  185SLPC  H15A21227   5.686   6.163   6.724  0.4128  0.6222  1.0764
  185SLPC  H15B21228   5.784   6.027   6.751  1.1331  1.2588  2.7031
  185SLPC  H15C21229   5.851   6.196   6.752 -3.1954  4.0166 -0.8326
  185SLPC   C1221230   5.954   6.089   6.538  1.2361  0.1397 -0.4562
  185SLPC  H12A21231   5.975   5.998   6.592  1.0594  0.8957  0.9188
  185SLPC  H12B21232   6.011   6.169   6.582  1.2384  0.2358 -0.6349
  185SLPC   C1121233   6.002   6.067   6.400 -0.1338 -0.2991  0.0449
  185SLPC  H11A21234   5.929   6.000   6.349 -1.6615  0.1163  1.5759
  185SLPC  H11B21235   6.102   6.020   6.409 -1.3003 -2.9455  0.1023
  185SLPC     P21236   6.134   6.284   6.351 -0.0337  0.1446  0.0148
  185SLPC   O1321237   6.248   6.254   6.256  0.0547 -0.3519  0.0654
  185SLPC   O1421238   6.091   6.427   6.351  0.5287  0.5001 -0.1988
  185SLPC   O1221239   6.010   6.184   6.319 -0.3858  0.2669 -0.4416
  185SLPC   O1121240   6.185   6.255   6.506 -0.2148 -0.1241 -0.1152
  185SLPC    C121241   6.298   6.165   6.512  0.0702  0.1831 -0.0016
  185SLPC    HA21242   6.263   6.062   6.493  2.6326 -1.0261  1.2872
  185SLPC    HB21243   6.381   6.196   6.445  1.5753 -1.6342  0.9188
  185SLPC    C221244   6.368   6.166   6.652 -0.0011  0.2781 -0.6770
  185SLPC    HS21245   6.456   6.099   6.652 -1.3187 -1.5309  0.2340
  185SLPC   O2121246   6.279   6.116   6.759  0.2579  0.4286  0.4490
  185SLPC   C2121247   6.250   5.991   6.763  0.1205 -0.1909 -0.3976
  185SLPC   O2221248   6.285   5.907   6.680 -0.2681 -0.0775  0.5978
  185SLPC   C2221249   6.164   5.955   6.884 -0.2225  0.5521 -0.7500
  185SLPC   H2R21250   6.224   5.878   6.938 -0.0361  1.4825  0.4019
  185SLPC   H2S21251   6.144   6.039   6.954  3.6671  0.4501  0.7464
  185SLPC    C321252   6.407   6.315   6.691 -0.3932 -0.1103 -0.3831
  185SLPC    HX21253   6.312   6.368   6.713  1.4324  2.8138  1.1820
  185SLPC    HY21254   6.467   6.351   6.605  1.5104  2.8216  1.9511
  185SLPC   O3121255   6.488   6.333   6.814  0.4893 -0.2149 -0.2398
  185SLPC   C3121256   6.613   6.278   6.805  0.0684 -0.2148  0.0419
  185SLPC   O3221257   6.655   6.229   6.702 -0.1554 -0.3922 -0.0391
  185SLPC   C3221258   6.674   6.274   6.945 -0.5647  0.2311  0.0549
  185SLPC   H2X21259   6.696   6.381   6.965  0.3585  0.1844 -0.5934
  185SLPC   H2Y21260   6.764   6.210   6.931  0.2223  1.5717 -1.3723
  185SLPC   C2321261   6.027   5.877   6.852  0.0988  0.0273  0.0692
  185SLPC   H3R21262   6.032   5.800   6.772 -0.6815  1.1741 -1.1377
  185SLPC   H3S21263   5.956   5.959   6.828 -1.3596  0.1098  3.8543
  185SLPC   C2421264   5.977   5.803   6.978 -0.2984  0.1554 -0.4989
  185SLPC   H4R21265   6.038   5.711   6.980 -0.1992  0.2179 -0.6191
  185SLPC   H4S21266   5.874   5.771   6.952  0.4764 -3.3058  0.1855
  185SLPC   C2521267   5.981   5.880   7.113  0.7934 -0.1530 -0.6982
  185SLPC   H5R21268   6.085   5.899   7.146  0.6694 -1.7017  0.7163
  185SLPC   H5S21269   5.949   5.807   7.190 -0.0557  0.4930 -0.4210
  185SLPC   C2621270   5.887   5.999   7.111 -0.3204  0.6764  0.8375
  185SLPC   H6R21271   5.786   5.959   7.088 -0.0811  0.7955 -0.5302
  185SLPC   H6S21272   5.903   6.074   7.031 -0.8543  0.8467  0.8861
  185SLPC   C2721273   5.887   6.078   7.241 -0.1470  0.2519  0.5515
  185SLPC   H7R21274   5.881   6.002   7.323 -1.3847 -0.2669  0.0145
  185SLPC   H7S21275   5.796   6.140   7.254 -1.4041 -1.4943  0.5640
  185SLPC   C2821276   6.004   6.179   7.263  0.3468 -0.1326 -0.0669
  185SLPC   H8R21277   5.977   6.249   7.345  2.0042 -1.6870  1.9048
  185SLPC   H8S21278   6.027   6.233   7.168  1.2869 -2.9514 -1.5733
  185SLPC   C2921279   6.131   6.112   7.307 -1.3018 -0.1520 -0.6139
  185SLPC   H9R21280   6.193   6.070   7.226 -2.3339  0.0112 -1.5145
  185SLPC  C21021281   6.173   6.095   7.438  0.2599  0.3963  0.0323
  185SLPC  H10R21282   6.271   6.046   7.453  0.2827 -0.2624 -1.9360
  185SLPC  C21121283   6.093   6.137   7.563 -0.1366  0.1861 -0.8686
  185SLPC  H11R21284   6.053   6.051   7.622  3.8230  0.5003  2.7785
  185SLPC  H11S21285   6.011   6.209   7.545 -0.8460 -0.6288 -0.9678
  185SLPC  C21221286   6.183   6.211   7.660 -0.4775  0.7159 -0.1891
  185SLPC  H12R21287   6.252   6.290   7.625  1.0832  0.0871  1.3065
  185SLPC  C21321288   6.191   6.188   7.797  0.8268 -1.1894 -0.6167
  185SLPC  H13R21289   6.263   6.249   7.854 -0.7107  0.5305 -0.4458
  185SLPC  C21421290   6.118   6.088   7.880  0.1778 -0.3551 -0.4759
  185SLPC  H14R21291   6.179   5.997   7.901 -0.4319 -1.1730 -2.0651
  185SLPC  H14S21292   6.033   6.042   7.825  0.4876  0.0519 -1.3232
  185SLPC  C21521293   6.051   6.148   8.005 -0.0025  0.2747 -0.3224
  185SLPC  H15R21294   5.975   6.078   8.047  0.7143  0.7602  1.8931
  185SLPC  H15S21295   6.003   6.245   7.983 -1.1073 -0.4602 -1.3200
  185SLPC  C21621296   6.157   6.173   8.125 -0.7273  0.7345  0.6620
  185SLPC  H16R21297   6.218   6.264   8.106 -0.7677  0.5850 -0.1998
  185SLPC  H16S21298   6.229   6.090   8.138 -0.1117  1.2876  0.8142
  185SLPC  C21721299   6.085   6.181   8.259  0.0227  0.2099 -0.2282
  185SLPC  H17R21300   6.038   6.082   8.276 -1.4343  1.1747  1.8980
  185SLPC  H17S21301   5.996   6.248   8.255 -0.2550  0.0509  1.9954
  185SLPC  C21821302   6.185   6.216   8.371  0.6547  0.4073 -0.0904
  185SLPC  H18R21303   6.246   6.302   8.338  0.3856  0.0843 -1.5095
  185SLPC  H18S21304   6.254   6.129   8.383 -0.8888 -0.8079  0.3499
  185SLPC  H18T21305   6.123   6.240   8.460 -0.8617 -0.5387 -0.8471
  185SLPC   C3321306   6.575   6.208   7.039 -0.4391 -0.5256 -0.2935
  185SLPC   H3X21307   6.554   6.100   7.022  0.1115 -0.8928  1.2147
  185SLPC   H3Y21308   6.481   6.266   7.027 -0.5120 -0.9736 -2.2057
  185SLPC   C3421309   6.624   6.230   7.187 -1.0967  0.7907  0.4851
  185SLPC   H4X21310   6.653   6.336   7.204 -0.3620  0.3271  2.4234
  185SLPC   H4Y21311   6.716   6.179   7.221 -1.7020 -0.6347  0.0674
  185SLPC   C3521312   6.525   6.179   7.293  0.3239  0.1772 -0.0630
  185SLPC   H5X21313   6.519   6.068   7.284  0.1078  0.2512 -0.8599
  185SLPC   H5Y21314   6.428   6.224   7.264  0.4238 -0.5290 -1.5609
  185SLPC   C3621315   6.561   6.224   7.439  0.8900 -0.5332  0.6166
  185SLPC   H6X21316   6.662   6.183   7.461  0.4112 -1.4638  1.1288
  185SLPC   H6Y21317   6.492   6.169   7.507 -1.2385  1.6872  0.3713
  185SLPC   C3721318   6.551   6.373   7.465 -0.4270  0.7067  0.1721
  185SLPC   H7X21319   6.449   6.405   7.434  0.3752  0.6675 -2.8450
  185SLPC   H7Y21320   6.637   6.430   7.422  1.6064 -0.8246  1.9876
  185SLPC   C3821321   6.565   6.407   7.610 -0.1363 -0.0297  0.1574
  185SLPC   H8X21322   6.464   6.380   7.647 -0.3856 -0.2082 -0.6347
  185SLPC   H8Y21323   6.585   6.514   7.633  1.1456 -0.0121 -0.9041
  185SLPC   C3921324   6.665   6.322   7.683 -1.1290 -0.0994  0.2226
  185SLPC   H9X21325   6.759   6.330   7.626 -2.0388 -0.4732 -1.3984
  185SLPC   H9Y21326   6.638   6.214   7.691 -0.7480 -0.2936 -0.9896
  185SLPC  C31021327   6.688   6.378   7.827 -0.8197 -1.1362  0.0404
  185SLPC  H10X21328   6.725   6.483   7.819 -0.0463 -1.3681  0.4914
  185SLPC  H10Y21329   6.780   6.323   7.853 -2.5391 -4.2393  0.0844
  185SLPC  C31121330   6.583   6.355   7.934 -0.6600  0.7030 -0.3881
  185SLPC  H11X21331   6.555   6.247   7.937 -0.8537  0.7835  1.8798
  185SLPC  H11Y21332   6.490   6.413   7.915 -1.3442 -0.0907  0.4258
  185SLPC  C31221333   6.643   6.375   8.078  0.1998  0.0820  0.1763
  185SLPC  H12X21334   6.552   6.377   8.141  0.7468 -1.3441  1.0690
  185SLPC  H12Y21335   6.707   6.466   8.085  1.7857 -1.0646  1.5655
  185SLPC  C31321336   6.736   6.261   8.119 -0.5772  0.9909 -0.1265
  185SLPC  H13X21337   6.830   6.282   8.064 -1.0534 -0.1176 -1.4139
  185SLPC  H13Y21338   6.690   6.166   8.083  1.5774 -0.4589  0.7525
  185SLPC  C31421339   6.766   6.261   8.268 -0.2724  0.0512 -0.7386
  185SLPC  H14X21340   6.805   6.359   8.302  1.7022 -1.3613  1.3039
  185SLPC  H14Y21341   6.849   6.190   8.287 -0.7177 -0.3508 -0.2529
  185SLPC  C31521342   6.641   6.227   8.341  0.3372  0.0291 -0.9401
  185SLPC  H15X21343   6.594   6.137   8.297 -0.1151  0.0293 -0.4575
  185SLPC  H15Y21344   6.574   6.315   8.342 -0.1248 -0.2920  1.4224
  185SLPC  C31621345   6.681   6.203   8.487  0.1321 -0.1327  0.4365
  185SLPC  H16X21346   6.731   6.296   8.523 -0.5776  1.6470 -2.7547
  185SLPC  H16Y21347   6.762   6.127   8.491  0.5488  0.3171  0.6165
  185SLPC  C31721348   6.562   6.167   8.581 -0.3333 -0.4872 -0.1556
  185SLPC  H17X21349   6.593   6.104   8.668 -1.7775 -1.0532 -0.0332
  185SLPC  H17Y21350   6.485   6.110   8.525  0.6354 -0.8100 -1.1873
  185SLPC  C31821351   6.486   6.279   8.648  0.4536 -0.2608 -0.5568
  185SLPC  H18X21352   6.477   6.371   8.586 -0.6465  0.0601  0.0428
  185SLPC  H18Y21353   6.547   6.319   8.732  1.0030 -1.8466 -0.1706
  185SLPC  H18Z21354   6.396   6.245   8.703  2.8451 -1.4943  2.9638
  186SLPC     N21355   0.509   3.683   6.070  0.8786 -0.3457 -0.6315
  186SLPC   C1321356   0.566   3.737   5.937 -0.3824  0.1679  0.1228
  186SLPC  H13A21357   0.496   3.788   5.873 -1.4439 -1.2375  0.1096
  186SLPC  H13B21358   0.653   3.800   5.946  0.3664 -0.1661 -3.4799
  186SLPC  H13C21359   0.593   3.651   5.878 -0.4675  1.8739 -2.5676
  186SLPC   C1421360   0.370   3.637   6.041 -0.0162 -0.4542  0.5821
  186SLPC  H14A21361   0.340   3.568   6.118  1.0980 -1.7039 -0.0858
  186SLPC  H14B21362   0.305   3.724   6.041 -0.0321 -0.4662  0.7516
  186SLPC  H14C21363   0.368   3.592   5.943 -2.6457 -0.4560  0.5552
  186SLPC   C1521364   0.511   3.798   6.165  0.0750  0.3674 -0.2054
  186SLPC  H15A21365   0.459   3.884   6.127 -1.5617 -0.9188 -1.0327
  186SLPC  H15B21366   0.450   3.765   6.248 -1.7015  1.2546 -1.1178
  186SLPC  H15C21367   0.607   3.841   6.188  0.8154 -0.0102 -2.3644
  186SLPC   C1221368   0.590   3.564   6.116 -0.6385  0.1406 -0.2650
  186SLPC  H12A21369   0.694   3.594   6.115 -0.9926  1.5499  0.9856
  186SLPC  H12B21370   0.571   3.483   6.047  0.6044  1.8063 -2.7035
  186SLPC   C1121371   0.560   3.517   6.263  0.0743 -0.3201 -0.1542
  186SLPC  H11A21372   0.612   3.583   6.335 -0.6952 -1.0966  1.1431
  186SLPC  H11B21373   0.599   3.413   6.270  0.2339 -0.3537 -1.3490
  186SLPC     P21374   0.340   3.394   6.326 -0.0607 -0.5420 -0.0164
  186SLPC   O1321375   0.327   3.314   6.205 -0.4119 -0.0646 -0.5323
  186SLPC   O1421376   0.407   3.321   6.439 -0.4400 -0.8204  0.1538
  186SLPC   O1221377   0.424   3.526   6.282  0.7128  0.3481 -0.0255
  186SLPC   O1121378   0.194   3.450   6.357  0.7710 -0.2788 -0.2614
  186SLPC    C121379   0.147   3.572   6.303  0.0261  0.0228  0.2956
  186SLPC    HA21380   0.226   3.626   6.248  1.7612 -2.7689 -0.1654
  186SLPC    HB21381   0.063   3.563   6.230  0.6756 -0.5410 -0.3960
  186SLPC    C221382   0.099   3.658   6.426  0.4748 -0.5615  0.0386
  186SLPC    HS21383   0.072   3.754   6.378 -1.9641 -0.5172  1.3643
  186SLPC   O2121384   0.212   3.670   6.514 -0.4218  0.4162  0.4169
  186SLPC   C2121385   0.306   3.759   6.489 -0.9615 -0.4198  0.3831
  186SLPC   O2221386   0.298   3.846   6.405  0.0449  0.1438 -0.0493
  186SLPC   C2221387   0.428   3.734   6.578 -0.4016  0.6246  0.1034
  186SLPC   H2R21388   0.492   3.665   6.518 -1.1515  1.4951 -1.7896
  186SLPC   H2S21389   0.500   3.817   6.590  1.2540 -0.9113  1.3374
  186SLPC    C321390  -0.026   3.592   6.498 -0.3909 -0.0583  0.1727
  186SLPC    HX21391   0.018   3.497   6.535 -0.9039  0.0626  1.1136
  186SLPC    HY21392  -0.104   3.570   6.422 -1.5458  0.0643  1.2890
  186SLPC   O3121393  -0.058   3.669   6.609 -0.3079  0.1277 -0.1719
  186SLPC   C3121394  -0.135   3.780   6.577  0.7383 -0.0637 -0.1752
  186SLPC   O3221395  -0.169   3.809   6.465 -0.2822  0.2645 -0.4424
  186SLPC   C3221396  -0.143   3.866   6.695  0.2357 -0.2860 -0.4899
  186SLPC   H2X21397  -0.155   3.969   6.656  0.3694 -0.3540 -0.7100
  186SLPC   H2Y21398  -0.047   3.853   6.750 -0.0056 -1.7551 -0.3597
  186SLPC   C2321399   0.396   3.684   6.717  0.1693  0.1835  0.2031
  186SLPC   H3R21400   0.478   3.621   6.758 -1.2790 -1.4187  0.7743
  186SLPC   H3S21401   0.314   3.609   6.720  0.2517  0.1226  2.0540
  186SLPC   C2421402   0.360   3.786   6.827 -0.0575  0.4135  1.4434
  186SLPC   H4R21403   0.447   3.847   6.858  0.5765 -0.5314  1.5704
  186SLPC   H4S21404   0.321   3.731   6.916 -1.5159 -0.0610  0.5446
  186SLPC   C2521405   0.240   3.884   6.796 -0.5405 -0.0326  0.0569
  186SLPC   H5R21406   0.161   3.823   6.746 -1.1879  2.8643 -2.8376
  186SLPC   H5S21407   0.280   3.957   6.722 -0.9816 -0.9686 -1.1437
  186SLPC   C2621408   0.188   3.939   6.924  0.7278  0.5916  0.7715
  186SLPC   H6R21409   0.203   3.860   7.001 -1.2548  0.6896  1.3210
  186SLPC   H6S21410   0.080   3.963   6.914  0.5370  0.1194  1.5331
  186SLPC   C2721411   0.262   4.069   6.970  0.0468  0.2977  0.4121
  186SLPC   H7R21412   0.196   4.110   7.050 -3.3848 -1.5253 -1.2770
  186SLPC   H7S21413   0.271   4.140   6.885 -2.0611 -0.4466 -0.4898
  186SLPC   C2821414   0.398   4.054   7.038 -0.5435 -0.3671 -0.2164
  186SLPC   H8R21415   0.477   4.021   6.967 -1.5822 -0.3793 -1.3927
  186SLPC   H8S21416   0.394   3.968   7.108 -1.3027  0.3612  0.6623
  186SLPC   C2921417   0.440   4.184   7.102 -0.4924  0.2064 -0.4497
  186SLPC   H9R21418   0.515   4.235   7.039  1.0583  0.3721  1.4324
  186SLPC  C21021419   0.401   4.226   7.225 -0.3216 -0.2862  0.6470
  186SLPC  H10R21420   0.442   4.323   7.257 -2.0706  1.2490 -1.4626
  186SLPC  C21121421   0.303   4.168   7.324 -0.4053  0.4577 -0.9311
  186SLPC  H11R21422   0.211   4.137   7.271 -0.5690  0.1449 -0.4742
  186SLPC  H11S21423   0.297   4.243   7.406  2.8810 -1.6144  1.4484
  186SLPC  C21221424   0.345   4.036   7.389 -0.1833  0.4757 -0.1453
  186SLPC  H12R21425   0.332   3.953   7.318  0.1470  0.7926 -0.5783
  186SLPC  C21321426   0.394   4.003   7.513  0.1852 -0.8554 -0.4281
  186SLPC  H13R21427   0.391   3.894   7.531 -1.3796 -0.6463  0.8069
  186SLPC  C21421428   0.418   4.094   7.632  0.1314 -0.8837  0.2954
  186SLPC  H14R21429   0.399   4.195   7.591 -1.0341 -1.5435 -0.8685
  186SLPC  H14S21430   0.525   4.079   7.659  0.5491 -1.4211 -1.5412
  186SLPC  C21521431   0.325   4.068   7.756  0.7737  0.2772  0.0398
  186SLPC  H15R21432   0.344   3.964   7.789 -0.9532 -0.6443 -1.6604
  186SLPC  H15S21433   0.222   4.069   7.714  1.5503 -0.0638 -2.0274
  186SLPC  C21621434   0.330   4.168   7.873 -0.3872 -0.5155 -0.1963
  186SLPC  H16R21435   0.258   4.250   7.853  0.4553  0.6671  1.3273
  186SLPC  H16S21436   0.430   4.215   7.868 -0.1736 -0.5320  2.3984
  186SLPC  C21721437   0.319   4.101   8.011 -0.1342  0.3889 -0.7105
  186SLPC  H17R21438   0.256   4.010   8.006 -0.3825  0.1858  3.2756
  186SLPC  H17S21439   0.272   4.167   8.086  1.2275  2.1148 -1.3039
  186SLPC  C21821440   0.452   4.051   8.067 -0.3762 -0.0064  0.4516
  186SLPC  H18R21441   0.510   4.145   8.068  1.2350 -0.9534  1.8487
  186SLPC  H18S21442   0.504   3.974   8.005 -1.1930 -0.5815  0.4574
  186SLPC  H18T21443   0.442   4.019   8.173 -2.5767  2.2503  1.0219
  186SLPC   C3321444  -0.271   3.841   6.789  0.0656  0.0305  0.2416
  186SLPC   H3X21445  -0.364   3.844   6.728  0.3527 -1.4232 -0.3248
  186SLPC   H3Y21446  -0.268   3.914   6.873 -2.2467  1.0081 -0.4451
  186SLPC   C3421447  -0.269   3.703   6.845  0.4504 -0.1443  0.1253
  186SLPC   H4X21448  -0.260   3.625   6.766  1.0139  0.0002  0.0464
  186SLPC   H4Y21449  -0.373   3.681   6.880 -0.1365 -0.6668 -1.8041
  186SLPC   C3521450  -0.163   3.678   6.956 -0.1951  0.2422 -0.1012
  186SLPC   H5X21451  -0.068   3.703   6.905 -0.1068 -0.9216 -0.5409
  186SLPC   H5Y21452  -0.169   3.570   6.983 -1.4369  0.6912  1.5686
  186SLPC   C3621453  -0.168   3.772   7.077  0.0612 -0.1465 -0.2874
  186SLPC   H6X21454  -0.271   3.767   7.118  0.3972 -0.4447  0.5467
  186SLPC   H6Y21455  -0.137   3.875   7.048 -0.1686 -0.2473 -0.9033
  186SLPC   C3721456  -0.070   3.746   7.189 -0.1237 -0.1486  0.0756
  186SLPC   H7X21457   0.038   3.753   7.161 -0.5296 -0.0770 -1.5768
  186SLPC   H7Y21458  -0.086   3.640   7.220  0.2979 -0.0115  0.7825
  186SLPC   C3821459  -0.104   3.837   7.305  0.5704  0.4191  0.0932
  186SLPC   H8X21460  -0.197   3.795   7.349  1.0952  0.6622  1.4949
  186SLPC   H8Y21461  -0.122   3.939   7.264 -2.4780  0.9831  2.4572
  186SLPC   C3921462  -0.000   3.843   7.416 -1.0699  0.0951  0.0925
  186SLPC   H9X21463   0.099   3.860   7.369  0.0542 -1.0389  1.9458
  186SLPC   H9Y21464   0.021   3.742   7.455 -0.6220 -0.2054 -0.8955
  186SLPC  C31021465  -0.020   3.962   7.513  0.2304  0.0708  0.0754
  186SLPC  H10X21466  -0.076   4.038   7.454  2.0797  0.8394 -0.7594
  186SLPC  H10Y21467   0.074   4.017   7.535  0.1925  0.4821 -0.7619
  186SLPC  C31121468  -0.100   3.928   7.647 -0.2068  0.3191  0.2178
  186SLPC  H11X21469  -0.203   3.906   7.612  0.6491  0.6708 -2.7762
  186SLPC  H11Y21470  -0.108   4.017   7.713 -1.2029  0.1583  0.3283
  186SLPC  C31221471  -0.024   3.826   7.738 -0.0243 -0.3096 -0.5780
  186SLPC  H12X21472   0.080   3.859   7.756 -0.4314 -0.1006  1.5352
  186SLPC  H12Y21473  -0.028   3.725   7.691  2.9812 -0.2061 -1.2230
  186SLPC  C31321474  -0.077   3.813   7.882 -0.0422 -0.5726 -0.0302
  186SLPC  H13X21475  -0.186   3.831   7.888  0.2583  1.2357  0.5580
  186SLPC  H13Y21476  -0.030   3.895   7.941 -3.1683  1.7753 -0.5608
  186SLPC  C31421477  -0.057   3.678   7.942 -0.1187  0.4306  0.0083
  186SLPC  H14X21478  -0.116   3.607   7.880  1.1583 -0.5300 -0.1290
  186SLPC  H14Y21479  -0.089   3.663   8.047  1.8283 -2.9371  0.2415
  186SLPC  C31521480   0.094   3.639   7.930 -0.2110 -0.1087  0.0534
  186SLPC  H15X21481   0.152   3.672   7.841  0.0050 -1.4172 -0.3088
  186SLPC  H15Y21482   0.102   3.529   7.930  0.5206 -0.0615  0.4300
  186SLPC  C31621483   0.184   3.669   8.054 -0.7068  0.7257  0.0252
  186SLPC  H16X21484   0.196   3.779   8.057 -1.4601  0.7939  2.7372
  186SLPC  H16Y21485   0.280   3.613   8.050 -1.7156 -1.0319 -1.9445
  186SLPC  C31721486   0.137   3.613   8.192 -0.8188  0.2831 -0.1676
  186SLPC  H17X21487   0.124   3.503   8.187  0.0488  0.2198 -1.3992
  186SLPC  H17Y21488   0.036   3.654   8.215 -0.8644 -0.5138  1.1400
  186SLPC  C31821489   0.233   3.637   8.317 -0.2265 -0.9019 -0.0736
  186SLPC  H18X21490   0.179   3.635   8.414  1.6680  0.2250  1.0607
  186SLPC  H18Y21491   0.285   3.734   8.298  0.2479 -1.4711 -1.8427
  186SLPC  H18Z21492   0.306   3.554   8.322 -0.1867 -0.8484  0.2637
  187SLPC     N21493   1.762   1.630   6.010  0.8617  0.2019  0.3139
  187SLPC   C1321494   1.683   1.679   5.888  0.7226 -0.0449  0.1178
  187SLPC  H13A21495   1.632   1.606   5.828  0.9162 -0.0239 -0.0733
  187SLPC  H13B21496   1.608   1.749   5.922  0.4117 -1.0432  1.5846
  187SLPC  H13C21497   1.751   1.730   5.822  0.3408  0.8673  0.4125
  187SLPC   C1421498   1.879   1.559   5.949  0.4313 -0.1221 -0.3929
  187SLPC  H14A21499   1.943   1.621   5.888 -0.1020  0.2420 -0.5947
  187SLPC  H14B21500   1.939   1.515   6.027  0.2689 -0.2994 -0.3679
  187SLPC  H14C21501   1.840   1.488   5.878  0.8693  0.3140 -1.0809
  187SLPC   C1521502   1.680   1.527   6.085  0.0246  0.0265 -0.5896
  187SLPC  H15A21503   1.732   1.482   6.168  1.6719  0.8476 -1.1195
  187SLPC  H15B21504   1.586   1.566   6.121  1.1262  1.2068  1.1965
  187SLPC  H15C21505   1.664   1.440   6.023 -0.1842 -1.1364  1.0378
  187SLPC   C1221506   1.804   1.750   6.094 -0.3702  0.4335  0.1675
  187SLPC  H12A21507   1.830   1.712   6.192  0.8512  0.4685 -0.1292
  187SLPC  H12B21508   1.716   1.811   6.107 -2.8510 -2.5391 -1.4471
  187SLPC   C1121509   1.918   1.855   6.044 -0.7661 -0.2402  0.6633
  187SLPC  H11A21510   1.913   1.949   6.104  1.1244  1.0584 -1.0731
  187SLPC  H11B21511   1.900   1.904   5.945  2.0332 -0.6364 -0.1154
  187SLPC     P21512   2.137   1.772   6.164 -0.0392 -0.6706  0.0105
  187SLPC   O1321513   2.097   1.650   6.241 -0.2591 -0.1417 -0.8125
  187SLPC   O1421514   2.276   1.787   6.130 -0.4209 -0.2665  0.1432
  187SLPC   O1221515   2.048   1.799   6.039 -0.2688 -0.0160  0.1906
  187SLPC   O1121516   2.087   1.889   6.250  0.8652 -0.4957 -0.0700
  187SLPC    C121517   2.095   1.903   6.391  0.9843  0.1371 -0.1687
  187SLPC    HA21518   2.150   1.826   6.450 -0.0788 -1.3798 -1.0959
  187SLPC    HB21519   2.142   2.000   6.418  2.1221 -0.4179 -0.0552
  187SLPC    C221520   1.956   1.929   6.472 -0.7601 -0.0382 -0.2531
  187SLPC    HS21521   1.902   1.832   6.473  0.1971 -0.5868  0.1959
  187SLPC   O2121522   1.886   2.037   6.412 -0.2146  0.1911 -0.7143
  187SLPC   C2121523   1.756   2.028   6.415  0.7009 -1.0291 -0.8808
  187SLPC   O2221524   1.682   1.941   6.453  0.0243 -0.1562  0.9767
  187SLPC   C2221525   1.696   2.165   6.378 -0.2031  0.3711  0.3419
  187SLPC   H2R21526   1.779   2.237   6.368  1.9421 -1.9796  0.2386
  187SLPC   H2S21527   1.638   2.152   6.284  1.0052 -1.7008 -0.1827
  187SLPC    C321528   1.988   1.960   6.626  0.7371 -0.1538  0.3174
  187SLPC    HX21529   2.046   2.056   6.629  0.5390  0.0128 -0.8501
  187SLPC    HY21530   2.051   1.879   6.667  0.5892 -0.6934 -0.5004
  187SLPC   O3121531   1.869   1.977   6.700 -0.3310 -0.4478  0.3879
  187SLPC   C3121532   1.783   1.877   6.710 -0.8973 -0.5581  0.0389
  187SLPC   O3221533   1.806   1.762   6.684  0.1671  0.0395 -0.1060
  187SLPC   C3221534   1.653   1.919   6.777  0.2517 -0.0101 -0.4516
  187SLPC   H2X21535   1.572   1.861   6.728 -0.6667  0.9648 -0.1164
  187SLPC   H2Y21536   1.636   2.023   6.743  0.5300  0.6974  1.4513
  187SLPC   C2321537   1.591   2.202   6.486  0.0885 -0.4208  0.6231
  187SLPC   H3R21538   1.527   2.117   6.519 -0.7734  0.5918  1.6589
  187SLPC   H3S21539   1.524   2.288   6.463 -1.7940 -1.4817  1.8642
  187SLPC   C2421540   1.662   2.256   6.620  0.2378  0.7543  0.3160
  187SLPC   H4R21541   1.736   2.329   6.583  0.3363  0.3552 -0.2934
  187SLPC   H4S21542   1.732   2.181   6.663 -0.0228 -0.0133 -0.5759
  187SLPC   C2521543   1.564   2.305   6.727 -0.6981  0.1035  0.8322
  187SLPC   H5R21544   1.509   2.213   6.756  1.6443 -1.3277  1.0609
  187SLPC   H5S21545   1.497   2.378   6.677 -0.0790  0.2827  0.2400
  187SLPC   C2621546   1.625   2.361   6.854 -0.2250  0.7521 -0.8417
  187SLPC   H6R21547   1.700   2.437   6.824  0.4328  0.0973 -0.8697
  187SLPC   H6S21548   1.686   2.288   6.912 -1.4215  1.3347  1.2973
  187SLPC   C2721549   1.530   2.442   6.935 -0.1131 -0.5458 -0.1931
  187SLPC   H7R21550   1.456   2.375   6.983 -1.5974 -0.5776 -2.4220
  187SLPC   H7S21551   1.460   2.500   6.871 -1.2491 -1.9233 -0.2338
  187SLPC   C2821552   1.595   2.533   7.039 -0.3303 -0.8088 -0.2021
  187SLPC   H8R21553   1.537   2.625   7.063  1.9860  1.0411 -1.2838
  187SLPC   H8S21554   1.687   2.582   7.000 -2.1031  0.8046 -2.6357
  187SLPC   C2921555   1.634   2.459   7.160 -0.5104  0.5175  0.0692
  187SLPC   H9R21556   1.624   2.350   7.148 -1.2729  0.4856  0.8687
  187SLPC  C21021557   1.670   2.517   7.281  0.6085  0.0214 -0.1498
  187SLPC  H10R21558   1.694   2.452   7.367  1.1529 -1.4370 -1.3478
  187SLPC  C21121559   1.679   2.661   7.316 -0.4582  0.0845 -0.1146
  187SLPC  H11R21560   1.677   2.719   7.221 -1.7767 -1.3384 -0.9905
  187SLPC  H11S21561   1.773   2.686   7.371 -0.4272 -0.1971 -0.0399
  187SLPC  C21221562   1.551   2.683   7.395 -0.5883 -0.0440 -1.0313
  187SLPC  H12R21563   1.467   2.676   7.325 -1.1541 -2.1973 -0.2378
  187SLPC  C21321564   1.535   2.702   7.526 -0.0515 -0.1389 -0.1994
  187SLPC  H13R21565   1.432   2.698   7.565  0.5883  1.3546  1.7941
  187SLPC  C21421566   1.642   2.692   7.635  0.5957  0.3184 -0.1337
  187SLPC  H14R21567   1.739   2.666   7.590  0.8670  1.4582 -0.2394
  187SLPC  H14S21568   1.615   2.616   7.711 -3.4252  0.6112 -1.0405
  187SLPC  C21521569   1.639   2.826   7.711  0.2076 -0.2808  0.0092
  187SLPC  H15R21570   1.702   2.813   7.801  1.1862  2.6016 -0.1491
  187SLPC  H15S21571   1.538   2.864   7.739 -0.4204  0.1637 -2.5680
  187SLPC  C21621572   1.708   2.942   7.635  0.0947  0.5366 -0.2940
  187SLPC  H16R21573   1.657   2.964   7.538 -1.3036 -1.1348  0.0146
  187SLPC  H16S21574   1.805   2.907   7.596 -0.3149 -2.7288  1.3160
  187SLPC  C21721575   1.726   3.071   7.711  0.1108 -0.6916  0.5962
  187SLPC  H17R21576   1.625   3.115   7.720 -0.3375 -0.9592 -2.1842
  187SLPC  H17S21577   1.780   3.148   7.653  1.0234  1.2430  3.8148
  187SLPC  C21821578   1.795   3.060   7.843  0.2111 -0.3615 -0.2627
  187SLPC  H18R21579   1.881   2.992   7.824  0.6900  0.5500 -1.4950
  187SLPC  H18S21580   1.736   3.005   7.919 -2.2978 -1.5955 -2.9195
  187SLPC  H18T21581   1.831   3.154   7.891  0.2178  0.8615 -2.5123
  187SLPC   C3321582   1.654   1.907   6.930 -0.5758  0.1652  0.2999
  187SLPC   H3X21583   1.736   1.979   6.951 -0.5118  0.4046 -0.7478
  187SLPC   H3Y21584   1.687   1.813   6.980 -1.3537  1.1091  2.7054
  187SLPC   C3421585   1.534   1.972   6.993 -0.0233 -0.5447 -0.3649
  187SLPC   H4X21586   1.445   1.908   6.977  0.1199 -0.5608 -1.1072
  187SLPC   H4Y21587   1.519   2.071   6.944  0.4103 -0.0222  0.5267
  187SLPC   C3521588   1.539   1.999   7.148  0.0883 -0.4794  0.1154
  187SLPC   H5X21589   1.632   2.057   7.168 -1.8688  2.2407  1.9876
  187SLPC   H5Y21590   1.540   1.911   7.216 -0.7292  1.6203  3.0137
  187SLPC   C3621591   1.427   2.087   7.202 -0.0561  0.8068  0.1259
  187SLPC   H6X21592   1.335   2.027   7.216  1.8208 -2.2932 -0.0624
  187SLPC   H6Y21593   1.405   2.159   7.120  2.2571  1.7214  0.2273
  187SLPC   C3721594   1.471   2.163   7.334  0.0661 -0.3587  0.0008
  187SLPC   H7X21595   1.571   2.212   7.330 -0.3973  0.7412  1.1720
  187SLPC   H7Y21596   1.397   2.242   7.359  0.8407 -0.4144  2.8525
  187SLPC   C3821597   1.468   2.071   7.450  0.1028  0.1700 -0.2793
  187SLPC   H8X21598   1.537   1.984   7.435 -0.3981 -0.8161  2.5097
  187SLPC   H8Y21599   1.365   2.029   7.457  0.0818  0.1092 -0.9258
  187SLPC   C3921600   1.496   2.144   7.583 -0.0511  0.4962  0.1376
  187SLPC   H9X21601   1.417   2.219   7.607 -0.4428 -0.2428  1.2006
  187SLPC   H9Y21602   1.593   2.197   7.575 -0.3361  1.2331  1.2897
  187SLPC  C31021603   1.523   2.047   7.700 -0.0959 -0.4006 -0.7211
  187SLPC  H10X21604   1.610   1.986   7.669 -1.0639 -2.0491 -0.3242
  187SLPC  H10Y21605   1.436   1.978   7.707  1.3431 -2.4091 -1.8312
  187SLPC  C31121606   1.546   2.130   7.829 -0.4349  0.1918  0.5044
  187SLPC  H11X21607   1.461   2.202   7.833 -0.6232  0.0721 -0.9318
  187SLPC  H11Y21608   1.641   2.185   7.815 -1.2780  0.9941 -3.1435
  187SLPC  C31221609   1.544   2.041   7.957  0.6850  0.5096 -0.0880
  187SLPC  H12X21610   1.558   2.106   8.045  1.3552 -1.2801  1.1729
  187SLPC  H12Y21611   1.625   1.965   7.952 -1.2840 -1.6484 -1.7141
  187SLPC  C31321612   1.413   1.967   7.968  0.0615 -0.2911 -0.2867
  187SLPC  H13X21613   1.423   1.884   7.895  3.5236  2.4440 -3.3073
  187SLPC  H13Y21614   1.328   2.037   7.946 -0.1163 -0.8695 -1.5383
  187SLPC  C31421615   1.393   1.906   8.111 -0.1260 -0.6741  0.6759
  187SLPC  H14X21616   1.352   1.970   8.191 -2.4334 -1.9032  0.5359
  187SLPC  H14Y21617   1.494   1.871   8.142  0.7406 -0.1888 -1.4430
  187SLPC  C31521618   1.305   1.778   8.098 -0.0509 -0.7557 -0.3088
  187SLPC  H15X21619   1.362   1.696   8.049  1.1830 -0.2343  0.2275
  187SLPC  H15Y21620   1.212   1.805   8.044  0.1881 -2.3180 -1.5622
  187SLPC  C31621621   1.272   1.723   8.239  0.5077  0.4541 -0.7400
  187SLPC  H16X21622   1.225   1.803   8.301 -2.5934 -1.4969 -0.3516
  187SLPC  H16Y21623   1.363   1.676   8.281  0.3639 -1.2281 -2.1800
  187SLPC  C31721624   1.178   1.606   8.229  0.1910 -0.3589  0.4395
  187SLPC  H17X21625   1.223   1.554   8.142 -0.3351 -1.5058  0.8251
  187SLPC  H17Y21626   1.074   1.638   8.209 -0.7533 -3.4172 -0.1339
  187SLPC  C31821627   1.186   1.520   8.354 -0.7571  0.4913 -0.4911
  187SLPC  H18X21628   1.277   1.456   8.350 -1.5068 -0.8437  1.6011
  187SLPC  H18Y21629   1.105   1.443   8.351 -1.2554  1.0107 -0.5082
  187SLPC  H18Z21630   1.187   1.563   8.457 -3.6419 -2.8759  1.1658
  188SLPC     N21631   0.639   2.104   6.181  0.0633 -0.0543  0.4254
  188SLPC   C1321632   0.502   2.055   6.187  0.8063  0.2987 -0.1340
  188SLPC  H13A21633   0.460   2.031   6.090 -0.9013 -2.5662  1.1819
  188SLPC  H13B21634   0.495   1.963   6.242  1.6383  0.0811 -0.3831
  188SLPC  H13C21635   0.443   2.121   6.249 -0.1909  0.5112 -1.2758
  188SLPC   C1421636   0.626   2.242   6.122 -0.4779  0.7313 -0.3072
  188SLPC  H14A21637   0.547   2.252   6.049 -0.4620 -2.2587 -0.8805
  188SLPC  H14B21638   0.608   2.315   6.199 -4.3036  0.1638 -0.4615
  188SLPC  H14C21639   0.717   2.267   6.070  0.2675 -3.5925 -1.5599
  188SLPC   C1521640   0.717   2.018   6.082 -0.1884 -0.2009  0.0745
  188SLPC  H15A21641   0.801   2.076   6.047 -0.5154 -0.0388 -0.4471
  188SLPC  H15B21642   0.746   1.923   6.124  0.9079 -0.8714 -2.0427
  188SLPC  H15C21643   0.672   1.985   5.990  1.6631  0.3719 -1.0850
  188SLPC   C1221644   0.700   2.093   6.325 -0.0981  0.4313  0.2286
  188SLPC  H12A21645   0.650   2.150   6.401 -1.2752 -0.9919  0.5603
  188SLPC  H12B21646   0.802   2.127   6.311  0.8933 -1.8819  1.1589
  188SLPC   C1121647   0.709   1.952   6.387  0.0333 -0.5418 -0.6807
  188SLPC  H11A21648   0.603   1.931   6.415  0.8296 -1.1668  2.1264
  188SLPC  H11B21649   0.775   1.960   6.475 -1.6261 -1.2672  0.7050
  188SLPC     P21650   0.721   1.690   6.327 -0.2507 -0.2882 -0.2829
  188SLPC   O1321651   0.581   1.655   6.338 -0.2009  0.2497  0.2794
  188SLPC   O1421652   0.804   1.618   6.226 -0.7446 -0.0917 -0.3080
  188SLPC   O1221653   0.740   1.851   6.299  0.2304 -0.2719  0.0874
  188SLPC   O1121654   0.790   1.657   6.470  0.4361 -0.0499 -0.1439
  188SLPC    C121655   0.738   1.700   6.601  0.2673  0.8095  0.0972
  188SLPC    HA21656   0.807   1.777   6.640 -0.3204  2.6181 -2.1730
  188SLPC    HB21657   0.644   1.759   6.590  0.1250  0.9738  1.9329
  188SLPC    C221658   0.694   1.593   6.703 -0.9740 -0.8206 -0.2892
  188SLPC    HS21659   0.648   1.636   6.795 -0.4886 -1.2932  0.1766
  188SLPC   O2121660   0.807   1.511   6.734 -0.5079 -0.4505  0.4852
  188SLPC   C2121661   0.894   1.579   6.815  0.2011  0.0835  0.7525
  188SLPC   O2221662   0.889   1.695   6.850 -0.2699  0.7649 -0.2641
  188SLPC   C2221663   0.995   1.477   6.863 -0.0527  1.0958  0.2839
  188SLPC   H2R21664   0.946   1.377   6.869 -1.5247  1.7185 -0.7241
  188SLPC   H2S21665   1.082   1.465   6.794 -0.7496  0.1083 -0.4671
  188SLPC    C321666   0.578   1.504   6.637  0.2781 -0.2459 -0.2170
  188SLPC    HX21667   0.614   1.483   6.534  2.4296  1.0373  0.2000
  188SLPC    HY21668   0.486   1.566   6.630  1.1784  1.2466  0.5693
  188SLPC   O3121669   0.555   1.390   6.720  0.3891 -0.1092  0.5341
  188SLPC   C3121670   0.608   1.277   6.684  0.3522  0.5266  0.3566
  188SLPC   O3221671   0.653   1.250   6.573 -0.0039  0.2175  0.0601
  188SLPC   C3221672   0.625   1.183   6.809 -0.2086  0.0201  0.2866
  188SLPC   H2X21673   0.731   1.152   6.821 -0.6571 -1.0068  2.0544
  188SLPC   H2Y21674   0.554   1.098   6.799 -1.1654  0.6624  1.3700
  188SLPC   C2321675   1.070   1.513   6.994  0.5961  0.8826 -0.3268
  188SLPC   H3R21676   1.102   1.619   6.983 -2.1094  1.5692 -2.8846
  188SLPC   H3S21677   1.162   1.453   7.006  0.6258  1.1073  0.6603
  188SLPC   C2421678   0.988   1.491   7.120 -0.4115 -0.2825 -0.0531
  188SLPC   H4R21679   0.935   1.393   7.128 -1.1673  0.0778 -0.5233
  188SLPC   H4S21680   0.899   1.557   7.125 -0.3496 -0.1491 -0.6154
  188SLPC   C2521681   1.065   1.498   7.254 -0.5599  0.1793  0.3798
  188SLPC   H5R21682   1.114   1.597   7.263  0.4600 -0.1003 -1.5046
  188SLPC   H5S21683   1.145   1.424   7.234 -0.4875  0.0405  1.1580
  188SLPC   C2621684   0.985   1.455   7.380 -1.0308  0.5358  0.1434
  188SLPC   H6R21685   0.981   1.345   7.392  0.4183  0.6165  1.6405
  188SLPC   H6S21686   0.887   1.509   7.380 -0.4272  1.6632  0.5316
  188SLPC   C2721687   1.061   1.499   7.504  0.4969  0.3920 -0.2696
  188SLPC   H7R21688   1.070   1.608   7.522  0.0982  0.0911  2.0900
  188SLPC   H7S21689   1.155   1.444   7.482  0.1769  1.1283 -4.3982
  188SLPC   C2821690   0.997   1.427   7.631  0.6238 -0.4542 -0.6855
  188SLPC   H8R21691   0.987   1.317   7.617  1.9008 -0.9718  1.8170
  188SLPC   H8S21692   0.892   1.462   7.634  0.8559  0.1945  0.9253
  188SLPC   C2921693   1.077   1.435   7.758  0.6340 -0.2900  0.2584
  188SLPC   H9R21694   1.132   1.343   7.780 -0.5968 -2.2374 -3.9280
  188SLPC  C21021695   1.080   1.526   7.854 -0.4174 -1.0105  0.0635
  188SLPC  H10R21696   1.154   1.516   7.935  0.5355  2.0021 -0.3032
  188SLPC  C21121697   1.000   1.649   7.863  0.2383  0.0476 -0.1725
  188SLPC  H11R21698   0.956   1.673   7.764  1.5482  2.1090 -0.3149
  188SLPC  H11S21699   1.076   1.729   7.880  1.2399 -0.7523 -0.7667
  188SLPC  C21221700   0.885   1.645   7.971  0.6681  0.1205  0.9012
  188SLPC  H12R21701   0.833   1.549   7.986  0.6011 -0.3613 -1.9299
  188SLPC  C21321702   0.846   1.745   8.047 -0.0039 -0.1578  0.2127
  188SLPC  H13R21703   0.760   1.751   8.115  1.3196  5.1012  1.9466
  188SLPC  C21421704   0.903   1.887   8.040  0.3959 -0.0817  0.4541
  188SLPC  H14R21705   0.821   1.946   7.992 -1.2444 -2.5419  0.0218
  188SLPC  H14S21706   0.985   1.897   7.966  0.4158 -0.8555  0.3659
  188SLPC  C21521707   0.953   1.924   8.180  0.8688 -0.4979 -0.3423
  188SLPC  H15R21708   1.030   1.858   8.227 -1.1548 -2.0470  1.0173
  188SLPC  H15S21709   0.860   1.915   8.241 -0.0532 -0.0200 -1.6356
  188SLPC  C21621710   1.018   2.063   8.188 -0.1853  0.1765 -0.5298
  188SLPC  H16R21711   0.952   2.146   8.154  1.5761  1.9120  0.0679
  188SLPC  H16S21712   1.112   2.063   8.128  1.6319  1.4204  2.1184
  188SLPC  C21721713   1.069   2.108   8.331 -0.6039 -0.2544 -0.4052
  188SLPC  H17R21714   1.133   2.029   8.377  0.5790  0.1085 -1.3761
  188SLPC  H17S21715   0.982   2.130   8.397  0.3451  1.5435  0.3047
  188SLPC  C21821716   1.157   2.230   8.325 -0.0510 -1.6269 -0.6164
  188SLPC  H18R21717   1.105   2.316   8.278 -0.4817 -1.1934  0.6335
  188SLPC  H18S21718   1.254   2.212   8.273 -0.7758 -3.1063 -1.5158
  188SLPC  H18T21719   1.184   2.263   8.427 -5.4338  1.1645  0.2352
  188SLPC   C3321720   0.568   1.244   6.941 -0.9096 -0.4933 -0.6153
  188SLPC   H3X21721   0.462   1.269   6.922 -1.9029 -3.3452  0.6413
  188SLPC   H3Y21722   0.629   1.333   6.969  0.7723 -1.5644 -0.7276
  188SLPC   C3421723   0.594   1.143   7.059  0.0906  0.1531 -0.4573
  188SLPC   H4X21724   0.697   1.102   7.050 -0.6154 -1.8415 -0.0157
  188SLPC   H4Y21725   0.518   1.064   7.043 -1.3857  1.0243  1.8303
  188SLPC   C3521726   0.603   1.197   7.201 -0.5260 -0.0654 -0.6837
  188SLPC   H5X21727   0.500   1.217   7.237  0.5220 -1.1254  3.4088
  188SLPC   H5Y21728   0.659   1.293   7.198 -1.4447  0.6025  1.6819
  188SLPC   C3621729   0.675   1.118   7.308 -0.4964  0.1228  0.0174
  188SLPC   H6X21730   0.783   1.127   7.281 -0.6023 -0.9298 -0.8601
  188SLPC   H6Y21731   0.651   1.009   7.307  1.9376 -0.4924 -1.7145
  188SLPC   C3721732   0.646   1.165   7.444 -0.3601 -0.7115 -0.3631
  188SLPC   H7X21733   0.538   1.151   7.462 -0.6726 -0.9893 -2.3144
  188SLPC   H7Y21734   0.658   1.276   7.448  0.3931 -0.7834 -0.4586
  188SLPC   C3821735   0.739   1.105   7.550  1.1047 -0.2473 -0.0250
  188SLPC   H8X21736   0.838   1.150   7.525 -0.4323  3.8641  0.4458
  188SLPC   H8Y21737   0.757   0.996   7.540 -1.6897 -0.9203  1.1811
  188SLPC   C3921738   0.693   1.139   7.692  0.4548 -0.6554 -0.3114
  188SLPC   H9X21739   0.588   1.109   7.714  1.6302 -2.3672  3.8492
  188SLPC   H9Y21740   0.712   1.246   7.717  1.9526 -0.7236 -1.0404
  188SLPC  C31021741   0.778   1.071   7.801 -0.6413  0.0504 -0.0053
  188SLPC  H10X21742   0.886   1.072   7.779 -0.5965 -0.7550  0.1554
  188SLPC  H10Y21743   0.744   0.966   7.798 -1.3114  0.2018  1.2715
  188SLPC  C31121744   0.765   1.127   7.943  0.3078 -0.0567 -0.5234
  188SLPC  H11X21745   0.668   1.096   7.988 -0.0277  0.6783 -0.7176
  188SLPC  H11Y21746   0.775   1.236   7.925  3.5571 -0.3865 -1.2764
  188SLPC  C31221747   0.875   1.075   8.042 -0.5916 -0.1721  0.6569
  188SLPC  H12X21748   0.965   1.134   8.015 -2.5625  2.0304 -1.6513
  188SLPC  H12Y21749   0.897   0.967   8.034  0.1032 -0.0409  0.7378
  188SLPC  C31321750   0.818   1.101   8.182  0.3961  0.0467 -0.1170
  188SLPC  H13X21751   0.737   1.030   8.207 -0.5206 -0.0856 -3.1607
  188SLPC  H13Y21752   0.776   1.204   8.181 -0.9114 -0.4763 -0.3689
  188SLPC  C31421753   0.925   1.093   8.291 -0.5567 -0.2754  0.1688
  188SLPC  H14X21754   0.996   1.174   8.263 -0.7706 -0.2602 -0.3438
  188SLPC  H14Y21755   0.981   0.997   8.295  0.9657  0.5283 -0.7855
  188SLPC  C31521756   0.865   1.114   8.430 -0.6391  0.2497  0.5458
  188SLPC  H15X21757   0.764   1.069   8.438 -0.5281 -0.1831 -0.3523
  188SLPC  H15Y21758   0.870   1.225   8.442 -0.0525  0.0881  2.0558
  188SLPC  C31621759   0.946   1.057   8.545  0.3293 -0.3618  0.1913
  188SLPC  H16X21760   0.928   0.949   8.527  0.1283 -0.1842 -0.7348
  188SLPC  H16Y21761   0.909   1.093   8.643  0.2127  3.7678 -1.1690
  188SLPC  C31721762   1.091   1.094   8.546 -0.3719 -0.9196  0.0440
  188SLPC  H17X21763   1.100   1.201   8.517  1.6351 -1.4187 -1.4646
  188SLPC  H17Y21764   1.140   1.050   8.456  0.8553  0.6071 -0.0738
  188SLPC  C31821765   1.167   1.074   8.676  0.0114  0.9071 -0.2026
  188SLPC  H18X21766   1.111   1.118   8.762  0.4567 -1.9511  1.6829
  188SLPC  H18Y21767   1.265   1.126   8.672  0.5176 -0.0987 -1.4198
  188SLPC  H18Z21768   1.168   0.964   8.684 -2.8617  0.6235 -2.1831
  189SLPC     N21769   2.839   1.518   6.340 -0.3186  0.3298 -0.6806
  189SLPC   C1321770   2.800   1.525   6.197 -0.8903 -0.3169 -0.3478
  189SLPC  H13A21771   2.880   1.519   6.124 -1.2441  1.0203 -0.8909
  189SLPC  H13B21772   2.714   1.465   6.171 -0.1263 -1.3914 -0.4375
  189SLPC  H13C21773   2.761   1.626   6.195  0.2504  0.2411  2.1929
  189SLPC   C1421774   2.919   1.395   6.350  0.7385  0.3629  0.2674
  189SLPC  H14A21775   2.987   1.386   6.266 -0.9766  1.0699 -1.2789
  189SLPC  H14B21776   2.969   1.383   6.444  1.8978  0.0444 -0.3679
  189SLPC  H14C21777   2.846   1.316   6.339 -1.0327  1.8758  0.6350
  189SLPC   C1521778   2.714   1.504   6.416 -0.2422 -0.0321  0.0048
  189SLPC  H15A21779   2.733   1.503   6.523 -1.5252 -1.5655  0.2589
  189SLPC  H15B21780   2.650   1.589   6.402 -1.5156 -0.7992  0.9398
  189SLPC  H15C21781   2.661   1.414   6.389  0.1817  0.0681 -1.1956
  189SLPC   C1221782   2.915   1.640   6.376 -0.0206 -0.8551 -0.8263
  189SLPC  H12A21783   2.860   1.732   6.365 -0.6155 -1.1888 -0.7147
  189SLPC  H12B21784   3.002   1.651   6.312 -1.0833 -0.4471 -2.2657
  189SLPC   C1121785   2.972   1.634   6.520  0.0455 -0.2107  0.5160
  189SLPC  H11A21786   2.899   1.578   6.583 -0.4587  1.7074  1.7186
  189SLPC  H11B21787   2.985   1.732   6.571 -0.8897  1.2111 -1.8175
  189SLPC     P21788   3.235   1.599   6.480  0.0068 -0.2175 -0.5822
  189SLPC   O1321789   3.337   1.531   6.568  0.4934 -0.5897 -0.1225
  189SLPC   O1421790   3.262   1.595   6.338 -0.0653  0.1447  0.7829
  189SLPC   O1221791   3.084   1.553   6.517  0.4950  0.0028  0.4776
  189SLPC   O1121792   3.238   1.751   6.519  0.1051 -0.2775  0.4142
  189SLPC    C121793   3.247   1.800   6.652 -0.4216 -0.5005 -0.3101
  189SLPC    HA21794   3.156   1.768   6.707  0.4160 -3.1669 -0.3508
  189SLPC    HB21795   3.340   1.761   6.698 -0.5226  0.3929  0.7231
  189SLPC    C221796   3.248   1.956   6.666 -0.5951  0.3567 -0.0478
  189SLPC    HS21797   3.339   2.004   6.622 -0.9556 -0.6816 -2.0459
  189SLPC   O2121798   3.230   1.989   6.802  0.1533  0.1402 -0.1658
  189SLPC   C2121799   3.332   1.969   6.885 -0.2367  0.2340  0.6247
  189SLPC   O2221800   3.448   1.968   6.850 -0.3493 -0.2524 -0.2178
  189SLPC   C2221801   3.283   1.956   7.024  0.3528  0.3222 -0.0167
  189SLPC   H2R21802   3.252   2.051   7.073 -3.5880 -1.7182  1.9193
  189SLPC   H2S21803   3.189   1.897   7.023  1.0874 -0.9289  0.7644
  189SLPC    C321804   3.132   2.007   6.575 -0.2739  0.1480 -0.2705
  189SLPC    HX21805   3.147   1.969   6.472 -0.8808  0.3042 -0.4240
  189SLPC    HY21806   3.136   2.118   6.568  1.5108  0.2890  1.9058
  189SLPC   O3121807   3.006   1.960   6.619  0.2905  0.8477  0.2751
  189SLPC   C3121808   2.949   2.033   6.713 -0.0715  0.6618  0.1009
  189SLPC   O3221809   2.976   2.145   6.734 -0.2902 -0.1250  0.4089
  189SLPC   C3221810   2.838   1.954   6.784 -0.1177  0.7629  0.0613
  189SLPC   H2X21811   2.870   1.847   6.786 -0.9672  0.3718 -2.7575
  189SLPC   H2Y21812   2.740   1.961   6.732 -0.8229 -1.4978  0.9533
  189SLPC   C2321813   3.391   1.889   7.115 -0.0947 -0.2409  0.5260
  189SLPC   H3R21814   3.479   1.957   7.120  0.0506 -0.3042 -0.8497
  189SLPC   H3S21815   3.426   1.796   7.067  1.0238  0.8645 -0.8674
  189SLPC   C2421816   3.322   1.867   7.256 -0.0240 -0.4345  0.3563
  189SLPC   H4R21817   3.230   1.805   7.249 -0.9495  0.5735  2.6153
  189SLPC   H4S21818   3.303   1.966   7.304 -0.6468 -0.9339  1.1806
  189SLPC   C2521819   3.418   1.810   7.356 -0.1640  0.2678 -0.1906
  189SLPC   H5R21820   3.516   1.862   7.346 -0.3024  0.3314 -1.3449
  189SLPC   H5S21821   3.433   1.702   7.334 -1.0180  0.0328  0.3408
  189SLPC   C2621822   3.388   1.831   7.503 -0.2952 -0.3982  0.1589
  189SLPC   H6R21823   3.297   1.767   7.514 -0.6052 -0.3402 -1.7334
  189SLPC   H6S21824   3.359   1.936   7.525 -1.8744 -0.7269 -0.1878
  189SLPC   C2721825   3.506   1.798   7.597  0.5779 -0.9405  0.6267
  189SLPC   H7R21826   3.583   1.878   7.607  0.5016 -1.1217  3.4437
  189SLPC   H7S21827   3.558   1.712   7.549  0.3201 -0.8794  0.2328
  189SLPC   C2821828   3.477   1.752   7.738  0.7041  0.0858  0.1827
  189SLPC   H8R21829   3.432   1.839   7.790 -2.4640 -1.0325 -0.4135
  189SLPC   H8S21830   3.579   1.739   7.778  0.8817 -0.4317 -0.4206
  189SLPC   C2921831   3.382   1.640   7.763 -0.2067  0.0588  0.9164
  189SLPC   H9R21832   3.290   1.657   7.705 -0.1116 -1.7345  0.1702
  189SLPC  C21021833   3.383   1.534   7.849  0.3196 -0.4451  0.0953
  189SLPC  H10R21834   3.302   1.461   7.829  2.3758 -1.9270 -3.8975
  189SLPC  C21121835   3.497   1.507   7.945  0.1975  0.8357 -0.1085
  189SLPC  H11R21836   3.500   1.573   8.034  0.8954  0.3243  0.2652
  189SLPC  H11S21837   3.593   1.529   7.893  0.8070  0.9167  1.0117
  189SLPC  C21221838   3.489   1.361   7.979 -0.1078 -0.4572 -0.3639
  189SLPC  H12R21839   3.405   1.303   7.937 -0.2686 -0.4018 -0.1239
  189SLPC  C21321840   3.571   1.306   8.069 -0.1079  0.0801 -0.3813
  189SLPC  H13R21841   3.577   1.196   8.072 -0.8631  0.0505  1.0742
  189SLPC  C21421842   3.684   1.373   8.150  0.0908  0.7032 -0.5394
  189SLPC  H14R21843   3.713   1.476   8.119 -1.3015  1.7234  1.3415
  189SLPC  H14S21844   3.775   1.311   8.137 -0.6396 -0.7111  0.7782
  189SLPC  C21521845   3.649   1.373   8.300  0.1161  0.7903  0.5017
  189SLPC  H15R21846   3.743   1.405   8.350  0.1745  1.4101  0.0193
  189SLPC  H15S21847   3.633   1.268   8.330  1.0451  0.2709 -0.7328
  189SLPC  C21621848   3.534   1.458   8.351 -0.0271  0.6311 -0.0284
  189SLPC  H16R21849   3.501   1.436   8.455 -1.8390 -1.7006 -0.9973
  189SLPC  H16S21850   3.448   1.438   8.284  0.9519  0.5903 -1.3187
  189SLPC  C21721851   3.566   1.600   8.335 -0.8707 -0.6760 -0.1851
  189SLPC  H17R21852   3.564   1.614   8.224 -2.9503  1.4380  0.0329
  189SLPC  H17S21853   3.665   1.627   8.377 -0.1597  2.1239 -3.2122
  189SLPC  C21821854   3.466   1.702   8.395 -0.4085  0.5891 -0.2156
  189SLPC  H18R21855   3.445   1.664   8.498  1.4703  0.5908  0.2065
  189SLPC  H18S21856   3.372   1.711   8.337 -0.4053 -1.0317 -0.5338
  189SLPC  H18T21857   3.519   1.799   8.399 -0.0248  0.3996 -0.6971
  189SLPC   C3321858   2.809   1.997   6.934 -0.3931 -0.2344  0.3312
  189SLPC   H3X21859   2.718   1.939   6.961 -0.4926  0.5510  1.7434
  189SLPC   H3Y21860   2.778   2.103   6.924  0.6543  0.1615  1.1770
  189SLPC   C3421861   2.918   1.968   7.034  0.1266 -0.5784 -0.0878
  189SLPC   H4X21862   3.004   2.029   6.999 -0.5232  0.9116  0.8322
  189SLPC   H4Y21863   2.958   1.864   7.038  1.7776  0.0026 -0.5766
  189SLPC   C3521864   2.888   2.013   7.178 -1.0748 -0.2407  0.4755
  189SLPC   H5X21865   2.800   1.960   7.220  0.3110 -1.0752  2.4284
  189SLPC   H5Y21866   2.872   2.123   7.179 -5.1964 -0.6719 -0.1966
  189SLPC   C3621867   2.994   1.972   7.278 -0.4818 -0.4220 -0.0102
  189SLPC   H6X21868   3.088   2.026   7.255  0.6898 -3.1199 -2.0354
  189SLPC   H6Y21869   3.015   1.863   7.269  2.1629  0.0573 -0.2663
  189SLPC   C3721870   2.944   2.005   7.414 -0.4279  0.4651 -0.3623
  189SLPC   H7X21871   2.856   1.950   7.453 -0.2242  0.2106 -0.2615
  189SLPC   H7Y21872   2.913   2.112   7.415  1.3783  1.0417 -1.3503
  189SLPC   C3821873   3.052   1.971   7.517  0.1006 -0.1539 -0.5219
  189SLPC   H8X21874   3.146   2.024   7.494  0.9518 -0.9426  0.9769
  189SLPC   H8Y21875   3.066   1.862   7.498 -0.6931 -0.1368 -1.2658
  189SLPC   C3921876   3.018   1.983   7.668 -0.2372 -0.2098  0.0323
  189SLPC   H9X21877   2.927   1.922   7.690 -0.7202 -0.2109 -1.7510
  189SLPC   H9Y21878   2.998   2.088   7.697  0.6201 -0.8187  3.1183
  189SLPC  C31021879   3.134   1.935   7.759  0.2955  0.4657 -0.2468
  189SLPC  H10X21880   3.223   2.002   7.749  0.1899  0.6291 -0.0966
  189SLPC  H10Y21881   3.161   1.832   7.728  0.8786 -0.2174  2.3129
  189SLPC  C31121882   3.094   1.937   7.909 -0.0219  0.1476  0.2098
  189SLPC  H11X21883   3.004   1.872   7.918  0.3257 -0.6702 -1.7255
  189SLPC  H11Y21884   3.056   2.040   7.925 -0.4379  0.1933 -0.9121
  189SLPC  C31221885   3.208   1.898   8.002 -0.7583 -0.2772 -0.4115
  189SLPC  H12X21886   3.243   1.975   8.074  0.5914 -2.3351  1.2759
  189SLPC  H12Y21887   3.299   1.876   7.943 -0.2721  1.3009 -0.2807
  189SLPC  C31321888   3.173   1.770   8.082 -0.3194 -0.3330  0.5901
  189SLPC  H13X21889   3.266   1.716   8.109  0.6252  0.9536  0.0369
  189SLPC  H13Y21890   3.119   1.702   8.014 -0.1281 -2.0622  2.1010
  189SLPC  C31421891   3.076   1.798   8.198  0.1696  0.0775 -0.7827
  189SLPC  H14X21892   3.062   1.702   8.252 -2.8218  0.2384 -1.1103
  189SLPC  H14Y21893   2.975   1.835   8.169 -0.2787 -0.4758  0.0235
  189SLPC  C31521894   3.114   1.886   8.315 -0.1776 -0.2928  0.0070
  189SLPC  H15X21895   3.125   1.986   8.266 -0.5030 -0.6267 -0.7557
  189SLPC  H15Y21896   3.214   1.861   8.356  0.2287  0.5850 -0.4089
  189SLPC  C31621897   3.008   1.894   8.421 -0.0960 -0.1385 -0.5091
  189SLPC  H16X21898   3.021   1.806   8.488 -0.9211  0.6056  0.6730
  189SLPC  H16Y21899   2.910   1.882   8.371  0.4256 -1.5421 -1.2517
  189SLPC  C31721900   3.013   2.015   8.509 -0.2605 -0.1946 -0.2924
  189SLPC  H17X21901   2.987   2.105   8.449 -1.5703  0.3923  1.1029
  189SLPC  H17Y21902   3.116   2.028   8.548 -0.8019  0.9275  0.7886
  189SLPC  C31821903   2.907   2.014   8.617  1.3934 -0.0529 -0.6509
  189SLPC  H18X21904   2.801   2.005   8.584 -0.2197 -0.7227  3.9599
  189SLPC  H18Y21905   2.911   2.098   8.689 -2.5551 -2.7539  3.2302
  189SLPC  H18Z21906   2.923   1.923   8.679  0.9889 -0.4157 -1.0732
  190SLPC     N21907   2.686   0.760   6.112  0.4976 -0.9631  0.6830
  190SLPC   C1321908   2.583   0.650   6.133 -0.0769 -0.2668 -0.2754
  190SLPC  H13A21909   2.625   0.562   6.177 -2.0597 -0.3885  1.5786
  190SLPC  H13B21910   2.497   0.672   6.195 -0.7113 -3.0155 -0.0529
  190SLPC  H13C21911   2.545   0.613   6.039 -1.5580 -1.5140  0.7608
  190SLPC   C1421912   2.623   0.864   6.034  0.0731  0.5171  0.0997
  190SLPC  H14A21913   2.587   0.826   5.940 -0.6190  0.2252  0.4774
  190SLPC  H14B21914   2.540   0.913   6.082 -0.3012  2.1194 -2.0415
  190SLPC  H14C21915   2.693   0.943   6.009  1.5858 -0.8109 -0.0310
  190SLPC   C1521916   2.801   0.705   6.040 -0.5907 -0.4617 -0.1246
  190SLPC  H15A21917   2.776   0.661   5.944  1.4169  0.9285 -1.3682
  190SLPC  H15B21918   2.863   0.786   6.006  0.8644 -0.9970  1.1540
  190SLPC  H15C21919   2.864   0.644   6.102  1.9012  0.6665 -1.4202
  190SLPC   C1221920   2.726   0.817   6.254 -0.3708  0.0938  0.0971
  190SLPC  H12A21921   2.810   0.885   6.249 -0.6047  0.4267  0.6892
  190SLPC  H12B21922   2.779   0.733   6.296  0.9506  1.0837  0.4746
  190SLPC   C1121923   2.623   0.862   6.366  0.5653 -0.4037 -0.0916
  190SLPC  H11A21924   2.672   0.871   6.466 -1.7751  1.3644  1.0049
  190SLPC  H11B21925   2.541   0.787   6.368  0.5002 -0.3295  0.0819
  190SLPC     P21926   2.650   1.126   6.281 -0.2335 -0.2264 -0.1453
  190SLPC   O1321927   2.800   1.101   6.293  0.0885  0.3204  0.0737
  190SLPC   O1421928   2.597   1.166   6.156 -0.0436  0.2110 -0.1544
  190SLPC   O1221929   2.573   0.994   6.338  0.4017  0.4660 -0.2750
  190SLPC   O1121930   2.621   1.233   6.393 -0.3901 -0.4672 -0.0084
  190SLPC    C121931   2.549   1.204   6.512 -1.0561  0.3744 -0.1009
  190SLPC    HA21932   2.507   1.298   6.553 -0.8567  0.8575 -0.9742
  190SLPC    HB21933   2.474   1.125   6.487  0.9731 -2.0494  1.0847
  190SLPC    C221934   2.638   1.145   6.627  0.0626  0.3308 -0.5432
  190SLPC    HS21935   2.701   1.064   6.584  0.3682 -0.4536  1.2784
  190SLPC   O2121936   2.555   1.089   6.727 -0.2788 -0.5182 -0.2478
  190SLPC   C2121937   2.616   1.005   6.816  0.1338  0.3436 -0.3342
  190SLPC   O2221938   2.734   0.975   6.800  0.9583  0.3290 -0.0539
  190SLPC   C2221939   2.524   0.954   6.927 -0.3849  0.2613  0.5703
  190SLPC   H2R21940   2.418   0.976   6.902  0.2183  0.9007 -1.6254
  190SLPC   H2S21941   2.526   0.843   6.934 -2.1678  0.2463  1.7742
  190SLPC    C321942   2.737   1.254   6.686  0.1593 -0.4450  0.9283
  190SLPC    HX21943   2.827   1.262   6.621  0.7894  1.4471  1.9566
  190SLPC    HY21944   2.781   1.221   6.782 -1.4570 -3.6270  0.6962
  190SLPC   O3121945   2.680   1.380   6.708  0.8298 -0.3224  0.2490
  190SLPC   C3121946   2.633   1.410   6.835 -0.4899 -0.0549  0.0939
  190SLPC   O3221947   2.634   1.334   6.931 -0.1987  0.3569 -0.1678
  190SLPC   C3221948   2.595   1.557   6.837 -0.0072  0.1060 -0.2012
  190SLPC   H2X21949   2.544   1.585   6.742 -0.2164  1.9614  0.4266
  190SLPC   H2Y21950   2.689   1.610   6.859  0.1883  0.3217 -1.4689
  190SLPC   C2321951   2.549   1.029   7.064  0.2335 -0.0213 -0.1111
  190SLPC   H3R21952   2.456   1.028   7.126 -1.2051  0.2502 -2.1421
  190SLPC   H3S21953   2.568   1.136   7.044 -2.8298  0.8097  0.7820
  190SLPC   C2421954   2.669   0.979   7.148  0.0471 -0.5481 -0.5116
  190SLPC   H4R21955   2.762   0.980   7.087 -1.4002  1.7495 -2.8857
  190SLPC   H4S21956   2.635   0.878   7.180 -0.8163 -1.5566 -4.1561
  190SLPC   C2521957   2.699   1.072   7.267 -0.6485  0.0822 -0.3982
  190SLPC   H5R21958   2.713   1.175   7.229 -0.4216  1.2242  2.5832
  190SLPC   H5S21959   2.799   1.047   7.308 -1.1404  1.0039  1.4487
  190SLPC   C2621960   2.590   1.073   7.374  0.0957 -0.0717  0.1315
  190SLPC   H6R21961   2.489   1.032   7.351 -1.4025  1.2892  3.5538
  190SLPC   H6S21962   2.583   1.170   7.428  1.5082 -0.1626  0.5222
  190SLPC   C2721963   2.629   0.992   7.498 -0.3904 -0.5059  0.0642
  190SLPC   H7R21964   2.636   0.884   7.473 -2.5774 -0.3926 -1.3492
  190SLPC   H7S21965   2.540   0.994   7.564  0.1567  2.1594  0.8332
  190SLPC   C2821966   2.760   1.032   7.573 -0.7106  0.5030 -0.0075
  190SLPC   H8R21967   2.786   1.140   7.562  1.3711  0.1050  0.5673
  190SLPC   H8S21968   2.848   0.979   7.531  0.1819  1.4073  0.6762
  190SLPC   C2921969   2.775   0.993   7.722 -0.2481 -0.2297 -0.7317
  190SLPC   H9R21970   2.838   0.905   7.740  3.4733  2.0868 -1.2880
  190SLPC  C21021971   2.725   1.055   7.832  0.6458 -0.1794  0.6237
  190SLPC  H10R21972   2.750   1.003   7.925 -1.3002 -1.1443  0.6619
  190SLPC  C21121973   2.641   1.184   7.832  0.0660 -0.3937 -0.2563
  190SLPC  H11R21974   2.535   1.177   7.801  0.7141 -0.6601 -2.5467
  190SLPC  H11S21975   2.674   1.258   7.757  2.4114  0.3501  1.3727
  190SLPC  C21221976   2.642   1.242   7.973  0.5340 -0.4488  0.0857
  190SLPC  H12R21977   2.566   1.204   8.044  2.0152 -1.2383  1.3000
  190SLPC  C21321978   2.742   1.317   8.020  0.5582 -0.7302  0.1937
  190SLPC  H13R21979   2.729   1.360   8.120 -2.1387  1.5196 -1.0015
  190SLPC  C21421980   2.875   1.355   7.957  0.4003 -0.4019  0.0423
  190SLPC  H14R21981   2.874   1.459   7.918  3.2606 -0.3707 -0.1668
  190SLPC  H14S21982   2.896   1.282   7.876  1.5985 -2.8686  2.4423
  190SLPC  C21521983   2.986   1.330   8.051  0.3607 -0.4559  0.0653
  190SLPC  H15R21984   3.079   1.367   8.004  0.7778  0.0908  1.2760
  190SLPC  H15S21985   3.007   1.223   8.070  1.2424 -0.1555  0.8849
  190SLPC  C21621986   2.976   1.396   8.190  0.1573 -0.2220  0.0015
  190SLPC  H16R21987   2.890   1.347   8.241 -0.2609  1.7396  1.3137
  190SLPC  H16S21988   2.960   1.506   8.187  0.5875 -0.1787 -0.7058
  190SLPC  C21721989   3.105   1.361   8.270 -0.1970  0.9631  0.2738
  190SLPC  H17R21990   3.197   1.407   8.228 -0.0431 -0.5495 -1.1313
  190SLPC  H17S21991   3.122   1.251   8.264  1.1596  1.1365  0.6689
  190SLPC  C21821992   3.093   1.408   8.417 -0.2765  0.3284 -0.6297
  190SLPC  H18R21993   3.038   1.330   8.475  0.0799  0.3770 -0.2258
  190SLPC  H18S21994   3.036   1.502   8.431  0.3001  0.4687  0.9428
  190SLPC  H18T21995   3.193   1.420   8.463 -1.7246 -1.4241  3.4911
  190SLPC   C3321996   2.512   1.601   6.960 -0.1043 -0.2479  0.0578
  190SLPC   H3X21997   2.568   1.575   7.052  0.3582  1.9945  0.4693
  190SLPC   H3Y21998   2.421   1.540   6.974  0.6876 -1.2371  1.0518
  190SLPC   C3421999   2.466   1.755   6.962 -0.1225  0.0831 -0.1541
  190SLPC   H4X22000   2.388   1.760   6.883  0.6807  3.0587 -0.8708
  190SLPC   H4Y22001   2.554   1.816   6.934 -0.8931  0.0441 -2.8517
  190SLPC   C3522002   2.414   1.802   7.099 -0.2732  0.1269 -0.1760
  190SLPC   H5X22003   2.372   1.903   7.079  0.6326  0.5112 -0.1776
  190SLPC   H5Y22004   2.494   1.807   7.176 -0.9675 -3.0180  0.9485
  190SLPC   C3622005   2.291   1.729   7.144 -0.0883 -0.8778  0.2030
  190SLPC   H6X22006   2.337   1.631   7.169  5.2182  1.2339 -0.1120
  190SLPC   H6Y22007   2.226   1.714   7.055  0.9308 -0.2380 -0.6654
  190SLPC   C3722008   2.224   1.799   7.261  0.9041  0.1852  0.2205
  190SLPC   H7X22009   2.195   1.903   7.234  1.2507  0.0139 -0.8298
  190SLPC   H7Y22010   2.294   1.818   7.345 -0.4627  0.7640  1.2767
  190SLPC   C3822011   2.101   1.724   7.299  0.7704  0.4903 -0.1912
  190SLPC   H8X22012   2.121   1.623   7.341  1.5569  0.8723  0.3779
  190SLPC   H8Y22013   2.049   1.706   7.202  0.5143 -0.1851  0.0627
  190SLPC   C3922014   2.012   1.806   7.392 -0.1534  0.4505  0.3308
  190SLPC   H9X22015   1.908   1.782   7.360 -0.2793  2.2991 -0.7140
  190SLPC   H9Y22016   2.030   1.913   7.370  0.1618  0.6704  1.5458
  190SLPC  C31022017   2.033   1.756   7.538  0.0665  0.0203 -0.4119
  190SLPC  H10X22018   2.131   1.797   7.570 -1.7956  2.0678  3.4603
  190SLPC  H10Y22019   2.028   1.647   7.554  1.4592  0.2357  2.0064
  190SLPC  C31122020   1.945   1.842   7.637 -0.0021 -0.1645  0.0574
  190SLPC  H11X22021   1.839   1.808   7.630 -0.3700  1.1273 -1.2919
  190SLPC  H11Y22022   1.931   1.946   7.601 -0.3996 -0.4262 -0.5681
  190SLPC  C31222023   1.985   1.850   7.786  0.7183  0.5356  0.9483
  190SLPC  H12X22024   2.073   1.917   7.792  0.6286  0.8202 -0.4746
  190SLPC  H12Y22025   2.032   1.755   7.817  0.5542  0.1927  0.1802
  190SLPC  C31322026   1.888   1.905   7.887 -0.1057  0.6670  0.3111
  190SLPC  H13X22027   1.789   1.857   7.869  0.2300 -0.8474  2.1765
  190SLPC  H13Y22028   1.877   2.016   7.884 -1.8336  0.6803  3.0902
  190SLPC  C31422029   1.946   1.883   8.034  0.8353 -0.3149  0.3781
  190SLPC  H14X22030   2.048   1.925   8.026  1.1594 -1.3150 -1.3567
  190SLPC  H14Y22031   1.948   1.776   8.064  1.9046 -0.3208  0.3145
  190SLPC  C31522032   1.865   1.962   8.135  0.3366 -0.5694  0.1163
  190SLPC  H15X22033   1.759   1.930   8.144 -0.2553  0.1467 -3.0838
  190SLPC  H15Y22034   1.846   2.069   8.112 -3.2909 -0.6496  1.9802
  190SLPC  C31622035   1.933   1.958   8.265 -0.5512  0.6743 -0.1097
  190SLPC  H16X22036   2.025   2.021   8.265 -2.1866  3.2256 -0.4722
  190SLPC  H16Y22037   1.958   1.850   8.272 -0.8232  0.4030 -2.4056
  190SLPC  C31722038   1.861   2.010   8.388 -0.3141 -0.4244 -0.5551
  190SLPC  H17X22039   1.929   1.997   8.476 -0.3709 -0.9907 -0.5904
  190SLPC  H17Y22040   1.776   1.941   8.403  1.2294 -1.9520  1.9073
  190SLPC  C31822041   1.817   2.154   8.390 -0.0861 -0.0539 -0.3410
  190SLPC  H18X22042   1.752   2.169   8.300 -1.8795  0.8842  1.0411
  190SLPC  H18Y22043   1.895   2.233   8.385 -0.7936  0.7183  0.5301
  190SLPC  H18Z22044   1.748   2.173   8.475  0.0868  4.6299 -0.9512
  191SLPC     N22045   3.355   3.366   5.881 -0.1108  0.8243 -0.2717
  191SLPC   C1322046   3.256   3.344   5.766 -0.0498 -0.4369  0.0592
  191SLPC  H13A22047   3.150   3.345   5.788  0.0794 -2.0691  0.9015
  191SLPC  H13B22048   3.274   3.418   5.690 -0.0613 -1.3714 -0.8614
  191SLPC  H13C22049   3.279   3.247   5.726 -1.5516 -0.8786  0.1970
  191SLPC   C1422050   3.484   3.319   5.815  0.4803  0.5225 -1.2215
  191SLPC  H14A22051   3.476   3.216   5.784  0.2964 -0.2024  1.0716
  191SLPC  H14B22052   3.502   3.377   5.725  1.0616  1.8627 -0.2825
  191SLPC  H14C22053   3.575   3.313   5.874 -0.5155 -0.0108  0.3181
  191SLPC   C1522054   3.320   3.262   5.983  0.6717  0.0317 -1.1051
  191SLPC  H15A22055   3.234   3.296   6.039  0.0869 -3.7072  0.5917
  191SLPC  H15B22056   3.307   3.159   5.952  1.2523 -0.7444  1.0246
  191SLPC  H15C22057   3.392   3.247   6.063  2.1894  2.2290 -1.9821
  191SLPC   C1222058   3.371   3.499   5.941  0.5714  0.2437  0.0107
  191SLPC  H12A22059   3.396   3.566   5.860 -3.4385  3.0662  0.8314
  191SLPC  H12B22060   3.455   3.492   6.008  1.0840 -0.4142 -0.6745
  191SLPC   C1122061   3.250   3.551   6.020 -0.4015  0.0041 -0.4447
  191SLPC  H11A22062   3.286   3.647   6.063  0.7706  0.2232 -1.8457
  191SLPC  H11B22063   3.232   3.487   6.109  1.4691 -0.2260 -0.1857
  191SLPC     P22064   3.007   3.635   6.003 -0.2498 -0.2652 -0.3778
  191SLPC   O1322065   2.990   3.775   5.968 -0.4741  0.0006 -0.0584
  191SLPC   O1422066   2.898   3.545   5.973  0.4757 -0.3759  0.1061
  191SLPC   O1222067   3.141   3.581   5.936  0.2683 -0.1353  0.0274
  191SLPC   O1122068   3.025   3.636   6.163  0.2971 -0.3350  0.3249
  191SLPC    C122069   2.957   3.549   6.251  0.2471  0.3634  0.0177
  191SLPC    HA22070   2.936   3.448   6.208  0.1486  0.3586  0.0761
  191SLPC    HB22071   3.025   3.546   6.339 -0.2961 -1.4272  0.4176
  191SLPC    C222072   2.818   3.609   6.296  0.8558  1.2529  0.5847
  191SLPC    HS22073   2.760   3.631   6.204 -0.3637  0.0836  1.0355
  191SLPC   O2122074   2.832   3.728   6.373 -0.5284  0.0910 -0.2216
  191SLPC   C2122075   2.779   3.845   6.312  0.0397 -0.0552 -0.9488
  191SLPC   O2222076   2.738   3.857   6.200 -0.1190 -0.2448  0.6032
  191SLPC   C2222077   2.779   3.950   6.420 -0.3466  0.0623  0.2271
  191SLPC   H2R22078   2.784   3.913   6.525  1.2247 -0.8515 -0.1504
  191SLPC   H2S22079   2.867   4.014   6.398 -0.3708 -0.5922 -1.9092
  191SLPC    C322080   2.720   3.507   6.379  0.0972  0.6978 -0.2082
  191SLPC    HX22081   2.674   3.433   6.310  0.9908 -0.4038  0.3495
  191SLPC    HY22082   2.642   3.566   6.431  0.4162 -0.2063  1.3646
  191SLPC   O3122083   2.802   3.436   6.478 -0.3887  0.8649 -0.0349
  191SLPC   C3122084   2.773   3.461   6.605 -0.3237  0.5101 -0.4576
  191SLPC   O3222085   2.693   3.538   6.647  0.1884 -0.9371  0.0173
  191SLPC   C3222086   2.856   3.361   6.693 -0.0052 -0.1353  0.9368
  191SLPC   H2X22087   2.961   3.380   6.664  0.1656 -1.2916  0.7498
  191SLPC   H2Y22088   2.820   3.261   6.661 -2.6195  1.3220 -1.1359
  191SLPC   C2322089   2.646   4.021   6.427 -0.3142  0.1859 -1.1538
  191SLPC   H3R22090   2.562   3.955   6.397  0.1483 -0.1716 -1.6751
  191SLPC   H3S22091   2.643   4.108   6.358 -0.5586  2.0182  1.0319
  191SLPC   C2422092   2.623   4.081   6.567  0.1035 -0.1174  0.2718
  191SLPC   H4R22093   2.688   4.167   6.590 -0.5379  0.5228 -0.2592
  191SLPC   H4S22094   2.614   3.996   6.638 -1.5463 -2.9083 -2.9917
  191SLPC   C2522095   2.477   4.128   6.571  0.1145 -0.2219 -0.2659
  191SLPC   H5R22096   2.419   4.060   6.505 -1.5308  0.6641  0.1821
  191SLPC   H5S22097   2.468   4.232   6.532  1.8680 -0.0796 -0.3579
  191SLPC   C2622098   2.418   4.125   6.708  0.2965  0.3066 -0.2300
  191SLPC   H6R22099   2.476   4.062   6.779 -0.2852  0.6708  0.5961
  191SLPC   H6S22100   2.314   4.087   6.696 -0.2772  1.5019  0.6273
  191SLPC   C2722101   2.403   4.257   6.786  0.1893  0.0015  0.0359
  191SLPC   H7R22102   2.349   4.314   6.707 -1.7645 -1.3421  0.3418
  191SLPC   H7S22103   2.507   4.291   6.805 -0.1241 -0.1139  2.2940
  191SLPC   C2822104   2.318   4.245   6.913  0.0266  0.5451  0.0632
  191SLPC   H8R22105   2.237   4.170   6.898  2.8194 -2.5404 -0.6663
  191SLPC   H8S22106   2.272   4.341   6.945  2.9067  1.1844  2.7382
  191SLPC   C2922107   2.400   4.197   7.028 -0.2597 -0.6683 -0.0621
  191SLPC   H9R22108   2.474   4.128   6.985  0.4966  1.1923 -1.9384
  191SLPC  C21022109   2.394   4.224   7.164  0.2746  0.1716  0.4506
  191SLPC  H10R22110   2.473   4.179   7.225  0.5201  0.0153  0.0207
  191SLPC  C21122111   2.281   4.297   7.239  0.3362  0.9670 -0.3106
  191SLPC  H11R22112   2.202   4.328   7.167 -0.4344  1.0347  0.5423
  191SLPC  H11S22113   2.326   4.393   7.274  0.5847  0.4169  0.9318
  191SLPC  C21222114   2.228   4.216   7.356  0.1405 -0.1228  0.1504
  191SLPC  H12R22115   2.218   4.109   7.331  1.8096 -0.1088 -0.6769
  191SLPC  C21322116   2.190   4.259   7.481 -0.2365  0.4927  1.1754
  191SLPC  H13R22117   2.147   4.187   7.553 -3.0922  0.0502 -0.7855
  191SLPC  C21422118   2.177   4.399   7.520  0.3198 -0.1981  0.0546
  191SLPC  H14R22119   2.244   4.459   7.455  2.0744  1.3481  3.0980
  191SLPC  H14S22120   2.227   4.414   7.617 -2.2353  0.4354  1.3573
  191SLPC  C21522121   2.031   4.458   7.498  0.6564  0.7795  0.0422
  191SLPC  H15R22122   1.993   4.444   7.394 -1.5853  1.5177  0.6991
  191SLPC  H15S22123   2.032   4.568   7.512 -1.5136  0.6418  2.0263
  191SLPC  C21622124   1.933   4.403   7.596 -1.0791  0.3646 -0.6592
  191SLPC  H16R22125   1.962   4.437   7.698 -1.0009  2.5574 -1.3475
  191SLPC  H16S22126   1.931   4.292   7.598  1.4112  0.2705 -0.8520
  191SLPC  C21722127   1.789   4.452   7.572 -0.2773 -0.9995 -0.0913
  191SLPC  H17R22128   1.755   4.421   7.470 -1.0743 -0.7613  0.0977
  191SLPC  H17S22129   1.794   4.563   7.574 -3.4464 -0.7614  2.4063
  191SLPC  C21822130   1.683   4.416   7.675  0.0887  0.2420 -0.4172
  191SLPC  H18R22131   1.581   4.450   7.645 -0.3520 -0.7853 -0.1341
  191SLPC  H18S22132   1.691   4.468   7.772 -1.6580 -0.9051  0.3968
  191SLPC  H18T22133   1.686   4.307   7.696 -0.8660 -0.1094 -1.8929
  191SLPC   C3322134   2.848   3.382   6.846 -0.2628 -0.0148 -0.2765
  191SLPC   H3X22135   2.776   3.308   6.887  1.6041 -2.0571 -0.4515
  191SLPC   H3Y22136   2.805   3.483   6.861 -0.0639  0.0583 -0.1932
  191SLPC   C3422137   2.986   3.357   6.906 -0.1097  0.0573  0.2614
  191SLPC   H4X22138   3.058   3.417   6.846 -0.1289  0.0427  0.2238
  191SLPC   H4Y22139   3.015   3.251   6.890  1.9965  0.5439  0.4974
  191SLPC   C3522140   2.994   3.414   7.048  0.6884 -0.2388 -0.1095
  191SLPC   H5X22141   2.905   3.480   7.059  2.2858  2.1127 -0.4684
  191SLPC   H5Y22142   3.086   3.474   7.062  0.8939 -0.3145 -1.0974
  191SLPC   C3622143   2.985   3.315   7.169  0.2818 -0.1424  0.1873
  191SLPC   H6X22144   3.084   3.265   7.167  0.8718  0.9985  0.3455
  191SLPC   H6Y22145   2.913   3.233   7.147  1.0678 -1.2352  1.5211
  191SLPC   C3722146   2.955   3.381   7.300  0.2377 -0.3418 -0.5509
  191SLPC   H7X22147   2.851   3.419   7.306  0.5944  0.3959  1.7860
  191SLPC   H7Y22148   3.021   3.468   7.317  0.1655 -0.8160  2.7157
  191SLPC   C3822149   2.975   3.289   7.427 -0.3210  0.1985  0.0876
  191SLPC   H8X22150   3.078   3.248   7.432 -0.5719 -0.4903 -0.3909
  191SLPC   H8Y22151   2.905   3.203   7.421 -0.5821  0.4998 -2.0848
  191SLPC   C3922152   2.939   3.359   7.558 -0.4662  0.0844  0.0689
  191SLPC   H9X22153   2.933   3.274   7.629 -3.6292  0.7100  0.7030
  191SLPC   H9Y22154   2.840   3.411   7.554  0.0053  0.9932 -0.1726
  191SLPC  C31022155   3.037   3.458   7.611 -0.1892  0.5561  0.8390
  191SLPC  H10X22156   3.036   3.554   7.555  0.7587 -0.1488 -0.4287
  191SLPC  H10Y22157   3.139   3.414   7.601 -0.4140  0.2480 -0.2545
  191SLPC  C31122158   3.016   3.501   7.758  0.4135 -0.0176  0.3295
  191SLPC  H11X22159   2.919   3.553   7.773  0.9493  1.1832 -0.2291
  191SLPC  H11Y22160   3.088   3.584   7.777 -1.0652  1.6352 -0.9888
  191SLPC  C31222161   3.035   3.377   7.854  0.4277 -0.3314 -0.1930
  191SLPC  H12X22162   3.117   3.309   7.821 -0.1134 -0.2529 -1.7774
  191SLPC  H12Y22163   2.938   3.322   7.853 -0.5406  1.2378  1.7055
  191SLPC  C31322164   3.052   3.424   8.001  0.0766  0.4004 -0.0412
  191SLPC  H13X22165   3.150   3.477   8.006  0.1733  0.4616 -1.8722
  191SLPC  H13Y22166   3.054   3.333   8.065 -1.6760  1.4112  1.5491
  191SLPC  C31422167   2.936   3.517   8.049 -0.4676  0.4678 -0.3064
  191SLPC  H14X22168   2.842   3.466   8.019 -0.0934 -0.7460  0.4938
  191SLPC  H14Y22169   2.926   3.613   7.995 -2.4930 -1.4372 -3.6693
  191SLPC  C31522170   2.926   3.527   8.208  0.5230 -0.0465  0.4498
  191SLPC  H15X22171   3.016   3.577   8.250 -0.8998  2.3868  0.7456
  191SLPC  H15Y22172   2.946   3.422   8.237 -2.4781 -0.5895  0.7809
  191SLPC  C31622173   2.791   3.569   8.269 -0.1843 -0.4080  0.0676
  191SLPC  H16X22174   2.720   3.493   8.230  0.0503 -0.2621 -0.6408
  191SLPC  H16Y22175   2.771   3.666   8.219  0.5867  0.1402  0.7877
  191SLPC  C31722176   2.790   3.582   8.423 -0.6253 -0.4014  0.2783
  191SLPC  H17X22177   2.868   3.658   8.449 -2.1284  1.1563  0.4094
  191SLPC  H17Y22178   2.824   3.489   8.473 -0.9088  0.0860  1.4211
  191SLPC  C31822179   2.661   3.634   8.484 -0.0814 -0.5880 -1.1602
  191SLPC  H18X22180   2.660   3.742   8.509  0.9015 -1.0299  1.0835
  191SLPC  H18Y22181   2.639   3.581   8.579 -0.6568 -0.1206 -1.0297
  191SLPC  H18Z22182   2.581   3.610   8.411 -0.8273  1.9122 -1.2635
  192SLPC     N22183   3.879   5.587   6.411  0.1380  0.2534 -0.7646
  192SLPC   C1322184   3.766   5.655   6.330  0.4505  0.5170 -0.5196
  192SLPC  H13A22185   3.760   5.761   6.350  0.4814  0.7935 -1.8403
  192SLPC  H13B22186   3.782   5.642   6.224  2.0820 -0.2916 -0.2153
  192SLPC  H13C22187   3.681   5.593   6.351  2.1984 -1.6605  0.6134
  192SLPC   C1422188   4.010   5.646   6.357 -0.5920  0.5912 -0.2920
  192SLPC  H14A22189   4.013   5.629   6.251  2.7000 -2.4684  0.1215
  192SLPC  H14B22190   4.011   5.751   6.383  1.1207  0.0349  2.2965
  192SLPC  H14C22191   4.095   5.599   6.404 -2.1829 -1.5102  0.6828
  192SLPC   C1522192   3.861   5.439   6.397  0.0581  0.6066  0.0754
  192SLPC  H15A22193   3.776   5.408   6.456 -0.4134 -1.7861 -1.7036
  192SLPC  H15B22194   3.836   5.404   6.298 -2.8003 -0.8848  1.2033
  192SLPC  H15C22195   3.948   5.384   6.431  0.5296  0.4245 -1.3621
  192SLPC   C1222196   3.867   5.616   6.568 -0.1136  0.5943  0.7074
  192SLPC  H12A22197   3.945   5.571   6.627 -1.6940 -1.5141  1.2979
  192SLPC  H12B22198   3.780   5.561   6.601 -0.7497  0.8407 -0.5260
  192SLPC   C1122199   3.855   5.762   6.618  0.1141 -0.6266  0.4443
  192SLPC  H11A22200   3.870   5.765   6.728 -0.0768 -1.8188  0.5148
  192SLPC  H11B22201   3.755   5.795   6.580  0.5424 -2.8864 -3.1891
  192SLPC     P22202   3.933   5.976   6.495 -0.0732  0.0501 -0.0738
  192SLPC   O1322203   3.961   5.963   6.350 -0.9949 -0.2841  0.0607
  192SLPC   O1422204   3.799   6.024   6.540 -0.2325 -0.8588  0.3983
  192SLPC   O1222205   3.958   5.842   6.561 -0.7233  0.2120  0.1419
  192SLPC   O1122206   4.043   6.065   6.570 -0.2414 -0.2896 -0.4689
  192SLPC    C122207   4.168   6.006   6.614 -0.1613 -0.3228 -0.7464
  192SLPC    HA22208   4.201   5.923   6.548  3.1435  0.8755 -0.7541
  192SLPC    HB22209   4.247   6.083   6.623  0.4643 -1.0443  0.1400
  192SLPC    C222210   4.171   5.941   6.755  0.1816 -0.0568 -0.7566
  192SLPC    HS22211   4.150   5.832   6.751  2.1151 -0.7816  3.4629
  192SLPC   O2122212   4.069   6.008   6.833  0.3733 -0.1523  0.2895
  192SLPC   C2122213   4.004   5.922   6.921  0.2220 -0.5062  0.1984
  192SLPC   O2222214   4.032   5.808   6.942  0.6206 -0.0710 -0.1410
  192SLPC   C2222215   3.880   5.987   6.982  0.4858 -0.2859 -0.1512
  192SLPC   H2R22216   3.905   6.041   7.076  0.9870  0.1653 -0.5305
  192SLPC   H2S22217   3.842   6.069   6.917  0.6815  0.0348  0.1361
  192SLPC    C322218   4.306   5.961   6.833  0.0404  0.7304 -0.7479
  192SLPC    HX22219   4.338   6.067   6.827  0.0171  0.8375  0.5979
  192SLPC    HY22220   4.376   5.906   6.766 -0.2508  0.6133 -0.9548
  192SLPC   O3122221   4.302   5.923   6.977  0.3821 -0.7518  0.4441
  192SLPC   C3122222   4.329   5.801   7.007 -1.0003 -0.2441  0.3181
  192SLPC   O3222223   4.384   5.719   6.935  0.3161  0.6166 -0.2457
  192SLPC   C3222224   4.294   5.780   7.152  0.6201  0.2221 -0.3583
  192SLPC   H2X22225   4.302   5.671   7.174  0.4370  0.0544 -1.1187
  192SLPC   H2Y22226   4.188   5.811   7.169  0.9616  2.0755 -1.4084
  192SLPC   C2322227   3.763   5.894   7.010  0.7060 -0.3732 -0.0227
  192SLPC   H3R22228   3.802   5.801   7.057  0.7871  0.7722  2.3181
  192SLPC   H3S22229   3.716   5.866   6.913 -1.0209  2.5997 -0.1441
  192SLPC   C2422230   3.665   5.948   7.105  0.5691 -0.3996  0.1551
  192SLPC   H4R22231   3.586   5.873   7.129  0.5628 -0.3591  0.2634
  192SLPC   H4S22232   3.613   6.029   7.049  0.4558 -0.8218 -0.3551
  192SLPC   C2522233   3.716   5.999   7.242  0.8972 -0.0260 -0.2783
  192SLPC   H5R22234   3.628   6.027   7.303  1.0345 -0.0173 -0.0809
  192SLPC   H5S22235   3.768   6.095   7.227  0.9225  0.0807  0.4505
  192SLPC   C2622236   3.814   5.901   7.312 -0.0468  0.2274 -0.1076
  192SLPC   H6R22237   3.901   5.876   7.248 -1.4765  1.1764 -2.5750
  192SLPC   H6S22238   3.762   5.805   7.335 -2.3129  1.0219 -1.4960
  192SLPC   C2722239   3.869   5.957   7.449 -0.4629  0.0078 -0.1817
  192SLPC   H7R22240   3.774   5.978   7.503 -0.3169 -0.0641  0.1074
  192SLPC   H7S22241   3.919   6.055   7.433  1.4232 -0.5350  1.8824
  192SLPC   C2822242   3.963   5.862   7.523  0.0239 -0.3994 -0.0725
  192SLPC   H8R22243   4.009   5.920   7.606  1.1073 -1.5517  0.1535
  192SLPC   H8S22244   4.036   5.822   7.450 -0.1595 -1.1178  0.1334
  192SLPC   C2922245   3.901   5.742   7.594 -0.1030 -0.1169 -0.3164
  192SLPC   H9R22246   3.909   5.647   7.539  0.0101 -1.8120  2.4329
  192SLPC  C21022247   3.858   5.728   7.722 -0.6168 -0.5333  0.2212
  192SLPC  H10R22248   3.813   5.630   7.743  1.0256 -1.8917 -2.0387
  192SLPC  C21122249   3.860   5.834   7.836 -0.6172  0.6846 -0.1312
  192SLPC  H11R22250   3.757   5.874   7.850 -0.9354 -0.4140  0.8127
  192SLPC  H11S22251   3.932   5.915   7.812 -1.7070  1.7573  0.1141
  192SLPC  C21222252   3.913   5.757   7.958 -0.2556 -0.0529 -0.5866
  192SLPC  H12R22253   3.965   5.665   7.927  2.0752  1.2091 -0.6905
  192SLPC  C21322254   3.882   5.784   8.090 -0.7931  0.8561 -0.0048
  192SLPC  H13R22255   3.935   5.733   8.172  1.2106  1.7373 -0.6860
  192SLPC  C21422256   3.787   5.892   8.136 -0.6214  0.1268  0.4767
  192SLPC  H14R22257   3.757   5.960   8.053 -1.3516 -0.0349  0.5986
  192SLPC  H14S22258   3.828   5.969   8.205  2.1351  0.4914 -1.3730
  192SLPC  C21522259   3.649   5.843   8.189  0.0931  0.1254 -0.5744
  192SLPC  H15R22260   3.631   5.753   8.126  0.1941  1.0653 -1.9953
  192SLPC  H15S22261   3.562   5.911   8.175 -1.2031 -1.1653  0.8339
  192SLPC  C21622262   3.659   5.790   8.333  0.4043 -0.0818 -0.5176
  192SLPC  H16R22263   3.592   5.835   8.410  1.0407 -0.1139  0.0670
  192SLPC  H16S22264   3.758   5.827   8.369 -0.1310  1.4244 -0.5194
  192SLPC  C21722265   3.650   5.643   8.357 -0.0984  0.6860  0.5674
  192SLPC  H17R22266   3.552   5.607   8.317 -0.0018  0.3456  0.6390
  192SLPC  H17S22267   3.727   5.594   8.294 -2.7762 -0.6254 -1.9314
  192SLPC  C21822268   3.649   5.586   8.497  0.2655 -0.3462  0.8070
  192SLPC  H18R22269   3.753   5.559   8.528  0.7195  2.2933  1.8699
  192SLPC  H18S22270   3.593   5.491   8.492  2.3864 -1.6017 -1.2796
  192SLPC  H18T22271   3.621   5.654   8.581 -2.4285 -0.6848  0.2597
  192SLPC   C3322272   4.377   5.869   7.251  0.6546  0.7224  0.0639
  192SLPC   H3X22273   4.316   5.958   7.279  0.7612  0.3366  1.6257
  192SLPC   H3Y22274   4.471   5.908   7.207  0.1710  0.4679 -1.2399
  192SLPC   C3422275   4.410   5.787   7.375 -0.2679 -0.1107  0.3466
  192SLPC   H4X22276   4.470   5.710   7.322 -0.0093  1.1791 -1.3544
  192SLPC   H4Y22277   4.326   5.729   7.418  0.0069 -1.4923 -0.8963
  192SLPC   C3522278   4.488   5.861   7.475 -0.1479 -0.2361 -0.3740
  192SLPC   H5X22279   4.417   5.933   7.522 -0.9180 -0.6896 -0.8155
  192SLPC   H5Y22280   4.577   5.919   7.444  1.1545 -1.4627  0.8888
  192SLPC   C3622281   4.544   5.769   7.582  0.1168  0.5747 -0.5069
  192SLPC   H6X22282   4.631   5.707   7.553 -0.5825 -2.8668  3.6211
  192SLPC   H6Y22283   4.465   5.693   7.600 -0.0019  0.4677 -1.4586
  192SLPC   C3722284   4.602   5.837   7.710 -0.7355  0.3756  0.1054
  192SLPC   H7X22285   4.513   5.882   7.759  1.2746  2.5315  2.0464
  192SLPC   H7Y22286   4.676   5.912   7.673  2.9440 -2.4883  1.0623
  192SLPC   C3822287   4.677   5.745   7.795 -0.3002  0.0807  0.2515
  192SLPC   H8X22288   4.746   5.688   7.729  0.0326 -0.6668  1.2190
  192SLPC   H8Y22289   4.609   5.672   7.846  0.1302  0.6955  1.7568
  192SLPC   C3922290   4.754   5.802   7.916 -0.2148  0.3474 -0.4316
  192SLPC   H9X22291   4.833   5.872   7.883 -0.3505  0.6900 -0.0334
  192SLPC   H9Y22292   4.797   5.719   7.977 -0.1384  0.3214 -0.5212
  192SLPC  C31022293   4.658   5.894   7.996 -0.1991  0.4908 -1.0364
  192SLPC  H10X22294   4.559   5.843   7.994 -0.0393 -0.0226  1.2904
  192SLPC  H10Y22295   4.650   5.991   7.943 -0.3872 -0.5506 -3.0650
  192SLPC  C31122296   4.706   5.916   8.139 -0.4588 -0.9045  0.2780
  192SLPC  H11X22297   4.804   5.968   8.140 -1.8468  1.8576  0.6018
  192SLPC  H11Y22298   4.723   5.818   8.190  1.3710 -1.8381 -1.9246
  192SLPC  C31222299   4.600   5.992   8.227 -0.0035  0.4023  0.3789
  192SLPC  H12X22300   4.512   5.927   8.244  1.3195 -1.2164  1.3589
  192SLPC  H12Y22301   4.575   6.086   8.173 -0.3321  1.9238  3.0104
  192SLPC  C31322302   4.652   6.025   8.366  0.2687 -0.3535 -0.0155
  192SLPC  H13X22303   4.743   6.085   8.340  0.6426 -1.1192 -0.5159
  192SLPC  H13Y22304   4.692   5.940   8.425 -0.6156 -0.0848  1.0037
  192SLPC  C31422305   4.572   6.114   8.459  0.1563  0.3184  0.1870
  192SLPC  H14X22306   4.507   6.042   8.513  1.3524 -1.3767 -0.5320
  192SLPC  H14Y22307   4.515   6.189   8.400  1.8615 -0.4074 -2.5640
  192SLPC  C31522308   4.646   6.183   8.572  0.6011  0.8229  0.0314
  192SLPC  H15X22309   4.713   6.106   8.617 -0.9350 -0.0780  0.8579
  192SLPC  H15Y22310   4.574   6.232   8.641 -0.7644  0.0732 -0.8344
  192SLPC  C31622311   4.733   6.303   8.529 -0.1733 -0.0563 -0.0784
  192SLPC  H16X22312   4.818   6.263   8.471  0.1376 -1.8142  1.4819
  192SLPC  H16Y22313   4.767   6.359   8.619 -0.1858 -0.2565  0.0532
  192SLPC  C31722314   4.668   6.408   8.437 -0.5424 -0.7313  0.5635
  192SLPC  H17X22315   4.557   6.406   8.447 -0.6114 -1.8438 -0.2898
  192SLPC  H17Y22316   4.689   6.379   8.332 -1.1878 -1.2847  0.5841
  192SLPC  C31822317   4.715   6.548   8.470  0.1349 -0.0439 -0.2029
  192SLPC  H18X22318   4.684   6.579   8.572  1.7270  0.5639  0.1105
  192SLPC  H18Y22319   4.661   6.619   8.403 -0.1633 -0.3629 -0.3074
  192SLPC  H18Z22320   4.824   6.560   8.455  0.1540  1.0675  0.7618
  193SOD    SOD22321   0.420   5.509   4.315  0.3309  0.2608 -0.1710
  194SOD    SOD22322   4.390   5.157   3.290 -0.8003 -0.2680  0.4214
  195SOD    SOD22323   4.469   5.030   4.680  0.2150  0.0905 -0.2117
  196SOD    SOD22324   0.586   4.354  16.797  0.6087  0.3904 -0.5567
  197SOD    SOD22325   2.959   5.337  13.711  0.7434  0.4424 -0.4581
  198SOD    SOD22326   3.938   0.252   2.589 -0.2099  0.7239  0.7419
  199SOD    SOD22327   1.944   1.156  11.197  0.3603 -0.6858 -0.2537
  200SOD    SOD22328   3.774   0.283  16.456 -0.2533 -0.0539  0.1290
  201SOD    SOD22329   3.112   3.004  16.820 -0.2624 -0.4182  0.2228
  202SOD    SOD22330   2.451   0.134  12.513  0.3951 -0.0603  0.1093
  203SOD    SOD22331   3.252   4.552   5.465  0.2613 -0.4801  0.2814
  204SOD    SOD22332   2.797   6.481   4.420 -0.0595 -0.0782 -0.1958
  205SOD    SOD22333   5.963   2.724  15.575 -0.4176  0.1879 -0.3639
  206SOD    SOD22334   3.601   1.147  11.101 -0.5248 -0.2360 -0.0544
  207SOD    SOD22335   4.562   4.297   5.299  0.5264  0.3159 -0.3004
  208SOD    SOD22336   0.618   2.990   6.247 -0.1190 -0.2691 -0.3544
  209SOD    SOD22337   5.282   2.464   6.264 -0.6019 -0.3227  0.3623
  210SOD    SOD22338   5.420   2.078   0.662 -0.0675  0.6328  0.0244
  211SOD    SOD22339   6.686   3.246  13.197 -0.2817 -0.2866  0.3460
  212SOD    SOD22340   4.237   4.416   1.472  0.6407  0.0757 -0.3254
  213SOD    SOD22341   5.871   1.035  14.046 -0.3435  0.1043 -0.3875
  214SOD    SOD22342   2.446   4.001   2.399  0.1116  0.4750 -0.0603
  215SOD    SOD22343   5.585   5.631  12.156 -0.2364 -0.4018  0.1896
  216SOD    SOD22344   0.528   0.186  12.049  0.0201 -0.0633  0.0399
  217SOD    SOD22345   0.129   3.468  16.277 -0.1283 -0.2880 -0.1347
  218SOD    SOD22346   5.871   2.506   1.817  0.6003 -0.0597  0.0014
  219SOD    SOD22347   2.819   4.367  16.562  0.1431 -0.2231  0.1606
  220SOD    SOD22348   6.027   4.766   5.283  0.1997  0.5792  0.0622
  221SOD    SOD22349   3.493   6.210  10.778 -0.5638 -0.0841 -0.0517
  222SOD    SOD22350   0.392   0.927   1.530  0.2943 -0.1043 -0.3953
  223SOD    SOD22351   1.122   3.530  11.348  0.1410 -0.3656  0.3840
  224SOD    SOD22352   1.901   4.388  10.853  0.2713  0.4512  0.0200
  225SOD    SOD22353   4.803   4.149  10.683  0.1164  0.2184 -0.4916
  226SOD    SOD22354   2.521   0.899   4.059  0.4933 -0.3355  0.2233
  227SOD    SOD22355   1.958   4.796  17.081 -0.6926 -0.6685  0.4890
  228SOD    SOD22356   4.884   1.040  12.057 -0.1909 -0.1471 -0.0675
  229SOD    SOD22357   0.289   1.010   0.428 -0.0129  0.3224  0.3462
  230SOD    SOD22358   4.530   1.978  12.757 -0.5385 -0.1815  0.5712
  231SOD    SOD22359   4.995   6.330  14.606  0.4077  0.2070  0.2359
  232SOD    SOD22360   5.655   0.809   4.648 -0.1302  0.3640 -0.7337
  233SOD    SOD22361   0.315   1.738   5.902 -0.6332  0.1995 -0.0895
  234SOD    SOD22362   4.604   0.327   6.746 -0.6414  0.3264  0.5827
  235SOD    SOD22363   3.339   3.963  17.235 -0.1622  0.2431 -0.1926
  236SOD    SOD22364   0.899   6.739   6.416 -0.0276  0.1977 -0.2803
  237SOD    SOD22365   4.925   6.267   3.383  0.1169  0.5531 -0.0059
  238SOD    SOD22366   1.997   4.739   5.481 -0.0342 -0.0862 -0.2922
  239SOD    SOD22367   0.754   4.500   5.770  0.4360  0.3403 -0.4263
  240SOD    SOD22368   2.467   2.006   3.192  0.3958  0.3454 -0.3799
  241SOD    SOD22369   2.492   6.008   3.836 -0.2234 -0.2834  0.4066
  242SOD    SOD22370   2.412   1.681  10.309 -0.4258  0.3416 -0.5276
  243SOD    SOD22371   2.977   0.824   1.417  0.0632  0.8333  0.4253
  244SOD    SOD22372   1.294   1.879  12.971 -0.4095 -0.5861  0.0282
  245SOD    SOD22373   4.727   1.944  15.880 -0.2675 -0.0201 -0.1414
  246SOD    SOD22374   4.876   3.326   5.707  0.3828 -0.0178  0.5686
  247SOD    SOD22375   2.988   5.471   6.013  0.5154  0.3088  0.1667
  248SOD    SOD22376   4.861   6.103  16.987  0.1397 -0.1012  0.4282
  249SOD    SOD22377   5.627   2.574   5.431  0.4090 -0.2207  0.1969
  250SOD    SOD22378   4.945   0.575  11.633 -0.0439 -0.0419 -0.1941
  251SOD    SOD22379   3.377   5.178  15.515  0.1180 -0.0044 -0.0449
  252SOD    SOD22380   2.488   3.117   5.971 -0.3532 -0.6525  0.0966
  253SOD    SOD22381   6.578   5.382  15.195 -0.2842 -0.3269  0.1906
  254SOD    SOD22382   6.295   4.094  15.382  0.5788  0.2295 -0.2761
  255SOD    SOD22383   5.085   1.095   1.105  0.2809  0.4195  0.5865
  256SOD    SOD22384   4.016   4.314  13.208  0.1242  0.0472  0.3303
  257SOD    SOD22385   2.662   1.171  14.062 -0.1075 -0.0956 -0.6820
  258SOD    SOD22386   4.001   3.577  14.792  0.1524  0.7248 -0.2722
  259SOD    SOD22387   5.425   4.325  13.960  0.3233  0.3755  0.4308
  260SOD    SOD22388   2.460   0.099   2.239  0.4599  0.1943 -0.5685
  261SOD    SOD22389   4.390   5.607   0.557 -0.1899 -0.0543  0.2464
  262SOD    SOD22390   4.297   1.053   1.964 -0.1830  0.2916 -0.0689
  263SOD    SOD22391   2.557   3.732   6.019 -0.4652  0.4241  0.0166
  264SOD    SOD22392   5.009   0.825   3.647 -0.2015 -0.0565  0.2976
  265SOD    SOD22393   3.663   2.888  11.499 -0.6315 -0.7998  0.0478
  266CLA    CLA22394   5.125   4.104  14.286 -0.0459 -0.4080  0.2189
  267CLA    CLA22395   1.195   6.727  12.913 -0.0994 -0.3375  0.1248
  268CLA    CLA22396   4.882   4.729  12.614 -0.0755  0.6286  0.0251
  269CLA    CLA22397   1.093   2.366  15.262 -0.2023 -0.0715 -0.2438
  270CLA    CLA22398   4.317   0.079  14.279  0.1814 -0.1757  0.2741
  271CLA    CLA22399   4.834   1.541   1.059 -0.0179  0.0525  0.3438
  272CLA    CLA22400   0.373   5.223   3.342  0.1232 -0.2945 -0.0179
  273CLA    CLA22401   1.495   4.906  14.956  0.0645 -0.0681 -0.4816
  274CLA    CLA22402   2.721   4.169  13.869 -0.1082  0.1135 -0.1925
  275CLA    CLA22403   2.751   4.086   5.425 -0.0826 -0.4146  0.2110
  276CLA    CLA22404   4.813   6.772  17.029 -0.1583  0.2435  0.0936
  277CLA    CLA22405   4.313   0.130   4.194 -0.4712 -0.0448 -0.3179
  278CLA    CLA22406   4.517   1.697   0.133  0.1137  0.0505 -0.0383
  279CLA    CLA22407   1.237   3.528  16.756  0.1752  0.8364 -0.1224
  280CLA    CLA22408   5.833   0.944   1.930 -0.3341  0.3743 -0.2636
  281CLA    CLA22409   5.826   5.574   1.451 -0.2619 -0.5902 -0.5597
  282CLA    CLA22410   2.256   3.007  15.346  0.1106 -0.2876 -0.1014
  283CLA    CLA22411   6.066   4.125   1.606 -0.0606 -0.2352 -0.1838
  284CLA    CLA22412   4.452   5.848   1.047  0.3279 -0.3986  0.1188
  285CLA    CLA22413   3.890   1.955  11.390  0.0478  0.3934 -0.0615
  286CLA    CLA22414   2.125   0.367   1.976 -0.1866  0.2233  0.0966
  287CLA    CLA22415   1.877   4.672   2.435  0.4344 -0.0651  0.1121
  288CLA    CLA22416   5.213   3.590   5.937 -0.1782 -0.0920  0.2274
  289CLA    CLA22417   0.538   1.737   1.008 -0.2415 -0.3198  0.1443
  290CLA    CLA22418   4.370   4.961   4.925  0.1882 -0.4738 -0.2257
  291CLA    CLA22419   2.626   2.502   1.490 -0.1389  0.2316  0.2219
  292CLA    CLA22420   4.685   5.966   3.067 -0.2574 -0.3316 -0.1560
  293CLA    CLA22421   1.500   2.869  13.659 -0.6300 -0.0901 -0.0193
  294CLA    CLA22422   1.728   3.432   5.547  0.4557 -0.0998  0.2343
  295CLA    CLA22423   5.756   1.632  15.088  0.1271  0.2044  0.0964
  296CLA    CLA22424   3.227   0.838  12.839  0.1209 -0.2272 -0.5215
  297CLA    CLA22425   4.613   6.653   2.198 -0.0184 -0.2015 -0.0025
  298CLA    CLA22426   6.536   1.883   5.444  0.0844  0.2475  0.2436
  299CLA    CLA22427   3.843   2.012  15.408  0.2581  0.2643  0.0297
  300CLA    CLA22428   0.063   5.458  13.169  0.1600  0.2176 -0.1176
  301CLA    CLA22429   5.414   4.039   1.370 -0.1188 -0.3691  0.3045
  302CLA    CLA22430   5.954   0.422  12.833  0.2455  0.2073 -0.2240
  303CLA    CLA22431   5.429   0.973   3.505  0.0269 -0.0328 -0.0080
  304CLA    CLA22432   3.186   0.200   1.665  0.1166 -0.0316  0.2304
  305CLA    CLA22433   3.391   6.515  17.198  0.3906 -0.3035  0.3437
  306CLA    CLA22434   3.485   0.771   1.405 -0.2889 -0.2070 -0.0064
  307CLA    CLA22435   3.150   1.196   3.644 -0.1049  0.3590 -0.0678
  308CLA    CLA22436   0.656   4.957   5.888 -0.5295  0.0804 -0.2913
  309CLA    CLA22437   0.543   5.343  12.786  0.1622 -0.0408  0.1159
  310CLA    CLA22438   6.564   5.614  14.439 -0.4282  0.3750 -0.2601
  311CLA    CLA22439   2.064   3.604   0.546  0.7595 -0.0404 -0.2516
  312CLA    CLA22440   6.325   1.759   1.141  0.5914  0.2989 -0.0368
  313CLA    CLA22441   2.598   5.833  12.841 -0.1553  0.2592 -0.2652
  314CLA    CLA22442   1.829   6.524   2.111 -0.2004  0.3387  0.2047
  315CLA    CLA22443   1.375   0.729  15.918  0.0878 -0.2682  0.2470
  316CLA    CLA22444   4.305   0.164   5.482 -0.2741  0.0842 -0.6282
  317CLA    CLA22445   6.588   1.553   4.125 -0.1630 -0.5025 -0.0512
  318CLA    CLA22446   0.841   0.613  15.393 -0.7304  0.2940 -0.0442
  319TIP3   OH222447   6.617   5.762   1.910 -0.2402  0.2569  0.2821
  319TIP3    H122448   6.620   5.838   1.852 -0.3816 -0.1921 -0.3316
  319TIP3    H222449   6.664   5.789   1.988 -0.0037  0.8619 -0.0615
  320TIP3   OH222450   5.420   6.749   4.656 -0.0289  0.1505 -0.9582
  320TIP3    H122451   5.425   6.667   4.706  1.8143 -0.7485 -2.4859
  320TIP3    H222452   5.332   6.749   4.618 -0.4531 -0.5386 -0.0068
  321TIP3   OH222453   4.878   5.136  16.947  0.2649  0.1563  0.2336
  321TIP3    H122454   4.806   5.150  16.885  0.5801  0.4228 -0.0701
  321TIP3    H222455   4.912   5.224  16.965 -0.7484  0.2563  1.8982
  322TIP3   OH222456   0.604   5.267  14.336  1.0608  0.4414 -0.1521
  322TIP3    H122457   0.512   5.245  14.328  1.0926 -0.2417  1.1222
  322TIP3    H222458   0.632   5.286  14.246 -0.7166  2.4235 -0.3641
  323TIP3   OH222459   5.286   1.387   2.902  0.8506 -0.2972 -0.5033
  323TIP3    H122460   5.377   1.376   2.928  0.8127  1.3107  0.4679
  323TIP3    H222461   5.236   1.344   2.972  0.8444 -0.6786 -0.7395
  324TIP3   OH222462   6.153   0.485   2.681  0.1447 -0.2118 -0.0685
  324TIP3    H122463   6.231   0.541   2.686 -0.1233  0.1834 -0.3122
  324TIP3    H222464   6.172   0.414   2.742  0.1166  0.5989  0.9262
  325TIP3   OH222465   4.719   3.439  15.159 -0.2163 -0.2192  0.3593
  325TIP3    H122466   4.770   3.370  15.116  0.6323  0.2527  0.5876
  325TIP3    H222467   4.706   3.505  15.090 -2.1492 -1.1383 -0.2476
  326TIP3   OH222468   0.576   3.410  15.613  0.1907  0.0152  0.3556
  326TIP3    H122469   0.609   3.492  15.577 -0.1368  0.2395  0.5546
  326TIP3    H222470   0.653   3.368  15.651  0.5265 -0.1983 -0.5369
  327TIP3   OH222471   4.971   2.992  12.533  0.5886 -0.5895 -0.0618
  327TIP3    H122472   5.064   3.002  12.512  0.3619  0.9728 -0.4059
  327TIP3    H222473   4.959   3.043  12.613 -0.2037  0.1623 -0.6507
  328TIP3   OH222474   3.672   2.484  16.660 -0.5488 -0.3547 -0.4508
  328TIP3    H122475   3.747   2.500  16.604 -2.3785  1.0215 -2.7191
  328TIP3    H222476   3.701   2.417  16.721  3.0190  1.3364 -0.0419
  329TIP3   OH222477   0.806   4.604  16.107 -0.4016  0.0154  0.0104
  329TIP3    H122478   0.748   4.642  16.174 -0.1441 -0.3534  0.4541
  329TIP3    H222479   0.878   4.565  16.158 -0.6657 -1.0770 -0.4203
  330TIP3   OH222480   1.983   1.027  15.513  0.5837 -0.6733  0.3877
  330TIP3    H122481   1.944   1.029  15.426  1.4227 -0.8899 -0.0053
  330TIP3    H222482   1.909   1.021  15.573  0.0697 -4.3842 -0.4282
  331TIP3   OH222483   2.319   1.442   0.649  0.4435 -0.0810 -0.2782
  331TIP3    H122484   2.314   1.357   0.694  0.1893  0.9814  1.8192
  331TIP3    H222485   2.412   1.454   0.631  0.6760 -0.1913  0.7518
  332TIP3   OH222486   4.937   4.801   0.269  0.0339  0.0346 -0.1097
  332TIP3    H122487   4.876   4.840   0.333  1.3480  2.1779 -0.0716
  332TIP3    H222488   4.930   4.858   0.192  0.3367 -1.0441 -0.9535
  333TIP3   OH222489   6.138   1.585  13.546  0.2341  0.5274  0.2688
  333TIP3    H122490   6.188   1.504  13.554  0.3409  0.6423  0.7731
  333TIP3    H222491   6.173   1.627  13.467  0.3815  0.2261  0.1720
  334TIP3   OH222492   4.604   4.946  15.181 -0.3077  0.3432  0.1969
  334TIP3    H122493   4.528   4.923  15.235  0.3123 -1.1923  0.4768
  334TIP3    H222494   4.568   4.966  15.095 -0.9465 -2.0415 -0.1589
  335TIP3   OH222495   2.736   2.068   4.278 -0.3845  0.3779  0.1481
  335TIP3    H122496   2.667   2.025   4.328 -0.3011  1.4976  1.2756
  335TIP3    H222497   2.707   2.062   4.187  0.6193 -3.9143 -0.1189
  336TIP3   OH222498   1.258   2.295   3.169  0.7789 -0.2825  0.1660
  336TIP3    H122499   1.275   2.353   3.094 -0.3319 -0.8455 -0.5650
  336TIP3    H222500   1.163   2.300   3.181  0.6223 -2.0784 -0.0413
  337TIP3   OH222501   6.253   1.584  10.852  0.6089 -0.5355 -0.2753
  337TIP3    H122502   6.278   1.497  10.820 -0.1620 -0.7842 -0.2141
  337TIP3    H222503   6.168   1.601  10.813  1.0218  0.4581 -0.7667
  338TIP3   OH222504   1.057   2.505  16.468 -0.3276 -0.0536  0.3082
  338TIP3    H122505   1.120   2.551  16.414  0.7560 -1.6269  0.1631
  338TIP3    H222506   1.084   2.524  16.558 -0.4201  0.2909  0.2643
  339TIP3   OH222507   4.721   2.951   4.623 -0.0300  0.1336 -0.1256
  339TIP3    H122508   4.676   3.028   4.657 -0.0964 -0.0211  0.1338
  339TIP3    H222509   4.674   2.929   4.543  0.7527  1.1175 -0.8991
  340TIP3   OH222510   5.816   5.956  13.654 -0.2959  0.0489 -0.5517
  340TIP3    H122511   5.877   6.003  13.597 -0.1938  0.3280 -0.2126
  340TIP3    H222512   5.766   5.900  13.594  0.1342 -0.0124 -0.8567
  341TIP3   OH222513   3.209   4.490   5.925  0.0403  0.0122 -0.5723
  341TIP3    H122514   3.241   4.430   5.992  0.3465  0.1651 -0.5816
  341TIP3    H222515   3.114   4.479   5.927  0.0591 -0.1062 -0.2298
  342TIP3   OH222516   1.529   6.780   2.437 -0.1147 -0.1836  0.1242
  342TIP3    H122517   1.550   6.821   2.522  2.2261 -3.1139  1.1488
  342TIP3    H222518   1.464   6.713   2.458 -1.2986  0.6110 -0.8854
  343TIP3   OH222519   2.531   4.554  14.324 -0.8432  0.2649  0.8348
  343TIP3    H122520   2.501   4.600  14.246 -1.3603 -0.2679  0.7124
  343TIP3    H222521   2.537   4.462  14.297  3.3112  0.5730  0.0922
  344TIP3   OH222522   4.334   2.695  17.140 -0.6326  0.1075  0.0276
  344TIP3    H122523   4.390   2.620  17.157  1.3659  0.9960 -2.1054
  344TIP3    H222524   4.331   2.743  17.222  0.0016 -1.0663  0.7610
  345TIP3   OH222525   4.640   5.914  17.136  0.3541  0.0227 -0.4411
  345TIP3    H122526   4.551   5.949  17.138  0.1516 -0.5075  0.8871
  345TIP3    H222527   4.645   5.857  17.212  2.4444  1.5743  0.6954
  346TIP3   OH222528   2.261   3.716  17.140  0.2037  0.1984  0.8336
  346TIP3    H122529   2.303   3.630  17.133 -0.2222  0.0981 -0.9028
  346TIP3    H222530   2.189   3.713  17.078 -0.1555  1.6368  1.1471
  347TIP3   OH222531   1.848   1.081   2.241 -0.6098  0.2669 -0.2124
  347TIP3    H122532   1.909   1.031   2.295 -0.8361 -0.4839 -0.6337
  347TIP3    H222533   1.881   1.171   2.244  1.8825 -0.4507 -2.2605
  348TIP3   OH222534   4.396   5.765  12.263  0.3403 -1.1414  0.2624
  348TIP3    H122535   4.303   5.743  12.267 -0.2030  0.8054 -0.7254
  348TIP3    H222536   4.435   5.693  12.213 -0.7774 -1.5748 -0.0125
  349TIP3   OH222537   5.390   5.786   2.227 -0.4146  0.4026 -0.5079
  349TIP3    H122538   5.372   5.692   2.220 -1.2136  0.5091  0.0859
  349TIP3    H222539   5.481   5.795   2.199 -0.4299 -0.5091 -0.8650
  350TIP3   OH222540   6.634   5.649  16.426 -0.0676  0.1402 -0.0430
  350TIP3    H122541   6.612   5.590  16.498 -0.7394 -1.0325 -1.1734
  350TIP3    H222542   6.604   5.604  16.347  1.9098  0.7353 -1.2196
  351TIP3   OH222543   5.618   0.469  16.017  0.0338  0.1086 -0.4420
  351TIP3    H122544   5.697   0.418  16.032  0.1311  0.2573 -0.4421
  351TIP3    H222545   5.620   0.537  16.084 -0.1794  0.0110 -0.3369
  352TIP3   OH222546   1.519   6.134   2.032  0.1214 -0.4760 -0.1392
  352TIP3    H122547   1.462   6.158   1.959  0.3149 -0.5598 -0.3189
  352TIP3    H222548   1.530   6.039   2.024 -3.5818 -1.3786  2.6315
  353TIP3   OH222549   5.590   2.923  11.688  0.0994 -0.1159 -0.3513
  353TIP3    H122550   5.511   2.868  11.691  0.5552 -0.8458  3.5786
  353TIP3    H222551   5.570   2.990  11.623 -1.5335 -3.3175 -3.4684
  354TIP3   OH222552   0.643   1.995  12.076 -0.7030  0.4255  0.0926
  354TIP3    H122553   0.561   1.954  12.049 -1.3394  2.3622 -1.0968
  354TIP3    H222554   0.628   2.024  12.166 -0.8317 -0.3982  0.3437
  355TIP3   OH222555   2.605   4.317   1.756 -0.0667 -0.1214  0.4625
  355TIP3    H122556   2.559   4.295   1.837 -0.9655  0.0043 -0.0029
  355TIP3    H222557   2.558   4.268   1.688  1.2211 -0.9350  0.1158
  356TIP3   OH222558   3.691   0.379  11.245 -0.6472 -0.5135  0.3711
  356TIP3    H122559   3.782   0.350  11.246 -0.4922 -0.0732  1.7325
  356TIP3    H222560   3.666   0.378  11.153  0.1968 -2.2625  0.1284
  357TIP3   OH222561   4.027   5.837   5.797  0.3597 -0.3042 -0.0644
  357TIP3    H122562   3.961   5.865   5.861  1.0740 -0.4234  0.7296
  357TIP3    H222563   4.085   5.779   5.845  0.7083 -0.6846 -0.9149
  358TIP3   OH222564   6.050   5.732  13.609  0.3782  0.2426 -0.0357
  358TIP3    H122565   6.097   5.811  13.584  1.0057  0.1683  0.8691
  358TIP3    H222566   6.020   5.748  13.698 -0.0608 -0.2843 -0.0795
  359TIP3   OH222567   5.670   0.672  12.062  0.2292 -0.4207 -0.0974
  359TIP3    H122568   5.753   0.625  12.071 -0.4743 -2.1760 -1.9945
  359TIP3    H222569   5.615   0.636  12.131  1.0106  0.8345  1.2472
  360TIP3   OH222570   6.127   3.803  13.369 -0.1501 -0.2680 -0.6481
  360TIP3    H122571   6.146   3.825  13.278  0.7994 -2.1085 -0.9456
  360TIP3    H222572   6.049   3.854  13.391 -0.3696  0.2296 -2.4714
  361TIP3   OH222573   5.954   0.722  12.889  0.4765 -0.3333 -0.0258
  361TIP3    H122574   5.950   0.628  12.871  0.0595 -0.3022 -0.0957
  361TIP3    H222575   5.930   0.764  12.806  0.3038 -0.1688  0.1069
  362TIP3   OH222576   4.490   1.588  13.620  0.3824  0.4128 -0.7118
  362TIP3    H122577   4.422   1.625  13.564 -0.0762 -1.0864 -1.1988
  362TIP3    H222578   4.538   1.528  13.564  0.3451 -0.6086  0.3135
  363TIP3   OH222579   5.879   5.884  12.264 -0.0151  1.4028 -0.1875
  363TIP3    H122580   5.879   5.980  12.263 -1.7783  1.4388 -1.3880
  363TIP3    H222581   5.865   5.861  12.355 -0.6309  2.3106 -0.0440
  364TIP3   OH222582   1.186   6.456  14.102  0.3255 -0.2521  0.4856
  364TIP3    H122583   1.228   6.374  14.077  1.5093 -0.3441  2.5151
  364TIP3    H222584   1.227   6.522  14.045  0.7231 -0.8103  0.1127
  365TIP3   OH222585   1.852   2.251   0.574 -0.6482 -0.2165  0.1729
  365TIP3    H122586   1.898   2.195   0.637  2.5613  1.4275 -0.5472
  365TIP3    H222587   1.921   2.295   0.525 -3.0362  1.3975 -1.9983
  366TIP3   OH222588   0.934   0.286   0.657 -0.0350  0.1806  0.0819
  366TIP3    H122589   0.895   0.230   0.589  1.0678 -0.5129 -0.0114
  366TIP3    H222590   0.925   0.235   0.738 -2.2254  1.4186  0.6889
  367TIP3   OH222591   4.218   2.460  14.074 -0.4230 -0.8885  0.1842
  367TIP3    H122592   4.207   2.478  13.981  1.2060  0.3636  0.1774
  367TIP3    H222593   4.232   2.366  14.080  3.2374 -0.6056 -1.3589
  368TIP3   OH222594   2.889   4.436  13.700  0.0047  0.0322 -0.2369
  368TIP3    H122595   2.863   4.356  13.746  1.1049  0.1796  0.6717
  368TIP3    H222596   2.808   4.487  13.692 -0.2500 -0.0646  1.4293
  369TIP3   OH222597   0.115   2.018   2.232  0.1426  0.3422  0.4562
  369TIP3    H122598   0.208   2.023   2.208  0.2681 -0.9943  0.6069
  369TIP3    H222599   0.091   1.927   2.214 -1.4114  0.9143 -0.5265
  370TIP3   OH222600   4.298   6.735  15.481  0.2227  0.0944 -0.2085
  370TIP3    H122601   4.336   6.745  15.568  0.4425 -0.5647 -0.2173
  370TIP3    H222602   4.220   6.681  15.496  0.6591 -0.6313 -0.5054
  371TIP3   OH222603   0.767   2.111  16.926 -0.1424 -0.6534 -0.4432
  371TIP3    H122604   0.767   2.016  16.918 -0.3010 -0.6901 -0.0356
  371TIP3    H222605   0.789   2.128  17.018 -0.4451 -0.3090 -0.4302
  372TIP3   OH222606   4.666   1.571  11.657 -0.0453  0.2569  0.3099
  372TIP3    H122607   4.736   1.568  11.592  1.1376  1.1930  1.4756
  372TIP3    H222608   4.598   1.624  11.616  1.3609  2.2463  0.3943
  373TIP3   OH222609   5.745   1.923   4.119  0.0160 -0.3131 -0.1074
  373TIP3    H122610   5.664   1.912   4.069  0.6246 -1.0429 -0.9521
  373TIP3    H222611   5.751   1.843   4.172 -1.0239  0.7747  1.7861
  374TIP3   OH222612   0.665   2.446  15.816 -0.0131  0.2297 -0.4908
  374TIP3    H122613   0.752   2.408  15.822 -0.3499 -0.3563  1.3147
  374TIP3    H222614   0.654   2.496  15.897 -1.2925  0.3885 -0.7341
  375TIP3   OH222615   3.983   3.023  14.601  0.7789  0.6199  0.2100
  375TIP3    H122616   4.076   3.041  14.583  1.4830 -1.0358  1.8417
  375TIP3    H222617   3.974   3.040  14.694 -0.5934  0.8007  0.0557
  376TIP3   OH222618   2.074   2.086  10.805 -0.0414  0.4922  0.4698
  376TIP3    H122619   2.153   2.112  10.852  0.6550 -1.8274  0.6945
  376TIP3    H222620   2.059   1.995  10.830 -0.2787 -0.5352 -2.8681
  377TIP3   OH222621   0.936   3.040  10.523 -0.0250 -0.3192 -0.3479
  377TIP3    H122622   1.022   3.003  10.504  0.2615  0.8808 -1.5117
  377TIP3    H222623   0.907   3.080  10.441 -1.3424  0.0070  0.2319
  378TIP3   OH222624   3.185   6.339   0.102  0.3683 -0.4853 -0.4920
  378TIP3    H122625   3.245   6.407   0.072 -2.3832  2.4140  0.0201
  378TIP3    H222626   3.110   6.346   0.043 -0.5260 -2.3115  0.3514
  379TIP3   OH222627   2.940   5.630  11.360 -0.6615  0.3395 -0.3262
  379TIP3    H122628   2.929   5.725  11.354 -1.2377  0.2644 -0.5650
  379TIP3    H222629   2.884   5.604  11.434  1.2284  0.4429  1.2258
  380TIP3   OH222630   5.364   2.840  12.256  0.6411  0.0914  0.4513
  380TIP3    H122631   5.402   2.819  12.171  0.3661 -0.0480  0.3625
  380TIP3    H222632   5.279   2.796  12.256  0.6615  0.0456  0.8181
  381TIP3   OH222633   4.538   2.028  16.020 -0.2723 -0.1377 -0.1125
  381TIP3    H122634   4.480   2.096  15.987 -1.4646 -1.2760 -0.4592
  381TIP3    H222635   4.480   1.954  16.037  1.1773 -1.5979 -1.2063
  382TIP3   OH222636   1.962   0.687   6.504 -0.4725  0.2897 -0.5868
  382TIP3    H122637   1.909   0.735   6.568 -0.7042  0.9535 -1.2646
  382TIP3    H222638   1.910   0.610   6.484 -1.2616  0.9878 -1.3243
  383TIP3   OH222639   0.564   0.839  11.593  0.7859 -0.5442  0.0814
  383TIP3    H122640   0.658   0.835  11.577  0.8470  0.3248  0.1556
  383TIP3    H222641   0.537   0.922  11.554 -0.4281 -1.9103 -2.2427
  384TIP3   OH222642   1.440   6.308   1.208  0.2312  0.3349  0.4544
  384TIP3    H122643   1.480   6.377   1.261 -1.0204  0.3175  1.4739
  384TIP3    H222644   1.471   6.226   1.245  1.0482  0.3250 -0.2220
  385TIP3   OH222645   5.201   4.342   0.697  0.4461  0.0397  0.1574
  385TIP3    H122646   5.246   4.312   0.618  0.0348 -1.1969  0.3568
  385TIP3    H222647   5.256   4.311   0.769  0.2273  0.1444  0.3717
  386TIP3   OH222648   2.161   3.295   1.067 -0.4202  0.4251  0.0807
  386TIP3    H122649   2.122   3.257   0.989  0.8930 -1.2236  0.1854
  386TIP3    H222650   2.130   3.240   1.139 -1.8859  2.1233  0.8340
  387TIP3   OH222651   5.682   2.929   1.761 -0.0490 -0.1058 -0.0207
  387TIP3    H122652   5.665   2.846   1.717 -0.1259  0.8658 -1.9365
  387TIP3    H222653   5.777   2.939   1.757  0.0802 -0.6679  1.3363
  388TIP3   OH222654   2.911   3.910   0.877 -0.3849 -0.0518  0.2858
  388TIP3    H122655   2.867   3.963   0.810  1.0108  0.2462 -0.4450
  388TIP3    H222656   2.996   3.954   0.889 -0.8544  0.2818  2.7535
  389TIP3   OH222657   0.823   2.380   0.065 -0.1829  0.0665  0.0834
  389TIP3    H122658   0.784   2.420  -0.013  1.1553  0.0455 -0.6231
  389TIP3    H222659   0.748   2.354   0.119 -1.1184  0.6009 -0.9295
  390TIP3   OH222660   0.344   4.797  11.530  0.3998  0.2277  0.5981
  390TIP3    H122661   0.327   4.886  11.496  0.7445 -0.1727 -0.6762
  390TIP3    H222662   0.287   4.741  11.477  1.0306 -0.4356  0.6155
  391TIP3   OH222663   1.297   4.231  11.415  0.2753  0.3937 -0.2191
  391TIP3    H122664   1.350   4.311  11.420  0.8677  0.0724 -0.9930
  391TIP3    H222665   1.218   4.251  11.464  0.9317  1.0424  0.6112
  392TIP3   OH222666   3.962   5.907   3.413  0.5232 -0.5743  0.2496
  392TIP3    H122667   3.879   5.867   3.389  0.2184 -0.3910  0.9493
  392TIP3    H222668   3.966   5.899   3.509  1.0114 -0.0098  0.2856
  393TIP3   OH222669   4.876   2.958   6.124 -0.1514 -0.4174  0.2462
  393TIP3    H122670   4.931   3.037   6.123  1.1564 -1.2549  1.4718
  393TIP3    H222671   4.823   2.967   6.204 -2.3641  0.6812 -1.2368
  394TIP3   OH222672   1.908   2.559  11.939  0.0583  0.3462 -0.8458
  394TIP3    H122673   1.865   2.530  11.859 -0.6146  1.3107 -0.8512
  394TIP3    H222674   1.846   2.619  11.980 -0.4484 -1.5254  1.3993
  395TIP3   OH222675   5.080   2.985  15.795 -0.3684  0.4021  0.2074
  395TIP3    H122676   5.012   2.962  15.732  0.2703  1.3601 -0.8871
  395TIP3    H222677   5.071   3.080  15.805  1.4986  0.7504 -0.8644
  396TIP3   OH222678   1.933   5.512  10.978  0.1455  0.1868  0.3523
  396TIP3    H122679   1.847   5.534  10.943 -0.4003 -0.7344  1.0799
  396TIP3    H222680   1.940   5.418  10.966  2.4499  0.5605 -2.7628
  397TIP3   OH222681   0.250   5.122  15.013 -0.3435 -0.3473  0.2924
  397TIP3    H122682   0.249   5.037  14.969 -1.0707 -0.0175 -0.3517
  397TIP3    H222683   0.249   5.100  15.107  0.9934 -1.0495  0.1743
  398TIP3   OH222684   2.635   3.334  15.920  0.4449 -0.4214  0.2230
  398TIP3    H122685   2.723   3.308  15.893  0.8259 -0.7579  1.6771
  398TIP3    H222686   2.649   3.381  16.002 -0.7172 -0.2457  0.3321
  399TIP3   OH222687   4.282   3.159  12.241 -0.1606  0.1178  0.9224
  399TIP3    H122688   4.254   3.227  12.180  2.8095  0.8537  0.1826
  399TIP3    H222689   4.266   3.077  12.194  0.5623  0.5941 -0.2080
  400TIP3   OH222690   2.870   2.557  12.451  0.0307 -0.1877 -0.3490
  400TIP3    H122691   2.879   2.635  12.396 -0.0820  0.7774  0.9662
  400TIP3    H222692   2.820   2.495  12.397 -0.8989  1.0787 -0.9706
  401TIP3   OH222693   6.297   1.442  15.319  0.5705  0.6169  0.8344
  401TIP3    H122694   6.216   1.398  15.293  0.6329 -0.2206  1.9563
  401TIP3    H222695   6.312   1.412  15.408  0.9232  2.5209  1.4633
  402TIP3   OH222696   5.107   3.946  15.424  0.0195  0.5185 -0.3398
  402TIP3    H122697   5.113   3.989  15.509  0.1950  0.4870 -0.3376
  402TIP3    H222698   5.183   3.978  15.376 -0.6986  1.4657 -0.9026
  403TIP3   OH222699   3.908   2.309   2.278 -0.1131  0.3758 -0.6672
  403TIP3    H122700   3.914   2.300   2.373  2.0907 -0.2585 -0.8197
  403TIP3    H222701   3.984   2.362   2.254 -0.6549  0.5442 -2.0945
  404TIP3   OH222702   2.407   4.119   5.179  0.2986 -0.7139  0.3622
  404TIP3    H122703   2.322   4.104   5.220 -0.7239 -0.5180 -1.5848
  404TIP3    H222704   2.402   4.209   5.147  0.8937 -0.9716 -0.4926
  405TIP3   OH222705   3.741   1.589   4.776 -0.2392  0.5373  0.4408
  405TIP3    H122706   3.734   1.650   4.849 -2.0649  0.6931  0.1839
  405TIP3    H222707   3.666   1.610   4.720 -0.9590 -1.9321  0.3474
  406TIP3   OH222708   3.142   1.203  11.361 -0.2155  0.1252 -0.2570
  406TIP3    H122709   3.189   1.220  11.443 -0.6025 -1.2469  0.2885
  406TIP3    H222710   3.147   1.285  11.313  1.3775  0.4852  0.4619
  407TIP3   OH222711   5.649   1.664  16.067 -0.0282  0.1936 -0.6673
  407TIP3    H122712   5.666   1.703  16.153 -2.2201  0.9020 -0.4860
  407TIP3    H222713   5.575   1.714  16.033  1.7326  0.9790 -3.7047
  408TIP3   OH222714   4.717   2.623   4.052  0.0251  0.3103 -0.5074
  408TIP3    H122715   4.744   2.545   4.004 -1.6423 -1.1340  0.7597
  408TIP3    H222716   4.727   2.695   3.989  3.0279 -0.6243 -1.2518
  409TIP3   OH222717   2.189   4.943  12.756 -0.3792 -0.5665  0.0848
  409TIP3    H122718   2.152   4.897  12.831 -1.5807  0.1477 -0.0561
  409TIP3    H222719   2.176   5.036  12.776  0.8620 -0.3095 -0.2229
  410TIP3   OH222720   2.833   1.827   5.126 -0.1907 -0.1663  0.4034
  410TIP3    H122721   2.814   1.821   5.219  0.0873 -0.4348  0.4452
  410TIP3    H222722   2.922   1.792   5.117  0.2615  1.0122  0.1984
  411TIP3   OH222723   1.072   3.580   1.445 -0.2341  0.7645  0.3619
  411TIP3    H122724   1.062   3.485   1.453 -1.9855  0.9325  0.4650
  411TIP3    H222725   1.136   3.591   1.375 -0.9895 -0.4817 -0.5669
  412TIP3   OH222726   2.785   3.819   3.427  0.0656 -0.4733 -0.1908
  412TIP3    H122727   2.749   3.731   3.417  0.2117 -0.3369 -2.2515
  412TIP3    H222728   2.880   3.806   3.427  0.1405 -0.5480  2.4506
  413TIP3   OH222729   4.716   1.021   4.991  0.5142  0.2771 -0.0882
  413TIP3    H122730   4.677   1.105   5.015  0.0196  0.0845 -0.1946
  413TIP3    H222731   4.675   1.000   4.907  1.7786  0.6638 -0.8253
  414TIP3   OH222732   3.289   5.352   1.043  0.4706 -0.3058 -0.0482
  414TIP3    H122733   3.314   5.371   1.133  1.4052 -0.2056 -0.3186
  414TIP3    H222734   3.322   5.426   0.992 -0.7213  0.0185 -0.3838
  415TIP3   OH222735   5.802   5.450  14.279  0.2098  0.2196 -0.2775
  415TIP3    H122736   5.840   5.420  14.362 -0.7008  2.0652  0.8609
  415TIP3    H222737   5.729   5.390  14.263 -1.3898  1.4937  1.7857
  416TIP3   OH222738   1.555   0.175   1.929  0.3846  0.3448 -0.1559
  416TIP3    H122739   1.531   0.211   1.844  0.4223 -0.2950 -0.4410
  416TIP3    H222740   1.649   0.159   1.923  0.2719 -0.3078 -0.2234
  417TIP3   OH222741   4.709   3.410   0.304  0.4159  0.1944  0.2519
  417TIP3    H122742   4.735   3.437   0.392  0.3841  1.3303 -0.0772
  417TIP3    H222743   4.617   3.435   0.296 -0.1519 -1.6328  0.5489
  418TIP3   OH222744   4.807   6.673   3.073  0.2759  1.1596 -0.5921
  418TIP3    H122745   4.816   6.578   3.083  1.7054  1.4409  1.5441
  418TIP3    H222746   4.882   6.699   3.021 -0.6160  1.0665 -1.9838
  419TIP3   OH222747   1.066   4.861  15.124  0.5893 -0.4207  0.2983
  419TIP3    H122748   1.018   4.839  15.044  0.4393 -0.4713  0.4028
  419TIP3    H222749   0.998   4.878  15.189  0.6744  0.8708  0.0934
  420TIP3   OH222750   6.057   2.464   6.065  0.2938  0.4341 -0.0855
  420TIP3    H122751   6.126   2.400   6.083  0.7282  1.2017  1.1450
  420TIP3    H222752   5.976   2.422   6.094  0.7675  0.9695  2.2004
  421TIP3   OH222753   0.430   6.379  13.342 -0.5499 -0.3678 -0.6208
  421TIP3    H122754   0.497   6.445  13.324 -0.2173 -0.9017 -1.4091
  421TIP3    H222755   0.429   6.372  13.437 -1.5860  1.7719 -0.4133
  422TIP3   OH222756   6.275   3.619   0.464  0.5455  0.4380  0.0567
  422TIP3    H122757   6.242   3.569   0.538  2.4377 -1.3820 -0.2180
  422TIP3    H222758   6.275   3.557   0.391 -0.7514  2.0264 -1.3643
  423TIP3   OH222759   0.328   2.555  12.131 -0.2928  0.3494 -0.2899
  423TIP3    H122760   0.247   2.577  12.177  0.2746  1.3468  0.2424
  423TIP3    H222761   0.325   2.459  12.122 -0.9092  0.2475  0.8638
  424TIP3   OH222762   6.447   0.315   1.844 -0.9043  0.5039 -0.5950
  424TIP3    H122763   6.474   0.226   1.821 -1.4231  0.2535 -0.2719
  424TIP3    H222764   6.451   0.317   1.940  1.0873  1.4780 -0.6543
  425TIP3   OH222765   0.020   3.616   5.963  0.3139 -0.4882 -0.1290
  425TIP3    H122766  -0.047   3.634   5.896  0.3512 -1.9381 -0.6141
  425TIP3    H222767  -0.023   3.555   6.023  1.1688 -1.3971 -0.4185
  426TIP3   OH222768   3.343   2.771   3.963  0.0189  0.3406 -0.3422
  426TIP3    H122769   3.352   2.740   4.053  2.8014  0.5531 -0.4737
  426TIP3    H222770   3.346   2.692   3.910 -0.0239  0.3361 -0.3383
  427TIP3   OH222771   3.465   1.627  15.744 -0.2549  0.4885  0.8434
  427TIP3    H122772   3.417   1.705  15.718 -1.4700 -0.6944 -0.6389
  427TIP3    H222773   3.548   1.660  15.778 -0.1345  2.3693 -1.0722
  428TIP3   OH222774   3.984   0.524  12.724 -0.0529 -0.7172 -0.2229
  428TIP3    H122775   3.960   0.486  12.809 -0.4100  1.2466  0.6134
  428TIP3    H222776   3.900   0.546  12.684  0.0740 -2.3877 -1.5048
  429TIP3   OH222777   2.310   2.631   2.050 -0.0082 -0.1020  0.7459
  429TIP3    H122778   2.358   2.697   2.099  2.6379  0.0382 -1.7731
  429TIP3    H222779   2.248   2.681   1.997  0.9899  0.2685 -0.0968
  430TIP3   OH222780   2.389   0.003  16.479 -0.4742 -0.1459  0.6874
  430TIP3    H122781   2.333   0.068  16.436  0.8700  0.0495 -0.8708
  430TIP3    H222782   2.471   0.006  16.430 -0.0009 -2.2847  1.2219
  431TIP3   OH222783   0.007   2.606  14.882 -0.4316 -0.4061  0.0520
  431TIP3    H122784  -0.015   2.639  14.969 -0.7549  2.4727 -1.0126
  431TIP3    H222785   0.093   2.643  14.863  0.4045 -2.3781 -0.2617
  432TIP3   OH222786   5.276   5.072  16.292  0.0681 -0.3175  0.4931
  432TIP3    H122787   5.232   5.136  16.348  1.3189 -0.2528  1.4430
  432TIP3    H222788   5.369   5.097  16.295  0.1959 -0.2671 -1.6880
  433TIP3   OH222789   4.995   3.907  13.727 -0.0696  0.3068  0.1380
  433TIP3    H122790   5.039   3.832  13.687 -0.3402 -0.0941  0.5817
  433TIP3    H222791   5.046   3.926  13.805 -1.9544 -1.6750  2.0017
  434TIP3   OH222792   5.048   3.709  16.261  0.0041 -0.6180 -0.5914
  434TIP3    H122793   4.988   3.646  16.303 -1.8234  0.4880 -1.4283
  434TIP3    H222794   5.038   3.692  16.167  0.8989 -0.2747 -0.7584
  435TIP3   OH222795   3.000   1.736   4.447 -0.4140  0.3785 -0.0433
  435TIP3    H122796   3.012   1.670   4.379 -0.4991 -0.3383  0.6336
  435TIP3    H222797   3.087   1.773   4.460 -0.3614  0.3839 -0.4005
  436TIP3   OH222798   5.420   1.396   2.290  0.5516 -0.4388  0.0097
  436TIP3    H122799   5.420   1.341   2.368  1.0817  0.3733  0.5941
  436TIP3    H222800   5.345   1.365   2.239  0.2562 -1.0394  0.7902
  437TIP3   OH222801   3.847   0.273  16.233 -0.1388  0.3023  0.4786
  437TIP3    H122802   3.891   0.328  16.167  1.1158  0.0973  1.1107
  437TIP3    H222803   3.881   0.185  16.216 -0.6108  0.0736  0.7356
  438TIP3   OH222804   1.656   4.702  13.740  0.0862  0.2246  0.8416
  438TIP3    H122805   1.651   4.787  13.697  0.6665  0.2631  0.8381
  438TIP3    H222806   1.615   4.642  13.678 -3.2419  0.9462  2.1711
  439TIP3   OH222807   5.168   2.466  13.967  0.2690 -0.0177 -0.6311
  439TIP3    H122808   5.244   2.460  14.025 -0.1289  0.4497 -0.0591
  439TIP3    H222809   5.171   2.556  13.934 -1.6417  0.9468  1.6200
  440TIP3   OH222810   0.594   2.755  17.154  0.1218 -0.1651 -0.5267
  440TIP3    H122811   0.501   2.743  17.133 -0.1115 -0.3536  0.5508
  440TIP3    H222812   0.595   2.819  17.225  0.6872 -1.3369  0.5613
  441TIP3   OH222813   1.844   1.370  12.737  0.1757  0.2879  0.0382
  441TIP3    H122814   1.749   1.378  12.744 -0.0560 -1.2912 -0.7020
  441TIP3    H222815   1.878   1.447  12.781 -1.4059  0.0540  1.8299
  442TIP3   OH222816   1.364   0.841   4.482  0.1085 -0.3943  0.2265
  442TIP3    H122817   1.380   0.855   4.575  0.6774  2.5891 -0.2248
  442TIP3    H222818   1.280   0.796   4.478 -0.3502  0.2163  2.1566
  443TIP3   OH222819   6.699   1.803  14.407  0.0301 -0.0088 -0.3928
  443TIP3    H122820   6.795   1.804  14.403  0.0875 -1.3496  0.0636
  443TIP3    H222821   6.678   1.852  14.486  0.2571  1.2818 -1.0957
  444TIP3   OH222822   3.851   1.069  15.172  0.2367 -0.2159  0.2580
  444TIP3    H122823   3.881   1.084  15.083  0.8548  1.3549  0.7020
  444TIP3    H222824   3.755   1.076  15.166  0.1677 -1.4047 -0.4753
  445TIP3   OH222825   0.193   3.575   4.226  0.6621 -0.3811  0.0966
  445TIP3    H122826   0.249   3.540   4.157 -1.0336 -0.4689 -1.2949
  445TIP3    H222827   0.158   3.656   4.190  1.4535  0.7485  1.7460
  446TIP3   OH222828   0.071   0.270   5.164 -0.5560  0.0819 -0.4691
  446TIP3    H122829   0.114   0.352   5.137 -0.9057 -0.0926 -1.5930
  446TIP3    H222830   0.128   0.235   5.233 -1.8441  2.6906  2.1673
  447TIP3   OH222831   6.803   0.350   3.250  0.4318  0.1775  0.0248
  447TIP3    H122832   6.722   0.361   3.301  0.3405 -1.9068  0.4330
  447TIP3    H222833   6.824   0.438   3.218 -1.8074  0.8341  0.1954
  448TIP3   OH222834   4.348   5.590  10.484 -0.9316 -0.1227 -0.9165
  448TIP3    H122835   4.366   5.682  10.463 -1.2641  1.1150  3.1900
  448TIP3    H222836   4.427   5.561  10.530 -1.7272 -1.1052 -0.1354
  449TIP3   OH222837   4.674   2.868  15.827  0.4698 -0.7659  0.1163
  449TIP3    H122838   4.708   2.885  15.739 -2.2842 -0.1324 -0.9508
  449TIP3    H222839   4.633   2.782  15.820 -0.0003 -0.5932  0.6995
  450TIP3   OH222840   6.766   5.025   0.815 -0.1886 -0.1678  0.4814
  450TIP3    H122841   6.719   5.104   0.788 -0.8150 -0.0296  1.9414
  450TIP3    H222842   6.727   5.000   0.898  0.1046 -1.9522  0.1258
  451TIP3   OH222843   4.501   0.934  16.519 -0.5216 -0.8105  0.4396
  451TIP3    H122844   4.432   0.977  16.469  0.1235  0.6322  0.7612
  451TIP3    H222845   4.577   0.992  16.511  0.0907 -1.4031  1.6796
  452TIP3   OH222846   1.010   0.408   1.438 -0.7462  0.2035 -0.0210
  452TIP3    H122847   1.024   0.369   1.351  0.9686 -1.0636  0.7786
  452TIP3    H222848   1.040   0.342   1.499  0.5286  2.0785  1.4728
  453TIP3   OH222849   6.541   4.595  17.091  0.4038  0.0906  0.0626
  453TIP3    H122850   6.458   4.585  17.044  0.4650  1.4588 -0.3629
  453TIP3    H222851   6.522   4.657  17.161  1.0501  0.3589  0.0067
  454TIP3   OH222852   1.069   5.679   2.943 -0.2347 -0.0086 -0.0322
  454TIP3    H122853   1.067   5.728   2.860  0.3405 -1.1348 -0.7389
  454TIP3    H222854   1.160   5.650   2.951  0.1743  1.6224  1.9566
  455TIP3   OH222855   4.774   0.923  12.256 -0.2314 -0.7789 -0.2430
  455TIP3    H122856   4.812   0.958  12.336 -2.1562 -0.3216  0.5324
  455TIP3    H222857   4.690   0.886  12.284 -0.3053 -1.8936 -1.8251
  456TIP3   OH222858   0.340   4.676   1.774  0.1105  0.1047 -0.2426
  456TIP3    H122859   0.273   4.695   1.708 -0.5374 -0.6193  0.1940
  456TIP3    H222860   0.378   4.762   1.794  0.2878  0.3495 -1.5104
  457TIP3   OH222861   0.624   1.224   2.572 -0.1674 -0.0103  0.5599
  457TIP3    H122862   0.620   1.213   2.477  0.8660  0.6575  0.4196
  457TIP3    H222863   0.608   1.318   2.586  1.5125  0.2569  0.8807
  458TIP3   OH222864   1.145   5.492  14.054  0.3121  0.0446  0.1360
  458TIP3    H122865   1.133   5.399  14.076  0.1343  0.2628  1.0308
  458TIP3    H222866   1.228   5.515  14.095 -0.2995  0.6117  1.0913
  459TIP3   OH222867   1.138   4.416  15.566  0.1982  0.3282  0.8571
  459TIP3    H122868   1.228   4.447  15.576  0.2736 -0.0037  1.2863
  459TIP3    H222869   1.135   4.380  15.478 -0.2885  2.7748 -0.2054
  460TIP3   OH222870   2.089   2.979   3.329 -0.2315  0.3110  0.3318
  460TIP3    H122871   2.170   2.936   3.357  0.2764  1.8034  1.2833
  460TIP3    H222872   2.112   3.072   3.324 -1.7534  0.6971  0.0645
  461TIP3   OH222873   0.384   6.156  10.287 -0.8909  0.1144  0.0361
  461TIP3    H122874   0.350   6.095  10.222  1.0108 -1.8015  0.7255
  461TIP3    H222875   0.427   6.101  10.352  1.5133  2.1795  0.3700
  462TIP3   OH222876   2.568   4.210  11.374 -0.1851  0.3994 -0.1621
  462TIP3    H122877   2.610   4.261  11.304  0.7467 -1.1726 -0.8235
  462TIP3    H222878   2.474   4.221  11.359 -0.0593 -1.1742 -2.7487
  463TIP3   OH222879   6.519   2.328  12.010 -1.1220  0.0313  0.1103
  463TIP3    H122880   6.553   2.326  12.100 -0.3760  0.8295 -0.1453
  463TIP3    H222881   6.590   2.366  11.958 -1.6732 -0.1116 -0.7653
  464TIP3   OH222882   2.990   3.684  13.019  0.2339 -0.0437  0.8155
  464TIP3    H122883   2.936   3.726  12.952 -0.1547  0.4976  1.4542
  464TIP3    H222884   3.050   3.753  13.048  1.2498 -0.6246  0.1537
  465TIP3   OH222885   2.084   5.646  14.415  0.2127 -0.1157  0.5635
  465TIP3    H122886   2.014   5.692  14.462  0.6567 -0.0582  1.1849
  465TIP3    H222887   2.039   5.593  14.350 -0.4567 -0.6639  1.4620
  466TIP3   OH222888   2.399   1.050   3.911 -0.6289 -0.6838 -0.1993
  466TIP3    H122889   2.312   1.085   3.894 -0.8886 -1.2835 -0.1081
  466TIP3    H222890   2.450   1.074   3.833  0.1054  2.6945  1.1251
  467TIP3   OH222891   1.287   6.619   2.463  0.0971 -0.0290  0.2525
  467TIP3    H122892   1.251   6.583   2.544  1.3595 -0.5558  0.6004
  467TIP3    H222893   1.227   6.690   2.439 -0.4881 -0.1027  1.4549
  468TIP3   OH222894   5.065   2.984  13.876  0.1572 -0.3011 -0.0673
  468TIP3    H122895   5.053   2.993  13.782  0.6598 -0.4370 -0.1456
  468TIP3    H222896   5.120   3.059  13.900 -0.4757  0.0842  0.2234
  469TIP3   OH222897   0.749   4.746   0.471 -0.0081 -0.4337  0.1341
  469TIP3    H122898   0.710   4.833   0.466  0.8531 -0.1009 -1.5141
  469TIP3    H222899   0.820   4.747   0.406 -2.0161 -3.3996 -2.4286
  470TIP3   OH222900   6.327   3.638  15.325 -0.3519 -0.4340  0.0357
  470TIP3    H122901   6.300   3.553  15.290  2.0205 -0.6323 -1.4813
  470TIP3    H222902   6.335   3.624  15.419  1.8249 -2.4907 -0.3688
  471TIP3   OH222903   5.986   0.572  12.125  0.1010  0.1560 -0.3105
  471TIP3    H122904   6.069   0.540  12.161 -0.8148 -2.0667  0.0071
  471TIP3    H222905   5.945   0.619  12.198  0.6835  0.5063 -0.2021
  472TIP3   OH222906   2.927   6.183  14.157  0.3152  0.3619  0.2754
  472TIP3    H122907   2.871   6.181  14.235  1.5207 -0.2509  1.1723
  472TIP3    H222908   2.972   6.099  14.158 -0.8050 -0.3571 -2.0294
  473TIP3   OH222909   2.462   3.029  11.586 -0.2398 -0.0569 -0.5221
  473TIP3    H122910   2.396   2.961  11.595 -0.3984  0.3415  2.1338
  473TIP3    H222911   2.505   3.010  11.503 -3.4174 -0.5309 -2.2440
  474TIP3   OH222912   3.775   1.331   3.804 -0.2216  0.3500  0.0780
  474TIP3    H122913   3.866   1.321   3.831 -0.7178  0.1082  1.7458
  474TIP3    H222914   3.736   1.245   3.817 -0.2729 -0.1235 -2.5377
  475TIP3   OH222915   0.997   0.051   3.593  0.4438  0.1863 -0.1308
  475TIP3    H122916   0.902   0.050   3.583  0.3849  1.4557  0.1069
  475TIP3    H222917   1.012   0.050   3.688  0.6703 -0.0461 -0.1663
  476TIP3   OH222918   3.158   0.593  15.491 -0.9047 -0.1476  0.0242
  476TIP3    H122919   3.140   0.632  15.405  1.4737 -0.6711 -0.7919
  476TIP3    H222920   3.094   0.521  15.498 -3.0778  1.6773  0.0583
  477TIP3   OH222921   0.742   6.692  16.696 -0.0203  0.1673 -0.1615
  477TIP3    H122922   0.649   6.709  16.714  0.0709  2.6037 -1.6062
  477TIP3    H222923   0.789   6.750  16.756  0.4821  0.8835 -1.2263
  478TIP3   OH222924   3.594   1.609   5.631 -0.2167 -0.4261  0.8930
  478TIP3    H122925   3.622   1.540   5.570  0.2997 -0.2044  0.8747
  478TIP3    H222926   3.646   1.592   5.710  0.7456  0.6049  0.5054
  479TIP3   OH222927   5.628   3.560   5.364 -0.2511  0.1569  0.0547
  479TIP3    H122928   5.641   3.553   5.459 -0.2700  0.2842  0.0667
  479TIP3    H222929   5.621   3.469   5.334  1.8215  0.0066 -0.1099
  480TIP3   OH222930   2.412   2.287  17.120 -0.0198  0.3851  0.3036
  480TIP3    H122931   2.493   2.258  17.078  0.4929 -0.2538  1.6527
  480TIP3    H222932   2.342   2.259  17.060  0.7223  0.4090 -0.5873
  481TIP3   OH222933   5.500   4.233  17.021 -0.5569  0.2855 -0.3124
  481TIP3    H122934   5.468   4.221  17.111 -3.0039  1.0730 -1.0195
  481TIP3    H222935   5.422   4.253  16.970  0.4524 -2.1421 -3.0575
  482TIP3   OH222936   4.758   4.646   6.424 -1.0898 -0.5463 -0.3745
  482TIP3    H122937   4.772   4.726   6.372  0.2287  1.7671  3.1717
  482TIP3    H222938   4.845   4.607   6.431 -1.1108 -0.4332  0.6176
  483TIP3   OH222939   5.700   6.636  12.226 -0.2155 -0.1626  0.3710
  483TIP3    H122940   5.713   6.660  12.318  0.7960 -4.1989  1.4720
  483TIP3    H222941   5.620   6.582  12.226 -0.4014  0.0656 -1.2034
  484TIP3   OH222942   0.603   1.360  15.323 -0.9021  0.2806  0.8546
  484TIP3    H122943   0.588   1.448  15.288  1.9543  0.3595 -0.5042
  484TIP3    H222944   0.554   1.302  15.265  2.1845  0.5785 -2.3964
  485TIP3   OH222945   6.170   5.184  14.580  0.1579  0.0469 -0.7083
  485TIP3    H122946   6.133   5.213  14.497 -0.6677  0.0862 -0.3357
  485TIP3    H222947   6.264   5.199  14.571  0.0033  0.6618 -1.3852
  486TIP3   OH222948   4.115   5.515  14.237 -0.3414 -0.2813 -0.5123
  486TIP3    H122949   4.113   5.592  14.179  1.3165  0.7346  0.6918
  486TIP3    H222950   4.172   5.453  14.191 -1.1333 -0.5400 -1.1697
  487TIP3   OH222951   5.676   5.340  12.976 -0.5154  0.8406  0.2308
  487TIP3    H122952   5.754   5.304  12.936 -0.1108  0.5366  1.2568
  487TIP3    H222953   5.708   5.390  13.051 -1.2880  0.8163  0.5927
  488TIP3   OH222954   0.758   3.608   2.312 -0.3810  0.1125  0.1342
  488TIP3    H122955   0.819   3.556   2.364  0.3939  0.6771 -0.1980
  488TIP3    H222956   0.677   3.557   2.313  0.0128 -0.5214  0.7939
  489TIP3   OH222957   1.966   1.558  14.215  0.1383  1.2175  0.0309
  489TIP3    H122958   1.928   1.646  14.213 -0.4142  0.9941  0.4068
  489TIP3    H222959   2.051   1.569  14.257  0.5916  1.7570 -0.9881
  490TIP3   OH222960   3.164   3.914  12.421 -0.4255  0.3166  0.1348
  490TIP3    H122961   3.086   3.883  12.374  0.8102 -0.9598 -1.1383
  490TIP3    H222962   3.178   4.002  12.388 -2.3392  1.3133  1.7292
  491TIP3   OH222963   4.219   3.614  15.298  0.3685  0.2882 -0.2565
  491TIP3    H122964   4.156   3.551  15.264  1.0548 -0.9357  0.6788
  491TIP3    H222965   4.230   3.589  15.390  0.7515  1.6964  0.1040
  492TIP3   OH222966   0.316   2.728  13.247  0.2006  0.2050 -0.2114
  492TIP3    H122967   0.258   2.755  13.177 -2.0255 -0.9068  1.0942
  492TIP3    H222968   0.359   2.809  13.275 -0.2762  0.9591 -1.5819
  493TIP3   OH222969   1.663   4.760   4.814  0.0789 -0.1591 -0.0870
  493TIP3    H122970   1.746   4.755   4.766 -0.0691  0.7001 -0.4602
  493TIP3    H222971   1.640   4.853   4.812  1.2471  0.3861  3.7403
  494TIP3   OH222972   0.451   3.334  16.536 -0.6637 -0.0130 -0.4148
  494TIP3    H122973   0.520   3.312  16.599  0.0205  0.5639 -0.9590
  494TIP3    H222974   0.492   3.326  16.451 -1.0977  0.9364 -0.7230
  495TIP3   OH222975   6.223   1.843  15.107 -0.0894  0.6602 -0.2294
  495TIP3    H122976   6.174   1.860  15.188 -0.5374  0.9500 -0.5535
  495TIP3    H222977   6.205   1.920  15.053 -0.0480  0.3180 -0.7268
  496TIP3   OH222978   4.460   2.319   2.800 -0.4218 -0.2996 -0.3757
  496TIP3    H122979   4.440   2.337   2.892  0.8177 -2.3694  0.3648
  496TIP3    H222980   4.376   2.326   2.755 -0.8883  1.7694  0.6792
  497TIP3   OH222981   1.671   1.584   4.885 -0.0389 -0.3625 -0.1725
  497TIP3    H122982   1.647   1.507   4.936  2.0737 -0.3381  0.9658
  497TIP3    H222983   1.634   1.657   4.933  1.0775 -0.4222  0.8332
  498TIP3   OH222984   6.618   5.319   0.084 -0.1511  0.2341  0.7431
  498TIP3    H122985   6.602   5.398   0.137 -0.9491 -0.3857  1.4502
  498TIP3    H222986   6.708   5.295   0.105 -0.5829 -0.2476  2.1884
  499TIP3   OH222987   5.197   1.735   4.799 -0.1247  0.5145  0.5381
  499TIP3    H122988   5.232   1.816   4.764  0.2953 -0.2211 -0.8321
  499TIP3    H222989   5.236   1.727   4.886  1.6220  0.6750 -0.1929
  500TIP3   OH222990   5.506   6.079   5.217 -0.2867  0.0873  0.4666
  500TIP3    H122991   5.596   6.111   5.225 -1.0265  2.5865 -0.3136
  500TIP3    H222992   5.471   6.084   5.306 -0.1305  0.6455  0.4986
  501TIP3   OH222993   5.138   0.388   2.085 -0.0581  0.1411 -0.8952
  501TIP3    H122994   5.184   0.318   2.039  1.2272  1.1338 -1.1869
  501TIP3    H222995   5.135   0.358   2.176  1.7226  0.2614 -0.7464
  502TIP3   OH222996   1.399   0.743   0.925  0.2413  0.0922  0.1481
  502TIP3    H122997   1.453   0.821   0.915 -1.0658  1.1605  0.9692
  502TIP3    H222998   1.406   0.721   1.018 -0.3756 -0.0183  0.1722
  503TIP3   OH222999   1.865   5.361  12.384 -0.0793 -0.7760  0.4821
  503TIP3    H123000   1.945   5.326  12.424  1.1785  0.5436 -0.7338
  503TIP3    H223001   1.808   5.382  12.458  2.2068  1.7395  1.7119
  504TIP3   OH223002   4.061   5.500   3.406  0.4950  0.0217 -0.0914
  504TIP3    H123003   3.987   5.515   3.347  0.9183 -2.9448 -1.5315
  504TIP3    H223004   4.138   5.518   3.352  0.8737  0.9698  0.7435
  505TIP3   OH223005   5.369   5.501   5.997  0.1211 -0.5358 -0.3820
  505TIP3    H123006   5.297   5.459   5.949  0.4223 -2.3936  0.7042
  505TIP3    H223007   5.448   5.463   5.960  0.4169 -0.8101  0.5214
  506TIP3   OH223008   5.633   1.589  10.819 -0.1495 -0.5773 -0.4091
  506TIP3    H123009   5.598   1.608  10.732  1.1846  1.0389 -0.6386
  506TIP3    H223010   5.579   1.516  10.851 -1.3576 -0.5058 -2.1360
  507TIP3   OH223011   6.408   0.509   4.473  0.1113 -0.3781  0.2503
  507TIP3    H123012   6.350   0.433   4.471 -1.0754  0.4285  1.8706
  507TIP3    H223013   6.496   0.473   4.466 -0.4670 -1.8346  0.2517
  508TIP3   OH223014   3.740   1.414  13.094  0.0391 -0.3008  0.2129
  508TIP3    H123015   3.800   1.404  13.168 -0.1442 -0.9284  0.2827
  508TIP3    H223016   3.671   1.473  13.127 -1.4049 -2.5000  1.4361
  509TIP3   OH223017   0.971   6.250  11.563 -0.6012 -0.0417 -0.2308
  509TIP3    H123018   0.944   6.337  11.593 -2.7879 -0.8582  0.4262
  509TIP3    H223019   1.065   6.247  11.577  0.0956  3.2304 -3.0462
  510TIP3   OH223020   2.990   6.626   2.831 -0.3529 -0.1948  0.1818
  510TIP3    H123021   2.953   6.566   2.896 -3.2876 -1.3172 -2.2647
  510TIP3    H223022   3.037   6.570   2.770  1.5815  0.7424  0.7210
  511TIP3   OH223023   4.811   3.741   5.863  0.3171 -0.1717  0.0867
  511TIP3    H123024   4.844   3.666   5.913 -1.5924 -0.0550  1.6659
  511TIP3    H223025   4.822   3.816   5.922  1.2856  0.6540 -1.0895
  512TIP3   OH223026   3.632   4.142   1.588 -0.5976 -0.3509 -0.0466
  512TIP3    H123027   3.542   4.164   1.567 -0.9722 -0.6881  1.1243
  512TIP3    H223028   3.674   4.227   1.606 -0.5320 -0.1523 -1.0595
  513TIP3   OH223029   6.657   6.408  13.179 -1.0063  0.6090 -0.3234
  513TIP3    H123030   6.709   6.488  13.177  0.7906 -0.5040  0.0129
  513TIP3    H223031   6.654   6.384  13.272 -3.9218  1.6975 -0.0087
  514TIP3   OH223032   4.771   1.412  12.612  0.6432 -0.2320 -0.3612
  514TIP3    H123033   4.825   1.489  12.631 -1.9925  1.5586  0.4006
  514TIP3    H223034   4.741   1.425  12.522  0.0057 -0.2227 -0.1550
  515TIP3   OH223035   0.255   4.213   6.044 -0.8810  0.0141  0.6382
  515TIP3    H123036   0.175   4.217   6.097 -1.4688  0.0668 -0.2328
  515TIP3    H223037   0.239   4.273   5.971  0.3287  0.7363  0.9316
  516TIP3   OH223038   5.060   1.690   5.325  1.2310  0.0212 -0.2485
  516TIP3    H123039   5.069   1.603   5.288 -1.5191  0.2700 -1.7214
  516TIP3    H223040   5.034   1.675   5.416  0.3233 -0.7190 -0.6181
  517TIP3   OH223041   4.878   2.651   0.901 -0.2077 -0.0114  0.2287
  517TIP3    H123042   4.816   2.579   0.890  0.0677 -0.0954 -0.9201
  517TIP3    H223043   4.893   2.656   0.995 -0.5436 -1.1802  0.3595
  518TIP3   OH223044   6.600   3.537   0.624 -0.3583  0.1144  0.4798
  518TIP3    H123045   6.671   3.539   0.687 -0.2240  0.4402  0.3199
  518TIP3    H223046   6.560   3.450   0.635 -1.6249  0.8624  2.4260
  519TIP3   OH223047   4.926   6.335  15.101  0.5658  0.6206  0.4847
  519TIP3    H123048   4.945   6.429  15.109 -0.4507  0.7735  1.2691
  519TIP3    H223049   4.857   6.331  15.035 -0.5434  0.5942  1.6144
  520TIP3   OH223050   4.059   2.883   2.483  0.0990 -0.6411  0.7363
  520TIP3    H123051   4.058   2.818   2.553  0.3984 -1.4767 -0.0145
  520TIP3    H223052   3.994   2.852   2.420  0.6619 -0.5421  0.0869
  521TIP3   OH223053   3.958   1.959   0.253  0.4643 -0.1262 -0.0668
  521TIP3    H123054   3.900   2.020   0.299  0.2526 -1.2414  1.2228
  521TIP3    H223055   3.941   1.974   0.161  0.4794  1.8073  0.2070
  522TIP3   OH223056   1.892   2.629  15.245  0.1262  0.1983 -0.1790
  522TIP3    H123057   1.872   2.617  15.152  1.4113 -0.8835 -0.3439
  522TIP3    H223058   1.973   2.680  15.245 -0.3363  0.9644  0.3870
  523TIP3   OH223059   1.049   0.062   2.052 -0.1616 -0.1907  0.2652
  523TIP3    H123060   1.022   0.094   1.966 -0.6869  0.5483  0.6885
  523TIP3    H223061   1.128   0.112   2.073  0.1558 -0.6085  0.0722
  524TIP3   OH223062   4.746   6.245  12.069 -0.9916 -0.0089  0.5402
  524TIP3    H123063   4.665   6.238  12.120 -0.9909 -1.4531  0.3883
  524TIP3    H223064   4.761   6.157  12.035  0.5671  0.2597  0.4296
  525TIP3   OH223065   0.363   2.651   1.714 -0.0377  0.4119  0.3315
  525TIP3    H123066   0.321   2.733   1.738 -1.4618 -0.1395 -0.1658
  525TIP3    H223067   0.335   2.635   1.624  2.0457  0.4925 -0.3811
  526TIP3   OH223068   2.939   2.699   2.050  0.5391 -0.3438  0.9354
  526TIP3    H123069   3.025   2.707   2.009  0.8514  0.0210  1.6510
  526TIP3    H223070   2.890   2.774   2.016  0.1516 -1.0988 -0.2602
  527TIP3   OH223071   2.467   3.528  12.697 -0.2864  0.3667 -0.3775
  527TIP3    H123072   2.493   3.501  12.785  0.2710  0.4162 -0.5243
  527TIP3    H223073   2.496   3.457  12.641 -0.0524  0.6337 -0.5987
  528TIP3   OH223074   2.320   2.989   3.870 -0.3404  0.3813  0.1150
  528TIP3    H123075   2.238   3.007   3.823 -0.0023  1.8627  0.0331
  528TIP3    H223076   2.311   2.899   3.902 -1.7593  0.3332 -0.3705
  529TIP3   OH223077   5.220   3.920  14.540 -0.6343 -0.2967 -0.6618
  529TIP3    H123078   5.213   3.824  14.539 -0.5252 -0.3154 -2.3268
  529TIP3    H223079   5.189   3.947  14.454  3.1274  0.8838 -1.7922
  530TIP3   OH223080   4.761   5.940  10.664  0.2616  0.0448 -0.8974
  530TIP3    H123081   4.697   5.914  10.730 -1.0359  1.1620 -1.6588
  530TIP3    H223082   4.722   5.911  10.581  1.0584  0.1528 -1.3173
  531TIP3   OH223083   4.780   6.666  13.445  0.5748 -0.4224 -0.1916
  531TIP3    H123084   4.793   6.611  13.522  1.9463 -0.8020 -0.6693
  531TIP3    H223085   4.693   6.643  13.413  0.9430 -2.0077 -0.1199
  532TIP3   OH223086   5.205   3.566  16.600  0.1532  0.3582  0.2008
  532TIP3    H123087   5.110   3.568  16.589  0.1200  1.6204  0.6487
  532TIP3    H223088   5.230   3.657  16.610  1.4027  0.0225  0.2425
  533TIP3   OH223089   2.842   1.440  12.142 -0.0759  0.2617  0.7202
  533TIP3    H123090   2.860   1.389  12.063  0.0131 -0.6637  1.3284
  533TIP3    H223091   2.927   1.444  12.187 -0.4326 -0.4467  1.4727
  534TIP3   OH223092   2.465   4.135   3.140  0.1732  0.2932  0.3590
  534TIP3    H123093   2.449   4.055   3.190  0.3657  0.6508  1.0031
  534TIP3    H223094   2.442   4.112   3.050 -0.7211 -0.1959  0.6945
  535TIP3   OH223095   6.510   4.493   4.859  0.1570  0.2827  0.5231
  535TIP3    H123096   6.429   4.528   4.895 -0.6408 -0.1116 -0.8507
  535TIP3    H223097   6.508   4.515   4.766  1.5582  0.1304  0.4234
  536TIP3   OH223098   6.332   3.207   3.145 -0.5172 -0.3625  0.0067
  536TIP3    H123099   6.301   3.282   3.095 -0.0390  1.6311  2.4856
  536TIP3    H223100   6.424   3.226   3.161 -0.5752 -1.0769  1.3113
  537TIP3   OH223101   3.105   1.908  11.481  0.3074 -0.4466 -0.4266
  537TIP3    H123102   3.083   2.000  11.473 -1.1798 -0.7033  0.3058
  537TIP3    H223103   3.198   1.907  11.502  0.2973  0.9021 -0.2561
  538TIP3   OH223104   3.450   0.543   6.474  0.4269  0.1864  0.4101
  538TIP3    H123105   3.440   0.454   6.442 -0.8554  0.6485 -0.5797
  538TIP3    H223106   3.466   0.595   6.395  1.4506  0.8140  1.0012
  539TIP3   OH223107   2.477   4.100   0.702 -0.3723 -0.0298 -0.1764
  539TIP3    H123108   2.558   4.131   0.661 -0.5081  0.8955  0.2321
  539TIP3    H223109   2.500   4.014   0.739  0.4867  0.3307  0.1466
  540TIP3   OH223110   6.243   1.858  14.126  0.3742  0.4313 -0.1666
  540TIP3    H123111   6.159   1.851  14.081  0.9767 -0.2606 -1.2356
  540TIP3    H223112   6.267   1.767  14.146  0.7230  0.6438  0.4090
  541TIP3   OH223113   5.765   4.850  11.438  0.0472 -0.3262  0.4266
  541TIP3    H123114   5.843   4.795  11.448 -0.0163 -0.2221  1.6977
  541TIP3    H223115   5.707   4.822  11.509 -1.1677 -0.5299 -0.6068
  542TIP3   OH223116   1.687   0.333  13.037  0.3141  0.3549  0.2243
  542TIP3    H123117   1.724   0.270  12.975  0.0581  0.2845  0.1398
  542TIP3    H223118   1.747   0.332  13.111  0.6177  0.4311 -0.0170
  543TIP3   OH223119   4.912   6.090  16.580 -0.3237  0.0263  0.4957
  543TIP3    H123120   4.965   6.160  16.618  1.1065 -0.8626  0.2142
  543TIP3    H223121   4.938   6.087  16.488 -2.6751  1.1728 -0.3009
  544TIP3   OH223122   1.131   2.525  14.778 -0.1770  0.1382  0.4644
  544TIP3    H123123   1.206   2.524  14.718 -2.0522  1.7982 -2.1313
  544TIP3    H223124   1.078   2.449  14.753  0.1815 -0.5583  1.7297
  545TIP3   OH223125   6.457   4.591  15.152 -0.3381 -0.3352  0.0939
  545TIP3    H123126   6.508   4.606  15.073 -0.6133 -1.2520 -0.2760
  545TIP3    H223127   6.473   4.499  15.173  0.6499  0.1867  1.7846
  546TIP3   OH223128   4.164   0.019   3.306 -0.9155 -0.4625  0.2698
  546TIP3    H123129   4.196   0.042   3.394 -3.5688  0.8156  1.0096
  546TIP3    H223130   4.203  -0.066   3.288  3.1902  1.0824  0.7783
  547TIP3   OH223131   5.241   4.466  15.033  0.1724  0.6384 -0.1467
  547TIP3    H123132   5.215   4.382  14.995  2.0172 -0.1016  0.0997
  547TIP3    H223133   5.322   4.489  14.987  0.3462  1.6680  0.6350
  548TIP3   OH223134   1.558   0.839  16.181 -0.2215 -0.2099 -0.2740
  548TIP3    H123135   1.476   0.820  16.135 -0.3245  0.3996 -0.3555
  548TIP3    H223136   1.625   0.838  16.113 -0.0209 -1.5540 -0.0764
  549TIP3   OH223137   2.403   2.671  11.028  0.4250 -0.1218  0.2547
  549TIP3    H123138   2.473   2.612  11.057  0.4239 -0.2373  0.0229
  549TIP3    H223139   2.363   2.626  10.953  0.5354  0.2517 -0.0300
  550TIP3   OH223140   6.361   5.519  15.820  0.0122  0.2712 -1.0707
  550TIP3    H123141   6.343   5.529  15.727  0.5347 -0.5812 -1.2787
  550TIP3    H223142   6.390   5.605  15.849 -2.1378  1.0938 -1.2133
  551TIP3   OH223143   5.678   5.093  15.534 -0.2382 -0.7868 -0.0295
  551TIP3    H123144   5.737   5.152  15.487 -2.8709  1.7274 -0.4549
  551TIP3    H223145   5.683   5.121  15.625  0.3993 -1.6647  0.2175
  552TIP3   OH223146   5.737   0.493  13.335 -1.0130 -0.5569 -0.2809
  552TIP3    H123147   5.680   0.553  13.287 -1.2438 -0.9292 -0.4706
  552TIP3    H223148   5.688   0.471  13.414 -0.8648 -0.3821 -0.1378
  553TIP3   OH223149   5.076   2.437   4.643 -0.1927  0.3488 -0.5724
  553TIP3    H123150   5.073   2.344   4.663 -3.0137  0.0836 -1.8528
  553TIP3    H223151   5.043   2.480   4.722 -1.6792  0.0266 -1.0001
  554TIP3   OH223152   5.399   2.034   5.606  0.0962 -0.0694 -0.1478
  554TIP3    H123153   5.477   2.001   5.562 -0.3858  0.0988 -1.1674
  554TIP3    H223154   5.369   1.961   5.659  0.6052 -0.3337 -0.2140
  555TIP3   OH223155   4.522   4.235  17.073 -0.4128  0.0186 -0.2566
  555TIP3    H123156   4.455   4.203  17.133  1.1900 -1.1039  1.0125
  555TIP3    H223157   4.557   4.313  17.116 -0.4329  0.2259 -0.6063
  556TIP3   OH223158   5.079   4.552  13.650  0.1618  0.0493 -0.0011
  556TIP3    H123159   5.096   4.464  13.617  2.7497 -0.6429  2.8295
  556TIP3    H223160   5.134   4.609  13.596 -0.2493 -0.2201 -0.7326
  557TIP3   OH223161   1.858   0.349  12.144 -0.0567 -0.3711  0.5732
  557TIP3    H123162   1.861   0.369  12.237 -0.1516  0.8127  0.3285
  557TIP3    H223163   1.775   0.385  12.114 -0.5997 -1.8101  0.2508
  558TIP3   OH223164   3.135   4.702  15.942  0.1482 -0.4165 -0.6333
  558TIP3    H123165   3.062   4.644  15.918 -1.3164  0.4466  1.4718
  558TIP3    H223166   3.213   4.658  15.908 -1.1133 -2.5507 -0.9333
  559TIP3   OH223167   4.458   4.778   1.255  0.2358  0.0501  0.5590
  559TIP3    H123168   4.547   4.757   1.284  0.0601 -0.4722  0.7337
  559TIP3    H223169   4.430   4.849   1.313  0.0528 -0.6833  1.3916
  560TIP3   OH223170   4.666   4.961  13.206 -0.2981  0.4922  0.3872
  560TIP3    H123171   4.605   5.029  13.235 -1.6158 -0.7193  0.5639
  560TIP3    H223172   4.610   4.892  13.172  1.0340 -0.3409 -0.1874
  561TIP3   OH223173   2.820   0.106  11.600  0.3955 -0.3858 -0.4045
  561TIP3    H123174   2.838   0.196  11.575 -0.5682  0.0740  0.4579
  561TIP3    H223175   2.866   0.093  11.683 -1.7358  0.2914  0.9845
  562TIP3   OH223176   0.290   3.507   5.729 -1.1309  0.2872 -0.0922
  562TIP3    H123177   0.206   3.526   5.687 -1.1708 -0.8534 -0.5706
  562TIP3    H223178   0.275   3.424   5.775 -0.1212 -0.2234 -0.6515
  563TIP3   OH223179   0.851   2.104  14.575  0.7453  0.3965  0.6698
  563TIP3    H123180   0.823   2.166  14.642 -1.3460  1.4585 -1.0553
  563TIP3    H223181   0.797   2.125  14.499  1.7780 -1.9037 -0.8129
  564TIP3   OH223182   3.334   3.336  11.531  0.6349  0.1395 -0.4038
  564TIP3    H123183   3.385   3.365  11.455 -0.8212  1.4096 -0.9551
  564TIP3    H223184   3.336   3.411  11.591  0.5032 -0.2939  0.1519
  565TIP3   OH223185   1.911   2.900  12.195 -0.2790 -0.1742 -0.3532
  565TIP3    H123186   1.880   2.984  12.162  0.6232  0.1549 -0.3802
  565TIP3    H223187   1.952   2.920  12.279  1.5301 -0.2703 -1.1531
  566TIP3   OH223188   1.324   5.473   0.149 -0.2767 -0.1787 -0.3259
  566TIP3    H123189   1.305   5.476   0.055 -0.0592  0.0742 -0.3645
  566TIP3    H223190   1.295   5.558   0.182  0.2004 -0.0325 -0.2741
  567TIP3   OH223191   6.240   6.293   1.099  0.1697  0.1810 -0.0258
  567TIP3    H123192   6.150   6.322   1.083  0.5112  1.7127  0.6217
  567TIP3    H223193   6.237   6.251   1.185  0.5669  2.9191  1.4268
  568TIP3   OH223194   5.961   2.750  16.399 -0.3108  0.2147 -0.1189
  568TIP3    H123195   5.995   2.663  16.380  1.1509  0.7792 -0.2204
  568TIP3    H223196   5.876   2.752  16.355  0.2256 -0.6943 -1.2564
  569TIP3   OH223197   1.629   2.078   4.101  0.3855  0.0899 -0.1992
  569TIP3    H123198   1.647   2.166   4.135  0.7999 -0.7689  1.9688
  569TIP3    H223199   1.698   2.062   4.037 -0.2196  1.6489 -1.3096
  570TIP3   OH223200   2.424   1.698   1.925  0.5080  0.4136 -1.3838
  570TIP3    H123201   2.408   1.788   1.952 -2.8195 -0.5021  0.2111
  570TIP3    H223202   2.415   1.647   2.006  0.0115 -1.5690 -2.6174
  571TIP3   OH223203   4.590   6.080   6.150  0.3941  0.3627 -0.2174
  571TIP3    H123204   4.631   6.016   6.092  0.0563  0.2943 -0.3821
  571TIP3    H223205   4.659   6.105   6.211  0.9980  1.0935 -1.1836
  572TIP3   OH223206   4.823   6.154  15.624 -0.1581 -0.0444 -0.3704
  572TIP3    H123207   4.811   6.166  15.530  0.8014 -1.5288 -0.7137
  572TIP3    H223208   4.904   6.103  15.632 -0.3277 -0.1181  1.2490
  573TIP3   OH223209   4.544   2.418   2.357  0.1937 -0.3035 -0.3545
  573TIP3    H123210   4.618   2.473   2.384 -0.3203  0.1312  0.1811
  573TIP3    H223211   4.583   2.331   2.346  0.4004 -0.6176  2.1434
  574TIP3   OH223212   6.534   5.571  16.195 -0.0779 -0.3243  0.2319
  574TIP3    H123213   6.568   5.614  16.116 -1.6539  0.2864 -0.1493
  574TIP3    H223214   6.538   5.478  16.175 -0.0301 -0.1962 -0.3886
  575TIP3   OH223215   0.905   2.373  11.699 -0.1096  0.1001 -0.4770
  575TIP3    H123216   0.903   2.332  11.612  0.8885 -0.9074 -0.0465
  575TIP3    H223217   0.997   2.399  11.711  0.3722 -2.1190  1.3029
  576TIP3   OH223218   1.559   3.710  16.533 -0.0397 -0.1539 -0.1522
  576TIP3    H123219   1.574   3.719  16.439  0.5592  0.1132 -0.0352
  576TIP3    H223220   1.470   3.743  16.546 -0.4839 -1.0879 -0.7605
  577TIP3   OH223221   2.968   6.220  12.415  0.1734  0.2330 -0.5943
  577TIP3    H123222   2.950   6.267  12.496  0.3258 -0.3977 -0.1874
  577TIP3    H223223   2.888   6.232  12.362 -0.4896 -0.4875  0.2092
  578TIP3   OH223224   5.662   2.382  16.394  0.1500  0.4093  0.1389
  578TIP3    H123225   5.596   2.393  16.462  1.1401  0.6800  1.0814
  578TIP3    H223226   5.685   2.289  16.398  2.2669  0.9292  2.2030
  579TIP3   OH223227   3.591   6.358   2.370  0.3110 -0.5800  0.5227
  579TIP3    H123228   3.610   6.365   2.464 -0.1594 -1.0730  0.6578
  579TIP3    H223229   3.661   6.303   2.335  2.2766  2.0455  0.0023
  580TIP3   OH223230   5.273   4.422   4.503  0.3683  0.5238  0.3820
  580TIP3    H123231   5.329   4.346   4.487  0.0837  0.3592  0.1484
  580TIP3    H223232   5.203   4.387   4.559 -0.7019  0.1952 -1.1142
  581TIP3   OH223233   2.672   2.050  11.252  0.2178 -0.2968  0.2252
  581TIP3    H123234   2.694   1.959  11.273  2.0832  0.0196 -0.1547
  581TIP3    H223235   2.585   2.046  11.213  1.5728 -2.3916 -2.9784
  582TIP3   OH223236   4.333   4.161  15.481  0.3318 -0.6951 -0.0957
  582TIP3    H123237   4.242   4.160  15.511  0.1663  0.0313 -0.5530
  582TIP3    H223238   4.326   4.151  15.386  0.8572 -3.2877  0.0486
  583TIP3   OH223239   2.311   3.475   6.039  0.0562  0.1231 -0.1898
  583TIP3    H123240   2.381   3.417   6.010  0.8023 -0.0536  1.8370
  583TIP3    H223241   2.240   3.416   6.065  1.0516 -0.0215  2.4873
  584TIP3   OH223242   6.637   5.817   2.237  0.1955 -0.5381 -0.4387
  584TIP3    H123243   6.571   5.754   2.207 -0.5391 -0.0463  0.1126
  584TIP3    H223244   6.616   5.898   2.190  0.8116 -0.5528 -0.7471
  585TIP3   OH223245   6.603   5.876  14.061  0.7488 -0.1849 -0.0484
  585TIP3    H123246   6.604   5.923  13.978  4.0485 -1.0824 -0.6894
  585TIP3    H223247   6.689   5.896  14.100 -0.4584 -0.2594  2.8948
  586TIP3   OH223248   6.758   2.461   5.675 -0.2489  0.0668 -0.2614
  586TIP3    H123249   6.843   2.452   5.632 -0.7896 -3.3811 -0.9352
  586TIP3    H223250   6.697   2.483   5.604 -0.2055  0.9048 -0.0551
  587TIP3   OH223251   5.178   4.368   6.109  0.6075 -0.3309 -0.6357
  587TIP3    H123252   5.139   4.446   6.148  0.6150  0.3294 -1.9149
  587TIP3    H223253   5.254   4.348   6.164  0.1504  0.0798  0.1596
  588TIP3   OH223254   6.340   1.639  14.996  0.2166 -0.0750 -0.0075
  588TIP3    H123255   6.299   1.701  15.056  0.9667  0.7131 -0.2820
  588TIP3    H223256   6.270   1.579  14.971  0.3112 -1.7362  3.2330
  589TIP3   OH223257   3.267   4.914  14.341 -0.7686 -0.5508 -0.2730
  589TIP3    H123258   3.261   4.922  14.436 -1.1659  1.1415 -0.4092
  589TIP3    H223259   3.208   4.981  14.308 -0.2486 -0.7776 -1.7237
  590TIP3   OH223260   5.253   6.740  16.094  0.5489 -0.2927 -0.0758
  590TIP3    H123261   5.276   6.754  16.002  1.1014 -1.0191 -0.0626
  590TIP3    H223262   5.264   6.825  16.135  0.3289  0.0303 -0.6761
  591TIP3   OH223263   1.068   2.895  15.738  0.3105 -0.7231  0.4537
  591TIP3    H123264   1.049   2.950  15.662 -0.8946 -0.2999  1.0360
  591TIP3    H223265   1.157   2.920  15.764  0.0837  0.3688  0.2208
  592TIP3   OH223266   3.605   1.994  15.222  0.3881  0.2231 -0.3315
  592TIP3    H123267   3.663   2.015  15.294 -2.9792  0.7562  2.5059
  592TIP3    H223268   3.651   1.925  15.173  2.8181 -0.2531  2.3727
  593TIP3   OH223269   6.673   5.169   3.660 -0.4923 -0.0251  0.3981
  593TIP3    H123270   6.750   5.133   3.616 -1.3579  0.7016 -1.8868
  593TIP3    H223271   6.679   5.137   3.750  1.1942 -1.9646 -0.3236
  594TIP3   OH223272   1.839   0.781   4.541  0.4633  0.7276  0.2769
  594TIP3    H123273   1.770   0.749   4.482  2.2912  0.8394 -2.0606
  594TIP3    H223274   1.833   0.876   4.534  1.2629  0.7305 -0.4719
  595TIP3   OH223275   1.316   3.525   2.088  0.8241 -0.3726  0.1804
  595TIP3    H123276   1.227   3.561   2.093  1.7067  1.8467  0.8242
  595TIP3    H223277   1.329   3.481   2.172  0.7751  0.4191  0.6097
  596TIP3   OH223278   1.110   6.266  12.887 -0.0442 -0.4948 -0.1121
  596TIP3    H123279   1.073   6.206  12.821  0.6369 -0.4959 -0.5048
  596TIP3    H223280   1.202   6.240  12.893  0.4844  1.0621 -0.9339
  597TIP3   OH223281   3.024   3.390  15.046  0.3312 -0.1099  0.2397
  597TIP3    H123282   3.061   3.478  15.059 -1.2723  0.9850 -1.9050
  597TIP3    H223283   3.027   3.349  15.132  1.5831  1.8623  1.2044
  598TIP3   OH223284   1.174   1.077  14.827 -0.5411 -0.0239  0.3201
  598TIP3    H123285   1.184   1.156  14.879  1.4578 -0.5823  0.8487
  598TIP3    H223286   1.151   1.109  14.739  1.7370  1.2546  0.1280
  599TIP3   OH223287   3.951   4.322   5.931 -0.6655 -0.2132 -0.5092
  599TIP3    H123288   3.985   4.235   5.949 -1.1514  0.0218  1.9238
  599TIP3    H223289   3.887   4.338   6.001  0.4781  2.6376  0.0458
  600TIP3   OH223290   5.757   0.832  16.126  0.1172 -0.1028  0.0961
  600TIP3    H123291   5.722   0.903  16.180 -0.5474  1.7069 -2.5039
  600TIP3    H223292   5.684   0.771  16.116  0.7952 -1.4437  2.6303
  601TIP3   OH223293   5.644   6.475   1.168 -0.0340  0.1792 -0.2614
  601TIP3    H123294   5.631   6.543   1.235 -0.0084 -0.3046  0.2429
  601TIP3    H223295   5.713   6.510   1.111  0.7945  0.0900  0.6614
  602TIP3   OH223296   6.630   4.960  15.941 -0.2732  0.3576 -0.1200
  602TIP3    H123297   6.700   5.025  15.933 -0.9201  0.8566 -2.4928
  602TIP3    H223298   6.601   4.946  15.851 -1.6889 -1.5510  0.5848
  603TIP3   OH223299   3.609   6.592   3.378 -0.3508  0.5269 -0.1568
  603TIP3    H123300   3.663   6.594   3.457 -1.0322  0.5872  0.3146
  603TIP3    H223301   3.564   6.677   3.377  0.8711  1.2057 -1.4896
  604TIP3   OH223302   1.034   0.879  12.958 -0.4163  0.0425 -0.1223
  604TIP3    H123303   1.080   0.871  12.874  0.2182 -0.1707  0.2342
  604TIP3    H223304   1.087   0.940  13.009  0.5585 -1.6008  0.9696
  605TIP3   OH223305   1.032   2.380  12.699 -0.6509  0.2208 -0.4429
  605TIP3    H123306   1.120   2.362  12.667 -0.3900  1.1283 -0.2735
  605TIP3    H223307   0.974   2.329  12.642  0.0363 -1.3972  0.2465
  606TIP3   OH223308   2.626   5.690  10.396 -0.2159 -0.0349 -0.7004
  606TIP3    H123309   2.641   5.602  10.431  0.9820  0.7095  0.8016
  606TIP3    H223310   2.546   5.720  10.439 -0.9625 -0.5961 -1.6745
  607TIP3   OH223311   4.721   6.152   4.243 -0.4412  0.4864 -0.0115
  607TIP3    H123312   4.645   6.165   4.187 -0.0502 -1.1076 -0.9893
  607TIP3    H223313   4.778   6.093   4.193  1.4107  1.5610  0.7209
  608TIP3   OH223314   1.384   0.728  11.039  0.0993  0.2801  0.1007
  608TIP3    H123315   1.422   0.812  11.013  0.4269 -0.5261 -2.2676
  608TIP3    H223316   1.448   0.663  11.011 -0.7579 -0.8356  0.6562
  609TIP3   OH223317   4.704   2.014   1.633  0.4363  0.5249 -0.4304
  609TIP3    H123318   4.773   2.004   1.699  0.3722 -0.9030 -0.5293
  609TIP3    H223319   4.747   2.054   1.558  0.6792  1.4897  0.2138
  610TIP3   OH223320   5.263   3.604  15.593 -0.6150  0.0747  0.3589
  610TIP3    H123321   5.283   3.638  15.680  0.7498 -0.9307  0.4781
  610TIP3    H223322   5.336   3.633  15.538  0.6362 -2.5618  0.4765
  611TIP3   OH223323   3.571   3.455   0.819 -0.3836 -0.2505 -0.5111
  611TIP3    H123324   3.604   3.484   0.734 -0.9627  0.0623 -0.6337
  611TIP3    H223325   3.569   3.360   0.813  0.7697 -0.2960 -0.3922
  612TIP3   OH223326   4.261   2.541  14.474 -0.0480 -0.5488 -0.1155
  612TIP3    H123327   4.230   2.608  14.413  1.8955  0.3210 -0.1862
  612TIP3    H223328   4.303   2.475  14.418  1.0973 -0.1075  0.2158
  613TIP3   OH223329   1.136   3.173  10.778 -0.1310 -0.1421 -0.2765
  613TIP3    H123330   1.196   3.231  10.731  2.0586 -0.8158  1.5122
  613TIP3    H223331   1.183   3.090  10.784 -1.8653 -1.1504 -0.0120
  614TIP3   OH223332   6.654   4.846  12.915  0.0660  0.2546 -0.3483
  614TIP3    H123333   6.606   4.918  12.874  3.2506  1.3380 -2.5840
  614TIP3    H223334   6.639   4.771  12.858 -0.6996 -0.0012  0.1855
  615TIP3   OH223335   4.820   1.101  12.933  0.2476  0.6265 -0.3810
  615TIP3    H123336   4.821   1.059  13.019 -1.0018  0.3834 -0.4726
  615TIP3    H223337   4.773   1.184  12.947  0.2136  0.6796 -0.7926
  616TIP3   OH223338   1.350   3.797   2.528  0.3287  0.3098 -0.5207
  616TIP3    H123339   1.423   3.739   2.549 -0.0076 -0.4719 -1.4198
  616TIP3    H223340   1.274   3.757   2.570  0.1619  0.3277 -0.8056
  617TIP3   OH223341   2.788   2.541   5.301 -0.4410  0.2205 -0.2576
  617TIP3    H123342   2.864   2.538   5.243 -0.5404  0.5822 -0.4110
  617TIP3    H223343   2.825   2.542   5.389 -0.3163 -2.1790 -0.2240
  618TIP3   OH223344   2.111   2.726   0.922  0.0930 -0.4187 -0.6388
  618TIP3    H123345   2.038   2.670   0.899 -0.6532  0.0881  0.4038
  618TIP3    H223346   2.099   2.745   1.015 -0.1174  2.0669 -1.0940
  619TIP3   OH223347   3.062   2.498   0.591 -0.2837 -0.4456  0.2768
  619TIP3    H123348   3.116   2.559   0.641 -0.7692 -0.6966  1.1384
  619TIP3    H223349   3.108   2.414   0.599 -1.3353 -0.9208  1.9933
  620TIP3   OH223350   1.143   0.201   1.590  0.3670 -0.1789  0.0121
  620TIP3    H123351   1.212   0.172   1.530  0.4833  0.2972 -0.0890
  620TIP3    H223352   1.116   0.122   1.636  0.0627 -0.6181 -0.8877
  621TIP3   OH223353   5.783   4.270  15.239 -0.2897 -0.7831  0.3610
  621TIP3    H123354   5.780   4.200  15.304  0.6323  0.0939  1.3870
  621TIP3    H223355   5.721   4.243  15.171 -0.6438 -2.1245  1.1914
  622TIP3   OH223356   1.390   0.198  16.074  0.1930  0.2384 -0.0067
  622TIP3    H123357   1.426   0.286  16.090  0.9990 -0.2806  1.1649
  622TIP3    H223358   1.312   0.214  16.022  1.7280  1.4861 -2.1255
  623TIP3   OH223359   3.870   3.414   3.313  0.6011 -0.1838  0.3520
  623TIP3    H123360   3.845   3.493   3.361  1.8665 -0.1413  0.9605
  623TIP3    H223361   3.811   3.347   3.346  0.1131  0.2991  0.4810
  624TIP3   OH223362   5.349   3.746  13.346  0.1688 -0.0373 -0.1982
  624TIP3    H123363   5.320   3.751  13.255  0.5321 -0.6108 -0.3526
  624TIP3    H223364   5.400   3.826  13.360 -0.4681  0.3894 -0.2840
  625TIP3   OH223365   6.442   5.933  14.975  0.1994  0.5066 -0.2407
  625TIP3    H123366   6.517   5.941  14.916  0.5058 -0.2144  0.0387
  625TIP3    H223367   6.410   5.844  14.961 -0.3011  0.6471  0.0014
  626TIP3   OH223368   1.018   4.749  11.707 -0.6577 -0.1364  0.2957
  626TIP3    H123369   1.047   4.681  11.646 -1.3942 -0.4502  0.2767
  626TIP3    H223370   1.090   4.759  11.768 -0.9560 -1.7289  0.9434
  627TIP3   OH223371   1.423   3.869  10.340 -0.1361  0.8491  0.2598
  627TIP3    H123372   1.453   3.788  10.381 -1.1177 -0.0576 -0.7630
  627TIP3    H223373   1.438   3.936  10.407 -0.8191 -0.4157  1.7410
  628TIP3   OH223374   5.060   1.719   3.479 -0.3777 -0.3984 -0.0556
  628TIP3    H123375   4.966   1.720   3.458 -0.3800 -1.5765 -0.1436
  628TIP3    H223376   5.100   1.770   3.409 -1.2517  3.1784  1.7755
  629TIP3   OH223377   3.362   6.725   3.688 -0.1878 -0.0794  0.2725
  629TIP3    H123378   3.274   6.691   3.702 -0.0044 -0.8032 -0.3000
  629TIP3    H223379   3.420   6.654   3.719  0.2152  1.0960  2.4051
  630TIP3   OH223380   5.302   1.546   0.830  0.3671  0.0361  0.0344
  630TIP3    H123381   5.364   1.488   0.786  1.1839  1.5351 -0.8793
  630TIP3    H223382   5.357   1.602   0.885 -0.4607 -0.3974  1.3656
  631TIP3   OH223383   6.652   6.644   2.691 -0.0858  0.1990  0.3794
  631TIP3    H123384   6.742   6.673   2.709  0.9809 -2.4109 -0.2361
  631TIP3    H223385   6.636   6.670   2.600  0.5747 -0.4209  0.0713
  632TIP3   OH223386   6.698   2.372   4.589  0.5594 -0.0046  0.2850
  632TIP3    H123387   6.744   2.354   4.508 -0.1752 -0.4359 -0.0437
  632TIP3    H223388   6.729   2.459   4.615  1.1635 -0.0706 -0.1909
  633TIP3   OH223389   2.052   5.721   2.967 -0.3154  0.3918  0.6514
  633TIP3    H123390   2.065   5.639   3.014 -0.9787 -0.2918 -0.3177
  633TIP3    H223391   2.139   5.760   2.961  0.2743 -0.9919 -0.2261
  634TIP3   OH223392   0.801   5.609   5.106  0.4225 -0.2909  0.7331
  634TIP3    H123393   0.873   5.564   5.151  0.2974  0.1487  1.3834
  634TIP3    H223394   0.722   5.573   5.146  0.1979 -1.8323 -0.9623
  635TIP3   OH223395   0.609   6.509  16.132  0.2976  0.2155 -0.2898
  635TIP3    H123396   0.528   6.473  16.167  0.5677  0.1468  0.2674
  635TIP3    H223397   0.620   6.592  16.178  0.5018  0.2616 -0.4210
  636TIP3   OH223398   5.361   2.386  11.246  0.8226 -0.1973 -0.1715
  636TIP3    H123399   5.297   2.326  11.207  0.9149 -0.4156  0.0145
  636TIP3    H223400   5.440   2.373  11.194  0.0164  1.9493 -2.1299
  637TIP3   OH223401   0.444   5.862  12.258  0.2342  0.0465 -0.2544
  637TIP3    H123402   0.504   5.816  12.317  0.3492  0.0313 -0.3806
  637TIP3    H223403   0.465   5.955  12.270 -0.0289  0.0677  0.0332
  638TIP3   OH223404   3.459   1.414  16.751  0.5441  0.5245 -0.3608
  638TIP3    H123405   3.400   1.339  16.761  0.8959  0.1372 -1.1035
  638TIP3    H223406   3.445   1.465  16.830 -0.6961  0.3797 -0.4511
  639TIP3   OH223407   0.397   1.141   2.704  0.3867  0.4834  0.0648
  639TIP3    H123408   0.356   1.077   2.646  0.5863 -0.4742  0.9483
  639TIP3    H223409   0.479   1.164   2.660 -0.2851  1.1272 -0.8825
  640TIP3   OH223410   5.739   2.542  16.844  0.4963  0.7791  0.0406
  640TIP3    H123411   5.755   2.583  16.758  0.4697  1.1393  0.2043
  640TIP3    H223412   5.707   2.454  16.823  1.8918  0.3233 -0.2986
  641TIP3   OH223413   1.179   4.526   5.648 -0.3091  0.4218 -0.5313
  641TIP3    H123414   1.180   4.480   5.564  0.4051 -0.6020  0.0200
  641TIP3    H223415   1.204   4.616   5.626 -0.2414  0.1965 -1.4251
  642TIP3   OH223416   2.597   5.899   1.056  0.0212  0.4103  0.2031
  642TIP3    H123417   2.619   5.885   1.148  0.7574  0.6379  0.0723
  642TIP3    H223418   2.679   5.883   1.009 -0.3587  0.2389 -0.4230
  643TIP3   OH223419   1.008   2.764   3.023 -0.3846  0.6450  0.0449
  643TIP3    H123420   1.001   2.856   3.000 -0.5660  0.4088 -0.8976
  643TIP3    H223421   1.055   2.724   2.950 -0.0215  0.0444  0.5911
  644TIP3   OH223422   5.272   6.050  11.843  0.1050  0.2370  0.3110
  644TIP3    H123423   5.259   5.999  11.923  0.1071 -1.0183 -0.4504
  644TIP3    H223424   5.301   5.985  11.778 -0.1687  1.1674 -0.7759
  645TIP3   OH223425   5.696   1.439  15.558 -0.1923  0.3437  0.5527
  645TIP3    H123426   5.669   1.397  15.640  0.0390 -0.2887  0.3093
  645TIP3    H223427   5.791   1.426  15.555 -0.3129 -0.3873 -0.2346
  646TIP3   OH223428   4.833   5.699  12.933  0.6070 -0.2010 -0.3661
  646TIP3    H123429   4.877   5.614  12.942  2.8181  1.0416  2.1745
  646TIP3    H223430   4.740   5.678  12.939  1.0953 -2.4325  1.0330
  647TIP3   OH223431   1.241   3.720  10.144 -0.5172 -0.4005  0.0792
  647TIP3    H123432   1.280   3.777  10.210  0.8741  0.2198 -1.2367
  647TIP3    H223433   1.278   3.634  10.162 -2.1144 -0.8354  1.6523
  648TIP3   OH223434   5.797   1.189  15.255  0.2537  0.0759 -0.3826
  648TIP3    H123435   5.873   1.207  15.311 -1.0409 -1.7749  2.1814
  648TIP3    H223436   5.728   1.245  15.290 -0.8450 -1.8137  0.6102
  649TIP3   OH223437   3.595   2.915  12.673 -0.3381 -0.0786  0.4416
  649TIP3    H123438   3.567   2.826  12.693 -1.1833  0.0259 -0.2421
  649TIP3    H223439   3.672   2.904  12.617 -0.9825 -0.3854 -0.3893
  650TIP3   OH223440   4.761   0.833   1.326  0.2420  0.1685 -0.3045
  650TIP3    H123441   4.719   0.797   1.248  0.6754  0.0208 -0.4758
  650TIP3    H223442   4.704   0.904   1.354 -1.4939 -1.6112  0.9570
  651TIP3   OH223443   0.560   0.082  16.965 -0.5695  0.3978  0.6117
  651TIP3    H123444   0.608   0.142  17.022  0.2894  1.5035 -1.1844
  651TIP3    H223445   0.540   0.007  17.020  0.0609  1.4890  2.3954
  652TIP3   OH223446   1.956   1.537  13.917  0.4270 -0.3688  0.1403
  652TIP3    H123447   1.948   1.543  14.012 -4.0451  2.3231 -0.1224
  652TIP3    H223448   1.997   1.619  13.891  3.2848 -1.7994 -0.4023
  653TIP3   OH223449   4.411   4.008  14.886  0.3946  0.2115  0.6286
  653TIP3    H123450   4.324   4.020  14.847  0.6732 -1.5225 -0.6734
  653TIP3    H223451   4.467   4.070  14.839  0.4226 -0.7958 -0.7233
  654TIP3   OH223452   2.691   2.668   2.181  0.4969 -0.2091 -0.0344
  654TIP3    H123453   2.707   2.635   2.270  2.2818  0.8891  0.0842
  654TIP3    H223454   2.777   2.675   2.141  0.1523  2.9487 -0.5161
  655TIP3   OH223455   0.328   4.173  11.700 -0.1066 -0.8496  0.3684
  655TIP3    H123456   0.336   4.213  11.613  0.9296 -0.3406  0.6891
  655TIP3    H223457   0.406   4.118  11.708 -1.3933 -2.8209  0.0226
  656TIP3   OH223458   6.216   4.486  14.001 -0.1083  0.7764  0.1214
  656TIP3    H123459   6.228   4.580  14.016 -0.4131  0.8488 -0.0828
  656TIP3    H223460   6.196   4.451  14.088  0.5527  0.8116  0.2942
  657TIP3   OH223461   4.649   2.358   1.516 -0.8252 -0.1938  0.2417
  657TIP3    H123462   4.655   2.270   1.478  1.3703 -0.0784  0.1626
  657TIP3    H223463   4.638   2.343   1.610 -0.2519 -0.5656  0.2545
  658TIP3   OH223464   4.339   0.118  14.588 -0.0080 -0.7599 -0.2561
  658TIP3    H123465   4.363   0.209  14.608 -0.1847 -1.1141  1.6985
  658TIP3    H223466   4.336   0.115  14.492 -0.4942  1.4151 -0.3558
  659TIP3   OH223467   1.952   4.949  16.886  0.4438  1.1909  0.1690
  659TIP3    H123468   1.926   4.935  16.796  0.5844  0.4197  0.2427
  659TIP3    H223469   1.972   5.043  16.891 -0.6322  1.4572 -0.3069
  660TIP3   OH223470   3.991   2.647   5.878 -0.0753  0.8878 -0.4425
  660TIP3    H123471   3.942   2.723   5.849 -3.0469 -0.3211  1.0177
  660TIP3    H223472   3.939   2.572   5.848  0.2227 -0.4608  2.1575
  661TIP3   OH223473   0.373   3.915  10.973  0.2449  0.1995 -0.7003
  661TIP3    H123474   0.449   3.920  10.914  2.2945 -0.5096  1.7369
  661TIP3    H223475   0.333   4.002  10.967  0.9814  0.4673 -2.3371
  662TIP3   OH223476   3.301   2.595  12.879 -0.3319 -0.6642  0.5014
  662TIP3    H123477   3.265   2.679  12.852  0.2046 -0.6595 -0.2449
  662TIP3    H223478   3.248   2.569  12.954 -1.2806 -0.2379 -0.0005
  663TIP3   OH223479   3.551   6.016  12.582  0.0577  0.7420 -0.3584
  663TIP3    H123480   3.604   6.055  12.512 -0.4170  0.6589 -0.7773
  663TIP3    H223481   3.487   6.083  12.604  0.0896  0.6990 -0.1339
  664TIP3   OH223482   4.567   3.253  11.976 -0.2760 -0.2805  0.3896
  664TIP3    H123483   4.504   3.295  12.034 -0.6223 -1.0740  0.6016
  664TIP3    H223484   4.544   3.284  11.889 -0.8852 -0.4666  0.4808
  665TIP3   OH223485   5.309   6.437   4.739 -0.2705 -0.0039 -0.4623
  665TIP3    H123486   5.237   6.428   4.677  0.0834 -3.1242 -0.5994
  665TIP3    H223487   5.376   6.377   4.706  2.1214  2.1709  0.1059
  666TIP3   OH223488   1.950   3.865  14.848  0.0871  0.0748  0.1491
  666TIP3    H123489   1.898   3.809  14.906 -1.7016 -0.2763 -1.6841
  666TIP3    H223490   1.910   3.952  14.856 -0.3163 -0.0261 -0.6935
  667TIP3   OH223491   5.688   6.307  16.892  0.0647 -0.0369 -0.2841
  667TIP3    H123492   5.751   6.379  16.890 -0.5588  0.5187 -0.6748
  667TIP3    H223493   5.684   6.277  16.801 -0.3495  0.0427 -0.2944
  668TIP3   OH223494   0.580   5.926   5.230 -0.1112  0.3122 -0.0194
  668TIP3    H123495   0.591   5.926   5.325  0.3076  0.1311 -0.0674
  668TIP3    H223496   0.539   6.010   5.211 -1.6823 -0.2924  0.4928
  669TIP3   OH223497   2.904   2.776   2.653  0.0110  0.2172  0.3965
  669TIP3    H123498   2.851   2.791   2.731  0.4092 -3.3621  1.5622
  669TIP3    H223499   2.845   2.732   2.592  0.7652 -0.9260  0.4609
  670TIP3   OH223500   4.728   5.216   2.310 -0.3676 -0.1275 -0.0170
  670TIP3    H123501   4.637   5.201   2.334 -0.1572 -0.4046  0.6261
  670TIP3    H223502   4.778   5.162   2.371  0.1786 -0.9953 -1.1958
  671TIP3   OH223503   0.026   6.297   0.763 -0.4176 -0.1274 -0.2694
  671TIP3    H123504  -0.036   6.328   0.828 -0.0107  0.5657 -0.1976
  671TIP3    H223505  -0.011   6.215   0.731 -0.5870 -0.5146  0.8768
  672TIP3   OH223506   6.679   6.294  16.218  0.1894  0.1612  0.5431
  672TIP3    H123507   6.668   6.378  16.263 -1.6421 -1.0901  2.6934
  672TIP3    H223508   6.684   6.317  16.125 -0.9711  2.6070  0.9810
  673TIP3   OH223509   1.499   0.638  16.670  0.3010  0.8031  0.3951
  673TIP3    H123510   1.478   0.690  16.593  0.2267  0.3615  0.1094
  673TIP3    H223511   1.428   0.657  16.732  0.1916  0.9185  0.2345
  674TIP3   OH223512   2.775   0.401  16.525 -0.6930 -0.6521 -0.0110
  674TIP3    H123513   2.800   0.357  16.606 -0.4308 -1.1002 -0.3297
  674TIP3    H223514   2.721   0.475  16.553 -2.2018 -1.8796  0.4685
  675TIP3   OH223515   3.332   3.588  13.875 -0.1296  0.0530  0.2605
  675TIP3    H123516   3.276   3.578  13.798 -1.2763  0.0592  1.0694
  675TIP3    H223517   3.304   3.519  13.934 -0.3971  1.0391  1.3215
  676TIP3   OH223518   3.325   4.964  11.492 -0.4220  0.1350  0.0965
  676TIP3    H123519   3.359   4.906  11.424 -0.5297 -0.6427  0.6949
  676TIP3    H223520   3.293   5.040  11.445  3.0535  1.4463 -0.4964
  677TIP3   OH223521   3.835   6.070  13.600 -0.2643  0.1205  0.4941
  677TIP3    H123522   3.900   6.090  13.532 -0.3167  0.7810  0.6308
  677TIP3    H223523   3.847   6.139  13.665 -1.2545  0.3833  0.4114
  678TIP3   OH223524   1.399   0.013   2.797  0.3448 -0.1149  0.2768
  678TIP3    H123525   1.402  -0.079   2.822 -2.0577  0.1912  1.9674
  678TIP3    H223526   1.308   0.029   2.773  0.7926  1.7391 -0.3482
  679TIP3   OH223527   0.414   5.385  10.988  0.2635  0.0221  0.4216
  679TIP3    H123528   0.465   5.305  10.973 -0.9597 -0.5770 -0.8075
  679TIP3    H223529   0.366   5.368  11.069 -0.2933 -0.6741 -0.0409
  680TIP3   OH223530   3.125   2.390  11.422 -0.5337 -0.1681  0.3379
  680TIP3    H123531   3.172   2.419  11.500 -1.1277  0.6222  0.4226
  680TIP3    H223532   3.093   2.472  11.383 -1.5789 -0.6617  0.1288
  681TIP3   OH223533   4.035   4.885   6.758 -0.2513 -0.6918  0.1713
  681TIP3    H123534   3.967   4.826   6.791  0.2250 -0.2317  2.0589
  681TIP3    H223535   4.048   4.857   6.667 -3.0503 -0.6749 -0.3046
  682TIP3   OH223536   0.457   5.796   6.530  0.0587 -0.3578 -0.0687
  682TIP3    H123537   0.498   5.875   6.493  3.1653 -1.6451  0.2885
  682TIP3    H223538   0.415   5.827   6.611  1.4195  0.9516  0.1972
  683TIP3   OH223539   4.304   5.400   0.665 -0.5461 -0.8121 -0.0669
  683TIP3    H123540   4.340   5.311   0.665 -2.5436 -1.6725 -1.5270
  683TIP3    H223541   4.212   5.390   0.689 -0.5519  1.0176  0.8892
  684TIP3   OH223542   6.350   1.052   1.567  0.0799 -0.3562  0.0586
  684TIP3    H123543   6.282   1.007   1.517  0.1250 -0.5578  0.1771
  684TIP3    H223544   6.432   1.023   1.528  0.0723  1.6204 -1.5760
  685TIP3   OH223545   3.655   0.180   0.252  0.1444  0.1120 -0.8043
  685TIP3    H123546   3.690   0.226   0.175  0.5282  0.2653 -0.5460
  685TIP3    H223547   3.562   0.169   0.234 -0.5582  3.3051  0.2093
  686TIP3   OH223548   1.777   4.686   1.362  0.3316 -0.0635 -0.4192
  686TIP3    H123549   1.704   4.697   1.301 -1.2087  0.3617  1.3932
  686TIP3    H223550   1.840   4.754   1.338 -0.4630  0.4132 -1.2005
  687TIP3   OH223551   1.362   5.171  13.508  0.1445 -0.0452  0.4327
  687TIP3    H123552   1.363   5.196  13.600  0.3380  1.4005  0.0649
  687TIP3    H223553   1.452   5.184  13.479 -0.0635  0.1698 -0.1245
  688TIP3   OH223554   5.511   3.241  14.824  0.2010 -0.3387  0.2723
  688TIP3    H123555   5.512   3.182  14.749  1.5606 -1.1389  0.8719
  688TIP3    H223556   5.596   3.286  14.820  0.2817 -0.3729  1.2963
  689TIP3   OH223557   6.367   3.400   3.417  0.6028 -0.7087 -0.4855
  689TIP3    H123558   6.339   3.315   3.451 -1.3616  0.1430  0.1737
  689TIP3    H223559   6.402   3.380   3.330 -0.8572 -2.0823 -0.8190
  690TIP3   OH223560   4.842   5.133  14.901 -0.1178 -0.3407  0.1309
  690TIP3    H123561   4.746   5.130  14.910 -0.1896  1.1298  0.1237
  690TIP3    H223562   4.874   5.130  14.991 -0.3819  3.0797  0.4739
  691TIP3   OH223563   3.821   4.873  15.993  0.6450 -0.0036 -0.3851
  691TIP3    H123564   3.806   4.780  15.972  0.9273  0.5336 -3.4626
  691TIP3    H223565   3.763   4.891  16.067 -0.0711 -2.4195 -0.2742
  692TIP3   OH223566   6.571   1.616   0.244  0.1724 -0.0895  0.0272
  692TIP3    H123567   6.553   1.522   0.245  0.8014 -0.3144 -2.6323
  692TIP3    H223568   6.491   1.657   0.279  0.4908 -1.6115  2.7555
  693TIP3   OH223569   4.799   6.384   4.628  0.3438  0.2351  0.3747
  693TIP3    H123570   4.725   6.340   4.671  1.0493 -1.5446 -0.1311
  693TIP3    H223571   4.769   6.474   4.615 -2.2389 -0.6784 -0.8371
  694TIP3   OH223572   0.823   0.613  11.756  0.2411  0.6823 -0.2035
  694TIP3    H123573   0.911   0.649  11.769  0.5310  0.2292 -0.8322
  694TIP3    H223574   0.823   0.531  11.805  0.6926 -0.0691 -1.3960
  695TIP3   OH223575   1.349   0.896   4.749  0.3469 -0.5032  0.1607
  695TIP3    H123576   1.383   0.979   4.783  0.4150 -0.6329  0.4045
  695TIP3    H223577   1.390   0.829   4.803  2.1102 -0.8527 -1.4940
  696TIP3   OH223578   6.387   3.993   5.594  0.1774  0.0444 -0.3484
  696TIP3    H123579   6.458   3.950   5.547  0.3298 -2.2408  1.7873
  696TIP3    H223580   6.430   4.047   5.660 -0.0835  1.8191 -1.5357
  697TIP3   OH223581   1.470   4.817   0.565  0.2594  0.8756 -0.4738
  697TIP3    H123582   1.507   4.730   0.547  3.6694  2.3004 -1.0472
  697TIP3    H223583   1.384   4.799   0.602  0.8525 -2.7418 -0.5056
  698TIP3   OH223584   2.382   2.458  16.078  0.4016  0.1518  0.2477
  698TIP3    H123585   2.331   2.534  16.050 -0.6200 -0.5183  0.2410
  698TIP3    H223586   2.414   2.419  15.996 -0.8188 -0.6003  0.1099
  699TIP3   OH223587   5.937   0.759  13.644  0.7346 -0.2774  0.3838
  699TIP3    H123588   5.924   0.717  13.559 -0.0733  0.0170  0.3562
  699TIP3    H223589   5.903   0.696  13.707 -2.8158  1.2545  0.1975
  700TIP3   OH223590   3.871   6.109   4.945 -0.8791 -0.2164 -0.3607
  700TIP3    H123591   3.782   6.078   4.927 -1.0152 -0.1906  0.2371
  700TIP3    H223592   3.926   6.034   4.925 -0.9390  0.0471 -1.6014
  701TIP3   OH223593   4.559   0.523  15.697  0.2515 -0.0951  0.3339
  701TIP3    H123594   4.582   0.588  15.631  0.5095  1.0334  1.5042
  701TIP3    H223595   4.640   0.473  15.710  0.9395  1.2508  1.5117
  702TIP3   OH223596   0.521   5.361   1.824 -0.0365  0.5305 -0.4106
  702TIP3    H123597   0.439   5.313   1.837  0.4658  0.0403  1.1028
  702TIP3    H223598   0.590   5.299   1.847  0.6237  1.9813  1.8672
  703TIP3   OH223599   0.208   3.120  12.916 -1.5871 -0.4732  0.2888
  703TIP3    H123600   0.213   3.203  12.964 -0.2038 -1.1489  1.3613
  703TIP3    H223601   0.208   3.146  12.824 -1.1392  0.7240  0.6087
  704TIP3   OH223602   2.754   2.991   3.537 -0.2268  0.2564  0.7603
  704TIP3    H123603   2.817   2.958   3.472 -0.9673  0.4924 -0.0939
  704TIP3    H223604   2.808   3.021   3.610  0.6682  0.6775 -0.0632
  705TIP3   OH223605   1.458   3.213   6.278 -0.4630  0.1020 -0.0959
  705TIP3    H123606   1.428   3.249   6.194 -0.4982 -1.0560 -0.5989
  705TIP3    H223607   1.492   3.126   6.256 -0.5584 -0.2578  1.1082
  706TIP3   OH223608   4.425   4.627  12.875  0.1687 -0.0844  0.2363
  706TIP3    H123609   4.351   4.614  12.815 -1.4047  0.0327  2.0564
  706TIP3    H223610   4.435   4.722  12.879 -0.6254 -0.0298  1.1676
  707TIP3   OH223611   3.876   1.495   6.496  0.9072 -0.1332 -0.2348
  707TIP3    H123612   3.787   1.460   6.487  0.5708  0.7303 -0.3916
  707TIP3    H223613   3.864   1.576   6.547  1.9804 -1.6311  2.6184
  708TIP3   OH223614   5.888   6.477  16.200  0.0645  0.0312  0.1993
  708TIP3    H123615   5.895   6.565  16.237 -1.1037  0.3408 -0.2797
  708TIP3    H223616   5.962   6.471  16.139  0.7089  0.3195  0.9425
  709TIP3   OH223617   5.246   6.014   5.771  0.5158  0.0091  0.7324
  709TIP3    H123618   5.302   5.952   5.724  0.2150  0.6745 -0.5300
  709TIP3    H223619   5.236   6.088   5.711  0.0902  0.8766  1.8349
  710TIP3   OH223620   3.531   4.656  16.562 -0.3377  0.5045 -0.0029
  710TIP3    H123621   3.496   4.745  16.566 -0.7722  0.3482 -0.2612
  710TIP3    H223622   3.612   4.664  16.511 -0.4088  0.7388 -0.0807
  711TIP3   OH223623   4.052   4.217  11.130 -0.1517  0.1365  0.0614
  711TIP3    H123624   4.058   4.143  11.191 -1.1093  0.7486  0.9312
  711TIP3    H223625   4.017   4.179  11.049  0.5703 -0.5793  0.0675
  712TIP3   OH223626   0.149   4.197   5.752  0.4596 -0.1406 -0.0626
  712TIP3    H123627   0.081   4.261   5.731  0.1947  0.5862  2.6287
  712TIP3    H223628   0.102   4.117   5.773  0.5932 -0.3335 -0.4933
  713TIP3   OH223629   1.932   4.496   3.878 -0.5476  0.2383 -0.2070
  713TIP3    H123630   1.889   4.422   3.834  1.0640 -1.4755  0.9353
  713TIP3    H223631   2.010   4.513   3.826 -0.8437  1.0972 -0.3897
  714TIP3   OH223632   0.177   3.053   4.736  0.7994 -0.2190  0.4496
  714TIP3    H123633   0.244   3.110   4.773 -0.0434  0.5129  0.9076
  714TIP3    H223634   0.182   3.067   4.642 -0.2240  1.6293  0.6221
  715TIP3   OH223635   1.500   2.874   1.859 -0.5364  0.3884 -0.2564
  715TIP3    H123636   1.526   2.939   1.794  0.9006  1.4889  1.3629
  715TIP3    H223637   1.575   2.815   1.865  0.3411  1.6249  2.0017
  716TIP3   OH223638   6.166   3.603   0.038  0.5413 -0.0074 -0.4221
  716TIP3    H123639   6.143   3.601  -0.055 -2.7143 -1.3603  0.2809
  716TIP3    H223640   6.214   3.522   0.053 -1.5641 -1.3213 -0.4335
  717TIP3   OH223641   4.831   2.269  14.527 -0.2402  0.5401  0.3260
  717TIP3    H123642   4.914   2.314  14.511  0.8459 -0.1162  3.5071
  717TIP3    H223643   4.854   2.176  14.530 -1.4383  0.1907 -0.4317
  718TIP3   OH223644   0.868   6.447   1.613 -0.0026  0.1003  0.2109
  718TIP3    H123645   0.793   6.435   1.672  0.2343  2.3126  1.0629
  718TIP3    H223646   0.942   6.408   1.660 -0.3937 -1.1477 -0.1681
  719TIP3   OH223647   5.680   6.551   6.726  0.1336  0.4778  0.0156
  719TIP3    H123648   5.624   6.474   6.731  1.3822 -0.5496 -1.2060
  719TIP3    H223649   5.622   6.621   6.696 -0.5098 -0.5679 -1.2595
  720TIP3   OH223650   5.113   4.163  10.627  0.1792 -0.1516 -0.0006
  720TIP3    H123651   5.049   4.163  10.698 -0.0314 -0.9365 -0.1698
  720TIP3    H223652   5.115   4.253  10.595  1.1638  0.4970  1.7690
  721TIP3   OH223653   6.132   1.044  15.213 -0.2559 -0.0082 -0.0052
  721TIP3    H123654   6.183   1.054  15.293 -0.9299  1.4896  0.2770
  721TIP3    H223655   6.136   0.950  15.194  0.7471 -0.2483  1.2132
  722TIP3   OH223656   4.043   1.217   4.750  0.4728  0.1525  0.2239
  722TIP3    H123657   4.015   1.212   4.659  1.1913 -0.0687  0.0070
  722TIP3    H223658   3.997   1.293   4.786 -0.0007  0.0971 -0.2530
  723TIP3   OH223659   2.772   5.441   0.609 -0.2322  0.2056  0.6405
  723TIP3    H123660   2.741   5.454   0.699 -1.5368  0.6777  0.1494
  723TIP3    H223661   2.823   5.360   0.613  0.9224  0.9447  2.0711
  724TIP3   OH223662   4.287   4.061   5.647  0.0149  0.2047  0.1790
  724TIP3    H123663   4.280   3.997   5.718  0.1832  0.7174  0.6574
  724TIP3    H223664   4.300   4.007   5.569  0.7888 -0.3286  0.6574
  725TIP3   OH223665   5.501   2.574  15.179 -0.1619 -0.7111  0.3673
  725TIP3    H123666   5.497   2.487  15.217 -1.1345 -0.4885  0.8130
  725TIP3    H223667   5.409   2.601  15.171  0.0573 -0.2508 -0.9868
  726TIP3   OH223668   1.721   4.864   2.751  0.1744 -0.0125  0.1418
  726TIP3    H123669   1.797   4.917   2.728 -0.4922  0.5676 -0.8081
  726TIP3    H223670   1.666   4.924   2.803  0.8179 -0.7500  1.7609
  727TIP3   OH223671   2.116   6.250  16.488  0.8351  0.2009  0.0988
  727TIP3    H123672   2.107   6.270  16.395  0.7612  1.8217  0.4205
  727TIP3    H223673   2.078   6.325  16.533 -2.5199 -2.0997  1.5162
  728TIP3   OH223674   4.591   1.760   1.661 -0.0602  0.2032  0.0035
  728TIP3    H123675   4.656   1.828   1.642 -0.4147  0.5019 -0.1614
  728TIP3    H223676   4.598   1.746   1.755  1.6202 -1.1878 -0.2798
  729TIP3   OH223677   3.506   0.456   2.843  0.5926 -0.3042  0.4769
  729TIP3    H123678   3.490   0.461   2.749  1.2729  1.4086  0.4134
  729TIP3    H223679   3.590   0.409   2.851 -0.5417 -2.4496  0.3966
  730TIP3   OH223680   1.277   6.129  14.125 -0.5646 -0.4754 -0.8282
  730TIP3    H123681   1.210   6.122  14.057 -0.4898  1.8267 -1.2147
  730TIP3    H223682   1.352   6.168  14.080 -0.2558  0.3949  0.4044
  731TIP3   OH223683   0.909   2.275  15.515  0.4904  0.0478  0.5390
  731TIP3    H123684   0.961   2.210  15.562 -0.4510 -0.8885  0.3140
  731TIP3    H223685   0.972   2.319  15.457  0.9762 -1.3244 -0.0135
  732TIP3   OH223686   2.236   6.521  13.794 -0.1261 -0.2464  0.1661
  732TIP3    H123687   2.329   6.545  13.788 -0.0844 -0.4439  0.0224
  732TIP3    H223688   2.191   6.605  13.808  0.2908 -0.3889  2.8399
  733TIP3   OH223689   3.409   3.692  12.114 -0.0471  0.7294  0.2964
  733TIP3    H123690   3.385   3.705  12.206  0.8899 -0.1769  0.6845
  733TIP3    H223691   3.331   3.718  12.065 -1.1396 -0.3063  1.4256
  734TIP3   OH223692   0.807   3.942   4.497  0.4138 -0.0551 -0.3407
  734TIP3    H123693   0.898   3.971   4.488  0.7219 -1.1342 -0.9267
  734TIP3    H223694   0.755   4.021   4.486  1.1858  0.2277 -2.4272
  735TIP3   OH223695   1.622   3.744  15.744 -0.2613  0.1094 -0.2566
  735TIP3    H123696   1.667   3.797  15.678  0.2293 -1.6692 -1.4132
  735TIP3    H223697   1.555   3.802  15.780 -0.6529  1.0937 -2.4380
  736TIP3   OH223698   0.598   5.166  15.509 -0.5840  0.1231 -0.2202
  736TIP3    H123699   0.536   5.237  15.527  1.7288  2.2887 -0.0641
  736TIP3    H223700   0.682   5.200  15.541  0.5366 -3.0677  0.5972
  737TIP3   OH223701   1.119   2.471   5.619  0.1944 -0.0222 -0.2852
  737TIP3    H123702   1.145   2.402   5.680 -2.3353  0.2385  1.2392
  737TIP3    H223703   1.105   2.548   5.674  1.2599  1.2684 -1.7274
  738TIP3   OH223704   0.954   3.755   5.613 -0.1595  0.4434 -0.2784
  738TIP3    H123705   0.938   3.804   5.694  0.6871  1.7591 -0.8762
  738TIP3    H223706   1.035   3.791   5.579  0.8111 -1.7719 -0.4976
  739TIP3   OH223707   4.490   6.505   5.544  0.6483  0.6848  0.8384
  739TIP3    H123708   4.455   6.591   5.568 -0.2866  0.7518 -0.6167
  739TIP3    H223709   4.441   6.444   5.600  1.2149  1.0605  1.7765
  740TIP3   OH223710   6.600   4.024  10.556 -0.2426 -0.3886  0.1779
  740TIP3    H123711   6.624   4.064  10.472 -0.1826  0.9829  0.8130
  740TIP3    H223712   6.684   4.004  10.597 -0.2534 -0.2240  0.2824
  741TIP3   OH223713   5.599   1.264  11.484 -0.2895 -0.2528  0.1529
  741TIP3    H123714   5.523   1.254  11.542  0.2256  0.1360  0.9075
  741TIP3    H223715   5.634   1.175  11.476 -1.2848 -0.5816 -0.8668
  742TIP3   OH223716   0.052   3.557   1.073  0.1327 -0.4242  0.0857
  742TIP3    H123717  -0.021   3.557   1.135  0.7593  1.1407  0.8721
  742TIP3    H223718   0.117   3.500   1.112 -0.2850 -1.0737 -0.1550
  743TIP3   OH223719   2.785   2.460  14.680  0.2274 -0.7382  0.2017
  743TIP3    H123720   2.703   2.486  14.720  0.7456  0.0483  0.7900
  743TIP3    H223721   2.803   2.372  14.715 -0.8412 -1.3394 -0.7092
  744TIP3   OH223722   6.099   6.347   0.015 -0.2243  0.7465  0.3512
  744TIP3    H123723   6.187   6.382   0.024  0.2596 -0.0801 -0.7842
  744TIP3    H223724   6.112   6.263  -0.030 -1.6395  0.9537 -0.4991
  745TIP3   OH223725   2.544   0.986  13.362  0.2342  1.1275 -0.0579
  745TIP3    H123726   2.496   1.062  13.330  0.0415  0.7511 -0.6647
  745TIP3    H223727   2.588   1.018  13.442 -0.5299  1.6363  0.1727
  746TIP3   OH223728   1.417   1.904  14.483 -0.4228 -0.1966  0.2814
  746TIP3    H123729   1.345   1.852  14.519  0.5289 -1.7585  0.0349
  746TIP3    H223730   1.459   1.943  14.560 -2.1652  1.6562  0.3477
  747TIP3   OH223731   3.189   0.917   4.964  0.5237 -0.4991 -0.1405
  747TIP3    H123732   3.187   0.821   4.965 -1.0835 -0.4935  1.0735
  747TIP3    H223733   3.119   0.942   4.903  0.7003 -0.1011 -0.1844
  748TIP3   OH223734   1.469   0.051  13.820 -0.6834 -0.2560  0.2276
  748TIP3    H123735   1.554   0.010  13.799 -0.2350  1.1802 -0.9091
  748TIP3    H223736   1.492   0.134  13.861 -1.4640  0.9036 -1.5576
  749TIP3   OH223737   1.311   2.246  14.353 -0.9734 -0.0357 -0.2750
  749TIP3    H123738   1.301   2.195  14.433 -1.1648  0.5674  0.0993
  749TIP3    H223739   1.405   2.255  14.340 -0.8316  2.5525  1.6911
  750TIP3   OH223740   2.314   0.463  15.636  0.0717  0.0238 -0.0682
  750TIP3    H123741   2.220   0.471  15.655 -0.1141 -0.6068 -0.6902
  750TIP3    H223742   2.355   0.532  15.688 -0.8205  0.8313 -0.4006
  751TIP3   OH223743   0.493   5.267   3.631  0.1077  0.2768  0.0862
  751TIP3    H123744   0.422   5.213   3.667  0.2337 -0.3205 -0.5365
  751TIP3    H223745   0.490   5.250   3.537  0.2624  1.2387 -0.1026
  752TIP3   OH223746   0.047   2.780   5.942  0.9197 -0.4229  0.2503
  752TIP3    H123747   0.038   2.871   5.914 -1.3588 -0.6458  0.0569
  752TIP3    H223748   0.118   2.781   6.007 -0.0078  1.7560  1.3191
  753TIP3   OH223749   3.547   2.856  15.352 -0.1249  0.6035  0.1824
  753TIP3    H123750   3.463   2.810  15.345 -0.4995  1.0514  1.4689
  753TIP3    H223751   3.599   2.822  15.279 -1.7885  1.1219 -1.3054
  754TIP3   OH223752   3.021   4.795  12.046 -0.4371 -0.4564  0.8068
  754TIP3    H123753   2.942   4.741  12.049 -1.1072  0.2895 -1.6193
  754TIP3    H223754   3.089   4.738  12.011  0.5945 -1.5106  4.1196
  755TIP3   OH223755   1.079   5.105   1.715  0.1886 -0.1597 -0.1356
  755TIP3    H123756   1.064   5.022   1.669 -1.8538 -0.4418  0.9207
  755TIP3    H223757   1.151   5.146   1.668  0.7355 -2.1841 -1.1706
  756TIP3   OH223758   2.750   3.343   4.731  0.2564  0.3990 -0.6878
  756TIP3    H123759   2.738   3.434   4.756  1.0775  0.8716 -1.9304
  756TIP3    H223760   2.730   3.293   4.811 -2.6211  1.4774 -0.6362
  757TIP3   OH223761   1.976   2.545  13.076  0.2013 -0.2731 -0.2000
  757TIP3    H123762   2.069   2.547  13.097  0.1245 -1.7676  0.3704
  757TIP3    H223763   1.933   2.588  13.150  0.3780 -0.2101 -0.1339
  758TIP3   OH223764   2.276   6.797   3.984  0.5587 -0.0107  0.7287
  758TIP3    H123765   2.206   6.772   4.044  1.2706 -0.8969  1.1994
  758TIP3    H223766   2.356   6.766   4.025  1.3360  1.6895  0.5776
  759TIP3   OH223767   5.744   0.759  15.747  0.1508  0.2570  0.5170
  759TIP3    H123768   5.722   0.822  15.679 -1.9890 -0.3195  0.5912
  759TIP3    H223769   5.792   0.809  15.813  1.4052  1.0350 -0.9400
  760TIP3   OH223770   4.432   2.036   1.703  0.5020 -0.1475  0.1458
  760TIP3    H123771   4.483   2.100   1.753  1.4526 -0.5319 -0.3046
  760TIP3    H223772   4.496   1.970   1.677 -0.4686 -1.3148  0.6376
  761TIP3   OH223773   3.096   0.519  16.463 -0.1283  0.0378  0.2407
  761TIP3    H123774   3.025   0.582  16.452  0.0487  0.0443 -1.0680
  761TIP3    H223775   3.131   0.507  16.375  1.0667 -0.4689  0.7587
  762TIP3   OH223776   0.775   2.757   4.446 -0.1056 -0.1644 -0.9015
  762TIP3    H123777   0.756   2.847   4.473  1.4785 -0.5576  2.0213
  762TIP3    H223778   0.863   2.762   4.407  0.8227 -0.6057  0.9942
  763TIP3   OH223779   3.912   0.234  15.815 -0.3602  0.4381 -0.4786
  763TIP3    H123780   3.992   0.254  15.767  0.2537 -0.3510  0.1881
  763TIP3    H223781   3.939   0.231  15.907 -1.2375  0.5536 -0.2030
  764TIP3   OH223782   6.516   0.129  11.655  0.1078 -0.0956 -0.3931
  764TIP3    H123783   6.424   0.154  11.655 -0.3512 -1.6695 -0.7120
  764TIP3    H223784   6.548   0.157  11.741 -1.2860 -1.5205  0.6538
  765TIP3   OH223785   4.998   6.488   0.091  0.3764  0.8444 -0.0552
  765TIP3    H123786   5.040   6.486   0.005  1.9032  2.0861  0.6041
  765TIP3    H223787   4.989   6.396   0.116 -1.2933  0.4013 -2.0516
  766TIP3   OH223788   2.035   0.268  11.260  0.4530  0.0160 -0.1951
  766TIP3    H123789   2.104   0.332  11.273  0.7271 -0.2581 -0.2664
  766TIP3    H223790   2.015   0.274  11.166 -0.8642  1.3333  0.1465
  767TIP3   OH223791   3.253   5.552  12.506 -0.2420 -0.0134  0.5313
  767TIP3    H123792   3.338   5.518  12.477 -1.1561 -1.3802 -0.6590
  767TIP3    H223793   3.240   5.632  12.455 -0.4442 -0.7524 -0.6111
  768TIP3   OH223794   1.662   4.713   4.414  0.4532  0.2981 -0.1757
  768TIP3    H123795   1.583   4.753   4.451  0.9345  1.3300 -0.2378
  768TIP3    H223796   1.631   4.632   4.375 -0.3997  0.1525  0.7543
  769TIP3   OH223797   5.419   3.713   0.876 -0.7923 -0.3947 -0.6754
  769TIP3    H123798   5.361   3.783   0.845  0.0120  0.1098 -1.0651
  769TIP3    H223799   5.452   3.744   0.960  0.0732  0.0101 -1.1475
  770TIP3   OH223800   2.049   6.296  16.214  0.3786 -0.7254  0.2251
  770TIP3    H123801   2.121   6.357  16.194 -0.7839  1.5157  2.2999
  770TIP3    H223802   1.972   6.334  16.172 -0.3509 -0.7891  1.4413
  771TIP3   OH223803   4.620   2.319  12.096  0.2614 -0.0130  0.1104
  771TIP3    H123804   4.689   2.319  12.030 -0.2050 -1.2663 -0.4228
  771TIP3    H223805   4.665   2.297  12.178  0.5449 -0.5446 -0.1839
  772TIP3   OH223806   1.894   3.657  15.047  0.4289 -0.6299  0.1768
  772TIP3    H123807   1.809   3.642  15.088  0.2742 -1.1673 -0.3315
  772TIP3    H223808   1.949   3.587  15.080  0.6809 -0.2723  0.5184
  773TIP3   OH223809   0.518   1.371  13.655 -0.4131 -0.1911  0.1749
  773TIP3    H123810   0.553   1.310  13.720 -1.2574 -1.5832 -0.6198
  773TIP3    H223811   0.452   1.422  13.703  0.7595  0.5991  1.0087
  774TIP3   OH223812   0.511   5.903  15.997 -0.0943 -0.9817 -0.6722
  774TIP3    H123813   0.514   5.992  16.033 -3.2576 -0.1539 -2.0810
  774TIP3    H223814   0.485   5.848  16.072 -0.0256 -0.4029 -0.2159
  775TIP3   OH223815   2.723   1.091   1.543  0.2650  0.1133 -0.2306
  775TIP3    H123816   2.713   1.184   1.564  1.3366 -0.1303  1.5686
  775TIP3    H223817   2.771   1.091   1.460  2.8707  1.2435  1.1535
  776TIP3   OH223818   3.263   5.413  16.877  0.3121  0.6021 -0.1279
  776TIP3    H123819   3.180   5.439  16.918 -0.0833 -1.9146  0.8944
  776TIP3    H223820   3.238   5.380  16.791  0.7836  3.1328 -1.3309
  777TIP3   OH223821   0.259   3.524  13.998  0.2522  0.3931  0.3083
  777TIP3    H123822   0.205   3.448  14.021  0.1505  0.7771  1.3879
  777TIP3    H223823   0.197   3.595  13.985  0.3371  0.2846 -0.8580
  778TIP3   OH223824   6.300   2.204  13.775  0.3688  0.0280  0.0669
  778TIP3    H123825   6.206   2.202  13.759  0.3141  0.6393  0.2773
  778TIP3    H223826   6.331   2.281  13.727  0.4257  1.0246  1.6121
  779TIP3   OH223827   3.946   6.407  12.588 -0.0147  0.0802 -0.6067
  779TIP3    H123828   3.900   6.457  12.655  1.7293 -2.7933  3.0456
  779TIP3    H223829   3.880   6.347  12.553 -0.2654 -0.6986  1.0942
  780TIP3   OH223830   6.097   4.059  11.573 -0.4777  0.3852  0.4402
  780TIP3    H123831   6.122   3.983  11.625 -0.5294  0.4973  0.6299
  780TIP3    H223832   6.081   4.128  11.637  1.9029  1.2769  0.1639
  781TIP3   OH223833   2.634   6.146  15.371  0.0630 -0.3134 -0.0795
  781TIP3    H123834   2.706   6.083  15.365  0.2226 -0.1757  0.3685
  781TIP3    H223835   2.605   6.141  15.462 -2.0200 -2.0310 -0.7493
  782TIP3   OH223836   3.271   0.513   1.309 -0.0832  0.2701 -0.4701
  782TIP3    H123837   3.194   0.541   1.359  0.5206 -0.3294  0.8723
  782TIP3    H223838   3.321   0.593   1.295  0.0014  0.3908  0.4077
  783TIP3   OH223839   2.433   3.001   0.704  0.1685 -0.4644  0.2279
  783TIP3    H123840   2.355   2.964   0.745  0.7083  0.5892  2.3634
  783TIP3    H223841   2.399   3.067   0.643 -0.7230  1.7106  2.8317
  784TIP3   OH223842   4.890   3.899   3.469  0.9908  0.0973 -0.0498
  784TIP3    H123843   4.827   3.834   3.499  2.5996 -0.4718  2.3762
  784TIP3    H223844   4.917   3.868   3.382 -1.1976 -0.1837 -0.7116
  785TIP3   OH223845   3.298   0.918  13.134 -0.3118 -0.0557  0.9033
  785TIP3    H123846   3.224   0.881  13.181 -0.8700  1.7730  1.5710
  785TIP3    H223847   3.278   0.902  13.041 -0.8358 -0.8185  1.1462
  786TIP3   OH223848   0.558   4.768   2.286 -0.2165 -0.3155 -0.4271
  786TIP3    H123849   0.631   4.707   2.284 -0.1760 -0.2830 -0.0568
  786TIP3    H223850   0.587   4.842   2.234  0.4508  0.1696  0.5962
  787TIP3   OH223851   3.144   1.078  14.262  0.3249  0.6334 -0.3075
  787TIP3    H123852   3.206   1.069  14.334  0.9169  1.5723 -0.6881
  787TIP3    H223853   3.195   1.057  14.183  0.2360  1.6151 -0.6419
  788TIP3   OH223854   3.951   1.360   1.330 -0.4571 -0.4705  0.1874
  788TIP3    H123855   3.974   1.426   1.396  2.4326 -1.7180  0.6100
  788TIP3    H223856   3.872   1.394   1.288  0.7304  3.1152  0.5131
  789TIP3   OH223857   3.173   1.522  13.210  0.4151  0.4286 -0.6531
  789TIP3    H123858   3.242   1.493  13.149 -0.9358 -0.0392 -2.0156
  789TIP3    H223859   3.150   1.443  13.259 -0.8223 -0.0151 -1.9086
  790TIP3   OH223860   4.785   1.089   3.927  0.1581 -0.3683 -0.0644
  790TIP3    H123861   4.716   1.056   3.985 -1.1224  2.9292  0.5573
  790TIP3    H223862   4.833   1.151   3.982  4.1337 -2.9238 -0.3163
  791TIP3   OH223863   6.268   6.793   3.794 -0.6217 -0.2549  0.0961
  791TIP3    H123864   6.216   6.743   3.857  1.5939 -0.7183  1.6905
  791TIP3    H223865   6.265   6.882   3.828  0.5557 -0.5010  0.8960
  792TIP3   OH223866   1.276   3.695  13.223 -0.6787  0.0323  0.0978
  792TIP3    H123867   1.282   3.601  13.238  0.7352 -0.0905 -1.1156
  792TIP3    H223868   1.209   3.705  13.155 -1.2694 -0.0235  0.6553
  793TIP3   OH223869   3.209   6.599   1.611  0.8429 -0.1239  0.2252
  793TIP3    H123870   3.136   6.661   1.618  0.8207 -0.2421  1.1686
  793TIP3    H223871   3.170   6.514   1.629  0.9676 -0.3692 -0.6041
  794TIP3   OH223872   3.742   6.165  11.734  0.4388 -0.6696 -0.4566
  794TIP3    H123873   3.740   6.249  11.689  1.6474 -0.1865  0.3136
  794TIP3    H223874   3.783   6.185  11.819  0.3439 -1.9548 -0.0918
  795TIP3   OH223875   3.500   0.738   0.951  0.1104 -0.4548 -0.0085
  795TIP3    H123876   3.505   0.670   1.018  1.3365 -0.4397 -0.0554
  795TIP3    H223877   3.566   0.713   0.886  0.7929  0.9148  0.1140
  796TIP3   OH223878   2.717   2.022  15.251  0.1101  0.3222 -0.0656
  796TIP3    H123879   2.671   1.942  15.277 -0.7366  0.2419 -1.6991
  796TIP3    H223880   2.715   2.077  15.330 -1.3568 -0.3553  0.4026
  797TIP3   OH223881   3.351   4.701  14.133  0.8302 -0.0835  0.1079
  797TIP3    H123882   3.313   4.741  14.212  1.7672  0.5415  0.2658
  797TIP3    H223883   3.286   4.636  14.105 -0.2182  0.7714  0.4974
  798TIP3   OH223884   1.210   6.545   4.478  0.5316  0.1868  0.1397
  798TIP3    H123885   1.244   6.634   4.463  0.1382  0.3763  0.3466
  798TIP3    H223886   1.191   6.511   4.391 -0.3412  0.7181  0.1146
  799TIP3   OH223887   4.997   5.978   1.000  0.1553  0.2667 -0.0987
  799TIP3    H123888   5.043   6.030   0.935 -0.8032  0.5070 -0.5920
  799TIP3    H223889   5.045   5.895   1.003  0.0502  0.1553 -1.2954
  800TIP3   OH223890   2.586   0.233   5.786  0.6451  0.3334 -0.2326
  800TIP3    H123891   2.677   0.213   5.763  0.1009 -1.3458 -1.1145
  800TIP3    H223892   2.569   0.179   5.863  0.2543  0.2715 -0.3621
  801TIP3   OH223893   0.412   2.268   0.145  0.4877 -0.5000  0.5768
  801TIP3    H123894   0.326   2.230   0.128 -0.6176  1.9338  0.2168
  801TIP3    H223895   0.474   2.209   0.101 -1.1043 -1.6070 -0.2801
  802TIP3   OH223896   1.787   0.840  14.023 -0.1883 -0.4632 -0.2000
  802TIP3    H123897   1.819   0.930  14.028  0.7315 -0.8396  2.5426
  802TIP3    H223898   1.709   0.845  13.968  0.0276  1.9348 -0.3839
  803TIP3   OH223899   4.518   3.247  16.375 -0.3292 -0.2940 -0.0242
  803TIP3    H123900   4.539   3.154  16.372 -0.8472 -0.4073 -0.2237
  803TIP3    H223901   4.504   3.272  16.283 -0.2107 -0.0181  0.0279
  804TIP3   OH223902   1.646   6.757  12.692  0.3211 -0.1786  0.1653
  804TIP3    H123903   1.682   6.702  12.622  0.1683 -0.6498  0.4572
  804TIP3    H223904   1.564   6.791  12.656 -0.1096 -0.9886  0.3805
  805TIP3   OH223905   4.502   3.593   2.191 -0.1295 -0.4728  0.2829
  805TIP3    H123906   4.555   3.666   2.221 -1.0574  0.5162 -0.4125
  805TIP3    H223907   4.482   3.543   2.270  1.3644 -0.5686  0.6223
  806TIP3   OH223908   4.337   3.369   4.259 -0.1026 -0.2146 -0.4210
  806TIP3    H123909   4.329   3.275   4.244 -0.5300 -0.2187 -0.2078
  806TIP3    H223910   4.416   3.395   4.213  0.2964 -0.7687 -0.0547
  807TIP3   OH223911   5.906   1.150   4.318  0.3662  0.7212 -0.8122
  807TIP3    H123912   5.816   1.168   4.346  0.8527  1.2060  0.5075
  807TIP3    H223913   5.955   1.143   4.400  1.6683  1.1701 -1.5369
  808TIP3   OH223914   2.238   1.035   4.518 -0.6290  0.0144 -0.4228
  808TIP3    H123915   2.263   0.960   4.464  0.5864  0.7203 -0.8919
  808TIP3    H223916   2.295   1.106   4.488 -3.3595  1.8532 -1.7078
  809TIP3   OH223917   6.211   3.537  13.344 -0.5436  0.7394 -0.6445
  809TIP3    H123918   6.140   3.481  13.311 -0.4600  0.7265 -0.8037
  809TIP3    H223919   6.168   3.622  13.360 -0.7880  0.4799  0.1204
  810TIP3   OH223920   6.772   1.819  16.829  0.5211  0.3472  0.3918
  810TIP3    H123921   6.782   1.779  16.743 -2.2375 -0.0872  0.1805
  810TIP3    H223922   6.809   1.756  16.890 -0.2931 -0.7849 -0.2581
  811TIP3   OH223923   4.962   4.053   3.727 -0.3462  0.1198 -0.0526
  811TIP3    H123924   4.956   4.056   3.631  0.4294 -1.0378 -0.1601
  811TIP3    H223925   5.028   4.119   3.749  1.7606 -1.6704 -0.6171
  812TIP3   OH223926   3.876   4.109   2.124 -0.1520  1.0950 -0.5862
  812TIP3    H123927   3.943   4.075   2.065  0.1615 -0.5791  0.6615
  812TIP3    H223928   3.925   4.156   2.192 -0.4576  2.2329 -1.1160
  813TIP3   OH223929   6.317   2.415   0.061  0.0851 -0.2172  0.2300
  813TIP3    H123930   6.310   2.329   0.102 -1.0907 -0.9253 -1.3737
  813TIP3    H223931   6.321   2.398  -0.033 -0.1126  1.4698 -0.1329
  814TIP3   OH223932   0.048   4.278   3.256  0.1540 -0.1529  0.3717
  814TIP3    H123933  -0.003   4.217   3.203 -2.2660  1.5702  0.5398
  814TIP3    H223934   0.134   4.280   3.214 -0.5013 -1.6751 -1.1716
  815TIP3   OH223935   1.289   5.896   0.209 -0.5877  0.5192 -0.2216
  815TIP3    H123936   1.239   5.815   0.203 -1.8378  1.3562 -2.8686
  815TIP3    H223937   1.265   5.934   0.293 -1.1908 -1.0685  0.3530
  816TIP3   OH223938   6.759   6.633  13.354 -0.2249 -0.6831 -0.2931
  816TIP3    H123939   6.768   6.718  13.310 -0.4462 -0.9197 -0.7953
  816TIP3    H223940   6.841   6.587  13.334 -0.8298 -1.2764 -1.5199
  817TIP3   OH223941   2.401   3.584  10.435 -0.7725 -0.6439  0.4550
  817TIP3    H123942   2.372   3.618  10.350  1.0305  1.2028  0.4887
  817TIP3    H223943   2.329   3.601  10.494 -1.1463  0.2506 -0.2336
  818TIP3   OH223944   5.978   4.741   4.744  0.5075 -0.2354  0.3187
  818TIP3    H123945   6.030   4.819   4.724 -1.4972  0.5654 -2.4058
  818TIP3    H223946   5.892   4.775   4.769  0.1246 -1.5447  0.8631
  819TIP3   OH223947   5.505   1.520   0.603  0.6915  0.0584  0.0063
  819TIP3    H123948   5.524   1.451   0.666 -0.5489  0.5439  0.9683
  819TIP3    H223949   5.583   1.575   0.604  0.1732  0.8996  2.3099
  820TIP3   OH223950   4.959   1.193   3.383 -0.0165 -0.0425 -0.1676
  820TIP3    H123951   5.020   1.155   3.446  0.7513  0.5199 -0.5435
  820TIP3    H223952   5.012   1.257   3.335 -1.5569  2.4364  1.2830
  821TIP3   OH223953   0.157   5.836   5.442  0.2418 -0.1172  0.2906
  821TIP3    H123954   0.117   5.750   5.445 -0.2548  0.1232  0.8278
  821TIP3    H223955   0.173   5.858   5.534  0.9210  0.1051  0.1209
  822TIP3   OH223956   0.013   6.079   0.306  0.5353 -0.3481 -0.9343
  822TIP3    H123957  -0.078   6.054   0.289  0.0350  1.5004 -1.1780
  822TIP3    H223958   0.043   6.119   0.224  1.6321 -1.0761 -0.9077
  823TIP3   OH223959   6.188   5.157   5.271  0.4736 -0.6448 -0.4744
  823TIP3    H123960   6.185   5.069   5.308  0.1629 -0.3412  0.2269
  823TIP3    H223961   6.151   5.147   5.183 -2.1852 -0.7387  0.5632
  824TIP3   OH223962   4.685   5.905  14.918  0.0577 -0.0090  0.4497
  824TIP3    H123963   4.594   5.889  14.893 -0.0084 -0.4100  0.9368
  824TIP3    H223964   4.679   5.950  15.002  0.3231 -1.4698  1.2812
  825TIP3   OH223965   5.207   6.465  14.560 -0.4023  0.5893 -0.1810
  825TIP3    H123966   5.177   6.530  14.496 -0.4126  0.6340 -0.1301
  825TIP3    H223967   5.259   6.515  14.623  1.7295  0.1919 -1.5169
  826TIP3   OH223968   1.740   4.727  15.646  0.5288  0.2113  0.5940
  826TIP3    H123969   1.697   4.808  15.675  2.0126  1.6971 -1.0917
  826TIP3    H223970   1.723   4.723  15.552  2.5601 -0.0739  0.2003
  827TIP3   OH223971   1.075   5.290   1.122  0.2107 -0.2396 -0.4718
  827TIP3    H123972   1.028   5.351   1.066 -0.6793  0.4526  0.9657
  827TIP3    H223973   1.078   5.208   1.073  0.1995  0.5640 -1.8508
  828TIP3   OH223974   2.697   6.534  16.494 -0.3446  0.3842  0.1258
  828TIP3    H123975   2.626   6.592  16.521  0.8168  0.6144  2.9682
  828TIP3    H223976   2.668   6.447  16.519 -0.2550  0.2748 -0.1458
  829TIP3   OH223977   3.129   0.656  10.844  0.3631  0.5493  0.4917
  829TIP3    H123978   3.088   0.686  10.763 -0.1387  1.8522  1.1954
  829TIP3    H223979   3.154   0.565  10.826 -1.6073  0.1266 -0.4291
  830TIP3   OH223980   5.938   3.501  16.283  0.0835  0.3380  0.1355
  830TIP3    H123981   5.926   3.491  16.377  0.2399  0.6699  0.1914
  830TIP3    H223982   6.028   3.534  16.274  0.5976 -1.0872 -0.2120
  831TIP3   OH223983   5.202   5.241  15.098  0.7134 -0.0088  0.1004
  831TIP3    H123984   5.168   5.282  15.019 -0.4272 -0.3782  0.3839
  831TIP3    H223985   5.263   5.306  15.134  0.7692  0.4201 -0.7379
  832TIP3   OH223986   0.817   2.489   3.532  0.1257  0.0389  0.4343
  832TIP3    H123987   0.901   2.443   3.527  0.7723  1.1294  0.8855
  832TIP3    H223988   0.769   2.443   3.601  0.6272 -0.1667  0.6510
  833TIP3   OH223989   5.615   2.912   5.477  0.5046  0.0061  0.1574
  833TIP3    H123990   5.679   2.932   5.546 -0.0518 -0.3539  0.7858
  833TIP3    H223991   5.664   2.923   5.395  0.4497  3.1475  0.4410
  834TIP3   OH223992   5.498   5.323  15.985  0.1141 -0.4729 -0.4462
  834TIP3    H123993   5.469   5.251  15.928  0.1921 -0.4720 -0.4863
  834TIP3    H223994   5.434   5.323  16.056  0.2424 -0.7275 -0.3288
  835TIP3   OH223995   0.591   0.747  14.505  0.1072  0.3073 -0.5648
  835TIP3    H123996   0.538   0.677  14.466  0.0348 -0.5452  0.9742
  835TIP3    H223997   0.557   0.828  14.465 -0.5176 -0.4383 -1.5970
  836TIP3   OH223998   6.765   3.978  15.868  0.5720 -0.3285 -0.1314
  836TIP3    H123999   6.716   4.056  15.893  0.8153 -0.6661  1.5656
  836TIP3    H224000   6.857   4.005  15.874  0.6752 -0.8283  0.9390
  837TIP3   OH224001   0.852   2.993   1.013  0.1164  0.4617 -0.2568
  837TIP3    H124002   0.941   2.960   1.024 -0.3295 -0.4902  0.6590
  837TIP3    H224003   0.863   3.084   0.987  1.3480  0.5330  0.4598
  838TIP3   OH224004   4.506   2.548   2.600 -0.1601 -0.2922  0.4481
  838TIP3    H124005   4.503   2.462   2.558 -0.1935  0.3733 -0.9791
  838TIP3    H224006   4.574   2.595   2.552 -1.4821  1.1197 -0.1177
  839TIP3   OH224007   3.467   0.140  12.380  0.4452 -0.0673 -0.3062
  839TIP3    H124008   3.415   0.163  12.457 -0.1651  0.7540 -0.9368
  839TIP3    H224009   3.422   0.184  12.307  1.8743  0.4524 -0.9133
  840TIP3   OH224010   2.996   1.388   1.206 -0.0218 -0.4709  0.5474
  840TIP3    H124011   2.900   1.385   1.201 -0.1370  1.4738  0.6008
  840TIP3    H224012   3.023   1.428   1.124  0.6833 -0.2911  0.8589
  841TIP3   OH224013   1.287   3.870  13.448 -0.4756  0.3869  0.6659
  841TIP3    H124014   1.286   3.815  13.370 -0.6867 -1.3317  1.8395
  841TIP3    H224015   1.313   3.957  13.415  2.3104 -0.8938 -0.9277
  842TIP3   OH224016   4.066   2.769  16.483 -0.0011 -0.5277  0.3165
  842TIP3    H124017   4.044   2.838  16.421  1.0227 -1.1122 -0.7469
  842TIP3    H224018   4.064   2.812  16.569 -0.6628  0.4917 -0.1895
  843TIP3   OH224019   3.207   2.255   0.996  0.3140  0.7476  0.1528
  843TIP3    H124020   3.284   2.249   0.939  0.2625  0.2137  0.1384
  843TIP3    H224021   3.241   2.293   1.077  0.8288 -0.5518  0.5676
  844TIP3   OH224022   0.171   1.268  15.286 -0.0681  0.0619  0.0930
  844TIP3    H124023   0.115   1.338  15.254 -0.5267  0.3239  1.4047
  844TIP3    H224024   0.208   1.229  15.207  1.1826  2.5566 -0.6748
  845TIP3   OH224025   1.735   2.052   1.081 -0.3729 -0.4945  0.4715
  845TIP3    H124026   1.696   2.006   1.155  0.3477  0.9881  1.8287
  845TIP3    H224027   1.813   2.001   1.059 -0.4844 -0.8357  0.8575
  846TIP3   OH224028   0.052   0.651   5.839  0.0104  0.9232  0.7253
  846TIP3    H124029  -0.000   0.643   5.919 -1.0215 -0.5769 -0.0510
  846TIP3    H224030   0.027   0.575   5.786  1.7752  1.0608 -0.3993
  847TIP3   OH224031   5.071   4.362   4.669 -0.2622 -0.3001  0.4248
  847TIP3    H124032   5.138   4.296   4.687 -0.3677 -0.2421  1.0666
  847TIP3    H224033   4.992   4.310   4.651 -0.0016 -0.3714 -0.5356
  848TIP3   OH224034   3.447   3.664  11.423  0.2749  0.1222  0.4037
  848TIP3    H124035   3.505   3.735  11.395  0.7296  0.3449  1.8221
  848TIP3    H224036   3.362   3.705  11.433  0.4459  0.3819  0.8174
  849TIP3   OH224037   1.273   3.105  15.712 -0.2560  0.2372  0.0064
  849TIP3    H124038   1.357   3.063  15.696 -0.5360 -0.2878 -0.0837
  849TIP3    H224039   1.234   3.116  15.626 -0.2254  0.6033  0.0358
  850TIP3   OH224040   1.606   6.042  14.334  0.6840 -0.2537 -0.5895
  850TIP3    H124041   1.573   5.962  14.374 -0.4781  0.0158 -0.9739
  850TIP3    H224042   1.701   6.028  14.328  0.5442 -1.4482 -0.3276
  851TIP3   OH224043   3.230   0.855   6.030  0.5854 -0.3634 -0.2849
  851TIP3    H124044   3.316   0.882   6.062 -0.3440  1.7761  0.5699
  851TIP3    H224045   3.167   0.896   6.090 -1.0823 -0.4742 -1.8578
  852TIP3   OH224046   5.175   2.999   1.322  0.8055  0.4921  0.1496
  852TIP3    H124047   5.126   3.075   1.294  0.1224  0.2474  0.6653
  852TIP3    H224048   5.208   2.960   1.241  2.2790  2.0523 -0.0474
  853TIP3   OH224049   6.705   6.677  14.817  0.0689  0.0161  0.1288
  853TIP3    H124050   6.772   6.628  14.865  1.4062 -0.0139 -1.6465
  853TIP3    H224051   6.711   6.766  14.852  0.2653 -0.2315  0.7464
  854TIP3   OH224052   4.592   4.042  11.606  0.2998 -0.4145 -0.0919
  854TIP3    H124053   4.553   3.988  11.675 -0.6391 -0.6654 -0.8134
  854TIP3    H224054   4.548   4.016  11.526  0.7398  0.5232 -0.6630
  855TIP3   OH224055   2.307   6.704   3.595 -0.0886 -0.9372 -0.2345
  855TIP3    H124056   2.211   6.697   3.598 -0.0073 -2.2012  0.2267
  855TIP3    H224057   2.336   6.678   3.682  0.7015 -1.1759 -0.5584
  856TIP3   OH224058   1.823   4.319   2.809  0.3152 -0.3004 -0.4732
  856TIP3    H124059   1.846   4.324   2.901  0.9982  1.1356 -0.6904
  856TIP3    H224060   1.815   4.411   2.781 -0.7176 -0.7109 -1.6404
  857TIP3   OH224061   0.114   3.866   6.015 -0.0463  0.5746  0.2705
  857TIP3    H124062   0.027   3.898   6.040  0.1196  1.8363 -0.6984
  857TIP3    H224063   0.098   3.777   5.983 -0.8250  0.4250  1.0209
  858TIP3   OH224064   6.020   5.364  11.808 -0.3894  0.0209 -0.4541
  858TIP3    H124065   6.084   5.300  11.778 -0.1024 -0.1310  0.4592
  858TIP3    H224066   6.024   5.434  11.743  0.5802 -0.0716 -0.5170
  859TIP3   OH224067   4.245   2.495  16.524  0.4704 -0.1043 -0.0535
  859TIP3    H124068   4.164   2.501  16.575  1.6339 -0.8444  2.0143
  859TIP3    H224069   4.220   2.449  16.444 -0.5726 -3.4458  2.0171
  860TIP3   OH224070   2.079   2.197  12.544 -0.4506  0.5892  0.0265
  860TIP3    H124071   2.135   2.271  12.568 -0.8404  0.6157  0.8704
  860TIP3    H224072   1.990   2.227  12.560 -0.5543 -0.5495  1.8625
  861TIP3   OH224073   2.337   1.083   2.596 -0.3070 -0.5087 -0.2443
  861TIP3    H124074   2.245   1.085   2.570 -0.8490  1.5047  1.5896
  861TIP3    H224075   2.383   1.128   2.525 -1.0323  0.2170 -0.2685
  862TIP3   OH224076   1.993   3.136   1.616  0.2595 -0.0710  0.0497
  862TIP3    H124077   1.904   3.109   1.639  0.5263 -1.5446 -0.5533
  862TIP3    H224078   1.994   3.140   1.521  0.8477 -0.1011  0.0494
  863TIP3   OH224079   6.816   3.704  15.355 -0.2244 -0.0208 -0.4163
  863TIP3    H124080   6.880   3.729  15.289  0.3598  1.1985  0.5661
  863TIP3    H224081   6.835   3.761  15.430 -1.8074 -0.3289  0.2715
  864TIP3   OH224082   2.445   1.586  12.614 -0.2503 -1.2130  0.5043
  864TIP3    H124083   2.423   1.671  12.651 -1.5931 -0.4151 -1.8810
  864TIP3    H224084   2.456   1.529  12.689  1.3684  1.1807  2.2095
  865TIP3   OH224085   0.973   1.036   3.187 -0.5658 -0.1550 -0.1879
  865TIP3    H124086   0.998   1.128   3.197 -1.9928  0.2541 -0.2439
  865TIP3    H224087   0.938   1.030   3.099 -0.4228 -0.7721 -0.2058
  866TIP3   OH224088   0.158   2.418   4.491 -0.0433  0.1768  0.7724
  866TIP3    H124089   0.248   2.440   4.467 -0.7616  1.2916 -1.2139
  866TIP3    H224090   0.116   2.503   4.503 -0.7129 -0.3418  2.2845
  867TIP3   OH224091   1.714   2.583  14.432 -0.6847  0.0522 -0.2118
  867TIP3    H124092   1.802   2.576  14.468 -0.3474 -2.1668 -1.2981
  867TIP3    H224093   1.725   2.630  14.349 -0.5698 -0.0039 -0.2278
  868TIP3   OH224094   1.439   1.837   1.008  0.2978  0.6222 -0.3178
  868TIP3    H124095   1.493   1.889   0.948  0.4616  1.7264  0.7516
  868TIP3    H224096   1.379   1.901   1.048  0.2765 -0.0606  0.7817
  869TIP3   OH224097   1.521   3.886  13.769 -0.1722 -0.1700  0.1367
  869TIP3    H124098   1.518   3.808  13.713  0.7255 -2.0077  2.4411
  869TIP3    H224099   1.545   3.957  13.711  0.0293 -1.8070 -1.9026
  870TIP3   OH224100   3.303   0.186   4.397  0.5083 -0.2535  0.5165
  870TIP3    H124101   3.259   0.234   4.327  0.8370  0.7944  1.0133
  870TIP3    H224102   3.323   0.253   4.463 -0.5519 -1.3263  2.0031
  871TIP3   OH224103   5.636   0.867  13.479  0.2657 -0.1894 -0.1515
  871TIP3    H124104   5.636   0.954  13.520  0.2109 -0.3049  0.0932
  871TIP3    H224105   5.635   0.806  13.552  0.5283 -0.4002 -0.3212
  872TIP3   OH224106   0.220   3.401  11.541 -0.0794  0.2934 -0.1927
  872TIP3    H124107   0.182   3.322  11.504  2.1128 -0.7859 -0.2860
  872TIP3    H224108   0.173   3.414  11.624 -0.3828 -1.1577 -0.1225
  873TIP3   OH224109   2.041   6.148  15.474  0.2190 -0.4452 -0.3139
  873TIP3    H124110   2.054   6.238  15.442 -0.3540 -0.2807 -0.0881
  873TIP3    H224111   2.025   6.159  15.568 -0.0109 -0.7763 -0.3164
  874TIP3   OH224112   6.493   5.945   3.661 -0.3132 -0.3004  0.0213
  874TIP3    H124113   6.541   5.880   3.609  1.9434  0.5127  0.9498
  874TIP3    H224114   6.495   6.025   3.608  1.1812  0.2779  0.8982
  875TIP3   OH224115   4.893   0.666   5.372 -0.4694  0.1085 -0.4937
  875TIP3    H124116   4.974   0.704   5.403  0.3533 -2.5382  0.8755
  875TIP3    H224117   4.844   0.740   5.335  1.6721  2.1020  0.4460
  876TIP3   OH224118   5.185   5.395   0.365  0.0502 -0.0475  0.0492
  876TIP3    H124119   5.106   5.449   0.370  0.0909  0.0582 -0.4241
  876TIP3    H224120   5.210   5.397   0.273  0.8817  0.3194  0.2677
  877TIP3   OH224121   3.787   4.815  16.836  0.2610  0.6701 -0.2946
  877TIP3    H124122   3.693   4.823  16.821  0.2930  0.2266 -0.7668
  877TIP3    H224123   3.826   4.885  16.783  0.3131 -0.3354 -1.6298
  878TIP3   OH224124   5.948   0.783  16.803 -0.4578 -0.1383 -0.2761
  878TIP3    H124125   5.920   0.703  16.758  0.4244  0.2162 -1.5262
  878TIP3    H224126   6.029   0.807  16.759 -0.1962  0.9100  0.7475
  879TIP3   OH224127   3.778   1.700   2.816  0.0734 -0.3228 -0.1675
  879TIP3    H124128   3.837   1.627   2.835 -0.1139  0.0629  2.1991
  879TIP3    H224129   3.819   1.775   2.858 -1.7313  0.0748  1.0333
  880TIP3   OH224130   6.506   0.241  16.043 -0.3415 -0.0848  0.5509
  880TIP3    H124131   6.413   0.227  16.027 -0.7028  1.6564  0.9266
  880TIP3    H224132   6.518   0.336  16.034  1.5691 -0.3598 -0.3864
  881TIP3   OH224133   6.748   1.526   1.535 -0.1263  0.1140  0.1055
  881TIP3    H124134   6.773   1.435   1.523 -0.5584  0.0794 -0.6397
  881TIP3    H224135   6.827   1.570   1.567 -0.0333 -0.5973  0.8559
  882TIP3   OH224136   3.873   1.205  12.600 -0.0508 -1.0450  0.3942
  882TIP3    H124137   3.859   1.198  12.694  1.7803 -0.1478  0.7877
  882TIP3    H224138   3.967   1.190  12.589  0.7062  3.2688 -0.7223
  883TIP3   OH224139   6.163   5.799   5.410 -0.1935  0.3141 -0.0869
  883TIP3    H124140   6.070   5.777   5.413 -0.3501  0.9587 -0.0565
  883TIP3    H224141   6.192   5.765   5.325 -0.2409 -0.6997  0.2955
  884TIP3   OH224142   4.295   2.374  12.520  0.4950 -0.5267 -0.1677
  884TIP3    H124143   4.325   2.300  12.467  0.3842 -1.2230  0.7381
  884TIP3    H224144   4.245   2.428  12.458 -2.8444 -3.1779 -0.0370
  885TIP3   OH224145   1.678   5.077  16.344  0.5734  0.1803  0.5340
  885TIP3    H124146   1.687   5.129  16.424  1.2234 -0.1867  0.7047
  885TIP3    H224147   1.700   5.137  16.273  0.6654  0.3190  0.6813
  886TIP3   OH224148   1.610   5.967  11.210 -0.1928 -0.4160  0.2504
  886TIP3    H124149   1.558   5.906  11.260  0.2514 -1.1139 -0.1221
  886TIP3    H224150   1.557   5.986  11.132 -0.0315 -0.8829  0.0229
  887TIP3   OH224151   2.972   6.602  11.832  0.4678  0.1746 -0.7279
  887TIP3    H124152   3.063   6.572  11.833  0.9399  1.3735  2.0851
  887TIP3    H224153   2.943   6.588  11.742  2.3977 -3.2490 -1.0016
  888TIP3   OH224154   3.901   4.149   3.171 -0.3789 -0.7577  0.1192
  888TIP3    H124155   3.812   4.159   3.137 -0.8514 -2.1267  0.8944
  888TIP3    H224156   3.890   4.131   3.264  0.7517 -0.2235  0.3723
  889TIP3   OH224157   3.082   5.162  14.590  0.2388  0.2473  0.1660
  889TIP3    H124158   3.036   5.110  14.523  1.8700 -0.1143 -0.7300
  889TIP3    H224159   3.086   5.250  14.553 -0.0045  0.3542  0.3899
  890TIP3   OH224160   3.982   2.258  13.982  0.2815 -0.2249 -0.4181
  890TIP3    H124161   3.886   2.263  13.980  0.3495  1.8194 -1.4501
  890TIP3    H224162   4.001   2.165  13.989 -1.7847 -0.7838 -1.3971
  891TIP3   OH224163   6.088   6.385  11.105 -0.1516 -0.1314  0.0236
  891TIP3    H124164   6.026   6.329  11.152 -0.0600  0.5725  0.9958
  891TIP3    H224165   6.113   6.333  11.029 -0.8930 -0.9780  0.3362
  892TIP3   OH224166   2.064   3.675   6.520 -0.3857 -0.0297 -0.2998
  892TIP3    H124167   2.058   3.605   6.455  1.0456 -0.7597  0.3125
  892TIP3    H224168   2.057   3.629   6.604  0.8275  0.5119  0.1162
  893TIP3   OH224169   5.896   4.278   1.398 -0.6125  0.6356  0.4097
  893TIP3    H124170   5.939   4.215   1.456 -0.2710  1.1433  0.7124
  893TIP3    H224171   5.803   4.255   1.403 -1.2483  3.1055  4.3673
  894TIP3   OH224172   3.641   0.787  10.638  0.2064 -0.0527  0.1600
  894TIP3    H124173   3.557   0.783  10.683  0.2134 -0.1239  0.1679
  894TIP3    H224174   3.635   0.721  10.569  0.4468 -0.4159  0.4845
  895TIP3   OH224175   6.586   0.693  16.460  0.0589 -0.6195  0.0553
  895TIP3    H124176   6.615   0.685  16.369  0.9890 -1.3590  0.4057
  895TIP3    H224177   6.493   0.671  16.457 -0.1398  0.2396 -0.8424
  896TIP3   OH224178   5.899   1.542  10.771 -0.3982 -0.2974 -0.4537
  896TIP3    H124179   5.806   1.538  10.793 -0.2711 -1.8616 -0.1286
  896TIP3    H224180   5.928   1.452  10.774  0.9479  0.0869 -1.4188
  897TIP3   OH224181   1.949   0.457   5.749  0.0195  0.0224  0.3002
  897TIP3    H124182   1.998   0.440   5.830 -0.8173 -0.1128  0.7845
  897TIP3    H224183   2.010   0.507   5.694 -0.6994  3.7061  2.5450
  898TIP3   OH224184   1.270   6.662  12.495  0.1074 -0.9322  0.1196
  898TIP3    H124185   1.294   6.577  12.457  0.1017 -0.9844  0.2323
  898TIP3    H224186   1.275   6.723  12.422  2.0072 -0.6665  0.4315
  899TIP3   OH224187   1.391   4.000   1.693  0.3280 -0.1469  0.2568
  899TIP3    H124188   1.374   4.008   1.787 -1.2692 -1.3600  0.1157
  899TIP3    H224189   1.391   4.090   1.661 -0.6338  0.2138  1.1892
  900TIP3   OH224190   2.254   6.039   3.164 -0.0799  0.2546 -0.8188
  900TIP3    H124191   2.298   5.955   3.149 -3.1486 -1.4429 -1.3431
  900TIP3    H224192   2.216   6.062   3.079 -2.2862  0.1963  0.0719
  901TIP3   OH224193   1.332   6.437  12.352  0.0742 -0.2441 -0.3403
  901TIP3    H124194   1.283   6.435  12.270  0.1210 -1.3125 -0.3573
  901TIP3    H224195   1.391   6.361  12.347  0.4986  0.0217  0.4213
  902TIP3   OH224196   2.538   1.946   4.396  0.5813 -0.5323  0.4193
  902TIP3    H124197   2.549   1.853   4.418  0.8574 -0.5544  0.1844
  902TIP3    H224198   2.456   1.971   4.440  0.5139 -0.8812  0.4960
  903TIP3   OH224199   5.598   1.117   2.982 -0.7743 -0.4379  0.3282
  903TIP3    H124200   5.533   1.103   3.051 -0.0413 -2.2564  0.7307
  903TIP3    H224201   5.678   1.140   3.028 -0.8448  0.7373 -0.0998
  904TIP3   OH224202   2.467   0.506   5.163  0.9720 -0.4133 -0.2361
  904TIP3    H124203   2.547   0.538   5.122  0.8081  1.7283  0.9973
  904TIP3    H224204   2.408   0.488   5.090  1.0774  2.2094 -1.0507
  905TIP3   OH224205   1.084   0.172   3.137 -0.6585 -0.5227 -0.1734
  905TIP3    H124206   1.070   0.182   3.043  1.8270 -1.0134 -0.6703
  905TIP3    H224207   1.107   0.261   3.167  3.0453 -1.0197 -1.0150
  906TIP3   OH224208   4.912   6.565  13.942  0.2731 -0.1198  0.0398
  906TIP3    H124209   4.958   6.649  13.936 -0.3495  0.2468  0.1908
  906TIP3    H224210   4.863   6.570  14.024 -1.6150  0.3643 -1.0457
  907TIP3   OH224211   0.756   4.542   0.905  0.3298 -0.0077  0.2483
  907TIP3    H124212   0.774   4.534   0.811  0.7652 -0.2164  0.3450
  907TIP3    H224213   0.767   4.453   0.939 -1.3597 -0.2485  0.2450
  908TIP3   OH224214   1.316   5.431  17.077  0.2150  0.2073  0.3400
  908TIP3    H124215   1.317   5.336  17.087  0.1600  0.3020  1.2726
  908TIP3    H224216   1.390   5.449  17.019  1.2105 -0.2770  1.4120
  909TIP3   OH224217   3.373   2.923  15.551 -0.0556  0.2840 -0.5050
  909TIP3    H124218   3.312   2.870  15.500 -0.3319  0.3558 -0.2561
  909TIP3    H224219   3.460   2.893  15.525 -0.0869  1.8814 -2.7179
  910TIP3   OH224220   0.170   2.758   3.870  0.3084 -0.0054  0.2141
  910TIP3    H124221   0.235   2.795   3.931  1.2645  0.2031 -0.8984
  910TIP3    H224222   0.176   2.814   3.793  0.2567 -1.2298 -0.6903
  911TIP3   OH224223   2.453   2.820  12.058  0.1785 -0.0300 -0.0196
  911TIP3    H124224   2.374   2.859  12.093  0.9927  0.8241  0.8983
  911TIP3    H224225   2.493   2.775  12.132  0.6647 -0.2868 -0.4298
  912TIP3   OH224226   5.313   6.669  11.544  0.3443  0.1314  0.3726
  912TIP3    H124227   5.265   6.683  11.626 -0.2604  2.0443 -0.2582
  912TIP3    H224228   5.398   6.635  11.573  0.6364  1.9903  1.9313
  913TIP3   OH224229   0.795   2.692  14.194  0.3681  0.0616 -0.0174
  913TIP3    H124230   0.767   2.627  14.129 -2.1066 -0.9967  1.9557
  913TIP3    H224231   0.852   2.643  14.253 -1.0525 -0.2302  1.1539
  914TIP3   OH224232   4.088   6.785  16.698 -0.1006  0.1117 -0.7875
  914TIP3    H124233   4.000   6.799  16.734  0.4669 -0.3490  0.8798
  914TIP3    H224234   4.147   6.806  16.771  1.2417  1.4896 -2.1900
  915TIP3   OH224235   1.846   1.180  12.458 -0.0731 -0.2093  0.1395
  915TIP3    H124236   1.764   1.161  12.412 -2.6412  0.7280  3.8193
  915TIP3    H224237   1.880   1.095  12.484 -0.9956 -0.5749  0.1997
  916TIP3   OH224238   1.211   0.625  12.754  0.7740 -0.3854 -0.2930
  916TIP3    H124239   1.162   0.705  12.732  2.0223  0.5709  0.2276
  916TIP3    H224240   1.223   0.580  12.671  0.5377  0.2779 -0.6943
  917TIP3   OH224241   3.655   0.071  12.780  0.1606 -0.1706  0.1586
  917TIP3    H124242   3.658   0.120  12.698 -0.9136 -4.0770 -2.5158
  917TIP3    H224243   3.746   0.042  12.794  0.2929  0.2599  0.1989
  918TIP3   OH224244   1.493   1.184  12.744  0.1684 -0.0707 -0.2159
  918TIP3    H124245   1.542   1.240  12.684  0.1754 -1.5414 -1.6381
  918TIP3    H224246   1.440   1.246  12.795 -0.8393  1.2157 -2.6356
  919TIP3   OH224247   2.489   2.076   6.513  0.1559 -0.1323 -0.3488
  919TIP3    H124248   2.431   2.151   6.526  0.6864  0.0989  0.7472
  919TIP3    H224249   2.575   2.114   6.499  0.8020 -0.5241  2.1070
  920TIP3   OH224250   2.949   2.600  11.387  0.1966 -0.7068 -0.5711
  920TIP3    H124251   2.996   2.668  11.434 -1.1966  0.7963 -1.2278
  920TIP3    H224252   2.858   2.608  11.417 -0.4428 -0.7044 -2.3621
  921TIP3   OH224253   1.489   6.490   6.681 -0.0149  0.2083  0.2676
  921TIP3    H124254   1.567   6.483   6.627  0.4590  0.3291  0.9260
  921TIP3    H224255   1.504   6.430   6.754 -0.3267  0.5816  0.6456
  922TIP3   OH224256   2.982   0.550  11.335  0.1447 -0.2461 -0.2892
  922TIP3    H124257   2.937   0.624  11.295  1.3802  0.4403 -0.4609
  922TIP3    H224258   3.074   0.561  11.311  0.7364 -0.5361  1.6304
  923TIP3   OH224259   5.548   3.486   3.078 -0.1270  0.1251  0.4975
  923TIP3    H124260   5.558   3.481   2.983  0.7654  0.7218  0.5459
  923TIP3    H224261   5.473   3.545   3.092  0.4726  0.9830  0.1704
  924TIP3   OH224262   2.227   6.419  16.764  0.3013 -0.2504  0.0410
  924TIP3    H124263   2.137   6.429  16.734  1.0117  1.6971 -1.7149
  924TIP3    H224264   2.279   6.468  16.701  2.5255 -0.5659  1.4941
  925TIP3   OH224265   6.030   2.535   0.970  0.7992  0.1848 -0.0236
  925TIP3    H124266   6.107   2.513   0.917  0.4738  1.3214 -1.0119
  925TIP3    H224267   5.964   2.561   0.906  0.7454  2.7071  0.9419
  926TIP3   OH224268   6.664   2.289   2.195  0.1107  0.2585 -0.1393
  926TIP3    H124269   6.631   2.378   2.210 -1.8260 -0.3685 -0.3954
  926TIP3    H224270   6.741   2.283   2.251 -0.6190  1.5919  1.1036
  927TIP3   OH224271   5.345   3.305   5.930  0.1466 -0.3177 -0.6150
  927TIP3    H124272   5.293   3.382   5.953  2.6383  1.2988  0.0096
  927TIP3    H224273   5.382   3.327   5.844  1.3221 -0.5691 -0.1796
  928TIP3   OH224274   5.567   5.496  13.968 -0.7985  0.0891 -0.0813
  928TIP3    H124275   5.571   5.588  13.943 -0.9983  0.5362  1.4691
  928TIP3    H224276   5.655   5.463  13.949  0.1161  1.2919  1.8222
  929TIP3   OH224277   3.874   0.477   4.654 -0.1360  0.1236 -0.0249
  929TIP3    H124278   3.879   0.385   4.628  0.8952  0.2673 -0.3817
  929TIP3    H224279   3.965   0.501   4.673 -0.7169  0.2636  2.9756
  930TIP3   OH224280   0.241   1.390   3.952 -1.2444  0.0843  0.1742
  930TIP3    H124281   0.200   1.375   3.867  1.2341  2.2404 -1.5695
  930TIP3    H224282   0.202   1.473   3.982 -1.6763 -0.3686  0.8903
  931TIP3   OH224283   3.712   6.335  15.803 -0.1103  0.4024  0.2493
  931TIP3    H124284   3.618   6.316  15.795 -0.0433  0.2903 -0.3233
  931TIP3    H224285   3.731   6.322  15.896 -0.9029  1.5662  0.6065
  932TIP3   OH224286   1.882   0.851  13.646  0.3134  0.1173 -0.1160
  932TIP3    H124287   1.884   0.811  13.559 -1.3464  1.9597 -1.0918
  932TIP3    H224288   1.797   0.825  13.682  0.3459  0.6059  0.3279
  933TIP3   OH224289   0.503   1.364  16.382  0.2644 -0.2502 -0.2322
  933TIP3    H124290   0.437   1.365  16.312 -0.7107 -0.2842  0.6684
  933TIP3    H224291   0.513   1.455  16.407  0.1725 -0.2998 -0.0133
  934TIP3   OH224292   3.855   5.704   5.059 -0.5737  0.3876 -0.1385
  934TIP3    H124293   3.764   5.689   5.083 -0.8481 -2.0393 -2.3261
  934TIP3    H224294   3.851   5.757   4.979 -0.0840 -0.0947 -0.4886
  935TIP3   OH224295   1.483   3.584  15.921  0.2249 -0.1076  1.0044
  935TIP3    H124296   1.441   3.650  15.976 -1.6487 -0.5602  0.2116
  935TIP3    H224297   1.526   3.635  15.852 -1.2790  0.3375  0.3426
  936TIP3   OH224298   4.508   3.019  16.121 -0.0887 -0.0581 -0.2710
  936TIP3    H124299   4.500   2.980  16.208  1.0525 -0.3896 -0.2974
  936TIP3    H224300   4.426   3.066  16.108 -0.4260 -0.3190  0.8291
  937TIP3   OH224301   6.164   3.194   4.571 -0.0195  0.3314 -0.0050
  937TIP3    H124302   6.151   3.289   4.575  0.2827  0.3744 -0.0422
  937TIP3    H224303   6.252   3.183   4.536 -0.6750  0.0163 -1.6293
  938TIP3   OH224304   3.375   3.347   3.082  0.5060 -0.2465 -0.1554
  938TIP3    H124305   3.403   3.408   3.150  1.1818  0.7873 -1.3155
  938TIP3    H224306   3.302   3.391   3.039  0.4311 -0.6488 -0.4441
  939TIP3   OH224307   0.169   2.180  11.184 -0.2096 -0.5127  0.2820
  939TIP3    H124308   0.074   2.180  11.173  0.0323 -2.2355 -2.6248
  939TIP3    H224309   0.195   2.270  11.165 -1.2882  0.2656  2.2261
  940TIP3   OH224310   1.426   1.682  12.893  0.4402  0.1573 -0.3082
  940TIP3    H124311   1.515   1.699  12.862  0.8776 -0.1855  0.6941
  940TIP3    H224312   1.392   1.614  12.835  1.4791 -0.9553  0.3232
  941TIP3   OH224313   2.075   2.798  13.598 -0.2103  0.2690  0.5020
  941TIP3    H124314   2.090   2.835  13.511  2.0153 -0.6792  0.4237
  941TIP3    H224315   2.014   2.859  13.639 -0.0255  1.6436 -1.1270
  942TIP3   OH224316   1.607   0.985   3.622 -0.5936 -0.0728  0.1203
  942TIP3    H124317   1.625   0.892   3.607  0.0501  0.3331 -1.8967
  942TIP3    H224318   1.620   0.997   3.716  1.7939 -1.5292  0.0584
  943TIP3   OH224319   3.877   0.117  14.872 -0.0071 -0.0017 -0.2959
  943TIP3    H124320   3.845   0.153  14.954 -1.0277 -0.8746 -0.2881
  943TIP3    H224321   3.801   0.072  14.834  0.5316  0.1039 -1.5544
  944TIP3   OH224322   0.080   1.049  15.606 -0.7147  0.0292 -0.4613
  944TIP3    H124323   0.142   1.047  15.533  0.6307  0.1507  0.6371
  944TIP3    H224324   0.095   0.966  15.652  0.1694  0.9973  1.0356
  945TIP3   OH224325   4.208   4.197  16.917 -0.0851 -0.2130 -0.0945
  945TIP3    H124326   4.283   4.142  16.894 -1.8738 -3.4487  1.2012
  945TIP3    H224327   4.136   4.162  16.865 -1.6229 -0.1145  1.8579
  946TIP3   OH224328   5.108   3.754   6.627 -0.1923  0.4350 -0.0362
  946TIP3    H124329   5.084   3.821   6.691  3.4772  0.7829  1.2064
  946TIP3    H224330   5.127   3.802   6.547 -0.3325  0.5330 -0.0113
  947TIP3   OH224331   4.694   1.514   0.301  0.0048 -0.2938 -0.0234
  947TIP3    H124332   4.695   1.422   0.274  1.1493 -0.2651 -0.1627
  947TIP3    H224333   4.635   1.557   0.238 -0.8141 -0.9801  0.2581
  948TIP3   OH224334   1.435   2.102   5.252  0.2849 -0.5431  0.8082
  948TIP3    H124335   1.470   2.191   5.257  0.0621 -0.4288  0.3809
  948TIP3    H224336   1.489   2.059   5.186 -0.1150 -0.4897  0.4466
  949TIP3   OH224337   6.124   6.425  16.490 -0.4099 -0.1740  0.4945
  949TIP3    H124338   6.086   6.339  16.470  0.4851 -0.0135 -2.2514
  949TIP3    H224339   6.163   6.453  16.408  0.1048  2.4953  1.5772
  950TIP3   OH224340   2.724   4.756   1.882  0.8734  0.3228 -0.3430
  950TIP3    H124341   2.808   4.728   1.918 -0.4287 -2.4377  0.8693
  950TIP3    H224342   2.687   4.814   1.949  1.1292  0.2988 -0.1821
  951TIP3   OH224343   0.863   3.243  13.186  0.1589  0.2851  0.5041
  951TIP3    H124344   0.956   3.233  13.206  0.4648  0.6632 -0.6450
  951TIP3    H224345   0.859   3.319  13.128 -0.7917 -0.1435 -0.0068
  952TIP3   OH224346   1.183   0.552   0.706 -0.1428 -0.2684  0.2071
  952TIP3    H124347   1.258   0.505   0.742 -0.2266 -0.5335  0.0459
  952TIP3    H224348   1.126   0.568   0.781  0.1242  0.0286  0.3466
  953TIP3   OH224349   0.492   4.220   3.443  0.0851  0.0013  0.3739
  953TIP3    H124350   0.581   4.189   3.460  0.9060  1.4860 -0.9585
  953TIP3    H224351   0.501   4.279   3.369 -2.2766 -1.0812 -0.8952
  954TIP3   OH224352   2.365   0.939  11.271  0.6292  0.1777 -0.7844
  954TIP3    H124353   2.352   1.015  11.215 -0.0566  0.2700 -0.5133
  954TIP3    H224354   2.423   0.882  11.221  0.7011  0.6292 -1.2277
  955TIP3   OH224355   6.762   3.212  15.405 -0.1523 -0.0720 -0.1599
  955TIP3    H124356   6.821   3.286  15.390  1.0418 -1.3292 -2.0186
  955TIP3    H224357   6.715   3.201  15.322 -1.7386 -0.2361  0.7136
  956TIP3   OH224358   1.923   2.615  13.778 -0.1998 -0.1109 -0.9552
  956TIP3    H124359   1.906   2.539  13.722  4.5661 -1.5701 -0.9426
  956TIP3    H224360   1.994   2.661  13.734  0.1632  1.6946  1.3435
  957TIP3   OH224361   0.842   0.393  16.490 -0.1011 -0.5312 -0.0145
  957TIP3    H124362   0.935   0.415  16.501 -0.1985 -0.1894  0.1483
  957TIP3    H224363   0.801   0.426  16.570 -0.4066 -0.4265 -0.2153
  958TIP3   OH224364   4.232   0.404  10.735  0.1870 -0.0076  0.1966
  958TIP3    H124365   4.303   0.342  10.752 -0.5722 -0.7627  0.6968
  958TIP3    H224366   4.178   0.400  10.814 -1.2909 -0.6619 -0.8034
  959TIP3   OH224367   2.012   2.202  15.226  0.5978  0.6998  0.0106
  959TIP3    H124368   2.082   2.149  15.188  0.4655 -0.0052  0.7366
  959TIP3    H224369   2.022   2.288  15.184  0.0927 -0.1925 -2.0738
  960TIP3   OH224370   2.683   1.333  14.534  0.3052  0.5885  0.0181
  960TIP3    H124371   2.644   1.286  14.460  0.5567 -0.0834  0.3011
  960TIP3    H224372   2.774   1.347  14.508  0.4002  0.3293  0.2071
  961TIP3   OH224373   3.308   0.462  17.193 -0.4634  0.9142 -0.0874
  961TIP3    H124374   3.285   0.428  17.107  1.3338  0.6850 -0.5174
  961TIP3    H224375   3.262   0.404  17.255  1.1403 -1.2927 -0.8402
  962TIP3   OH224376   5.778   2.804   3.941 -0.4736  0.3303 -0.1066
  962TIP3    H124377   5.868   2.776   3.953 -0.1258  1.7268  0.7879
  962TIP3    H224378   5.783   2.899   3.938 -1.9908  0.4676  0.6948
  963TIP3   OH224379   2.614   5.113   4.168 -0.5797 -0.0278  0.1061
  963TIP3    H124380   2.670   5.171   4.220  1.5667 -0.6996 -1.3107
  963TIP3    H224381   2.543   5.169   4.137 -0.7991  0.8479  2.0471
  964TIP3   OH224382   5.969   5.536  14.930  0.1211  0.3993  0.1207
  964TIP3    H124383   5.898   5.506  14.986  1.4153  0.6773  1.9915
  964TIP3    H224384   5.964   5.480  14.852 -0.1433 -1.7961  1.6377
  965TIP3   OH224385   5.801   0.074   5.250 -0.2857  0.3833  0.1719
  965TIP3    H124386   5.718   0.053   5.292  0.3393  0.3297  1.4204
  965TIP3    H224387   5.813   0.006   5.184 -1.6367  0.8880 -0.6306
  966TIP3   OH224388   0.045   5.553  14.141  0.4125 -0.5802  0.3828
  966TIP3    H124389  -0.048   5.553  14.164 -0.0654 -3.5954 -1.0772
  966TIP3    H224390   0.055   5.626  14.080 -1.1656 -0.6949 -0.0424
  967TIP3   OH224391   0.220   1.407   4.415 -0.2149 -0.1507  0.3007
  967TIP3    H124392   0.176   1.336   4.461  2.0030 -0.6503  1.7994
  967TIP3    H224393   0.195   1.486   4.463  0.9972 -0.5145  1.6065
  968TIP3   OH224394   5.585   5.773  13.598  0.5484 -1.0879  0.4624
  968TIP3    H124395   5.644   5.755  13.671 -0.2535 -1.9945  0.9106
  968TIP3    H224396   5.512   5.712  13.611 -1.0494  0.7323  0.5919
  969TIP3   OH224397   4.504   1.848   0.792 -0.5906 -0.2622  0.0103
  969TIP3    H124398   4.430   1.793   0.817 -0.4589 -0.1198  0.7526
  969TIP3    H224399   4.476   1.893   0.713 -1.2727 -0.2640  0.2484
  970TIP3   OH224400   3.325   6.815   5.866 -0.1754 -0.1720  0.3798
  970TIP3    H124401   3.304   6.889   5.810 -0.6087 -0.3111  0.3544
  970TIP3    H224402   3.284   6.740   5.823  1.3594 -0.6670 -0.3147
  971TIP3   OH224403   1.620   5.393  13.041  0.1062  0.0656 -0.7774
  971TIP3    H124404   1.620   5.456  13.113  1.7365 -0.2666 -0.4398
  971TIP3    H224405   1.641   5.444  12.963  1.7657 -0.0808 -0.4497
  972TIP3   OH224406   4.021   1.278   3.893 -0.1988  0.1844  0.4487
  972TIP3    H124407   4.052   1.189   3.876 -0.4649  0.2951 -0.7323
  972TIP3    H224408   4.093   1.321   3.937  0.5183 -0.1875 -0.3232
  973TIP3   OH224409   3.544   0.980   0.089  0.5335 -0.3499  0.5886
  973TIP3    H124410   3.626   1.029   0.084  0.3168 -0.0164  0.2012
  973TIP3    H224411   3.564   0.904   0.143  2.1030 -2.1819 -2.3301
  974TIP3   OH224412   0.068   1.374   5.334  0.1959  0.0508 -0.8482
  974TIP3    H124413   0.070   1.463   5.370  0.6169 -0.4629  0.4150
  974TIP3    H224414   0.149   1.367   5.284  0.7143 -0.0153  0.0001
  975TIP3   OH224415   6.767   4.525  11.872 -0.0377 -0.5904 -0.7466
  975TIP3    H124416   6.752   4.518  11.778 -1.8540  2.6696 -0.8085
  975TIP3    H224417   6.821   4.603  11.882  0.7390 -1.2890  0.9281
  976TIP3   OH224418   4.283   3.623   2.024 -0.3037  0.4264  0.5549
  976TIP3    H124419   4.365   3.614   2.073 -0.2318  0.8441  0.5143
  976TIP3    H224420   4.291   3.707   1.979 -1.0053  0.7573  1.0242
  977TIP3   OH224421   3.619   5.569  15.179 -0.1092  0.6385 -0.5615
  977TIP3    H124422   3.589   5.552  15.089 -0.4449 -0.3196 -0.2789
  977TIP3    H224423   3.707   5.603  15.169 -0.0927  0.4069 -1.2538
  978TIP3   OH224424   4.967   3.754   4.527  0.9146  0.2506 -0.1929
  978TIP3    H124425   4.902   3.811   4.487  0.2182  0.6470  1.4065
  978TIP3    H224426   4.967   3.675   4.473  0.2545  0.8818 -1.1319
  979TIP3   OH224427   3.495   1.246   2.514 -0.3474  0.6055  0.5818
  979TIP3    H124428   3.483   1.286   2.601  1.2129 -0.6533  1.4363
  979TIP3    H224429   3.465   1.155   2.526 -1.9420  0.9165 -0.7638
  980TIP3   OH224430   2.196   6.153  12.166 -0.0986  0.3540  0.6300
  980TIP3    H124431   2.285   6.120  12.155  0.5653  2.2992 -0.1542
  980TIP3    H224432   2.165   6.171  12.078 -0.9998  0.3987  0.9425
  981TIP3   OH224433   5.039   0.175  13.767  0.7863  0.1685 -0.0269
  981TIP3    H124434   5.016   0.264  13.739  3.5196  1.0000  0.0576
  981TIP3    H224435   4.969   0.120  13.733 -1.0337  2.3587 -0.0174
  982TIP3   OH224436   4.945   1.626  11.229  0.1810  0.3805 -0.1093
  982TIP3    H124437   4.911   1.700  11.179 -1.0786 -0.1107 -0.0265
  982TIP3    H224438   5.004   1.581  11.169 -1.0842 -0.0401 -1.0669
  983TIP3   OH224439   0.221   0.485   1.315 -0.0518  0.1746 -0.5323
  983TIP3    H124440   0.220   0.440   1.230 -0.3056 -0.6282 -0.1145
  983TIP3    H224441   0.130   0.510   1.329 -0.3363 -1.1422  0.2313
  984TIP3   OH224442   0.284   6.211  13.158 -0.5393 -0.7197  0.4147
  984TIP3    H124443   0.355   6.238  13.217  1.1003 -1.7228 -1.0117
  984TIP3    H224444   0.250   6.130  13.197 -0.4560 -0.6074  0.7307
  985TIP3   OH224445   3.888   4.571   1.538  0.2291 -0.3282  0.3737
  985TIP3    H124446   3.948   4.589   1.466  0.9136  0.7795  1.1949
  985TIP3    H224447   3.801   4.587   1.502  0.5850  0.4877 -0.1295
  986TIP3   OH224448   2.864   4.963   3.718 -0.2955 -0.2916  0.9053
  986TIP3    H124449   2.789   4.908   3.740 -0.5603  0.8939  3.2511
  986TIP3    H224450   2.926   4.949   3.789  0.3536  1.1597  0.6567
  987TIP3   OH224451   4.339   5.466   4.597  0.3155 -0.6311  0.6638
  987TIP3    H124452   4.351   5.556   4.570  1.3186 -1.3772 -1.6064
  987TIP3    H224453   4.261   5.437   4.550  0.4503 -1.1769  0.7690
  988TIP3   OH224454   2.603   2.216   1.334 -0.3957 -0.3949  0.2491
  988TIP3    H124455   2.544   2.191   1.263  2.2507  0.1146 -2.3106
  988TIP3    H224456   2.575   2.303   1.359 -1.9399 -0.9444  0.5176
  989TIP3   OH224457   1.242   6.201  15.287 -0.3964  0.5455  0.3369
  989TIP3    H124458   1.277   6.243  15.366  1.5128  0.9448 -0.6738
  989TIP3    H224459   1.287   6.117  15.282  1.1594  1.3977 -1.4092
  990TIP3   OH224460   6.697   1.045  15.321  0.0048  1.0281 -0.1868
  990TIP3    H124461   6.664   1.066  15.234 -0.1817 -0.5230 -0.5168
  990TIP3    H224462   6.717   1.130  15.360 -0.6332  1.7878 -1.4485
  991TIP3   OH224463   0.438   4.186  16.728  0.4238 -0.0278  0.2412
  991TIP3    H124464   0.346   4.205  16.746  0.7117  0.8210  0.8687
  991TIP3    H224465   0.453   4.100  16.767 -0.1930 -0.3359 -0.1862
  992TIP3   OH224466   4.960   0.022  15.198  0.5162  0.5557  0.1546
  992TIP3    H124467   4.911  -0.025  15.265  3.1280 -1.1013  1.0922
  992TIP3    H224468   4.896   0.080  15.157 -1.5358  0.6656  3.1445
  993TIP3   OH224469   2.602   6.318  13.232  0.0356 -0.0277  0.2983
  993TIP3    H124470   2.629   6.385  13.169  0.6797  1.0171  1.6397
  993TIP3    H224471   2.655   6.241  13.210  2.4239  1.2218  1.3288
  994TIP3   OH224472   1.307   0.571   2.512 -0.0209 -0.1518  0.2471
  994TIP3    H124473   1.258   0.651   2.531 -0.7476 -0.5538  0.1107
  994TIP3    H224474   1.326   0.576   2.418 -0.7638 -0.5096  0.0717
  995TIP3   OH224475   4.126   1.159  12.538  0.1782 -0.0623  0.2998
  995TIP3    H124476   4.190   1.092  12.561  0.4425 -0.3085 -1.0904
  995TIP3    H224477   4.172   1.218  12.478 -0.2197  1.0580  1.0510
  996TIP3   OH224478   1.521   4.592   4.027  0.2133  0.0654  0.1719
  996TIP3    H124479   1.485   4.526   3.967  0.8895  0.6572 -0.9168
  996TIP3    H224480   1.529   4.546   4.111 -1.4179 -0.5788  0.0120
  997TIP3   OH224481   3.146   5.949  13.480  0.7215 -0.0912  0.0645
  997TIP3    H124482   3.176   5.993  13.401 -2.2631  1.2214 -0.4745
  997TIP3    H224483   3.157   6.013  13.550 -0.7579  0.4469 -0.1584
  998TIP3   OH224484   1.949   3.634  12.422  0.0672  0.7251  0.5934
  998TIP3    H124485   1.925   3.698  12.489  0.4806  1.1417  0.3564
  998TIP3    H224486   2.025   3.589  12.458 -0.9562 -0.5007  1.2877
  999TIP3   OH224487   3.339   4.178   0.088  0.5712  0.1301 -0.4655
  999TIP3    H124488   3.266   4.235   0.063  1.2550  0.9770 -0.5596
  999TIP3    H224489   3.344   4.187   0.183  1.3892  1.1247 -0.5870
 1000TIP3   OH224490   0.893   6.783  12.322 -0.5638  0.8451  0.6397
 1000TIP3    H124491   0.888   6.759  12.415  2.1833 -0.4363  0.5427
 1000TIP3    H224492   0.936   6.708  12.280 -1.8924  1.3105 -1.7426
 1001TIP3   OH224493   4.698   3.336   3.528 -0.0590  0.0957  0.0636
 1001TIP3    H124494   4.728   3.246   3.517  0.2013  0.2419 -0.4658
 1001TIP3    H224495   4.770   3.389   3.494 -0.6043  0.4693 -0.5390
 1002TIP3   OH224496   1.183   2.442  13.369  0.1778 -0.1142 -0.0897
 1002TIP3    H124497   1.118   2.494  13.321 -1.2755 -1.6628  0.1162
 1002TIP3    H224498   1.184   2.357  13.325  0.2953 -0.9093  1.3844
 1003TIP3   OH224499   2.939   3.664  14.247 -0.2544  0.1578 -1.1897
 1003TIP3    H124500   2.961   3.720  14.321 -0.1900 -0.0923 -1.0190
 1003TIP3    H224501   2.844   3.661  14.246 -0.2421 -0.6024 -0.5416
 1004TIP3   OH224502   4.890   3.509   2.019 -0.1648 -0.1797 -0.1792
 1004TIP3    H124503   4.802   3.477   2.002  0.2125 -1.1098 -0.4118
 1004TIP3    H224504   4.941   3.481   1.942  0.0641  1.4398 -0.6589
 1005TIP3   OH224505   4.871   3.542   4.141  0.1952  0.2051  0.3765
 1005TIP3    H124506   4.896   3.533   4.233 -0.0923 -1.2888  0.3314
 1005TIP3    H224507   4.952   3.527   4.093 -0.0192 -0.9606  0.3464
 1006TIP3   OH224508   5.260   2.149  11.920  0.1697  0.1801 -0.0570
 1006TIP3    H124509   5.328   2.189  11.866 -0.3552  1.9991  0.5553
 1006TIP3    H224510   5.265   2.194  12.004 -2.9087  1.7187 -0.5475
 1007TIP3   OH224511   2.331   0.824   3.053 -0.4573  0.3068 -0.2284
 1007TIP3    H124512   2.249   0.872   3.060 -0.8603 -0.4249  0.2920
 1007TIP3    H224513   2.353   0.826   2.960  0.2861  2.6803 -0.0582
 1008TIP3   OH224514   4.127   4.137   4.425  0.2675 -0.1807 -0.4316
 1008TIP3    H124515   4.123   4.206   4.491  0.4074 -0.5361 -0.0427
 1008TIP3    H224516   4.044   4.091   4.434  0.0297  0.1504 -0.9284
 1009TIP3   OH224517   6.418   4.341   2.228 -0.4143 -0.1265  0.8598
 1009TIP3    H124518   6.417   4.248   2.204 -0.5791  0.3558 -1.2267
 1009TIP3    H224519   6.341   4.378   2.185  0.3716  1.2049  0.5249
 1010TIP3   OH224520   2.899   2.157  17.072  0.1866  0.0535 -0.5130
 1010TIP3    H124521   2.987   2.150  17.036  0.1299  0.3240 -0.7140
 1010TIP3    H224522   2.898   2.096  17.146  0.5722  0.1229 -0.4461
 1011TIP3   OH224523   3.036   1.499   3.130  0.6519  0.0594 -0.2697
 1011TIP3    H124524   3.091   1.450   3.191  2.4296  2.8468  0.5090
 1011TIP3    H224525   3.087   1.503   3.049  0.0275 -0.2592 -0.6918
 1012TIP3   OH224526   3.720   3.980   2.342  0.1325  0.0001  0.0416
 1012TIP3    H124527   3.784   3.914   2.371  0.6181  0.1286 -0.7096
 1012TIP3    H224528   3.753   4.010   2.257 -0.4714  0.6955  0.0405
 1013TIP3   OH224529   3.298   0.988   3.481 -0.5380  0.4087  0.1304
 1013TIP3    H124530   3.233   0.965   3.415  1.2793 -1.8463 -0.9933
 1013TIP3    H224531   3.250   1.042   3.544 -2.9485  0.5343 -1.6883
 1014TIP3   OH224532   0.338   4.557  14.556  0.2773 -0.4023  0.4375
 1014TIP3    H124533   0.410   4.535  14.615  1.0133 -0.7724 -0.5582
 1014TIP3    H224534   0.355   4.505  14.477 -0.4474  0.3721 -0.2546
 1015TIP3   OH224535   1.067   4.818  17.157 -0.3219  0.2905 -0.1271
 1015TIP3    H124536   0.973   4.834  17.145 -0.4613 -1.0479 -1.0230
 1015TIP3    H224537   1.074   4.723  17.163  1.0337  0.3518 -0.5255
 1016TIP3   OH224538   6.198   3.432  15.167 -0.0711 -0.1441  0.7180
 1016TIP3    H124539   6.188   3.343  15.135 -0.8918  0.1327  0.1553
 1016TIP3    H224540   6.174   3.487  15.092 -0.3438  0.5401  1.2949
 1017TIP3   OH224541   2.508   4.194   5.803  0.5777 -0.8088  0.1556
 1017TIP3    H124542   2.457   4.270   5.827 -2.2590 -2.8933  1.2653
 1017TIP3    H224543   2.478   4.170   5.715  2.0341 -0.2654 -0.5305
 1018TIP3   OH224544   3.348   5.459  16.551 -0.2309  0.2841 -0.1026
 1018TIP3    H124545   3.422   5.508  16.583  0.6643  0.0119 -1.6577
 1018TIP3    H224546   3.271   5.509  16.579  0.5324  0.8518  1.0450
 1019TIP3   OH224547   3.867   3.807   5.168  0.6559 -0.5044 -0.3288
 1019TIP3    H124548   3.797   3.759   5.124 -1.4774  1.0514  1.1634
 1019TIP3    H224549   3.888   3.878   5.107  0.0425 -0.2479 -0.2453
 1020TIP3   OH224550   5.114   4.544  11.104 -0.5575  0.2823  0.1375
 1020TIP3    H124551   5.103   4.542  11.009  0.9094 -0.2138 -0.0371
 1020TIP3    H224552   5.208   4.535  11.118 -0.6854  0.9314  1.6280
 1021TIP3   OH224553   1.636   0.876  13.461 -0.4648 -0.5655  0.1715
 1021TIP3    H124554   1.631   0.832  13.545 -0.9825  0.8496  0.9123
 1021TIP3    H224555   1.729   0.877  13.439 -0.3302 -0.9593  0.7126
 1022TIP3   OH224556   3.692   0.898   2.368  0.3024 -0.6952 -0.0870
 1022TIP3    H124557   3.671   0.821   2.421  0.0008 -1.4474 -1.2727
 1022TIP3    H224558   3.608   0.930   2.337  0.4934 -0.3564 -0.2603
 1023TIP3   OH224559   2.773   3.938  15.225  0.4430 -0.6012  0.4066
 1023TIP3    H124560   2.867   3.923  15.238  0.6358 -0.7764 -0.9524
 1023TIP3    H224561   2.732   3.855  15.250  0.9128 -1.3713 -1.1888
 1024TIP3   OH224562   0.445   6.296  16.831 -0.3111 -0.0489 -0.3462
 1024TIP3    H124563   0.411   6.251  16.753 -0.4263 -1.9442  0.7369
 1024TIP3    H224564   0.535   6.266  16.839 -0.3094  0.1073  0.2620
 1025TIP3   OH224565   6.339   4.384  16.022 -0.0288  0.2396 -0.3636
 1025TIP3    H124566   6.396   4.427  16.086 -0.1455  1.6756 -1.1849
 1025TIP3    H224567   6.267   4.349  16.074  0.6046  0.0960  0.4482
 1026TIP3   OH224568   6.607   2.734   2.894 -0.2025  0.2918 -0.3267
 1026TIP3    H124569   6.660   2.810   2.870 -0.2646  0.3974 -0.1266
 1026TIP3    H224570   6.622   2.722   2.987  0.6538 -0.6056 -0.5761
 1027TIP3   OH224571   5.436   1.241   2.529 -0.0506  0.0439 -0.1849
 1027TIP3    H124572   5.395   1.185   2.594  0.7772  2.2543  2.4062
 1027TIP3    H224573   5.528   1.244   2.554  0.3260  0.8725 -1.5329
 1028TIP3   OH224574   2.348   2.878   2.891  0.0789 -0.1927  0.0366
 1028TIP3    H124575   2.377   2.886   2.982 -1.8226 -1.0209  0.7731
 1028TIP3    H224576   2.322   2.786   2.882 -1.1990  0.2298 -0.8671
 1029TIP3   OH224577   4.798   2.541   5.025  0.1587 -0.6052 -0.0777
 1029TIP3    H124578   4.851   2.612   4.988 -0.4912  1.5737  2.7498
 1029TIP3    H224579   4.851   2.508   5.097 -0.4085 -1.6251 -0.1195
 1030TIP3   OH224580   3.986   1.120  16.252  0.0679  0.3684 -0.1826
 1030TIP3    H124581   3.994   1.169  16.334  2.6548 -0.2796  0.0140
 1030TIP3    H224582   4.055   1.155  16.196  0.2709 -1.2557 -0.9870
 1031TIP3   OH224583   3.824   0.102   5.210 -0.0733 -1.0499  0.4543
 1031TIP3    H124584   3.830   0.154   5.129 -0.3256  0.7482  1.5345
 1031TIP3    H224585   3.912   0.064   5.220  0.4059 -0.0944  0.0745
 1032TIP3   OH224586   1.430   6.182  17.101 -0.3130  0.1748 -0.0859
 1032TIP3    H124587   1.392   6.110  17.150 -0.2229  0.1319 -0.0780
 1032TIP3    H224588   1.482   6.139  17.032  1.3481  0.1711  1.0995
 1033TIP3   OH224589   5.472   6.488  12.171  0.3216 -0.1570 -0.0062
 1033TIP3    H124590   5.390   6.524  12.138  0.2231  1.3805  1.7181
 1033TIP3    H224591   5.446   6.420  12.233  0.3771 -0.2082 -0.0383
 1034TIP3   OH224592   3.556   6.704  14.318 -0.1443  0.0234 -0.3225
 1034TIP3    H124593   3.638   6.669  14.284  0.5218 -0.7647  1.8682
 1034TIP3    H224594   3.495   6.700  14.244  1.9196  1.2296 -2.1788
 1035TIP3   OH224595   0.480   3.839   4.372  0.6632  0.6948  0.1841
 1035TIP3    H124596   0.485   3.926   4.332 -0.2518  0.4829 -0.4180
 1035TIP3    H224597   0.390   3.833   4.404  0.8222  0.0963  0.5224
 1036TIP3   OH224598   5.085   4.517  16.556  0.3512  0.3173 -0.2634
 1036TIP3    H124599   5.046   4.432  16.534  1.8928 -0.3709 -0.4609
 1036TIP3    H224600   5.121   4.549  16.473  0.0839  1.0176 -0.1180
 1037TIP3   OH224601   2.092   6.531  10.868  0.4934 -0.0106 -0.3367
 1037TIP3    H124602   1.996   6.524  10.864  0.4456  0.9916 -1.3188
 1037TIP3    H224603   2.122   6.441  10.881 -0.5842 -0.3256  0.0859
 1038TIP3   OH224604   6.623   4.675  11.386 -0.9628  0.0908 -0.1547
 1038TIP3    H124605   6.555   4.730  11.347 -0.7108  0.3520 -0.2269
 1038TIP3    H224606   6.645   4.718  11.468 -0.8480  0.0350 -0.1558
 1039TIP3   OH224607   3.899   6.153  14.588  0.0771 -0.5737 -0.1946
 1039TIP3    H124608   3.922   6.238  14.551  1.6379 -0.3135  1.2786
 1039TIP3    H224609   3.937   6.089  14.527 -1.7157 -0.3172 -1.7032
 1040TIP3   OH224610   1.480   0.967   5.374 -0.1581 -0.1561 -0.6947
 1040TIP3    H124611   1.408   0.979   5.436  0.6793  0.4442  0.1906
 1040TIP3    H224612   1.439   0.929   5.296 -1.6648  1.4301 -0.7269
 1041TIP3   OH224613   6.304   5.231   4.209  0.2007 -0.1798 -0.0961
 1041TIP3    H124614   6.288   5.261   4.299 -1.1493  1.0897 -0.7137
 1041TIP3    H224615   6.232   5.171   4.191  0.7751 -0.8635 -0.1663
 1042TIP3   OH224616   2.111   2.030  14.488 -0.6588 -0.6458 -0.1270
 1042TIP3    H124617   2.020   2.047  14.512 -0.4445  2.2157 -0.8951
 1042TIP3    H224618   2.156   2.018  14.571 -1.3645  0.2388  0.4008
 1043TIP3   OH224619   2.702   2.705  15.777 -0.7883  0.1767 -0.0632
 1043TIP3    H124620   2.749   2.778  15.737  2.1830 -1.0180  0.9826
 1043TIP3    H224621   2.634   2.746  15.829 -1.0510  2.0080 -1.7184
 1044TIP3   OH224622   2.343   1.214  16.238 -0.4824  0.2048 -0.0015
 1044TIP3    H124623   2.342   1.278  16.167 -0.0831 -0.4881 -0.6379
 1044TIP3    H224624   2.305   1.261  16.312  1.9713  1.9988  0.2654
 1045TIP3   OH224625   4.803   3.649  15.520 -0.2298  0.1726  0.0275
 1045TIP3    H124626   4.849   3.639  15.437  0.9448 -0.4155  0.7203
 1045TIP3    H224627   4.764   3.736  15.515 -1.0009 -0.2284 -1.5189
 1046TIP3   OH224628   5.312   0.644   4.451 -0.4141  0.0460  0.1191
 1046TIP3    H124629   5.306   0.722   4.506 -0.1274 -0.4419  0.8681
 1046TIP3    H224630   5.282   0.573   4.508  0.4285 -0.5551 -0.1601
 1047TIP3   OH224631   0.971   5.851  14.737  0.0923  0.3086  0.2155
 1047TIP3    H124632   1.008   5.824  14.821  1.7451  0.7151 -0.3407
 1047TIP3    H224633   1.041   5.901  14.694 -0.7304  0.1910 -1.3718
 1048TIP3   OH224634   2.776   3.832  11.908  0.3003  0.0968  0.0837
 1048TIP3    H124635   2.696   3.840  11.961  0.3864 -0.9001  0.3654
 1048TIP3    H224636   2.746   3.846  11.818 -0.2279 -0.4447  0.1707
 1049TIP3   OH224637   4.700   4.451  16.068  0.2399 -0.0047 -0.0045
 1049TIP3    H124638   4.649   4.407  16.000 -1.8862  0.6128  1.1201
 1049TIP3    H224639   4.723   4.536  16.029  0.3851 -0.2601 -0.4919
 1050TIP3   OH224640   6.416   6.342   2.576 -0.2021  0.0541  0.1061
 1050TIP3    H124641   6.365   6.276   2.531  0.7448 -0.2866 -0.5044
 1050TIP3    H224642   6.352   6.392   2.627 -0.8215 -1.9608  1.4011
 1051TIP3   OH224643   5.160   0.579   0.821 -0.9408  0.2837  0.0856
 1051TIP3    H124644   5.081   0.527   0.823 -0.7152 -0.0923 -0.5433
 1051TIP3    H224645   5.138   0.656   0.768 -0.2938 -0.8578 -1.9652
 1052TIP3   OH224646   3.662   4.520  12.745  0.2919 -0.3650 -0.2542
 1052TIP3    H124647   3.646   4.509  12.651  0.2109 -0.3702 -0.2392
 1052TIP3    H224648   3.750   4.485  12.758  1.2220  1.6152 -0.7196
 1053TIP3   OH224649   4.931   0.764  13.864 -0.5071  0.0283  1.0003
 1053TIP3    H124650   4.892   0.678  13.880 -0.6383  0.1415  1.2986
 1053TIP3    H224651   4.964   0.791  13.950  1.7936 -0.8261  0.4584
 1054TIP3   OH224652   4.058   4.263   1.559  0.0369  0.4296  0.3170
 1054TIP3    H124653   4.023   4.237   1.644  1.2529  1.2073  1.0776
 1054TIP3    H224654   3.982   4.297   1.512 -0.8275 -0.8371  0.7308
 1055TIP3   OH224655   5.152   1.948   5.752  0.6160 -0.1664  0.1000
 1055TIP3    H124656   5.221   1.902   5.801 -0.8118 -1.6660  0.7904
 1055TIP3    H224657   5.076   1.891   5.757 -1.0389  1.9090  0.2790
 1056TIP3   OH224658   2.700   2.529  13.458 -0.1927 -0.4624 -0.2868
 1056TIP3    H124659   2.637   2.600  13.472  1.4053  0.8220  0.8608
 1056TIP3    H224660   2.735   2.511  13.545  0.6040 -1.5346 -0.8163
 1057TIP3   OH224661   4.366   2.507  10.513 -0.4827  0.3754  0.8661
 1057TIP3    H124662   4.287   2.454  10.510  0.1558 -0.5859  0.4880
 1057TIP3    H224663   4.391   2.517  10.421 -1.4344  2.6663  0.7943
 1058TIP3   OH224664   4.192   4.765   3.184 -0.2098  0.2437  0.1749
 1058TIP3    H124665   4.228   4.735   3.101 -2.4958 -0.2050 -0.7041
 1058TIP3    H224666   4.115   4.711   3.199  1.1117 -0.9697  3.5473
 1059TIP3   OH224667   6.574   5.675  10.563 -0.1915  0.4334 -0.4475
 1059TIP3    H124668   6.588   5.607  10.629  1.7304  0.3230 -0.9043
 1059TIP3    H224669   6.527   5.631  10.492 -1.0809  0.2233  0.2477
 1060TIP3   OH224670   1.428   4.285   4.120 -0.1354 -0.1358  0.1873
 1060TIP3    H124671   1.419   4.217   4.187  2.4358 -1.6425 -0.8648
 1060TIP3    H224672   1.483   4.245   4.052  0.3523  2.5634 -1.1312
 1061TIP3   OH224673   2.275   2.018   4.627  0.4373 -0.0042  0.3114
 1061TIP3    H124674   2.280   1.926   4.655 -2.4731  0.6333  3.6430
 1061TIP3    H224675   2.182   2.034   4.615  0.8574  2.5752  0.0218
 1062TIP3   OH224676   5.155   3.839   0.192  0.0860 -0.1828 -0.2668
 1062TIP3    H124677   5.159   3.795   0.107 -1.2727  2.0655 -1.5840
 1062TIP3    H224678   5.237   3.888   0.198  0.2072 -0.3863 -0.2314
 1063TIP3   OH224679   6.725   1.375   6.699  0.2909 -0.4516 -0.2641
 1063TIP3    H124680   6.819   1.392   6.694  0.1760  0.2946  0.0223
 1063TIP3    H224681   6.716   1.281   6.681  1.0279 -0.3928 -0.9778
 1064TIP3   OH224682   1.652   1.689  12.197 -0.0145 -0.3874 -0.5038
 1064TIP3    H124683   1.665   1.666  12.289 -0.4869  0.5083 -0.1929
 1064TIP3    H224684   1.687   1.778  12.190 -0.3570 -0.2956 -1.0928
 1065TIP3   OH224685   2.393   4.450   5.360  0.1627  0.0384  0.0055
 1065TIP3    H124686   2.351   4.393   5.296  0.9198 -1.9895  1.1998
 1065TIP3    H224687   2.485   4.452   5.333  0.2887  0.0282  0.4322
 1066TIP3   OH224688   4.121   0.967   5.682 -0.1635 -0.0898 -0.1740
 1066TIP3    H124689   4.174   0.897   5.720  1.4937  1.6891  0.9764
 1066TIP3    H224690   4.144   1.045   5.732 -2.7060  1.1271 -0.7221
 1067TIP3   OH224691   2.601   5.162  11.818  0.1435  0.4793 -0.0413
 1067TIP3    H124692   2.516   5.200  11.796  0.3960  0.9501 -0.1914
 1067TIP3    H224693   2.579   5.073  11.848 -0.3891  0.5510 -0.1988
 1068TIP3   OH224694   5.002   6.491   4.845 -0.1586 -0.6463 -0.4321
 1068TIP3    H124695   4.981   6.430   4.774  0.0879  0.9040 -1.8923
 1068TIP3    H224696   4.971   6.576   4.814 -0.6152 -0.0241  1.6075
 1069TIP3   OH224697   4.384   1.178  13.912 -0.6590  0.6537  0.2589
 1069TIP3    H124698   4.318   1.165  13.844 -0.5481 -0.2773  0.3257
 1069TIP3    H224699   4.334   1.193  13.992 -0.8059 -0.8414  0.4620
 1070TIP3   OH224700   6.240   1.723   1.616 -0.2816  0.0795  0.3612
 1070TIP3    H124701   6.238   1.777   1.694  0.9748  0.2926  0.2613
 1070TIP3    H224702   6.287   1.643   1.643 -0.0681  0.0456 -0.0986
 1071TIP3   OH224703   1.369   0.038  12.660  0.1386 -0.2141 -0.3136
 1071TIP3    H124704   1.329  -0.022  12.598 -2.1727  0.7550  0.1529
 1071TIP3    H224705   1.314   0.033  12.738  0.9367  1.1802  0.3925
 1072TIP3   OH224706   1.719   5.832  12.543  0.1101 -0.0760 -0.1605
 1072TIP3    H124707   1.732   5.767  12.612  0.1185 -0.5400 -0.5956
 1072TIP3    H224708   1.706   5.781  12.463  1.0651  0.4509 -0.6862
 1073TIP3   OH224709   4.981   4.936  10.456 -0.4403 -0.3548  0.5153
 1073TIP3    H124710   4.905   4.935  10.515  0.1329  0.4226  1.3070
 1073TIP3    H224711   5.025   5.019  10.476 -0.6603  0.3282 -1.6017
 1074TIP3   OH224712   0.243   3.183  12.625 -0.0607 -0.1890  0.2763
 1074TIP3    H124713   0.193   3.202  12.546  0.6214  0.1632 -0.0861
 1074TIP3    H224714   0.304   3.114  12.598 -0.3760 -0.6402  0.7180
 1075TIP3   OH224715   1.515   3.103  15.362  0.2316 -0.1377  0.6244
 1075TIP3    H124716   1.598   3.063  15.336 -0.1276 -1.0926  0.9288
 1075TIP3    H224717   1.525   3.196  15.338  0.8945 -0.4846 -0.5148
 1076TIP3   OH224718   5.349   4.381  12.752  0.8528 -0.4448  0.2678
 1076TIP3    H124719   5.409   4.449  12.784 -0.2585  0.7424 -0.0726
 1076TIP3    H224720   5.263   4.423  12.754  0.3354 -1.3495 -1.3785
 1077TIP3   OH224721   5.546   3.135  16.001 -0.3004 -0.4978 -0.0129
 1077TIP3    H124722   5.632   3.160  16.033  0.7729 -1.3671 -2.0495
 1077TIP3    H224723   5.551   3.040  15.991 -1.3222 -0.5015 -0.6581
 1078TIP3   OH224724   2.720   1.560  16.103  0.4052 -0.5099 -1.1741
 1078TIP3    H124725   2.814   1.577  16.106  0.5581 -1.4171  0.4674
 1078TIP3    H224726   2.703   1.503  16.178 -1.7535  1.2128 -0.2033
 1079TIP3   OH224727   2.239   0.469  17.111  0.4168  0.0330 -0.3039
 1079TIP3    H124728   2.158   0.447  17.064 -0.3846 -0.4143  1.2176
 1079TIP3    H224729   2.304   0.408  17.076 -0.3485 -0.8124 -0.2971
 1080TIP3   OH224730   5.630   4.502   0.635 -0.3234  0.5600 -0.0972
 1080TIP3    H124731   5.641   4.407   0.632  0.0122  0.5798  0.3835
 1080TIP3    H224732   5.687   4.535   0.566  1.0771  0.5212  0.9833
 1081TIP3   OH224733   1.324   0.918   3.613  0.1142  0.0130  0.3364
 1081TIP3    H124734   1.413   0.942   3.589 -0.6030  0.9428 -1.5945
 1081TIP3    H224735   1.323   0.922   3.709  3.0514 -3.5508  0.7392
 1082TIP3   OH224736   2.700   6.484   1.559 -0.0741 -0.3058  0.0921
 1082TIP3    H124737   2.781   6.467   1.606  0.7067  0.7406 -0.8282
 1082TIP3    H224738   2.645   6.533   1.620  0.3820 -0.1499  0.3727
 1083TIP3   OH224739   6.596   0.212  12.786  0.4810 -0.3727 -0.2248
 1083TIP3    H124740   6.546   0.179  12.860  1.1714 -1.1154 -0.0724
 1083TIP3    H224741   6.591   0.143  12.720 -1.6462  1.0030 -1.6410
 1084TIP3   OH224742   3.806   5.476   1.716  0.2043  0.1727 -0.0839
 1084TIP3    H124743   3.866   5.522   1.775 -0.4857  1.1581 -0.1193
 1084TIP3    H224744   3.860   5.451   1.641  0.3931  1.9609 -0.5936
 1085TIP3   OH224745   3.450   4.655  11.021  0.6169 -0.0425  0.0732
 1085TIP3    H124746   3.406   4.739  11.030  1.9380  0.6032  0.7516
 1085TIP3    H224747   3.412   4.616  10.942 -1.1132  0.4866  0.5965
 1086TIP3   OH224748   0.578   3.266  16.304  0.7737 -0.1029  0.1797
 1086TIP3    H124749   0.532   3.238  16.225  0.2944  0.5968  0.2036
 1086TIP3    H224750   0.670   3.245  16.287  0.4777 -1.4283  0.1002
 1087TIP3   OH224751   0.280   0.222   5.351 -0.2744 -0.4051  0.6098
 1087TIP3    H124752   0.313   0.258   5.433  0.3599 -1.9655  1.0731
 1087TIP3    H224753   0.286   0.127   5.362  0.3345 -0.6596 -1.4422
 1088TIP3   OH224754   2.727   6.316  12.037  0.1471 -0.3599 -0.1846
 1088TIP3    H124755   2.753   6.238  11.987  1.0412 -0.5589  0.5823
 1088TIP3    H224756   2.754   6.389  11.982  0.5720 -0.5772 -0.2664
 1089TIP3   OH224757   1.389   1.219  14.464  0.6843 -0.4411 -0.8602
 1089TIP3    H124758   1.460   1.158  14.483 -0.0944 -1.8562 -2.3153
 1089TIP3    H224759   1.309   1.168  14.474 -0.0538  0.6394 -1.0264
 1090TIP3   OH224760   0.615   3.051   1.861 -0.5662 -0.4900 -0.3188
 1090TIP3    H124761   0.570   3.016   1.785 -0.1234  0.7469 -1.2004
 1090TIP3    H224762   0.603   3.146   1.854 -1.5090 -0.4012  1.8129
 1091TIP3   OH224763   2.935   1.142  10.655  0.1690 -0.4122  0.1847
 1091TIP3    H124764   2.852   1.186  10.636  0.3650 -0.1284 -0.0174
 1091TIP3    H224765   2.955   1.094  10.575  1.0911  0.9362 -0.4367
 1092TIP3   OH224766   6.759   5.539   1.879  0.1920 -0.1135  0.4178
 1092TIP3    H124767   6.664   5.547   1.865  0.0226 -0.7719  1.0966
 1092TIP3    H224768   6.790   5.629   1.884 -0.4097  0.1107  0.2139
 1093TIP3   OH224769   5.055   3.077  16.652  0.6095 -0.5642  0.5730
 1093TIP3    H124770   5.082   3.143  16.588  0.1128 -0.7601  0.1480
 1093TIP3    H224771   4.988   3.026  16.606 -0.8846  0.2422  1.7583
 1094TIP3   OH224772   4.417   2.444   0.272 -0.1811 -0.1974  0.1744
 1094TIP3    H124773   4.441   2.520   0.326  2.8355 -0.4585 -0.6104
 1094TIP3    H224774   4.422   2.476   0.182  0.7295 -1.1898 -0.1509
 1095TIP3   OH224775   0.674   2.892   5.275 -0.0885 -0.0096  0.0479
 1095TIP3    H124776   0.609   2.871   5.342  0.2338 -0.3422  0.2645
 1095TIP3    H224777   0.632   2.870   5.192  0.1412 -1.2948  0.2525
 1096TIP3   OH224778   1.421   4.387   1.893  0.6420  0.6184  0.1413
 1096TIP3    H124779   1.436   4.377   1.799  0.3296  1.0178  0.0445
 1096TIP3    H224780   1.446   4.303   1.931 -0.5747 -0.0532 -0.4760
 1097TIP3   OH224781   6.280   6.546   0.624  0.4271  0.5473  0.9038
 1097TIP3    H124782   6.283   6.546   0.529  0.6939 -1.3454  0.8597
 1097TIP3    H224783   6.307   6.634   0.650  1.9639  0.6092 -0.7396
 1098TIP3   OH224784   5.842   0.888  15.245 -0.4550 -0.5927  0.1548
 1098TIP3    H124785   5.761   0.873  15.196 -0.8172  1.6105 -0.0513
 1098TIP3    H224786   5.857   0.983  15.237  3.5521 -1.1965 -1.9756
 1099TIP3   OH224787   3.628   5.453   4.906 -0.1622 -0.1516 -0.0561
 1099TIP3    H124788   3.715   5.476   4.940 -0.4276  2.2775 -0.7899
 1099TIP3    H224789   3.574   5.529   4.926 -1.7674 -1.0137 -0.8887
 1100TIP3   OH224790   6.301   4.545  12.014  0.1733  0.0946 -0.0438
 1100TIP3    H124791   6.319   4.531  12.107  0.7149 -0.5253 -0.2361
 1100TIP3    H224792   6.334   4.633  11.996  0.8195 -0.0964  0.1688
 1101TIP3   OH224793   5.771   6.769   3.336  0.3380  0.1065  0.8194
 1101TIP3    H124794   5.845   6.818   3.303 -0.0173  0.1870  0.1408
 1101TIP3    H224795   5.758   6.698   3.273 -0.1552  0.0830  0.9417
 1102TIP3   OH224796   5.483   3.556   1.387 -0.3645 -0.5885  0.3453
 1102TIP3    H124797   5.574   3.583   1.390 -0.5022 -0.1863  1.5915
 1102TIP3    H224798   5.483   3.473   1.339  0.2876  0.7534 -2.1307
 1103TIP3   OH224799   0.628   5.166  16.376 -0.1676  0.5060  0.5811
 1103TIP3    H124800   0.554   5.222  16.356 -1.0517 -1.2627 -1.3452
 1103TIP3    H224801   0.608   5.082  16.335  1.4355 -1.0455  2.7192
 1104TIP3   OH224802   0.103   5.077  13.950  0.0363  0.6619 -0.6853
 1104TIP3    H124803   0.173   5.081  13.885  0.5557  0.5956 -0.1322
 1104TIP3    H224804   0.085   5.169  13.971 -0.4991  0.7091 -1.2993
 1105TIP3   OH224805   2.197   2.917  12.114  0.2685  0.0846 -0.5979
 1105TIP3    H124806   2.144   2.919  12.035 -0.3363 -0.5636 -0.2252
 1105TIP3    H224807   2.134   2.931  12.185  0.5357 -0.9408 -0.1326
 1106TIP3   OH224808   2.551   4.848  16.663  0.2718 -0.0007 -0.4170
 1106TIP3    H124809   2.615   4.917  16.681  0.5389 -0.5834  1.0059
 1106TIP3    H224810   2.466   4.891  16.676  0.4425 -0.0554  1.0166
 1107TIP3   OH224811   3.557   1.662  15.489 -0.7275  0.1551 -0.0524
 1107TIP3    H124812   3.535   1.624  15.575 -0.7186 -1.1761 -0.6104
 1107TIP3    H224813   3.490   1.728  15.474 -1.5480 -0.5606  0.3787
 1108TIP3   OH224814   0.693   4.119   0.058 -0.1743 -0.0941 -0.4095
 1108TIP3    H124815   0.613   4.073   0.031  1.0266 -1.5627 -1.7257
 1108TIP3    H224816   0.693   4.113   0.153 -0.2272 -2.7095 -0.4941
 1109TIP3   OH224817   6.667   0.911  13.623  0.1328  0.2650  0.2075
 1109TIP3    H124818   6.585   0.861  13.627 -0.1517  0.7901  2.5835
 1109TIP3    H224819   6.647   0.993  13.668  2.0256  0.2758  1.1166
 1110TIP3   OH224820   0.335   6.271   0.391 -0.7952  0.0390  0.4855
 1110TIP3    H124821   0.407   6.333   0.401  0.7064 -1.4411 -0.6419
 1110TIP3    H224822   0.318   6.270   0.297 -0.9577 -1.0610  0.5150
 1111TIP3   OH224823   6.282   0.649   2.030 -0.6534 -0.4370 -0.5585
 1111TIP3    H124824   6.271   0.735   1.990  0.0096 -0.9841 -1.9648
 1111TIP3    H224825   6.371   0.651   2.065  0.6110 -1.6168 -3.4374
 1112TIP3   OH224826   2.346   1.282   1.283  0.1383  0.3107 -0.1211
 1112TIP3    H124827   2.291   1.360   1.290  0.5885  0.5583  0.9286
 1112TIP3    H224828   2.311   1.222   1.348  1.9287  1.0281  1.6254
 1113TIP3   OH224829   5.764   1.649   0.947  0.4984  0.0620 -0.4851
 1113TIP3    H124830   5.819   1.690   1.013 -1.6585 -0.0868  1.5507
 1113TIP3    H224831   5.734   1.568   0.988 -2.8990  1.1369 -0.5429
 1114TIP3   OH224832   4.688   4.818   2.503 -0.1285  0.7035  0.2599
 1114TIP3    H124833   4.752   4.847   2.437  0.6153 -0.0072  0.6496
 1114TIP3    H224834   4.632   4.894   2.517  0.7118  1.3883 -0.0020
 1115TIP3   OH224835   4.308   5.954   3.011  0.2760  0.4466  0.1931
 1115TIP3    H124836   4.279   5.957   2.920 -1.1929  2.2986  0.6433
 1115TIP3    H224837   4.250   5.891   3.053 -0.1618  0.8216  0.1626
 1116TIP3   OH224838   1.411   1.550  13.159 -0.2587 -0.6373  0.0228
 1116TIP3    H124839   1.338   1.541  13.220 -0.2550  2.0346  0.5593
 1116TIP3    H224840   1.381   1.617  13.097  1.9514  1.1333  0.7230
 1117TIP3   OH224841   1.217   5.847  13.907 -0.5251 -0.0506 -0.2995
 1117TIP3    H124842   1.127   5.814  13.914 -0.8441  1.0440  1.2108
 1117TIP3    H224843   1.259   5.821  13.989  0.8641 -1.3537 -1.3700
 1118TIP3   OH224844   4.578   5.893   4.035  0.0930 -0.1150 -0.6790
 1118TIP3    H124845   4.612   5.819   3.983 -0.1113 -0.4441 -0.3483
 1118TIP3    H224846   4.567   5.857   4.122  3.1931  1.1463  0.3971
 1119TIP3   OH224847   3.469   3.410  16.896  0.5652  0.0757  0.3060
 1119TIP3    H124848   3.458   3.319  16.869  0.5866  0.4805 -1.1457
 1119TIP3    H224849   3.478   3.406  16.992  0.8557 -1.4642  0.2376
 1120TIP3   OH224850   6.145   6.483  13.110  0.5140  0.0125 -0.7185
 1120TIP3    H124851   6.202   6.530  13.048 -1.2628  0.2524 -2.2425
 1120TIP3    H224852   6.181   6.395  13.113  1.5383  0.4029 -0.8971
 1121TIP3   OH224853   5.415   0.957   2.453 -0.0469 -0.0822 -0.2134
 1121TIP3    H124854   5.490   0.993   2.406  0.2237  2.1596  1.7381
 1121TIP3    H224855   5.424   0.991   2.542 -2.3650 -1.3174  0.5736
 1122TIP3   OH224856   3.586   4.016  13.451  0.0786  0.2251  0.2753
 1122TIP3    H124857   3.638   3.945  13.490  0.7838  1.6303  2.0514
 1122TIP3    H224858   3.594   4.088  13.513 -2.0122  1.3265 -0.6345
 1123TIP3   OH224859   1.132   0.010   1.772  0.1642 -0.2226 -0.1356
 1123TIP3    H124860   1.197   0.004   1.841 -1.6668  1.0593  1.8433
 1123TIP3    H224861   1.072  -0.063   1.789  1.1090 -1.5479 -2.0808
 1124TIP3   OH224862   2.059   6.284  17.134  0.8028 -0.1347  0.2892
 1124TIP3    H124863   1.984   6.288  17.075  0.2797 -1.0714  0.8724
 1124TIP3    H224864   2.037   6.214  17.196  1.8422  0.0645  0.8992
 1125TIP3   OH224865   3.920   5.492  13.458 -0.1115  0.2109  0.5599
 1125TIP3    H124866   3.913   5.510  13.365 -0.3056  0.9814  0.7168
 1125TIP3    H224867   3.904   5.577  13.500 -1.8725 -0.4743  1.3517
 1126TIP3   OH224868   0.398   5.545  11.355 -0.0666  0.3139 -0.3181
 1126TIP3    H124869   0.325   5.606  11.361  0.1110  0.4773  0.3276
 1126TIP3    H224870   0.476   5.601  11.351 -0.0052  0.1624 -1.8420
 1127TIP3   OH224871   4.133   3.838   3.584 -0.2402  0.5396 -1.0235
 1127TIP3    H124872   4.164   3.802   3.501 -2.1983 -1.4545 -1.0024
 1127TIP3    H224873   4.211   3.839   3.640  1.1835  2.1808 -2.8791
 1128TIP3   OH224874   6.567   5.561  10.978  0.2052  0.0836 -0.6029
 1128TIP3    H124875   6.577   5.656  10.977  0.9990  0.0448  0.8614
 1128TIP3    H224876   6.594   5.533  10.891 -1.1375  1.2728 -1.4457
 1129TIP3   OH224877   6.225   2.990   1.962  0.2296  0.5534  0.4096
 1129TIP3    H124878   6.172   2.965   2.037  0.5626 -1.7308 -0.0379
 1129TIP3    H224879   6.314   2.963   1.986  0.3353 -0.2164 -0.7539
 1130TIP3   OH224880   1.863   1.387  16.802  0.4729 -0.1414  0.1080
 1130TIP3    H124881   1.900   1.384  16.713 -0.0006  0.3586 -0.1112
 1130TIP3    H224882   1.803   1.461  16.800  1.2383  0.5256  1.1490
 1131TIP3   OH224883   0.936   2.470   1.804 -0.4956 -0.5644  0.0702
 1131TIP3    H124884   0.867   2.507   1.750  0.0928  0.6440  0.1161
 1131TIP3    H224885   1.016   2.483   1.753  0.2006  1.4012  1.5162
 1132TIP3   OH224886   3.396   3.221  16.244 -0.6098  0.2231  0.1813
 1132TIP3    H124887   3.373   3.277  16.318 -2.0323  1.3892 -1.0477
 1132TIP3    H224888   3.338   3.145  16.252 -2.9231  1.7145 -1.2279
 1133TIP3   OH224889   1.710   3.752  12.312  0.5354 -0.6092 -0.6840
 1133TIP3    H124890   1.735   3.830  12.263  2.2871 -1.1642 -0.7499
 1133TIP3    H224891   1.792   3.704  12.324 -0.2215 -1.6205  0.7973
 1134TIP3   OH224892   0.395   3.705   2.110  0.3580  0.2199 -0.0300
 1134TIP3    H124893   0.367   3.648   2.181  0.2660 -0.7611 -0.8284
 1134TIP3    H224894   0.340   3.679   2.036 -0.3213  1.9553 -0.2048
 1135TIP3   OH224895   4.464   6.267  15.913  0.2489  0.1094  0.5489
 1135TIP3    H124896   4.471   6.339  15.850 -2.7969  0.5295  0.5618
 1135TIP3    H224897   4.450   6.189  15.860 -3.8682  0.6656  0.5036
 1136TIP3   OH224898   6.115   3.808   0.556 -0.1628  0.2890 -0.7133
 1136TIP3    H124899   6.039   3.752   0.571 -0.3543  0.7480  0.1421
 1136TIP3    H224900   6.163   3.765   0.486  0.6982 -2.0184  1.1207
 1137TIP3   OH224901   5.305   1.951  11.595 -0.4035 -0.2549 -0.4118
 1137TIP3    H124902   5.379   1.895  11.572 -2.6901 -2.6647 -2.6010
 1137TIP3    H224903   5.287   2.000  11.515  0.1062  1.9792  0.7682
 1138TIP3   OH224904   5.164   3.976  15.845 -0.2138  0.0486  0.1722
 1138TIP3    H124905   5.070   3.975  15.830 -0.1347  0.7604 -0.3995
 1138TIP3    H224906   5.174   4.022  15.929 -0.4721 -1.5910  1.1558
 1139TIP3   OH224907   3.162   1.092  13.676  0.1293 -0.1272 -0.0040
 1139TIP3    H124908   3.155   1.162  13.742 -0.3845 -1.5224  1.5017
 1139TIP3    H224909   3.182   1.014  13.727 -1.6519 -1.5509 -1.3562
 1140TIP3   OH224910   3.772   0.682   1.296  0.2408  0.7356 -0.4545
 1140TIP3    H124911   3.793   0.607   1.352  1.3395  1.3269 -0.0378
 1140TIP3    H224912   3.684   0.708   1.323 -0.2674 -0.5642 -0.8021
 1141TIP3   OH224913   3.081   4.198  16.863  0.2374 -0.1244  0.2971
 1141TIP3    H124914   3.005   4.158  16.906 -0.3092  1.1326  0.5477
 1141TIP3    H224915   3.098   4.141  16.788  0.0053 -1.2777  1.0805
 1142TIP3   OH224916   4.309   4.838  13.150 -0.1641  0.4787 -0.0266
 1142TIP3    H124917   4.251   4.821  13.224 -0.5837  3.7772  0.5183
 1142TIP3    H224918   4.252   4.838  13.074 -0.2257  0.1057  0.0155
 1143TIP3   OH224919   6.584   5.907  14.562 -0.2070  0.1606  0.9634
 1143TIP3    H124920   6.625   5.953  14.489 -0.9418  1.9030  1.5722
 1143TIP3    H224921   6.582   5.815  14.536  1.3012  0.4633 -0.3465
 1144TIP3   OH224922   5.840   5.189   5.797 -0.1441 -0.6064  0.3359
 1144TIP3    H124923   5.772   5.122   5.805 -0.5406 -0.4286 -1.1779
 1144TIP3    H224924   5.854   5.197   5.703  0.2544  1.0995  0.5113
 1145TIP3   OH224925   4.701   2.610   1.549  0.3874 -0.5724 -0.2451
 1145TIP3    H124926   4.677   2.518   1.539 -2.4491 -0.0879  1.0285
 1145TIP3    H224927   4.678   2.631   1.640  1.5841  1.2516 -0.3003
 1146TIP3   OH224928   0.475   5.514   6.616 -0.3813  0.0729  0.0982
 1146TIP3    H124929   0.539   5.508   6.687  0.9140 -0.8264 -1.0652
 1146TIP3    H224930   0.470   5.607   6.596  1.4598  0.0966 -0.5030
 1147TIP3   OH224931   4.856   1.692  13.268 -0.4939 -0.0864 -0.2720
 1147TIP3    H124932   4.778   1.638  13.276  0.9888 -2.4645 -1.0136
 1147TIP3    H224933   4.844   1.740  13.186 -0.8851 -0.9215 -0.7067
 1148TIP3   OH224934   1.040   6.276  10.778 -0.5062 -0.1274 -0.3858
 1148TIP3    H124935   1.013   6.200  10.829 -1.2219  0.6866  0.4653
 1148TIP3    H224936   1.119   6.246  10.731  0.7266 -0.6344  1.8814
 1149TIP3   OH224937   5.599   1.648   2.568 -0.2478  0.7157 -0.4548
 1149TIP3    H124938   5.591   1.739   2.597  0.6988  0.4481  0.7498
 1149TIP3    H224939   5.508   1.619   2.557 -0.9137  0.4331  3.8480
 1150TIP3   OH224940   0.120   5.270  10.953 -0.2073  0.1595  0.0317
 1150TIP3    H124941   0.033   5.271  10.913  0.0060  1.3868 -0.4636
 1150TIP3    H224942   0.111   5.216  11.031 -1.2632 -0.2182 -0.3469
 1151TIP3   OH224943   4.160   4.136   2.563  0.0512  0.2630  0.3356
 1151TIP3    H124944   4.245   4.175   2.542  0.7428 -0.1737  2.1831
 1151TIP3    H224945   4.181   4.054   2.608 -1.3551  0.1119  0.7747
 1152TIP3   OH224946   5.908   0.635   0.015 -0.0311 -0.5326 -0.1589
 1152TIP3    H124947   5.896   0.704  -0.050 -0.8802  1.7282  2.2170
 1152TIP3    H224948   5.834   0.646   0.075 -0.5962 -4.0367 -0.0417
 1153TIP3   OH224949   6.774   2.831   0.921  0.8321 -0.3241 -0.2606
 1153TIP3    H124950   6.764   2.853   0.828 -0.7144  3.6273  0.6494
 1153TIP3    H224951   6.685   2.809   0.950  0.6659  1.6606  0.8816
 1154TIP3   OH224952   1.782   1.820   4.649 -0.2041 -0.0913 -0.1331
 1154TIP3    H124953   1.871   1.848   4.625 -0.9944  1.0235 -1.9620
 1154TIP3    H224954   1.784   1.725   4.641  0.8047 -0.0731 -0.2395
 1155TIP3   OH224955   0.019   3.432  14.983  0.3538  0.1639 -0.0283
 1155TIP3    H124956   0.032   3.356  15.040 -0.0555 -0.4790 -0.7820
 1155TIP3    H224957   0.107   3.461  14.960  0.5073 -0.5470 -0.3467
 1156TIP3   OH224958   3.455   5.752  13.441  0.2414 -0.5007  0.0382
 1156TIP3    H124959   3.522   5.689  13.468  0.2187 -0.9912 -1.0001
 1156TIP3    H224960   3.398   5.702  13.383  1.3753  0.9591 -2.4437
 1157TIP3   OH224961   5.856   6.644  14.902  0.1245  0.3678 -0.3004
 1157TIP3    H124962   5.810   6.727  14.887 -0.2255  0.0400 -1.0744
 1157TIP3    H224963   5.787   6.578  14.903  0.4582  0.0190 -0.2297
 1158TIP3   OH224964   4.750   1.018   2.418 -0.0324 -0.0135  0.4631
 1158TIP3    H124965   4.783   1.066   2.493  2.1374  0.4129 -0.6824
 1158TIP3    H224966   4.755   1.079   2.345 -2.8921 -0.1380  0.0346
 1159TIP3   OH224967   4.107   6.125  11.852 -0.1809  0.5051 -0.2610
 1159TIP3    H124968   4.106   6.199  11.791  2.3777  0.6564 -0.2519
 1159TIP3    H224969   4.108   6.048  11.796 -0.9274  0.5272 -0.3139
 1160TIP3   OH224970   0.311   0.265  13.009  0.0352 -0.3740  0.5234
 1160TIP3    H124971   0.237   0.227  13.056 -1.4464  0.3609 -1.0762
 1160TIP3    H224972   0.314   0.356  13.038  0.2226 -0.3589  0.4598
 1161TIP3   OH224973   1.119   6.141   3.065 -0.6073  0.3925  0.8222
 1161TIP3    H124974   1.061   6.144   2.989 -2.1813 -1.2029  1.8780
 1161TIP3    H224975   1.094   6.216   3.118  1.2140  2.1458 -0.6196
 1162TIP3   OH224976   0.074   2.526  12.248  0.1190 -0.4132 -0.1729
 1162TIP3    H124977   0.023   2.583  12.191 -0.1474 -1.1407 -0.6655
 1162TIP3    H224978   0.025   2.444  12.250  1.1353 -1.0385 -0.4498
 1163TIP3   OH224979   6.656   4.912  10.672 -0.4620  0.2956  0.7151
 1163TIP3    H124980   6.683   4.868  10.752  1.3348 -1.7460 -0.8952
 1163TIP3    H224981   6.727   4.975  10.654 -0.7769  0.6306  0.6228
 1164TIP3   OH224982   0.793   3.905  16.567  0.2494  0.2173 -0.4992
 1164TIP3    H124983   0.864   3.963  16.541  1.4022 -1.1941 -0.6169
 1164TIP3    H224984   0.735   3.903  16.491  2.0856 -1.5805 -1.9738
 1165TIP3   OH224985   2.012   0.517   4.886 -0.5374  0.0708 -0.2298
 1165TIP3    H124986   2.036   0.551   4.800 -2.3597  1.9560 -0.0801
 1165TIP3    H224987   1.935   0.462   4.870 -0.6853  0.1635  0.1438
 1166TIP3   OH224988   4.118   2.579   1.525 -0.4794  0.9025 -0.7121
 1166TIP3    H124989   4.210   2.595   1.543 -0.5199  2.1074 -1.4993
 1166TIP3    H224990   4.118   2.497   1.475  0.1336  0.7861 -0.5362
 1167TIP3   OH224991   6.638   4.642   5.976 -0.0089  0.4078  0.1184
 1167TIP3    H124992   6.634   4.573   5.910 -1.4868  0.8155 -0.2541
 1167TIP3    H224993   6.714   4.620   6.029 -0.3913 -1.4554 -0.0515
 1168TIP3   OH224994   4.746   1.126  13.222  0.0064  0.4333 -0.1137
 1168TIP3    H124995   4.773   1.034  13.231 -1.3237  0.1209  1.2229
 1168TIP3    H224996   4.652   1.121  13.203 -0.3207  1.5047  1.0645
 1169TIP3   OH224997   6.740   6.798  16.472  0.2504 -0.2480  0.5186
 1169TIP3    H124998   6.763   6.706  16.464 -0.8292 -0.4641 -0.2202
 1169TIP3    H224999   6.649   6.804  16.444  0.9228  1.3719 -1.5976
 1170TIP3   OH225000   2.237   5.541   1.167  0.0288 -0.1523 -0.4742
 1170TIP3    H125001   2.162   5.539   1.225  0.1744  2.7729 -0.0682
 1170TIP3    H225002   2.230   5.624   1.120  2.4833 -0.2285 -1.1367
 1171TIP3   OH225003   3.987   5.076  11.268  0.2278 -0.4588 -0.4334
 1171TIP3    H125004   3.899   5.102  11.241  0.3091  0.9714  0.5801
 1171TIP3    H225005   3.988   4.981  11.259 -2.9026 -1.1370  3.5138
 1172TIP3   OH225006   5.284   5.786   4.801 -0.5686  0.5940 -0.0319
 1172TIP3    H125007   5.281   5.810   4.893 -3.3481  1.4256 -0.2241
 1172TIP3    H225008   5.266   5.868   4.755  0.0959  0.0594 -1.2943
 1173TIP3   OH225009   6.812   6.811  12.594  0.8683 -0.7399  0.3985
 1173TIP3    H125010   6.857   6.809  12.678  1.3657 -1.2726  0.1262
 1173TIP3    H225011   6.791   6.904  12.580 -1.3343 -0.8768  2.2059
 1174TIP3   OH225012   5.055   6.541  10.861  0.2798  0.4161 -0.0819
 1174TIP3    H125013   5.037   6.474  10.796 -0.4187 -1.9954  2.4002
 1174TIP3    H225014   5.143   6.522  10.893  0.7821  1.8202 -0.5558
 1175TIP3   OH225015   0.727   1.483   1.058  0.2630 -0.1898 -0.3835
 1175TIP3    H125016   0.679   1.546   1.005 -0.4510 -2.0230 -2.0388
 1175TIP3    H225017   0.764   1.421   0.994 -0.8635 -2.6594  1.2308
 1176TIP3   OH225018   4.748   5.510   4.610 -0.1372 -0.4523 -0.4152
 1176TIP3    H125019   4.825   5.551   4.650  0.7725 -0.5070 -2.0110
 1176TIP3    H225020   4.723   5.440   4.670  1.0807 -0.4468  0.1194
 1177TIP3   OH225021   1.986   5.150  12.668  0.1963  0.0650 -0.1015
 1177TIP3    H125022   2.023   5.232  12.635  0.5128 -0.0964 -0.1517
 1177TIP3    H225023   1.907   5.177  12.715  0.0434  0.3533 -0.5142
 1178TIP3   OH225024   1.229   4.675  14.235  0.3286  0.0041 -0.5909
 1178TIP3    H125025   1.179   4.604  14.195 -0.1798  0.1836 -0.2786
 1178TIP3    H225026   1.295   4.698  14.169 -0.3734  0.1651 -1.2507
 1179TIP3   OH225027   2.439   4.926  15.226  0.5576 -0.1443  0.3711
 1179TIP3    H125028   2.372   4.935  15.159 -0.2577  1.5014  1.3369
 1179TIP3    H225029   2.410   4.853  15.280  0.4595 -0.5345 -0.1993
 1180TIP3   OH225030   0.006   0.081  11.191  0.9232 -0.0784 -0.3553
 1180TIP3    H125031  -0.008   0.005  11.247  0.6140  0.1094 -0.1691
 1180TIP3    H225032  -0.021   0.155  11.245 -0.2440  0.0342 -1.0452
 1181TIP3   OH225033   4.371   4.394   0.146 -0.3495  0.5637 -0.2220
 1181TIP3    H125034   4.423   4.453   0.092  0.4755 -0.1255 -0.1976
 1181TIP3    H225035   4.320   4.342   0.083 -1.0321  1.2339 -0.2449
 1182TIP3   OH225036   1.014   1.145   6.466  0.0927 -0.1791  0.2921
 1182TIP3    H125037   1.103   1.133   6.436  0.6530 -0.0101  1.7785
 1182TIP3    H225038   0.978   1.056   6.470  0.3038 -0.2771 -0.0087
 1183TIP3   OH225039   3.923   6.395  16.914 -0.5442  0.2272 -0.2401
 1183TIP3    H125040   3.900   6.483  16.946 -1.5614  0.4310 -1.4487
 1183TIP3    H225041   3.864   6.337  16.961 -0.0886  0.2145  0.3265
 1184TIP3   OH225042   4.242   4.602   6.443  0.1501 -0.3307  0.1603
 1184TIP3    H125043   4.204   4.518   6.416  1.2990 -0.4559 -1.2163
 1184TIP3    H225044   4.335   4.594   6.422  1.2022 -0.2855  4.0463
 1185TIP3   OH225045   5.101   6.595   4.360  0.0274 -0.3433 -0.1438
 1185TIP3    H125046   5.153   6.593   4.280  0.5695  1.0782  0.1611
 1185TIP3    H225047   5.010   6.586   4.330  0.2888 -0.6594 -0.8433
 1186TIP3   OH225048   2.722   5.614   5.234  0.2787 -0.2452 -0.6192
 1186TIP3    H125049   2.718   5.563   5.316 -0.9299 -0.2047 -0.6272
 1186TIP3    H225050   2.782   5.565   5.178  1.1229 -0.2789  0.2812
 1187TIP3   OH225051   2.211   2.893   6.671 -0.3273 -0.1477 -0.8177
 1187TIP3    H125052   2.144   2.933   6.616  0.9663  1.1057 -1.5366
 1187TIP3    H225053   2.294   2.916   6.629  0.7366  1.1176  1.7781
 1188TIP3   OH225054   6.148   0.424   6.151 -0.1831 -0.1458  0.0699
 1188TIP3    H125055   6.165   0.364   6.078 -0.4777 -0.1150 -0.0266
 1188TIP3    H225056   6.224   0.483   6.152 -0.1940 -0.1257 -0.2345
 1189TIP3   OH225057   0.669   2.522   5.280 -0.3080 -0.4053  0.5466
 1189TIP3    H125058   0.757   2.536   5.245 -0.5713 -0.0662  0.0161
 1189TIP3    H225059   0.666   2.576   5.360 -0.6612  1.0990 -0.4411
 1190TIP3   OH225060   0.514   2.246  16.096 -0.8318 -0.4474  0.3998
 1190TIP3    H125061   0.553   2.246  16.183 -1.6360 -0.4780  0.7647
 1190TIP3    H225062   0.549   2.168  16.054 -0.4304 -0.4253  0.6920
 1191TIP3   OH225063   1.098   6.598   3.114 -0.3381  0.1517 -0.4890
 1191TIP3    H125064   1.034   6.658   3.152 -0.2917 -0.3265  0.3815
 1191TIP3    H225065   1.178   6.616   3.162 -0.5322 -1.1616  0.3708
 1192TIP3   OH225066   2.200   5.758   4.935 -0.2530 -0.0612  0.1268
 1192TIP3    H125067   2.190   5.667   4.964  0.9232  0.2452  1.5511
 1192TIP3    H225068   2.192   5.810   5.015 -0.7173  1.1041 -0.6475
 1193TIP3   OH225069   3.296   3.664   3.933 -0.0332 -0.5500  0.1844
 1193TIP3    H125070   3.309   3.614   4.014  0.0635 -0.4904  0.2058
 1193TIP3    H225071   3.384   3.692   3.907 -0.0799 -0.4454  0.1372
 1194TIP3   OH225072   6.543   2.377  14.580 -0.0413  0.1125 -0.0124
 1194TIP3    H125073   6.483   2.451  14.585 -0.2035  0.1247 -1.6225
 1194TIP3    H225074   6.488   2.301  14.598 -0.2252  0.2388 -0.0375
 1195TIP3   OH225075   3.025   0.962   4.753 -0.6995  0.3589  0.1226
 1195TIP3    H125076   3.028   0.903   4.678 -0.0171 -0.6246  0.8827
 1195TIP3    H225077   2.950   1.018   4.737 -1.5125 -0.8706 -0.5243
 1196TIP3   OH225078   2.448   5.707   0.795  0.1613 -0.2469  0.1922
 1196TIP3    H125079   2.474   5.737   0.708 -0.0824  1.7630  0.7662
 1196TIP3    H225080   2.424   5.787   0.842  0.7733 -1.2299  2.2810
 1197TIP3   OH225081   4.417   5.147   0.639 -0.0716 -0.1413 -0.0826
 1197TIP3    H125082   4.354   5.079   0.665 -0.8181  0.5829  0.0190
 1197TIP3    H225083   4.486   5.141   0.705 -1.5115  1.0738  1.6244
 1198TIP3   OH225084   2.525   4.631  16.462  0.0375  0.1454  0.0830
 1198TIP3    H125085   2.548   4.695  16.530 -0.9685  0.5830  0.0198
 1198TIP3    H225086   2.445   4.665  16.422 -0.8350 -1.4239  0.4151
 1199TIP3   OH225087   6.060   2.064   0.652  0.0679 -0.4276 -0.2646
 1199TIP3    H125088   6.041   2.154   0.679 -0.3679 -0.1976 -1.2852
 1199TIP3    H225089   6.046   2.011   0.731  0.0775  0.3675  0.2762
 1200TIP3   OH225090   4.115   3.721   4.485  0.4032  0.1263  0.3713
 1200TIP3    H125091   4.184   3.780   4.514 -0.9285  1.1675  1.6458
 1200TIP3    H225092   4.063   3.706   4.564 -1.1882 -0.0858 -0.6736
 1201TIP3   OH225093   4.226   1.075  12.887  0.4534  0.0509  0.8767
 1201TIP3    H125094   4.277   1.095  12.808  0.2644  2.5168  1.2888
 1201TIP3    H225095   4.160   1.012  12.858 -0.5992  2.0330 -1.3822
 1202TIP3   OH225096   1.661   3.428   0.781  0.0749  0.1317  0.4195
 1202TIP3    H125097   1.702   3.342   0.785  0.9398  0.5021 -0.1277
 1202TIP3    H225098   1.654   3.447   0.687 -0.8324  0.3200  0.5223
 1203TIP3   OH225099   2.201   4.048  13.679  0.2392  0.3800  0.2652
 1203TIP3    H125100   2.276   4.106  13.696  2.0505 -1.8787  0.4625
 1203TIP3    H225101   2.238   3.975  13.630 -2.1806 -0.1148 -0.9476
 1204TIP3   OH225102   3.709   6.137   5.321  0.1410 -0.3348 -0.7508
 1204TIP3    H125103   3.762   6.214   5.343 -0.4208 -0.4504  1.2157
 1204TIP3    H225104   3.764   6.087   5.261  1.1017  0.8800 -0.9401
 1205TIP3   OH225105   4.667   5.310  12.896  0.2477 -0.1910  0.0361
 1205TIP3    H125106   4.708   5.223  12.897  1.0129  0.1631  1.1768
 1205TIP3    H225107   4.739   5.371  12.913 -0.5367  0.5537  0.7778
 1206TIP3   OH225108   3.575   1.488   0.855  0.3075 -0.8863  0.2737
 1206TIP3    H125109   3.482   1.498   0.833  0.0479 -2.5946  0.4424
 1206TIP3    H225110   3.591   1.394   0.846  2.3683 -0.4706 -1.0718
 1207TIP3   OH225111   4.558   0.890  11.769  0.0555 -0.6964  0.2088
 1207TIP3    H125112   4.484   0.842  11.806 -0.3010 -0.5738 -0.3348
 1207TIP3    H225113   4.518   0.954  11.710  0.6509 -1.4681 -1.0659
 1208TIP3   OH225114   2.653   3.617  11.597  0.8230 -0.7176 -0.0588
 1208TIP3    H125115   2.647   3.582  11.686  1.8643 -0.1267  0.2596
 1208TIP3    H225116   2.746   3.615  11.577  0.8805  1.4092 -0.2049
 1209TIP3   OH225117   2.542   5.310  11.324 -0.5471 -0.9295  0.0968
 1209TIP3    H125118   2.479   5.362  11.375  1.9849  1.3748  1.1225
 1209TIP3    H225119   2.496   5.293  11.241 -2.0837  1.8434  0.2219
 1210TIP3   OH225120   0.107   6.353   2.766 -0.2569  0.3726  0.0103
 1210TIP3    H125121   0.107   6.266   2.805  0.3357  0.8164  1.0346
 1210TIP3    H225122   0.073   6.410   2.835  0.7206  1.1600 -0.1453
 1211TIP3   OH225123   4.812   5.297  14.206  0.0737  0.1951 -0.4316
 1211TIP3    H125124   4.855   5.383  14.201 -1.5742  1.1338  0.5282
 1211TIP3    H225125   4.857   5.253  14.279 -0.7056  1.2602  0.7328
 1212TIP3   OH225126   5.505   2.651  13.376  0.1902 -0.2026 -0.1287
 1212TIP3    H125127   5.543   2.564  13.363  2.8619  0.5464  1.7944
 1212TIP3    H225128   5.532   2.700  13.298  0.0252 -0.6715 -0.4850
 1213TIP3   OH225129   4.036   5.202   3.605 -0.2844 -0.3495 -0.0143
 1213TIP3    H125130   4.020   5.286   3.648  1.0328  0.7554 -1.5566
 1213TIP3    H225131   3.958   5.189   3.550  0.6903  1.3776 -1.9606
 1214TIP3   OH225132   1.407   0.727  14.263  0.0890  0.1288 -0.2355
 1214TIP3    H125133   1.353   0.793  14.308  0.1867 -0.1817  0.3506
 1214TIP3    H225134   1.352   0.649  14.262  1.0035 -0.6192  1.6267
 1215TIP3   OH225135   3.207   2.844   0.943 -0.2959  0.0726 -0.2741
 1215TIP3    H125136   3.281   2.903   0.931 -1.6153  1.5299 -1.6222
 1215TIP3    H225137   3.130   2.899   0.933 -1.5955 -1.5200  0.4405
 1216TIP3   OH225138   4.881   0.305   6.139  1.0175  0.3293  0.2377
 1216TIP3    H125139   4.893   0.386   6.189  1.7374 -0.4192  1.3123
 1216TIP3    H225140   4.836   0.246   6.200  1.0548 -0.2922 -0.3296
 1217TIP3   OH225141   5.906   3.893  16.235 -0.2996  0.5631 -0.2818
 1217TIP3    H125142   5.885   3.828  16.167 -2.9159  1.9437 -0.9206
 1217TIP3    H225143   5.878   3.977  16.198 -1.0471  1.4802  2.1657
 1218TIP3   OH225144   1.188   6.140  11.709 -0.1098 -0.1470 -0.0602
 1218TIP3    H125145   1.178   6.046  11.692  0.7323 -0.4692  1.0918
 1218TIP3    H225146   1.281   6.158  11.695 -0.2460  0.5098 -0.1826
 1219TIP3   OH225147   1.025   3.885  16.429 -0.2498 -1.1257  0.2177
 1219TIP3    H125148   1.099   3.871  16.488 -0.3858 -1.6465  0.2645
 1219TIP3    H225149   1.036   3.819  16.361 -0.5784 -1.0957  0.1367
 1220TIP3   OH225150   2.667   6.399  11.195  0.2833 -0.3181 -0.4350
 1220TIP3    H125151   2.636   6.424  11.282  0.6688 -1.1700 -0.0427
 1220TIP3    H225152   2.735   6.464  11.174  1.7569 -1.3707  0.8616
 1221TIP3   OH225153   2.963   0.912  11.842  0.3487  0.1315  0.2012
 1221TIP3    H125154   3.021   0.988  11.841  0.2297  0.2226 -0.0898
 1221TIP3    H225155   2.917   0.917  11.758 -0.0226  0.0182  0.3947
 1222TIP3   OH225156   0.728   3.366   1.390  0.1665  0.3260 -0.1074
 1222TIP3    H125157   0.694   3.394   1.475 -0.3369  0.4436 -0.3437
 1222TIP3    H225158   0.758   3.276   1.403  1.1101  0.7093  0.4728
 1223TIP3   OH225159   5.886   5.228   4.956  0.2429  0.1916 -0.2680
 1223TIP3    H125160   5.857   5.219   4.865 -1.4924 -2.0070  0.4203
 1223TIP3    H225161   5.843   5.308   4.987  0.3492  0.6164 -1.1898
 1224TIP3   OH225162   4.761   0.709   4.536  0.4000  0.4021  0.1519
 1224TIP3    H125163   4.758   0.629   4.589  1.6684  0.9020  1.0611
 1224TIP3    H225164   4.673   0.746   4.543  0.7297  0.9110  2.7377
 1225TIP3   OH225165   6.170   2.704  15.688 -0.2609  0.3339  0.2992
 1225TIP3    H125166   6.224   2.783  15.693 -0.0377  0.1252  1.3527
 1225TIP3    H225167   6.230   2.632  15.709  0.1919 -0.4796 -3.0528
 1226TIP3   OH225168   5.287   2.992  11.603  0.4120 -0.0182  0.0008
 1226TIP3    H125169   5.196   2.973  11.627 -0.9103  1.9857 -2.8835
 1226TIP3    H225170   5.316   2.914  11.556  0.0279 -0.4874  0.5287
 1227TIP3   OH225171   3.625   0.102   3.234  0.4043 -0.3405  0.2921
 1227TIP3    H125172   3.710   0.069   3.263  0.3362 -0.5949  0.2008
 1227TIP3    H225173   3.567   0.090   3.309  1.1405  2.6354  1.4937
 1228TIP3   OH225174   2.444   3.879  16.094 -1.0355  0.2422  0.0952
 1228TIP3    H125175   2.427   3.819  16.021  0.0225  0.8841 -0.7012
 1228TIP3    H225176   2.494   3.951  16.055  1.4479 -0.4166  1.8349
 1229TIP3   OH225177   2.725   3.267  15.192 -0.0184 -0.3830  0.4269
 1229TIP3    H125178   2.807   3.225  15.219  0.0810  0.3268  1.2581
 1229TIP3    H225179   2.688   3.302  15.273 -0.3169  0.7409 -0.1770
 1230TIP3   OH225180   1.349   1.048   4.312 -0.1932  0.0776  0.1212
 1230TIP3    H125181   1.267   1.092   4.334 -0.6351 -0.8245  0.3212
 1230TIP3    H225182   1.342   0.963   4.354  0.2005 -0.5698 -1.0935
 1231TIP3   OH225183   6.624   4.263   2.961 -0.2751  0.2158 -0.1257
 1231TIP3    H125184   6.693   4.196   2.953  0.4164  0.9452 -0.3812
 1231TIP3    H225185   6.576   4.237   3.040  0.8533  0.1900  0.5897
 1232TIP3   OH225186   6.491   6.661  13.080  0.2047  0.2466 -0.1539
 1232TIP3    H125187   6.583   6.679  13.064  0.3012  1.1417  1.1964
 1232TIP3    H225188   6.488   6.570  13.109  0.9412  0.7070  1.5106
 1233TIP3   OH225189   1.691   6.542  16.576  0.2085  0.2548 -0.5310
 1233TIP3    H125190   1.613   6.582  16.614  0.0874 -0.8157  0.3769
 1233TIP3    H225191   1.751   6.615  16.563 -0.0998  0.7806  0.8720
 1234TIP3   OH225192   1.192   5.889  12.905  0.2938  0.6478 -0.2897
 1234TIP3    H125193   1.234   5.975  12.911 -0.4317  1.0608 -1.0062
 1234TIP3    H225194   1.172   5.879  12.812 -0.9256  0.3280 -0.0036
 1235TIP3   OH225195   3.515   2.370  15.522  0.3392 -0.2121  0.4248
 1235TIP3    H125196   3.455   2.298  15.540 -1.4630  0.9083 -0.7631
 1235TIP3    H225197   3.534   2.362  15.428  0.5542  0.5292  0.4008
 1236TIP3   OH225198   5.137   1.236  13.411  0.3394  0.8355 -0.1301
 1236TIP3    H125199   5.188   1.315  13.393  1.0027  0.7035  1.0517
 1236TIP3    H225200   5.180   1.167  13.360  0.6720  0.9410  0.0092
 1237TIP3   OH225201   3.967   2.371   4.024  0.1385 -0.3690  0.5302
 1237TIP3    H125202   3.957   2.447   4.082 -1.3099  0.6278 -0.9121
 1237TIP3    H225203   4.038   2.396   3.964 -0.9475  0.2964 -0.5260
 1238TIP3   OH225204   0.395   3.927   3.920 -1.0882  0.4459 -0.1943
 1238TIP3    H125205   0.467   3.936   3.858 -1.9060 -0.3395 -1.3128
 1238TIP3    H225206   0.370   4.016   3.942 -0.2183  0.7278 -0.3309
 1239TIP3   OH225207   6.269   2.113  12.199  0.3328 -0.9108 -0.1154
 1239TIP3    H125208   6.259   2.127  12.293  0.4681 -0.4309 -0.1671
 1239TIP3    H225209   6.179   2.111  12.165  0.2932 -0.5762 -0.0409
 1240TIP3   OH225210   5.386   4.670  11.842  0.4680 -0.3616  0.6479
 1240TIP3    H125211   5.304   4.631  11.810  0.4529 -0.2610  0.5622
 1240TIP3    H225212   5.420   4.606  11.905 -0.2705  0.1346  1.5747
 1241TIP3   OH225213   2.827   5.386   2.068 -0.1518  0.3211 -0.3575
 1241TIP3    H125214   2.760   5.320   2.080  0.5754 -0.3328  0.1928
 1241TIP3    H225215   2.909   5.342   2.089  0.5041  0.9899 -1.3858
 1242TIP3   OH225216   0.069   3.836   4.610 -0.1593 -0.4266  0.0248
 1242TIP3    H125217   0.062   3.798   4.698 -1.8433 -1.8640 -0.6788
 1242TIP3    H225218  -0.015   3.817   4.569  1.1611 -1.2577 -2.4857
 1243TIP3   OH225219   6.211   2.380  11.806  0.2787  0.1167 -0.0797
 1243TIP3    H125220   6.279   2.343  11.750 -2.1371 -2.7010 -1.4194
 1243TIP3    H225221   6.152   2.425  11.746 -1.5787 -1.7055  0.2881
 1244TIP3   OH225222   0.095   4.920   4.084  0.7239 -0.3574  0.4679
 1244TIP3    H125223   0.004   4.897   4.105  0.1636  0.0407 -1.3197
 1244TIP3    H225224   0.139   4.836   4.076  0.3186 -0.5820  0.5443
 1245TIP3   OH225225   4.952   2.778   1.175 -0.0480  0.3399  0.3646
 1245TIP3    H125226   4.931   2.871   1.168 -0.2416  0.2152 -0.9065
 1245TIP3    H225227   4.964   2.763   1.269 -0.1570  1.6104  0.5955
 1246TIP3   OH225228   5.102   5.023  10.988  0.4017  0.1804  0.5084
 1246TIP3    H125229   5.161   5.072  11.046  0.1528  0.4523  0.5316
 1246TIP3    H225230   5.018   5.023  11.033  0.1102  0.7150 -0.0202
 1247TIP3   OH225231   2.557   1.437  10.942  0.2786 -0.0028 -0.3607
 1247TIP3    H125232   2.544   1.342  10.952 -0.8990  0.2433  0.6923
 1247TIP3    H225233   2.618   1.445  10.869  1.5525 -1.6416  0.4302
 1248TIP3   OH225234   1.995   2.882  14.905 -0.2584  0.1349 -0.8474
 1248TIP3    H125235   2.043   2.920  14.978 -0.6934  0.2827 -0.6316
 1248TIP3    H225236   2.061   2.868  14.837 -0.3662  3.2793 -1.7685
 1249TIP3   OH225237   5.831   1.835   4.923 -0.1072  0.2636  0.3024
 1249TIP3    H125238   5.916   1.835   4.968 -0.0056  0.0541  0.1143
 1249TIP3    H225239   5.846   1.888   4.845 -0.7653  2.1460  1.3897
 1250TIP3   OH225240   1.118   2.292   2.739 -0.1275 -0.2818 -0.0464
 1250TIP3    H125241   1.204   2.309   2.701  0.3051 -0.8446  0.6631
 1250TIP3    H225242   1.098   2.371   2.789  0.0988 -0.2585  0.0088
 1251TIP3   OH225243   1.231   2.772  13.470  0.0216 -0.5138  0.5451
 1251TIP3    H125244   1.214   2.729  13.554  0.5500 -1.0875  0.3600
 1251TIP3    H225245   1.309   2.825  13.486  1.2810 -2.1122 -0.0921
 1252TIP3   OH225246   4.112   0.578   4.735 -0.5532  0.3298 -0.2782
 1252TIP3    H125247   4.100   0.517   4.807  1.2524 -1.7035 -1.5764
 1252TIP3    H225248   4.127   0.662   4.778 -2.3273 -0.2147  1.5939
 1253TIP3   OH225249   2.767   6.538   5.701  0.5017 -0.0974 -0.2705
 1253TIP3    H125250   2.794   6.453   5.667  2.3152  0.3130  0.0740
 1253TIP3    H225251   2.784   6.534   5.795  0.5691  0.6312 -0.2424
 1254TIP3   OH225252   1.080   6.156   1.419  0.7486 -0.0095 -0.2265
 1254TIP3    H125253   1.054   6.108   1.340  1.2914 -1.2367  0.3139
 1254TIP3    H225254   1.111   6.240   1.386  1.0639 -0.5395 -1.3534
 1255TIP3   OH225255   6.800   0.918   3.013 -0.0732  0.0516 -0.1261
 1255TIP3    H125256   6.719   0.970   3.014 -0.7479 -0.9125 -1.5284
 1255TIP3    H225257   6.865   0.975   3.054 -0.6391  2.2833 -2.0911
 1256TIP3   OH225258   5.084   4.045   6.695  0.2498 -0.3624  0.1397
 1256TIP3    H125259   5.166   4.041   6.646  1.6270  1.3318  2.1232
 1256TIP3    H225260   5.102   4.107   6.766 -2.7138 -0.0687  0.7452
 1257TIP3   OH225261   2.865   5.287  15.033 -0.2968 -0.4186  0.0432
 1257TIP3    H125262   2.864   5.206  15.084  1.1449  0.0110  0.7929
 1257TIP3    H225263   2.944   5.281  14.980  0.7653  1.2309  1.3714
 1258TIP3   OH225264   5.078   5.412  14.915 -0.1779  0.1871 -0.1007
 1258TIP3    H125265   4.985   5.389  14.907 -0.2374 -0.1620  1.4101
 1258TIP3    H225266   5.079   5.486  14.975  0.4218  1.1520 -1.2596
 1259TIP3   OH225267   2.945   5.251  15.789 -0.1538 -0.3516 -0.1039
 1259TIP3    H125268   3.013   5.317  15.798 -1.2096  0.9703 -1.2589
 1259TIP3    H225269   2.926   5.223  15.878 -1.4663  2.8419  0.7535
 1260TIP3   OH225270   5.736   3.508   0.989  0.2447 -0.3300 -0.2293
 1260TIP3    H125271   5.737   3.439   1.055 -2.3820  1.1248  1.4709
 1260TIP3    H225272   5.739   3.589   1.038 -1.0954  0.8065 -1.9064
 1261TIP3   OH225273   6.251   4.143  13.344  0.1694 -0.3999  0.3684
 1261TIP3    H125274   6.294   4.227  13.362 -0.1623 -0.0402 -0.5005
 1261TIP3    H225275   6.216   4.116  13.429 -3.0673  2.2230  0.0856
 1262TIP3   OH225276   3.323   2.374   5.998 -0.2376  0.3629  0.1976
 1262TIP3    H125277   3.357   2.451   6.044  0.1229  0.1460  0.2980
 1262TIP3    H225278   3.294   2.315   6.068  1.9132 -0.7226  0.2622
 1263TIP3   OH225279   2.472   0.628   5.841 -0.8215 -0.4226  0.4579
 1263TIP3    H125280   2.562   0.612   5.813 -0.2836  1.1453  1.1934
 1263TIP3    H225281   2.438   0.541   5.862  0.2445 -1.1280 -0.5671
 1264TIP3   OH225282   3.958   2.099  15.132  0.8084  0.1460 -0.6263
 1264TIP3    H125283   4.012   2.031  15.092  0.3431 -0.0460 -0.9314
 1264TIP3    H225284   3.913   2.055  15.203  0.5646  0.1525 -0.7762
 1265TIP3   OH225285   4.785   4.177   4.257 -0.4705 -0.5464 -0.6119
 1265TIP3    H125286   4.854   4.117   4.286  1.5563 -0.3221 -4.3037
 1265TIP3    H225287   4.811   4.262   4.292 -0.7036 -0.9810  0.6628
 1266TIP3   OH225288   0.201   2.422  13.243  0.1659  0.6163 -0.1117
 1266TIP3    H125289   0.136   2.358  13.212 -0.0118  0.5547  0.3812
 1266TIP3    H225290   0.202   2.411  13.338  2.1608 -0.5826 -0.2268
 1267TIP3   OH225291   4.447   0.722  16.706 -0.1475  0.3461  0.3234
 1267TIP3    H125292   4.434   0.811  16.673  0.2597  0.0770 -0.6113
 1267TIP3    H225293   4.400   0.666  16.644  1.6477 -0.2752 -0.5547
 1268TIP3   OH225294   4.771   5.895   4.766  0.0923  0.0652  0.0581
 1268TIP3    H125295   4.826   5.817   4.761  2.6722  1.8248 -1.8679
 1268TIP3    H225296   4.746   5.901   4.858  1.6137 -1.8452  0.6807
 1269TIP3   OH225297   0.139   1.724   3.101 -0.2111  0.5531  0.3454
 1269TIP3    H125298   0.114   1.641   3.141  0.6814 -0.4434 -1.0532
 1269TIP3    H225299   0.110   1.790   3.163 -1.2687 -0.7772  1.3448
 1270TIP3   OH225300   5.946   0.853   1.585 -0.3334  0.1230  0.6696
 1270TIP3    H125301   5.939   0.770   1.537 -0.9995 -0.2143  1.3404
 1270TIP3    H225302   5.857   0.872   1.613  0.2086 -0.4091  2.9893
 1271TIP3   OH225303   5.847   6.067   1.094  0.3534  0.2302  0.7310
 1271TIP3    H125304   5.798   5.985   1.089  0.0686  0.2163  2.8885
 1271TIP3    H225305   5.939   6.040   1.082  0.1095 -0.0655 -0.7745
 1272TIP3   OH225306   0.490   1.556   5.268  0.1311 -0.8293  0.3699
 1272TIP3    H125307   0.534   1.557   5.354  0.6628 -0.7598  0.1005
 1272TIP3    H225308   0.500   1.645   5.235  0.8510 -1.1189 -0.2213
 1273TIP3   OH225309   4.274   1.996  13.957  0.0118 -0.3970  0.0302
 1273TIP3    H125310   4.216   2.067  13.930 -0.3588 -0.1320  1.4181
 1273TIP3    H225311   4.294   1.949  13.877 -1.0474  0.3144 -0.6759
 1274TIP3   OH225312   0.536   5.844   4.466  0.6279  0.2228 -0.0211
 1274TIP3    H125313   0.483   5.905   4.415  0.1516 -0.3807 -0.2672
 1274TIP3    H225314   0.618   5.890   4.482  0.8258  0.3971 -1.4064
 1275TIP3   OH225315   0.208   2.739   1.099  0.4423  0.5769  0.1894
 1275TIP3    H125316   0.166   2.717   1.015  1.3730  0.9061 -0.3697
 1275TIP3    H225317   0.222   2.654   1.141 -0.8532  0.4567  0.4427
 1276TIP3   OH225318   5.732   3.485   3.768 -0.0969  0.1525  0.0025
 1276TIP3    H125319   5.717   3.396   3.800 -0.1105  0.4950  0.9886
 1276TIP3    H225320   5.645   3.516   3.742 -0.2546  0.2120  0.5813
 1277TIP3   OH225321   0.667   1.128  16.417 -0.4062  0.5273  0.2086
 1277TIP3    H125322   0.757   1.156  16.434 -0.1544  1.2812 -1.9954
 1277TIP3    H225323   0.618   1.210  16.409 -0.5425  0.2950 -2.0170
 1278TIP3   OH225324   0.043   5.433  13.711  0.2600  0.1796 -0.3793
 1278TIP3    H125325   0.081   5.519  13.690 -0.4651  0.3219 -1.1522
 1278TIP3    H225326   0.068   5.377  13.638 -0.9528  0.2632 -0.8780
 1279TIP3   OH225327   2.945   1.710   3.314  0.1188 -0.1341  0.5712
 1279TIP3    H125328   3.014   1.680   3.254 -0.6914 -2.1421  0.5508
 1279TIP3    H225329   2.864   1.674   3.277 -0.7903  1.0862  1.2976
 1280TIP3   OH225330   2.566   1.578  14.064  0.8826 -0.0435  0.0597
 1280TIP3    H125331   2.484   1.616  14.033  0.3935 -1.8544 -1.0080
 1280TIP3    H225332   2.627   1.588  13.991  1.2474  0.1247  0.3766
 1281TIP3   OH225333   1.195   5.045   6.042  0.0383  0.1902 -0.0395
 1281TIP3    H125334   1.178   5.007   6.128 -0.2790  0.1241 -0.1284
 1281TIP3    H225335   1.173   5.138   6.053  1.8764  0.5996  0.4822
 1282TIP3   OH225336   4.390   2.049  13.129 -0.6612 -0.0210  0.0002
 1282TIP3    H125337   4.302   2.066  13.094 -1.3288 -1.4498  0.8716
 1282TIP3    H225338   4.450   2.085  13.064 -1.8917  0.6779 -0.7823
 1283TIP3   OH225339   4.156   6.370  17.181  0.1345 -0.0640  0.2230
 1283TIP3    H125340   4.080   6.331  17.223  1.4514 -1.2792  1.5921
 1283TIP3    H225341   4.182   6.442  17.239 -0.7407  1.2578 -0.9558
 1284TIP3   OH225342   2.385   4.210  14.507 -0.2746 -0.1139  0.0462
 1284TIP3    H125343   2.351   4.148  14.571  0.2467 -0.3419  0.1058
 1284TIP3    H225344   2.395   4.292  14.556 -0.3787 -0.1471  0.1232
 1285TIP3   OH225345   6.000   4.847  17.183  0.3763 -0.5837  0.4282
 1285TIP3    H125346   5.907   4.827  17.179  0.1658 -0.0803  1.9051
 1285TIP3    H225347   6.030   4.842  17.092 -1.2415 -0.0303 -0.1752
 1286TIP3   OH225348   5.686   6.718  16.732 -0.4029 -0.6078  0.1882
 1286TIP3    H125349   5.678   6.659  16.807 -1.9190 -0.1393  0.4176
 1286TIP3    H225350   5.601   6.761  16.727  1.3229  3.3810  1.5367
 1287TIP3   OH225351   1.110   0.677   5.658  0.0375  0.1267  0.1738
 1287TIP3    H125352   1.021   0.698   5.629 -0.1932 -0.1978  0.6379
 1287TIP3    H225353   1.150   0.762   5.674  0.0070  0.2933 -0.6176
 1288TIP3   OH225354   4.840   0.394  12.358  0.2016  0.3663 -0.9089
 1288TIP3    H125355   4.846   0.490  12.352 -0.7720  0.6009  1.1323
 1288TIP3    H225356   4.920   0.368  12.404 -1.2118  0.6366  1.8445
 1289TIP3   OH225357   3.361   6.794  16.519  0.1711 -0.5562 -0.1684
 1289TIP3    H125358   3.332   6.864  16.460 -0.2994 -0.7005 -0.1106
 1289TIP3    H225359   3.447   6.769  16.485  0.1220 -0.2954 -0.4931
 1290TIP3   OH225360   3.039   1.572   1.001 -0.4871  0.3366 -0.5113
 1290TIP3    H125361   3.118   1.625   0.989  0.1936 -0.6953 -0.7199
 1290TIP3    H225362   2.969   1.623   0.962  0.2589  0.8042 -1.2650
 1291TIP3   OH225363   0.203   1.166  10.633 -0.0357 -0.2580  0.0705
 1291TIP3    H125364   0.142   1.112  10.582  0.1703 -0.5601  0.1391
 1291TIP3    H225365   0.190   1.138  10.723 -1.1741  1.0387  0.3228
 1292TIP3   OH225366   6.601   3.053  15.233  0.0328 -0.5559  0.0589
 1292TIP3    H125367   6.621   3.031  15.142 -0.3197 -2.0197  0.3102
 1292TIP3    H225368   6.601   2.969  15.278 -0.0317  0.1328  1.3717
 1293TIP3   OH225369   1.771   4.705  14.123 -0.5233 -0.0962 -0.3712
 1293TIP3    H125370   1.787   4.779  14.065 -1.0584  0.3195  0.0063
 1293TIP3    H225371   1.816   4.728  14.205  0.8391 -0.9958 -0.8246
 1294TIP3   OH225372   5.857   2.143  15.646  0.0101 -0.3018  0.1494
 1294TIP3    H125373   5.917   2.216  15.637  0.1563 -0.4496 -0.1104
 1294TIP3    H225374   5.825   2.127  15.557  1.2154 -1.5893 -0.0876
 1295TIP3   OH225375   0.420   3.715  13.265 -0.1466 -0.2631  0.2166
 1295TIP3    H125376   0.452   3.801  13.294 -1.1306  0.0502  0.4190
 1295TIP3    H225377   0.479   3.653  13.307 -0.0767  0.2828  0.9582
 1296TIP3   OH225378   6.463   4.507  14.286  0.3284  0.5571  0.3583
 1296TIP3    H125379   6.483   4.476  14.198  1.0073  1.6155  0.1233
 1296TIP3    H225380   6.510   4.590  14.294  0.6954  0.2464  1.8975
 1297TIP3   OH225381   2.315   3.819   0.881  0.0656 -0.0716  0.7516
 1297TIP3    H125382   2.271   3.794   0.962 -0.3852 -2.5831 -0.1906
 1297TIP3    H225383   2.408   3.807   0.901 -0.0081 -0.1949  1.0352
 1298TIP3   OH225384   1.040   2.744   4.427 -0.0219  0.1289 -0.2025
 1298TIP3    H125385   1.051   2.659   4.385 -0.7333  0.1719 -0.4904
 1298TIP3    H225386   1.095   2.804   4.376  0.5220 -0.1645  0.0346
 1299TIP3   OH225387   6.394   2.178  16.757  0.6401  0.5346 -0.4371
 1299TIP3    H125388   6.425   2.253  16.706  0.9429  0.6267 -0.1256
 1299TIP3    H225389   6.449   2.179  16.835  1.7826 -0.9806 -1.1676
 1300TIP3   OH225390   1.327   0.135   4.091 -0.3076  0.5016 -0.0371
 1300TIP3    H125391   1.268   0.193   4.044  0.2434 -0.5436 -2.1386
 1300TIP3    H225392   1.389   0.194   4.134 -1.7414  1.5371  0.6974
 1301TIP3   OH225393   0.951   0.216   5.072  0.1770 -0.1356  0.1167
 1301TIP3    H125394   1.004   0.296   5.081  2.1692 -1.4809  1.0104
 1301TIP3    H225395   0.875   0.232   5.128  1.8152  0.1739  2.4236
 1302TIP3   OH225396   6.385   5.153   4.735  0.0938  0.3170  0.2947
 1302TIP3    H125397   6.353   5.243   4.737 -1.5255 -0.2108  0.0518
 1302TIP3    H225398   6.373   5.121   4.825 -1.5529 -0.3313 -0.1087
 1303TIP3   OH225399   2.712   3.681   2.370  0.1490  0.0888  0.2910
 1303TIP3    H125400   2.683   3.770   2.391 -0.2726 -0.3748  1.8142
 1303TIP3    H225401   2.722   3.638   2.455  2.3214 -0.7316 -0.3016
 1304TIP3   OH225402   3.805   6.785  16.841 -0.3778  0.5073 -0.5359
 1304TIP3    H125403   3.842   6.782  16.929  0.3281  0.7352 -0.8165
 1304TIP3    H225404   3.757   6.702  16.832  1.9596 -0.8927 -0.9637
 1305TIP3   OH225405   4.403   3.095  14.806 -0.3086  0.4607  0.0954
 1305TIP3    H125406   4.325   3.045  14.783 -1.4555  2.1095  0.2811
 1305TIP3    H225407   4.402   3.100  14.902  0.3439  0.0122  0.1328
 1306TIP3   OH225408   0.265   6.302   2.557  0.8953  0.2919 -1.1136
 1306TIP3    H125409   0.325   6.247   2.608 -0.1721 -0.5150 -0.6944
 1306TIP3    H225410   0.201   6.333   2.621 -0.3998 -0.6383 -1.9031
 1307TIP3   OH225411   4.348   2.613  15.534  0.5670 -0.4404 -0.6287
 1307TIP3    H125412   4.274   2.555  15.519 -0.2608  0.6791 -0.9804
 1307TIP3    H225413   4.374   2.643  15.446  1.0836 -0.4038 -0.4683
 1308TIP3   OH225414   1.370   2.922  15.146  0.2460 -0.1967 -0.0991
 1308TIP3    H125415   1.371   3.012  15.112 -0.3704 -0.1859 -0.1057
 1308TIP3    H225416   1.462   2.896  15.149  0.4107  0.3475 -0.3335
 1309TIP3   OH225417   1.619   2.841   4.515  0.6545 -0.3952  0.0512
 1309TIP3    H125418   1.533   2.815   4.549  0.3170  0.9671  0.3090
 1309TIP3    H225419   1.602   2.924   4.469  1.1696 -1.8783 -3.0687
 1310TIP3   OH225420   1.023   6.168   4.573  0.7948 -0.7746  0.1064
 1310TIP3    H125421   1.117   6.156   4.576  1.2689  2.4423  1.7996
 1310TIP3    H225422   0.996   6.174   4.664 -1.2157 -2.2093 -0.3107
 1311TIP3   OH225423   3.159   5.107   4.984 -0.3166  0.3387 -0.6715
 1311TIP3    H125424   3.153   5.072   4.895  1.1070 -0.1881 -0.5968
 1311TIP3    H225425   3.238   5.162   4.983  1.3100 -1.7670  0.8824
 1312TIP3   OH225426   0.263   1.373   1.451  0.4056  0.4128 -0.4631
 1312TIP3    H125427   0.251   1.450   1.394 -1.8715 -0.3264 -1.0603
 1312TIP3    H225428   0.226   1.399   1.535 -0.7536 -0.1543 -0.7894
 1313TIP3   OH225429   3.447   1.446  15.944  0.0853 -0.4138  0.0323
 1313TIP3    H125430   3.415   1.480  15.861  1.1892 -1.1727 -0.7287
 1313TIP3    H225431   3.542   1.455  15.939  0.1640 -0.2214  1.3329
 1314TIP3   OH225432   0.522   1.707  13.885  0.6375 -0.0032 -0.5337
 1314TIP3    H125433   0.613   1.697  13.858  0.4872  1.1214 -1.5401
 1314TIP3    H225434   0.486   1.772  13.825 -0.5748  0.2728  0.4476
 1315TIP3   OH225435   4.229   4.289  13.304 -0.5780  0.0073 -0.1618
 1315TIP3    H125436   4.279   4.327  13.231 -1.2663 -0.3212 -0.8123
 1315TIP3    H225437   4.294   4.277  13.374 -0.0375  0.9177 -0.4906
 1316TIP3   OH225438   5.974   4.300   0.665 -0.6572 -0.2645  0.2230
 1316TIP3    H125439   5.948   4.376   0.612  0.3571  0.3771  0.5985
 1316TIP3    H225440   5.996   4.232   0.601 -1.7559 -0.3086 -0.1128
 1317TIP3   OH225441   4.139   3.621  12.080  0.1125  0.1542 -0.2586
 1317TIP3    H125442   4.075   3.644  12.012  0.5463  0.7539 -0.4724
 1317TIP3    H225443   4.124   3.686  12.149  2.0427  1.8324 -1.3008
 1318TIP3   OH225444   6.310   3.300  12.426  0.3819  0.0730 -0.0899
 1318TIP3    H125445   6.382   3.263  12.477  0.9629  0.6806 -0.4568
 1318TIP3    H225446   6.239   3.237  12.436  0.8999 -0.4419  0.4329
 1319TIP3   OH225447   1.265   1.667   4.182 -0.1747 -0.2605  0.0593
 1319TIP3    H125448   1.271   1.628   4.269  2.8951  3.1172  1.6533
 1319TIP3    H225449   1.173   1.688   4.171 -1.0585 -3.0520  1.2740
 1320TIP3   OH225450   4.788   2.832   0.131 -0.3972 -0.6648  1.0563
 1320TIP3    H125451   4.812   2.786   0.211  1.8775 -1.3837  0.0787
 1320TIP3    H225452   4.830   2.918   0.139  2.3592 -1.7418 -0.4524
 1321TIP3   OH225453   6.256   6.294   4.392 -0.7200  0.2733 -0.3626
 1321TIP3    H125454   6.220   6.362   4.335 -1.0997 -1.7230 -2.6644
 1321TIP3    H225455   6.333   6.262   4.345 -1.0348 -1.4454  0.2347
 1322TIP3   OH225456   1.253   2.006  14.076 -0.0234  0.1941 -0.2542
 1322TIP3    H125457   1.279   2.097  14.060 -1.9981  0.4216 -2.6757
 1322TIP3    H225458   1.159   2.011  14.097 -0.2319 -1.3160 -0.7275
 1323TIP3   OH225459   2.413   5.581  11.030  0.5142 -0.3325 -0.4005
 1323TIP3    H125460   2.497   5.616  10.999  1.3075 -1.2674  0.6021
 1323TIP3    H225461   2.350   5.610  10.964  1.7786 -0.4461 -1.7399
 1324TIP3   OH225462   2.527   0.141  17.149  0.0812 -0.2906 -0.6686
 1324TIP3    H125463   2.561   0.229  17.164  1.1324 -1.0075  1.6364
 1324TIP3    H225464   2.447   0.137  17.202  0.4725 -0.9302 -0.0929
 1325TIP3   OH225465   4.724   0.273   2.241 -0.0509  0.2323  0.4286
 1325TIP3    H125466   4.746   0.199   2.184  2.1172  1.3996 -0.3568
 1325TIP3    H225467   4.629   0.269   2.249 -0.3026 -0.8935 -2.0409
 1326TIP3   OH225468   5.265   4.763  14.409 -0.0047 -0.4256 -0.2610
 1326TIP3    H125469   5.302   4.809  14.333 -2.1987 -0.6007 -1.5305
 1326TIP3    H225470   5.322   4.787  14.482  1.3488  0.9288 -1.6864
 1327TIP3   OH225471   2.345   1.445  12.171  0.8825  0.2180  0.0500
 1327TIP3    H125472   2.330   1.358  12.207 -1.6790 -0.5629 -2.5593
 1327TIP3    H225473   2.295   1.504  12.228 -1.9640 -0.8194 -1.1854
 1328TIP3   OH225474   3.953   6.498  11.456 -0.4495 -0.6061  0.1100
 1328TIP3    H125475   3.947   6.523  11.548  1.7466 -1.3328  0.5195
 1328TIP3    H225476   3.933   6.578  11.408 -2.6067 -0.4445  1.1386
 1329TIP3   OH225477   4.450   4.813   2.278  0.4464 -0.1333 -0.1715
 1329TIP3    H125478   4.519   4.812   2.344 -1.7052 -2.0218  2.2925
 1329TIP3    H225479   4.424   4.721   2.269 -1.2235  0.4108 -1.5614
 1330TIP3   OH225480   4.616   5.994  15.881 -1.1186 -0.2479 -0.2203
 1330TIP3    H125481   4.591   5.904  15.863 -0.0490 -0.5826 -0.0814
 1330TIP3    H225482   4.711   5.991  15.892 -1.1978  0.7141  0.8665
 1331TIP3   OH225483   6.048   3.639   2.448 -0.1281 -0.7562 -0.0055
 1331TIP3    H125484   6.126   3.647   2.394 -1.2936  2.4288 -1.4621
 1331TIP3    H225485   6.052   3.713   2.508 -1.8948 -0.6424  0.0374
 1332TIP3   OH225486   5.786   0.966   3.351  0.3006 -0.9765  0.3016
 1332TIP3    H125487   5.789   0.983   3.445  1.8377  0.6005  0.0217
 1332TIP3    H225488   5.696   0.940   3.333 -0.1309 -0.8201  2.1244
 1333TIP3   OH225489   6.253   4.789  14.425 -0.4831 -0.3831 -0.0651
 1333TIP3    H125490   6.172   4.835  14.446  0.0254  0.2571  0.5332
 1333TIP3    H225491   6.273   4.738  14.504  0.5014  0.6723  0.4115
 1334TIP3   OH225492   6.678   0.671  15.234  0.4796  0.2887  0.3893
 1334TIP3    H125493   6.772   0.689  15.233  0.6182 -0.3774 -0.3535
 1334TIP3    H225494   6.665   0.617  15.312  0.7754  0.1144  0.3209
 1335TIP3   OH225495   0.552   4.762  15.499 -0.4246  0.2941  0.5838
 1335TIP3    H125496   0.469   4.757  15.451 -0.8232 -0.4497  1.3167
 1335TIP3    H225497   0.530   4.734  15.588  1.0421 -2.3386  0.2296
 1336TIP3   OH225498   3.386   1.288  11.857  0.3176  0.5975 -0.2798
 1336TIP3    H125499   3.318   1.241  11.809  0.2931  1.8248 -1.5179
 1336TIP3    H225500   3.376   1.379  11.830  2.0107  0.9174  0.0554
 1337TIP3   OH225501   0.853   4.718   2.913  0.0564  0.7794 -0.2959
 1337TIP3    H125502   0.762   4.747   2.911 -0.5617 -1.0577 -0.4983
 1337TIP3    H225503   0.902   4.793   2.879 -1.6616  0.8026 -3.0138
 1338TIP3   OH225504   5.984   5.557  16.346  0.1817  0.1785 -0.1477
 1338TIP3    H125505   6.057   5.555  16.285  0.9428  2.0250  0.6173
 1338TIP3    H225506   6.003   5.632  16.403 -2.1490  0.5134  0.2735
 1339TIP3   OH225507   4.247   3.035  14.558 -0.0027  0.9498 -0.1298
 1339TIP3    H125508   4.276   3.126  14.545 -0.4674  1.3211  1.2366
 1339TIP3    H225509   4.322   2.982  14.531 -0.1736  1.6664 -2.2005
 1340TIP3   OH225510   6.670   1.001   4.529 -0.4977 -0.2601 -0.0988
 1340TIP3    H125511   6.754   1.040   4.555  0.8612 -1.4525 -2.3550
 1340TIP3    H225512   6.647   0.942   4.600  0.4114  0.3415  0.7130
 1341TIP3   OH225513   3.775   1.186   4.424 -0.2632  0.3296  0.3897
 1341TIP3    H125514   3.709   1.132   4.469  1.2243 -1.5773  0.3940
 1341TIP3    H225515   3.769   1.271   4.467 -3.0027  0.3691  0.0835
 1342TIP3   OH225516   0.872   4.134   5.546 -0.0333  0.1632  0.1498
 1342TIP3    H125517   0.811   4.088   5.604 -0.5494  2.8216  1.9177
 1342TIP3    H225518   0.820   4.159   5.470 -0.0482 -1.0592 -0.2625
 1343TIP3   OH225519   0.568   1.211   3.396  0.4354 -0.0695 -0.1631
 1343TIP3    H125520   0.546   1.304   3.403 -0.7495  0.1285 -3.9315
 1343TIP3    H225521   0.490   1.166   3.428  1.3360  0.1094  2.4851
 1344TIP3   OH225522   0.308   6.537   3.766  0.0601 -0.0013  0.0960
 1344TIP3    H125523   0.330   6.629   3.775 -1.3331  0.4212 -0.5147
 1344TIP3    H225524   0.330   6.516   3.675 -0.2111 -0.1014  0.0520
 1345TIP3   OH225525   5.661   4.669   5.025  0.0451  0.1468 -0.5088
 1345TIP3    H125526   5.657   4.685   5.120  0.6538  1.2088 -0.6495
 1345TIP3    H225527   5.574   4.634   5.003  0.6819 -2.6292  0.8508
 1346TIP3   OH225528   4.537   3.877  11.340  0.3799  0.3979  0.3447
 1346TIP3    H125529   4.450   3.838  11.350 -0.1237  1.2159 -0.6458
 1346TIP3    H225530   4.598   3.804  11.351 -0.4556 -0.3033  0.4263
 1347TIP3   OH225531   3.897   5.512   1.179 -0.7483  0.0302 -0.5752
 1347TIP3    H125532   3.805   5.531   1.161 -1.0457  0.1028  0.8985
 1347TIP3    H225533   3.895   5.460   1.259  0.5701  1.1812  0.2326
 1348TIP3   OH225534   0.061   6.383  10.755 -0.4642  0.1976 -0.4372
 1348TIP3    H125535   0.086   6.370  10.846  0.7365 -0.2388 -0.8145
 1348TIP3    H225536   0.032   6.296  10.725 -1.4092  0.4589 -0.3259
 1349TIP3   OH225537   2.213   6.661   0.544  0.1610  0.2106 -0.6362
 1349TIP3    H125538   2.178   6.576   0.517  0.1232 -0.4493  1.3072
 1349TIP3    H225539   2.303   6.662   0.513 -0.3162  0.1720 -2.0865
 1350TIP3   OH225540   4.167   2.681  11.181 -0.7283  0.0468 -0.6628
 1350TIP3    H125541   4.121   2.625  11.118  0.0621 -0.3613 -0.8817
 1350TIP3    H225542   4.164   2.632  11.263  0.9206 -0.8594 -1.1018
 1351TIP3   OH225543   4.249   0.730   3.435 -0.3727 -0.2008  0.4207
 1351TIP3    H125544   4.212   0.716   3.348  0.4552  0.0013  0.0283
 1351TIP3    H225545   4.338   0.760   3.419 -0.0916 -0.5017  1.3448
 1352TIP3   OH225546   3.555   2.645   0.275 -0.2340 -0.1446  0.3647
 1352TIP3    H125547   3.600   2.596   0.207  0.3717 -1.1744  1.4578
 1352TIP3    H225548   3.494   2.582   0.314  0.3749  0.0191  1.6299
 1353TIP3   OH225549   2.803   4.691   3.569  0.2596  0.3147  0.1036
 1353TIP3    H125550   2.769   4.687   3.480 -1.5563 -0.9580  0.8010
 1353TIP3    H225551   2.872   4.757   3.565  0.6465 -0.1362 -2.3637
 1354TIP3   OH225552   3.344   6.679   1.399  0.5802 -0.0316  0.2816
 1354TIP3    H125553   3.300   6.644   1.477 -1.9933  0.8921 -0.6485
 1354TIP3    H225554   3.282   6.664   1.328  2.9029 -0.9697 -1.6872
 1355TIP3   OH225555   1.622   2.711   3.723 -0.1754  0.1255 -0.1463
 1355TIP3    H125556   1.572   2.783   3.760 -0.0366  0.0300  0.2337
 1355TIP3    H225557   1.570   2.633   3.743 -1.1442  0.2542 -1.9659
 1356TIP3   OH225558   1.031   5.958  16.618 -0.0000 -0.5496 -0.4896
 1356TIP3    H125559   1.115   5.978  16.659 -0.6790  0.2814  0.5485
 1356TIP3    H225560   0.976   5.928  16.689 -1.2837  1.1742 -0.6795
 1357TIP3   OH225561   4.387   4.364  10.929 -0.1808 -1.2635  0.2438
 1357TIP3    H125562   4.320   4.351  10.861 -1.4112  0.2229  1.1040
 1357TIP3    H225563   4.461   4.403  10.883 -1.0231 -0.2082 -0.2699
 1358TIP3   OH225564   1.117   1.246  11.320 -0.2321 -0.5053 -0.1977
 1358TIP3    H125565   1.078   1.333  11.317 -1.0363 -0.8083  0.8108
 1358TIP3    H225566   1.098   1.208  11.234 -0.5348  0.0468 -0.3767
 1359TIP3   OH225567   4.089   1.431  11.842 -0.1501 -0.0685 -0.2887
 1359TIP3    H125568   4.142   1.510  11.828  0.9331 -1.0321 -1.9383
 1359TIP3    H225569   4.149   1.359  11.824 -0.6190 -1.4019  2.8350
 1360TIP3   OH225570   4.808   0.004  11.576 -0.3077 -0.1632  0.3393
 1360TIP3    H125571   4.800   0.071  11.509 -1.6777  1.6691  2.1965
 1360TIP3    H225572   4.875   0.036  11.636 -0.2789 -0.9332  0.7396
 1361TIP3   OH225573   5.986   0.504  11.079 -0.2404 -0.3302 -0.2420
 1361TIP3    H125574   5.947   0.421  11.108 -0.0853 -0.4051 -0.2478
 1361TIP3    H225575   6.055   0.479  11.018 -0.2240 -0.1944 -0.2808
 1362TIP3   OH225576   5.465   3.729   0.278 -0.0549  0.1632 -0.2020
 1362TIP3    H125577   5.477   3.803   0.338  0.7383  0.8160 -1.1379
 1362TIP3    H225578   5.528   3.663   0.310  0.1234  0.3739 -0.1116
 1363TIP3   OH225579   4.298   4.156   3.135 -0.4924 -0.5317 -0.2887
 1363TIP3    H125580   4.213   4.113   3.125 -0.6068 -0.5641  0.7429
 1363TIP3    H225581   4.318   4.190   3.048  0.3259 -3.9727 -1.5884
 1364TIP3   OH225582   3.250   3.607   1.784  0.0640 -0.0704  0.0213
 1364TIP3    H125583   3.293   3.554   1.717  0.0183 -0.3335  0.1954
 1364TIP3    H225584   3.300   3.589   1.864  0.7295  0.9996 -0.1371
 1365TIP3   OH225585   2.214   2.320   3.820  0.2053 -0.1349  0.2357
 1365TIP3    H125586   2.138   2.360   3.862 -0.0200  0.7863 -0.9917
 1365TIP3    H225587   2.202   2.226   3.835 -1.0280  0.0158  0.3321
 1366TIP3   OH225588   5.845   0.175   1.049  0.4482 -0.2678  0.4195
 1366TIP3    H125589   5.929   0.219   1.042 -0.3845  1.2797 -0.2148
 1366TIP3    H225590   5.815   0.165   0.958 -1.1245  1.3976  0.7003
 1367TIP3   OH225591   5.552   1.878   4.992  0.5367  0.4845  0.3729
 1367TIP3    H125592   5.640   1.845   4.973  0.7120  1.8647 -1.5395
 1367TIP3    H225593   5.562   1.973   4.996 -0.9364  0.7145 -0.5325
 1368TIP3   OH225594   5.356   2.659   2.244 -0.2342  0.1908  0.0915
 1368TIP3    H125595   5.306   2.681   2.323  2.1599 -0.2203  1.8501
 1368TIP3    H225596   5.422   2.597   2.275  1.6011  0.9865 -2.0134
 1369TIP3   OH225597   6.717   0.096   3.118 -0.2969  0.1886 -0.1678
 1369TIP3    H125598   6.630   0.124   3.089 -0.8316 -0.3019  0.9047
 1369TIP3    H225599   6.759   0.176   3.149 -0.3573  0.4326 -0.7150
 1370TIP3   OH225600   2.080   5.090   2.519 -0.1999 -0.5955  0.3568
 1370TIP3    H125601   1.997   5.072   2.563 -1.1571  0.1276 -1.0877
 1370TIP3    H225602   2.138   5.123   2.589 -1.2755 -0.6207  1.2846
 1371TIP3   OH225603   3.468   0.791  15.788 -0.3618  0.3440 -0.0032
 1371TIP3    H125604   3.397   0.729  15.804  1.0241 -1.0235  1.1380
 1371TIP3    H225605   3.430   0.855  15.727 -1.9736 -1.3660 -0.9090
 1372TIP3   OH225606   2.369   0.739  12.107 -0.5678  0.6611  0.0920
 1372TIP3    H125607   2.288   0.749  12.057 -1.3083 -1.2524  0.8017
 1372TIP3    H225608   2.437   0.778  12.052 -1.6591  0.4361 -1.4722
 1373TIP3   OH225609   3.821   4.291  13.103  0.0569  0.0796 -0.1507
 1373TIP3    H125610   3.729   4.290  13.130 -0.2488 -2.0211 -1.1158
 1373TIP3    H225611   3.822   4.247  13.018  1.6021  2.5727 -1.5406
 1374TIP3   OH225612   4.086   4.095  15.566 -0.0695 -0.0419 -0.0342
 1374TIP3    H125613   4.078   4.002  15.542 -0.4269 -0.8593  2.8312
 1374TIP3    H225614   4.012   4.138  15.521 -0.6239 -1.3613 -0.4429
 1375TIP3   OH225615   5.908   1.220   1.786  0.0326 -0.4314 -0.1214
 1375TIP3    H125616   6.002   1.208   1.769  0.2708 -1.8050  1.8407
 1375TIP3    H225617   5.879   1.134   1.816 -1.3964  0.5206  1.3245
 1376TIP3   OH225618   2.336   2.500   0.862 -0.3694 -0.1948  0.3018
 1376TIP3    H125619   2.368   2.536   0.945 -0.5622  1.4930 -0.3000
 1376TIP3    H225620   2.266   2.560   0.836  0.4030 -0.0508 -1.6013
 1377TIP3   OH225621   1.258   3.952   0.814  0.2215  1.0235 -0.4509
 1377TIP3    H125622   1.303   4.030   0.846 -1.0367  1.5027  0.2412
 1377TIP3    H225623   1.191   3.934   0.880  0.5083 -0.6846 -0.5820
 1378TIP3   OH225624   3.871   4.442  11.602 -0.2666  0.5772  0.1488
 1378TIP3    H125625   3.859   4.482  11.688  0.8459 -0.9192  1.0494
 1378TIP3    H225626   3.950   4.483  11.567 -0.3005  0.6480  0.1542
 1379TIP3   OH225627   3.625   4.442  15.499 -0.2856 -0.1683 -0.4748
 1379TIP3    H125628   3.669   4.449  15.583 -2.4004 -0.9166  0.7743
 1379TIP3    H225629   3.635   4.349  15.475 -0.7317 -0.2233 -0.4448
 1380TIP3   OH225630   2.915   3.981   0.098 -0.3197 -0.3218  0.4332
 1380TIP3    H125631   2.841   3.934   0.059 -0.7647 -0.2831  1.2072
 1380TIP3    H225632   2.952   3.919   0.160  1.4102 -0.9882 -1.2015
 1381TIP3   OH225633   4.863   3.987   4.930 -0.1651  0.5185  0.7602
 1381TIP3    H125634   4.824   3.900   4.919  0.7075  0.3835 -2.5451
 1381TIP3    H225635   4.955   3.976   4.905  0.5006  2.0302  2.3032
 1382TIP3   OH225636   1.475   3.237   5.032  0.3540 -0.2080  0.7217
 1382TIP3    H125637   1.462   3.246   4.937  0.3415 -1.6856  0.5587
 1382TIP3    H225638   1.512   3.321   5.059 -0.8564  0.7138 -0.3679
 1383TIP3   OH225639   1.758   0.363   2.833  0.1446 -0.2528 -0.0916
 1383TIP3    H125640   1.808   0.299   2.782  0.1156 -0.0475 -0.3808
 1383TIP3    H225641   1.823   0.407   2.887  0.0289 -1.2160  0.8544
 1384TIP3   OH225642   4.664   4.160   0.795  0.2131  0.8161 -0.1345
 1384TIP3    H125643   4.649   4.101   0.722 -0.4516  0.7847  0.0209
 1384TIP3    H225644   4.691   4.103   0.867 -0.6674  0.6623  0.0856
 1385TIP3   OH225645   4.835   0.016  13.681 -0.1936 -0.3675  0.1229
 1385TIP3    H125646   4.862  -0.073  13.657 -0.8906 -0.9819  1.4954
 1385TIP3    H225647   4.739   0.013  13.678 -0.2349  0.1866  0.6547
 1386TIP3   OH225648   1.217   1.812  13.170 -0.0387  0.1324 -0.1444
 1386TIP3    H125649   1.244   1.822  13.261 -1.9549  0.5722  0.4096
 1386TIP3    H225650   1.124   1.789  13.174  0.2629 -1.7206 -1.9466
 1387TIP3   OH225651   1.637   5.257   2.693  0.1922 -0.3497  0.6610
 1387TIP3    H125652   1.556   5.309   2.690  0.1436 -0.4599 -0.1106
 1387TIP3    H225653   1.610   5.173   2.730 -0.2458 -0.7161 -0.4470
 1388TIP3   OH225654   1.341   1.454   1.344  0.4482 -0.0994 -0.1893
 1388TIP3    H125655   1.372   1.544   1.335  1.5499 -0.2608  1.3993
 1388TIP3    H225656   1.308   1.449   1.434 -2.1345 -0.6050 -1.0742
 1389TIP3   OH225657   1.934   6.602   3.914  0.2809 -1.0707 -0.4493
 1389TIP3    H125658   2.007   6.574   3.859  2.3598  1.1008  0.9697
 1389TIP3    H225659   1.964   6.684   3.953 -2.3632 -0.8509  1.4021
 1390TIP3   OH225660   2.643   3.457   2.217 -0.1562  0.1765  0.2646
 1390TIP3    H125661   2.730   3.448   2.179  0.5578 -1.5269  2.1146
 1390TIP3    H225662   2.657   3.505   2.298 -1.1674  1.0877 -0.0781
 1391TIP3   OH225663   0.174   6.211  15.623 -0.2802 -0.5445 -0.2742
 1391TIP3    H125664   0.164   6.116  15.623  0.7051 -0.6569 -0.3304
 1391TIP3    H225665   0.246   6.228  15.684 -0.5007  0.1760 -0.1968
 1392TIP3   OH225666   0.644   0.466  12.806 -0.1278  0.5914  0.5221
 1392TIP3    H125667   0.737   0.487  12.813 -0.0673  0.1255  1.1384
 1392TIP3    H225668   0.642   0.374  12.782 -0.4393  0.5401  0.7439
 1393TIP3   OH225669   1.365   3.273  10.680 -0.3666  0.1776  0.0014
 1393TIP3    H125670   1.391   3.184  10.704 -1.1077  0.3717  1.6785
 1393TIP3    H225671   1.410   3.329  10.743  0.6321  1.0862 -1.4539
 1394TIP3   OH225672   3.188   0.867   0.179  0.4442  0.1702  0.0187
 1394TIP3    H125673   3.247   0.903   0.245 -1.2997 -2.0792  3.0541
 1394TIP3    H225674   3.244   0.816   0.122  1.9728  1.8855 -0.1235
 1395TIP3   OH225675   3.441   0.705  14.361  0.0096  0.3304 -0.3150
 1395TIP3    H125676   3.512   0.642  14.369 -0.2323  0.1004  0.0294
 1395TIP3    H225677   3.451   0.741  14.273  1.5490  1.5053  0.2963
 1396TIP3   OH225678   5.263   3.194   4.579  0.6652 -0.5744  0.4057
 1396TIP3    H125679   5.328   3.167   4.644  0.6146 -3.6461 -0.6393
 1396TIP3    H225680   5.190   3.134   4.593  0.3235 -0.7748 -1.9181
 1397TIP3   OH225681   0.340   2.358   1.623 -0.4423 -0.9532  0.0249
 1397TIP3    H125682   0.401   2.400   1.683 -0.6828 -1.0136  0.3146
 1397TIP3    H225683   0.377   2.375   1.536 -0.5513 -0.1104  0.1279
 1398TIP3   OH225684   0.274   0.804   2.125 -0.3284 -0.4495 -0.0022
 1398TIP3    H125685   0.250   0.864   2.055 -1.0383 -0.3519  0.3216
 1398TIP3    H225686   0.369   0.794   2.116 -0.0015  1.6418  0.6456
 1399TIP3   OH225687   5.027   1.912   5.085  0.0205 -0.0418 -0.0610
 1399TIP3    H125688   5.007   1.874   5.170  0.6327 -0.2680 -0.0154
 1399TIP3    H225689   5.122   1.917   5.082 -0.0126  0.4766 -0.5117
 1400TIP3   OH225690   5.686   0.566  14.976  0.3682  0.0755 -0.4284
 1400TIP3    H125691   5.643   0.561  14.890 -1.3691 -1.5575  0.4628
 1400TIP3    H225692   5.619   0.537  15.038  2.1433 -0.5419  1.2934
 1401TIP3   OH225693   5.238   6.333   2.720  0.3245 -0.0875 -0.2540
 1401TIP3    H125694   5.307   6.368   2.664  0.3966  0.9462  0.4507
 1401TIP3    H225695   5.171   6.402   2.722  0.2263 -0.1888  0.7311
 1402TIP3   OH225696   6.758   1.828  11.402  0.2865  0.1449 -0.2472
 1402TIP3    H125697   6.748   1.736  11.424 -0.7072  0.2652 -0.1537
 1402TIP3    H225698   6.710   1.839  11.320  0.9109  0.4548 -0.5797
 1403TIP3   OH225699   5.312   0.016   6.760  0.0168  0.7194 -0.5646
 1403TIP3    H125700   5.348  -0.017   6.843 -0.9967  0.3841 -0.2409
 1403TIP3    H225701   5.367  -0.025   6.693  1.4884  1.7766 -0.0590
 1404TIP3   OH225702   3.450   1.870  13.328  0.0472  0.0506  0.2140
 1404TIP3    H125703   3.367   1.832  13.357 -0.1483  0.2694 -0.0463
 1404TIP3    H225704   3.428   1.960  13.304  0.5703  0.4338  1.1223
 1405TIP3   OH225705   2.465   2.482  14.404 -0.7435  0.3662  0.4583
 1405TIP3    H125706   2.491   2.390  14.414  1.8758  0.8651 -0.7863
 1405TIP3    H225707   2.395   2.480  14.339 -0.5380 -0.7398  0.2469
 1406TIP3   OH225708   3.434   4.126  14.445  0.2894  0.0878  0.3149
 1406TIP3    H125709   3.465   4.040  14.419  0.9388  0.1635  0.8298
 1406TIP3    H225710   3.431   4.123  14.540 -0.8661  0.2331  0.2968
 1407TIP3   OH225711   0.672   0.042   2.972  0.2744  0.6046 -0.2821
 1407TIP3    H125712   0.582   0.075   2.978  0.0218  0.0536 -0.8839
 1407TIP3    H225713   0.716   0.102   2.913 -0.0681  0.1239 -1.0371
 1408TIP3   OH225714   4.872   1.805   2.810  0.2708 -0.6259  0.4186
 1408TIP3    H125715   4.783   1.796   2.846 -1.6031  2.8295 -2.6547
 1408TIP3    H225716   4.867   1.765   2.723  0.7819  1.8730 -0.8608
 1409TIP3   OH225717   2.549   5.103   1.874  0.3060  0.3484 -0.5866
 1409TIP3    H125718   2.547   5.191   1.837  0.0494  0.5044 -0.2021
 1409TIP3    H225719   2.461   5.068   1.861  0.1922  0.4313 -0.0643
 1410TIP3   OH225720   4.746   2.416  15.762  0.3537 -0.3928 -0.5463
 1410TIP3    H125721   4.681   2.455  15.820 -0.7963 -2.3473 -0.4168
 1410TIP3    H225722   4.816   2.481  15.757  0.3199  0.0521  2.7110
 1411TIP3   OH225723   0.863   4.745  13.610  0.2539  0.1454 -0.6477
 1411TIP3    H125724   0.860   4.671  13.550 -0.1754  0.0788 -0.5420
 1411TIP3    H225725   0.862   4.705  13.697 -0.5206  0.2892 -0.5828
 1412TIP3   OH225726   5.616   0.353  14.314 -0.5139  0.2590  0.4266
 1412TIP3    H125727   5.632   0.335  14.221 -0.8565 -1.0221  0.5973
 1412TIP3    H225728   5.564   0.433  14.314  0.5973  1.0196 -0.4147
 1413TIP3   OH225729   0.329   5.841  11.331 -0.1833 -0.3064 -0.8128
 1413TIP3    H125730   0.279   5.827  11.411 -4.1424  0.2026 -2.9275
 1413TIP3    H225731   0.317   5.934  11.312  0.0366 -0.5727 -2.3496
 1414TIP3   OH225732   4.110   3.588   5.784  0.3831  0.4654 -0.0041
 1414TIP3    H125733   4.169   3.539   5.726 -0.6857 -0.0484 -0.6910
 1414TIP3    H225734   4.165   3.614   5.858  1.4607 -0.0196 -0.6159
 1415TIP3   OH225735   3.300   5.728  13.737 -0.0659  0.4397  0.5315
 1415TIP3    H125736   3.384   5.720  13.784  0.9593  0.3372 -1.2358
 1415TIP3    H225737   3.318   5.790  13.667 -1.0696 -0.6466 -0.7305
 1416TIP3   OH225738   1.490   1.559  10.880  0.0998 -0.1546  0.2706
 1416TIP3    H125739   1.569   1.527  10.836  0.8543 -0.5442  1.8390
 1416TIP3    H225740   1.424   1.492  10.863  0.7955 -1.0396  0.9088
 1417TIP3   OH225741   2.557   6.543  13.604 -0.1924 -0.6399 -0.2965
 1417TIP3    H125742   2.516   6.574  13.685 -0.3900  1.9587 -1.2835
 1417TIP3    H225743   2.650   6.564  13.614  0.6832 -4.4612  1.0094
 1418TIP3   OH225744   6.667   4.206   5.277  0.6662 -0.0030  0.5724
 1418TIP3    H125745   6.661   4.233   5.186 -1.8314 -0.1716  0.6175
 1418TIP3    H225746   6.692   4.114   5.274 -1.5134 -0.6323 -0.1035
 1419TIP3   OH225747   0.824   0.214   2.817 -0.1855  0.2733  0.2262
 1419TIP3    H125748   0.915   0.188   2.832 -0.3373 -0.0371  0.6333
 1419TIP3    H225749   0.830   0.301   2.776  0.2908  0.2527  0.2469
 1420TIP3   OH225750   5.892   2.496  16.289  0.3664  0.5592 -0.2158
 1420TIP3    H125751   5.869   2.493  16.196  0.1459  3.8819 -0.3771
 1420TIP3    H225752   5.811   2.475  16.335  0.6386 -1.8105 -0.6839
 1421TIP3   OH225753   1.332   5.276   3.783 -0.6820  0.0340 -0.2414
 1421TIP3    H125754   1.329   5.358   3.733  1.7290  0.5764  0.3960
 1421TIP3    H225755   1.354   5.302   3.872  0.3234 -1.3015 -0.0606
 1422TIP3   OH225756   0.173   5.043  12.865  0.1089  0.0155  0.3407
 1422TIP3    H125757   0.108   5.111  12.882  0.4113  0.2682  0.4851
 1422TIP3    H225758   0.138   4.966  12.911 -1.1234 -0.4427 -1.2675
 1423TIP3   OH225759   4.467   2.690  15.805  0.4398 -0.2158 -0.3868
 1423TIP3    H125760   4.440   2.781  15.807  0.7683 -0.0025 -2.6632
 1423TIP3    H225761   4.388   2.641  15.830  0.0501  0.6413  0.1060
 1424TIP3   OH225762   2.685   6.304  17.110  0.0040  0.1307 -0.1489
 1424TIP3    H125763   2.629   6.292  17.187  1.7772  0.4915  1.2737
 1424TIP3    H225764   2.695   6.399  17.103  0.9481  0.0573  0.0436
 1425TIP3   OH225765   2.191   6.309  14.429 -0.2709  0.1806  0.2330
 1425TIP3    H125766   2.101   6.288  14.403 -0.6631  1.6232  0.3727
 1425TIP3    H225767   2.184   6.392  14.476  1.0670  0.0216  0.7559
 1426TIP3   OH225768   2.151   4.812   2.533  0.6816 -0.7776  0.2822
 1426TIP3    H125769   2.059   4.786   2.538  0.6640 -0.4496  2.3268
 1426TIP3    H225770   2.148   4.903   2.503  0.5286 -1.5386 -2.2833
 1427TIP3   OH225771   3.955   6.370  15.322 -0.1132  0.2810  0.1310
 1427TIP3    H125772   3.978   6.278  15.338  1.0665  0.4522 -0.4978
 1427TIP3    H225773   3.862   6.368  15.299  0.3367 -1.0030 -1.8166
 1428TIP3   OH225774   3.844   5.894   5.993 -0.0038 -0.0090 -0.2824
 1428TIP3    H125775   3.834   5.799   5.997 -0.0140 -0.0284 -0.7517
 1428TIP3    H225776   3.767   5.928   6.038 -0.6177 -0.2088 -1.1552
 1429TIP3   OH225777   0.099   4.442  15.818  0.5139 -0.2018  0.3525
 1429TIP3    H125778   0.053   4.447  15.902  0.9482 -0.5116  0.6175
 1429TIP3    H225779   0.141   4.355  15.819  2.7423  0.8007  1.0023
 1430TIP3   OH225780   2.079   2.951   0.068  0.5649  0.0076  0.0545
 1430TIP3    H125781   2.081   2.963  -0.027 -1.1185 -0.3557 -0.0613
 1430TIP3    H225782   2.023   3.021   0.100  0.1481 -0.5893  0.6494
 1431TIP3   OH225783   4.836   6.476  14.435 -0.1589 -0.4950  0.2555
 1431TIP3    H125784   4.799   6.519  14.512  2.0739  1.6174  0.2786
 1431TIP3    H225785   4.780   6.503  14.362 -2.3105 -2.5398  1.0128
 1432TIP3   OH225786   2.064   4.593  16.484  0.1827  0.3945 -0.5420
 1432TIP3    H125787   2.125   4.631  16.421  1.6906 -1.8207 -0.5226
 1432TIP3    H225788   2.116   4.583  16.565 -0.7965  0.3046  0.0932
 1433TIP3   OH225789   6.254   5.366   1.649  0.0251 -0.0722 -0.1393
 1433TIP3    H125790   6.304   5.400   1.575 -0.0789  0.1801 -0.0931
 1433TIP3    H225791   6.175   5.419   1.652 -1.1442 -1.6605 -1.3615
 1434TIP3   OH225792   3.296   2.185  15.570 -0.0879  0.0154 -0.0785
 1434TIP3    H125793   3.310   2.215  15.660  0.2969 -1.2624  0.3187
 1434TIP3    H225794   3.225   2.240  15.537  0.2640  1.0075  0.7493
 1435TIP3   OH225795   2.595   5.599  13.866  0.4101  0.1808 -0.3948
 1435TIP3    H125796   2.506   5.564  13.861  0.7539 -1.2294  2.0730
 1435TIP3    H225797   2.586   5.682  13.913  0.3974  0.0400 -0.1486
 1436TIP3   OH225798   0.294   0.526  14.705  0.1977  0.0935  0.0143
 1436TIP3    H125799   0.315   0.466  14.777  0.4749  1.9564  1.5729
 1436TIP3    H225800   0.209   0.562  14.728 -0.6538 -0.7391 -1.6673
 1437TIP3   OH225801   4.600   3.148  12.913  0.4140  0.1206  0.1414
 1437TIP3    H125802   4.515   3.105  12.925 -0.7423  2.2345  0.0839
 1437TIP3    H225803   4.612   3.199  12.993  1.7859 -0.3876  0.2675
 1438TIP3   OH225804   6.243   6.687   6.272  0.1049 -0.7291  0.0658
 1438TIP3    H125805   6.170   6.637   6.308  1.1052 -2.6281 -0.4175
 1438TIP3    H225806   6.319   6.657   6.322  0.5739  1.3628  0.7075
 1439TIP3   OH225807   5.877   3.726   2.256  0.2615 -0.4543  0.4056
 1439TIP3    H125808   5.924   3.809   2.251 -0.0837 -0.1009  2.1539
 1439TIP3    H225809   5.935   3.668   2.305  0.5061 -1.2776 -0.8185
 1440TIP3   OH225810   6.356   2.586   6.041 -0.5192  0.1033 -0.0686
 1440TIP3    H125811   6.414   2.584   5.965 -2.2210  0.6336 -1.4557
 1440TIP3    H225812   6.386   2.514   6.097  2.0462  0.9621 -0.2348
 1441TIP3   OH225813   3.357   1.550   5.956 -1.0577  0.2511 -0.0438
 1441TIP3    H125814   3.361   1.458   5.931 -1.7747 -0.3378  1.8262
 1441TIP3    H225815   3.441   1.568   5.998 -0.2853  0.9316 -1.7978
 1442TIP3   OH225816   4.020   5.873   4.523  0.8077 -0.0513  0.2500
 1442TIP3    H125817   4.093   5.908   4.471  1.0472 -0.8219  0.0585
 1442TIP3    H225818   4.053   5.790   4.557  0.0645 -0.3349  0.2827
 1443TIP3   OH225819   0.300   2.076  13.055  0.0791  0.4731 -0.0062
 1443TIP3    H125820   0.277   1.989  13.089  0.7134  0.1542 -0.3577
 1443TIP3    H225821   0.333   2.058  12.967 -0.9969  1.2218 -0.5752
 1444TIP3   OH225822   0.943   0.964  12.459  1.0094  0.3028  0.2509
 1444TIP3    H125823   0.953   1.059  12.469  0.5560  0.2636  1.1444
 1444TIP3    H225824   0.852   0.947  12.482  0.7713 -0.2245 -0.9807
 1445TIP3   OH225825   1.306   0.617   1.744 -0.0525  0.3201  0.9015
 1445TIP3    H125826   1.257   0.577   1.672  0.7337  0.2944  0.3724
 1445TIP3    H225827   1.356   0.688   1.703  0.1119  0.5467  1.4852
 1446TIP3   OH225828   0.277   1.532  13.681 -0.2343  0.1764 -0.3728
 1446TIP3    H125829   0.280   1.544  13.776  0.2903  0.5270 -0.4296
 1446TIP3    H225830   0.304   1.616  13.645  0.1915 -0.1401 -0.8212
 1447TIP3   OH225831   0.005   1.059  13.292  0.3913 -0.6451  0.2043
 1447TIP3    H125832   0.083   1.061  13.347  1.1628 -0.7331 -0.8610
 1447TIP3    H225833   0.015   1.133  13.232  0.0882 -1.1655 -0.5063
 1448TIP3   OH225834   6.524   4.749   3.576 -0.2936  0.1130 -0.3073
 1448TIP3    H125835   6.547   4.776   3.665 -0.5131 -0.0967 -0.1873
 1448TIP3    H225836   6.573   4.809   3.519  0.2675 -0.0874 -0.0499
 1449TIP3   OH225837   0.950   5.313  12.151  0.2231  0.2250  0.1899
 1449TIP3    H125838   0.864   5.354  12.162 -0.6900 -1.8414  1.2958
 1449TIP3    H225839   0.931   5.228  12.111  1.9189  0.3414 -0.9309
 1450TIP3   OH225840   6.615   0.257   2.476 -0.1163 -0.1642 -0.0350
 1450TIP3    H125841   6.521   0.253   2.492 -0.1490 -2.1112 -0.5450
 1450TIP3    H225842   6.652   0.288   2.559 -0.9815 -2.3046  1.2146
 1451TIP3   OH225843   1.544   3.432  13.460  0.5266  0.5021  0.1405
 1451TIP3    H125844   1.551   3.343  13.493  1.2508  0.5597  0.1575
 1451TIP3    H225845   1.472   3.429  13.398  0.4740 -0.0703  0.2252
 1452TIP3   OH225846   4.596   4.016  12.885 -0.1831 -0.0176 -0.7570
 1452TIP3    H125847   4.612   4.081  12.817 -0.2354  0.5065 -0.2744
 1452TIP3    H225848   4.510   3.979  12.864 -1.1316  1.5882  0.1532
 1453TIP3   OH225849   1.707   4.177  17.186  0.0970  0.0448 -0.2544
 1453TIP3    H125850   1.697   4.142  17.097  0.3421  1.2885 -0.7904
 1453TIP3    H225851   1.625   4.154  17.230  0.1611 -0.9942 -0.6400
 1454TIP3   OH225852   6.037   6.440  15.733 -0.2336  0.1704 -0.2524
 1454TIP3    H125853   6.094   6.516  15.737 -0.0464  0.0045  0.2063
 1454TIP3    H225854   6.041   6.412  15.641  2.0061 -1.0484  0.1634
 1455TIP3   OH225855   0.344   6.657  11.023 -0.4947  0.2887  0.7079
 1455TIP3    H125856   0.432   6.622  11.014 -0.4404  0.2699  1.2747
 1455TIP3    H225857   0.292   6.583  11.056 -1.2841 -0.4507 -1.9464
 1456TIP3   OH225858   4.935   5.070  13.559  0.5654  0.4505 -0.2584
 1456TIP3    H125859   4.905   5.021  13.635 -2.7883  1.2943 -0.9067
 1456TIP3    H225860   4.935   5.007  13.487 -2.3440  0.9141 -0.7798
 1457TIP3   OH225861   4.606   0.435  16.398 -0.7344 -0.0680 -0.0207
 1457TIP3    H125862   4.524   0.394  16.370  0.3376 -1.8103 -0.7530
 1457TIP3    H225863   4.651   0.366  16.447  0.4563  0.7488  0.0625
 1458TIP3   OH225864   4.886   0.808  14.779 -0.3756  0.4092 -0.1509
 1458TIP3    H125865   4.966   0.762  14.802  0.1569  0.2779 -2.0654
 1458TIP3    H225866   4.879   0.879  14.843 -0.3097 -1.2425  1.8094
 1459TIP3   OH225867   1.471   5.017   0.925 -0.1734 -0.0363 -0.4672
 1459TIP3    H125868   1.459   5.062   0.841 -0.9539  0.6066 -0.0207
 1459TIP3    H225869   1.533   4.947   0.905 -1.1030 -0.5314 -1.8136
 1460TIP3   OH225870   5.190   5.271  16.460 -0.4580  0.3072  0.1674
 1460TIP3    H125871   5.277   5.268  16.501 -0.0682  2.4020 -0.3804
 1460TIP3    H225872   5.134   5.312  16.525 -0.9340 -0.5172  0.2950
 1461TIP3   OH225873   5.754   2.103  12.289 -0.2336 -0.1449 -0.3952
 1461TIP3    H125874   5.808   2.181  12.299 -0.9722  0.3159  0.0968
 1461TIP3    H225875   5.816   2.033  12.271  0.3566  0.7147 -1.8022
 1462TIP3   OH225876   5.417   2.907  11.295  0.4990 -0.1751 -0.5849
 1462TIP3    H125877   5.448   2.901  11.205 -0.1229 -1.2233 -0.7533
 1462TIP3    H225878   5.382   2.819  11.314  0.0339  0.2161  0.4519
 1463TIP3   OH225879   3.197   4.730   4.972  0.3323  0.7290 -0.5741
 1463TIP3    H125880   3.140   4.804   4.951 -3.2418 -0.5845  3.2919
 1463TIP3    H225881   3.192   4.674   4.895 -1.3889  1.9464 -1.4095
 1464TIP3   OH225882   5.164   4.112  16.088 -0.1173  0.3182  0.0081
 1464TIP3    H125883   5.072   4.093  16.107 -0.2214 -0.9547 -1.5207
 1464TIP3    H225884   5.209   4.101  16.172 -1.2576  0.2926  0.6371
 1465TIP3   OH225885   4.971   0.210  12.648  0.6198  0.1141 -0.1934
 1465TIP3    H125886   5.006   0.222  12.736 -0.5716 -0.8959  0.4498
 1465TIP3    H225887   5.038   0.159  12.602  1.5339  1.2034 -0.0913
 1466TIP3   OH225888   3.556   1.085   1.499 -0.0315  0.5622 -0.4896
 1466TIP3    H125889   3.506   1.093   1.580 -0.8176  1.4615 -1.0459
 1466TIP3    H225890   3.554   0.991   1.479  0.2644  0.3170  0.5765
 1467TIP3   OH225891   4.894   3.206   5.147  0.2904 -0.5248  0.3054
 1467TIP3    H125892   4.912   3.169   5.061  0.9952  0.2982  0.0799
 1467TIP3    H225893   4.880   3.299   5.130 -0.8333 -0.5631  0.9294
 1468TIP3   OH225894   3.895   3.167   4.569 -0.2665  0.3773 -0.2971
 1468TIP3    H125895   3.853   3.240   4.525  1.5168  0.5217 -1.8932
 1468TIP3    H225896   3.970   3.206   4.614 -0.0306 -0.2998 -0.0909
 1469TIP3   OH225897   5.415   0.583   2.129 -0.0674  0.1994 -0.3263
 1469TIP3    H125898   5.435   0.491   2.144  0.9794  0.2381 -1.3682
 1469TIP3    H225899   5.326   0.584   2.094 -0.0648 -0.4123 -0.3510
 1470TIP3   OH225900   5.194   2.759   5.548 -0.1527 -0.0295 -0.2970
 1470TIP3    H125901   5.269   2.768   5.490 -0.8881  0.0738 -1.2516
 1470TIP3    H225902   5.174   2.666   5.548 -0.1311 -0.0341 -0.1805
 1471TIP3   OH225903   1.581   2.562   0.288 -0.6313 -0.1513 -0.1801
 1471TIP3    H125904   1.538   2.559   0.203 -1.2355  0.9730  0.0619
 1471TIP3    H225905   1.514   2.531   0.349 -0.2502 -0.8090 -0.0878
 1472TIP3   OH225906   1.582   6.089   0.285 -0.4137 -0.1627 -0.3801
 1472TIP3    H125907   1.554   6.000   0.264 -1.1030 -0.6443  2.1986
 1472TIP3    H225908   1.616   6.083   0.375 -0.2439  2.1291 -0.2216
 1473TIP3   OH225909   0.902   4.825  12.139  0.1739 -0.3762  0.1760
 1473TIP3    H125910   0.888   4.896  12.076 -0.3586 -0.7223 -0.0930
 1473TIP3    H225911   0.867   4.859  12.221  1.0776  0.1653  0.3509
 1474TIP3   OH225912   0.113   1.090   5.354 -0.1312 -0.2915  0.2113
 1474TIP3    H125913   0.087   1.182   5.353 -1.2154 -0.5897 -0.5708
 1474TIP3    H225914   0.202   1.091   5.389 -0.8565  0.8471  2.1889
 1475TIP3   OH225915   0.215   4.481  16.625  0.2164 -0.1400 -0.5790
 1475TIP3    H125916   0.204   4.388  16.648  0.0363  0.3533  1.5658
 1475TIP3    H225917   0.309   4.492  16.611  0.1789 -0.7444 -1.3219
 1476TIP3   OH225918   5.876   3.513   3.525  0.3825 -0.1488  0.3585
 1476TIP3    H125919   5.844   3.587   3.473  1.7071  0.1342 -0.0787
 1476TIP3    H225920   5.815   3.508   3.598 -1.1243 -0.1339 -0.8492
 1477TIP3   OH225921   5.336   0.897   0.551  0.2132 -0.3976 -0.3441
 1477TIP3    H125922   5.418   0.907   0.599  0.7984 -0.2709 -1.3570
 1477TIP3    H225923   5.269   0.928   0.612  0.8412 -1.0150  0.7005
 1478TIP3   OH225924   2.802   3.659   4.604 -0.1329  1.4554 -0.2052
 1478TIP3    H125925   2.756   3.700   4.676 -1.8258 -0.0279 -0.3730
 1478TIP3    H225926   2.802   3.724   4.534 -0.6726  2.0097  0.3069
 1479TIP3   OH225927   5.534   3.950   2.775 -0.0581 -0.0003  0.3715
 1479TIP3    H125928   5.526   4.027   2.720  2.3745  0.0190 -0.0396
 1479TIP3    H225929   5.478   3.969   2.851 -0.6057  1.5243 -0.3705
 1480TIP3   OH225930   3.248   5.697   1.636 -0.1428  0.4370 -0.3939
 1480TIP3    H125931   3.240   5.789   1.611 -0.7478  0.2175 -1.0411
 1480TIP3    H225932   3.292   5.699   1.720  0.0697  1.3096 -0.5160
 1481TIP3   OH225933   2.734   3.358  12.788 -0.3969  0.4296 -0.5742
 1481TIP3    H125934   2.816   3.404  12.804 -1.2090  2.7383 -2.4371
 1481TIP3    H225935   2.743   3.323  12.700  0.0975 -3.0270  0.6915
 1482TIP3   OH225936   1.450   3.239  12.796  0.1515 -0.0357  0.4328
 1482TIP3    H125937   1.443   3.161  12.741 -1.1647  0.5186 -0.2257
 1482TIP3    H225938   1.539   3.236  12.832 -0.1604 -2.3217  1.1627
 1483TIP3   OH225939   1.459   4.959   2.146 -0.1284 -0.0514 -0.0579
 1483TIP3    H125940   1.390   4.916   2.197 -0.2384  0.2516  0.0537
 1483TIP3    H225941   1.427   4.958   2.056 -0.5924  0.6854  0.0892
 1484TIP3   OH225942   6.203   3.763   5.128  0.6547  0.1137 -0.4456
 1484TIP3    H125943   6.195   3.818   5.206  3.2075 -0.2239  0.1195
 1484TIP3    H225944   6.191   3.824   5.055 -3.6383  0.1473  0.0366
 1485TIP3   OH225945   5.804   6.287  15.504  0.1772  0.0837  0.7370
 1485TIP3    H125946   5.877   6.297  15.443  0.6164  1.2636  1.4422
 1485TIP3    H225947   5.839   6.234  15.576 -0.1500 -0.7298  0.3187
 1486TIP3   OH225948   0.255   1.001  15.117 -0.2722  0.1799  0.0730
 1486TIP3    H125949   0.313   1.048  15.058  0.7183 -1.1904 -0.0904
 1486TIP3    H225950   0.221   0.928  15.065 -2.0573  0.8404  0.2106
 1487TIP3   OH225951   4.343   0.706  15.000  0.3073  0.0651 -0.3926
 1487TIP3    H125952   4.370   0.661  15.080  1.2288  0.3716 -0.5230
 1487TIP3    H225953   4.264   0.755  15.026  0.6255  0.2064  0.3378
 1488TIP3   OH225954   6.618   5.624   0.181 -0.1110 -0.5454 -0.4597
 1488TIP3    H125955   6.712   5.607   0.183 -0.0277 -0.1318 -0.8318
 1488TIP3    H225956   6.602   5.682   0.256 -0.3875 -2.1472  0.7814
 1489TIP3   OH225957   3.490   0.751   2.993 -0.3963  0.1691 -0.0127
 1489TIP3    H125958   3.516   0.724   2.905 -1.1524 -1.7302  0.2954
 1489TIP3    H225959   3.559   0.717   3.050  0.9261  2.7540  0.0538
 1490TIP3   OH225960   5.929   6.592   6.233 -0.2605 -0.5492  0.0003
 1490TIP3    H125961   6.008   6.549   6.266  1.4652  1.3964 -1.3406
 1490TIP3    H225962   5.895   6.641   6.309  1.7201  1.1589 -0.1120
 1491TIP3   OH225963   2.535   6.654   6.214 -0.2192 -0.0655  0.1213
 1491TIP3    H125964   2.452   6.666   6.259 -0.0473  1.8657  0.0345
 1491TIP3    H225965   2.600   6.696   6.271  0.3431  0.3617 -0.7912
 1492TIP3   OH225966   0.958   6.601   3.530 -0.2239 -0.2169 -0.3761
 1492TIP3    H125967   0.899   6.614   3.604 -0.9389  1.9465 -1.2112
 1492TIP3    H225968   1.021   6.673   3.536  1.0535 -1.2626 -0.6892
 1493TIP3   OH225969   0.193   3.423  14.400  0.2374 -0.7935 -0.2480
 1493TIP3    H125970   0.122   3.373  14.361  0.7022 -2.2129  0.6343
 1493TIP3    H225971   0.272   3.372  14.380  0.9773  0.5301 -0.8516
 1494TIP3   OH225972   5.649   1.884   1.130  0.2425  0.2171  0.2834
 1494TIP3    H125973   5.724   1.828   1.150  0.3588 -0.0281 -0.7891
 1494TIP3    H225974   5.687   1.971   1.116  0.4664 -0.1181 -1.2821
 1495TIP3   OH225975   0.690   0.177  16.393 -0.0076 -0.1570 -0.0529
 1495TIP3    H125976   0.718   0.217  16.310  2.8757 -2.0080 -0.1111
 1495TIP3    H225977   0.752   0.210  16.458 -1.1246 -0.1311  1.0324
 1496TIP3   OH225978   5.680   5.219   4.243  0.2046  0.1615 -0.0366
 1496TIP3    H125979   5.587   5.198   4.233  0.5992 -1.4679 -0.5483
 1496TIP3    H225980   5.714   5.152   4.302  0.9921  0.9906  0.4885
 1497TIP3   OH225981   2.617   2.184   0.758  0.2148  0.2894  0.2985
 1497TIP3    H125982   2.651   2.264   0.799 -0.7110  0.3762  0.9352
 1497TIP3    H225983   2.596   2.211   0.669  1.2925  0.3661  0.0562
 1498TIP3   OH225984   5.340   0.615   2.896  0.2265 -0.4456 -0.1733
 1498TIP3    H125985   5.395   0.664   2.957 -2.2095 -0.1623  1.9482
 1498TIP3    H225986   5.353   0.658   2.812 -0.0685  2.4202  1.1437
 1499TIP3   OH225987   0.815   2.829  15.855  0.1977 -0.0754  0.5102
 1499TIP3    H125988   0.909   2.846  15.853  0.1142  0.4716  0.8758
 1499TIP3    H225989   0.785   2.846  15.766  0.2185  1.1220  0.7257
 1500TIP3   OH225990   3.276   6.112   3.520 -0.0989 -0.1912  0.4688
 1500TIP3    H125991   3.251   6.128   3.429  0.6687 -0.2651  0.2441
 1500TIP3    H225992   3.203   6.060   3.556 -0.8892  0.6953  0.1962
 1501TIP3   OH225993   6.128   2.268  11.164 -0.2555 -0.1226 -0.1630
 1501TIP3    H125994   6.219   2.243  11.184 -0.2935 -1.5263 -1.5340
 1501TIP3    H225995   6.132   2.302  11.074 -0.9890  0.3543 -0.0174
 1502TIP3   OH225996   3.983   3.808  14.738 -0.4045  0.6751 -0.4909
 1502TIP3    H125997   3.965   3.836  14.648 -1.4103  1.2880 -0.1157
 1502TIP3    H225998   4.039   3.876  14.774 -0.0784  0.4764 -0.6127
 1503TIP3   OH225999   4.524   5.066   2.125 -0.7404  0.1063  0.1053
 1503TIP3    H126000   4.499   4.976   2.148 -1.3421 -0.0314 -1.0391
 1503TIP3    H226001   4.602   5.055   2.070  0.0599  0.3814  1.1420
 1504TIP3   OH226002   6.799   6.226  11.450  0.1494 -0.1818  0.3189
 1504TIP3    H126003   6.735   6.295  11.464  0.8777  0.6629 -0.3666
 1504TIP3    H226004   6.878   6.258  11.494 -0.1772 -1.7250  2.1683
 1505TIP3   OH226005   0.848   6.768   5.453  0.0704  0.2491  0.0617
 1505TIP3    H126006   0.782   6.768   5.383  1.1284  2.7339 -1.0550
 1505TIP3    H226007   0.845   6.856   5.489  0.5927 -0.5479  2.1918
 1506TIP3   OH226008   6.632   4.430  12.105  0.2893  0.5120  0.0299
 1506TIP3    H126009   6.683   4.470  12.034  0.2310 -0.1980 -0.4234
 1506TIP3    H226010   6.637   4.336  12.088  0.0431  0.3486  0.8189
 1507TIP3   OH226011   4.156   0.840   5.404  0.3261 -0.2274  0.4091
 1507TIP3    H126012   4.148   0.925   5.361  1.8423 -0.0009  0.5204
 1507TIP3    H226013   4.139   0.858   5.496  1.2193  0.0917  0.5258
 1508TIP3   OH226014   0.019   3.066  16.127 -0.0766  0.5361  0.0702
 1508TIP3    H126015   0.098   3.023  16.093  0.5860  1.0931  0.8558
 1508TIP3    H226016  -0.051   3.002  16.114  0.3549  0.3121 -1.2958
 1509TIP3   OH226017   5.972   5.535  14.584  0.3612 -0.2827  0.1595
 1509TIP3    H126018   6.058   5.531  14.543 -0.2845  1.5698 -1.5088
 1509TIP3    H226019   5.942   5.625  14.571 -2.3784 -1.1684 -0.5181
 1510TIP3   OH226020   5.888   1.035  13.096 -0.4102  0.5568 -0.1976
 1510TIP3    H126021   5.806   0.986  13.089 -0.0770  0.0642 -0.8938
 1510TIP3    H226022   5.868   1.109  13.153 -0.8642 -0.5302  1.0863
 1511TIP3   OH226023   6.509   6.582  14.206  0.2637  0.6493  0.4066
 1511TIP3    H126024   6.576   6.649  14.220  0.7603 -0.0620  1.6000
 1511TIP3    H226025   6.555   6.512  14.159 -0.5429  1.5837 -1.9020
 1512TIP3   OH226026   1.894   2.732   4.427  0.3358 -0.1694 -0.3205
 1512TIP3    H126027   1.915   2.645   4.395  1.1761 -0.3224  0.5799
 1512TIP3    H226028   1.832   2.718   4.498  0.7313 -0.0773  0.0528
 1513TIP3   OH226029   5.609   2.588   3.946 -0.2940  0.6406 -0.3031
 1513TIP3    H126030   5.672   2.659   3.935  2.2623 -1.7513 -2.4584
 1513TIP3    H226031   5.661   2.514   3.976 -2.6962 -0.6651  0.9407
 1514TIP3   OH226032   1.875   5.919  10.538  0.1911 -0.2418 -0.1693
 1514TIP3    H126033   1.817   5.885  10.606  0.0125 -1.3695 -0.8707
 1514TIP3    H226034   1.948   5.857  10.534  0.5216  0.1570 -0.5744
 1515TIP3   OH226035   6.483   4.349   5.455 -0.0850 -0.0614  0.6192
 1515TIP3    H126036   6.502   4.289   5.527  2.0852  1.2566  1.2333
 1515TIP3    H226037   6.543   4.323   5.385  0.7212  1.2121  0.8138
 1516TIP3   OH226038   4.670   3.897  16.865  0.2303  0.0432  0.8036
 1516TIP3    H126039   4.752   3.945  16.883  0.8374 -0.6296 -0.0846
 1516TIP3    H226040   4.693   3.838  16.793 -1.1301  0.0621  0.3419
 1517TIP3   OH226041   3.456   6.209   2.628  0.5304 -0.1882 -0.0897
 1517TIP3    H126042   3.374   6.201   2.579 -0.2244 -0.8020  1.2015
 1517TIP3    H226043   3.519   6.155   2.580  0.3075  0.5957 -1.3125
 1518TIP3   OH226044   1.390   2.617   1.762  0.1237  0.3861  0.2846
 1518TIP3    H126045   1.446   2.644   1.689  0.1581  1.6411  0.7427
 1518TIP3    H226046   1.380   2.696   1.815 -1.5377  0.0131  0.5772
 1519TIP3   OH226047   6.557   1.249   1.630  0.1217  0.8735  0.2191
 1519TIP3    H126048   6.508   1.185   1.578 -1.3206  1.3528  0.9244
 1519TIP3    H226049   6.560   1.211   1.718  1.3266  0.7075  0.1195
 1520TIP3   OH226050   1.434   3.903  12.566 -0.4623 -0.5473  0.0162
 1520TIP3    H126051   1.447   3.897  12.660  2.6609 -0.4962 -0.3104
 1520TIP3    H226052   1.365   3.839  12.547 -1.2235 -0.4888  2.3032
 1521TIP3   OH226053   5.092   6.252  13.175 -0.1978 -0.2717 -0.6101
 1521TIP3    H126054   5.156   6.313  13.212 -0.1496  0.3763 -1.7185
 1521TIP3    H226055   5.009   6.275  13.217  0.0433 -0.2141 -0.1679
 1522TIP3   OH226056   5.137   4.258   2.831  0.5063  0.6841 -0.1543
 1522TIP3    H126057   5.131   4.180   2.775  0.9717  0.7799 -0.3350
 1522TIP3    H226058   5.205   4.237   2.894 -2.7346 -1.1535  3.1111
 1523TIP3   OH226059   2.986   0.485   1.663  0.6753  0.0611 -0.0293
 1523TIP3    H126060   2.949   0.433   1.591  2.4658 -0.6975 -0.4541
 1523TIP3    H226061   3.078   0.460   1.666  0.7890  0.5174  2.1610
 1524TIP3   OH226062   4.568   1.977  15.679  1.1845  0.1251  0.1221
 1524TIP3    H126063   4.502   2.024  15.627  1.3464  2.1777  1.6501
 1524TIP3    H226064   4.532   1.889  15.688  0.1715  0.2885 -1.6920
 1525TIP3   OH226065   3.249   3.520  12.594  0.2616 -0.5763 -0.0194
 1525TIP3    H126066   3.175   3.538  12.653 -1.0613 -0.5859 -1.5818
 1525TIP3    H226067   3.304   3.458  12.642 -0.0711  0.3852  1.6923
 1526TIP3   OH226068   0.357   2.306   5.512  0.0051  0.0179  0.0344
 1526TIP3    H126069   0.426   2.240   5.505  1.5607  1.4230  1.4755
 1526TIP3    H226070   0.329   2.302   5.603  0.3315  1.5562  0.2193
 1527TIP3   OH226071   5.664   3.412  12.674 -0.4357  0.3712  0.0588
 1527TIP3    H126072   5.733   3.395  12.738  0.7587  1.5844 -0.8369
 1527TIP3    H226073   5.648   3.328  12.631  1.2416  0.2642 -0.4111
 1528TIP3   OH226074   3.178   1.952  11.813  0.2418 -0.2115 -0.3843
 1528TIP3    H126075   3.093   1.977  11.848 -0.1665 -2.1084  0.1022
 1528TIP3    H226076   3.161   1.872  11.763  1.7803 -0.8803  0.0898
 1529TIP3   OH226077   5.490   6.770   3.213 -0.5591 -0.0635 -0.0179
 1529TIP3    H126078   5.511   6.742   3.302 -0.7531  1.7475  0.6539
 1529TIP3    H226079   5.571   6.810   3.180 -0.6276 -0.2888 -0.4679
 1530TIP3   OH226080   1.682   4.083   3.652  0.2822  0.1968 -0.2397
 1530TIP3    H126081   1.587   4.088   3.641  0.2641  0.6496  0.0713
 1530TIP3    H226082   1.712   4.026   3.581 -0.3948 -1.2854  0.6399
 1531TIP3   OH226083   6.421   1.988  13.416  0.0173 -1.0986 -0.1993
 1531TIP3    H126084   6.514   2.002  13.433  0.1825 -1.3647 -0.8346
 1531TIP3    H226085   6.387   2.076  13.397  0.1569 -1.0104 -0.0391
 1532TIP3   OH226086   3.947   5.885   3.665  0.3822  0.1902 -1.1520
 1532TIP3    H126087   3.905   5.970   3.682 -1.3864 -0.5071 -1.7697
 1532TIP3    H226088   3.911   5.827   3.732  2.5300  0.1644  0.0552
 1533TIP3   OH226089   2.896   4.944  12.353  0.8560  0.6907  0.0542
 1533TIP3    H126090   2.965   4.989  12.404  0.6027  0.7823  0.3172
 1533TIP3    H226091   2.863   4.877  12.412  0.2246  1.1148  0.1844
 1534TIP3   OH226092   0.823   6.218   1.015 -0.2071  0.3898 -0.4189
 1534TIP3    H126093   0.739   6.193   0.976 -2.2437  3.2955  1.6281
 1534TIP3    H226094   0.801   6.240   1.106  3.2045 -0.6142  0.7809
 1535TIP3   OH226095   0.999   3.900  15.903 -0.7877  0.6213  0.1105
 1535TIP3    H126096   1.053   3.821  15.907 -0.1006  0.9632 -1.4882
 1535TIP3    H226097   0.971   3.915  15.993  0.6480 -0.3558  0.7551
 1536TIP3   OH226098   0.865   5.805  15.958  0.8026 -0.6971  0.0796
 1536TIP3    H126099   0.845   5.742  16.028  1.2826 -1.1238 -0.1607
 1536TIP3    H226100   0.809   5.779  15.886 -1.7548  1.3996  1.1435
 1537TIP3   OH226101   2.655   0.636  14.702 -0.0504 -0.0399  0.0504
 1537TIP3    H126102   2.638   0.713  14.648 -0.8786  0.2029  0.6355
 1537TIP3    H226103   2.570   0.594  14.712 -0.1611  0.5728  2.1312
 1538TIP3   OH226104   0.476   0.325  13.315 -0.5284  0.3656 -0.2343
 1538TIP3    H126105   0.441   0.374  13.240  1.7967  1.1663 -0.8924
 1538TIP3    H226106   0.522   0.251  13.275 -0.5289 -0.0468  0.5121
 1539TIP3   OH226107   1.160   5.814   3.647 -0.6292 -0.2310  0.1156
 1539TIP3    H126108   1.139   5.783   3.735  0.2058 -1.0856  0.0277
 1539TIP3    H226109   1.151   5.910   3.652  1.0871 -0.1210  1.5997
 1540TIP3   OH226110   5.724   5.968   0.221 -0.0878 -0.1455 -0.1666
 1540TIP3    H126111   5.668   6.031   0.175 -1.6614 -1.1174  0.3447
 1540TIP3    H226112   5.811   5.981   0.183 -0.9740  0.2647 -2.2006
 1541TIP3   OH226113   1.756   1.672   5.433 -0.3624 -0.1118  0.4217
 1541TIP3    H126114   1.835   1.630   5.466  0.8961 -0.0027 -2.2593
 1541TIP3    H226115   1.767   1.765   5.457 -0.5797 -0.3708  1.6054
 1542TIP3   OH226116   1.915   3.168  13.424  0.3469  0.5049  0.0961
 1542TIP3    H126117   1.880   3.192  13.338  1.9031  0.3412 -0.6240
 1542TIP3    H226118   1.845   3.119  13.466 -1.0243  1.9006 -0.4449
 1543TIP3   OH226119   4.748   5.897   3.511 -0.6801 -0.7930  0.0687
 1543TIP3    H126120   4.658   5.924   3.526  0.2094  1.8606  1.2252
 1543TIP3    H226121   4.777   5.952   3.438  0.0781 -1.4496 -0.1361
 1544TIP3   OH226122   4.618   4.736   0.326 -0.1751  0.2504  0.6915
 1544TIP3    H126123   4.586   4.799   0.262 -1.1474 -0.0777  0.8480
 1544TIP3    H226124   4.623   4.785   0.408  1.7573  0.8714  0.2597
 1545TIP3   OH226125   0.894   5.264  15.112  0.2455  0.3802  0.0047
 1545TIP3    H126126   0.920   5.220  15.031  0.1276  0.9800 -0.3611
 1545TIP3    H226127   0.811   5.223  15.136  0.5044 -0.1171  0.0741
 1546TIP3   OH226128   1.856   5.731   2.771  0.1135 -0.1022 -0.1396
 1546TIP3    H126129   1.823   5.821   2.765 -0.1474 -0.2033 -0.2089
 1546TIP3    H226130   1.918   5.734   2.844  0.8672  0.3656 -0.7951
 1547TIP3   OH226131   3.942   5.286  14.262  0.0983  0.3910 -0.4366
 1547TIP3    H126132   3.946   5.339  14.183  2.8057  3.9384  1.7615
 1547TIP3    H226133   3.855   5.302  14.297  0.3144  2.2244 -0.6438
 1548TIP3   OH226134   2.332   6.544  12.923 -0.1416 -0.6967  0.3876
 1548TIP3    H126135   2.378   6.473  12.877 -1.1251 -0.8900 -0.3352
 1548TIP3    H226136   2.260   6.499  12.967 -0.5405 -0.1940  0.2442
 1549TIP3   OH226137   2.817   6.181   1.117 -0.4021 -0.2500 -0.1806
 1549TIP3    H126138   2.731   6.145   1.136  0.2608 -2.0107 -0.3783
 1549TIP3    H226139   2.878   6.127   1.167  0.6883  0.1798 -1.0006
 1550TIP3   OH226140   2.459   5.378  14.510 -0.0340 -0.4977  0.0233
 1550TIP3    H126141   2.387   5.372  14.573  1.2910  1.1001  1.8103
 1550TIP3    H226142   2.532   5.332  14.552  0.6390 -0.1602 -0.7333
 1551TIP3   OH226143   1.791   0.445   0.318 -0.0649  0.0716  0.1111
 1551TIP3    H126144   1.885   0.426   0.319  0.0666  0.6683 -0.1540
 1551TIP3    H226145   1.778   0.496   0.237 -0.8414 -1.1175 -0.5422
 1552TIP3   OH226146   3.396   4.769   5.425  0.5608 -0.3886  0.0341
 1552TIP3    H126147   3.380   4.765   5.330  0.1997  1.2852 -0.0018
 1552TIP3    H226148   3.490   4.755   5.434  0.5287 -1.0267 -0.5318
 1553TIP3   OH226149   2.789   1.256   5.115 -0.4326 -0.3793 -0.2967
 1553TIP3    H126150   2.724   1.314   5.073 -1.2023  0.5110  1.9484
 1553TIP3    H226151   2.869   1.269   5.065 -0.9046  1.7822 -0.5783
 1554TIP3   OH226152   4.315   5.267   2.420  0.3026  0.5241 -0.2375
 1554TIP3    H126153   4.232   5.220   2.410 -0.5071  2.0255 -0.8846
 1554TIP3    H226154   4.293   5.359   2.402  2.1306  0.9380 -0.5516
 1555TIP3   OH226155   3.566   3.496   3.507 -0.4860  0.5776 -0.6207
 1555TIP3    H126156   3.567   3.416   3.454  0.7625  0.7170 -0.8585
 1555TIP3    H226157   3.502   3.553   3.465 -1.3412 -0.2639 -0.4838
 1556TIP3   OH226158   3.045   1.348   1.514 -0.5861  0.1118  0.0596
 1556TIP3    H126159   3.060   1.404   1.437 -2.1330  0.1445 -0.2532
 1556TIP3    H226160   2.994   1.403   1.574  0.7266  0.1323  1.2057
 1557TIP3   OH226161   2.256   4.910  16.677  0.4558  0.4515 -0.0366
 1557TIP3    H126162   2.168   4.914  16.638 -0.0263  2.1007  1.1255
 1557TIP3    H226163   2.255   4.976  16.746  2.6216  0.4971  0.0171
 1558TIP3   OH226164   0.591   6.465  15.845  0.1848 -0.0380 -0.0455
 1558TIP3    H126165   0.566   6.544  15.894 -0.7948 -0.6728  0.4975
 1558TIP3    H226166   0.520   6.453  15.782  0.0989 -0.7429  0.1844
 1559TIP3   OH226167   0.586   1.682  11.798  0.4792  0.0943 -0.5167
 1559TIP3    H126168   0.522   1.660  11.731  0.7688  0.6085 -0.9698
 1559TIP3    H226169   0.536   1.730  11.864 -0.0661 -1.4822  0.2677
 1560TIP3   OH226170   5.016   4.597   3.543  0.4195 -0.3421 -0.3042
 1560TIP3    H126171   4.957   4.602   3.619 -0.0605 -1.4499 -0.5814
 1560TIP3    H226172   5.070   4.676   3.550  0.7619 -0.6798  1.4898
 1561TIP3   OH226173   2.345   2.407   1.494  0.3054 -0.5754 -0.2054
 1561TIP3    H126174   2.315   2.478   1.437 -0.6821 -0.7396  0.0868
 1561TIP3    H226175   2.431   2.435   1.524 -0.6032  1.1663  0.9697
 1562TIP3   OH226176   3.936   0.291  11.360  0.4335 -0.1426 -0.2924
 1562TIP3    H126177   3.957   0.255  11.274  1.2446  0.6878 -0.4608
 1562TIP3    H226178   3.962   0.383  11.355  0.1236  0.0161  0.7118
 1563TIP3   OH226179   4.649   5.221   1.522  0.1692 -0.2771  0.1728
 1563TIP3    H126180   4.594   5.296   1.497 -0.4067 -0.0939  1.8479
 1563TIP3    H226181   4.703   5.255   1.594 -0.0436 -1.4352  0.9036
 1564TIP3   OH226182   0.777   6.459   0.691 -0.5161 -0.0454 -0.2205
 1564TIP3    H126183   0.755   6.491   0.779  0.6746  1.4296 -0.4136
 1564TIP3    H226184   0.756   6.366   0.693 -1.0002  0.0683  1.4624
 1565TIP3   OH226185   1.063   5.563  12.943 -0.5889 -0.0080  0.2515
 1565TIP3    H126186   1.077   5.474  12.976 -0.1467  0.2417  0.7420
 1565TIP3    H226187   1.130   5.616  12.986 -1.1313  0.6469  0.2999
 1566TIP3   OH226188   0.846   2.144  11.562  0.1035 -0.0182 -0.5193
 1566TIP3    H126189   0.925   2.089  11.565  0.1949  0.1589  0.8902
 1566TIP3    H226190   0.774   2.083  11.580 -0.0993 -0.1900 -1.8608
 1567TIP3   OH226191   4.035   1.096  14.976 -0.2404  0.2910 -0.2993
 1567TIP3    H126192   4.070   1.162  15.035 -0.5344 -0.1625  0.3932
 1567TIP3    H226193   4.028   1.140  14.891 -0.1185  1.0376  0.0768
 1568TIP3   OH226194   4.344   6.038  17.082 -0.0079 -0.0812  0.2861
 1568TIP3    H126195   4.250   6.038  17.100 -0.2059  1.2977 -0.6064
 1568TIP3    H226196   4.372   6.128  17.098  1.0823 -0.3786  0.1381
 1569TIP3   OH226197   1.066   6.414   2.142  0.1834  0.3667 -0.6285
 1569TIP3    H126198   1.018   6.493   2.167  0.5572  0.5583 -0.5199
 1569TIP3    H226199   1.158   6.441   2.139  0.2591  0.0683 -1.1019
 1570TIP3   OH226200   1.019   5.729   4.989 -0.2467 -0.2003  0.0701
 1570TIP3    H126201   1.058   5.644   4.967 -0.1307  0.6940 -3.9419
 1570TIP3    H226202   0.929   5.708   5.014  0.3283 -1.6217  1.0636
 1571TIP3   OH226203   0.472   5.224   0.578  0.4150  0.4875  0.0549
 1571TIP3    H126204   0.424   5.189   0.502 -0.5068 -0.9657  1.2454
 1571TIP3    H226205   0.478   5.318   0.561  1.3619  0.0514 -2.4161
 1572TIP3   OH226206   0.857   1.194   1.171 -0.3422 -0.4365  0.5326
 1572TIP3    H126207   0.917   1.165   1.102 -0.3525 -0.1900  0.4223
 1572TIP3    H226208   0.793   1.249   1.127 -0.8762 -0.9959  0.5884
 1573TIP3   OH226209   0.769   1.796   5.060 -0.0649 -0.4435  0.0776
 1573TIP3    H126210   0.787   1.851   4.984 -0.4869 -3.7078 -2.6330
 1573TIP3    H226211   0.676   1.774   5.052 -0.4326  0.0551  2.2912
 1574TIP3   OH226212   2.373   6.270  12.810 -0.2977  0.0259  0.4909
 1574TIP3    H126213   2.306   6.210  12.843 -0.1613 -0.1696  0.4097
 1574TIP3    H226214   2.341   6.298  12.724  0.0377 -0.5635  0.1753
 1575TIP3   OH226215   5.599   1.580   6.600  0.0246 -0.4020 -0.4368
 1575TIP3    H126216   5.557   1.653   6.646  0.5343  0.6062 -1.5130
 1575TIP3    H226217   5.626   1.520   6.670 -0.2413  0.5230  0.4870
 1576TIP3   OH226218   0.877   2.858  15.056 -0.2264  0.3217  0.3956
 1576TIP3    H126219   0.845   2.885  15.142  0.1434 -1.3325  1.1001
 1576TIP3    H226220   0.971   2.843  15.069 -0.4461 -1.5302  0.1770
 1577TIP3   OH226221   3.034   4.946  16.016  0.0534  0.2181  0.0847
 1577TIP3    H126222   3.083   4.867  16.040 -1.4887 -0.7611  0.1583
 1577TIP3    H226223   2.980   4.919  15.942 -0.1885  1.3219 -0.1509
 1578TIP3   OH226224   2.565   2.420   5.393 -0.1156 -0.3197  0.1521
 1578TIP3    H126225   2.548   2.337   5.350 -0.7041 -0.6738  1.0326
 1578TIP3    H226226   2.648   2.450   5.357 -0.7976 -0.3655 -1.5602
 1579TIP3   OH226227   3.991   2.355  15.018 -0.3856 -0.3270  0.4119
 1579TIP3    H126228   3.962   2.265  15.029 -0.2016 -0.1711  2.5223
 1579TIP3    H226229   4.083   2.348  14.992 -0.0475 -0.7631  1.6711
 1580TIP3   OH226230   1.870   0.785   5.978  0.5855 -0.5366  0.4367
 1580TIP3    H126231   1.843   0.699   5.945  1.4405  0.4189 -3.1711
 1580TIP3    H226232   1.790   0.837   5.981  0.4050 -0.8138  0.4055
 1581TIP3   OH226233   2.825   1.359   5.562 -0.0555  0.1554  0.0735
 1581TIP3    H126234   2.892   1.297   5.590 -1.0408 -1.9791 -1.9690
 1581TIP3    H226235   2.859   1.397   5.481 -1.1254 -0.7417 -0.8316
 1582TIP3   OH226236   3.039   0.148  11.357 -0.1273  0.2262 -0.2149
 1582TIP3    H126237   2.945   0.163  11.366  0.0594  1.2512  0.1372
 1582TIP3    H226238   3.079   0.232  11.378  0.7900  0.3093 -2.0934
 1583TIP3   OH226239   0.325   0.282  10.935  0.0690 -0.4267 -0.3435
 1583TIP3    H126240   0.252   0.243  10.982 -1.0534  1.9030 -0.0082
 1583TIP3    H226241   0.388   0.211  10.924 -0.6448 -1.6575  2.5943
 1584TIP3   OH226242   6.045   0.155   1.630 -0.0674 -0.7933  0.0147
 1584TIP3    H126243   6.047   0.102   1.710 -0.6652  0.8216  1.1601
 1584TIP3    H226244   6.001   0.236   1.656  1.7801  0.7531 -1.3548
 1585TIP3   OH226245   1.862   4.251   0.404  0.2380 -0.2634  0.1605
 1585TIP3    H126246   1.878   4.165   0.444  0.6705 -0.6740 -0.8782
 1585TIP3    H226247   1.896   4.314   0.469 -1.7295 -0.7381  1.7755
 1586TIP3   OH226248   3.130   4.775   0.367 -0.0468 -0.7874  0.1437
 1586TIP3    H126249   3.035   4.773   0.373 -0.1782  0.4601 -1.0403
 1586TIP3    H226250   3.148   4.780   0.273  1.1848 -1.0544  0.3526
 1587TIP3   OH226251   5.199   5.328  13.302 -0.0401 -0.3827  0.0122
 1587TIP3    H126252   5.291   5.341  13.327 -0.1653  0.9918 -0.1806
 1587TIP3    H226253   5.173   5.248  13.348  0.9013 -0.1219  1.0464
 1588TIP3   OH226254   6.619   5.955  13.803 -0.5686 -0.8221  0.5616
 1588TIP3    H126255   6.685   5.894  13.771 -0.8219 -0.8519  0.0839
 1588TIP3    H226256   6.548   5.949  13.739 -0.2617  0.5602  0.0655
 1589TIP3   OH226257   2.747   2.407  16.795 -0.2856  0.3587 -0.3153
 1589TIP3    H126258   2.730   2.317  16.823  1.1012  0.1650 -0.0195
 1589TIP3    H226259   2.695   2.418  16.715  0.0406 -0.9257 -0.7153
 1590TIP3   OH226260   1.018   1.181  16.310 -0.3177 -0.0357  0.1592
 1590TIP3    H126261   1.016   1.269  16.273 -1.7881  0.2012  0.6962
 1590TIP3    H226262   0.998   1.123  16.237  0.2838  0.1015 -0.1186
 1591TIP3   OH226263   3.424   2.271  14.636 -0.1506  0.0080 -0.5444
 1591TIP3    H126264   3.463   2.357  14.620 -0.8827  0.3874 -0.3395
 1591TIP3    H226265   3.339   2.275  14.593 -0.6418 -0.2220  0.3758
 1592TIP3   OH226266   0.207   6.230   3.065  0.5757  0.0739  0.2021
 1592TIP3    H126267   0.247   6.317   3.061  2.2695 -0.2949  3.9751
 1592TIP3    H226268   0.281   6.169   3.061  0.1123 -0.8410  3.1098
 1593TIP3   OH226269   2.178   3.540   1.279  0.0224 -0.0103  0.2340
 1593TIP3    H126270   2.173   3.467   1.217  2.5377 -0.2828  0.2367
 1593TIP3    H226271   2.247   3.514   1.340 -1.5821  0.7779  2.4829
 1594TIP3   OH226272   3.449   2.969  11.417 -0.0948  0.3594  0.0883
 1594TIP3    H126273   3.361   2.944  11.447  0.4858  1.3525  2.8732
 1594TIP3    H226274   3.433   3.027  11.342 -1.7018 -1.0539 -0.7465
 1595TIP3   OH226275   5.895   3.081  11.755  0.3328 -0.0717 -0.1189
 1595TIP3    H126276   5.982   3.109  11.784  1.4278 -2.3379 -0.9305
 1595TIP3    H226277   5.898   3.088  11.659  0.2944 -1.7695 -0.2823
 1596TIP3   OH226278   3.408   6.555  11.078 -0.0699 -0.3707  0.5819
 1596TIP3    H126279   3.487   6.552  11.132  0.9974  1.6284 -0.7675
 1596TIP3    H226280   3.364   6.635  11.105  0.2342  0.3957 -1.1298
 1597TIP3   OH226281   2.929   3.460   0.517  0.0031  0.1032  0.5058
 1597TIP3    H126282   2.906   3.525   0.583  1.2179  1.8969 -0.7666
 1597TIP3    H226283   3.000   3.409   0.557  1.0666  1.4906  0.4698
 1598TIP3   OH226284   1.247   4.195  13.595 -0.2869  0.1288  0.0986
 1598TIP3    H126285   1.277   4.158  13.679  0.5062  0.7355  0.0876
 1598TIP3    H226286   1.279   4.285  13.596  0.2478 -0.0373 -1.1250
 1599TIP3   OH226287   6.032   4.799   4.039 -0.2377 -0.2946 -0.0393
 1599TIP3    H126288   6.126   4.787   4.028 -0.2887 -2.5123  1.3143
 1599TIP3    H226289   5.994   4.763   3.960  0.0128  0.9638 -0.7688
 1600TIP3   OH226290   2.820   5.912   3.052  0.2276 -0.5053 -0.4423
 1600TIP3    H126291   2.895   5.915   2.992  1.0174  2.2352  0.5129
 1600TIP3    H226292   2.749   5.953   3.003  1.0904  2.4909  0.5941
 1601TIP3   OH226293   1.020   0.765   3.323  0.5390 -0.0292 -0.1954
 1601TIP3    H126294   1.006   0.852   3.284 -0.6194 -0.8284 -1.6414
 1601TIP3    H226295   1.088   0.725   3.269 -0.3934 -0.7846 -0.8319
 1602TIP3   OH226296   2.347   3.460  14.065 -0.0367 -0.2623 -0.0819
 1602TIP3    H126297   2.386   3.513  14.135 -0.9467  1.0188 -0.5159
 1602TIP3    H226298   2.345   3.518  13.989 -0.2727 -1.2063 -0.8216
 1603TIP3   OH226299   4.326   2.836   1.714 -0.1663 -0.1989  0.2107
 1603TIP3    H126300   4.362   2.777   1.780 -2.3843 -0.4806  1.2712
 1603TIP3    H226301   4.393   2.904   1.704  0.9086 -0.9851  1.5965
 1604TIP3   OH226302   3.956   1.510   5.397  0.3922 -0.1333  0.4172
 1604TIP3    H126303   3.950   1.435   5.337  1.1855 -0.6605  0.9882
 1604TIP3    H226304   4.045   1.543   5.387 -0.4673  1.9744 -1.2498
 1605TIP3   OH226305   4.303   0.383   2.786  0.4436  0.1673 -1.2547
 1605TIP3    H126306   4.318   0.463   2.837  1.1307  0.8655 -2.5051
 1605TIP3    H226307   4.344   0.313   2.838  0.0429  0.6389 -0.2680
 1606TIP3   OH226308   6.567   4.295  10.960 -0.4058 -0.5282 -0.3673
 1606TIP3    H126309   6.565   4.385  10.991  1.0204  0.8585 -3.7478
 1606TIP3    H226310   6.490   4.253  10.999 -3.7920  3.4277 -2.0559
 1607TIP3   OH226311   5.445   0.307   2.227 -0.0121 -0.2384 -0.2253
 1607TIP3    H126312   5.514   0.320   2.292  0.9875 -1.8659 -0.8958
 1607TIP3    H226313   5.364   0.304   2.278  0.4263  1.3686  0.6109
 1608TIP3   OH226314   5.779   3.995  13.989  0.0694 -0.1477  0.3025
 1608TIP3    H126315   5.734   4.006  13.906 -2.5211  0.0840  1.6242
 1608TIP3    H226316   5.733   4.054  14.049  1.3029 -0.9165  2.0950
 1609TIP3   OH226317   5.515   5.899   0.754  0.0604  0.8040  0.2928
 1609TIP3    H126318   5.584   5.842   0.721  0.7458  0.8751  1.5236
 1609TIP3    H226319   5.434   5.860   0.722  0.6850  1.1512 -1.8150
 1610TIP3   OH226320   0.845   6.698  14.720 -0.6554  0.3949  0.6273
 1610TIP3    H126321   0.842   6.788  14.752 -0.7631  0.0229  1.7190
 1610TIP3    H226322   0.788   6.650  14.780 -2.4829  0.0035 -1.3437
 1611TIP3   OH226323   2.523   0.488  11.013 -0.1006 -0.1469 -0.0705
 1611TIP3    H126324   2.581   0.485  11.089  0.6247 -0.0135 -0.6034
 1611TIP3    H226325   2.577   0.524  10.943 -1.5012  2.3732  0.0170
 1612TIP3   OH226326   0.911   6.213   6.160 -0.1154  0.1285  0.1020
 1612TIP3    H126327   0.928   6.294   6.110  0.5447 -1.0919 -1.7501
 1612TIP3    H226328   0.855   6.161   6.103  1.5378 -1.7830  0.1196
 1613TIP3   OH226329   1.564   2.409  16.261  0.1360 -0.1845  0.5780
 1613TIP3    H126330   1.640   2.359  16.290  0.6144  0.4774  0.5096
 1613TIP3    H226331   1.586   2.437  16.172  0.6462  1.5709  1.2018
 1614TIP3   OH226332   4.090   3.404   2.211 -0.0907 -0.3938  0.1133
 1614TIP3    H126333   4.116   3.344   2.142  0.0997  0.1563 -0.2942
 1614TIP3    H226334   4.026   3.354   2.262  0.2927 -1.0530 -0.0314
 1615TIP3   OH226335   1.768   4.806  15.356  0.0694 -0.2453 -0.1956
 1615TIP3    H126336   1.778   4.840  15.267 -0.6998  1.0744  0.2006
 1615TIP3    H226337   1.711   4.730  15.346  0.8530 -0.7512 -0.9481
 1616TIP3   OH226338   0.464   3.430  13.846  0.3534  0.2027 -0.2662
 1616TIP3    H126339   0.382   3.452  13.890 -0.3543 -0.2632 -1.3217
 1616TIP3    H226340   0.520   3.396  13.916 -0.3925  0.4023  0.4474
 1617TIP3   OH226341   2.292   0.525  11.129 -0.4200  0.5361  0.0195
 1617TIP3    H126342   2.321   0.526  11.220 -0.9450  0.9304  0.1877
 1617TIP3    H226343   2.373   0.526  11.078 -0.1264  0.6685  0.4803
 1618TIP3   OH226344   1.641   6.575   4.635 -0.6701  0.7458  0.5554
 1618TIP3    H126345   1.605   6.648   4.685 -1.6838  0.3625  0.4018
 1618TIP3    H226346   1.615   6.592   4.545 -0.2705  0.5762  0.4040
 1619TIP3   OH226347   6.801   4.950  16.539 -0.9116  0.6595  0.5437
 1619TIP3    H126348   6.831   5.033  16.578 -0.3493  0.0148  1.5359
 1619TIP3    H226349   6.774   4.974  16.451  0.1713  1.7381  0.4647
 1620TIP3   OH226350   4.198   1.375   1.997  0.2621  1.0140  0.0890
 1620TIP3    H126351   4.265   1.394   2.062  0.0410  0.3890  0.5116
 1620TIP3    H226352   4.243   1.382   1.913  0.7512  1.0234  0.3494
 1621TIP3   OH226353   2.243   3.953   1.290 -0.4872  0.1408  0.5867
 1621TIP3    H126354   2.227   3.947   1.384 -3.0455  0.3169  0.2390
 1621TIP3    H226355   2.186   4.024   1.261  2.8899  2.6365 -0.6416
 1622TIP3   OH226356   4.261   4.940   0.335 -0.8760  0.0463 -0.9015
 1622TIP3    H126357   4.198   4.931   0.407 -1.3356 -1.7952 -1.4802
 1622TIP3    H226358   4.337   4.889   0.364 -1.4793 -1.6407 -2.1107
 1623TIP3   OH226359   3.443   2.814  14.251  0.0483  0.1308 -0.3539
 1623TIP3    H126360   3.368   2.760  14.272 -0.0820  0.6610  0.6204
 1623TIP3    H226361   3.433   2.892  14.306  1.0764  0.4044 -0.5198
 1624TIP3   OH226362   5.583   6.638  16.981 -0.1548 -0.0774 -0.3215
 1624TIP3    H126363   5.585   6.700  17.054  0.8799 -0.5254  0.0455
 1624TIP3    H226364   5.588   6.552  17.023  1.2184 -0.3206 -0.9406
 1625TIP3   OH226365   2.877   4.635  16.826 -0.4995  0.0465 -0.0144
 1625TIP3    H126366   2.919   4.720  16.813 -3.3872  2.2243  3.3277
 1625TIP3    H226367   2.927   4.594  16.897 -1.5034  0.8887  1.2281
 1626TIP3   OH226368   5.210   5.884  13.646  0.0641  0.3344 -0.0348
 1626TIP3    H126369   5.162   5.859  13.567 -2.7794 -1.2579  2.0078
 1626TIP3    H226370   5.283   5.937  13.614 -0.9616 -0.1771 -3.6799
 1627TIP3   OH226371   5.705   2.448   0.442  0.0907 -0.0493 -0.4415
 1627TIP3    H126372   5.618   2.411   0.424  0.1736  0.2178 -1.4686
 1627TIP3    H226373   5.728   2.415   0.529 -1.5834  0.8993  0.4019
 1628TIP3   OH226374   1.567   0.620  13.352  0.0880 -0.3765 -0.5059
 1628TIP3    H126375   1.511   0.681  13.401  0.7926 -0.4556  0.4304
 1628TIP3    H226376   1.642   0.673  13.326 -0.6900 -0.0911 -2.3633
 1629TIP3   OH226377   2.191   1.451  15.119 -0.1875  0.2256  0.0405
 1629TIP3    H126378   2.267   1.424  15.171 -0.8097 -1.1110  0.3128
 1629TIP3    H226379   2.149   1.369  15.094  0.4860  0.7571 -3.2542
 1630TIP3   OH226380   6.768   2.156   1.975 -1.0085 -0.4272  0.1217
 1630TIP3    H126381   6.862   2.140   1.987 -1.4434 -2.9663  0.6367
 1630TIP3    H226382   6.734   2.167   2.064 -1.1786  0.8195 -0.0811
 1631TIP3   OH226383   0.204   1.238   0.440 -0.0796 -0.1773 -0.3172
 1631TIP3    H126384   0.270   1.307   0.431  0.1765 -0.3567  0.1660
 1631TIP3    H226385   0.162   1.256   0.524  2.9764 -3.0941  2.1290
 1632TIP3   OH226386   2.284   3.953  14.043 -0.5649 -0.1009 -0.7429
 1632TIP3    H126387   2.192   3.942  14.020 -0.8454  1.9386 -0.7992
 1632TIP3    H226388   2.301   4.046  14.029  1.3627 -0.3297 -0.1971
 1633TIP3   OH226389   6.623   2.691  10.903  0.3182  0.0257  0.3630
 1633TIP3    H126390   6.643   2.696  10.810  1.4646  1.2000  0.6482
 1633TIP3    H226391   6.670   2.613  10.933 -2.3690 -2.0819 -0.5284
 1634TIP3   OH226392   6.653   3.624   5.761 -0.6696 -0.2263  0.2800
 1634TIP3    H126393   6.576   3.587   5.716  0.7745 -1.4623 -1.3004
 1634TIP3    H226394   6.627   3.713   5.782 -2.5785 -0.6376 -0.1134
 1635TIP3   OH226395   1.608   3.075  16.154  0.0241  0.5840  0.8366
 1635TIP3    H126396   1.536   3.103  16.098  0.1484  2.5899  1.6009
 1635TIP3    H226397   1.566   3.030  16.226 -0.3139  0.0932  0.3401
 1636TIP3   OH226398   5.317   0.659  12.482 -0.2398 -0.6423 -0.6974
 1636TIP3    H126399   5.231   0.702  12.472 -0.8877 -1.5180  0.7398
 1636TIP3    H226400   5.339   0.629  12.394 -0.1055  1.9447 -1.6316
 1637TIP3   OH226401   4.384   0.241   2.999  0.0617  0.6359 -0.3764
 1637TIP3    H126402   4.303   0.240   3.051 -0.8630  0.2794 -1.7729
 1637TIP3    H226403   4.454   0.238   3.064 -1.0564 -0.1139  0.8442
 1638TIP3   OH226404   2.908   4.187  12.461 -0.1632 -0.0257  0.0194
 1638TIP3    H126405   2.883   4.208  12.371  2.8198 -1.7220 -1.3479
 1638TIP3    H226406   2.984   4.243  12.479 -0.3182 -0.1785  1.2411
 1639TIP3   OH226407   6.194   2.695   2.628  0.2668  0.1688  0.3739
 1639TIP3    H126408   6.220   2.716   2.718  0.0663 -0.7649  0.6630
 1639TIP3    H226409   6.224   2.605   2.615 -0.4594  0.0036 -0.2001
 1640TIP3   OH226410   6.272   0.486   5.751 -0.3690 -0.1841 -0.0124
 1640TIP3    H126411   6.224   0.407   5.729 -2.6206  1.1773 -0.2678
 1640TIP3    H226412   6.207   0.544   5.790  1.4302  1.1805  1.1428
 1641TIP3   OH226413   2.423   0.405  12.115  0.0005  0.4085 -0.4312
 1641TIP3    H126414   2.356   0.468  12.088  0.4446  0.2007 -2.1495
 1641TIP3    H226415   2.384   0.319  12.095 -1.0230 -0.0063  2.8390
 1642TIP3   OH226416   2.294   6.727  15.161 -0.4597 -0.2541  0.6082
 1642TIP3    H126417   2.244   6.645  15.165  0.3485 -0.7143  1.9316
 1642TIP3    H226418   2.249   6.786  15.222  0.7052 -0.7529  1.9937
 1643TIP3   OH226419   5.924   0.358  16.517  0.0917 -0.6141 -0.3685
 1643TIP3    H126420   5.896   0.343  16.427  1.8301 -2.4247 -0.6781
 1643TIP3    H226421   5.883   0.286  16.566 -1.1338  0.5594  0.3921
 1644TIP3   OH226422   3.307   0.980  14.005 -0.0883  0.1570 -0.2293
 1644TIP3    H126423   3.261   0.956  13.925 -0.3063  0.9818 -0.3701
 1644TIP3    H226424   3.340   0.898  14.041  0.6861 -0.1528 -1.5772
 1645TIP3   OH226425   2.519   3.013  16.986  0.1486  0.0991  0.0635
 1645TIP3    H126426   2.562   2.933  16.957 -0.5325 -0.0464 -0.5564
 1645TIP3    H226427   2.548   3.024  17.077  1.5379  0.0398 -0.3483
 1646TIP3   OH226428   5.280   2.673  11.280  0.3489  0.1510  0.4140
 1646TIP3    H126429   5.318   2.586  11.282  0.0358 -0.0394 -0.7756
 1646TIP3    H226430   5.215   2.669  11.209  0.8617  1.5508 -0.1798
 1647TIP3   OH226431   2.083   0.177   2.217 -0.0976  0.2778 -0.5252
 1647TIP3    H126432   2.025   0.107   2.187 -1.0349  0.5971  0.4815
 1647TIP3    H226433   2.091   0.235   2.142  1.3779 -1.3022 -1.6680
 1648TIP3   OH226434   6.146   6.702   3.021  0.4730  0.4540  0.0151
 1648TIP3    H126435   6.205   6.745   2.959  1.7297 -1.1418  0.0537
 1648TIP3    H226436   6.201   6.637   3.066 -0.7549  0.5490  1.7674
 1649TIP3   OH226437   4.478   3.645  11.933  0.0838 -0.0810 -0.3508
 1649TIP3    H126438   4.525   3.616  12.011  0.1089 -1.3616 -0.8173
 1649TIP3    H226439   4.420   3.714  11.965 -0.1642 -0.8224  0.8805
 1650TIP3   OH226440   6.555   2.946   2.584  0.2460  0.1851  0.6254
 1650TIP3    H126441   6.480   2.991   2.545  0.8380  1.1082  0.4915
 1650TIP3    H226442   6.581   3.002   2.657 -0.4335 -1.1813  1.9667
 1651TIP3   OH226443   6.641   3.338  14.786  0.2084  0.5536 -0.1940
 1651TIP3    H126444   6.693   3.335  14.705  0.7555 -1.6089  0.1785
 1651TIP3    H226445   6.705   3.362  14.854  0.1969  0.3284 -0.1032
 1652TIP3   OH226446   5.759   4.342  14.228  0.0913  0.2191  0.0485
 1652TIP3    H126447   5.810   4.422  14.220 -0.8255  0.6743 -1.4068
 1652TIP3    H226448   5.770   4.316  14.320  2.6279  0.4804 -0.1143
 1653TIP3   OH226449   5.340   1.632   2.521 -0.4292 -0.0345 -0.2435
 1653TIP3    H126450   5.311   1.708   2.471 -1.1480 -0.4363 -0.4534
 1653TIP3    H226451   5.311   1.556   2.470 -1.5261 -0.4604  0.9515
 1654TIP3   OH226452   4.752   4.141   6.442  0.1979  0.0169  0.0513
 1654TIP3    H126453   4.770   4.053   6.477 -0.4988 -0.2226 -0.1665
 1654TIP3    H226454   4.768   4.200   6.515  1.3200 -0.2291  0.0150
 1655TIP3   OH226455   0.449   0.338   0.313 -0.0875 -0.4676  0.0913
 1655TIP3    H126456   0.471   0.311   0.402 -0.9987 -0.5785  0.2964
 1655TIP3    H226457   0.360   0.371   0.320  0.0013 -0.0466 -0.6992
 1656TIP3   OH226458   1.739   1.154   3.452 -0.3139 -0.1718 -0.2385
 1656TIP3    H126459   1.680   1.226   3.475 -1.0514 -0.9225  0.2828
 1656TIP3    H226460   1.716   1.084   3.513  0.7407 -0.6793 -0.3972
 1657TIP3   OH226461   1.913   6.470   1.797  0.4851 -0.1907 -0.6661
 1657TIP3    H126462   1.915   6.558   1.835 -0.0769 -0.5874  0.3392
 1657TIP3    H226463   1.844   6.426   1.846 -0.1271 -0.8008 -2.0428
 1658TIP3   OH226464   2.381   5.327   3.438 -0.2203 -0.1114 -0.6325
 1658TIP3    H126465   2.475   5.311   3.427 -0.1756 -0.1353 -0.2332
 1658TIP3    H226466   2.339   5.246   3.408 -0.1051 -0.1633 -0.6550
 1659TIP3   OH226467   3.096   5.764  16.011 -0.0156  0.3842 -0.2812
 1659TIP3    H126468   3.060   5.676  16.027 -0.3149  0.8526  1.9369
 1659TIP3    H226469   3.027   5.823  16.039  1.2755  1.3052  1.1122
 1660TIP3   OH226470   1.729   0.791   0.305 -0.4594  0.3374  0.0038
 1660TIP3    H126471   1.701   0.701   0.286  2.4386 -0.4162 -1.3083
 1660TIP3    H226472   1.672   0.846   0.252 -2.1600 -0.6859  0.6722
 1661TIP3   OH226473   1.870   5.637   4.056 -0.0696 -0.1184 -0.5493
 1661TIP3    H126474   1.875   5.566   3.992 -0.7905  1.0389 -1.9437
 1661TIP3    H226475   1.958   5.643   4.093 -0.3244 -2.6759  0.6905
 1662TIP3   OH226476   6.421   2.021   4.563 -0.4573  0.0266  0.3515
 1662TIP3    H126477   6.469   1.965   4.624  1.4736  1.0301 -0.1831
 1662TIP3    H226478   6.412   1.969   4.483 -0.5951 -0.2932  0.5736
 1663TIP3   OH226479   3.953   2.091  12.842  1.2084 -0.5451  0.3324
 1663TIP3    H126480   3.923   2.074  12.752  1.4325 -1.0623  0.3552
 1663TIP3    H226481   3.895   2.161  12.873 -0.0408 -1.5713  0.4027
 1664TIP3   OH226482   0.471   0.020  16.462 -0.4453 -0.2753 -0.7164
 1664TIP3    H126483   0.467   0.027  16.557 -0.5440 -1.7647 -0.5922
 1664TIP3    H226484   0.561   0.045  16.440  0.0561 -1.4140 -0.0646
 1665TIP3   OH226485   6.588   2.650   3.177 -0.0334  0.1424  0.1740
 1665TIP3    H126486   6.512   2.687   3.220  0.0758 -0.7592  1.1915
 1665TIP3    H226487   6.630   2.596   3.244  0.3638 -1.0074 -0.9463
 1666TIP3   OH226488   0.943   5.974   0.841 -0.0232  0.4812 -0.1108
 1666TIP3    H126489   1.028   5.987   0.883  0.4151  0.9399 -1.1035
 1666TIP3    H226490   0.944   5.881   0.815 -0.2612  0.2173  0.7761
 1667TIP3   OH226491   0.624   4.862   2.887 -0.2073  0.0169  0.2131
 1667TIP3    H126492   0.556   4.795   2.881 -0.3187  0.1850 -0.5129
 1667TIP3    H226493   0.598   4.918   2.959 -0.4729 -0.3210  0.3815
 1668TIP3   OH226494   6.654   2.124  13.438 -0.2268 -0.0927 -0.1622
 1668TIP3    H126495   6.688   2.157  13.522  0.3172  0.1624 -0.4756
 1668TIP3    H226496   6.630   2.203  13.390 -1.4733 -0.2809  0.1311
 1669TIP3   OH226497   3.403   0.316   1.867 -0.3661  0.0090 -0.1800
 1669TIP3    H126498   3.341   0.259   1.821 -0.6150  0.7051 -0.7274
 1669TIP3    H226499   3.352   0.396   1.886  0.6882  1.1394 -1.8269
 1670TIP3   OH226500   4.940   2.050  12.531  0.1273 -0.2347 -0.4147
 1670TIP3    H126501   4.988   2.132  12.547  0.8582 -0.3086 -2.0310
 1670TIP3    H226502   5.008   1.983  12.531 -0.4791 -0.8738  0.9571
 1671TIP3   OH226503   4.802   3.265   1.392 -0.5138 -0.3526 -0.1263
 1671TIP3    H126504   4.725   3.207   1.391 -0.2969 -0.6506 -1.1196
 1671TIP3    H226505   4.765   3.353   1.396 -0.8534 -0.5447  1.2449
 1672TIP3   OH226506   4.358   1.943   3.753  0.4018 -0.0715 -0.0811
 1672TIP3    H126507   4.445   1.931   3.714  0.2645 -0.3718 -0.3041
 1672TIP3    H226508   4.338   1.857   3.792 -0.7694 -0.7412 -2.0314
 1673TIP3   OH226509   4.544   5.498  11.729  0.2980 -0.1428  0.4375
 1673TIP3    H126510   4.600   5.465  11.799  1.9031 -2.1606 -1.6418
 1673TIP3    H226511   4.598   5.563  11.683  0.0605 -0.3839 -0.1954
 1674TIP3   OH226512   5.510   2.375  12.681 -0.0339  0.1585  0.0837
 1674TIP3    H126513   5.438   2.406  12.626 -0.4075 -0.0447  0.4607
 1674TIP3    H226514   5.588   2.417  12.643 -0.3868  0.6255 -0.1327
 1675TIP3   OH226515   0.481   3.053   3.353  0.1366  0.0378 -0.3293
 1675TIP3    H126516   0.531   3.134   3.340 -0.7436  0.4923 -0.9660
 1675TIP3    H226517   0.401   3.066   3.302 -0.4046 -0.8856  0.2622
 1676TIP3   OH226518   0.972   2.863  13.140 -0.2450 -0.0005  0.5149
 1676TIP3    H126519   0.991   2.926  13.210  2.2218  0.6189 -0.6095
 1676TIP3    H226520   0.955   2.918  13.063  1.0562 -0.6703 -0.2755
 1677TIP3   OH226521   6.175   0.660   0.014  0.1582 -0.0924  0.0088
 1677TIP3    H126522   6.086   0.641   0.041 -0.1089  1.5081  0.3759
 1677TIP3    H226523   6.174   0.649  -0.081  0.3573 -2.9155  0.2692
 1678TIP3   OH226524   3.431   4.865   3.115  0.1334 -0.2753 -0.1655
 1678TIP3    H126525   3.459   4.779   3.084  0.0861 -0.6445  0.7652
 1678TIP3    H226526   3.378   4.901   3.045 -1.1641 -1.6801  0.0671
 1679TIP3   OH226527   2.943   1.987  11.967 -0.5495 -0.2841 -0.5148
 1679TIP3    H126528   2.859   1.941  11.975 -0.7307  0.2006  0.5156
 1679TIP3    H226529   2.998   1.947  12.035 -0.9750  1.5250  0.9962
 1680TIP3   OH226530   5.594   4.549  15.447  0.6310  0.4991 -0.3871
 1680TIP3    H126531   5.593   4.644  15.458  0.2213  0.4870 -0.2930
 1680TIP3    H226532   5.567   4.514  15.532 -0.6044  0.3469 -0.8175
 1681TIP3   OH226533   3.186   4.104  14.603 -0.7284 -0.3175  0.3045
 1681TIP3    H126534   3.102   4.130  14.567 -0.6338  1.0352  1.0019
 1681TIP3    H226535   3.247   4.106  14.529 -0.8293  1.0275  0.2351
 1682TIP3   OH226536   3.693   5.553   2.592 -0.4753 -0.0848 -0.1832
 1682TIP3    H126537   3.708   5.629   2.536 -0.9718  1.3695  1.5378
 1682TIP3    H226538   3.742   5.573   2.673 -1.4303 -1.1278  0.6879
 1683TIP3   OH226539   6.307   0.243   2.485  0.0806 -0.4181 -0.1238
 1683TIP3    H126540   6.218   0.212   2.467 -0.1912  0.1970  0.1269
 1683TIP3    H226541   6.303   0.277   2.574  0.0316  1.4785 -0.8048
 1684TIP3   OH226542   0.409   5.345  15.460  0.4391  0.0991 -0.2007
 1684TIP3    H126543   0.321   5.342  15.497 -0.2342 -2.2102 -1.7314
 1684TIP3    H226544   0.407   5.418  15.399 -0.3754  0.1304 -0.1484
 1685TIP3   OH226545   6.020   3.540  15.362  0.2732 -0.2819  0.5526
 1685TIP3    H126546   6.022   3.628  15.325  0.2292 -0.3629  0.3573
 1685TIP3    H226547   6.074   3.487  15.303 -1.1007 -0.7669 -0.3186
 1686TIP3   OH226548   6.089   3.165  12.794  0.2386 -0.2321 -0.3644
 1686TIP3    H126549   6.146   3.133  12.724  0.6549  1.4064 -0.8105
 1686TIP3    H226550   6.084   3.259  12.780 -2.2690 -0.2502 -0.0874
 1687TIP3   OH226551   0.683   4.305   4.996  0.5639  0.0560 -0.1585
 1687TIP3    H126552   0.743   4.367   4.954  0.6724  1.2484  1.6351
 1687TIP3    H226553   0.602   4.311   4.945  0.7864  1.2300 -0.3960
 1688TIP3   OH226554   4.512   5.703   1.311  0.2974  0.1771  0.2587
 1688TIP3    H126555   4.509   5.744   1.225  0.5210 -2.0927 -0.8830
 1688TIP3    H226556   4.589   5.741   1.353  0.0115  1.5359 -0.3932
 1689TIP3   OH226557   2.638   0.861   3.536 -0.0269 -0.0497 -0.1945
 1689TIP3    H126558   2.564   0.920   3.518 -1.2736 -2.1703 -2.6079
 1689TIP3    H226559   2.714   0.919   3.537 -1.4196  1.9057 -0.0764
 1690TIP3   OH226560   1.339   1.399  14.771 -0.1859  0.0530  0.5389
 1690TIP3    H126561   1.429   1.366  14.765  0.8734  2.4350  1.8553
 1690TIP3    H226562   1.298   1.346  14.839  0.4397 -0.5986  0.4253
 1691TIP3   OH226563   3.261   3.812  11.596 -0.0136 -0.2457  0.2412
 1691TIP3    H126564   3.169   3.834  11.611  0.2625  1.5656 -0.4641
 1691TIP3    H226565   3.278   3.839  11.506  1.3909  0.1644  0.5965
 1692TIP3   OH226566   1.640   4.376   5.243 -1.2920  0.4149  0.0305
 1692TIP3    H126567   1.592   4.443   5.193  0.2454  1.5031 -0.0573
 1692TIP3    H226568   1.601   4.379   5.330  0.3431  3.2628  0.7756
 1693TIP3   OH226569   5.637   4.443  12.996 -1.0656 -0.1472  0.0401
 1693TIP3    H126570   5.723   4.460  13.033 -0.8395  2.0994 -1.3399
 1693TIP3    H226571   5.652   4.384  12.923 -0.3017  1.8781 -1.5366
 1694TIP3   OH226572   4.097   2.343  13.562 -0.2697  0.2350 -0.1109
 1694TIP3    H126573   4.153   2.341  13.484  0.4342 -0.9995  0.3834
 1694TIP3    H226574   4.029   2.407  13.541  1.2946  1.7908 -0.7550
 1695TIP3   OH226575   4.313   2.062   1.428 -0.0313  0.7207  0.5197
 1695TIP3    H126576   4.261   1.982   1.421  0.6755  0.2595  0.4096
 1695TIP3    H226577   4.356   2.055   1.513  2.2948 -0.4471 -0.6659
 1696TIP3   OH226578   3.583   3.601   2.890  0.0857 -0.2233 -0.0870
 1696TIP3    H126579   3.676   3.581   2.884  0.1267  0.1647 -0.9069
 1696TIP3    H226580   3.578   3.675   2.951  0.2812 -0.4411  0.1944
 1697TIP3   OH226581   4.598   4.617  12.608  0.4158 -0.0502 -0.3484
 1697TIP3    H126582   4.687   4.649  12.595 -0.0957  1.6833  0.1073
 1697TIP3    H226583   4.557   4.683  12.664 -0.8082 -1.4188  0.4443
 1698TIP3   OH226584   2.492   5.727   1.279 -0.1775  0.3776  0.3657
 1698TIP3    H126585   2.443   5.793   1.229 -0.4297  0.1153  0.2584
 1698TIP3    H226586   2.441   5.647   1.268 -1.1804  0.6748  2.4597
 1699TIP3   OH226587   6.091   0.040  16.547 -0.3215 -0.6616  0.3490
 1699TIP3    H126588   6.070   0.078  16.461  0.8876 -1.0356 -0.1270
 1699TIP3    H226589   6.010  -0.004  16.573 -0.1004 -2.3695 -1.5921
 1700TIP3   OH226590   3.229   0.608   6.255 -0.3415 -0.9590  0.6658
 1700TIP3    H126591   3.229   0.692   6.300 -0.1095  1.4962 -3.4535
 1700TIP3    H226592   3.317   0.601   6.218 -0.9993 -1.9876 -0.7831
 1701TIP3   OH226593   6.362   5.625   1.883  0.4652 -0.2130  0.6861
 1701TIP3    H126594   6.374   5.530   1.881 -2.0174 -0.5798 -1.0966
 1701TIP3    H226595   6.444   5.660   1.848  1.3621 -1.6821  1.2162
 1702TIP3   OH226596   0.426   5.600  10.555 -0.1234  0.4877  0.4133
 1702TIP3    H126597   0.477   5.550  10.491  0.1186  0.2516  0.7899
 1702TIP3    H226598   0.335   5.577  10.537 -0.3018  2.4589 -1.6195
 1703TIP3   OH226599   6.086   6.036  14.372 -0.6567  0.5108 -0.6697
 1703TIP3    H126600   6.122   6.049  14.460  1.5082  0.0149 -1.4216
 1703TIP3    H226601   6.103   6.119  14.327 -0.9383  0.4504 -0.8859
 1704TIP3   OH226602   1.390   3.279   4.339 -0.4272  0.3712  0.1486
 1704TIP3    H126603   1.441   3.204   4.311 -1.1975 -0.7287  1.5413
 1704TIP3    H226604   1.378   3.266   4.433 -1.3917  1.7381  0.2467
 1705TIP3   OH226605   4.925   3.122   4.703 -0.0490  0.9065 -0.9436
 1705TIP3    H126606   4.857   3.059   4.726  1.0167  0.4197  1.1757
 1705TIP3    H226607   4.985   3.073   4.646  0.7143 -0.0411  0.6025
 1706TIP3   OH226608   2.969   5.398   1.387  0.2686  0.2684  1.0432
 1706TIP3    H126609   3.026   5.322   1.381 -2.7586 -2.1101 -0.6344
 1706TIP3    H226610   2.993   5.453   1.312  1.4596  0.1890  1.3597
 1707TIP3   OH226611   6.099   1.440   2.966  0.6417  0.0957 -0.0923
 1707TIP3    H126612   6.056   1.381   2.904 -0.2449  1.6793 -1.0272
 1707TIP3    H226613   6.193   1.421   2.955  0.3807 -1.1158 -0.3679
 1708TIP3   OH226614   5.326   4.062  15.618 -0.1300 -0.3597 -0.6442
 1708TIP3    H126615   5.314   4.152  15.646  2.2082 -0.1805  0.0120
 1708TIP3    H226616   5.303   4.010  15.695 -1.0034 -0.3010 -0.8634
 1709TIP3   OH226617   3.763   2.427   1.756  0.1223 -0.7752 -0.3465
 1709TIP3    H126618   3.673   2.454   1.739 -0.2373 -1.1707  0.9024
 1709TIP3    H226619   3.767   2.337   1.726 -0.0186 -0.8951 -0.0074
 1710TIP3   OH226620   4.261   3.542   1.398  0.0537  0.2020 -0.1622
 1710TIP3    H126621   4.323   3.520   1.467  0.5855 -2.5942 -1.4026
 1710TIP3    H226622   4.184   3.489   1.417 -0.0552 -0.0690 -1.2937
 1711TIP3   OH226623   3.370   3.909   3.735 -0.2116  0.1007  0.5779
 1711TIP3    H126624   3.309   3.906   3.809 -3.0365 -0.2520 -1.5872
 1711TIP3    H226625   3.329   3.855   3.667  3.7437 -2.2413 -0.3112
 1712TIP3   OH226626   0.988   3.541  14.451  0.0814  0.1615  0.2768
 1712TIP3    H126627   0.937   3.495  14.517 -0.8335  0.9477  0.1363
 1712TIP3    H226628   0.939   3.622  14.434  1.6373  1.2030  0.5140
 1713TIP3   OH226629   6.148   0.746   3.517 -0.2876  0.2558 -0.7085
 1713TIP3    H126630   6.118   0.772   3.430 -0.2722  1.7818 -0.2785
 1713TIP3    H226631   6.073   0.762   3.575  0.0852  0.3839 -0.2523
 1714TIP3   OH226632   5.347   3.029  12.057 -0.0608  0.2857  0.3325
 1714TIP3    H126633   5.369   3.039  12.150  0.2742 -1.1170  0.4326
 1714TIP3    H226634   5.420   2.978  12.021  1.1187  2.8913 -1.2996
 1715TIP3   OH226635   0.590   5.773  15.248  0.0375 -0.4636  0.1971
 1715TIP3    H126636   0.682   5.790  15.270 -0.3218  0.7781  0.8167
 1715TIP3    H226637   0.541   5.835  15.301 -1.0376  0.6519 -1.9686
 1716TIP3   OH226638   4.394   2.265  14.734 -0.1965 -0.8990  0.1157
 1716TIP3    H126639   4.410   2.230  14.821 -1.4942 -0.1809  0.6596
 1716TIP3    H226640   4.301   2.252  14.719 -0.2896  0.3499 -0.5414
 1717TIP3   OH226641   4.303   3.132  11.531  0.3375 -0.2227 -0.1605
 1717TIP3    H126642   4.371   3.116  11.597  1.9805  0.4333 -1.5944
 1717TIP3    H226643   4.287   3.047  11.492  1.8415 -0.1028 -1.1380
 1718TIP3   OH226644   0.487   0.909   3.938  0.0337 -0.3324 -0.4350
 1718TIP3    H126645   0.491   0.948   4.026 -0.2667 -2.0935  0.3984
 1718TIP3    H226646   0.574   0.926   3.901  2.4605 -4.5277  2.4991
 1719TIP3   OH226647   4.931   3.001  14.814 -0.3234 -0.4177  0.3184
 1719TIP3    H126648   4.894   2.915  14.794 -0.9810 -0.2406  0.7231
 1719TIP3    H226649   4.871   3.063  14.773  0.4573 -0.1552 -0.4550
 1720TIP3   OH226650   2.009   3.058   1.287  0.2809 -0.1817 -0.6897
 1720TIP3    H126651   1.962   3.123   1.339 -1.3151 -2.1557  0.5137
 1720TIP3    H226652   1.957   3.050   1.207 -0.6200 -1.2329 -0.0362
 1721TIP3   OH226653   2.980   4.963   2.652  0.2284 -0.1693  0.1914
 1721TIP3    H126654   3.074   4.961   2.635  0.2088 -0.3377  0.0989
 1721TIP3    H226655   2.954   5.053   2.630  0.5689  0.2255  1.3385
 1722TIP3   OH226656   3.291   0.541   3.033  0.1396 -0.1563  0.2374
 1722TIP3    H126657   3.373   0.505   2.996 -0.2845 -2.5022  1.3704
 1722TIP3    H226658   3.318   0.622   3.076  1.8332 -0.6952  0.2942
 1723TIP3   OH226659   0.420   2.270  13.224 -0.8145  0.3490 -0.1688
 1723TIP3    H126660   0.399   2.195  13.167  0.1845 -0.7431  0.8259
 1723TIP3    H226661   0.341   2.323  13.225 -2.5532 -2.0485  1.1323
 1724TIP3   OH226662   4.825   2.105  13.177 -0.0252  0.2333  0.1525
 1724TIP3    H126663   4.774   2.116  13.096 -0.5171 -0.2275  0.3912
 1724TIP3    H226664   4.906   2.152  13.161  0.9159 -1.7850 -1.5244
 1725TIP3   OH226665   6.539   5.407  15.441  0.5816  0.1664 -0.8838
 1725TIP3    H126666   6.448   5.432  15.459  0.7544  0.1039  0.1744
 1725TIP3    H226667   6.591   5.472  15.487  1.0416 -1.1881  0.6173
 1726TIP3   OH226668   4.731   1.478   4.472 -0.7562  0.4249 -0.3618
 1726TIP3    H126669   4.781   1.520   4.541 -0.1167 -1.1424  0.1691
 1726TIP3    H226670   4.792   1.415   4.433 -1.8872 -0.5310 -0.6286
 1727TIP3   OH226671   1.477   6.030   3.483 -0.0204  0.3453  0.2315
 1727TIP3    H126672   1.563   6.054   3.518 -0.0685  2.0342 -0.7141
 1727TIP3    H226673   1.423   6.108   3.495 -1.4751 -0.7179  0.8845
 1728TIP3   OH226674   1.035   2.761   4.706  0.2984  0.1505 -0.3008
 1728TIP3    H126675   1.027   2.760   4.611 -0.0178 -0.6265 -0.2690
 1728TIP3    H226676   1.126   2.789   4.721  0.7637 -0.9762 -0.8641
 1729TIP3   OH226677   3.247   0.455  13.568 -0.5497  0.0663  0.6821
 1729TIP3    H126678   3.175   0.392  13.561  1.6408 -2.7248  1.6270
 1729TIP3    H226679   3.265   0.460  13.662  0.1220  1.2432  0.5114
 1730TIP3   OH226680   1.898   4.045   5.537 -0.3443  0.4180  0.1812
 1730TIP3    H126681   1.876   4.083   5.622 -0.2088  1.5531 -0.2681
 1730TIP3    H226682   1.963   4.106   5.500  0.3727 -0.6120 -0.2981
 1731TIP3   OH226683   2.081   4.040   2.891 -0.1894 -0.3348  0.0541
 1731TIP3    H126684   2.011   4.095   2.927  1.6261  0.4950  2.6107
 1731TIP3    H226685   2.087   3.967   2.952  1.3438 -0.2258  0.0645
 1732TIP3   OH226686   4.839   0.240   5.406  0.1943 -0.1390 -0.2983
 1732TIP3    H126687   4.765   0.180   5.416  0.0181  0.3341  1.6030
 1732TIP3    H226688   4.915   0.182   5.398 -0.2177 -0.6207 -0.7947
 1733TIP3   OH226689   1.944   4.605   4.129 -0.4657  0.4551  0.7178
 1733TIP3    H126690   1.964   4.553   4.052  0.5081  1.3854  0.3121
 1733TIP3    H226691   2.023   4.598   4.184 -0.4863  1.1503  0.8449
 1734TIP3   OH226692   4.973   0.241  15.745 -0.1690 -0.5199 -0.4528
 1734TIP3    H126693   5.020   0.165  15.713  2.6158  0.6555  0.5709
 1734TIP3    H226694   5.035   0.313  15.738 -2.5012  1.6045 -0.8811
 1735TIP3   OH226695   5.370   1.587  13.736 -0.0257  0.0734  0.1379
 1735TIP3    H126696   5.330   1.538  13.664  1.0960  0.5434 -0.8228
 1735TIP3    H226697   5.364   1.678  13.711  1.0313  0.1994  0.2840
 1736TIP3   OH226698   2.856   2.265  12.011  0.1905  0.4477  0.1316
 1736TIP3    H126699   2.867   2.170  12.018  2.6893  0.6508  0.0222
 1736TIP3    H226700   2.764   2.277  11.987  0.0585 -2.0013 -0.9477
 1737TIP3   OH226701   2.575   2.214  11.946 -0.5374  0.2681  0.0625
 1737TIP3    H126702   2.546   2.222  12.037 -1.4909 -2.8798  0.1576
 1737TIP3    H226703   2.515   2.269  11.896 -1.4796  0.2204  1.1149
 1738TIP3   OH226704   5.948   5.070   2.598  0.0611  0.1350 -0.1977
 1738TIP3    H126705   5.870   5.015   2.608 -0.5741  0.8300 -1.1206
 1738TIP3    H226706   5.937   5.112   2.513  2.2616 -0.9828 -1.1004
 1739TIP3   OH226707   2.842   2.971   1.949 -0.7140  0.1196 -0.0481
 1739TIP3    H126708   2.799   3.020   1.879  0.9578  0.0588 -1.1755
 1739TIP3    H226709   2.794   2.995   2.028 -1.1839  2.0303 -0.8596
 1740TIP3   OH226710   4.137   2.910  11.420  0.2426  0.1865 -1.0612
 1740TIP3    H126711   4.115   2.826  11.459 -0.0718  0.2854 -1.0233
 1740TIP3    H226712   4.098   2.908  11.333 -0.3646  0.5586 -0.8071
 1741TIP3   OH226713   1.574   2.108   4.451  0.0829  0.0657 -0.0622
 1741TIP3    H126714   1.502   2.168   4.470 -1.3792 -1.4901 -0.4558
 1741TIP3    H226715   1.536   2.042   4.393  1.5573 -1.3422  0.4923
 1742TIP3   OH226716   1.244   1.461  14.407 -0.1240  0.5017  0.2188
 1742TIP3    H126717   1.295   1.514  14.345  0.1722 -0.2339 -0.1718
 1742TIP3    H226718   1.306   1.397  14.441 -0.3387  0.7670  1.1416
 1743TIP3   OH226719   6.759   2.875  13.843 -0.2520  0.1771  0.3196
 1743TIP3    H126720   6.724   2.795  13.881  2.2839 -1.1431  0.1135
 1743TIP3    H226721   6.851   2.878  13.871  0.3509  1.8142 -1.5201
 1744TIP3   OH226722   3.181   4.543  14.319 -0.4715  0.3572  0.1441
 1744TIP3    H126723   3.253   4.486  14.293 -0.6506  0.7382 -1.2548
 1744TIP3    H226724   3.192   4.554  14.413  0.2679 -0.9974  0.2380
 1745TIP3   OH226725   0.673   2.805  11.604  0.2060 -0.0878 -0.6336
 1745TIP3    H126726   0.637   2.717  11.594  3.2863 -1.3197 -1.7554
 1745TIP3    H226727   0.637   2.835  11.688 -3.2184 -1.1452 -1.5303
 1746TIP3   OH226728   1.960   1.219  13.501 -0.8444 -0.1662 -0.1799
 1746TIP3    H126729   2.032   1.180  13.551 -2.3454 -0.2444  2.0319
 1746TIP3    H226730   1.950   1.161  13.425 -0.7163 -2.0647  1.1882
 1747TIP3   OH226731   6.327   0.813  14.050  0.2566 -0.2178 -0.7485
 1747TIP3    H126732   6.372   0.760  13.984 -0.6248 -1.1091 -0.6736
 1747TIP3    H226733   6.396   0.858  14.096  0.9545 -0.2905 -1.6891
 1748TIP3   OH226734   3.102   2.256   4.254 -0.2216  0.4264 -0.0772
 1748TIP3    H126735   3.017   2.291   4.279  0.0326  0.1321  1.2759
 1748TIP3    H226736   3.092   2.229   4.163 -1.8637 -0.5150  0.3548
 1749TIP3   OH226737   3.731   0.354   0.443  0.0273 -0.1538  0.3388
 1749TIP3    H126738   3.695   0.313   0.364 -1.2063  0.7728  0.3903
 1749TIP3    H226739   3.710   0.447   0.434 -0.6095 -0.0997  2.0015
 1750TIP3   OH226740   3.997   5.105  11.858 -0.1248 -0.2656  0.3435
 1750TIP3    H126741   3.982   5.130  11.767 -0.6281  1.7436  0.9279
 1750TIP3    H226742   4.092   5.096  11.865 -0.1242 -1.0965 -0.5093
 1751TIP3   OH226743   4.713   3.184   5.673 -0.0838  0.0106  0.8946
 1751TIP3    H126744   4.648   3.243   5.635  0.7163  0.1096 -0.3900
 1751TIP3    H226745   4.700   3.101   5.628  1.1376  0.2362  0.0864
 1752TIP3   OH226746   0.229   1.122  11.435  0.1774  0.1841  0.0433
 1752TIP3    H126747   0.220   1.075  11.353 -0.8073  2.8781 -1.5252
 1752TIP3    H226748   0.323   1.117  11.455  0.4113 -0.6663 -1.1256
 1753TIP3   OH226749   1.152   6.415   3.413  0.4365  0.1821  0.3515
 1753TIP3    H126750   1.194   6.444   3.332 -0.2246  1.5464  0.4611
 1753TIP3    H226751   1.082   6.479   3.427 -1.7641 -2.0494  0.1344
 1754TIP3   OH226752   4.384   6.404   0.587  0.0519  0.3121 -0.7497
 1754TIP3    H126753   4.332   6.447   0.519 -0.9541 -1.2916 -1.0559
 1754TIP3    H226754   4.463   6.375   0.543 -0.6394 -0.8079 -1.2858
 1755TIP3   OH226755   4.986   4.131   5.386 -0.0548  0.3240  0.3688
 1755TIP3    H126756   5.038   4.120   5.465  0.0265 -0.9261  0.1535
 1755TIP3    H226757   5.045   4.109   5.315 -0.3945  0.5494  0.0120
 1756TIP3   OH226758   6.426   5.253  10.393 -0.1197 -0.2730  0.0642
 1756TIP3    H126759   6.500   5.241  10.454 -0.6493 -1.2040  0.5477
 1756TIP3    H226760   6.398   5.343  10.407  0.4703 -0.1317  0.3954
 1757TIP3   OH226761   3.209   3.286  15.829 -0.8705  0.0560 -0.0193
 1757TIP3    H126762   3.235   3.359  15.773 -0.9052  1.2434  1.4405
 1757TIP3    H226763   3.187   3.327  15.913 -1.1590 -1.6132  0.7640
 1758TIP3   OH226764   3.846   6.365  12.207 -0.4614 -0.8723 -0.3291
 1758TIP3    H126765   3.834   6.298  12.140  2.1420 -0.8460 -0.9147
 1758TIP3    H226766   3.806   6.444  12.170 -0.6994 -1.3074 -1.0240
 1759TIP3   OH226767   0.433   3.001   0.703  0.1925  0.4074 -0.2393
 1759TIP3    H126768   0.448   3.094   0.720  1.2679  0.0246  1.1033
 1759TIP3    H226769   0.438   2.960   0.789 -0.3703 -0.8959 -0.8006
 1760TIP3   OH226770   5.684   6.747   0.395  0.1540 -0.7123 -0.9560
 1760TIP3    H126771   5.627   6.790   0.459  1.9983  1.6968 -0.8107
 1760TIP3    H226772   5.710   6.665   0.437 -0.5231 -0.2743  0.3723
 1761TIP3   OH226773   0.587   5.126  14.726 -0.2422  0.2713  0.0451
 1761TIP3    H126774   0.652   5.148  14.659  0.1437  1.3489  0.7630
 1761TIP3    H226775   0.514   5.185  14.710  0.0271  0.8305  0.8299
 1762TIP3   OH226776   4.426   1.353  12.817  0.1762 -0.3061 -0.3787
 1762TIP3    H126777   4.434   1.267  12.775 -3.0770 -0.1674 -1.5307
 1762TIP3    H226778   4.340   1.385  12.790 -0.0979  1.9240  2.6518
 1763TIP3   OH226779   2.398   6.483   6.455  0.4990 -0.1141 -0.3223
 1763TIP3    H126780   2.448   6.556   6.492  0.6154 -0.4031  0.1030
 1763TIP3    H226781   2.461   6.437   6.399  0.8517 -0.7293  0.5488
 1764TIP3   OH226782   1.451   5.943  16.448  0.2214 -0.0532 -0.1024
 1764TIP3    H126783   1.393   5.960  16.373 -0.9773 -0.9667  0.6003
 1764TIP3    H226784   1.532   5.911  16.408 -1.0015 -2.2251 -0.9800
 1765TIP3   OH226785   4.134   1.974   5.925 -0.0551 -0.2610 -0.0125
 1765TIP3    H126786   4.078   2.043   5.888  0.5416  0.0513 -0.3543
 1765TIP3    H226787   4.220   2.016   5.935  0.0120 -0.6055  0.9055
 1766TIP3   OH226788   5.606   3.971   5.364  0.3145 -0.2326 -0.1063
 1766TIP3    H126789   5.630   3.909   5.295 -0.8348 -0.3705 -0.4047
 1766TIP3    H226790   5.607   3.919   5.444  1.8453 -0.0296  0.0434
 1767TIP3   OH226791   4.366   3.257  13.786  0.3786  0.0153 -0.0330
 1767TIP3    H126792   4.320   3.206  13.852 -0.1134 -0.4433 -0.7111
 1767TIP3    H226793   4.404   3.331  13.834  0.6009 -0.6663  0.8581
 1768TIP3   OH226794   4.088   3.127   6.734 -0.8873 -0.2023 -0.4270
 1768TIP3    H126795   4.127   3.063   6.675  0.2199 -0.6350  0.7362
 1768TIP3    H226796   3.999   3.095   6.748 -0.5469 -1.1572 -0.3543
 1769TIP3   OH226797   5.339   0.981  13.501 -0.0189  0.0738  0.0956
 1769TIP3    H126798   5.424   0.990  13.545 -0.1600 -0.5415  0.5014
 1769TIP3    H226799   5.275   1.010  13.565 -0.0295  2.4962 -0.8682
 1770TIP3   OH226800   5.906   4.323   5.081  0.2035  0.1274 -0.2930
 1770TIP3    H126801   5.984   4.301   5.132  1.7839 -0.3609 -2.7082
 1770TIP3    H226802   5.925   4.411   5.047 -1.1300  0.7390  0.4876
 1771TIP3   OH226803   1.555   3.482  16.711  0.1085  0.6744  0.0487
 1771TIP3    H126804   1.466   3.486  16.746  0.2007  0.1871  0.3567
 1771TIP3    H226805   1.555   3.543  16.638 -0.8783 -0.3466 -0.8474
 1772TIP3   OH226806   3.133   6.598  16.424  0.6334  0.2776 -0.4842
 1772TIP3    H126807   3.204   6.556  16.375  1.6881 -0.7244  1.7263
 1772TIP3    H226808   3.098   6.528  16.480 -2.3403  0.6768 -1.6720
 1773TIP3   OH226809   4.745   0.689   4.922 -0.3014  0.4235  0.8190
 1773TIP3    H126810   4.813   0.750   4.892  0.2029  0.6633  2.3786
 1773TIP3    H226811   4.711   0.728   5.002 -2.1863  0.2128  0.1756
 1774TIP3   OH226812   0.122   3.597  12.842  0.1004 -0.1715  0.0650
 1774TIP3    H126813   0.030   3.574  12.852  0.2587 -0.5205  0.8886
 1774TIP3    H226814   0.155   3.601  12.932  1.3416 -2.0153 -0.2386
 1775TIP3   OH226815   1.775   6.788  12.255  0.4383  0.5784 -0.2427
 1775TIP3    H126816   1.848   6.841  12.287 -0.6668  2.5679 -0.8498
 1775TIP3    H226817   1.699   6.846  12.261 -0.5550 -0.3769 -2.4928
 1776TIP3   OH226818   2.633   2.005   0.536  0.2399  0.1448  0.4573
 1776TIP3    H126819   2.553   2.049   0.565  1.9938  2.7568  1.7269
 1776TIP3    H226820   2.675   1.977   0.617  1.5376  0.5794 -0.0467
 1777TIP3   OH226821   4.120   6.128  13.021 -0.1649 -0.3152  0.1474
 1777TIP3    H126822   4.075   6.184  13.085 -0.9383 -2.3505  1.4718
 1777TIP3    H226823   4.073   6.144  12.939  1.1651  2.7220 -0.1652
 1778TIP3   OH226824   1.294   2.551   0.150  0.6395 -0.2655 -0.0061
 1778TIP3    H126825   1.337   2.627   0.112 -0.2750  0.3362  0.1259
 1778TIP3    H226826   1.220   2.533   0.092  0.3744 -0.5483  0.4123
 1779TIP3   OH226827   3.295   2.603  15.086  0.0067 -0.4280 -0.2133
 1779TIP3    H126828   3.200   2.590  15.091 -0.1070  0.7355  2.4610
 1779TIP3    H226829   3.326   2.533  15.029 -2.4056 -0.9692 -0.9930
 1780TIP3   OH226830   4.164   2.126  12.103 -0.3168  0.2456  0.6597
 1780TIP3    H126831   4.236   2.189  12.096 -0.4908  0.3628 -0.2444
 1780TIP3    H226832   4.191   2.067  12.174  0.1909  0.8931  1.0156
 1781TIP3   OH226833   4.825   3.597   3.521  0.5511  0.1019  0.5380
 1781TIP3    H126834   4.733   3.622   3.513  0.3118 -0.9384 -0.1122
 1781TIP3    H226835   4.871   3.650   3.456  0.9835  3.1316  3.0726
 1782TIP3   OH226836   5.069   2.946  13.604 -0.1665  0.3917  0.0534
 1782TIP3    H126837   5.032   2.857  13.603 -1.2259  0.8144 -0.7815
 1782TIP3    H226838   5.162   2.934  13.586 -0.3278 -0.5512 -0.2059
 1783TIP3   OH226839   6.242   4.017   3.155 -0.5357  0.6603 -0.4309
 1783TIP3    H126840   6.155   4.037   3.122 -0.3844 -1.0253 -2.0297
 1783TIP3    H226841   6.274   3.947   3.098  1.3570  0.3401  0.9103
 1784TIP3   OH226842   2.678   3.805   0.026 -0.6372 -0.3095 -0.1054
 1784TIP3    H126843   2.601   3.853  -0.002 -0.0182  0.5591 -0.3512
 1784TIP3    H226844   2.678   3.726  -0.029 -0.9189  0.0640 -0.6537
 1785TIP3   OH226845   6.204   4.461  13.123 -0.2432  0.3868 -0.0087
 1785TIP3    H126846   6.172   4.405  13.052  0.2716  2.1831 -1.7479
 1785TIP3    H226847   6.126   4.503  13.157 -0.4447 -0.1569  0.2155
 1786TIP3   OH226848   3.156   2.789   0.118 -0.2594  0.4256 -0.9439
 1786TIP3    H126849   3.112   2.769   0.036 -1.2150  0.4859 -0.4571
 1786TIP3    H226850   3.147   2.710   0.171  1.2634  0.0046 -1.2589
 1787TIP3   OH226851   4.602   5.053   2.670  0.5928 -0.3057 -0.0632
 1787TIP3    H126852   4.598   5.120   2.739 -0.0090 -1.4452  1.0562
 1787TIP3    H226853   4.551   5.089   2.598 -1.9823 -0.5632  1.4822
 1788TIP3   OH226854   1.388   3.769   1.545 -0.6530  0.4564 -0.5406
 1788TIP3    H126855   1.321   3.707   1.574  1.4864 -2.1260 -0.7740
 1788TIP3    H226856   1.386   3.839   1.611 -0.2281 -2.0409  2.3151
 1789TIP3   OH226857   3.598   4.474   3.544 -0.0919 -0.0509 -0.4494
 1789TIP3    H126858   3.580   4.454   3.452 -0.1400 -0.4218 -0.3603
 1789TIP3    H226859   3.611   4.388   3.586 -2.1364 -0.0352  0.3191
 1790TIP3   OH226860   5.161   4.126   5.175  1.0517 -0.1272 -0.2722
 1790TIP3    H126861   5.130   4.194   5.115  0.5674 -1.8384 -2.0536
 1790TIP3    H226862   5.246   4.100   5.139  1.0515 -0.7439  0.1618
 1791TIP3   OH226863   3.917   5.889  13.225 -0.1181  0.5221  0.2936
 1791TIP3    H126864   3.893   5.899  13.133  0.6151  1.2359  0.1725
 1791TIP3    H226865   3.877   5.964  13.269  1.4485  1.4780  0.1625
 1792TIP3   OH226866   2.548   4.973  13.143 -0.2520  0.0259 -0.2746
 1792TIP3    H126867   2.576   5.028  13.070 -0.3628 -1.6520 -1.6536
 1792TIP3    H226868   2.458   5.002  13.161  0.2375  1.3529  0.1158
 1793TIP3   OH226869   3.920   1.422   4.921  0.8014 -0.5107 -0.0865
 1793TIP3    H126870   3.983   1.495   4.925  1.3754 -0.9705 -0.5103
 1793TIP3    H226871   3.847   1.457   4.869  0.3894  0.2472  0.9613
 1794TIP3   OH226872   1.686   0.829   4.806 -0.3549  0.8876 -0.4255
 1794TIP3    H126873   1.668   0.907   4.752  0.0362  1.7560  0.6701
 1794TIP3    H226874   1.781   0.825   4.812 -0.3534  0.0931 -0.7612
 1795TIP3   OH226875   6.413   4.033  12.799 -0.6548  0.9628  0.0681
 1795TIP3    H126876   6.448   4.001  12.716 -1.5365  1.4207 -0.5036
 1795TIP3    H226877   6.407   4.128  12.787 -0.6961  1.0423  0.6923
 1796TIP3   OH226878   5.386   0.397   3.117 -0.5787  0.4361 -0.2897
 1796TIP3    H126879   5.359   0.375   3.028 -2.4713  1.6074 -0.0719
 1796TIP3    H226880   5.328   0.345   3.173  0.4406 -0.1217  0.2648
 1797TIP3   OH226881   2.889   1.833  16.876 -0.8834 -0.2056  0.0776
 1797TIP3    H126882   2.958   1.897  16.890  0.5855 -1.2517 -1.8754
 1797TIP3    H226883   2.935   1.751  16.856 -2.6756 -1.0998 -0.6739
 1798TIP3   OH226884   1.173   0.098   4.986  0.1571  0.6405  0.4598
 1798TIP3    H126885   1.116   0.163   5.027 -1.3424 -1.2092  1.4257
 1798TIP3    H226886   1.120   0.058   4.918  0.2024 -1.1719  1.4300
 1799TIP3   OH226887   3.800   2.129   0.424 -0.2589  0.1671 -0.4099
 1799TIP3    H126888   3.838   2.212   0.396 -1.6818  0.6696 -0.9387
 1799TIP3    H226889   3.742   2.103   0.352  1.5113 -2.2626 -1.1200
 1800TIP3   OH226890   1.499   4.716   2.801  0.3616 -0.6562  0.3682
 1800TIP3    H126891   1.580   4.748   2.762 -0.4054  1.7126  0.5364
 1800TIP3    H226892   1.442   4.697   2.726  0.7635 -1.5287  0.2707
 1801TIP3   OH226893   1.431   4.780   4.565  0.2072 -0.1838  1.2015
 1801TIP3    H126894   1.339   4.755   4.574 -0.3020  0.7853 -0.7720
 1801TIP3    H226895   1.433   4.872   4.593 -0.0550  0.6894 -1.3936
 1802TIP3   OH226896   3.559   4.123   5.938 -0.4757 -0.3807 -0.6422
 1802TIP3    H126897   3.539   4.210   5.973  1.1755 -0.4953  0.6865
 1802TIP3    H226898   3.501   4.064   5.987 -0.0330 -0.2582  0.0312
 1803TIP3   OH226899   0.605   5.204  13.245  0.1310  0.5646 -0.1281
 1803TIP3    H126900   0.673   5.260  13.284 -0.9406  1.7050  0.1860
 1803TIP3    H226901   0.529   5.262  13.236 -1.5412 -1.1996  1.6499
 1804TIP3   OH226902   2.593   5.727  11.517 -0.6738 -0.5003 -0.0533
 1804TIP3    H126903   2.524   5.735  11.582 -0.6098  0.7066 -0.1257
 1804TIP3    H226904   2.556   5.763  11.436  0.3171  1.0492  0.1394
 1805TIP3   OH226905   3.334   4.178   1.884  0.3393 -0.0199  0.0748
 1805TIP3    H126906   3.261   4.205   1.941  0.8303 -1.4665  1.4728
 1805TIP3    H226907   3.332   4.240   1.811 -2.2321  0.0389  0.1041
 1806TIP3   OH226908   5.407   3.236  13.384 -0.1789  0.0733  0.0790
 1806TIP3    H126909   5.366   3.306  13.333 -1.3357 -0.7965 -0.2378
 1806TIP3    H226910   5.418   3.274  13.471  1.3916  1.4212 -0.6431
 1807TIP3   OH226911   4.118   0.172  14.734 -0.1968 -0.1175 -0.4168
 1807TIP3    H126912   4.060   0.110  14.778 -0.4135 -0.5740 -1.3418
 1807TIP3    H226913   4.186   0.118  14.694 -0.2247  0.2609 -0.9896
 1808TIP3   OH226914   2.939   2.277   2.830 -0.3690  0.5631  0.1548
 1808TIP3    H126915   2.919   2.232   2.912 -0.6260  0.7555  0.2008
 1808TIP3    H226916   3.021   2.238   2.800 -1.5969 -1.4062 -0.8515
 1809TIP3   OH226917   0.614   3.168   5.320 -0.4706 -0.6162 -0.4115
 1809TIP3    H126918   0.586   3.245   5.271  1.1100  0.8194  0.8213
 1809TIP3    H226919   0.658   3.113   5.255 -0.3480  0.2064 -1.0428
 1810TIP3   OH226920   6.057   2.747   3.983 -0.1668 -0.3476  0.2750
 1810TIP3    H126921   6.076   2.812   3.915  1.3329 -1.4223 -0.3691
 1810TIP3    H226922   6.092   2.665   3.949 -2.1530 -1.5724  0.9978
 1811TIP3   OH226923   0.450   5.533  15.250 -0.3772  0.1016  0.0691
 1811TIP3    H126924   0.504   5.609  15.231  2.6527 -0.8527  3.8141
 1811TIP3    H226925   0.475   5.469  15.183  1.1609  0.5957  0.1285
 1812TIP3   OH226926   5.302   4.541  15.355 -0.4614  0.1956 -0.1928
 1812TIP3    H126927   5.256   4.625  15.354 -2.7625 -1.0005 -0.7956
 1812TIP3    H226928   5.242   4.481  15.398  0.4881 -1.4768 -1.0924
 1813TIP3   OH226929   4.396   1.161   4.448  0.0551 -0.3161 -0.0575
 1813TIP3    H126930   4.382   1.092   4.383  0.4257  0.5025 -1.0453
 1813TIP3    H226931   4.348   1.236   4.412  0.6679  0.2870  0.3724
 1814TIP3   OH226932   5.069   1.491   5.538  0.5476  0.1801  0.2420
 1814TIP3    H126933   5.114   1.422   5.490  0.2703  0.5184 -0.5157
 1814TIP3    H226934   4.991   1.449   5.573  0.4483  0.0715 -0.1048
 1815TIP3   OH226935   5.576   0.720  16.418  0.1625 -0.1395  0.1156
 1815TIP3    H126936   5.603   0.736  16.508  1.1420  2.7887 -0.5851
 1815TIP3    H226937   5.646   0.665  16.382 -0.1779 -1.2305  1.0445
 1816TIP3   OH226938   2.678   3.880  11.653 -0.1194 -0.5739 -0.3512
 1816TIP3    H126939   2.685   3.790  11.623  1.7654  0.1835 -2.4969
 1816TIP3    H226940   2.622   3.924  11.589  2.8140  0.7434 -2.2645
 1817TIP3   OH226941   1.821   3.396   1.856 -0.3765 -0.1828 -0.1901
 1817TIP3    H126942   1.745   3.426   1.907 -1.0935 -0.1597 -1.2229
 1817TIP3    H226943   1.860   3.327   1.909 -1.3315 -0.4310  0.2123
 1818TIP3   OH226944   3.610   2.985  13.480 -0.5422  0.0561 -0.0191
 1818TIP3    H126945   3.590   2.928  13.554  0.5923 -2.1610 -1.3190
 1818TIP3    H226946   3.536   2.973  13.420  0.6568 -1.8340 -1.2349
 1819TIP3   OH226947   2.199   5.928   2.348  0.8270 -0.4467 -0.5603
 1819TIP3    H126948   2.205   5.840   2.311 -0.2749  0.4164 -3.0011
 1819TIP3    H226949   2.111   5.934   2.385  1.3185 -0.7349  0.6875
 1820TIP3   OH226950   5.320   2.357  14.640 -0.0256  0.6089 -0.0144
 1820TIP3    H126951   5.261   2.368  14.714 -0.8031 -1.2024 -0.3096
 1820TIP3    H226952   5.391   2.302  14.674 -0.7101 -0.7723 -0.7237
 1821TIP3   OH226953   2.227   5.041   4.925 -0.3234 -0.3698  0.1634
 1821TIP3    H126954   2.148   5.027   4.977  0.0264  3.1624  1.9536
 1821TIP3    H226955   2.297   5.047   4.990  0.8098  0.1960 -1.0661
 1822TIP3   OH226956   2.495   5.781   2.269 -0.0497  0.2337  0.0019
 1822TIP3    H126957   2.428   5.811   2.331 -0.5250  0.3145 -0.5398
 1822TIP3    H226958   2.564   5.848   2.275  0.5776 -0.5029  1.4789
 1823TIP3   OH226959   2.708   3.048   0.485 -0.6168 -0.8575  0.7531
 1823TIP3    H126960   2.646   3.116   0.457  0.6703 -0.5100 -1.5019
 1823TIP3    H226961   2.686   2.972   0.431  0.4916 -0.9202  0.3599
 1824TIP3   OH226962   3.474   3.138  16.801  0.1440  0.7686  0.3630
 1824TIP3    H126963   3.564   3.109  16.782 -0.9141 -1.7555 -1.3296
 1824TIP3    H226964   3.455   3.100  16.887  0.4794  0.7581  0.4362
 1825TIP3   OH226965   4.997   2.320  14.148 -0.1131  0.6419  0.5158
 1825TIP3    H126966   4.954   2.402  14.172 -0.2555  1.0895 -1.1386
 1825TIP3    H226967   5.069   2.347  14.091 -0.2880 -0.3954 -0.2243
 1826TIP3   OH226968   5.013   1.798  11.412  0.2327 -0.0513  0.5876
 1826TIP3    H126969   4.991   1.728  11.351  1.7022  0.0489 -0.0952
 1826TIP3    H226970   5.008   1.878  11.361 -1.6062  0.4087  1.4103
 1827TIP3   OH226971   4.584   3.288   3.941 -0.1172  0.1301 -0.0230
 1827TIP3    H126972   4.642   3.275   4.016 -2.5372 -0.7555  1.8535
 1827TIP3    H226973   4.624   3.359   3.891  3.1389 -1.2176  0.4522
 1828TIP3   OH226974   1.021   0.609  13.635 -0.0863 -0.7617  0.3869
 1828TIP3    H126975   0.994   0.518  13.639 -0.2221 -0.6873  2.5705
 1828TIP3    H226976   1.107   0.608  13.593 -0.1920 -1.8536  0.1875
 1829TIP3   OH226977   6.177   4.361   3.123  0.1475 -0.7844 -0.1752
 1829TIP3    H126978   6.210   4.439   3.078  0.7211 -0.3607  0.9431
 1829TIP3    H226979   6.083   4.360   3.104  0.2172 -0.1017 -0.6034
 1830TIP3   OH226980   5.455   0.731   4.759 -0.8841  0.4853 -0.1466
 1830TIP3    H126981   5.435   0.646   4.721 -0.3060 -0.6597  1.9593
 1830TIP3    H226982   5.520   0.713   4.826 -0.9990  2.5502  0.6041
 1831TIP3   OH226983   5.525   2.391   3.006  0.5563 -0.1035  0.2897
 1831TIP3    H126984   5.561   2.465   3.054  0.9178  0.3948 -0.7229
 1831TIP3    H226985   5.583   2.317   3.027  0.6221  0.0668  0.7190
 1832TIP3   OH226986   1.162   5.521   0.534  0.1751 -0.2938  0.5641
 1832TIP3    H126987   1.093   5.585   0.517  1.2263  0.8778  0.5412
 1832TIP3    H226988   1.118   5.436   0.529 -1.1415  0.3933  0.0124
 1833TIP3   OH226989   1.614   5.348  16.499  0.0703 -1.4022  0.2189
 1833TIP3    H126990   1.676   5.415  16.471 -1.2088  0.2603  1.1870
 1833TIP3    H226991   1.640   5.327  16.588  0.0951 -1.7470  0.1301
 1834TIP3   OH226992   0.030   5.968  17.037 -0.8691  0.7924 -0.2322
 1834TIP3    H126993  -0.062   5.981  17.013 -1.4588 -0.8268  1.0224
 1834TIP3    H226994   0.078   5.989  16.957 -2.3806  0.7845 -1.1849
 1835TIP3   OH226995   1.771   5.658  12.740  0.4250 -0.9761  0.2511
 1835TIP3    H126996   1.866   5.656  12.728  0.6248  0.1978  1.3030
 1835TIP3    H226997   1.758   5.725  12.808 -1.2811  0.2512 -1.1858
 1836TIP3   OH226998   5.283   0.869   4.614  0.3137 -0.2725 -0.0996
 1836TIP3    H126999   5.349   0.826   4.669 -0.1123 -0.3456  0.3702
 1836TIP3    H227000   5.276   0.958   4.650 -1.0916 -0.7891  1.0061
 1837TIP3   OH227001   3.421   2.259  11.441 -0.2423 -0.1084  0.0522
 1837TIP3    H127002   3.402   2.186  11.383  0.0300 -0.8957  0.9407
 1837TIP3    H227003   3.403   2.226  11.529  1.5878  0.3179  0.6167
 1838TIP3   OH227004   6.303   6.749  12.497  0.0505  0.8221 -0.7211
 1838TIP3    H127005   6.383   6.698  12.512  0.7523  1.5037 -1.9369
 1838TIP3    H227006   6.242   6.687  12.458  0.2655  0.4781 -0.5149
 1839TIP3   OH227007   5.894   4.406  11.900 -0.8932 -0.0301 -0.1986
 1839TIP3    H127008   5.870   4.367  11.984 -0.7918 -0.1317 -0.2158
 1839TIP3    H227009   5.816   4.395  11.845 -0.9022 -0.1117 -0.1694
 1840TIP3   OH227010   3.328   5.908   0.004 -0.0682 -0.3488  0.0114
 1840TIP3    H127011   3.258   5.947   0.056 -1.4697 -2.1570 -0.4039
 1840TIP3    H227012   3.402   5.969   0.013 -2.2455  2.7329 -1.1341
 1841TIP3   OH227013   6.586   0.714   2.435 -0.1781  0.5537 -0.7580
 1841TIP3    H127014   6.530   0.640   2.458 -0.0897  0.4241 -0.9586
 1841TIP3    H227015   6.550   0.788   2.484 -0.8513  0.5934 -1.3080
 1842TIP3   OH227016   2.279   5.980   4.158  0.2705 -0.4699 -0.3470
 1842TIP3    H127017   2.371   6.006   4.149  0.7352 -2.1538 -1.0342
 1842TIP3    H227018   2.273   5.945   4.247  0.6464 -1.4832 -0.6974
 1843TIP3   OH227019   4.972   3.209   0.251  0.0253 -0.0658 -0.1365
 1843TIP3    H127020   5.044   3.215   0.314  0.2077  1.0757 -0.4345
 1843TIP3    H227021   4.893   3.220   0.304  0.1951  1.3564 -0.1314
 1844TIP3   OH227022   5.170   3.120  14.884  0.0469  0.9482 -0.1300
 1844TIP3    H127023   5.092   3.068  14.864 -0.2406  0.4004  2.1256
 1844TIP3    H227024   5.140   3.210  14.884 -0.2234  0.8603 -0.8076
 1845TIP3   OH227025   5.749   5.761   0.934 -0.1447 -0.4863  0.4479
 1845TIP3    H127026   5.718   5.762   1.024  0.0277  0.6700  0.5039
 1845TIP3    H227027   5.748   5.668   0.909 -2.3853 -0.6183  0.8614
 1846TIP3   OH227028   5.699   1.459  14.416  0.3064 -0.2691  0.2738
 1846TIP3    H127029   5.699   1.441  14.510 -0.1386  0.2670  0.3813
 1846TIP3    H227030   5.787   1.490  14.397  0.5332 -0.8134  0.4271
 1847TIP3   OH227031   5.777   3.796  12.959  0.6850  0.1470 -0.0985
 1847TIP3    H127032   5.756   3.889  12.947 -2.9465 -0.3745  0.8320
 1847TIP3    H227033   5.754   3.755  12.876 -0.4359 -0.2311  0.3786
 1848TIP3   OH227034   0.804   3.445   4.976 -0.0991  0.8367  0.6508
 1848TIP3    H127035   0.738   3.471   4.912 -1.0118  0.4621  1.4213
 1848TIP3    H227036   0.777   3.488   5.057 -0.0327 -0.2313  1.2495
 1849TIP3   OH227037   3.903   5.511   4.510 -0.3320 -0.2382  0.2805
 1849TIP3    H127038   3.936   5.483   4.595 -0.4015  0.6998  0.6272
 1849TIP3    H227039   3.948   5.454   4.447  1.1688  0.3052  0.8066
 1850TIP3   OH227040   0.454   2.726   3.125  0.2534 -0.2486 -0.4652
 1850TIP3    H127041   0.457   2.724   3.030  1.0056  2.5941 -0.6206
 1850TIP3    H227042   0.517   2.660   3.153  3.5644  1.9279 -2.1461
 1851TIP3   OH227043   1.207   5.314   6.086 -0.4408  0.2090  0.3127
 1851TIP3    H127044   1.212   5.308   6.181  2.0803  0.7376  0.2980
 1851TIP3    H227045   1.168   5.400   6.070 -0.0807  0.4973  0.9083
 1852TIP3   OH227046   3.934   6.044  16.120  0.0059 -0.2932  0.1292
 1852TIP3    H127047   3.985   6.023  16.199 -1.5232 -0.8471  1.0117
 1852TIP3    H227048   3.864   5.978  16.119 -0.4174  0.1562 -1.3067
 1853TIP3   OH227049   2.537   3.836  14.734 -0.1864 -0.1945  0.6867
 1853TIP3    H127050   2.486   3.889  14.795 -2.3011  1.0521 -1.9841
 1853TIP3    H227051   2.618   3.885  14.722 -0.0648 -0.0771  1.8812
 1854TIP3   OH227052   2.132   1.834   1.171  0.1047 -0.4485  1.0739
 1854TIP3    H127053   2.207   1.869   1.220 -0.4751  0.9710  1.0121
 1854TIP3    H227054   2.131   1.741   1.192  1.0476 -0.2360  2.1861
 1855TIP3   OH227055   0.882   3.431  12.591 -0.0928 -0.5695 -0.1732
 1855TIP3    H127056   0.971   3.449  12.561 -0.0964  0.5120  0.4253
 1855TIP3    H227057   0.893   3.380  12.671 -0.0169 -0.8244 -0.3468
 1856TIP3   OH227058   1.444   1.789   5.656 -0.0541 -0.1288 -0.0578
 1856TIP3    H127059   1.480   1.872   5.686  0.0259 -0.7184  1.6248
 1856TIP3    H227060   1.409   1.748   5.736 -2.4706 -0.5573 -1.2434
 1857TIP3   OH227061   0.127   4.149  12.602  0.0169  0.2030  0.1676
 1857TIP3    H127062   0.121   4.060  12.637 -2.3836  0.3623  0.2970
 1857TIP3    H227063   0.122   4.205  12.679 -2.0486  0.4780 -0.1100
 1858TIP3   OH227064   5.053   1.171  16.474  0.5208 -0.0484  0.1497
 1858TIP3    H127065   4.971   1.219  16.467  0.4697  0.0043  1.0268
 1858TIP3    H227066   5.028   1.079  16.472  0.5010 -0.0324 -0.2679
 1859TIP3   OH227067   6.723   0.732   1.836 -0.5033  0.1665 -0.5259
 1859TIP3    H127068   6.693   0.644   1.813  1.4519 -0.6380 -0.1688
 1859TIP3    H227069   6.700   0.741   1.929 -2.7091  0.9646 -1.0785
 1860TIP3   OH227070   2.073   1.169  11.663  0.1363 -0.2503 -0.2481
 1860TIP3    H127071   1.985   1.192  11.695  0.7739  2.0475  0.0427
 1860TIP3    H227072   2.078   1.074  11.674 -2.4928 -0.5425 -0.7456
 1861TIP3   OH227073   0.350   1.206   2.136 -0.2683 -0.1590  0.0307
 1861TIP3    H127074   0.352   1.283   2.194 -3.4161  0.5548 -0.5905
 1861TIP3    H227075   0.399   1.139   2.183 -2.1131  0.5595  3.3092
 1862TIP3   OH227076   0.406   6.032   1.896  0.0479 -0.6185 -0.4253
 1862TIP3    H127077   0.425   6.046   1.988 -0.0465 -2.0130 -0.1756
 1862TIP3    H227078   0.317   5.996   1.895 -0.2926  0.1948 -1.1339
 1863TIP3   OH227079   6.030   4.208  11.783 -0.4880 -0.3136 -0.1656
 1863TIP3    H127080   5.977   4.280  11.817 -0.3640  0.5923 -1.7847
 1863TIP3    H227081   6.075   4.173  11.860 -0.8719  1.0663  0.7267
 1864TIP3   OH227082   4.855   3.402  12.443  0.4630 -0.0284  0.1237
 1864TIP3    H127083   4.810   3.336  12.390  0.0318  2.0595 -2.3013
 1864TIP3    H227084   4.814   3.395  12.529 -0.8122 -1.7167 -0.5639
 1865TIP3   OH227085   6.196   6.709  10.799  0.5711 -0.5304 -0.1394
 1865TIP3    H127086   6.117   6.727  10.747  0.3084 -0.3408  0.3233
 1865TIP3    H227087   6.220   6.794  10.836  0.2529 -0.8238  0.7568
 1866TIP3   OH227088   4.599   6.299   1.071 -0.2080 -0.2207  0.4111
 1866TIP3    H127089   4.650   6.218   1.068  0.9345  0.4699  0.4432
 1866TIP3    H227090   4.553   6.302   0.987  0.6433 -0.3452 -0.0725
 1867TIP3   OH227091   1.822   2.985   3.261 -0.3558 -0.0478 -0.2350
 1867TIP3    H127092   1.763   2.934   3.316 -1.0290 -1.0821 -1.8566
 1867TIP3    H227093   1.910   2.963   3.292 -0.6718  2.7518  3.3384
 1868TIP3   OH227094   3.990   1.354  14.432 -0.2020 -0.3965  0.6077
 1868TIP3    H127095   3.908   1.321  14.470  0.2029  0.0217  1.8785
 1868TIP3    H227096   3.987   1.448  14.447 -0.0230 -0.2088 -0.4295
 1869TIP3   OH227097   2.090   6.414   5.848 -0.1479 -0.1134 -0.0086
 1869TIP3    H127098   2.149   6.469   5.900 -0.4075 -0.7885  1.0423
 1869TIP3    H227099   2.048   6.475   5.788 -0.1146  0.7769  0.8358
 1870TIP3   OH227100   6.785   4.683   3.268  0.5207 -0.1014 -0.1420
 1870TIP3    H127101   6.726   4.758   3.260 -0.6172 -0.9480 -0.0112
 1870TIP3    H227102   6.871   4.721   3.284 -0.1261  1.1551  0.4388
 1871TIP3   OH227103   2.932   2.973   3.324  0.3510 -0.4303 -0.7202
 1871TIP3    H127104   2.926   2.899   3.263 -3.4489  0.0482 -1.1672
 1871TIP3    H227105   2.954   3.048   3.269  0.4374 -0.6097 -0.9308
 1872TIP3   OH227106   3.736   6.112   1.227  0.4606 -0.6118 -0.3613
 1872TIP3    H127107   3.825   6.078   1.237  0.5325 -0.1863  0.6004
 1872TIP3    H227108   3.687   6.041   1.186  1.5672 -0.3309 -2.2416
 1873TIP3   OH227109   3.321   4.863   5.736  0.4516  0.1901 -0.2299
 1873TIP3    H127110   3.292   4.779   5.701  1.1985  0.0453 -0.5131
 1873TIP3    H227111   3.399   4.886   5.685  1.3814  0.1243  1.1045
 1874TIP3   OH227112   4.321   3.283  11.228 -0.4394 -0.3709 -0.3039
 1874TIP3    H127113   4.350   3.283  11.136 -0.2880  0.1508 -0.2637
 1874TIP3    H227114   4.375   3.216  11.270  0.9813  0.8008 -0.1620
 1875TIP3   OH227115   5.536   0.914  11.399 -0.6473 -0.3484 -0.4801
 1875TIP3    H127116   5.471   0.876  11.458  0.5102 -1.8947 -0.1232
 1875TIP3    H227117   5.615   0.923  11.453  0.0701 -0.6204 -1.4517
 1876TIP3   OH227118   5.411   5.771  16.556  0.5797 -0.4589  0.5517
 1876TIP3    H127119   5.350   5.839  16.582 -0.6767 -1.6077  0.7306
 1876TIP3    H227120   5.489   5.818  16.527 -0.3560  1.0477  0.3817
 1877TIP3   OH227121   5.107   3.348  13.626 -0.3821 -0.1088  0.1421
 1877TIP3    H127122   5.096   3.291  13.701  0.4137  0.5504  0.7799
 1877TIP3    H227123   5.068   3.432  13.652  1.8034  0.8149  0.7113
 1878TIP3   OH227124   3.272   1.438  15.371 -0.3222  0.3056 -0.0093
 1878TIP3    H127125   3.193   1.418  15.320 -0.2881  0.0100  0.0512
 1878TIP3    H227126   3.341   1.444  15.305 -0.5058  1.2137 -0.1356
 1879TIP3   OH227127   4.298   4.918  17.182 -0.1434 -0.5027 -0.1861
 1879TIP3    H127128   4.220   4.865  17.199  0.4784 -1.1558  0.7955
 1879TIP3    H227129   4.271   5.008  17.200 -0.5323 -0.7811  0.7174
 1880TIP3   OH227130   4.033   4.414  10.848 -0.1976  0.7155  0.1580
 1880TIP3    H127131   4.092   4.354  10.803 -1.3556  0.3649 -0.9496
 1880TIP3    H227132   4.086   4.492  10.866  0.0578  1.3208 -2.7942
 1881TIP3   OH227133   5.902   4.029  14.682 -0.3612  0.0202  0.2411
 1881TIP3    H127134   5.896   4.031  14.778 -0.3435 -0.2451  0.2488
 1881TIP3    H227135   5.992   4.001  14.664  0.0993  1.4768  0.1361
 1882TIP3   OH227136   5.268   2.195  11.432 -0.0378 -0.1327  0.3777
 1882TIP3    H127137   5.198   2.201  11.367  0.1922  2.8438  0.2929
 1882TIP3    H227138   5.348   2.202  11.382  0.3513 -1.9796  0.6451
 1883TIP3   OH227139   2.035   4.142   1.230 -0.0227 -0.6820  0.1128
 1883TIP3    H127140   2.014   4.234   1.212  1.0428 -0.2954  0.7939
 1883TIP3    H227141   2.020   4.098   1.146  1.3296  0.4458 -0.7719
 1884TIP3   OH227142   1.352   2.316  14.097 -0.0380  0.0620 -0.0929
 1884TIP3    H127143   1.316   2.313  14.186  0.5613 -1.2568  0.1368
 1884TIP3    H227144   1.285   2.359  14.045 -1.6907 -1.7263  0.4480
 1885TIP3   OH227145   0.014   6.477   1.034 -0.0297 -0.2984 -0.5592
 1885TIP3    H127146  -0.059   6.513   0.984  0.8388  0.5926 -1.2215
 1885TIP3    H227147   0.091   6.523   1.001  0.5809  0.3695  1.6223
 1886TIP3   OH227148   0.271   2.737  14.780  0.1763 -0.7720  0.3101
 1886TIP3    H127149   0.363   2.741  14.804  0.7165 -2.8909 -1.1414
 1886TIP3    H227150   0.260   2.807  14.716  0.6119 -0.1413  0.9107
 1887TIP3   OH227151   5.573   4.082  14.817  0.2438  0.0947  0.3789
 1887TIP3    H127152   5.512   4.009  14.805  0.6013 -0.2159  0.4115
 1887TIP3    H227153   5.541   4.150  14.758 -0.3325  0.0668  0.6540
 1888TIP3   OH227154   5.342   5.821  11.629 -0.3553  0.0842 -0.4795
 1888TIP3    H127155   5.370   5.740  11.587 -1.0636 -0.6610  0.4351
 1888TIP3    H227156   5.306   5.793  11.714 -1.6043  1.2163 -0.5942
 1889TIP3   OH227157   2.703   0.770   0.556  0.3925 -0.1269 -0.0363
 1889TIP3    H127158   2.694   0.846   0.613 -2.5273  0.6607 -1.3699
 1889TIP3    H227159   2.685   0.695   0.613  0.5812  0.3902  0.7128
 1890TIP3   OH227160   3.930   2.524  16.252  0.5100 -0.2593 -0.1455
 1890TIP3    H127161   3.842   2.502  16.282  0.7867 -1.6494 -0.2586
 1890TIP3    H227162   3.934   2.619  16.256 -0.9323 -0.1852  0.0306
 1891TIP3   OH227163   0.194   6.085  12.143  0.5185 -0.6335  0.0308
 1891TIP3    H127164   0.181   5.991  12.133 -1.4185 -0.2053 -2.9708
 1891TIP3    H227165   0.277   6.102  12.098 -0.1709 -0.7095 -1.3217
 1892TIP3   OH227166   0.285   4.238   3.122 -0.0044  0.6411 -0.2624
 1892TIP3    H127167   0.296   4.225   3.028  1.1099 -1.2083  0.0839
 1892TIP3    H227168   0.349   4.179   3.162 -1.8419 -0.1113  1.7074
 1893TIP3   OH227169   3.377   5.669  14.657 -0.2758 -0.0571  0.4699
 1893TIP3    H127170   3.462   5.626  14.657  0.0362  0.4510  2.8131
 1893TIP3    H227171   3.376   5.719  14.575  1.0125 -1.2637 -0.3271
 1894TIP3   OH227172   5.093   2.159  15.394  0.0633 -0.1735  0.2540
 1894TIP3    H127173   5.030   2.158  15.466  0.8780 -2.6832  1.0515
 1894TIP3    H227174   5.069   2.084  15.340  0.2269  0.9475 -1.4499
 1895TIP3   OH227175   3.683   4.331   6.058 -0.3811  0.3760  0.0176
 1895TIP3    H127176   3.668   4.400   6.123 -0.8968  1.6400 -1.3924
 1895TIP3    H227177   3.719   4.258   6.109 -3.1347  0.3443  2.2020
 1896TIP3   OH227178   3.978   0.448   2.702 -0.0181 -0.0136 -0.5445
 1896TIP3    H127179   3.912   0.511   2.728  0.2439  0.0569 -0.0434
 1896TIP3    H227180   4.016   0.484   2.622 -0.2717  0.1710 -0.5819
 1897TIP3   OH227181   2.092   5.699   4.193 -0.5063 -0.5356 -0.2867
 1897TIP3    H127182   2.180   5.698   4.230 -0.2822  0.0147 -0.7955
 1897TIP3    H227183   2.045   5.767   4.243 -1.1698 -1.9624  1.1357
 1898TIP3   OH227184   2.190   4.910  14.904 -0.3864  0.6782 -0.0866
 1898TIP3    H127185   2.138   4.839  14.941 -0.9282  2.2191  2.3376
 1898TIP3    H227186   2.129   4.958  14.848 -0.4451  0.1505 -0.4798
 1899TIP3   OH227187   6.744   2.009  15.543  0.0510 -0.2558  1.1077
 1899TIP3    H127188   6.661   1.962  15.534 -0.0240  0.1463 -0.5239
 1899TIP3    H227189   6.781   1.977  15.626  0.0057 -3.1934  0.1070
 1900TIP3   OH227190   1.366   3.993   2.730  0.4905 -0.0930 -0.3082
 1900TIP3    H127191   1.401   3.944   2.656  2.3094 -0.3886  0.6851
 1900TIP3    H227192   1.271   3.988   2.720  0.6913 -0.4488 -2.3840
 1901TIP3   OH227193   0.499   1.296  14.661  0.1668 -0.1207  0.3586
 1901TIP3    H127194   0.526   1.378  14.620  0.9058 -0.5930 -0.1212
 1901TIP3    H227195   0.580   1.257  14.692  0.0466 -1.4741 -0.9344
 1902TIP3   OH227196   6.542   4.857  15.647  0.3528 -0.1753 -0.0105
 1902TIP3    H127197   6.510   4.788  15.704 -1.5878 -0.8289 -1.7414
 1902TIP3    H227198   6.550   4.815  15.561  0.9830  1.2945 -0.7026
 1903TIP3   OH227199   6.446   5.068  13.610 -0.6036 -0.7047  0.0496
 1903TIP3    H127200   6.400   5.140  13.567 -2.2438 -1.6392  0.1264
 1903TIP3    H227201   6.514   5.110  13.663 -0.0064  0.6010 -1.6856
 1904TIP3   OH227202   1.210   3.627   2.911 -0.4482  0.1083 -0.2664
 1904TIP3    H127203   1.133   3.620   2.968 -0.6489 -0.4354 -0.5988
 1904TIP3    H227204   1.278   3.575   2.955 -0.7845 -0.8186 -0.8114
 1905TIP3   OH227205   0.969   1.402   6.517 -0.6413 -0.0367 -0.5332
 1905TIP3    H127206   0.962   1.308   6.500  0.4600 -0.7993  2.5022
 1905TIP3    H227207   0.881   1.429   6.540 -0.4559 -1.1757  1.8370
 1906TIP3   OH227208   2.691   3.820   5.597  0.1929  0.0947 -0.3804
 1906TIP3    H127209   2.719   3.893   5.542  0.4225 -0.3236 -0.8308
 1906TIP3    H227210   2.600   3.805   5.573 -0.4770  1.4809  1.1116
 1907TIP3   OH227211   3.701   2.892   3.106  0.4056  0.2425  0.4833
 1907TIP3    H127212   3.607   2.906   3.116  0.1206  0.0564 -1.4084
 1907TIP3    H227213   3.729   2.849   3.187 -0.5230  2.9513  2.3724
 1908TIP3   OH227214   5.892   2.662   1.637  0.4552 -0.4911 -0.0715
 1908TIP3    H127215   5.803   2.672   1.605  0.0754 -0.2018  1.0352
 1908TIP3    H227216   5.946   2.704   1.570 -0.4378  1.4195  0.3470
 1909TIP3   OH227217   2.585   2.013   2.733 -0.3214  0.2800 -0.2266
 1909TIP3    H127218   2.497   2.044   2.712  0.5554  2.1454 -1.3874
 1909TIP3    H227219   2.636   2.030   2.654  1.3645  0.3775  0.8324
 1910TIP3   OH227220   5.043   5.128   3.067  0.1125  0.1128  0.3730
 1910TIP3    H127221   5.132   5.099   3.046  0.5994  2.7607 -1.7625
 1910TIP3    H227222   5.049   5.162   3.156  0.9630 -0.6490  0.6243
 1911TIP3   OH227223   2.061   3.219   5.922  0.7206 -0.2125 -0.1615
 1911TIP3    H127224   2.087   3.276   5.994 -0.4466 -2.1201  1.9164
 1911TIP3    H227225   1.965   3.228   5.919  0.7100 -0.6178 -1.0668
 1912TIP3   OH227226   2.292   5.213  14.302 -0.4276 -0.2269 -0.2932
 1912TIP3    H127227   2.351   5.286  14.319 -0.7842  0.1730 -0.7776
 1912TIP3    H227228   2.319   5.146  14.365 -1.2031  0.9318  1.3208
 1913TIP3   OH227229   4.004   1.976  14.081 -0.3920  0.2457 -0.9847
 1913TIP3    H127230   3.938   1.908  14.094 -0.2274  0.3839  0.7230
 1913TIP3    H227231   4.087   1.928  14.075 -0.6600 -0.0546 -4.4632
 1914TIP3   OH227232   5.407   3.668   4.029 -0.0100  0.3879 -0.5515
 1914TIP3    H127233   5.466   3.733   4.068  0.5913 -0.4529 -0.0248
 1914TIP3    H227234   5.376   3.616   4.104 -0.5247  0.0926 -0.9624
 1915TIP3   OH227235   3.200   1.800   3.087 -0.0192 -0.0130 -0.6767
 1915TIP3    H127236   3.216   1.721   3.138 -0.7209 -0.1736 -0.6888
 1915TIP3    H227237   3.202   1.770   2.996  0.1253  0.0593 -0.6966
 1916TIP3   OH227238   2.987   2.705   3.710  0.0737  0.2823  0.7554
 1916TIP3    H127239   2.965   2.662   3.627 -0.0618 -0.7692  1.3229
 1916TIP3    H227240   3.058   2.765   3.687  1.4976 -1.4971  0.2187
 1917TIP3   OH227241   1.906   3.797  12.646 -0.3714  0.1326 -0.2860
 1917TIP3    H127242   1.919   3.892  12.654  1.7837 -0.2179  1.0122
 1917TIP3    H227243   1.861   3.773  12.727  0.3817 -0.1375  0.0592
 1918TIP3   OH227244   6.299   4.381   6.160 -0.4949 -0.7282 -0.3175
 1918TIP3    H127245   6.242   4.304   6.163 -2.0840  0.3035 -1.8068
 1918TIP3    H227246   6.251   4.447   6.210  0.1557 -0.3048 -0.2524
 1919TIP3   OH227247   1.477   5.349  12.317  0.0904  0.0754 -0.3629
 1919TIP3    H127248   1.564   5.382  12.294  0.1174  2.2396  2.3216
 1919TIP3    H227249   1.489   5.255  12.328  1.7206  0.1093 -1.4896
 1920TIP3   OH227250   0.326   4.576   2.646 -0.7823  0.6567 -0.0096
 1920TIP3    H127251   0.390   4.588   2.715  1.1493 -0.3979 -1.5298
 1920TIP3    H227252   0.295   4.486   2.656 -0.8919  0.6713 -0.1967
 1921TIP3   OH227253   5.878   1.015  11.441  0.9039  0.0408  0.2918
 1921TIP3    H127254   5.930   1.095  11.435 -0.3510  0.9738  1.2955
 1921TIP3    H227255   5.942   0.944  11.440  2.2190  1.1510  1.5424
 1922TIP3   OH227256   4.753   2.794  12.784 -0.0340 -0.4478 -0.5252
 1922TIP3    H127257   4.782   2.796  12.875  0.8261  0.8114 -0.8051
 1922TIP3    H227258   4.790   2.874  12.745 -1.2367 -0.4326 -1.7130
 1923TIP3   OH227259   6.252   4.393  14.959  0.7887  0.1263  0.1123
 1923TIP3    H127260   6.204   4.334  14.900  0.3538 -1.4439  1.9296
 1923TIP3    H227261   6.344   4.375  14.941  0.6712 -1.4792  0.9230
 1924TIP3   OH227262   4.291   0.495  15.771 -0.3571  0.3900  0.2299
 1924TIP3    H127263   4.222   0.541  15.722 -0.3096  0.6625  0.4166
 1924TIP3    H227264   4.365   0.492  15.711 -0.4383  0.3430  0.1302
 1925TIP3   OH227265   2.655   5.588   0.417 -0.3342 -0.2474  0.1539
 1925TIP3    H127266   2.706   5.531   0.475 -0.4180 -0.4477  0.0296
 1925TIP3    H227267   2.608   5.528   0.359 -0.7835 -0.0679  0.3288
 1926TIP3   OH227268   0.644   5.123  15.253 -0.0500  0.3510  0.1373
 1926TIP3    H127269   0.576   5.152  15.192  0.6371  2.2979  0.2308
 1926TIP3    H227270   0.602   5.128  15.339 -0.2303  0.1153  0.0646
 1927TIP3   OH227271   1.672   1.244   5.249 -0.1093 -0.0716 -0.0433
 1927TIP3    H127272   1.763   1.240   5.277  0.1220 -0.7980 -0.8431
 1927TIP3    H227273   1.630   1.170   5.292 -0.3134  0.2314  0.2839
 1928TIP3   OH227274   4.250   3.819  14.280  0.6329 -0.0329 -0.6364
 1928TIP3    H127275   4.239   3.861  14.194  3.2182 -2.8348 -2.5294
 1928TIP3    H227276   4.211   3.732  14.269  0.3846 -0.2116  1.3174
 1929TIP3   OH227277   3.543   2.289   5.076 -0.1334 -0.5400  0.4139
 1929TIP3    H127278   3.632   2.257   5.090  0.1245  0.0753  0.2119
 1929TIP3    H227279   3.552   2.385   5.074 -0.6858 -0.4926 -0.3494
 1930TIP3   OH227280   3.597   1.382   6.538  0.1007  0.5402 -0.4484
 1930TIP3    H127281   3.608   1.294   6.573  1.7403  0.0930 -1.9360
 1930TIP3    H227282   3.511   1.409   6.569  0.7509 -0.3790  2.5320
 1931TIP3   OH227283   3.412   1.963   2.686 -0.1852 -0.0526  0.0056
 1931TIP3    H127284   3.432   1.995   2.598 -0.8152  0.5432  0.0650
 1931TIP3    H227285   3.396   2.042   2.737  0.6389 -0.3736  0.7850
 1932TIP3   OH227286   1.147   5.821  17.059 -0.1935  0.4520  0.4527
 1932TIP3    H127287   1.214   5.885  17.085 -0.2184  1.8334 -2.4528
 1932TIP3    H227288   1.160   5.811  16.964  0.2113 -4.4242  0.8184
 1933TIP3   OH227289   1.112   0.998   5.191  0.4534 -0.3553 -0.1307
 1933TIP3    H127290   1.142   0.935   5.257 -1.4891 -0.2768  0.9136
 1933TIP3    H227291   1.158   1.079   5.212 -0.7755 -0.0873  1.7574
 1934TIP3   OH227292   6.229   0.885  11.754  0.1314 -0.1069 -0.1259
 1934TIP3    H127293   6.285   0.948  11.798  0.8967 -1.8306  1.4793
 1934TIP3    H227294   6.286   0.842  11.691 -0.1116  0.0171 -0.4355
 1935TIP3   OH227295   3.257   2.850   4.268  0.4034  0.3995  0.3182
 1935TIP3    H127296   3.296   2.766   4.245 -0.2136 -0.0086  0.7515
 1935TIP3    H227297   3.168   2.829   4.294  0.4068  1.1266  0.9400
 1936TIP3   OH227298   5.416   5.521  12.321 -0.1114  0.0373 -0.0891
 1936TIP3    H127299   5.459   5.530  12.406  1.6899 -0.1345 -0.9428
 1936TIP3    H227300   5.324   5.504  12.343 -0.0205  1.5528  1.7867
 1937TIP3   OH227301   5.612   5.865   2.617  0.8103  0.1478 -0.3641
 1937TIP3    H127302   5.527   5.902   2.640  1.2215  0.7447  0.2385
 1937TIP3    H227303   5.621   5.789   2.675  1.0740  0.6165  0.2235
 1938TIP3   OH227304   2.689   3.898   3.114 -0.0877  0.2042  0.1111
 1938TIP3    H127305   2.745   3.943   3.178 -0.3654  0.7552 -0.0293
 1938TIP3    H227306   2.688   3.957   3.039 -0.7272  0.1126  0.0496
 1939TIP3   OH227307   3.829   4.679   4.912  0.2760 -1.0289  0.2438
 1939TIP3    H127308   3.898   4.742   4.930  0.7596 -1.0412 -1.4171
 1939TIP3    H227309   3.844   4.608   4.975  0.8447 -0.3463  0.8940
 1940TIP3   OH227310   1.554   4.271  16.819 -0.0953  0.1389  0.4758
 1940TIP3    H127311   1.581   4.180  16.832  0.9395  0.5807  1.5854
 1940TIP3    H227312   1.480   4.283  16.880  0.9116  0.5148  1.6685
 1941TIP3   OH227313   1.491   5.235  15.173 -0.3510 -0.7997 -0.6658
 1941TIP3    H127314   1.456   5.148  15.195  0.0986 -0.8013  0.0754
 1941TIP3    H227315   1.419   5.295  15.191 -0.4928 -0.9667 -0.6707
 1942TIP3   OH227316   3.715   5.127  11.737 -0.0203  0.5985 -0.0323
 1942TIP3    H127317   3.642   5.172  11.696 -2.3052 -1.7453  1.1171
 1942TIP3    H227318   3.721   5.043  11.691  1.4136  0.4096  0.4363
 1943TIP3   OH227319   0.091   5.569  10.983  0.8342 -0.1029  0.4424
 1943TIP3    H127320   0.080   5.474  10.983 -2.7699  0.1530  0.4252
 1943TIP3    H227321   0.163   5.585  10.924  0.8477 -2.7891 -0.4187
 1944TIP3   OH227322   3.003   4.481   4.280 -0.2316  1.1479  0.2409
 1944TIP3    H127323   3.019   4.391   4.253 -1.0678  1.5392 -1.7078
 1944TIP3    H227324   2.968   4.474   4.369 -0.9082 -0.4930 -0.1288
 1945TIP3   OH227325   4.548   6.456  15.731 -0.7208 -0.1578  0.1951
 1945TIP3    H127326   4.587   6.543  15.737 -1.8345  0.4682 -1.1090
 1945TIP3    H227327   4.546   6.437  15.637 -1.2147 -1.2522  0.4104
 1946TIP3   OH227328   4.473   4.152  16.587  0.0283  0.3905  0.5268
 1946TIP3    H127329   4.496   4.222  16.648  0.1020  0.7917  0.0505
 1946TIP3    H227330   4.379   4.138  16.599 -0.1516  1.1548  0.0351
 1947TIP3   OH227331   5.584   0.443  16.931 -0.2438 -0.9287 -0.2277
 1947TIP3    H127332   5.590   0.538  16.917  1.5690 -1.1764 -1.5277
 1947TIP3    H227333   5.528   0.434  17.008  0.0957  1.2321  0.3562
 1948TIP3   OH227334   2.419   0.695   1.843  0.4546 -0.8200 -0.0618
 1948TIP3    H127335   2.394   0.605   1.864  0.0242 -0.3805  1.4012
 1948TIP3    H227336   2.504   0.707   1.885  0.7812 -0.7025 -0.7363
 1949TIP3   OH227337   1.786   6.219   4.150  0.0715  0.4495 -0.0825
 1949TIP3    H127338   1.837   6.295   4.178  1.0442 -0.2910  0.1937
 1949TIP3    H227339   1.808   6.208   4.058  0.0954  0.3728 -0.0676
 1950TIP3   OH227340   0.266   2.966  16.021  0.5481  0.3133  0.4464
 1950TIP3    H127341   0.309   2.913  16.088  3.4908 -0.1051 -1.5401
 1950TIP3    H227342   0.221   2.903  15.965  0.3948  0.3623  0.5158
 1951TIP3   OH227343   4.034   1.970  13.340 -0.8764 -0.5666  0.6112
 1951TIP3    H127344   3.960   2.029  13.328 -1.9281 -1.8407  0.5886
 1951TIP3    H227345   4.066   1.989  13.428 -2.4554 -1.2867  1.3868
 1952TIP3   OH227346   4.727   6.071  10.977 -0.3494  0.5485 -0.4001
 1952TIP3    H127347   4.672   6.061  10.899  1.0883 -3.6503 -1.0938
 1952TIP3    H227348   4.816   6.071  10.943  0.2961 -0.8451  1.1952
 1953TIP3   OH227349   2.984   6.330   4.437  0.3805 -0.3422 -0.0369
 1953TIP3    H127350   3.022   6.274   4.370 -1.0043 -1.2988 -0.0756
 1953TIP3    H227351   2.981   6.275   4.516 -2.2064 -0.8976 -0.4052
 1954TIP3   OH227352   3.822   1.116   1.765  0.3698  0.2884 -0.1853
 1954TIP3    H127353   3.778   1.101   1.849 -1.2608 -0.8629 -1.1895
 1954TIP3    H227354   3.876   1.037   1.752 -0.8731 -0.4446 -1.0770
 1955TIP3   OH227355   3.410   0.226  15.683  0.0141  0.2461  0.6106
 1955TIP3    H127356   3.434   0.228  15.776  1.5140 -1.5209  0.3080
 1955TIP3    H227357   3.405   0.133  15.661 -0.9803  0.6206 -0.9452
 1956TIP3   OH227358   5.634   1.240   5.331 -0.2162  0.1342  0.2166
 1956TIP3    H127359   5.610   1.223   5.423  0.3358 -0.1586  0.3139
 1956TIP3    H227360   5.729   1.226   5.329 -0.1377  0.7300 -0.2739
 1957TIP3   OH227361   5.624   6.261   0.187 -0.2409  0.5467  0.0974
 1957TIP3    H127362   5.674   6.296   0.260  1.1776  0.7877 -0.9467
 1957TIP3    H227363   5.666   6.298   0.109 -2.1471  0.8621 -0.8289
 1958TIP3   OH227364   1.498   0.478  10.999 -0.7161  0.5063  0.8460
 1958TIP3    H127365   1.448   0.402  10.966  1.6345 -1.7457  2.0817
 1958TIP3    H227366   1.547   0.509  10.923 -1.8885  0.9941  0.2677
 1959TIP3   OH227367   5.627   4.619   4.311 -0.7629  0.1784  0.5553
 1959TIP3    H127368   5.579   4.599   4.231  0.4297 -2.3801  0.3734
 1959TIP3    H227369   5.713   4.649   4.280 -0.3458 -0.6830  0.8551
 1960TIP3   OH227370   3.212   6.341  15.355 -0.1834 -0.3883  0.0945
 1960TIP3    H127371   3.139   6.280  15.367 -1.4568  0.5862 -2.0633
 1960TIP3    H227372   3.239   6.328  15.264  0.0847  1.5953 -0.1544
 1961TIP3   OH227373   5.192   0.753  16.847 -1.4468 -0.0933 -0.7393
 1961TIP3    H127374   5.209   0.777  16.938 -0.3711  2.5034 -1.5141
 1961TIP3    H227375   5.097   0.758  16.838 -1.6370 -1.2548  0.4325
 1962TIP3   OH227376   3.871   0.241   3.773 -0.1182 -0.4233  0.2523
 1962TIP3    H127377   3.786   0.252   3.816  0.2739  1.6692  0.5763
 1962TIP3    H227378   3.935   0.257   3.842  0.5337 -0.0626 -0.4278
 1963TIP3   OH227379   3.722   4.173   5.247 -0.5899  0.1216 -0.1308
 1963TIP3    H127380   3.660   4.106   5.277 -1.4470  0.0157 -2.0041
 1963TIP3    H227381   3.677   4.256   5.264 -0.2396  0.1667  0.6310
 1964TIP3   OH227382   1.725   1.119  13.709  0.2977  0.4010 -0.3098
 1964TIP3    H127383   1.746   1.193  13.653  0.5813 -0.4970 -1.4211
 1964TIP3    H227384   1.783   1.049  13.679 -1.0697 -0.7459 -0.3540
 1965TIP3   OH227385   5.593   2.798   1.106  0.2408  0.2516 -0.2257
 1965TIP3    H127386   5.687   2.781   1.110  0.2535  0.4377  0.2348
 1965TIP3    H227387   5.554   2.729   1.160  0.1744  0.7019  0.3008
 1966TIP3   OH227388   4.806   6.200  14.662 -0.5181 -0.1124 -0.1584
 1966TIP3    H127389   4.725   6.228  14.620 -0.6108 -0.0857  0.0391
 1966TIP3    H227390   4.810   6.106  14.647 -1.6368 -0.4887  1.6123
 1967TIP3   OH227391   4.759   2.272   4.720 -0.1788  0.9813  0.2408
 1967TIP3    H127392   4.667   2.296   4.729 -0.8320  0.8357 -3.8933
 1967TIP3    H227393   4.775   2.271   4.625  3.4439 -1.3829  0.6358
 1968TIP3   OH227394   1.930   6.477   0.247  0.0043  0.0686  0.1636
 1968TIP3    H127395   1.886   6.508   0.327 -0.2226 -2.7353  1.2306
 1968TIP3    H227396   2.014   6.521   0.248 -0.6642  1.4223  1.0008
 1969TIP3   OH227397   5.770   1.013   0.123  0.3684  0.2147 -0.6741
 1969TIP3    H127398   5.780   1.018   0.218  0.3285  1.8716 -0.7235
 1969TIP3    H227399   5.716   0.935   0.108 -0.0764  0.2352  0.6971
 1970TIP3   OH227400   0.164   3.478   3.089  0.6003  0.1717  0.0878
 1970TIP3    H127401   0.220   3.401   3.078 -0.1859 -0.8948  2.7630
 1970TIP3    H227402   0.223   3.553   3.085  1.4188 -0.5280 -2.3522
 1971TIP3   OH227403   6.223   5.290   3.650 -0.0387  0.3601 -0.2876
 1971TIP3    H127404   6.168   5.296   3.573 -0.4110  0.5120 -0.0150
 1971TIP3    H227405   6.180   5.346   3.715 -1.0285 -1.5634  0.7920
 1972TIP3   OH227406   2.531   3.887   2.803  0.2793  0.2719 -0.2959
 1972TIP3    H127407   2.513   3.846   2.888 -2.3848 -1.2906 -1.4629
 1972TIP3    H227408   2.590   3.826   2.758 -1.5544 -1.0603 -1.0175
 1973TIP3   OH227409   5.777   5.459  16.225  0.3242 -0.8462 -0.0730
 1973TIP3    H127410   5.841   5.517  16.265  1.1889 -1.5400 -0.4292
 1973TIP3    H227411   5.713   5.517  16.185  0.2900 -0.1441  0.9612
 1974TIP3   OH227412   3.025   4.882   3.927  0.0088 -0.2866 -0.1017
 1974TIP3    H127413   3.120   4.892   3.927 -0.0242  0.1427  0.5577
 1974TIP3    H227414   2.996   4.933   4.003 -0.6674 -1.1652  0.2500
 1975TIP3   OH227415   6.203   5.762   1.632  0.1670  0.0779 -0.0260
 1975TIP3    H127416   6.295   5.759   1.658  0.2676  0.8301 -0.2700
 1975TIP3    H227417   6.186   5.676   1.594  1.4500  0.6872 -2.1844
 1976TIP3   OH227418   4.652   4.914   5.778  0.3272  0.4932 -0.1156
 1976TIP3    H127419   4.661   4.861   5.857  0.1471  0.7160  0.0560
 1976TIP3    H227420   4.558   4.917   5.762  0.3675  0.4005 -0.3726
 1977TIP3   OH227421   3.790   5.145  12.683  0.1523  0.0498  0.3524
 1977TIP3    H127422   3.747   5.229  12.667 -0.3645  0.0352  1.5369
 1977TIP3    H227423   3.810   5.147  12.776 -0.6168 -1.4829  0.5689
 1978TIP3   OH227424   3.385   3.851   3.195  0.4811 -0.4117 -0.2483
 1978TIP3    H127425   3.340   3.928   3.161  1.1552 -0.4000 -1.1511
 1978TIP3    H227426   3.348   3.778   3.145 -0.0071 -0.6512  0.4574
 1979TIP3   OH227427   4.677   1.437  13.453  0.1211 -0.0375  0.1549
 1979TIP3    H127428   4.715   1.432  13.541 -1.7922  0.3021  1.0568
 1979TIP3    H227429   4.725   1.372  13.402  2.2468  0.7684  1.0394
 1980TIP3   OH227430   4.791   1.993   2.270 -0.7012  0.5060  0.3833
 1980TIP3    H127431   4.715   2.042   2.301 -0.4551  1.2760 -0.2232
 1980TIP3    H227432   4.850   1.990   2.345 -0.3111  1.9542  0.1636
 1981TIP3   OH227433   4.311   6.577  12.744 -0.1233  0.2461  0.0387
 1981TIP3    H127434   4.265   6.494  12.727 -0.3996 -0.0956  2.1517
 1981TIP3    H227435   4.397   6.565  12.703 -0.5470 -0.6461 -0.6406
 1982TIP3   OH227436   3.539   6.018  13.551  0.1454 -0.3412 -0.5169
 1982TIP3    H127437   3.512   5.964  13.476  0.0502 -0.1654 -0.6109
 1982TIP3    H227438   3.634   6.006  13.556  0.6249  1.7579 -2.3928
 1983TIP3   OH227439   3.642   0.995  14.215 -0.0462  0.5693  0.1612
 1983TIP3    H127440   3.706   0.960  14.277 -0.1393  1.6908  0.9272
 1983TIP3    H227441   3.678   0.974  14.129  0.6650 -0.0124  0.5863
 1984TIP3   OH227442   0.781   6.019  13.863  0.5017  0.1455 -0.2264
 1984TIP3    H127443   0.796   6.034  13.770 -1.9461 -2.0613 -1.1073
 1984TIP3    H227444   0.731   6.095  13.892  3.0453  1.8978 -0.0595
 1985TIP3   OH227445   4.632   3.422   1.999  0.1521  0.2435  0.2672
 1985TIP3    H127446   4.578   3.468   2.063 -1.1126 -0.6662 -0.1159
 1985TIP3    H227447   4.576   3.352   1.966  0.1758  1.6586 -3.0776
 1986TIP3   OH227448   0.201   1.222   2.872  0.3174  0.5455 -0.3965
 1986TIP3    H127449   0.214   1.316   2.889  1.5982  0.4283 -0.6352
 1986TIP3    H227450   0.272   1.199   2.812 -0.7845 -0.2885 -1.4312
 1987TIP3   OH227451   1.011   2.497   4.202  0.3693 -0.2729  0.4637
 1987TIP3    H127452   0.920   2.467   4.206  0.1232  0.5554  2.0313
 1987TIP3    H227453   1.005   2.587   4.170  0.7034 -0.4294 -0.0405
 1988TIP3   OH227454   6.472   6.555   1.658 -0.3543 -0.0720  0.0366
 1988TIP3    H127455   6.557   6.588   1.628  0.2176 -0.7828  0.8295
 1988TIP3    H227456   6.410   6.582   1.590  0.1025  2.4233  0.5020
 1989TIP3   OH227457   3.030   5.929   2.855  0.2831 -0.0017  0.0398
 1989TIP3    H127458   3.062   5.842   2.832  0.5781  0.3421 -0.8786
 1989TIP3    H227459   3.092   5.989   2.814  1.2926  0.6716  2.3479
 1990TIP3   OH227460   0.331   2.514   5.931  0.0785 -0.2518 -0.2936
 1990TIP3    H127461   0.333   2.527   6.026 -0.2980  1.6749 -0.5045
 1990TIP3    H227462   0.415   2.549   5.900 -0.3733  0.4270 -0.7842
 1991TIP3   OH227463   3.109   6.427   3.936  0.0778  0.3464  0.2346
 1991TIP3    H127464   3.092   6.503   3.881 -1.0193 -0.7130 -0.9711
 1991TIP3    H227465   3.059   6.356   3.895 -1.9023 -0.2428  3.2985
 1992TIP3   OH227466   1.805   3.150   5.433 -0.1219 -0.4666 -0.1472
 1992TIP3    H127467   1.761   3.232   5.456 -0.2072 -0.7794  0.8630
 1992TIP3    H227468   1.751   3.082   5.474  1.2366 -0.8662  1.0421
 1993TIP3   OH227469   1.626   4.562  12.769  0.1347 -0.5716 -0.0999
 1993TIP3    H127470   1.649   4.653  12.788 -1.9578 -0.1972  0.8984
 1993TIP3    H227471   1.612   4.559  12.675 -0.5606  0.3339 -0.0301
 1994TIP3   OH227472   4.249   6.658  14.797  0.5636  0.1200 -0.4624
 1994TIP3    H127473   4.249   6.570  14.832  0.9012  0.8796  1.5668
 1994TIP3    H227474   4.218   6.713  14.869  1.7516  1.8357 -1.1923
 1995TIP3   OH227475   5.751   2.324  16.096  0.1301  0.3669 -0.8683
 1995TIP3    H127476   5.688   2.334  16.166 -1.9790 -1.5812 -2.3340
 1995TIP3    H227477   5.805   2.249  16.123 -1.8837 -1.6279 -1.9867
 1996TIP3   OH227478   0.946   2.303   1.437  0.2271 -0.2913 -0.1590
 1996TIP3    H127479   0.911   2.232   1.492  0.3304  1.0927  1.7756
 1996TIP3    H227480   1.020   2.337   1.487  0.3395  1.0113 -1.1890
 1997TIP3   OH227481   4.214   6.351  15.787 -0.3819  0.3304  0.2860
 1997TIP3    H127482   4.216   6.263  15.749 -1.3587  0.6218 -0.4881
 1997TIP3    H227483   4.276   6.347  15.860  1.2951 -0.3671 -1.1012
 1998TIP3   OH227484   6.330   6.565  14.438 -0.2226  0.0995  0.0021
 1998TIP3    H127485   6.388   6.566  14.361  0.3762 -0.3542  0.4278
 1998TIP3    H227486   6.249   6.604  14.408 -1.2276 -3.0469 -1.8630
 1999TIP3   OH227487   6.471   1.860  12.416 -0.3833 -0.2598 -0.5383
 1999TIP3    H127488   6.528   1.792  12.382  1.0758  1.1884 -1.1496
 1999TIP3    H227489   6.386   1.819  12.424  0.3683 -2.0341 -1.2242
 2000TIP3   OH227490   0.947   1.493   1.214  0.0238 -0.4312  0.0711
 2000TIP3    H127491   0.856   1.476   1.189  0.5039 -0.4029 -1.8281
 2000TIP3    H227492   0.966   1.581   1.180  0.5593 -0.1329  1.0901
 2001TIP3   OH227493   4.015   2.875   3.294 -0.3213  0.0357  0.0989
 2001TIP3    H127494   4.043   2.862   3.385  0.9705 -0.2486 -0.3085
 2001TIP3    H227495   3.932   2.829   3.288 -0.7416  0.5865  1.2981
 2002TIP3   OH227496   1.063   4.438  16.547  0.3276  0.2820 -0.5064
 2002TIP3    H127497   1.125   4.500  16.585 -0.0124  0.7788 -0.7470
 2002TIP3    H227498   1.074   4.359  16.599  1.3390  0.2754 -0.6992
 2003TIP3   OH227499   3.817   6.789   1.315  0.3959 -0.8281  0.2297
 2003TIP3    H127500   3.736   6.755   1.277 -0.2577 -0.1305  0.9704
 2003TIP3    H227501   3.886   6.741   1.269 -0.4564 -2.3101  0.4215
 2004TIP3   OH227502   5.857   6.145  14.155 -0.2010 -0.4564 -0.0888
 2004TIP3    H127503   5.912   6.092  14.213  0.7358 -0.2943 -0.8147
 2004TIP3    H227504   5.863   6.103  14.070  3.0190  2.3467 -1.4911
 2005TIP3   OH227505   0.116   3.525  13.459  0.1670 -0.1951 -0.0806
 2005TIP3    H127506   0.115   3.530  13.554 -1.6244 -0.1530 -0.0666
 2005TIP3    H227507   0.049   3.587  13.430  1.9014  1.1366 -1.4839
 2006TIP3   OH227508   1.222   5.493   3.672  0.0209  0.1012 -0.2873
 2006TIP3    H127509   1.224   5.567   3.733 -1.6109 -0.5945  0.6722
 2006TIP3    H227510   1.211   5.534   3.586  0.6318  1.0325  0.0613
 2007TIP3   OH227511   5.796   2.478  12.859  0.3543 -0.0333 -0.2544
 2007TIP3    H127512   5.855   2.431  12.918  0.6563  0.9470  0.2473
 2007TIP3    H227513   5.724   2.506  12.915  1.9690  3.3245  0.3609
 2008TIP3   OH227514   3.973   5.344   6.110  0.3403  0.1629  0.5254
 2008TIP3    H127515   4.069   5.340   6.112  0.3639  0.7122  0.7002
 2008TIP3    H227516   3.953   5.400   6.034  0.1457 -0.2680  0.2572
 2009TIP3   OH227517   5.193   4.003  15.052  0.2117 -0.4182  0.0868
 2009TIP3    H127518   5.119   3.947  15.078 -0.0030  0.2925  1.0841
 2009TIP3    H227519   5.248   4.007  15.130  0.0784  0.9676  0.1444
 2010TIP3   OH227520   5.890   5.713  14.205 -0.0740 -0.5190 -0.0314
 2010TIP3    H127521   5.837   5.782  14.244 -0.9192 -0.8075 -0.6601
 2010TIP3    H227522   5.870   5.635  14.256  0.6839 -0.3778  0.5110
 2011TIP3   OH227523   2.546   5.514   3.067 -0.6280 -0.4201 -0.6475
 2011TIP3    H127524   2.604   5.438   3.069  0.3788  0.3416 -0.1968
 2011TIP3    H227525   2.582   5.569   2.997 -0.8794 -0.0015 -0.4482
 2012TIP3   OH227526   0.159   6.624  17.225 -0.3384  0.0476  0.0711
 2012TIP3    H127527   0.102   6.700  17.234 -1.9067 -1.2519  1.6632
 2012TIP3    H227528   0.238   6.647  17.275 -0.7517  0.6681  0.4460
 2013TIP3   OH227529   6.278   4.700   3.972 -0.4305  0.4075 -0.5936
 2013TIP3    H127530   6.325   4.784   3.972 -1.3263  0.9162 -0.9496
 2013TIP3    H227531   6.309   4.656   3.893 -0.0095  0.4315 -0.4447
 2014TIP3   OH227532   2.506   6.596  13.149 -0.3590 -0.2392 -0.1360
 2014TIP3    H127533   2.446   6.606  13.075 -1.9801  1.6869  1.3507
 2014TIP3    H227534   2.461   6.536  13.208 -0.8107  1.0741  0.9030
 2015TIP3   OH227535   1.873   4.844  14.333  0.1909  0.0128  0.0227
 2015TIP3    H127536   1.953   4.841  14.385 -0.5647 -0.5414  1.1983
 2015TIP3    H227537   1.809   4.887  14.390 -0.2858  0.7066 -1.0049
 2016TIP3   OH227538   2.890   6.793   3.748  0.6719 -0.3858 -0.3933
 2016TIP3    H127539   2.891   6.768   3.655  3.0117 -0.2553 -0.4615
 2016TIP3    H227540   2.888   6.888   3.747 -1.4181 -0.3842 -0.2285
 2017TIP3   OH227541   1.359   2.933   0.321  0.2735  0.0875 -0.6008
 2017TIP3    H127542   1.388   2.869   0.387 -0.1924 -0.6267 -1.0751
 2017TIP3    H227543   1.389   3.017   0.355 -0.3894 -0.2005  0.7903
 2018TIP3   OH227544   2.777   2.579  16.023  0.3362 -0.7100  0.1808
 2018TIP3    H127545   2.748   2.585  15.932 -1.5707  1.9866  0.8408
 2018TIP3    H227546   2.745   2.494  16.053 -1.8424 -0.3353 -0.8536
 2019TIP3   OH227547   1.411   0.202   3.732 -0.7646 -0.0500 -0.0747
 2019TIP3    H127548   1.334   0.240   3.688 -0.6188 -0.8663 -1.0913
 2019TIP3    H227549   1.482   0.216   3.670  0.2379  1.8233  1.3855
 2020TIP3   OH227550   6.300   1.493  11.520 -0.0736 -0.0667 -0.0238
 2020TIP3    H127551   6.381   1.482  11.570 -0.9973  0.2491  1.6180
 2020TIP3    H227552   6.329   1.507  11.430  1.7867  1.8845  0.7834
 2021TIP3   OH227553   1.968   4.420  15.232  0.3469  0.2086 -0.0039
 2021TIP3    H127554   1.973   4.326  15.246 -0.1229  0.4272  2.0827
 2021TIP3    H227555   1.897   4.432  15.169  0.2634 -0.8201 -0.1157
 2022TIP3   OH227556   6.353   1.400  13.522  0.9353 -0.9085  0.4306
 2022TIP3    H127557   6.385   1.355  13.443 -0.0485  0.1382 -0.6162
 2022TIP3    H227558   6.432   1.429  13.567  1.5493 -2.4646  0.4283
 2023TIP3   OH227559   4.779   0.214   0.442 -0.1847  0.1288 -0.3963
 2023TIP3    H127560   4.685   0.197   0.450 -0.1548  0.7736  4.0489
 2023TIP3    H227561   4.785   0.307   0.420 -0.5651  0.0566 -0.8117
 2024TIP3   OH227562   4.148   1.387   4.374  0.4024  0.3994 -0.2786
 2024TIP3    H127563   4.100   1.442   4.312 -0.2883  0.7355  0.5332
 2024TIP3    H227564   4.081   1.351   4.431  0.5867 -2.8204 -1.8508
 2025TIP3   OH227565   5.813   4.242   2.691 -0.4508  0.3435  0.0414
 2025TIP3    H127566   5.848   4.312   2.746 -3.0530  0.4913  1.6546
 2025TIP3    H227567   5.733   4.279   2.653 -1.4397 -1.4461  0.2564
 2026TIP3   OH227568   3.458   0.944   1.122  0.3637 -0.2367 -0.0007
 2026TIP3    H127569   3.484   0.902   1.204  0.9700 -0.6930 -0.4146
 2026TIP3    H227570   3.466   0.875   1.056  1.8814  0.6109 -0.7885
 2027TIP3   OH227571   1.239   3.904  11.612 -0.0824 -0.1088 -0.5225
 2027TIP3    H127572   1.289   3.842  11.559 -0.2006  0.1894 -0.9946
 2027TIP3    H227573   1.296   3.981  11.618  0.5557 -0.6744  1.0380
 2028TIP3   OH227574   1.878   0.314  16.571 -0.2585 -0.1153 -0.4712
 2028TIP3    H127575   1.871   0.409  16.574 -0.7943 -0.1309 -1.0814
 2028TIP3    H227576   1.965   0.298  16.534  0.7445  0.1073  1.6353
 2029TIP3   OH227577   6.262   1.622   4.313 -0.8734  0.2010 -0.3045
 2029TIP3    H127578   6.258   1.557   4.383 -0.4772  0.5872  0.0890
 2029TIP3    H227579   6.345   1.606   4.270 -1.1199 -0.0394 -0.6909
 2030TIP3   OH227580   6.726   5.014  14.738 -0.0881 -0.1740  0.3702
 2030TIP3    H127581   6.796   5.059  14.691 -1.4382 -0.1303 -1.7666
 2030TIP3    H227582   6.679   5.083  14.784 -0.9330  0.3890 -1.2578
 2031TIP3   OH227583   1.179   6.382   3.806 -0.1259  0.3895 -0.2792
 2031TIP3    H127584   1.158   6.297   3.844 -0.2584  0.3494 -0.4409
 2031TIP3    H227585   1.130   6.384   3.723  2.1422 -0.5897 -1.7606
 2032TIP3   OH227586   5.912   4.547  16.785 -0.2945 -0.1961  0.1007
 2032TIP3    H127587   5.898   4.473  16.726 -1.4001 -1.4758  1.8625
 2032TIP3    H227588   5.824   4.570  16.814 -0.0005  2.0748 -0.6450
 2033TIP3   OH227589   2.396   0.467   4.556 -0.3987 -0.0895  0.3640
 2033TIP3    H127590   2.439   0.504   4.479  1.9785 -2.1063  0.5866
 2033TIP3    H227591   2.467   0.459   4.621 -1.8595 -0.5199  1.9786
 2034TIP3   OH227592   3.190   0.403  11.633  0.0616  0.6131  0.0733
 2034TIP3    H127593   3.213   0.407  11.540  0.1155 -0.3171  0.0386
 2034TIP3    H227594   3.254   0.460  11.676  0.8528  0.0308 -0.3149
 2035TIP3   OH227595   3.582   1.188  12.943  0.4764 -0.2108  0.5544
 2035TIP3    H127596   3.539   1.120  12.891  0.6269 -0.5707  0.8927
 2035TIP3    H227597   3.593   1.261  12.882 -1.3314  0.2004  0.6673
 2036TIP3   OH227598   0.178   0.025  13.254 -0.2028  0.8679 -0.1625
 2036TIP3    H127599   0.189  -0.034  13.180  2.5261 -0.8762  1.4756
 2036TIP3    H227600   0.151   0.108  13.214 -1.7632 -0.7314 -2.7681
 2037TIP3   OH227601   1.780   4.010  12.233 -0.0921 -0.2904  0.5032
 2037TIP3    H127602   1.717   4.046  12.170  1.6874  1.3825 -0.4372
 2037TIP3    H227603   1.771   4.064  12.311  0.0441 -0.1430  0.4192
 2038TIP3   OH227604   0.285   0.667  12.615  0.0931  0.2494  0.6408
 2038TIP3    H127605   0.209   0.722  12.599 -0.2680  0.4870  2.8499
 2038TIP3    H227606   0.360   0.727  12.613  0.1778  0.1400 -0.7482
 2039TIP3   OH227607   4.556   3.139  13.655  0.2048  0.3448 -0.0312
 2039TIP3    H127608   4.608   3.156  13.734 -0.4127  0.2072  0.4058
 2039TIP3    H227609   4.470   3.176  13.674 -0.1572 -0.3155 -0.3754
 2040TIP3   OH227610   1.613   3.558   0.557 -0.0094  0.3177  0.4118
 2040TIP3    H127611   1.548   3.626   0.573  0.5389  0.6976  1.0615
 2040TIP3    H227612   1.681   3.601   0.505 -0.5784 -0.2557 -0.8505
 2041TIP3   OH227613   3.203   0.688  15.732  0.1932  0.4093  1.0639
 2041TIP3    H127614   3.181   0.645  15.650  1.9759  0.8886  0.2799
 2041TIP3    H227615   3.132   0.750  15.747 -0.3793 -0.0032  0.1111
 2042TIP3   OH227616   6.560   1.359   2.027 -0.2120 -0.5956  0.3411
 2042TIP3    H127617   6.529   1.408   1.951  2.3841 -2.5535 -2.1966
 2042TIP3    H227618   6.588   1.426   2.089 -0.3399  1.1312 -1.3720
 2043TIP3   OH227619   4.240   6.152   5.842  0.0749 -0.3996 -0.0007
 2043TIP3    H127620   4.276   6.063   5.834  0.3731 -0.2203 -0.7723
 2043TIP3    H227621   4.161   6.141   5.895  1.2912 -0.7821  1.8191
 2044TIP3   OH227622   5.574   1.332   0.321  0.1575 -0.2227  0.4411
 2044TIP3    H127623   5.481   1.319   0.341  0.2269  1.2220  1.9073
 2044TIP3    H227624   5.582   1.304   0.230 -1.4496 -1.5281  0.6441
 2045TIP3   OH227625   4.395   1.155   3.466  0.1974 -0.6173  0.0030
 2045TIP3    H127626   4.317   1.121   3.422  0.2594  0.0240 -0.6156
 2045TIP3    H227627   4.378   1.249   3.475  1.7335 -0.0755 -1.9735
 2046TIP3   OH227628   2.481   4.040  16.495 -0.5993  0.2313  0.1483
 2046TIP3    H127629   2.527   3.998  16.568 -1.7959 -1.0723  0.2022
 2046TIP3    H227630   2.388   4.027  16.515 -0.9979 -1.9747 -2.5256
 2047TIP3   OH227631   1.152   4.832  14.448  0.2302  0.2986 -0.5681
 2047TIP3    H127632   1.086   4.872  14.392 -0.2515 -1.3941 -1.2748
 2047TIP3    H227633   1.188   4.760  14.395  3.7056  2.0088 -0.7865
 2048TIP3   OH227634   1.797   5.034  15.743  0.3380  0.4867 -0.4865
 2048TIP3    H127635   1.867   5.075  15.792 -0.0545  0.1002  0.4176
 2048TIP3    H227636   1.829   5.030  15.653  1.2417  0.8079 -0.1815
 2049TIP3   OH227637   5.622   1.235   1.296  0.0849  0.1075  0.4214
 2049TIP3    H127638   5.704   1.229   1.248  0.6322  0.6613  1.2542
 2049TIP3    H227639   5.647   1.221   1.388 -0.8162 -0.1882  0.6266
 2050TIP3   OH227640   0.725   6.164  16.836 -0.6059  0.2545  0.0412
 2050TIP3    H127641   0.734   6.210  16.752 -1.4419  0.4211  0.0331
 2050TIP3    H227642   0.780   6.213  16.897  2.2012 -1.3962 -0.9653
 2051TIP3   OH227643   4.180   5.323  14.417 -0.1459 -0.1873 -0.4625
 2051TIP3    H127644   4.242   5.393  14.397  1.8410 -1.9076 -0.6008
 2051TIP3    H227645   4.107   5.339  14.358  0.3385  1.6102 -0.6535
 2052TIP3   OH227646   5.952   5.252  16.665  0.0507  0.1212  0.1615
 2052TIP3    H127647   5.941   5.347  16.669 -1.6193 -0.0289 -0.2255
 2052TIP3    H227648   5.961   5.226  16.757 -0.0541  0.5949  0.3112
 2053TIP3   OH227649   4.883   5.929   2.833 -0.1224 -0.3452 -0.6007
 2053TIP3    H127650   4.880   6.018   2.796  0.5631 -0.0442  0.0480
 2053TIP3    H227651   4.819   5.932   2.905 -0.3194 -0.4689 -0.7703
 2054TIP3   OH227652   1.774   2.581   5.881  0.2689  0.4876  0.0506
 2054TIP3    H127653   1.708   2.649   5.874  1.0175  1.0878 -1.5040
 2054TIP3    H227654   1.795   2.577   5.974 -0.1989  1.9709  0.2324
 2055TIP3   OH227655   3.120   5.978  11.703  0.6939 -0.5339 -0.2290
 2055TIP3    H127656   3.063   6.021  11.639  1.6464 -0.9670 -1.3966
 2055TIP3    H227657   3.209   5.991  11.670  1.2339 -0.5976  1.1216
 2056TIP3   OH227658   5.979   3.797   4.370 -0.1326  0.3700  0.3195
 2056TIP3    H127659   6.004   3.889   4.373  1.2356  0.0302  0.2604
 2056TIP3    H227660   5.984   3.774   4.277  2.6870 -0.5100  0.5834
 2057TIP3   OH227661   3.082   4.635  13.693 -0.0500  0.1908  0.2350
 2057TIP3    H127662   3.078   4.634  13.597  0.7888 -0.3709  0.1894
 2057TIP3    H227663   3.027   4.562  13.720  2.0655 -1.5966  0.0211
 2058TIP3   OH227664   1.793   3.306   5.031  0.4292  0.0526 -0.0057
 2058TIP3    H127665   1.812   3.332   5.121  2.0184 -0.1089 -0.2614
 2058TIP3    H227666   1.759   3.217   5.037 -0.0267  0.2569  0.4708
 2059TIP3   OH227667   0.277   2.216   0.547 -0.1164  0.0068  0.8335
 2059TIP3    H127668   0.348   2.183   0.492  0.1246  1.4361  0.2383
 2059TIP3    H227669   0.321   2.248   0.626  0.1060  1.8667  0.0296
 2060TIP3   OH227670   4.245   0.301   4.776  0.7075  0.1665 -0.3944
 2060TIP3    H127671   4.326   0.352   4.781  0.7178  0.1766 -0.6725
 2060TIP3    H227672   4.272   0.215   4.746  0.5563  0.3120 -0.9566
 2061TIP3   OH227673   1.189   5.827   4.427 -0.4338 -0.3241 -0.1240
 2061TIP3    H127674   1.101   5.861   4.408 -0.1757  0.0465 -0.6898
 2061TIP3    H227675   1.235   5.902   4.464  0.3503  0.1782 -2.0089
 2062TIP3   OH227676   4.031   3.071  14.892 -0.1296  0.0537 -0.1021
 2062TIP3    H127677   4.013   3.086  14.985  0.5240  1.1390 -0.1355
 2062TIP3    H227678   4.099   3.004  14.891 -1.6158 -1.5269  0.1170
 2063TIP3   OH227679   2.435   4.670   1.758 -0.2426 -0.6373 -0.3160
 2063TIP3    H127680   2.527   4.648   1.774 -0.5985 -1.0940  1.3470
 2063TIP3    H227681   2.404   4.602   1.698  0.1483 -1.3758  0.2874
 2064TIP3   OH227682   0.637   4.877  12.372 -0.0989 -0.3460 -0.2856
 2064TIP3    H127683   0.592   4.910  12.294  0.0115  1.3272  0.3091
 2064TIP3    H227684   0.572   4.823  12.417 -1.6404  2.0659  0.5986
 2065TIP3   OH227685   4.990   5.617   0.179  0.4335 -0.0358  0.4704
 2065TIP3    H127686   5.021   5.695   0.133 -1.1862  0.3365 -0.0751
 2065TIP3    H227687   4.983   5.645   0.270  1.4907 -0.0787  0.5747
 2066TIP3   OH227688   2.883   1.763  14.710  0.1108  0.4449  0.3553
 2066TIP3    H127689   2.889   1.823  14.636  3.6363  0.4003  0.4338
 2066TIP3    H227690   2.802   1.788  14.755 -1.0914  1.7764 -2.3617
 2067TIP3   OH227691   0.755   4.118  13.343 -1.0482 -0.0361  0.5727
 2067TIP3    H127692   0.748   4.080  13.255 -1.3389  0.0564  0.5534
 2067TIP3    H227693   0.849   4.126  13.358 -0.9852  0.8837 -0.1484
 2068TIP3   OH227694   4.523   6.244  12.267  0.4582 -0.3034  0.3395
 2068TIP3    H127695   4.496   6.291  12.346  0.9215  0.5677 -0.0020
 2068TIP3    H227696   4.531   6.153  12.294  1.4238  0.1043  1.5070
 2069TIP3   OH227697   3.997   0.635   0.798 -0.4314 -0.4093 -0.3976
 2069TIP3    H127698   3.909   0.626   0.761  0.3542 -0.4298 -2.3671
 2069TIP3    H227699   4.050   0.670   0.727  1.4053 -1.4141  0.3914
 2070TIP3   OH227700   4.298   5.391   2.073  0.0226 -0.0368 -0.2481
 2070TIP3    H127701   4.276   5.446   1.998 -0.7169 -1.0157 -0.7815
 2070TIP3    H227702   4.240   5.421   2.143  1.4966  1.6423  0.3233
 2071TIP3   OH227703   3.447   6.419  16.573  0.3153  0.2715  0.5263
 2071TIP3    H127704   3.423   6.491  16.631  0.0266  0.3126  0.3582
 2071TIP3    H227705   3.446   6.458  16.485 -0.1947 -0.0266  0.3969
 2072TIP3   OH227706   0.578   4.426  13.321  0.0552 -0.2009 -0.5083
 2072TIP3    H127707   0.593   4.436  13.227 -1.9663 -0.6889 -0.9147
 2072TIP3    H227708   0.491   4.388  13.328  0.4103 -0.7552  1.5645
 2073TIP3   OH227709   2.451   3.273   2.984 -0.0004 -0.7508 -0.0007
 2073TIP3    H127710   2.484   3.354   2.944  0.9872 -0.5688  1.1262
 2073TIP3    H227711   2.367   3.257   2.939  0.0506  0.5803 -0.6377
 2074TIP3   OH227712   4.313   3.062   6.010  0.1764 -0.1664  0.1526
 2074TIP3    H127713   4.293   3.036   6.100 -2.5640  0.6277 -0.1522
 2074TIP3    H227714   4.385   3.005   5.984 -1.1609 -2.7370  1.7423
 2075TIP3   OH227715   2.604   5.602   3.552 -0.1909  0.4490  0.0296
 2075TIP3    H127716   2.513   5.575   3.546  0.2476 -1.2778  0.5781
 2075TIP3    H227717   2.638   5.595   3.463 -0.6167  1.2927 -0.2130
 2076TIP3   OH227718   1.745   2.052  14.347 -0.1508 -0.2638 -0.0009
 2076TIP3    H127719   1.806   2.126  14.340  0.5160 -0.6811  1.2106
 2076TIP3    H227720   1.674   2.084  14.403  0.1859 -0.5622  0.6034
 2077TIP3   OH227721   0.349   5.046  15.581  0.4682 -0.0824  0.1069
 2077TIP3    H127722   0.286   5.071  15.513 -0.4353 -0.1889  0.8845
 2077TIP3    H227723   0.435   5.065  15.543 -0.0263 -0.0146 -1.0080
 2078TIP3   OH227724   2.438   2.859  14.620  0.2020  0.5076  0.0324
 2078TIP3    H127725   2.397   2.937  14.585 -2.6642 -0.9943 -0.2182
 2078TIP3    H227726   2.490   2.825  14.547 -0.4771  0.8897 -0.6461
 2079TIP3   OH227727   4.514   5.135  13.354  0.2853  0.2935  0.2413
 2079TIP3    H127728   4.426   5.132  13.317  0.6609  1.5396 -0.8263
 2079TIP3    H227729   4.510   5.204  13.420  1.1681  2.5674 -1.9375
 2080TIP3   OH227730   1.452   6.393  14.304 -0.0087  0.5409 -0.1109
 2080TIP3    H127731   1.439   6.307  14.263  0.0564 -0.4722  1.8652
 2080TIP3    H227732   1.376   6.404  14.361 -0.0975  1.9050 -0.4496
 2081TIP3   OH227733   6.072   4.232   2.540  0.0756 -0.0639  0.2237
 2081TIP3    H127734   6.061   4.245   2.446 -0.3311 -0.0704  0.2677
 2081TIP3    H227735   5.982   4.224   2.573  0.1004  1.8748  0.8931
 2082TIP3   OH227736   0.770   6.291   1.307  0.0065 -0.0475  0.4116
 2082TIP3    H127737   0.759   6.221   1.372 -5.6306  0.9635  1.0751
 2082TIP3    H227738   0.790   6.369   1.359  3.2240 -0.4172 -0.0567
 2083TIP3   OH227739   4.556   2.417   3.671 -0.2701  0.3481  0.1233
 2083TIP3    H127740   4.541   2.372   3.588  2.7613  2.5997 -1.9110
 2083TIP3    H227741   4.508   2.499   3.663  2.4530  1.9828 -0.9686
 2084TIP3   OH227742   3.780   0.287   4.993 -0.1514  0.0333  0.0337
 2084TIP3    H127743   3.695   0.312   4.956 -0.6208  0.4594  1.3053
 2084TIP3    H227744   3.829   0.369   4.998  0.3733 -0.2230 -0.7562
 2085TIP3   OH227745   0.218   5.605  13.578 -0.1258  0.5168 -0.3818
 2085TIP3    H127746   0.304   5.563  13.574 -0.2339  0.3947 -2.2910
 2085TIP3    H227747   0.161   5.547  13.528 -1.8801 -0.4944  2.4996
 2086TIP3   OH227748   6.323   1.639   3.468 -0.7566  0.0367 -0.1058
 2086TIP3    H127749   6.254   1.592   3.421 -1.3063  0.5489  0.1727
 2086TIP3    H227750   6.288   1.651   3.556 -1.0917  1.9084 -0.4599
 2087TIP3   OH227751   2.843   6.214  15.986  0.0558 -0.5299  0.0011
 2087TIP3    H127752   2.823   6.141  16.044 -0.1332  2.0717  3.5446
 2087TIP3    H227753   2.930   6.243  16.014 -0.8352  1.9792  0.3685
 2088TIP3   OH227754   4.963   5.722   4.972  0.3091 -0.4898 -0.0514
 2088TIP3    H127755   4.909   5.654   5.011 -1.8399  1.0778 -0.0874
 2088TIP3    H227756   5.016   5.756   5.045  1.6154 -2.2872 -0.0959
 2089TIP3   OH227757   3.252   3.876  16.121 -0.6895  0.0203 -0.6527
 2089TIP3    H127758   3.256   3.786  16.088 -0.1258 -0.0056 -0.5362
 2089TIP3    H227759   3.343   3.896  16.146 -0.5549  1.0633 -1.8792
 2090TIP3   OH227760   6.380   6.413  17.149  0.6121  0.3225  0.2438
 2090TIP3    H127761   6.471   6.419  17.120  0.6885 -1.9556 -0.1976
 2090TIP3    H227762   6.347   6.503  17.146  2.5836  1.0633 -0.4235
 2091TIP3   OH227763   2.160   1.909   0.532 -0.2769 -0.1785 -0.5344
 2091TIP3    H127764   2.170   1.914   0.437  1.0691 -1.1992 -0.4877
 2091TIP3    H227765   2.131   1.820   0.548  0.8361 -0.4518  0.0728
 2092TIP3   OH227766   3.140   3.102  14.073  0.6041  0.3657 -0.3746
 2092TIP3    H127767   3.051   3.114  14.107  0.3053  1.0300 -1.3199
 2092TIP3    H227768   3.133   3.126  13.980  1.7595  0.3729 -0.4760
 2093TIP3   OH227769   0.872   4.944  11.123 -0.1721  0.3427 -0.6098
 2093TIP3    H127770   0.857   4.946  11.029 -1.6642 -0.6431 -0.4335
 2093TIP3    H227771   0.805   4.885  11.157  0.1596  0.8759  1.1077
 2094TIP3   OH227772   6.344   5.052   2.684 -0.2674  0.2771 -0.2324
 2094TIP3    H127773   6.303   5.136   2.660 -1.6626 -0.3546 -0.1779
 2094TIP3    H227774   6.401   5.074   2.757 -0.6240  1.1943 -0.2100
 2095TIP3   OH227775   2.570   1.156  10.948  0.0009  0.1730 -0.2988
 2095TIP3    H127776   2.536   1.112  10.870  1.4819 -1.4964 -0.0481
 2095TIP3    H227777   2.657   1.119  10.961  0.6702  2.0329  0.8975
 2096TIP3   OH227778   1.839   2.232  11.520 -0.8250 -0.4494 -0.3498
 2096TIP3    H127779   1.792   2.149  11.512 -0.9160 -0.3540 -0.8275
 2096TIP3    H227780   1.879   2.245  11.434  0.5188 -0.7846  0.1917
 2097TIP3   OH227781   1.381   1.394   3.308  0.1670  0.4697 -0.2495
 2097TIP3    H127782   1.343   1.308   3.324  0.0701  0.3849 -0.9102
 2097TIP3    H227783   1.309   1.447   3.275  0.9549 -0.2710 -3.5547
 2098TIP3   OH227784   6.143   0.959   0.063  0.1680  0.2225  0.4304
 2098TIP3    H127785   6.110   0.957   0.153  0.9393  0.6622  0.7337
 2098TIP3    H227786   6.180   0.872   0.049 -1.2847 -0.3510  0.0091
 2099TIP3   OH227787   0.031   5.986   1.330 -0.3993 -0.0106 -0.2307
 2099TIP3    H127788   0.097   6.050   1.353 -1.4297  1.4529 -1.1476
 2099TIP3    H227789  -0.048   6.015   1.377  0.0233 -2.9663  2.6553
 2100TIP3   OH227790   2.500   2.652   0.998 -0.3024  0.7078 -0.1674
 2100TIP3    H127791   2.556   2.651   1.076  2.1878 -0.7464 -1.8087
 2100TIP3    H227792   2.519   2.737   0.957  1.6468 -0.1810 -1.2467
 2101TIP3   OH227793   0.098   3.765  11.575  0.1859  0.6671  0.1022
 2101TIP3    H127794   0.061   3.757  11.487  0.6314  1.5201 -0.1818
 2101TIP3    H227795   0.037   3.719  11.632 -0.5361  0.8020 -0.5493
 2102TIP3   OH227796   2.444   5.650  10.617 -0.2164 -0.0757  0.6718
 2102TIP3    H127797   2.528   5.613  10.644 -0.8037 -1.9495  0.0314
 2102TIP3    H227798   2.379   5.588  10.649 -1.2850  0.6606 -0.0251
 2103TIP3   OH227799   6.058   1.173   2.866  0.1508 -0.0826  0.0356
 2103TIP3    H127800   6.100   1.088   2.876 -1.8139 -0.9889  1.1209
 2103TIP3    H227801   5.969   1.153   2.836 -0.3404  1.5924  0.2577
 2104TIP3   OH227802   4.977   5.167   4.419 -0.3741  0.7628 -0.7092
 2104TIP3    H127803   5.029   5.170   4.500  0.5347  0.6417 -1.2780
 2104TIP3    H227804   5.000   5.083   4.379  1.1955  1.9251 -2.3826
 2105TIP3   OH227805   1.685   5.217   1.351  0.3960 -0.2951  0.1238
 2105TIP3    H127806   1.629   5.235   1.426 -1.9579 -1.1862 -1.2770
 2105TIP3    H227807   1.744   5.292   1.346  0.5221 -0.1422  2.7201
 2106TIP3   OH227808   6.019   5.126  13.622  0.0395  0.1634  0.0340
 2106TIP3    H127809   6.054   5.146  13.709 -1.3136 -2.9006  1.4106
 2106TIP3    H227810   6.095   5.095  13.572  0.1827 -2.4142  1.6653
 2107TIP3   OH227811   2.342   3.895   3.236 -0.0727 -0.5192 -0.0434
 2107TIP3    H127812   2.367   3.858   3.152  0.9314  1.9720 -0.9236
 2107TIP3    H227813   2.246   3.900   3.233  0.0002  0.3177 -1.3987
 2108TIP3   OH227814   6.677   1.650   3.442 -0.5292 -0.1826 -0.0816
 2108TIP3    H127815   6.695   1.625   3.351  0.6913  2.3579 -0.6375
 2108TIP3    H227816   6.727   1.731   3.454 -2.9817  1.1605  1.9486
 2109TIP3   OH227817   5.403   4.682   0.659  0.6377 -0.4550  0.8230
 2109TIP3    H127818   5.485   4.637   0.681  1.3281  0.0705 -0.5648
 2109TIP3    H227819   5.401   4.683   0.564 -1.6707 -1.6252  0.7898
 2110TIP3   OH227820   3.018   5.204  13.221 -0.5713 -0.2476  0.8597
 2110TIP3    H127821   2.960   5.275  13.195 -0.3102  0.0017  0.9488
 2110TIP3    H227822   3.033   5.154  13.141 -1.1500 -0.4942  0.9004
 2111TIP3   OH227823   4.071   4.246  15.799 -0.4638 -0.3863  1.0636
 2111TIP3    H127824   4.090   4.186  15.727  0.4862  0.3253  0.7039
 2111TIP3    H227825   3.985   4.218  15.831 -1.4009 -0.0554 -1.0175
 2112TIP3   OH227826   0.010   3.956   3.480 -0.0513  0.5808 -0.5640
 2112TIP3    H127827   0.088   3.987   3.436 -0.4807  1.8164 -0.4792
 2112TIP3    H227828   0.009   3.861   3.463  0.7946  0.7397 -1.5923
 2113TIP3   OH227829   1.753   3.601  14.820 -0.4961 -0.3478 -0.2889
 2113TIP3    H127830   1.804   3.624  14.899  0.8944 -0.0794 -1.2247
 2113TIP3    H227831   1.818   3.566  14.759 -1.3281  0.6013 -1.7807
 2114TIP3   OH227832   4.239   4.278   4.954  0.5394  0.4668 -0.0499
 2114TIP3    H127833   4.179   4.350   4.936 -0.3210  0.1962  1.5069
 2114TIP3    H227834   4.183   4.207   4.986  1.5952 -0.0532  0.7339
 2115TIP3   OH227835   2.873   1.385  16.805 -0.0608 -0.2906 -0.4441
 2115TIP3    H127836   2.829   1.305  16.833 -1.4792 -0.1570 -2.1265
 2115TIP3    H227837   2.937   1.402  16.874 -0.4975 -2.2333  0.5212
 2116TIP3   OH227838   0.811   1.507  13.219 -0.0923  0.3322 -0.1275
 2116TIP3    H127839   0.720   1.490  13.197  0.0823 -1.4106  0.3249
 2116TIP3    H227840   0.833   1.439  13.283  1.3223  1.1567  0.3051
 2117TIP3   OH227841   3.129   5.615  16.615 -0.2439  0.6236  0.0990
 2117TIP3    H127842   3.086   5.672  16.552 -0.4904  0.9726  0.5850
 2117TIP3    H227843   3.192   5.671  16.660 -0.5746  0.5529  0.6660
 2118TIP3   OH227844   0.776   2.035  11.284  0.7334  0.8207  0.0416
 2118TIP3    H127845   0.785   2.057  11.376 -0.7019 -0.4971  0.5272
 2118TIP3    H227846   0.812   1.947  11.277 -0.4263  0.3689 -0.3756
 2119TIP3   OH227847   5.408   3.875  15.931 -0.1759 -0.6550  0.7620
 2119TIP3    H127848   5.401   3.785  15.899  0.7001 -0.6185  0.4357
 2119TIP3    H227849   5.320   3.911  15.922 -0.5385 -1.4858  0.9156
 2120TIP3   OH227850   5.217   5.876  17.106  0.0006  0.1986 -0.5823
 2120TIP3    H127851   5.233   5.841  17.194  2.1145  1.4747 -0.3687
 2120TIP3    H227852   5.126   5.907  17.108 -0.3986 -0.9722  0.7111
 2121TIP3   OH227853   2.412   6.684  15.448  0.1329 -0.0437 -0.7373
 2121TIP3    H127854   2.385   6.686  15.356 -0.2511 -2.4131 -0.7257
 2121TIP3    H227855   2.422   6.591  15.468  0.1384  0.4196  1.6518
 2122TIP3   OH227856   4.601   5.038   3.800  0.3205 -0.2359 -0.8390
 2122TIP3    H127857   4.636   5.121   3.832 -1.4852  0.4416 -0.5208
 2122TIP3    H227858   4.506   5.052   3.796 -0.0522 -2.3905 -0.4830
 2123TIP3   OH227859   1.877   5.790   1.850  0.0866  0.0321  0.1665
 2123TIP3    H127860   1.954   5.826   1.894 -0.0226 -0.8604  1.1443
 2123TIP3    H227861   1.872   5.699   1.882 -1.0843 -0.0656 -0.2540
 2124TIP3   OH227862   0.580   2.706   2.083  0.2885 -0.2298 -0.4380
 2124TIP3    H127863   0.494   2.712   2.124  0.4186 -0.0481 -0.1890
 2124TIP3    H227864   0.607   2.615   2.097  1.3423  0.3652  1.9586
 2125TIP3   OH227865   4.434   6.176  14.951  0.2998 -1.1894 -0.6454
 2125TIP3    H127866   4.522   6.195  14.918  0.0610  2.0710  0.2322
 2125TIP3    H227867   4.448   6.113  15.022  2.0009 -0.5180 -0.3383
 2126TIP3   OH227868   1.816   4.886  13.392 -0.0653 -0.5892  0.2822
 2126TIP3    H127869   1.823   4.809  13.335  1.3607 -1.2855  1.3164
 2126TIP3    H227870   1.900   4.931  13.381  0.5883 -1.1867  2.3859
 2127TIP3   OH227871   3.090   4.187   3.495 -0.0114 -0.1416 -0.2457
 2127TIP3    H127872   3.185   4.180   3.490  0.1137 -0.5217  1.7812
 2127TIP3    H227873   3.057   4.128   3.427  1.2075 -0.9873 -0.1214
 2128TIP3   OH227874   5.055   1.167   6.179  0.5480  0.0465 -0.4728
 2128TIP3    H127875   5.009   1.215   6.248  0.1569  0.7054 -1.1798
 2128TIP3    H227876   4.987   1.146   6.116  1.0469  0.1622 -1.0557
 2129TIP3   OH227877   5.899   6.160  16.978 -0.5027 -0.0665 -0.1612
 2129TIP3    H127878   5.909   6.155  16.883 -1.0714 -0.4282 -0.2118
 2129TIP3    H227879   5.914   6.252  16.999 -1.3016  0.2078 -0.7262
 2130TIP3   OH227880   5.148   6.065   0.287 -0.8444  0.2083  0.0952
 2130TIP3    H127881   5.226   6.089   0.237 -0.4979  0.4156  0.7180
 2130TIP3    H227882   5.166   6.096   0.376 -1.8789  0.7947  0.1299
 2131TIP3   OH227883   5.675   5.116  14.022 -0.2400  0.5407 -0.4856
 2131TIP3    H127884   5.645   5.045  14.078  2.4193 -1.0069 -0.8889
 2131TIP3    H227885   5.653   5.196  14.071 -0.7432 -0.6409  1.2958
 2132TIP3   OH227886   0.114   0.708  13.462 -0.4801 -0.2263 -0.6395
 2132TIP3    H127887   0.188   0.718  13.402 -0.2690 -0.4480 -0.4216
 2132TIP3    H227888   0.039   0.688  13.405 -0.7835  1.8134 -1.0200
 2133TIP3   OH227889   5.132   5.501  15.538 -0.0063 -0.2982 -0.0823
 2133TIP3    H127890   5.083   5.425  15.569 -1.4826 -0.1159 -1.7567
 2133TIP3    H227891   5.203   5.465  15.485  0.4727 -0.5272  0.7032
 2134TIP3   OH227892   6.623   3.875  16.781  0.1587  0.0148 -0.5854
 2134TIP3    H127893   6.657   3.876  16.871  1.5810 -1.6759 -1.0556
 2134TIP3    H227894   6.534   3.841  16.790  0.3643 -0.3628  0.1553
 2135TIP3   OH227895   2.845   2.587  15.365  0.2337  0.4157 -0.3490
 2135TIP3    H127896   2.840   2.683  15.358  0.0960  0.3789 -0.8493
 2135TIP3    H227897   2.895   2.571  15.445  0.0656  0.9054 -0.1429
 2136TIP3   OH227898   3.827   4.950   1.724  0.3324 -0.2859  0.3594
 2136TIP3    H127899   3.752   4.920   1.774  0.3046 -0.4591  0.2149
 2136TIP3    H227900   3.800   4.942   1.633  0.1504  0.6240  0.3207
 2137TIP3   OH227901   3.870   6.024  16.587 -0.1953  0.1481 -0.0740
 2137TIP3    H127902   3.904   6.098  16.638 -0.1909  0.6378 -0.7768
 2137TIP3    H227903   3.776   6.040  16.582 -0.2204  0.0022 -0.0640
 2138TIP3   OH227904   2.068   3.089  15.047 -0.4827  0.2939 -0.4031
 2138TIP3    H127905   2.125   3.139  15.104 -1.3987  1.9193 -0.8420
 2138TIP3    H227906   2.040   3.152  14.980 -1.4023 -0.9019 -1.1884
 2139TIP3   OH227907   2.492   3.830   4.194  0.5729  0.3219 -0.0632
 2139TIP3    H127908   2.420   3.785   4.150  0.8300  1.1557 -1.3727
 2139TIP3    H227909   2.449   3.897   4.248  0.3761  1.2816 -1.3790
 2140TIP3   OH227910   4.549   2.474  16.421 -0.0408  0.0048 -0.2472
 2140TIP3    H127911   4.482   2.473  16.489  0.2956 -1.1785  0.0821
 2140TIP3    H227912   4.619   2.417  16.455  1.3703  1.5756 -0.3520
 2141TIP3   OH227913   1.993   3.258   2.023 -0.1594 -0.9269 -0.1413
 2141TIP3    H127914   2.078   3.291   2.050 -0.8495  0.7176  0.1487
 2141TIP3    H227915   1.936   3.272   2.099 -1.0071 -0.7287 -0.7926
 2142TIP3   OH227916   3.083   1.417  11.662  0.3437  0.5043  0.0717
 2142TIP3    H127917   3.166   1.465  11.659 -0.5782  2.2794  1.2181
 2142TIP3    H227918   3.020   1.476  11.620 -0.0939 -1.5524 -2.4715
 2143TIP3   OH227919   6.470   2.169  15.287 -0.3212 -0.0432 -0.0506
 2143TIP3    H127920   6.536   2.111  15.250 -0.4245 -0.0665 -0.1986
 2143TIP3    H227921   6.391   2.115  15.294 -1.0342  0.6337 -2.1686
 2144TIP3   OH227922   3.976   3.801   2.422 -0.1389 -0.2868 -0.1076
 2144TIP3    H127923   4.070   3.804   2.405 -0.0409 -2.2993 -0.1481
 2144TIP3    H227924   3.947   3.719   2.383 -2.0270  0.5362 -0.5365
 2145TIP3   OH227925   0.420   2.059   0.354  0.5136 -0.1468  0.7106
 2145TIP3    H127926   0.370   1.977   0.349  2.0045 -1.0562 -0.2789
 2145TIP3    H227927   0.436   2.082   0.263  0.4319  1.0766  0.9889
 2146TIP3   OH227928   1.213   1.825   2.205  0.0466  0.9795 -0.4445
 2146TIP3    H127929   1.174   1.737   2.206  0.6849  0.6113 -2.6181
 2146TIP3    H227930   1.139   1.884   2.216 -0.9053  0.2357 -2.3641
 2147TIP3   OH227931   0.809   0.182   2.452  0.3849  0.2797 -0.1720
 2147TIP3    H127932   0.874   0.116   2.477  1.2375  1.8359  2.1087
 2147TIP3    H227933   0.813   0.186   2.357  1.3503 -1.8956 -0.2614
 2148TIP3   OH227934   3.231   4.427  16.297  0.2806 -0.3765  0.0804
 2148TIP3    H127935   3.283   4.433  16.377 -0.9617 -1.0485  0.9610
 2148TIP3    H227936   3.296   4.424  16.227  1.4779 -1.8572  1.1848
 2149TIP3   OH227937   3.634   6.027   4.588  0.0285  0.4214  0.1744
 2149TIP3    H127938   3.716   6.068   4.560 -0.1448  0.5556 -0.1432
 2149TIP3    H227939   3.661   5.946   4.630  0.2963  0.2141 -0.3926
 2150TIP3   OH227940   5.477   1.228   4.893  0.0928 -0.0162  0.5937
 2150TIP3    H127941   5.554   1.284   4.884 -0.9528  1.3411 -0.3663
 2150TIP3    H227942   5.512   1.142   4.913  1.9414  0.2695 -1.1208
 2151TIP3   OH227943   4.500   6.064   2.399 -0.0582 -0.0723  1.0514
 2151TIP3    H127944   4.551   5.996   2.442  0.8450  0.6780  1.1902
 2151TIP3    H227945   4.410   6.045   2.423  0.2374 -0.8709  1.5728
 2152TIP3   OH227946   6.232   1.304  13.195  0.1649  0.3593  0.3320
 2152TIP3    H127947   6.239   1.210  13.211 -0.6118  0.0719 -0.9081
 2152TIP3    H227948   6.143   1.317  13.164  0.0522  1.6178  1.0841
 2153TIP3   OH227949   5.867   2.933  15.206  0.2881 -0.6075  0.0765
 2153TIP3    H127950   5.870   2.839  15.190 -0.9147 -0.3723 -1.9015
 2153TIP3    H227951   5.774   2.956  15.195  0.2763  0.5606  2.2385
 2154TIP3   OH227952   5.701   4.077   5.688  0.4981  0.0293 -0.2361
 2154TIP3    H127953   5.607   4.061   5.687  0.3913  0.6424 -0.6738
 2154TIP3    H227954   5.732   4.033   5.766  0.3337 -2.7784 -1.6462
 2155TIP3   OH227955   2.810   2.570   2.964 -0.0535  0.0918  0.5170
 2155TIP3    H127956   2.758   2.602   2.890 -1.0319  0.1475  1.2147
 2155TIP3    H227957   2.775   2.483   2.982 -0.7673  0.6227  1.7940
 2156TIP3   OH227958   6.511   4.258   5.985  0.1541  0.2619 -0.6510
 2156TIP3    H127959   6.539   4.186   6.042  0.5450 -0.3035 -1.5324
 2156TIP3    H227960   6.421   4.276   6.012  1.1380  1.7555  1.8760
 2157TIP3   OH227961   0.814   1.456   3.167 -0.2823 -0.6044  0.3063
 2157TIP3    H127962   0.733   1.408   3.180 -0.9010 -0.4477 -2.3211
 2157TIP3    H227963   0.789   1.532   3.114  1.1784  0.9107  1.6667
 2158TIP3   OH227964   0.061   2.364  15.600 -0.3556 -0.0087 -0.0019
 2158TIP3    H127965   0.070   2.290  15.540 -0.2489  1.1685 -1.4753
 2158TIP3    H227966  -0.030   2.391  15.592 -0.4053  0.0085  0.5667
 2159TIP3   OH227967   6.604   2.147  14.817  0.2549 -0.0129 -0.5062
 2159TIP3    H127968   6.534   2.213  14.810  0.3194  0.3718  1.6187
 2159TIP3    H227969   6.680   2.189  14.778 -0.6102 -0.3507 -2.6512
 2160TIP3   OH227970   2.707   0.062   0.399  0.4025  0.0613  0.2429
 2160TIP3    H127971   2.717   0.017   0.315 -0.0416  0.5491 -0.0812
 2160TIP3    H227972   2.768   0.018   0.458  0.4618 -0.5152 -0.2453
 2161TIP3   OH227973   0.977   6.798   1.055  0.4427 -0.2685  0.6314
 2161TIP3    H127974   1.051   6.777   1.112 -0.5525 -2.8048  1.1264
 2161TIP3    H227975   0.927   6.717   1.049 -0.5257  0.3936 -2.3915
 2162TIP3   OH227976   0.925   3.259  13.951  0.2121 -0.5877 -0.0918
 2162TIP3    H127977   0.911   3.295  13.863 -0.3915 -0.5546  0.0189
 2162TIP3    H227978   0.982   3.323  13.994 -3.1208  1.8282  1.0950
 2163TIP3   OH227979   3.280   6.745  14.222 -0.3007  0.6776 -0.4532
 2163TIP3    H127980   3.223   6.770  14.149  0.4386 -0.9863 -1.6472
 2163TIP3    H227981   3.241   6.664  14.256  0.4354  0.4103 -0.2348
 2164TIP3   OH227982   4.940   3.858  11.867 -0.1883 -0.3557 -0.0258
 2164TIP3    H127983   4.941   3.941  11.820  1.7391  1.6573  3.1989
 2164TIP3    H227984   4.878   3.803  11.818 -3.9500  3.9050 -0.6776
 2165TIP3   OH227985   1.953   3.443   2.780  0.1794 -0.5153  0.3866
 2165TIP3    H127986   1.956   3.456   2.685 -1.3553 -0.6221  0.3056
 2165TIP3    H227987   1.940   3.349   2.790  0.8134 -0.5727  0.7302
 2166TIP3   OH227988   6.809   3.277   1.561 -0.0702 -0.1938 -0.1210
 2166TIP3    H127989   6.715   3.258   1.566  0.0322 -0.5039  1.1205
 2166TIP3    H227990   6.849   3.192   1.541 -0.1434  0.2487 -2.4157
 2167TIP3   OH227991   1.349   5.918   3.871 -1.0780  0.1477 -0.3418
 2167TIP3    H127992   1.295   5.847   3.835  0.6260 -0.5679 -1.6731
 2167TIP3    H227993   1.354   5.899   3.964 -1.7584 -0.7229 -0.4641
 2168TIP3   OH227994   1.115   4.232  13.135  0.3720 -0.5290 -0.9638
 2168TIP3    H127995   1.117   4.311  13.080 -0.5690 -1.5803 -2.5942
 2168TIP3    H227996   1.093   4.161  13.074 -3.7965 -1.3630  1.1071
 2169TIP3   OH227997   1.140   0.823   2.158 -0.3558  0.5829 -0.1364
 2169TIP3    H127998   1.184   0.831   2.243 -0.4697  0.1035 -0.0290
 2169TIP3    H227999   1.209   0.838   2.093  0.0249 -0.4144  0.0242
 2170TIP3   OH228000   0.457   4.030   3.203 -0.0047  0.0080  0.1851
 2170TIP3    H128001   0.541   3.985   3.201  0.8703  1.5231  1.0111
 2170TIP3    H228002   0.412   3.996   3.280  0.4371  0.1940  0.5238
 2171TIP3   OH228003   1.785   4.115   4.796 -0.0599 -0.1149  0.4490
 2171TIP3    H128004   1.703   4.164   4.798  0.4165  0.6709  2.1669
 2171TIP3    H228005   1.809   4.113   4.703 -1.5312  0.4371  0.0234
 2172TIP3   OH228006   1.958   3.824   1.003 -0.3587 -0.0324 -0.1703
 2172TIP3    H128007   1.927   3.749   0.952 -0.1784 -0.6922  0.6653
 2172TIP3    H228008   2.050   3.805   1.020 -0.6025 -0.1957  1.0372
 2173TIP3   OH228009   4.153   2.431   2.277 -0.4050 -0.1914 -0.0895
 2173TIP3    H128010   4.211   2.356   2.265  2.2076  1.5239  1.0018
 2173TIP3    H228011   4.210   2.508   2.271 -2.8172  1.7295 -0.3623
 2174TIP3   OH228012   0.300   0.087   2.003 -0.4921 -0.3129 -0.1581
 2174TIP3    H128013   0.391   0.107   2.026  0.6392 -2.0951 -2.5884
 2174TIP3    H228014   0.276   0.015   2.062 -1.0551  1.3069  1.7151
 2175TIP3   OH228015   4.054   1.973  16.680  0.1023  0.0829 -0.4289
 2175TIP3    H128016   3.996   1.984  16.756 -1.0853  1.0389 -1.4317
 2175TIP3    H228017   4.067   2.062  16.647  0.8608 -0.2925 -1.1787
 2176TIP3   OH228018   0.447   4.209   0.373  0.1472 -0.2940 -0.2510
 2176TIP3    H128019   0.393   4.239   0.300 -0.4753 -1.0938 -0.1301
 2176TIP3    H228020   0.388   4.209   0.449  0.5240 -0.4249  0.0490
 2177TIP3   OH228021   2.681   0.495  12.134 -0.0255  0.0711  0.5743
 2177TIP3    H128022   2.672   0.567  12.197  0.9929 -0.2265  1.0761
 2177TIP3    H228023   2.592   0.460  12.125 -0.6191  1.6138  0.0289
 2178TIP3   OH228024   1.940   4.740  10.532 -0.2380 -0.3053 -0.2585
 2178TIP3    H128025   1.865   4.683  10.551 -1.1812  1.3572  1.3584
 2178TIP3    H228026   1.903   4.814  10.485  0.2786  0.7015  0.8490
 2179TIP3   OH228027   4.492   3.788  11.707  0.0366  0.0699  0.6930
 2179TIP3    H128028   4.411   3.832  11.681 -0.5441 -1.6005 -0.5029
 2179TIP3    H228029   4.477   3.762  11.798 -1.1225 -0.9347  0.2360
 2180TIP3   OH228030   5.829   0.514  13.749  0.1158  0.4535 -0.2174
 2180TIP3    H128031   5.848   0.476  13.834  0.9235  1.1036 -0.0897
 2180TIP3    H228032   5.815   0.439  13.691  1.4059 -0.0258  0.0749
 2181TIP3   OH228033   0.230   5.865   2.148  0.4108 -0.0044  0.0216
 2181TIP3    H128034   0.297   5.926   2.179 -0.5866  1.1107  0.1016
 2181TIP3    H228035   0.222   5.882   2.054 -0.4413  0.6099  0.1868
 2182TIP3   OH228036   3.294   2.646  16.031 -0.0398 -0.1921 -0.1150
 2182TIP3    H128037   3.377   2.671  16.071  1.1868 -3.6030 -0.1193
 2182TIP3    H228038   3.305   2.552  16.013 -3.1106 -0.2810 -2.1401
 2183TIP3   OH228039   1.625   1.877  11.874  0.3478 -0.0789 -0.5232
 2183TIP3    H128040   1.567   1.810  11.838 -0.3399  1.7519 -3.1151
 2183TIP3    H228041   1.709   1.862  11.832  0.8824 -0.7212  0.7257
 2184TIP3   OH228042   0.998   2.247  16.430 -0.6337 -0.2915 -0.3252
 2184TIP3    H128043   1.010   2.340  16.453  0.8587 -0.7828  1.0296
 2184TIP3    H228044   1.078   2.223  16.384 -1.1611 -0.8533 -0.9762
 2185TIP3   OH228045   6.228   5.085  14.838  0.3127 -0.5566 -0.0268
 2185TIP3    H128046   6.241   4.991  14.852  3.0672 -0.2066  0.3577
 2185TIP3    H228047   6.212   5.094  14.744  2.2200 -1.2865 -0.4667
 2186TIP3   OH228048   0.999   4.889   2.260  0.4197 -0.9244  0.4645
 2186TIP3    H128049   0.990   4.835   2.182 -0.4884 -1.3033  0.8079
 2186TIP3    H228050   1.064   4.955   2.237 -0.0443 -0.8571 -0.6997
 2187TIP3   OH228051   6.135   4.958  12.764 -0.5054 -0.0229  0.6248
 2187TIP3    H128052   6.077   4.883  12.775  0.7260 -0.9782  0.7813
 2187TIP3    H228053   6.105   5.021  12.829 -0.9374 -0.7782  1.1698
 2188TIP3   OH228054   4.031   1.653   4.721 -0.0939 -0.1299 -0.0871
 2188TIP3    H128055   4.053   1.742   4.695 -3.0913  0.9778  0.7885
 2188TIP3    H228056   3.979   1.618   4.649  1.9481 -1.6456 -0.9125
 2189TIP3   OH228057   4.874   1.106  14.751 -0.7703  0.2237  0.0610
 2189TIP3    H128058   4.905   1.191  14.720 -0.6610  0.2776  0.3152
 2189TIP3    H228059   4.870   1.051  14.672  0.8697 -0.0694  0.1489
 2190TIP3   OH228060   2.723   3.821   4.397  0.1179  0.0061 -0.0206
 2190TIP3    H128061   2.707   3.747   4.338 -0.4296  0.6200 -0.6647
 2190TIP3    H228062   2.640   3.869   4.398  0.9895  1.6158 -1.0719
 2191TIP3   OH228063   0.967   3.839   4.976  0.2199 -0.6723 -0.5119
 2191TIP3    H128064   0.880   3.870   4.953  0.4696  2.0402  1.6509
 2191TIP3    H228065   0.957   3.803   5.064  0.8193 -3.0509 -1.3339
 2192TIP3   OH228066   1.237   3.425   3.202 -0.1054 -0.2907  0.2012
 2192TIP3    H128067   1.207   3.506   3.243 -0.8163 -0.4780  0.0661
 2192TIP3    H228068   1.333   3.430   3.205  0.0046 -1.6037  4.4690
 2193TIP3   OH228069   1.212   1.715   6.761 -0.3135 -0.1986 -0.2566
 2193TIP3    H128070   1.183   1.752   6.844  0.0392 -1.0892  0.2844
 2193TIP3    H228071   1.133   1.713   6.707 -0.9290 -1.0906  0.6308
 2194TIP3   OH228072   3.359   5.199   2.868 -0.0574 -0.3025 -0.3498
 2194TIP3    H128073   3.276   5.166   2.903 -0.7515 -0.5509 -2.1359
 2194TIP3    H228074   3.367   5.158   2.782 -0.7394  3.7067 -2.5530
 2195TIP3   OH228075   5.076   5.320   1.748 -0.1697  0.2943  0.1672
 2195TIP3    H128076   5.149   5.315   1.809  0.0505  1.7757  0.0631
 2195TIP3    H228077   5.110   5.370   1.674 -2.2272  4.4417  1.6736
 2196TIP3   OH228078   5.119   2.775   5.089  0.2102  0.2103 -0.2287
 2196TIP3    H128079   5.214   2.785   5.092  0.2180  0.0824 -0.0320
 2196TIP3    H228080   5.086   2.846   5.144  0.2446 -0.5048  0.7398
 2197TIP3   OH228081   4.436   2.050  14.329  0.3053 -0.1486 -0.1362
 2197TIP3    H128082   4.528   2.054  14.356  0.5169 -2.5156 -0.2819
 2197TIP3    H228083   4.392   2.002  14.399 -0.3049 -1.1716 -1.1764
 2198TIP3   OH228084   4.717   2.264   3.404 -0.1349  0.4869 -0.1124
 2198TIP3    H128085   4.638   2.231   3.361  1.1502 -0.8660 -1.5722
 2198TIP3    H228086   4.751   2.190   3.453  2.2122 -0.2346 -2.5550
 2199TIP3   OH228087   1.660   6.447  10.638  0.2502 -0.8622 -0.0944
 2199TIP3    H128088   1.606   6.492  10.574 -1.1261 -1.6913  0.4211
 2199TIP3    H228089   1.721   6.395  10.586  1.1463  0.7115 -0.6873
 2200TIP3   OH228090   2.154   3.257   3.338 -0.0081 -0.3209  0.4466
 2200TIP3    H128091   2.221   3.298   3.392  1.3935 -0.4634 -1.1082
 2200TIP3    H228092   2.160   3.303   3.254 -2.3027  0.0847  0.4342
 2201TIP3   OH228093   0.209   0.647  15.432  0.1707  0.0012  0.2452
 2201TIP3    H128094   0.137   0.709  15.426 -1.1491 -1.5624 -0.9234
 2201TIP3    H228095   0.275   0.681  15.372 -1.0439 -0.3260 -1.3264
 2202TIP3   OH228096   2.066   4.416   2.560 -0.0545 -0.2082 -0.1377
 2202TIP3    H128097   1.990   4.456   2.518  0.7313  2.1498  0.5171
 2202TIP3    H228098   2.043   4.411   2.653  0.0900 -0.7054 -0.1268
 2203TIP3   OH228099   4.511   5.986   1.835 -0.1585 -0.3441 -0.0091
 2203TIP3    H128100   4.488   6.027   1.918 -2.4846  1.1416 -1.2957
 2203TIP3    H228101   4.607   5.981   1.837 -0.1370 -0.5284  2.7874
 2204TIP3   OH228102   6.218   6.265  14.506  0.2388  0.1232 -0.0610
 2204TIP3    H128103   6.280   6.333  14.530  2.4467 -2.1914  1.1604
 2204TIP3    H228104   6.132   6.304  14.522  1.4085  2.5361  0.7315
 2205TIP3   OH228105   0.114   4.904  10.500 -0.1492  0.6234 -0.1766
 2205TIP3    H128106   0.078   4.953  10.425  0.5676  1.3542 -0.0500
 2205TIP3    H228107   0.119   4.968  10.571  1.1931  0.4902 -0.1292
 2206TIP3   OH228108   3.220   3.000  10.595 -0.0905 -0.1331 -0.4998
 2206TIP3    H128109   3.274   3.075  10.570 -1.9320  1.3956 -0.1264
 2206TIP3    H228110   3.184   3.024  10.680 -0.1825 -1.7646 -0.0568
 2207TIP3   OH228111   1.749   1.943  12.141 -0.1512  0.0016  0.5245
 2207TIP3    H128112   1.738   1.921  12.048  3.6626  2.0125 -0.6154
 2207TIP3    H228113   1.716   2.033  12.148  2.1538  0.9207  0.3202
 2208TIP3   OH228114   1.972   6.791   1.236  0.2130 -0.0053 -0.3876
 2208TIP3    H128115   1.986   6.714   1.291 -0.2329 -0.0063 -0.2757
 2208TIP3    H228116   2.054   6.801   1.188  0.2350 -0.6144 -0.4815
 2209TIP3   OH228117   6.642   5.411  14.984  0.0345  0.6623  0.0179
 2209TIP3    H128118   6.690   5.354  14.925 -0.3103  0.9563 -0.5526
 2209TIP3    H228119   6.584   5.462  14.927 -0.6248  0.6317  0.6426
 2210TIP3   OH228120   1.372   2.014   0.299 -0.3007  0.1653 -0.1198
 2210TIP3    H128121   1.398   2.084   0.239 -0.9059  2.1074  1.7580
 2210TIP3    H228122   1.277   2.020   0.303 -0.2161  0.6655  1.6635
 2211TIP3   OH228123   4.510   6.678   0.394  0.2608  0.4963 -0.3270
 2211TIP3    H128124   4.416   6.659   0.402  0.5327 -2.3043 -2.2949
 2211TIP3    H228125   4.514   6.773   0.379 -2.1915  0.7607  0.1828
 2212TIP3   OH228126   0.337   4.674  13.314  0.2324  0.3284  0.4016
 2212TIP3    H128127   0.374   4.592  13.281 -0.9993  0.2119 -0.7922
 2212TIP3    H228128   0.367   4.740  13.252  0.2009  0.5797  0.6543
 2213TIP3   OH228129   5.298   1.880   5.064  0.2071 -0.0547 -0.2872
 2213TIP3    H128130   5.303   1.792   5.102  0.3456 -1.4509 -3.2588
 2213TIP3    H228131   5.387   1.900   5.037  0.3881  1.5474  1.3257
 2214TIP3   OH228132   5.812   6.074   0.535 -0.0528 -0.2024  0.4925
 2214TIP3    H128133   5.726   6.103   0.564 -1.0929 -1.2764 -1.3628
 2214TIP3    H228134   5.834   6.001   0.593 -0.1113  0.4313  1.3312
 2215TIP3   OH228135   0.418   5.139  10.481 -0.3493 -0.4990  0.7224
 2215TIP3    H128136   0.425   5.184  10.566  1.8713  0.1400  0.2677
 2215TIP3    H228137   0.483   5.069  10.486  0.8918  0.4729 -0.9588
 2216TIP3   OH228138   6.552   2.587   5.183  0.1390 -0.3036  0.4255
 2216TIP3    H128139   6.637   2.612   5.218 -0.0771  0.6532  0.2853
 2216TIP3    H228140   6.573   2.531   5.108  0.6189 -0.9846  1.0524
 2217TIP3   OH228141   1.335   0.872   1.977  0.0664  0.2685 -0.4516
 2217TIP3    H128142   1.367   0.849   1.890 -1.0793 -0.2885 -0.7363
 2217TIP3    H228143   1.405   0.844   2.036  0.4530 -0.1820 -1.1113
 2218TIP3   OH228144   4.558   2.852  14.773 -0.4335  0.1919  0.2105
 2218TIP3    H128145   4.513   2.935  14.763 -0.5234 -0.0744 -2.2131
 2218TIP3    H228146   4.491   2.786  14.756  0.4316 -0.2384 -1.8696
 2219TIP3   OH228147   1.204   6.689  17.022 -0.2596  0.4118  0.0127
 2219TIP3    H128148   1.157   6.691  16.939  1.4630  0.7291 -1.0163
 2219TIP3    H228149   1.246   6.603  17.023 -2.3744 -0.7157  1.8719
 2220TIP3   OH228150   3.027   6.086  15.019 -0.2274 -0.3733  0.0734
 2220TIP3    H128151   3.097   6.028  14.989 -0.0470 -0.9012  1.4299
 2220TIP3    H228152   2.988   6.121  14.939  1.5306 -0.1283 -0.7157
 2221TIP3   OH228153   3.704   6.062  14.753  0.4739  0.1463  0.0439
 2221TIP3    H128154   3.783   6.114  14.745 -0.4285  1.3896 -1.4001
 2221TIP3    H228155   3.714   5.993  14.688  0.3857  0.2813 -0.1125
 2222TIP3   OH228156   4.351   3.467  13.518  0.1954 -0.5386  0.0753
 2222TIP3    H128157   4.354   3.477  13.613  1.3699 -0.2199  0.0316
 2222TIP3    H228158   4.319   3.378  13.504 -1.6544 -0.0101  0.7101
 2223TIP3   OH228159   6.208   0.314   0.381  0.2277 -0.0275  0.0719
 2223TIP3    H128160   6.235   0.284   0.468 -0.1942 -0.9189 -0.0969
 2223TIP3    H228161   6.185   0.406   0.394 -4.1920 -1.1294  1.9788
 2224TIP3   OH228162   2.228   3.341  14.642  0.2398  0.3465 -0.2371
 2224TIP3    H128163   2.298   3.338  14.707  1.9877 -1.3919 -2.0900
 2224TIP3    H228164   2.272   3.355  14.559 -1.8867  1.8120 -1.2097
 2225TIP3   OH228165   4.948   2.731  16.843 -0.6676  0.0988 -0.2070
 2225TIP3    H128166   4.862   2.721  16.803 -0.7452 -0.6735  0.1226
 2225TIP3    H228167   4.932   2.719  16.937 -0.7140  3.1667  0.2781
 2226TIP3   OH228168   1.614   5.942  13.312  0.5249 -0.4236  0.3034
 2226TIP3    H128169   1.581   6.008  13.252  1.2042 -0.2591  0.0982
 2226TIP3    H228170   1.705   5.927  13.284  0.9714 -0.0801  1.5057
 2227TIP3   OH228171   4.101   4.089   1.219  0.1971 -0.0876  0.6570
 2227TIP3    H128172   4.092   4.152   1.291 -0.2132  0.4573  0.1494
 2227TIP3    H228173   4.189   4.054   1.228  1.0154  1.6907  0.0929
 2228TIP3   OH228174   5.514   4.831   5.603  0.1996  0.1746 -0.6199
 2228TIP3    H128175   5.457   4.870   5.669  1.8904  0.6657  0.6379
 2228TIP3    H228176   5.541   4.748   5.641  0.6429  0.1368 -1.0067
 2229TIP3   OH228177   2.718   4.667  15.619 -0.0107  0.0424 -0.2785
 2229TIP3    H128178   2.759   4.631  15.698 -1.0904  0.9462  0.7322
 2229TIP3    H228179   2.626   4.641  15.627  0.0989 -1.0065 -1.9494
 2230TIP3   OH228180   3.644   3.040  13.166  0.2198  0.0357  0.0321
 2230TIP3    H128181   3.704   3.102  13.207 -0.2377  0.6289 -0.1976
 2230TIP3    H228182   3.609   2.989  13.239 -0.5113  1.0183  0.3844
 2231TIP3   OH228183   1.462   5.652  15.373 -0.2744 -0.5621  0.2110
 2231TIP3    H128184   1.407   5.659  15.296 -0.9387 -0.5383  0.6790
 2231TIP3    H228185   1.485   5.559  15.377  0.5187 -0.4055 -0.5231
 2232TIP3   OH228186   0.100   4.833  13.013  0.3547  0.0489 -0.5780
 2232TIP3    H128187   0.013   4.840  12.975 -0.2918  0.6344  0.9337
 2232TIP3    H228188   0.088   4.779  13.091  1.7437 -1.5686 -1.4172
 2233TIP3   OH228189   2.240   2.721  13.168  0.0263  0.2906 -1.1527
 2233TIP3    H128190   2.215   2.712  13.076 -1.2145 -0.5222 -0.7677
 2233TIP3    H228191   2.162   2.757  13.210  0.6217  0.7600 -0.4262
 2234TIP3   OH228192   5.733   4.338   0.189 -0.0772 -0.8831  0.3389
 2234TIP3    H128193   5.739   4.245   0.165  1.6795 -0.6019 -0.4376
 2234TIP3    H228194   5.812   4.377   0.153 -1.0233  1.0331  0.2281
 2235TIP3   OH228195   3.639   5.512   4.627  0.7208 -0.6681  0.7764
 2235TIP3    H128196   3.648   5.462   4.708  0.2877 -1.4209  0.3719
 2235TIP3    H228197   3.679   5.456   4.560 -1.1485 -1.1990  0.0463
 2236TIP3   OH228198   3.754   6.559  12.061 -0.2304 -0.1917  0.3283
 2236TIP3    H128199   3.683   6.533  12.003  0.7883  0.8573 -1.4975
 2236TIP3    H228200   3.724   6.641  12.100  0.4829  1.0943 -1.6279
 2237TIP3   OH228201   2.509   0.926  16.445 -0.1618 -0.0786  0.0173
 2237TIP3    H128202   2.416   0.947  16.439 -0.5875 -1.2764  1.6349
 2237TIP3    H228203   2.539   0.971  16.525  0.7909  0.7034 -0.7530
 2238TIP3   OH228204   1.642   5.835  16.255 -0.0824  0.4630 -0.1570
 2238TIP3    H128205   1.588   5.906  16.220 -1.1595  0.1450  0.7982
 2238TIP3    H228206   1.605   5.756  16.216 -0.7384  0.1860  0.9707
 2239TIP3   OH228207   5.548   4.823   1.100  0.6955  0.1070  0.0203
 2239TIP3    H128208   5.502   4.907   1.097  0.7240  0.1625  0.8267
 2239TIP3    H228209   5.532   4.784   1.014  0.6857  0.9364 -0.3722
 2240TIP3   OH228210   2.527   5.750  16.056 -0.0367  0.3299 -0.6256
 2240TIP3    H128211   2.496   5.673  16.103  0.7279  0.3417 -0.0925
 2240TIP3    H228212   2.556   5.811  16.124 -0.3348  0.9627 -1.0554
 2241TIP3   OH228213   1.226   5.451  15.379 -0.0140 -0.0305 -0.0317
 2241TIP3    H128214   1.314   5.424  15.407  0.1900  1.0983  0.4831
 2241TIP3    H228215   1.180   5.369  15.362  0.3594 -0.7506  2.1021
 2242TIP3   OH228216   5.245   4.954   2.737 -0.1060  0.1156  0.3414
 2242TIP3    H128217   5.293   4.924   2.660  0.2608 -0.9229  0.9533
 2242TIP3    H228218   5.208   5.038   2.711 -0.7095 -0.5999 -1.2732
 2243TIP3   OH228219   2.987   1.668   2.604 -0.7416 -0.0990 -0.5087
 2243TIP3    H128220   2.911   1.716   2.634 -1.0373  0.1919 -1.6565
 2243TIP3    H228221   3.004   1.703   2.516  0.9369  0.1105 -0.1372
 2244TIP3   OH228222   3.563   1.051   2.736 -0.0545  0.0186  0.5658
 2244TIP3    H128223   3.642   1.053   2.682 -0.4083 -0.7871 -0.0059
 2244TIP3    H228224   3.588   1.094   2.817  0.4844  1.3006 -0.2418
 2245TIP3   OH228225   5.355   1.761   0.183  0.5234  0.0569  0.2911
 2245TIP3    H128226   5.281   1.701   0.183  0.2632  0.3787  0.6898
 2245TIP3    H228227   5.391   1.756   0.271  1.5539 -0.7978 -0.1468
 2246TIP3   OH228228   0.959   2.777  10.664  0.8306  0.1979  0.7249
 2246TIP3    H128229   1.006   2.855  10.636 -1.5905  1.5634  0.1312
 2246TIP3    H228230   0.944   2.728  10.583 -0.5015  0.8465  0.5411
 2247TIP3   OH228231   5.048   0.798  15.989 -0.4556  0.3097 -0.1300
 2247TIP3    H128232   5.069   0.890  16.006 -3.2982  0.7993  1.4561
 2247TIP3    H228233   5.068   0.754  16.072  0.7299 -0.5131 -0.8287
 2248TIP3   OH228234   2.256   6.320  13.996  0.0802  0.3631 -0.1242
 2248TIP3    H128235   2.223   6.363  13.917 -0.2805 -1.8266 -1.2507
 2248TIP3    H228236   2.178   6.287  14.040  0.4147 -0.1868  0.0673
 2249TIP3   OH228237   1.735   1.818   3.098  0.0134  0.1500  0.6406
 2249TIP3    H128238   1.790   1.770   3.159  0.9852 -0.1654 -0.4470
 2249TIP3    H228239   1.675   1.867   3.153 -0.0954 -1.2340  1.8195
 2250TIP3   OH228240   3.680   6.718  13.617 -0.2472 -0.0810 -0.7214
 2250TIP3    H128241   3.744   6.688  13.553 -0.0409  0.8328 -0.9564
 2250TIP3    H228242   3.649   6.802  13.583 -1.2654 -0.3074 -0.3963
 2251TIP3   OH228243   5.077   5.117  16.771  0.4624  0.1372  0.0645
 2251TIP3    H128244   5.041   5.071  16.847  2.2751  3.0833  2.9857
 2251TIP3    H228245   5.103   5.203  16.805  1.6481  1.5744 -3.8966
 2252TIP3   OH228246   0.326   1.697   0.760 -0.2224 -0.1400 -0.4901
 2252TIP3    H128247   0.343   1.768   0.698 -0.5477  0.4372  0.0706
 2252TIP3    H228248   0.399   1.701   0.822  0.0257 -0.6219 -0.7479
 2253TIP3   OH228249   1.886   3.918   6.305 -0.1580 -0.1020 -0.6806
 2253TIP3    H128250   1.924   3.979   6.242  1.2454 -0.1140  0.1185
 2253TIP3    H228251   1.929   3.939   6.388 -0.1174 -1.7428 -0.2500
 2254TIP3   OH228252   2.220   0.046  16.245 -0.2000  0.5886  0.2765
 2254TIP3    H128253   2.197   0.131  16.282 -1.2804  0.5761 -0.3264
 2254TIP3    H228254   2.261   0.066  16.161 -0.2402  0.5205  0.2401
 2255TIP3   OH228255   1.701   1.332   5.766  0.2299  0.0047  0.3072
 2255TIP3    H128256   1.719   1.261   5.828 -0.0998 -0.4683 -0.1275
 2255TIP3    H228257   1.765   1.319   5.696  0.1227  0.0935  0.1926
 2256TIP3   OH228258   6.491   5.866  16.487  0.4662  0.1773  0.2452
 2256TIP3    H128259   6.570   5.812  16.487  0.0593 -0.5207  2.5466
 2256TIP3    H228260   6.447   5.845  16.569 -0.8872  2.3487  0.1617
 2257TIP3   OH228261   2.920   6.675   1.510  0.0762 -0.3846 -0.4515
 2257TIP3    H128262   2.895   6.766   1.491  0.2512  0.2077  1.7989
 2257TIP3    H228263   2.875   6.655   1.592  1.2950 -1.7785 -0.0850
 2258TIP3   OH228264   0.952   6.022   1.736 -0.3883  0.2768  0.0887
 2258TIP3    H128265   0.877   6.062   1.781  0.1190 -0.1370  1.3318
 2258TIP3    H228266   0.946   5.929   1.758  0.3068  0.1914 -0.0793
 2259TIP3   OH228267   3.332   6.642  15.162 -0.6096  0.2162  0.4690
 2259TIP3    H128268   3.384   6.576  15.207 -1.1933 -0.3059  0.3834
 2259TIP3    H228269   3.245   6.635  15.200 -0.8502  0.4734 -0.0240
 2260TIP3   OH228270   4.459   2.579   5.219  0.3462  0.1329 -0.1494
 2260TIP3    H128271   4.387   2.625   5.175  0.3338 -0.7427 -1.0916
 2260TIP3    H228272   4.511   2.543   5.147  2.0273  1.1637  0.5007
 2261TIP3   OH228273   2.284   3.307  15.055  0.3929  0.1838 -0.7551
 2261TIP3    H128274   2.338   3.287  15.131  0.3333  0.3716 -0.6604
 2261TIP3    H228275   2.331   3.269  14.981  0.1982 -0.4464 -0.5628
 2262TIP3   OH228276   3.640   2.444  12.668 -0.2588  0.1489 -0.2098
 2262TIP3    H128277   3.612   2.534  12.653  0.5181  0.3186 -0.6782
 2262TIP3    H228278   3.571   2.391  12.628 -1.5481  0.4766  1.4544
 2263TIP3   OH228279   2.032   3.265   0.378 -0.2367  0.0408  0.0610
 2263TIP3    H128280   2.007   3.333   0.441 -0.4755 -0.0733  0.0889
 2263TIP3    H228281   2.054   3.314   0.299 -1.4374  0.0929 -0.2630
 2264TIP3   OH228282   0.195   1.711  12.657  0.1713 -0.4948  0.7515
 2264TIP3    H128283   0.161   1.777  12.717  0.6362  0.2890  0.1857
 2264TIP3    H228284   0.161   1.628  12.689  0.3565 -0.0851  2.0499
 2265TIP3   OH228285   0.054   0.609   3.143  0.2299  0.3767  0.0623
 2265TIP3    H128286  -0.006   0.636   3.213  0.3849  1.3071 -0.1541
 2265TIP3    H228287   0.035   0.669   3.071  1.9257  1.1731  0.2463
 2266TIP3   OH228288   5.843   5.638  11.158  0.3474  0.1022  0.2092
 2266TIP3    H128289   5.825   5.637  11.252  1.9728  1.5966  0.5757
 2266TIP3    H228290   5.762   5.606  11.118 -0.4624 -0.3270  2.0885
 2267TIP3   OH228291   2.595   5.091  16.215 -0.1168  0.4833 -0.5823
 2267TIP3    H128292   2.620   5.177  16.247  0.3627 -0.0091  0.4124
 2267TIP3    H228293   2.517   5.106  16.162  0.3771  1.6183 -1.0252
 2268TIP3   OH228294   1.990   3.893   4.075  0.0278 -0.2273 -0.0331
 2268TIP3    H128295   2.061   3.952   4.047  0.9884 -0.5946  1.5364
 2268TIP3    H228296   1.926   3.899   4.004  1.1073  0.9860 -0.9720
 2269TIP3   OH228297   2.413   1.789  13.152  0.5275  0.6313 -0.8760
 2269TIP3    H128298   2.320   1.792  13.173  0.4151  0.2047 -1.3099
 2269TIP3    H228299   2.455   1.766  13.235  0.3563  1.9251 -0.4075
 2270TIP3   OH228300   5.368   3.256  11.564  0.0257 -0.2398 -0.3648
 2270TIP3    H128301   5.330   3.177  11.603  1.5089 -0.9361 -0.2957
 2270TIP3    H228302   5.446   3.226  11.518 -0.4808  0.8913 -2.0731
 2271TIP3   OH228303   2.157   3.930  12.488 -0.6241  0.2349  0.0791
 2271TIP3    H128304   2.165   3.930  12.392 -1.0535  2.0959  0.0125
 2271TIP3    H228305   2.181   3.841  12.513  0.8269  0.0707 -1.6551
 2272TIP3   OH228306   5.364   4.098   1.896 -0.5620 -0.1449  0.7884
 2272TIP3    H128307   5.283   4.130   1.856 -1.0863 -1.0235  1.1234
 2272TIP3    H228308   5.363   4.004   1.881  0.2639 -0.2091  1.0512
 2273TIP3   OH228309   4.233   2.455   4.194  0.6670 -0.2870 -0.4925
 2273TIP3    H128310   4.209   2.448   4.102  1.8825  0.1558 -0.8684
 2273TIP3    H228311   4.327   2.434   4.196  1.3999  2.6724  0.1885
 2274TIP3   OH228312   1.673   5.950  14.930 -0.1129 -0.1090 -0.0755
 2274TIP3    H128313   1.659   5.940  14.836 -1.9473  1.0296  0.0335
 2274TIP3    H228314   1.764   5.922  14.944  0.2912 -0.0304 -2.2191
 2275TIP3   OH228315   1.257   3.533   0.671 -0.4209  0.6262 -0.1926
 2275TIP3    H128316   1.301   3.617   0.663 -0.0448  0.3627 -0.9416
 2275TIP3    H228317   1.166   3.555   0.690 -0.1772  1.1843  0.3892
 2276TIP3   OH228318   3.085   3.297   4.862 -0.4746  0.5936  0.0485
 2276TIP3    H128319   3.028   3.230   4.824  1.4902  0.0504 -2.2300
 2276TIP3    H228320   3.058   3.378   4.821 -1.0187  0.7266  0.6581
 2277TIP3   OH228321   4.145   6.559  11.795  0.2198  0.0220  0.2523
 2277TIP3    H128322   4.138   6.530  11.886 -0.6413  1.8846  0.8359
 2277TIP3    H228323   4.059   6.597  11.775  0.2372 -0.7752 -1.5116
 2278TIP3   OH228324   1.671   1.693   5.174 -0.1911  0.3294 -0.3134
 2278TIP3    H128325   1.721   1.613   5.158  1.9348  1.7960 -1.4387
 2278TIP3    H228326   1.688   1.714   5.265  0.0061 -0.0017 -0.2718
 2279TIP3   OH228327   5.330   2.349  16.831  0.3778  0.0893 -0.2057
 2279TIP3    H128328   5.419   2.362  16.862 -0.1081 -0.4297  1.5342
 2279TIP3    H228329   5.282   2.320  16.908 -1.2536  0.1397 -1.1542
 2280TIP3   OH228330   1.363   5.588  12.398 -0.1462 -0.2539 -0.7083
 2280TIP3    H128331   1.374   5.503  12.356 -0.1173 -1.0334  0.8125
 2280TIP3    H228332   1.439   5.639  12.370  0.5471 -1.1844 -0.5598
 2281TIP3   OH228333   4.469   0.781   0.964 -0.2593  0.3100 -0.4825
 2281TIP3    H128334   4.524   0.854   0.991  0.3471 -0.0968 -0.5967
 2281TIP3    H228335   4.444   0.738   1.045 -1.7614  1.4236 -0.2962
 2282TIP3   OH228336   2.700   1.858   3.992 -0.0072  0.2993  0.0611
 2282TIP3    H128337   2.729   1.949   3.988 -0.5879  0.5897  1.6823
 2282TIP3    H228338   2.779   1.808   4.009  0.1621  0.6132  0.2049
 2283TIP3   OH228339   1.020   6.220  13.423 -0.6856  0.2011  0.6670
 2283TIP3    H128340   1.113   6.197  13.420 -0.7095 -0.2658  2.4525
 2283TIP3    H228341   0.986   6.192  13.338  0.7327  0.1287  0.0896
 2284TIP3   OH228342   6.734   2.002  13.060  0.2821 -0.0745 -0.4027
 2284TIP3    H128343   6.674   1.975  12.990  0.6247 -1.3113 -0.2395
 2284TIP3    H228344   6.729   1.932  13.125  2.1902 -0.4251 -0.5629
 2285TIP3   OH228345   4.508   5.082   6.051 -0.4125  0.1744 -0.3160
 2285TIP3    H128346   4.484   5.022   6.121 -0.0476  0.4557  0.0587
 2285TIP3    H228347   4.596   5.112   6.075 -0.4429  0.5712 -0.6911
 2286TIP3   OH228348   4.844   4.842  11.799  0.2545 -0.1691  0.0281
 2286TIP3    H128349   4.924   4.875  11.840  0.3635  2.3261 -1.9715
 2286TIP3    H228350   4.875   4.794  11.722 -0.1237  0.3006 -0.4279
 2287TIP3   OH228351   0.933   1.315  14.860 -0.0552 -0.1809  0.1734
 2287TIP3    H128352   0.942   1.272  14.776 -0.4225  1.0752 -0.5405
 2287TIP3    H228353   0.948   1.408  14.841  2.6404 -0.1205  1.9358
 2288TIP3   OH228354   0.212   2.888   1.751 -0.6593 -0.2064 -0.0921
 2288TIP3    H128355   0.131   2.857   1.793 -0.5098 -2.4476 -1.3287
 2288TIP3    H228356   0.182   2.930   1.670 -0.6879  0.8524  0.4461
 2289TIP3   OH228357   2.016   6.267  14.103 -0.5801  0.4044  0.1734
 2289TIP3    H128358   1.931   6.283  14.063 -0.3892  1.9051  0.3063
 2289TIP3    H228359   1.998   6.260  14.197 -0.9077 -2.2134 -0.0196
 2290TIP3   OH228360   4.520   3.425  15.919 -0.4401  0.3794  0.2693
 2290TIP3    H128361   4.553   3.448  15.833 -1.5334  0.3912 -0.1706
 2290TIP3    H228362   4.548   3.335  15.933 -1.7815 -0.2605 -0.9098
 2291TIP3   OH228363   2.384   5.188   2.539 -0.1623  0.3325  0.6198
 2291TIP3    H128364   2.360   5.255   2.475  0.4804  1.6568  1.7058
 2291TIP3    H228365   2.425   5.118   2.487 -2.6080 -0.1759 -0.7747
 2292TIP3   OH228366   5.300   4.884   2.445 -0.4461  0.0343  0.2776
 2292TIP3    H128367   5.295   4.977   2.425  0.8608  0.3000  1.0906
 2292TIP3    H228368   5.284   4.840   2.362  0.4481  1.0098 -0.4229
 2293TIP3   OH228369   6.478   4.285   3.480 -0.0888  0.3866 -0.0974
 2293TIP3    H128370   6.389   4.249   3.484 -0.6139  1.6733  0.2423
 2293TIP3    H228371   6.502   4.278   3.388 -0.3979 -0.2872 -0.1346
 2294TIP3   OH228372   3.436   3.300   3.650  1.0921  0.1806 -0.2530
 2294TIP3    H128373   3.444   3.317   3.744 -1.1374 -1.1079  0.2409
 2294TIP3    H228374   3.475   3.377   3.609  1.4437  1.1333  1.7271
 2295TIP3   OH228375   0.555   2.624   3.837 -0.3336 -0.3629  0.6388
 2295TIP3    H128376   0.480   2.608   3.894  0.1169 -0.8799  1.1032
 2295TIP3    H228377   0.518   2.635   3.749 -0.9540 -0.4807  0.8878
 2296TIP3   OH228378   0.136   6.309   3.776  0.6728  0.2421 -0.1405
 2296TIP3    H128379   0.173   6.253   3.844  0.5174  0.2756 -0.0276
 2296TIP3    H228380   0.190   6.388   3.778  0.0097  0.6994  0.6854
 2297TIP3   OH228381   1.621   4.975  13.775 -0.7432  0.3029 -0.4133
 2297TIP3    H128382   1.685   5.035  13.813  0.5522  0.0767 -2.1152
 2297TIP3    H228383   1.562   4.953  13.848  1.4960 -0.0017  1.4078
 2298TIP3   OH228384   1.149   6.068   2.095  0.9019  0.2077  0.5803
 2298TIP3    H128385   1.187   6.020   2.021  1.5465 -0.2909  1.2181
 2298TIP3    H228386   1.169   6.160   2.077  0.1066  0.2035 -0.4010
 2299TIP3   OH228387   4.126   5.604  15.184  0.0913  0.6263  0.1942
 2299TIP3    H128388   4.112   5.597  15.278 -1.4632  1.1353  0.0212
 2299TIP3    H228389   4.038   5.609  15.146  0.5779 -1.7735 -1.4904
 2300TIP3   OH228390   3.552   1.982   5.074 -0.1791 -0.3159 -0.1672
 2300TIP3    H128391   3.462   2.008   5.054  0.0786  0.8395  0.0656
 2300TIP3    H228392   3.602   2.064   5.067  0.9413 -1.0376 -0.7855
 2301TIP3   OH228393   3.065   0.848  12.214 -0.0324 -0.1762  0.1316
 2301TIP3    H128394   3.057   0.819  12.304 -1.8097 -0.0321  0.0504
 2301TIP3    H228395   3.030   0.937  12.214 -0.2187 -0.2351 -0.7248
 2302TIP3   OH228396   1.120   6.729   0.056 -0.6284 -0.5182  0.3757
 2302TIP3    H128397   1.116   6.820   0.025  3.0135  0.0049  0.9534
 2302TIP3    H228398   1.161   6.681  -0.015 -2.2125 -1.7064  0.2155
 2303TIP3   OH228399   5.945   1.746  14.126  0.0399  0.1852  0.1945
 2303TIP3    H128400   5.963   1.666  14.078  0.9269  1.0292 -0.9230
 2303TIP3    H228401   5.984   1.731  14.212  0.8805 -0.2909 -0.2583
 2304TIP3   OH228402   5.275   0.500  13.817 -0.2447 -0.4660  0.0464
 2304TIP3    H128403   5.322   0.498  13.734  0.7899 -0.0078  0.6102
 2304TIP3    H228404   5.184   0.482  13.793  0.4835 -3.5844 -0.8370
 2305TIP3   OH228405   0.678   1.966  13.568  0.2486  0.3931  0.2619
 2305TIP3    H128406   0.683   2.033  13.500  1.2422  0.2131  0.1356
 2305TIP3    H228407   0.762   1.919  13.561  0.5037  0.5667  1.8025
 2306TIP3   OH228408   0.743   0.474   2.696  0.2483 -0.1094 -0.3742
 2306TIP3    H128409   0.796   0.512   2.626 -0.6173  1.5319 -0.2115
 2306TIP3    H228410   0.751   0.537   2.768 -0.8735 -0.4873  0.1002
 2307TIP3   OH228411   2.828   2.760  12.283 -0.2133  0.6827  0.4945
 2307TIP3    H128412   2.884   2.779  12.207 -0.5528  1.1629  0.3646
 2307TIP3    H228413   2.756   2.709  12.248  0.5670 -0.6968  0.8028
 2308TIP3   OH228414   2.107   6.116   4.410  0.1606  0.0291  0.1635
 2308TIP3    H128415   2.084   6.024   4.397  1.8746 -0.5374  0.8998
 2308TIP3    H228416   2.201   6.116   4.427  0.5094  2.0732 -1.2844
 2309TIP3   OH228417   1.868   1.852  15.593 -0.2386 -0.1625 -0.0996
 2309TIP3    H128418   1.896   1.775  15.643  0.1111  0.0870  0.0970
 2309TIP3    H228419   1.862   1.922  15.659  1.3965  0.4696 -0.5822
 2310TIP3   OH228420   2.829   3.621  11.324  0.4387  0.4388 -0.0958
 2310TIP3    H128421   2.746   3.663  11.302 -0.0704 -0.7017 -0.4232
 2310TIP3    H228422   2.876   3.615  11.241  0.3113 -0.0597 -0.1313
 2311TIP3   OH228423   5.618   5.037   1.875 -0.5446  0.0169 -0.0857
 2311TIP3    H128424   5.561   4.993   1.939 -0.3282  1.1777  0.9380
 2311TIP3    H228425   5.564   5.107   1.839 -0.3553 -0.0497 -0.5076
 2312TIP3   OH228426   2.174   2.824   4.252  0.0396  0.6896 -0.0584
 2312TIP3    H128427   2.211   2.910   4.269  0.6963  0.7862 -1.8408
 2312TIP3    H228428   2.102   2.816   4.315  0.1230  2.4230  0.2920
 2313TIP3   OH228429   5.060   2.116   1.425  0.3587 -0.0834  0.9717
 2313TIP3    H128430   5.030   2.098   1.513  0.0494 -0.8310  0.7198
 2313TIP3    H228431   5.155   2.107   1.430  0.2276 -1.6754  0.8915
 2314TIP3   OH228432   6.675   0.126  13.517  0.4380  0.3878 -0.5998
 2314TIP3    H128433   6.746   0.185  13.493  3.0995 -0.5578  3.7846
 2314TIP3    H228434   6.633   0.169  13.592  1.1375 -2.1350  1.3891
 2315TIP3   OH228435   5.883   1.804  13.712  0.0722  0.5512 -0.5975
 2315TIP3    H128436   5.920   1.763  13.791 -1.1343  0.2884 -0.1536
 2315TIP3    H228437   5.902   1.741  13.642  2.8845  1.6416 -0.9601
 2316TIP3   OH228438   4.530   1.345   3.249  0.4555  0.2003 -0.5479
 2316TIP3    H128439   4.518   1.309   3.337  0.1012 -0.0839 -0.7097
 2316TIP3    H228440   4.549   1.437   3.263  0.1723  0.2032 -0.1839
 2317TIP3   OH228441   1.896   6.032   3.206 -0.2031  0.2057  0.2487
 2317TIP3    H128442   1.917   6.076   3.289 -1.8668  0.4043  0.5926
 2317TIP3    H228443   1.903   6.101   3.140  0.0929  0.2901  0.3650
 2318TIP3   OH228444   2.647   6.301   4.420 -0.7749  0.1402  0.1573
 2318TIP3    H128445   2.563   6.276   4.459 -1.5866 -0.8810 -2.0463
 2318TIP3    H228446   2.683   6.219   4.386  1.1650  0.5564  1.0698
 2319TIP3   OH228447   6.369   5.419   3.104 -0.4226  0.0930 -0.2734
 2319TIP3    H128448   6.354   5.416   3.009 -0.1846 -1.1308 -0.2941
 2319TIP3    H228449   6.318   5.493   3.134  1.6959  2.3168 -1.7408
 2320TIP3   OH228450   5.811   1.063   0.872 -0.6865  0.4197 -0.2360
 2320TIP3    H128451   5.886   1.036   0.819  0.5634  1.1776  1.0632
 2320TIP3    H228452   5.849   1.091   0.955 -2.3884  1.2107  0.3315
 2321TIP3   OH228453   6.799   2.351  16.888 -0.1947  0.3216  0.2438
 2321TIP3    H128454   6.850   2.385  16.961 -0.3226  0.5168  0.2421
 2321TIP3    H228455   6.832   2.262  16.874  0.0821  0.4175  0.2980
 2322TIP3   OH228456   1.328   1.711  10.707 -0.3233 -0.0566 -0.1377
 2322TIP3    H128457   1.356   1.800  10.729 -1.4177 -0.1973  2.1467
 2322TIP3    H228458   1.394   1.654  10.747  0.4203 -0.2948 -1.6638
 2323TIP3   OH228459   4.899   0.883   4.213  0.1789  0.0360  1.1971
 2323TIP3    H128460   4.833   0.946   4.241 -0.0487  0.5139 -0.3175
 2323TIP3    H228461   4.912   0.827   4.288 -1.4585  0.3515  1.7561
 2324TIP3   OH228462   2.128   0.976  12.193  1.0817  0.2841 -0.2513
 2324TIP3    H128463   2.125   0.910  12.124 -0.3549  0.7586 -0.6909
 2324TIP3    H228464   2.153   0.928  12.272 -0.8471 -1.0149 -0.3687
 2325TIP3   OH228465   6.182   3.340  15.969 -0.2224  0.0317 -0.1417
 2325TIP3    H128466   6.237   3.294  15.906  0.2888  0.0356  0.2964
 2325TIP3    H228467   6.238   3.351  16.046 -1.0309 -0.4805  0.5264
 2326TIP3   OH228468   1.382   3.297   3.545 -0.1924  0.4149  0.5473
 2326TIP3    H128469   1.467   3.265   3.576  0.2105  1.3717  0.4412
 2326TIP3    H228470   1.332   3.217   3.527 -0.0235 -0.2014  2.4990
 2327TIP3   OH228471   0.120   6.048   6.305  0.3649  0.3385  0.1033
 2327TIP3    H128472   0.180   6.122   6.311 -0.2315  0.8967 -0.6701
 2327TIP3    H228473   0.073   6.048   6.389  0.2415  0.9522  0.0380
 2328TIP3   OH228474   4.574   4.210  11.064  0.8698 -0.2852  0.3770
 2328TIP3    H128475   4.508   4.242  11.002 -0.1422  0.8236  1.9587
 2328TIP3    H228476   4.639   4.280  11.067  0.0883  0.4144  1.7392
 2329TIP3   OH228477   5.638   6.159   2.706  0.7977  0.2629 -0.1973
 2329TIP3    H128478   5.610   6.100   2.777  1.2793 -0.1589 -0.3536
 2329TIP3    H228479   5.575   6.231   2.708 -0.3604 -0.7162 -0.6018
 2330TIP3   OH228480   5.522   5.472  11.518  0.3259  1.1039 -0.4427
 2330TIP3    H128481   5.511   5.386  11.558 -1.2022  2.7232  3.1086
 2330TIP3    H228482   5.489   5.462  11.428  0.6636 -2.0625 -0.3032
 2331TIP3   OH228483   5.037   2.314   2.646  0.0073 -0.3995 -0.0187
 2331TIP3    H128484   4.956   2.272   2.677  0.5418 -1.4629 -0.0361
 2331TIP3    H228485   5.105   2.278   2.702  0.6310 -0.3619 -0.7420
 2332TIP3   OH228486   4.492   0.428   4.861  0.2165 -0.1816  0.2770
 2332TIP3    H128487   4.526   0.440   4.950 -0.5541  1.3816  0.4045
 2332TIP3    H228488   4.569   0.411   4.808  0.7562 -0.5517  1.1532
 2333TIP3   OH228489   0.222   1.006   0.652 -0.2429 -0.0308 -0.1440
 2333TIP3    H128490   0.200   1.065   0.724 -1.4076  0.3595 -0.7945
 2333TIP3    H228491   0.205   0.919   0.687 -1.9980  0.2093 -0.2985
 2334TIP3   OH228492   5.355   4.080  16.284  0.2693  0.5662  0.3934
 2334TIP3    H128493   5.419   4.011  16.270 -0.3188 -0.0343  0.6251
 2334TIP3    H228494   5.340   4.080  16.379 -0.8648 -0.0350  0.2304
 2335TIP3   OH228495   6.261   4.814  12.158  0.1453 -0.2524 -0.6555
 2335TIP3    H128496   6.193   4.836  12.221 -0.9843 -1.5489 -1.3792
 2335TIP3    H228497   6.326   4.765  12.209  0.2126  0.3831 -0.1136
 2336TIP3   OH228498   1.085   3.131  16.416 -0.0952 -0.0601 -0.2384
 2336TIP3    H128499   1.173   3.130  16.456  0.6422 -1.4213 -1.7986
 2336TIP3    H228500   1.035   3.067  16.466  0.3297 -0.5523 -0.4399
 2337TIP3   OH228501   3.627   0.000   5.592  0.0188  0.1652 -0.0328
 2337TIP3    H128502   3.643  -0.075   5.535  0.1817  0.6956 -0.7002
 2337TIP3    H228503   3.656  -0.029   5.679 -0.4397 -0.7241 -0.1677
 2338TIP3   OH228504   2.965   1.638   3.599  0.0305  0.3475 -0.3941
 2338TIP3    H128505   3.028   1.695   3.644  0.8075 -0.5140 -0.3524
 2338TIP3    H228506   2.964   1.671   3.509  1.5688 -0.4319 -0.7299
 2339TIP3   OH228507   2.804   0.309   3.120 -0.2570  0.2478  0.2689
 2339TIP3    H128508   2.895   0.333   3.109  0.2130 -1.2514  0.6459
 2339TIP3    H228509   2.773   0.360   3.195  0.4504  0.3090  0.5191
 2340TIP3   OH228510   6.289   1.478  12.391 -0.1400  0.2511 -0.0466
 2340TIP3    H128511   6.292   1.517  12.479  1.9033  0.6082 -0.2344
 2340TIP3    H228512   6.278   1.384  12.407  2.6536 -0.0294  0.7739
 2341TIP3   OH228513   3.591   2.935   5.457 -0.5735  0.1278  0.4394
 2341TIP3    H128514   3.626   2.996   5.393  0.9783 -1.2167 -0.0509
 2341TIP3    H228515   3.553   2.991   5.525 -1.7992  1.5862 -1.3557
 2342TIP3   OH228516   0.580   2.529   4.791  0.0992 -0.2717  0.2316
 2342TIP3    H128517   0.587   2.437   4.764 -0.9154 -0.5657  0.9337
 2342TIP3    H228518   0.532   2.527   4.873 -1.0622  0.9773 -0.3713
 2343TIP3   OH228519   0.298   1.730   4.298 -0.4215 -0.4919  0.6268
 2343TIP3    H128520   0.208   1.699   4.290 -0.3315 -0.4178 -1.0466
 2343TIP3    H228521   0.342   1.696   4.220  0.9543 -0.3594  1.3182
 2344TIP3   OH228522   6.505   4.374  12.532  0.0535  0.3820  0.2436
 2344TIP3    H128523   6.541   4.453  12.572 -0.5702  1.2862 -0.8974
 2344TIP3    H228524   6.415   4.369  12.564 -0.5133  1.2209 -1.1133
 2345TIP3   OH228525   2.886   1.428   4.898  0.1099  0.0861 -0.3143
 2345TIP3    H128526   2.968   1.464   4.863  1.2267 -0.1506  1.8733
 2345TIP3    H228527   2.831   1.505   4.914  0.4233  0.3666 -0.5649
 2346TIP3   OH228528   3.035   2.303  14.978  0.0657  0.4955 -0.2123
 2346TIP3    H128529   3.128   2.312  14.957  0.2177 -0.1844  0.1342
 2346TIP3    H228530   3.002   2.240  14.913 -0.0575  0.4037 -0.0603
 2347TIP3   OH228531   2.612   5.099   0.398 -0.6629  0.5345  0.2264
 2347TIP3    H128532   2.579   5.152   0.470 -0.9487  1.1748 -0.3662
 2347TIP3    H228533   2.539   5.095   0.336 -0.2273  0.4831 -0.2924
 2348TIP3   OH228534   6.675   1.229  16.615  0.0189  0.1953 -0.6643
 2348TIP3    H128535   6.683   1.139  16.585 -0.9448 -0.1721  0.1092
 2348TIP3    H228536   6.594   1.230  16.666  1.5625  0.7710  1.9296
 2349TIP3   OH228537   4.724   6.265   3.491  0.5474  0.1946  0.4810
 2349TIP3    H128538   4.630   6.253   3.477  0.5479 -0.6243  1.0606
 2349TIP3    H228539   4.730   6.303   3.579  0.7113  1.5311 -0.0796
 2350TIP3   OH228540   3.973   2.047  14.360 -0.0951  0.5807 -0.0314
 2350TIP3    H128541   4.000   2.139  14.361  2.8181 -0.1756 -0.0467
 2350TIP3    H228542   3.969   2.025  14.267 -0.5769  0.6117 -0.0216
 2351TIP3   OH228543   3.872   5.823  14.903 -0.1821 -0.2850 -0.4414
 2351TIP3    H128544   3.836   5.904  14.940 -1.9032 -1.3883  0.4678
 2351TIP3    H228545   3.951   5.850  14.856  1.1078  1.5038  2.4716
 2352TIP3   OH228546   3.568   6.464   0.311 -0.1663  0.1694  0.4995
 2352TIP3    H128547   3.493   6.520   0.329 -0.4134 -0.0536  0.1858
 2352TIP3    H228548   3.644   6.523   0.311 -0.3249  0.3757  0.9296
 2353TIP3   OH228549   6.192   5.307  11.050 -0.6731  0.3085  0.1896
 2353TIP3    H128550   6.169   5.270  11.136  0.8794 -1.7231 -0.2042
 2353TIP3    H228551   6.108   5.333  11.013 -1.5949 -0.6125  1.5227
 2354TIP3   OH228552   3.560   1.850   4.477  0.2974  0.0214  0.4690
 2354TIP3    H128553   3.548   1.865   4.383  1.0598 -2.0599 -0.0100
 2354TIP3    H228554   3.650   1.877   4.495  0.5155 -0.6100  0.3500
 2355TIP3   OH228555   6.393   2.024   0.745  0.5888 -0.2521 -0.4464
 2355TIP3    H128556   6.333   2.082   0.792  0.0621 -1.3838  0.3228
 2355TIP3    H228557   6.338   1.979   0.681  0.9454 -0.1128 -0.8613
 2356TIP3   OH228558   5.994   6.617   1.990 -0.2214 -0.3360 -0.0387
 2356TIP3    H128559   5.935   6.652   2.056 -1.0383 -1.1517 -0.3177
 2356TIP3    H228560   5.948   6.541   1.954  0.0576  0.2709 -1.7740
 2357TIP3   OH228561   3.234   4.086   5.237 -0.2222  0.4213 -0.1896
 2357TIP3    H128562   3.246   4.032   5.315 -1.9577 -0.6156 -0.5899
 2357TIP3    H228563   3.320   4.125   5.221  0.7125 -1.0669  0.9713
 2358TIP3   OH228564   3.873   4.259  14.838 -0.4122  0.0872 -0.4597
 2358TIP3    H128565   3.905   4.332  14.785  1.0591 -0.3257 -0.1807
 2358TIP3    H228566   3.839   4.197  14.774  0.0130  0.2236 -0.8261
 2359TIP3   OH228567   6.740   6.043   6.049 -0.3064  0.1433 -0.0589
 2359TIP3    H128568   6.678   6.112   6.072 -1.9455 -0.7075 -1.6335
 2359TIP3    H228569   6.733   5.980   6.121 -1.8451 -0.2759 -0.5443
 2360TIP3   OH228570   3.478   1.364   5.394  0.3334 -1.3647  1.5243
 2360TIP3    H128571   3.568   1.366   5.426  0.4165  2.6615  1.4811
 2360TIP3    H228572   3.481   1.412   5.311 -2.0115 -0.0733  2.1019
 2361TIP3   OH228573   3.396   2.124  16.985 -0.5966 -0.4303  0.0537
 2361TIP3    H128574   3.403   2.097  17.077 -2.0471 -0.3166  0.2201
 2361TIP3    H228575   3.323   2.186  16.984 -0.4630 -0.2734 -1.1464
 2362TIP3   OH228576   4.946   0.129  16.101  0.3453 -0.7961 -0.1249
 2362TIP3    H128577   4.930   0.137  16.007  0.0303  0.8201  0.0479
 2362TIP3    H228578   4.872   0.174  16.143  1.8480  0.8922  0.8280
 2363TIP3   OH228579   2.593   1.316  13.675  0.8006  0.2677 -0.2114
 2363TIP3    H128580   2.628   1.311  13.764  0.5908  0.8727 -0.0888
 2363TIP3    H228581   2.557   1.405  13.668  3.2478  1.2276 -1.8109
 2364TIP3   OH228582   5.307   5.220   5.476  0.4216 -0.1043  0.4162
 2364TIP3    H128583   5.340   5.307   5.497 -0.9091  0.5888 -0.3050
 2364TIP3    H228584   5.363   5.161   5.527  2.3301  1.0487 -0.2238
 2365TIP3   OH228585   5.882   1.183  15.758 -0.3759  0.2414 -0.4453
 2365TIP3    H128586   5.926   1.209  15.839  0.2847  0.1683 -0.7795
 2365TIP3    H228587   5.928   1.104  15.730 -0.5673  0.3006 -0.9218
 2366TIP3   OH228588   2.565   3.056   4.394 -0.0579 -0.3314  0.1364
 2366TIP3    H128589   2.549   3.069   4.300 -0.6136 -0.4941  0.2049
 2366TIP3    H228590   2.526   3.133   4.435 -3.9815 -2.3256  0.6041
 2367TIP3   OH228591   3.736   1.952  15.908  0.6859 -0.4637  0.3332
 2367TIP3    H128592   3.742   2.009  15.832 -2.9403 -1.9124 -1.2538
 2367TIP3    H228593   3.753   1.865  15.874 -0.8550 -1.1237  1.1909
 2368TIP3   OH228594   3.206   4.548   3.828 -0.0758 -0.3478  0.0667
 2368TIP3    H128595   3.140   4.575   3.765  0.9274 -1.0502 -1.3269
 2368TIP3    H228596   3.290   4.569   3.787  0.6268 -1.4031  0.8771
 2369TIP3   OH228597   2.225   4.503  15.232 -0.2008  0.3256  0.3780
 2369TIP3    H128598   2.230   4.481  15.139  0.4590 -1.0683  0.7074
 2369TIP3    H228599   2.131   4.513  15.250 -0.3022  1.0761 -0.5192
 2370TIP3   OH228600   2.784   3.141  11.571  0.2597  0.0609  0.1432
 2370TIP3    H128601   2.727   3.217  11.585  1.9438  1.4555 -0.1911
 2370TIP3    H228602   2.839   3.138  11.650  1.4039  0.3232 -0.6163
 2371TIP3   OH228603   1.394   4.671  12.947 -0.2232  0.3081  0.4488
 2371TIP3    H128604   1.350   4.751  12.919  2.2774  1.7179  0.3438
 2371TIP3    H228605   1.447   4.645  12.871  0.2860 -0.4871  1.0608
 2372TIP3   OH228606   2.966   4.036  13.695 -0.5256 -0.2618 -0.0706
 2372TIP3    H128607   2.997   3.960  13.743  0.6653  1.1320  1.4987
 2372TIP3    H228608   2.916   4.086  13.759  0.8841  1.5232 -0.2709
 2373TIP3   OH228609   4.556   5.315  11.349 -0.2627 -0.3345 -0.7145
 2373TIP3    H128610   4.534   5.405  11.373 -0.9810 -1.1312  2.0015
 2373TIP3    H228611   4.475   5.279  11.313 -0.8676 -0.6828  0.9175
 2374TIP3   OH228612   0.855   0.077  11.201 -0.1870 -0.2165  0.4084
 2374TIP3    H128613   0.800   0.011  11.159  1.9392 -0.3118 -2.5305
 2374TIP3    H228614   0.793   0.133  11.249 -2.7243 -0.8985 -1.8287
 2375TIP3   OH228615   0.521   4.692   0.713 -0.3810 -0.0330 -0.1786
 2375TIP3    H128616   0.540   4.620   0.652 -0.8457  0.1747 -0.5768
 2375TIP3    H228617   0.602   4.703   0.763  0.1898  0.1396 -1.1172
 2376TIP3   OH228618   3.537   2.693  11.469 -0.0499 -0.3848 -0.1513
 2376TIP3    H128619   3.528   2.649  11.384  2.1659  0.0526 -0.6808
 2376TIP3    H228620   3.515   2.626  11.534 -3.4242 -0.2782 -1.0064
 2377TIP3   OH228621   0.445   5.780  14.249 -0.5850  0.3044 -0.6574
 2377TIP3    H128622   0.407   5.841  14.312  1.8124  0.1208  1.0901
 2377TIP3    H228623   0.522   5.744  14.293 -1.1354 -3.0254 -2.1324
 2378TIP3   OH228624   6.765   4.796  16.855  0.2424 -0.1833  0.4828
 2378TIP3    H128625   6.812   4.719  16.887 -2.0432 -1.8236  0.2114
 2378TIP3    H228626   6.720   4.830  16.933  0.0208 -0.0869  0.3150
 2379TIP3   OH228627   6.377   6.017   2.643  0.1885 -0.1697 -0.1270
 2379TIP3    H128628   6.391   6.029   2.737  0.1670  0.8139 -0.2401
 2379TIP3    H228629   6.311   6.082   2.620  0.8464  0.2084 -0.9899
 2380TIP3   OH228630   0.629   5.558  11.053 -0.3556 -0.1881  0.4557
 2380TIP3    H128631   0.565   5.489  11.034  1.8436 -3.1042  2.6362
 2380TIP3    H228632   0.635   5.608  10.972 -3.6122 -1.2223 -0.5667
 2381TIP3   OH228633   6.053   1.950  16.813 -0.2198  0.0403 -0.2406
 2381TIP3    H128634   6.102   1.919  16.889 -1.7758  1.7406  1.5534
 2381TIP3    H228635   6.005   1.872  16.782  1.4627 -0.9889 -0.3880
 2382TIP3   OH228636   2.951   4.282  10.990 -0.2293  0.2671  0.3204
 2382TIP3    H128637   2.921   4.364  10.952 -1.5245  0.2504  1.2161
 2382TIP3    H228638   2.885   4.218  10.962  0.9391 -0.5504 -0.6367
 2383TIP3   OH228639   0.774   0.280   5.778  0.0771 -0.0816  0.4294
 2383TIP3    H128640   0.785   0.205   5.720 -0.6568  0.0244  0.1516
 2383TIP3    H228641   0.738   0.242   5.859  0.4353 -0.1340  0.5644
 2384TIP3   OH228642   0.389   2.108   1.808 -0.2298  0.0327  0.1465
 2384TIP3    H128643   0.381   2.027   1.756 -1.6704 -0.5887  1.2366
 2384TIP3    H228644   0.335   2.171   1.761 -0.5653 -0.1793  0.2406
 2385TIP3   OH228645   1.746   3.295   4.755 -0.1258  0.3650 -0.2751
 2385TIP3    H128646   1.743   3.316   4.849  0.3346  1.8369 -0.5745
 2385TIP3    H228647   1.799   3.364   4.716 -0.5030 -0.1004 -1.6729
 2386TIP3   OH228648   0.506   3.846  12.601 -0.2691  0.4489  0.8394
 2386TIP3    H128649   0.535   3.764  12.642 -0.5065  0.2642  0.6454
 2386TIP3    H228650   0.500   3.824  12.507  0.9623  1.0598  0.5921
 2387TIP3   OH228651   3.134   4.084  13.474  0.2248 -0.3146 -0.2939
 2387TIP3    H128652   3.136   4.179  13.463  0.4769 -0.5484 -2.8108
 2387TIP3    H228653   3.071   4.069  13.544 -0.9978  1.6469 -0.9078
 2388TIP3   OH228654   5.212   2.153   2.807 -0.1259  0.1722  0.8887
 2388TIP3    H128655   5.213   2.067   2.764  1.3613  0.0984  1.0280
 2388TIP3    H228656   5.241   2.136   2.897 -1.0970  0.6452  1.3077
 2389TIP3   OH228657   4.997   3.839  15.179 -0.1291 -0.0285 -0.3867
 2389TIP3    H128658   5.012   3.879  15.264 -1.0281  1.6796 -0.9949
 2389TIP3    H228659   4.973   3.748  15.199  0.9359 -0.0321  1.0771
 2390TIP3   OH228660   4.917   2.968   0.809 -0.0614  0.1712 -0.0735
 2390TIP3    H128661   4.975   3.013   0.871 -1.0613 -0.6491  1.5217
 2390TIP3    H228662   4.959   2.883   0.794 -0.9436 -0.5382  1.3082
 2391TIP3   OH228663   1.746   5.811   3.184 -0.6726  0.0855  0.4321
 2391TIP3    H128664   1.807   5.885   3.180  1.9816 -1.9776 -0.3701
 2391TIP3    H228665   1.748   5.783   3.276  0.2549 -0.4321  0.2691
 2392TIP3   OH228666   1.302   3.658  11.401  1.2698  0.6746 -0.0909
 2392TIP3    H128667   1.370   3.698  11.346  0.9579 -0.3017 -1.2425
 2392TIP3    H228668   1.346   3.638  11.483  2.4317 -0.0587 -0.8559
 2393TIP3   OH228669   1.743   6.028   2.816 -0.0307  0.1068 -0.4859
 2393TIP3    H128670   1.668   6.086   2.800 -0.1412 -0.3059 -1.5643
 2393TIP3    H228671   1.780   6.059   2.899 -0.7814  0.9724 -0.4562
 2394TIP3   OH228672   5.682   6.789   4.275  0.4444 -0.0928 -0.1387
 2394TIP3    H128673   5.654   6.742   4.196  0.6573  1.2217 -1.0359
 2394TIP3    H228674   5.637   6.873   4.270  3.0234  1.3882 -0.6867
 2395TIP3   OH228675   2.100   6.420  11.279 -0.5122  0.4350 -0.0167
 2395TIP3    H128676   2.114   6.508  11.246 -0.4792 -0.2245 -1.8660
 2395TIP3    H228677   2.005   6.409  11.280 -0.4954  0.0562 -1.0907
 2396TIP3   OH228678   6.594   0.018  17.199 -0.1070 -0.3176 -0.3651
 2396TIP3    H128679   6.608  -0.074  17.223 -0.5648 -0.0137  1.2272
 2396TIP3    H228680   6.638   0.028  17.115  0.5012 -1.8421 -0.2654
 2397TIP3   OH228681   2.033   2.987   0.413  0.5971  0.0116 -0.2450
 2397TIP3    H128682   2.025   3.082   0.418  1.1233  0.0530  0.0019
 2397TIP3    H228683   1.991   2.955   0.493  1.1936  0.0984  0.1092
 2398TIP3   OH228684   1.488   0.273   2.788  0.2970  0.3640  0.5280
 2398TIP3    H128685   1.503   0.182   2.815  0.2465  0.0273 -0.5602
 2398TIP3    H228686   1.576   0.310   2.779  0.3720 -0.0863 -0.7108
 2399TIP3   OH228687   4.679   2.367   1.174 -0.6537 -0.0608 -0.1361
 2399TIP3    H128688   4.693   2.275   1.152  0.6754  0.1295 -0.1624
 2399TIP3    H228689   4.622   2.400   1.105 -0.8336 -0.7734 -0.3313
 2400TIP3   OH228690   3.710   0.577  12.604  0.0565  0.3009  0.3157
 2400TIP3    H128691   3.620   0.551  12.584 -0.2441  0.2489  1.6124
 2400TIP3    H228692   3.701   0.663  12.645  0.3212 -0.7130  2.6807
 2401TIP3   OH228693   5.612   2.868   4.174 -0.7130 -0.0210  0.1330
 2401TIP3    H128694   5.651   2.876   4.087 -1.5882  0.3816 -0.2333
 2401TIP3    H228695   5.686   2.856   4.233 -0.1761 -2.0983 -0.8514
 2402TIP3   OH228696   2.141   2.693   4.941 -0.1135 -0.7823  0.2390
 2402TIP3    H128697   2.216   2.657   4.894 -0.7347 -0.6388 -0.8979
 2402TIP3    H228698   2.109   2.620   4.995 -0.1365 -1.3404 -0.5146
 2403TIP3   OH228699   5.106   0.523  16.463  0.4704  0.1200 -0.0027
 2403TIP3    H128700   5.029   0.527  16.520  1.2899 -0.0898  1.1572
 2403TIP3    H228701   5.092   0.445  16.409  0.1525 -0.2483  0.6053
 2404TIP3   OH228702   0.774   4.798  17.049 -0.3125  0.1516  0.7448
 2404TIP3    H128703   0.766   4.816  16.956  0.0908 -0.5503  0.5661
 2404TIP3    H228704   0.763   4.703  17.057  0.3447  0.1093  1.3219
 2405TIP3   OH228705   5.025   3.510  14.570 -0.1058 -0.2708  0.5528
 2405TIP3    H128706   5.059   3.431  14.527 -0.9319  0.0273 -0.6835
 2405TIP3    H228707   4.988   3.478  14.652 -1.7183 -1.4247 -0.5616
 2406TIP3   OH228708   0.860   2.771   4.118 -0.4166  0.1962 -0.4665
 2406TIP3    H128709   0.823   2.814   4.041 -1.3532  0.3052  0.0164
 2406TIP3    H228710   0.860   2.839   4.185 -0.8650 -0.2495 -0.0058
 2407TIP3   OH228711   4.144   4.277   2.046 -0.4818  0.2900 -0.0444
 2407TIP3    H128712   4.093   4.276   2.128  0.2545 -0.9655  0.4260
 2407TIP3    H228713   4.150   4.185   2.021  1.6276  0.3830 -0.0232
 2408TIP3   OH228714   0.190   5.454   1.964  0.0425 -0.0598 -0.0885
 2408TIP3    H128715   0.106   5.479   1.927 -0.9933 -2.2426  0.6329
 2408TIP3    H228716   0.252   5.517   1.928 -1.4379 -0.0518 -2.8363
 2409TIP3   OH228717   3.953   3.805   1.886 -0.4065 -0.2795 -0.3433
 2409TIP3    H128718   4.038   3.791   1.843 -0.8148 -1.0937 -0.8929
 2409TIP3    H228719   3.889   3.763   1.829 -1.2466  0.6782 -0.1421
 2410TIP3   OH228720   3.714   3.684   0.246  0.1001  0.4461 -0.4724
 2410TIP3    H128721   3.700   3.736   0.325  0.4737  0.2722 -0.2897
 2410TIP3    H228722   3.652   3.611   0.254  0.8518 -0.1327  0.1652
 2411TIP3   OH228723   4.609   2.862   5.237 -0.8519  0.5429 -0.1843
 2411TIP3    H128724   4.521   2.874   5.273 -1.4180  0.7408 -1.5535
 2411TIP3    H228725   4.627   2.769   5.249 -1.0889  0.5805  0.4629
 2412TIP3   OH228726   1.856   0.180   1.364 -0.3704  0.1267  0.1607
 2412TIP3    H128727   1.920   0.251   1.357 -1.0736  0.7919  0.3046
 2412TIP3    H228728   1.896   0.106   1.318 -0.1927  1.0218 -1.1732
 2413TIP3   OH228729   5.859   0.834   4.547 -0.0060 -0.0117 -0.1453
 2413TIP3    H128730   5.898   0.921   4.549  0.4159 -0.2055  0.4012
 2413TIP3    H228731   5.913   0.786   4.484 -2.0566  0.9299 -2.8016
 2414TIP3   OH228732   3.958   5.402  11.306 -0.1547  0.4933  0.3670
 2414TIP3    H128733   3.938   5.355  11.226  0.3846  0.0987  0.4566
 2414TIP3    H228734   3.903   5.480  11.303  0.0284  0.6009 -0.4957
 2415TIP3   OH228735   2.446   3.206  12.040  0.3215 -0.2262 -0.2979
 2415TIP3    H128736   2.532   3.208  12.000 -0.6667  0.8209 -2.5439
 2415TIP3    H228737   2.397   3.141  11.990 -0.1938 -0.9225  1.0412
 2416TIP3   OH228738   2.728   1.455  10.733  0.4624  0.0392  0.0845
 2416TIP3    H128739   2.745   1.493  10.646 -3.2957  1.2818 -0.2592
 2416TIP3    H228740   2.713   1.362  10.716 -1.7844  0.5262 -0.9411
 2417TIP3   OH228741   5.178   0.190   5.465 -0.0032 -0.7059 -0.9274
 2417TIP3    H128742   5.149   0.273   5.503  0.9953 -0.0353 -1.5975
 2417TIP3    H228743   5.172   0.128   5.538  0.1382  0.1591 -0.1529
 2418TIP3   OH228744   5.151   4.009  11.293 -0.0027 -0.6363  0.4773
 2418TIP3    H128745   5.169   3.987  11.385  1.7543 -1.4723 -0.0269
 2418TIP3    H228746   5.216   3.960  11.244  0.6419  1.6632 -1.0987
 2419TIP3   OH228747   6.426   1.010   0.154  0.0722  0.6534  0.4978
 2419TIP3    H128748   6.393   1.060   0.080 -1.1934  0.7196  1.0916
 2419TIP3    H228749   6.379   1.045   0.230  1.0069  0.2705  1.2829
 2420TIP3   OH228750   0.916   3.273   4.150  0.8165 -0.6924 -0.5628
 2420TIP3    H128751   1.004   3.256   4.184  0.7018 -1.3505 -0.5661
 2420TIP3    H228752   0.901   3.366   4.165  1.7126 -0.4654 -1.0333
 2421TIP3   OH228753   1.320   2.853  13.918  0.2689 -0.2925  1.0110
 2421TIP3    H128754   1.358   2.910  13.984 -0.1565  1.0159  0.1823
 2421TIP3    H228755   1.385   2.850  13.848 -0.4435  0.6988  0.2648
 2422TIP3   OH228756   4.225   1.831  13.203 -0.4629 -0.1080 -0.1657
 2422TIP3    H128757   4.162   1.877  13.258  2.0969  1.8290  1.3334
 2422TIP3    H228758   4.280   1.900  13.165  0.7430 -1.6898 -1.4798
 2423TIP3   OH228759   1.902   1.403  15.368 -0.2526 -0.7066  0.3894
 2423TIP3    H128760   1.837   1.422  15.436 -0.9732  3.1361 -1.0850
 2423TIP3    H228761   1.855   1.349  15.304 -1.7524  1.0898 -0.1125
 2424TIP3   OH228762   2.682   1.575   2.610 -0.4671 -0.2524  0.3771
 2424TIP3    H128763   2.683   1.596   2.516 -0.7398 -1.6067  0.0506
 2424TIP3    H228764   2.695   1.659   2.653  1.5935  0.1556 -0.9057
 2425TIP3   OH228765   6.719   3.441   4.073 -0.4523 -0.4418  0.0568
 2425TIP3    H128766   6.779   3.381   4.117 -0.8365 -0.7141  0.2158
 2425TIP3    H228767   6.725   3.417   3.980  1.0919  0.7777 -0.1909
 2426TIP3   OH228768   1.182   0.967  16.377  0.1473 -0.5141  0.0530
 2426TIP3    H128769   1.172   0.920  16.294 -2.9291 -0.1766  0.1116
 2426TIP3    H228770   1.129   1.046  16.366  1.9896  0.9993  1.3760
 2427TIP3   OH228771   5.757   0.074   1.275 -0.4169 -0.2501  0.2638
 2427TIP3    H128772   5.699   0.002   1.249 -0.9891  0.5314 -0.7046
 2427TIP3    H228773   5.795   0.105   1.193  0.8602 -0.2946  0.8156
 2428TIP3   OH228774   2.282   0.375  14.939 -0.0460 -0.0455 -0.1541
 2428TIP3    H128775   2.188   0.383  14.921 -0.7325  0.9760  3.1583
 2428TIP3    H228776   2.294   0.283  14.965 -0.1396 -0.1414 -0.4436
 2429TIP3   OH228777   5.365   4.860   0.130  0.4659  0.2547 -0.1626
 2429TIP3    H128778   5.322   4.828   0.051 -1.7791 -2.2099  1.9088
 2429TIP3    H228779   5.339   4.952   0.136 -1.8610 -0.3080 -0.7333
 2430TIP3   OH228780   6.253   4.489  12.302 -0.1407 -0.1093 -0.1650
 2430TIP3    H128781   6.343   4.484  12.335  0.1687  1.4121 -0.6795
 2430TIP3    H228782   6.209   4.550  12.360 -0.8935 -0.9528  0.1624
 2431TIP3   OH228783   6.227   0.548   3.691 -0.4448  0.6684 -0.0890
 2431TIP3    H128784   6.162   0.592   3.745  0.1780  2.3105 -0.6214
 2431TIP3    H228785   6.217   0.587   3.604 -0.3320 -0.7595 -0.7719
 2432TIP3   OH228786   5.072   2.168   5.900  0.1010  0.2902  0.2474
 2432TIP3    H128787   5.106   2.084   5.869 -1.1239  0.4237 -1.6528
 2432TIP3    H228788   4.985   2.148   5.935 -0.6451  0.8610 -1.1868
 2433TIP3   OH228789   2.425   5.279   3.990 -0.1257  0.1740 -0.2907
 2433TIP3    H128790   2.339   5.292   3.949  0.5339 -0.1297 -1.8573
 2433TIP3    H228791   2.476   5.233   3.923  1.2930  0.4459  0.5741
 2434TIP3   OH228792   5.512   4.107  12.121  0.1073 -0.1607  0.0990
 2434TIP3    H128793   5.499   4.167  12.194  0.2871  0.1715 -0.1411
 2434TIP3    H228794   5.447   4.038  12.134 -0.0492  0.0475  0.4139
 2435TIP3   OH228795   1.259   6.491  14.915 -0.2438 -0.0473 -0.5371
 2435TIP3    H128796   1.351   6.498  14.889  0.3682 -2.0552  0.8418
 2435TIP3    H228797   1.210   6.497  14.832  1.1912 -0.0371 -1.4214
 2436TIP3   OH228798   2.858   6.180   1.497  0.2954 -0.3073 -0.3216
 2436TIP3    H128799   2.932   6.190   1.437  0.1530  1.3183 -0.2829
 2436TIP3    H228800   2.865   6.091   1.529  1.0476 -0.8418 -1.8754
 2437TIP3   OH228801   3.355   5.617   1.253  0.2374  0.7323 -0.5694
 2437TIP3    H128802   3.336   5.706   1.224 -0.9833  0.3652 -0.9415
 2437TIP3    H228803   3.269   5.576   1.265  0.7198 -1.2031 -2.8781
 2438TIP3   OH228804   0.444   1.950   4.162 -0.5500 -0.3365 -0.6424
 2438TIP3    H128805   0.389   1.903   4.225 -0.9195  0.9619  0.0406
 2438TIP3    H228806   0.382   1.996   4.105 -0.1973  0.2097 -0.5981
 2439TIP3   OH228807   1.606   4.344  16.125  0.2106  0.3193 -0.3225
 2439TIP3    H128808   1.667   4.341  16.052  0.3705  0.5740 -0.2025
 2439TIP3    H228809   1.661   4.358  16.202  0.1601 -1.2398  0.0176
 2440TIP3   OH228810   0.168   4.558   4.376  0.5632 -0.7253  0.1409
 2440TIP3    H128811   0.229   4.537   4.305  1.3060 -0.1374  0.5821
 2440TIP3    H228812   0.086   4.516   4.351  0.7642 -0.4132 -1.1476
 2441TIP3   OH228813   5.233   3.447  16.902  0.5723  0.2874  0.0154
 2441TIP3    H128814   5.224   3.512  16.833  1.4510 -0.3042 -0.6706
 2441TIP3    H228815   5.316   3.468  16.945  0.7499 -0.2353 -0.0637
 2442TIP3   OH228816   2.215   3.786  16.235  0.1043 -0.3555  1.2975
 2442TIP3    H128817   2.292   3.823  16.191 -0.6526 -0.2078  0.0528
 2442TIP3    H228818   2.230   3.691  16.235  0.1712 -0.3444  0.8434
 2443TIP3   OH228819   4.648   6.135   0.814 -0.6272  0.3873 -0.5637
 2443TIP3    H128820   4.571   6.111   0.762  0.5288 -3.1579 -0.8923
 2443TIP3    H228821   4.654   6.067   0.881  1.9214  0.8308 -0.2491
 2444TIP3   OH228822   2.392   3.759  11.765 -0.2449  0.5400 -0.3110
 2444TIP3    H128823   2.466   3.808  11.728 -0.6611  1.0935 -0.4369
 2444TIP3    H228824   2.431   3.684  11.808  0.2995  0.1070 -1.5094
 2445TIP3   OH228825   0.948   0.910   2.392  0.2661  0.1276  0.0884
 2445TIP3    H128826   0.953   0.983   2.331  2.1533 -0.6644 -0.7820
 2445TIP3    H228827   0.955   0.832   2.337  0.2816 -0.6551  1.1637
 2446TIP3   OH228828   4.607   2.369  13.109 -0.4578  0.4691 -0.3267
 2446TIP3    H128829   4.580   2.306  13.175 -0.7915  0.7286 -0.2160
 2446TIP3    H228830   4.658   2.317  13.046 -0.7579  0.0852 -0.2556
 2447TIP3   OH228831   0.898   4.703  16.794  0.0293 -0.2629 -0.2244
 2447TIP3    H128832   0.988   4.731  16.813 -0.2256  0.6868 -0.3523
 2447TIP3    H228833   0.861   4.774  16.741 -0.9136 -0.4734  0.1235
 2448TIP3   OH228834   6.066   5.465  12.682  0.1515 -0.1278  0.4101
 2448TIP3    H128835   6.042   5.478  12.590  0.9873 -4.3840 -0.6113
 2448TIP3    H228836   5.989   5.423  12.720 -0.5458  2.4067  2.0724
 2449TIP3   OH228837   3.530   6.114  12.988 -0.0096 -0.4941 -0.1504
 2449TIP3    H128838   3.593   6.078  13.051 -0.2829 -0.3346  0.2163
 2449TIP3    H228839   3.490   6.188  13.034  1.0252  0.7343 -1.1117
 2450TIP3   OH228840   0.946   3.982   1.409 -0.5232  0.3014 -0.4075
 2450TIP3    H128841   0.879   3.941   1.464  1.1428 -2.3996 -0.2269
 2450TIP3    H228842   0.967   4.063   1.454 -1.2532 -0.4438  1.3808
 2451TIP3   OH228843   3.684   3.375   3.055 -0.2969 -0.4738 -0.0532
 2451TIP3    H128844   3.772   3.369   3.019 -0.5442  0.5246 -0.9005
 2451TIP3    H228845   3.628   3.385   2.978 -1.2293 -1.7889  0.4323
 2452TIP3   OH228846   3.902   5.063  16.685  0.2960 -0.1002 -0.3339
 2452TIP3    H128847   3.941   5.090  16.602  0.2333  0.3024 -0.2349
 2452TIP3    H228848   3.976   5.059  16.746  0.3497 -0.4455 -0.4198
 2453TIP3   OH228849   4.022   5.913   2.419  0.4891  0.2248  0.6568
 2453TIP3    H128850   4.011   5.928   2.513  3.2933 -0.1347  1.1410
 2453TIP3    H228851   4.088   5.978   2.393  3.0131 -2.4387 -0.0617
 2454TIP3   OH228852   6.651   5.900  10.707  0.3576  0.4960 -0.2330
 2454TIP3    H128853   6.741   5.882  10.736  0.0888  0.2712  0.4645
 2454TIP3    H228854   6.632   5.831  10.643  0.1231 -0.3983  0.7862
 2455TIP3   OH228855   2.992   0.852  15.863  0.0342  0.0869  0.2213
 2455TIP3    H128856   3.034   0.894  15.938  0.0290 -0.8137  0.7362
 2455TIP3    H228857   2.901   0.841  15.889  0.3086 -1.4661  0.6575
 2456TIP3   OH228858   4.549   4.074   5.365 -0.1366  0.1547 -0.4089
 2456TIP3    H128859   4.637   4.054   5.398  0.3480 -1.1140 -2.2672
 2456TIP3    H228860   4.492   4.010   5.408 -0.2262  1.1572  1.0101
 2457TIP3   OH228861   3.271   4.247   6.055 -0.0076  0.2096 -0.8880
 2457TIP3    H128862   3.186   4.237   6.100  0.2094  2.1546  0.0743
 2457TIP3    H228863   3.334   4.258   6.126  1.1209 -1.3454 -1.5917
 2458TIP3   OH228864   1.859   3.642  17.104 -0.4136 -0.2639 -0.4202
 2458TIP3    H128865   1.910   3.680  17.175  0.2675 -0.7655 -0.6253
 2458TIP3    H228866   1.874   3.547  17.112 -2.5383 -0.5793  0.4408
 2459TIP3   OH228867   1.245   5.101  16.002  0.3402 -0.1390  0.4975
 2459TIP3    H128868   1.335   5.071  16.013  1.0516  0.7674 -2.0687
 2459TIP3    H228869   1.251   5.196  16.011 -0.2772 -0.0402 -0.1157
 2460TIP3   OH228870   0.059   6.189  11.197 -0.0347  0.4157  0.6697
 2460TIP3    H128871   0.023   6.179  11.285  0.7479  0.9897  1.0701
 2460TIP3    H228872  -0.015   6.216  11.143 -0.1918  1.7076  1.5006
 2461TIP3   OH228873   6.610   2.019   5.716 -0.1016 -0.3566 -0.9768
 2461TIP3    H128874   6.697   2.059   5.720 -0.4663  0.3290  0.9004
 2461TIP3    H228875   6.610   1.972   5.633  2.2035 -0.7222 -0.8489
 2462TIP3   OH228876   4.895   4.411   3.732  0.5152  0.0697 -0.3826
 2462TIP3    H128877   4.956   4.378   3.665  1.3437  0.1674  0.3147
 2462TIP3    H228878   4.903   4.349   3.804  0.9926  0.9736  0.3597
 2463TIP3   OH228879   6.302   5.973  16.691 -0.1720  0.3731  0.1772
 2463TIP3    H128880   6.228   5.985  16.751 -0.7954  0.8407 -0.6628
 2463TIP3    H228881   6.348   6.057  16.693 -0.7718  0.7416 -0.7392
 2464TIP3   OH228882   2.099   5.916   2.633  0.1208 -0.7020 -0.1405
 2464TIP3    H128883   2.193   5.899   2.646 -0.2814 -2.0802  1.2710
 2464TIP3    H228884   2.057   5.831   2.647 -1.4567  0.1609  0.6741
 2465TIP3   OH228885   1.752   1.233  13.217  0.0414 -0.2665  0.4763
 2465TIP3    H128886   1.712   1.215  13.132  1.8508 -0.7641 -0.3113
 2465TIP3    H228887   1.826   1.173  13.222  0.7422  0.6644  1.8290
 2466TIP3   OH228888   5.713   6.631   3.834 -0.5932  0.5660  0.2235
 2466TIP3    H128889   5.735   6.587   3.916 -1.7259 -0.1337  0.1628
 2466TIP3    H228890   5.662   6.707   3.860 -0.2853  0.7763  0.2130
 2467TIP3   OH228891   3.312   5.984  11.409 -0.2714 -0.3659  0.1226
 2467TIP3    H128892   3.281   6.067  11.445 -1.2131 -0.0779 -1.2688
 2467TIP3    H228893   3.299   5.993  11.315 -2.1109 -2.7685  0.0454
 2468TIP3   OH228894   2.813   5.037   1.921  0.7463 -0.1552 -0.4882
 2468TIP3    H128895   2.721   5.052   1.899  0.5700  1.5928  1.1357
 2468TIP3    H228896   2.860   5.053   1.839 -0.2090  1.5815 -0.7440
 2469TIP3   OH228897   3.290   1.410   2.350  0.3559 -0.5453 -0.2211
 2469TIP3    H128898   3.334   1.404   2.435 -0.2172 -1.2121  0.0359
 2469TIP3    H228899   3.360   1.395   2.286  0.2318 -3.9308  0.2155
 2470TIP3   OH228900   2.505   5.433   0.257  0.1729  0.6249 -0.0016
 2470TIP3    H128901   2.419   5.393   0.264  0.6238 -0.7916 -1.8485
 2470TIP3    H228902   2.514   5.456   0.165  2.1150 -0.1524 -0.0651
 2471TIP3   OH228903   4.151   0.156  15.679  0.0547  0.6741 -0.4322
 2471TIP3    H128904   4.089   0.087  15.655 -0.9972  0.7288  1.8486
 2471TIP3    H228905   4.235   0.111  15.686 -0.5486 -0.3448  0.6794
 2472TIP3   OH228906   3.749   3.211   3.718  0.8517  0.0685 -0.4633
 2472TIP3    H128907   3.836   3.182   3.693  1.3688  1.9508 -1.0168
 2472TIP3    H228908   3.756   3.306   3.726 -0.4897  0.0484  2.1384
 2473TIP3   OH228909   2.390   1.505   1.739 -0.0987  0.0825  0.2518
 2473TIP3    H128910   2.474   1.520   1.695 -0.9668  0.8780 -1.2106
 2473TIP3    H228911   2.382   1.577   1.801 -0.3339  0.8332 -0.6280
 2474TIP3   OH228912   1.225   4.411   1.503  0.4346  0.1599 -0.1340
 2474TIP3    H128913   1.149   4.403   1.561 -0.1751 -1.0204 -1.0674
 2474TIP3    H228914   1.252   4.503   1.512  0.2492  0.0704  1.8576
 2475TIP3   OH228915   4.193   5.216  13.565  0.7164  0.0133 -0.1372
 2475TIP3    H128916   4.283   5.237  13.540  1.2506  0.0387  1.6329
 2475TIP3    H228917   4.202   5.150  13.634 -0.5688  0.5632  0.6000
 2476TIP3   OH228918   6.417   4.146   5.081 -0.1458 -0.2320 -0.0362
 2476TIP3    H128919   6.488   4.186   5.031 -1.1179 -0.5910 -1.7555
 2476TIP3    H228920   6.462   4.088   5.143  1.0991  0.4116 -0.3120
 2477TIP3   OH228921   5.408   5.429   5.701 -0.2973  0.6359  0.0917
 2477TIP3    H128922   5.333   5.419   5.760 -0.4052 -0.0921 -0.1513
 2477TIP3    H228923   5.464   5.354   5.722 -0.5410  0.1265 -1.0152
 2478TIP3   OH228924   3.111   3.198   0.580  0.4707 -0.2182  0.5138
 2478TIP3    H128925   3.196   3.170   0.614  0.8110 -1.6110 -1.3416
 2478TIP3    H228926   3.047   3.146   0.630  0.9924 -2.7510 -1.2873
 2479TIP3   OH228927   1.220   0.392  14.761 -0.1907 -0.2063  0.0682
 2479TIP3    H128928   1.281   0.331  14.802 -0.1168 -0.4422 -0.3856
 2479TIP3    H228929   1.270   0.473  14.752 -0.1570 -0.2003  0.2925
 2480TIP3   OH228930   1.865   1.586   6.339  0.3435 -0.6805  0.4288
 2480TIP3    H128931   1.948   1.615   6.302  1.6334 -2.5964  1.6259
 2480TIP3    H228932   1.886   1.504   6.384 -2.1021 -0.9644  1.2168
 2481TIP3   OH228933   3.210   2.047   1.449 -0.0410  0.1397  0.3634
 2481TIP3    H128934   3.240   2.016   1.534 -1.7351 -1.0115  0.5728
 2481TIP3    H228935   3.126   2.088   1.466 -1.0749 -1.3469 -0.9280
 2482TIP3   OH228936   5.136   4.787  10.710 -0.1783  0.6132  0.3300
 2482TIP3    H128937   5.195   4.862  10.712  0.7942 -0.1199  2.1165
 2482TIP3    H228938   5.102   4.785  10.621  1.2688  2.0150 -0.3075
 2483TIP3   OH228939   2.061   6.600  16.102  0.5920  0.6861  0.3282
 2483TIP3    H128940   1.973   6.573  16.077  1.2510  0.6722 -2.3195
 2483TIP3    H228941   2.119   6.545  16.048  2.1687  1.7404  0.8755
 2484TIP3   OH228942   1.265   1.731  16.668 -0.4528  0.2421 -0.0791
 2484TIP3    H128943   1.289   1.786  16.742 -0.8890 -0.2638  0.4461
 2484TIP3    H228944   1.313   1.768  16.594  0.9991 -0.0211  0.7052
 2485TIP3   OH228945   0.446   3.158  14.739 -0.0425  0.0047  0.1550
 2485TIP3    H128946   0.499   3.181  14.815  0.2353  0.2531 -0.1106
 2485TIP3    H228947   0.356   3.153  14.773  0.1664 -0.5674  0.6382
 2486TIP3   OH228948   4.063   3.142  13.279 -0.3413 -0.7534  0.5292
 2486TIP3    H128949   3.972   3.138  13.306 -0.7700 -2.2472 -0.9744
 2486TIP3    H228950   4.060   3.162  13.185  0.9407  0.4727  0.7143
 2487TIP3   OH228951   5.159   5.423  15.947 -0.5706  0.1525 -0.1659
 2487TIP3    H128952   5.187   5.493  15.887 -0.4839 -0.8769 -1.3722
 2487TIP3    H228953   5.192   5.450  16.032  0.4431  1.0364 -0.8108
 2488TIP3   OH228954   0.045   4.334  11.032 -0.0884  0.4315 -0.4722
 2488TIP3    H128955  -0.048   4.330  11.054 -0.1199 -2.5177 -0.7779
 2488TIP3    H228956   0.058   4.424  11.002 -2.3433  1.5443  1.5330
 2489TIP3   OH228957   1.385   6.795  13.554  0.3186  0.2947 -0.0634
 2489TIP3    H128958   1.434   6.862  13.506  0.5049  0.9173  0.9760
 2489TIP3    H228959   1.358   6.838  13.635 -0.1303 -0.6885  0.3251
 2490TIP3   OH228960   3.044   0.418   0.569 -0.1345  0.5152 -0.0575
 2490TIP3    H128961   2.956   0.400   0.601  0.4479 -0.2620  1.1398
 2490TIP3    H228962   3.075   0.491   0.623 -0.5551  1.8099 -1.4646
 2491TIP3   OH228963   5.976   6.736  14.680  0.3418 -0.1638 -0.0944
 2491TIP3    H128964   5.928   6.709  14.602  0.5712 -1.9103  0.3294
 2491TIP3    H228965   5.932   6.692  14.752  1.0035  0.2953  0.6051
 2492TIP3   OH228966   1.686   5.719  14.612  0.0012 -0.2354  0.4189
 2492TIP3    H128967   1.634   5.792  14.644 -0.4054 -0.7706  1.0023
 2492TIP3    H228968   1.623   5.648  14.599  0.6746 -1.1631  1.9323
 2493TIP3   OH228969   1.457   6.653  16.668 -0.0025 -0.8727 -0.0961
 2493TIP3    H128970   1.470   6.663  16.762  0.1518 -0.8135 -0.1223
 2493TIP3    H228971   1.375   6.698  16.650  0.8543  0.7207 -0.2682
 2494TIP3   OH228972   1.787   0.067   4.007 -0.5977 -0.0254  0.1876
 2494TIP3    H128973   1.796   0.020   3.925 -1.6983  2.1934 -1.2991
 2494TIP3    H228974   1.837   0.148   3.994  0.0942 -0.0877  2.1212
 2495TIP3   OH228975   1.877   6.597  16.791 -0.5735 -0.3479 -0.2992
 2495TIP3    H128976   1.816   6.648  16.843 -1.4445 -0.9976 -0.6417
 2495TIP3    H228977   1.865   6.507  16.821  1.1472 -0.3327  0.5011
 2496TIP3   OH228978   1.515   5.258   0.414 -0.0264 -0.0189 -0.7001
 2496TIP3    H128979   1.511   5.350   0.441  1.1792  0.3202 -1.5368
 2496TIP3    H228980   1.424   5.233   0.399 -0.6039  0.2512  1.9308
 2497TIP3   OH228981   1.148   4.067  12.046  0.0091 -0.0567 -0.1343
 2497TIP3    H128982   1.209   4.061  12.120  0.9164  0.8471 -0.7741
 2497TIP3    H228983   1.062   4.076  12.087  0.4137 -0.2509  0.8055
 2498TIP3   OH228984   3.622   2.076  11.646  0.1070 -0.1908 -0.2489
 2498TIP3    H128985   3.629   2.113  11.734 -0.5633 -0.8044  0.0741
 2498TIP3    H228986   3.669   1.993  11.652 -1.1486 -0.9143 -0.0549
 2499TIP3   OH228987   1.557   6.764   5.070  0.1026 -0.1900 -0.3813
 2499TIP3    H128988   1.600   6.723   5.146  0.6670 -2.4954 -1.8547
 2499TIP3    H228989   1.464   6.744   5.082  0.1419 -0.2348 -0.1283
 2500TIP3   OH228990   4.031   6.441   2.012 -0.0022  0.4249 -0.0141
 2500TIP3    H128991   3.980   6.470   2.088 -0.5140  1.0376 -0.5751
 2500TIP3    H228992   4.015   6.509   1.946 -0.2153 -0.5108 -0.9475
 2501TIP3   OH228993   1.717   6.448   6.537  0.7439  0.1771  0.0647
 2501TIP3    H128994   1.794   6.404   6.573 -0.4005 -1.1407  0.9996
 2501TIP3    H228995   1.719   6.427   6.444  0.6620 -1.2126  0.3612
 2502TIP3   OH228996   2.694   1.191  12.231  0.2292 -0.3967  0.4696
 2502TIP3    H128997   2.704   1.168  12.139 -0.1072 -1.7630  0.7557
 2502TIP3    H228998   2.695   1.287  12.232  3.4780 -0.2735 -0.5988
 2503TIP3   OH228999   2.297   0.445  15.343  0.2755  0.6216 -0.1320
 2503TIP3    H129000   2.309   0.434  15.437  1.4988 -0.9657 -0.4248
 2503TIP3    H229001   2.371   0.399  15.304 -1.0688 -0.1507 -1.9133
 2504TIP3   OH229002   0.061   0.986  12.833  0.4794  0.3181  0.5983
 2504TIP3    H129003   0.063   0.890  12.824  2.6966  0.3099  0.6910
 2504TIP3    H229004   0.005   1.001  12.909  0.7682 -0.9559  1.0956
 2505TIP3   OH229005   5.883   1.523  11.605  0.3671  0.6223 -0.0253
 2505TIP3    H129006   5.900   1.608  11.646  2.9907  0.0729  0.2423
 2505TIP3    H229007   5.933   1.460  11.659 -0.5582 -0.9145 -0.8884
 2506TIP3   OH229008   6.603   4.305  14.482  0.4432 -0.4231 -0.6124
 2506TIP3    H129009   6.550   4.264  14.414 -0.3066  1.9148 -1.5457
 2506TIP3    H229010   6.546   4.308  14.559 -0.7064  1.5689 -1.4492
 2507TIP3   OH229011   5.934   4.836  13.075 -0.1511  0.0444 -0.1395
 2507TIP3    H129012   5.952   4.895  13.148  2.0009 -0.8769  0.1533
 2507TIP3    H229013   5.876   4.769  13.112  1.0418 -0.4988  0.8095
 2508TIP3   OH229014   1.397   2.605  16.862  0.4442  0.2018  0.0673
 2508TIP3    H129015   1.370   2.641  16.947 -1.0712  2.0951 -1.1164
 2508TIP3    H229016   1.415   2.683  16.809 -0.1330 -0.8786 -1.7860
 2509TIP3   OH229017   0.483   2.046   0.927 -0.5802  0.3683 -0.1821
 2509TIP3    H129018   0.492   1.953   0.907 -2.5057 -0.2396  1.3945
 2509TIP3    H229019   0.567   2.071   0.966  0.0410 -0.6338 -0.8496
 2510TIP3   OH229020   0.788   5.949   4.546 -0.6657  0.3575 -0.3381
 2510TIP3    H129021   0.854   5.997   4.496 -1.7816  0.9897 -1.2642
 2510TIP3    H229022   0.836   5.879   4.590  0.4715  0.2095 -1.7518
 2511TIP3   OH229023   3.028   5.389  11.425 -0.1441 -0.2028 -0.4924
 2511TIP3    H129024   3.027   5.474  11.381  2.1672 -0.7224 -1.7157
 2511TIP3    H229025   2.949   5.389  11.479 -0.1489  2.7711 -0.3175
 2512TIP3   OH229026   4.944   6.392   0.521  0.8393 -0.1728  0.2218
 2512TIP3    H129027   4.924   6.366   0.612  1.7983  1.4914  0.9500
 2512TIP3    H229028   4.872   6.449   0.496  0.5341 -0.6955 -0.1198
 2513TIP3   OH229029   0.369   5.366  14.095  0.3725  0.4659 -0.0999
 2513TIP3    H129030   0.324   5.386  14.176  1.4295  0.4452  0.5148
 2513TIP3    H229031   0.382   5.451  14.053  1.1028  0.6394  0.4595
 2514TIP3   OH229032   1.015   3.482   1.991  0.0454 -0.6634  0.2262
 2514TIP3    H129033   0.995   3.487   1.898  2.7944 -0.2078 -0.4341
 2514TIP3    H229034   1.064   3.399   2.001  1.1696  0.0480  0.9037
 2515TIP3   OH229035   5.769   3.629   1.509 -0.2013  0.1876  0.2177
 2515TIP3    H129036   5.692   3.685   1.518  0.2276  1.1389 -1.6081
 2515TIP3    H229037   5.841   3.690   1.493  0.5858 -0.7958 -0.1109
 2516TIP3   OH229038   1.316   5.380   3.011  0.5998 -0.3426  0.7091
 2516TIP3    H129039   1.412   5.375   3.003  0.9311  1.7082  2.3027
 2516TIP3    H229040   1.302   5.440   3.084 -1.9079  1.0396 -0.7487
 2517TIP3   OH229041   0.092   4.817   1.708 -0.1410  0.1011  0.0401
 2517TIP3    H129042   0.146   4.896   1.720 -0.4055  0.3475 -0.3735
 2517TIP3    H229043   0.058   4.825   1.619 -0.9109 -0.0183  0.3181
 2518TIP3   OH229044   4.187   3.369  14.290 -0.0461  0.0789  0.3158
 2518TIP3    H129045   4.132   3.298  14.323  3.5833 -2.6543  1.0438
 2518TIP3    H229046   4.214   3.417  14.368  1.5358 -0.9476  0.4296
 2519TIP3   OH229047   0.995   1.734   3.016 -0.8470  0.5113  0.4620
 2519TIP3    H129048   1.047   1.672   2.965 -2.1430 -0.3994  0.2135
 2519TIP3    H229049   1.059   1.800   3.045  0.3328 -0.2476 -0.3126
 2520TIP3   OH229050   3.792   0.764   1.901 -0.7432  0.4028 -0.1063
 2520TIP3    H129051   3.751   0.821   1.836 -1.2711 -1.0225 -1.0802
 2520TIP3    H229052   3.856   0.713   1.851 -0.4385 -0.0136  0.6864
 2521TIP3   OH229053   3.337   1.449   4.806  0.1898 -0.2331  0.4029
 2521TIP3    H129054   3.355   1.385   4.875 -1.8601  0.8541  2.0881
 2521TIP3    H229055   3.395   1.522   4.826  1.4341 -0.9056 -0.6129
 2522TIP3   OH229056   5.929   6.079  11.788  0.0054 -0.4182  0.2624
 2522TIP3    H129057   5.880   6.118  11.716 -2.1395 -0.7582  1.4496
 2522TIP3    H229058   5.867   6.080  11.862  1.4919 -1.7513  1.5930
 2523TIP3   OH229059   2.014   6.153   2.750  0.1967 -0.0911  0.4242
 2523TIP3    H129060   2.054   6.216   2.689  1.2341 -2.2457 -1.2592
 2523TIP3    H229061   2.044   6.068   2.719 -1.3483 -1.4676  2.4742
 2524TIP3   OH229062   4.634   1.945  14.881  0.2606 -0.4011 -0.2163
 2524TIP3    H129063   4.687   1.867  14.862  2.9831  1.1133  0.6002
 2524TIP3    H229064   4.628   1.991  14.798  0.2937 -0.5431 -0.2980
 2525TIP3   OH229065   2.420   6.697  11.813 -0.2328 -0.0858  0.2683
 2525TIP3    H129066   2.459   6.756  11.748  2.3904 -0.2369  1.5913
 2525TIP3    H229067   2.490   6.635  11.834 -1.6965 -1.3363  1.7198
 2526TIP3   OH229068   4.470   0.236  10.797  0.0227 -0.1971  0.8666
 2526TIP3    H129069   4.393   0.182  10.780 -1.0843  0.7806  2.5315
 2526TIP3    H229070   4.529   0.179  10.844  1.2824 -1.5840 -2.1226
 2527TIP3   OH229071   5.690   4.301   1.915 -0.0261 -0.0403 -0.8448
 2527TIP3    H129072   5.611   4.333   1.872  0.4145 -0.3922 -1.9557
 2527TIP3    H229073   5.749   4.279   1.843  0.7118 -0.7221 -0.0535
 2528TIP3   OH229074   6.521   5.861  15.596 -0.7464  0.2224  0.2893
 2528TIP3    H129075   6.590   5.915  15.556  1.2185 -1.9209  0.5434
 2528TIP3    H229076   6.494   5.910  15.674 -0.6667  1.8628 -0.6854
 2529TIP3   OH229077   2.140   4.379  14.200 -0.1450  0.3817 -0.5621
 2529TIP3    H129078   2.057   4.376  14.247 -0.5265  1.4785 -1.1503
 2529TIP3    H229079   2.170   4.469  14.208  0.1941  0.3836 -1.7200
 2530TIP3   OH229080   6.627   0.928  12.185 -0.4488  0.4943  0.1828
 2530TIP3    H129081   6.555   0.980  12.149  0.8339  0.7754 -2.2050
 2530TIP3    H229082   6.706   0.974  12.156  0.7032 -0.7605  1.2140
 2531TIP3   OH229083   3.677   2.408   5.507  0.3237  0.3109 -0.6395
 2531TIP3    H129084   3.584   2.386   5.507  0.6730 -1.2710 -0.3991
 2531TIP3    H229085   3.701   2.413   5.415 -0.1448  1.5020 -0.7201
 2532TIP3   OH229086   6.442   3.422  16.777  0.0605 -0.3207 -0.6623
 2532TIP3    H129087   6.347   3.412  16.784 -0.4080  1.4857 -3.1751
 2532TIP3    H229088   6.454   3.514  16.752  2.6380  0.0592  1.5048
 2533TIP3   OH229089   1.906   4.897  13.754  0.7202 -0.4113 -0.2272
 2533TIP3    H129090   1.938   4.987  13.758  0.5059 -0.2882 -1.0887
 2533TIP3    H229091   1.813   4.904  13.773  0.8509 -0.5489  0.4774
 2534TIP3   OH229092   2.724   3.722  16.064 -0.2186 -0.1418 -0.1570
 2534TIP3    H129093   2.694   3.709  15.974 -0.3310  0.4094 -0.2000
 2534TIP3    H229094   2.709   3.815  16.081  0.7483 -0.0257  0.0870
 2535TIP3   OH229095   3.445   5.289  13.591 -0.5051 -0.8250  0.0879
 2535TIP3    H129096   3.462   5.325  13.678 -2.4221 -1.2788  0.6904
 2535TIP3    H229097   3.477   5.199  13.595 -0.8413 -0.9297  0.4188
 2536TIP3   OH229098   2.106   4.504   2.874 -0.2757  0.4414  0.4865
 2536TIP3    H129099   2.040   4.554   2.921  0.8592  2.3491  0.1783
 2536TIP3    H229100   2.134   4.561   2.802  0.4536 -1.0192 -0.4613
 2537TIP3   OH229101   0.037   1.430   4.949  0.2875 -0.4179  0.4563
 2537TIP3    H129102   0.091   1.498   4.910 -0.7470  0.0675 -0.1787
 2537TIP3    H229103  -0.008   1.475   5.021  0.2703 -0.6606  0.5971
 2538TIP3   OH229104   4.810   1.842  11.023 -0.7360  0.6367  0.3168
 2538TIP3    H129105   4.873   1.797  10.968 -0.4155 -1.4668  2.2248
 2538TIP3    H229106   4.735   1.859  10.966 -0.4548 -1.4828 -0.7926
 2539TIP3   OH229107   5.473   3.841   2.191  0.0298  0.2751 -0.1773
 2539TIP3    H129108   5.536   3.911   2.178 -0.2178  0.2824 -1.5604
 2539TIP3    H229109   5.482   3.787   2.112  0.4082 -1.4112  0.9613
 2540TIP3   OH229110   1.097   0.560  12.327  0.3159 -0.1298 -0.4318
 2540TIP3    H129111   1.030   0.572  12.260 -1.5157 -3.0279  0.6902
 2540TIP3    H229112   1.146   0.483  12.298  0.8681 -0.1365  0.4870
 2541TIP3   OH229113   0.958   3.948   3.681 -0.1450  0.2656 -0.6718
 2541TIP3    H129114   0.909   3.953   3.763  1.0929 -1.1393  0.2201
 2541TIP3    H229115   0.919   3.873   3.635  1.2733 -1.0760  0.1946
 2542TIP3   OH229116   1.071   4.555  17.176 -0.1037  0.1621  0.2897
 2542TIP3    H129117   1.098   4.513  17.094  0.6068  0.2115  0.4922
 2542TIP3    H229118   1.097   4.493  17.244  1.2863  1.0680  0.6155
 2543TIP3   OH229119   0.725   1.876  16.368  0.3846  0.4794 -0.3594
 2543TIP3    H129120   0.684   1.939  16.308 -1.4183  1.5552  1.8429
 2543TIP3    H229121   0.798   1.924  16.406  1.3104 -0.0837 -1.3731
 2544TIP3   OH229122   1.443   0.733  16.418 -0.1137  0.0691  0.3145
 2544TIP3    H129123   1.444   0.795  16.345 -0.9920 -0.4175 -0.1284
 2544TIP3    H229124   1.381   0.666  16.391  0.4072 -0.7169  1.0293
 2545TIP3   OH229125   2.301   5.997  14.613 -0.1904 -0.5137 -0.4489
 2545TIP3    H129126   2.282   5.956  14.528  0.5962 -2.4923  0.2727
 2545TIP3    H229127   2.386   5.960  14.638 -0.1380  0.5010  0.9320
 2546TIP3   OH229128   1.999   1.382  11.258 -0.1394  0.6443 -0.1510
 2546TIP3    H129129   1.984   1.443  11.330  1.8351 -0.1327  1.0023
 2546TIP3    H229130   2.064   1.426  11.202  0.7025 -0.0164  0.2687
 2547TIP3   OH229131   6.565   1.216   5.301 -1.0132 -0.1664 -0.1176
 2547TIP3    H129132   6.657   1.239   5.286 -1.5132  0.4119 -2.8631
 2547TIP3    H229133   6.529   1.292   5.348 -0.2956 -0.0443  0.2561
 2548TIP3   OH229134   3.576   2.889   3.867  0.3387 -0.3522 -0.0732
 2548TIP3    H129135   3.500   2.911   3.812 -0.4930 -2.2872  0.2278
 2548TIP3    H229136   3.539   2.878   3.955  0.6375 -2.7727 -0.1848
 2549TIP3   OH229137   6.342   3.515   5.125 -0.0151 -0.7323 -0.1592
 2549TIP3    H129138   6.265   3.570   5.144 -0.4708 -1.8736  1.5575
 2549TIP3    H229139   6.379   3.495   5.211  1.8797 -0.7235 -0.9220
 2550TIP3   OH229140   3.574   1.962   1.718  0.4781 -0.6181 -0.1576
 2550TIP3    H129141   3.636   2.028   1.751  1.2477 -0.7272 -1.3388
 2550TIP3    H229142   3.601   1.947   1.628 -1.6604 -0.2331 -0.9128
 2551TIP3   OH229143   5.018   1.823   6.068  0.0604 -0.2382 -0.4129
 2551TIP3    H129144   5.007   1.881   6.143  1.0067 -1.0242  0.3669
 2551TIP3    H229145   5.078   1.755   6.099 -0.7672 -1.4563 -1.3932
 2552TIP3   OH229146   6.278   0.919  12.747  0.3100  0.4966 -0.1105
 2552TIP3    H129147   6.265   0.877  12.832  1.9088  0.3774  0.1092
 2552TIP3    H229148   6.259   0.850  12.683 -2.1538  0.9279  0.0463
 2553TIP3   OH229149   6.559   6.204  15.181 -0.1388 -0.4994 -0.2380
 2553TIP3    H129150   6.615   6.277  15.156 -1.3554  1.3416  2.0060
 2553TIP3    H229151   6.484   6.209  15.123 -0.7058  0.7514  0.5610
 2554TIP3   OH229152   6.612   1.796   2.714  0.0565 -0.1342 -0.5373
 2554TIP3    H129153   6.617   1.711   2.758  0.0056  0.4967  0.7114
 2554TIP3    H229154   6.692   1.841   2.740 -1.4922  1.5275  1.6626
 2555TIP3   OH229155   4.381   1.536  14.315  0.1354  0.3770 -0.2498
 2555TIP3    H129156   4.456   1.589  14.288 -0.1924 -0.2109 -2.5807
 2555TIP3    H229157   4.391   1.526  14.409  2.0400  1.7393 -0.2450
 2556TIP3   OH229158   3.369   4.181   3.445  0.7283  0.1741  0.3231
 2556TIP3    H129159   3.424   4.144   3.514  1.5099  0.8425  0.0769
 2556TIP3    H229160   3.409   4.267   3.427 -0.2380  0.5540 -0.0498
 2557TIP3   OH229161   6.328   4.550   5.534  0.3650  0.3949 -0.1685
 2557TIP3    H129162   6.377   4.473   5.505  0.7103  0.8692 -0.8815
 2557TIP3    H229163   6.396   4.613   5.557  0.1161 -0.0354  1.9653
 2558TIP3   OH229164   2.923   1.206  12.894 -0.3518 -0.2167 -0.1660
 2558TIP3    H129165   2.954   1.145  12.961 -0.2884  0.0866  0.0837
 2558TIP3    H229166   2.828   1.192  12.890 -0.3952 -0.0333  0.1934
 2559TIP3   OH229167   6.188   0.113   2.177  0.2553  0.2689  0.7995
 2559TIP3    H129168   6.128   0.181   2.206  0.7288  0.4536  1.3727
 2559TIP3    H229169   6.275   0.153   2.183  0.6383 -0.6666  2.0985
 2560TIP3   OH229170   5.165   5.536  11.669 -0.2797 -0.6736 -0.3294
 2560TIP3    H129171   5.151   5.514  11.577 -0.6730  0.9693 -0.6954
 2560TIP3    H229172   5.082   5.574  11.698  0.5117  0.8465  0.0535
 2561TIP3   OH229173   2.920   0.301   4.884 -0.8045 -0.2289  0.1518
 2561TIP3    H129174   2.984   0.339   4.824 -2.0141  2.2537  0.3142
 2561TIP3    H229175   2.919   0.208   4.862  0.2473  0.2526 -2.2747
 2562TIP3   OH229176   6.113   3.091   1.463 -0.1729  0.2507  0.6453
 2562TIP3    H129177   6.153   3.067   1.547  0.6683  3.1215  1.1490
 2562TIP3    H229178   6.187   3.106   1.405 -0.7158 -0.2192 -0.1869
 2563TIP3   OH229179   4.202   2.338  13.308  0.0664  0.1864 -0.0844
 2563TIP3    H129180   4.162   2.258  13.275  2.0248 -1.0818  0.4639
 2563TIP3    H229181   4.235   2.383  13.229 -2.3889  1.3316 -0.5633
 2564TIP3   OH229182   5.326   1.331   0.495 -0.5106 -0.8682 -0.1127
 2564TIP3    H129183   5.386   1.397   0.529 -0.4711 -0.3465 -1.1416
 2564TIP3    H229184   5.243   1.378   0.484 -0.3085 -0.7899 -1.4730
 2565TIP3   OH229185   0.021   5.124   4.941 -0.0143 -0.0680 -0.1393
 2565TIP3    H129186   0.001   5.198   4.884 -3.8525 -1.0865 -0.3588
 2565TIP3    H229187  -0.040   5.133   5.014 -0.5085 -2.8751 -0.0953
 2566TIP3   OH229188   6.016   2.056  14.802  0.5228  0.8363 -0.0824
 2566TIP3    H129189   5.987   2.093  14.885  1.8316  0.8433  0.3932
 2566TIP3    H229190   6.005   1.961  14.812  1.0329  0.8089  0.2500
 2567TIP3   OH229191   5.962   6.050  13.206 -0.1724 -0.4770 -0.3308
 2567TIP3    H129192   5.895   6.019  13.146 -0.7419 -0.2738  0.1830
 2567TIP3    H229193   6.021   5.976  13.218  0.1433 -0.4041 -1.4109
 2568TIP3   OH229194   6.566   2.475  16.100  0.0981  0.7217  0.0989
 2568TIP3    H129195   6.570   2.533  16.024 -0.0186  2.3757  1.3138
 2568TIP3    H229196   6.648   2.426  16.097  1.7306  3.2218  0.7545
 2569TIP3   OH229197   0.137   2.165   0.172 -0.1531 -0.2272  0.1870
 2569TIP3    H129198   0.068   2.230   0.160 -0.2514  0.0584  1.9523
 2569TIP3    H229199   0.098   2.098   0.228  0.1241 -1.5521 -1.1528
 2570TIP3   OH229200   6.283   5.683   4.827  0.0661  0.1612 -0.6417
 2570TIP3    H129201   6.304   5.623   4.756  2.7325 -1.0175  0.9793
 2570TIP3    H229202   6.260   5.765   4.784 -0.0190 -0.9430 -2.8403
 2571TIP3   OH229203   3.048   1.320   1.842  0.1423  0.0735 -0.2455
 2571TIP3    H129204   2.963   1.341   1.803  0.3330  1.3559 -0.0359
 2571TIP3    H229205   3.062   1.228   1.823 -0.5918  0.2336 -1.6347
 2572TIP3   OH229206   1.526   4.139  14.417 -0.1954  0.0862  0.3121
 2572TIP3    H129207   1.569   4.217  14.451 -0.3034 -0.9045  2.9893
 2572TIP3    H229208   1.590   4.069  14.429 -0.8004 -0.5829 -0.2372
 2573TIP3   OH229209   5.874   1.602  13.548 -0.8254  0.4182 -0.1468
 2573TIP3    H129210   5.867   1.511  13.576 -0.7432  0.3774 -0.2623
 2573TIP3    H229211   5.967   1.617  13.535 -0.8713  0.4231 -0.4571
 2574TIP3   OH229212   1.756   0.372   4.310  0.4601 -0.2707 -0.3455
 2574TIP3    H129213   1.809   0.374   4.389 -1.0156 -0.2351  0.6820
 2574TIP3    H229214   1.667   0.390   4.340  0.2738  3.0650 -2.4309
 2575TIP3   OH229215   6.135   4.649   0.057  0.5043  0.5875  0.4699
 2575TIP3    H129216   6.067   4.701   0.015 -0.1103 -0.1361  0.5496
 2575TIP3    H229217   6.197   4.630  -0.013 -0.5756 -0.7110 -0.1829
 2576TIP3   OH229218   4.456   5.341   3.149  0.3085 -0.3529 -0.3949
 2576TIP3    H129219   4.405   5.404   3.099  0.2272  0.1434  0.3049
 2576TIP3    H229220   4.519   5.394   3.197  0.3425 -0.8158  0.0756
 2577TIP3   OH229221   4.112   3.796   6.674  0.0936  0.0531 -0.1591
 2577TIP3    H129222   4.055   3.719   6.680 -2.0990  1.6153  0.3250
 2577TIP3    H229223   4.177   3.782   6.743  1.3675 -2.5206 -1.7346
 2578TIP3   OH229224   6.505   4.823   4.692 -0.2734 -0.0310  0.1545
 2578TIP3    H129225   6.471   4.892   4.750  1.7691  0.8847  0.3693
 2578TIP3    H229226   6.573   4.780   4.744 -0.1981 -0.9253 -0.6712
 2579TIP3   OH229227   5.818   3.247  15.078  0.3244  0.5172 -0.0700
 2579TIP3    H129228   5.809   3.221  14.986 -1.8237 -1.5063  0.6052
 2579TIP3    H229229   5.756   3.319  15.088 -0.4305 -0.1312  0.0470
 2580TIP3   OH229230   1.622   3.242  10.813 -0.6635  0.0462 -0.0985
 2580TIP3    H129231   1.712   3.210  10.826 -0.6540  0.6518  1.6239
 2580TIP3    H229232   1.631   3.313  10.750 -0.0599 -0.4113 -0.5468
 2581TIP3   OH229233   0.121   5.346   5.139 -0.0021 -0.4421  0.6790
 2581TIP3    H129234   0.148   5.377   5.226 -0.0640  0.6712  0.3080
 2581TIP3    H229235   0.070   5.267   5.158 -1.0832  0.4652  1.7716
 2582TIP3   OH229236   4.208   1.330  13.741  0.2207 -0.4014  0.6172
 2582TIP3    H129237   4.119   1.358  13.763  0.9848  1.7646  1.2066
 2582TIP3    H229238   4.197   1.243  13.702 -2.1602 -0.1168  0.5066
 2583TIP3   OH229239   3.038   3.581  15.556 -0.2384  0.2729 -0.1083
 2583TIP3    H129240   3.127   3.564  15.525 -0.2036 -0.7079  0.4802
 2583TIP3    H229241   3.032   3.532  15.638 -0.9769  1.1903  0.4114
 2584TIP3   OH229242   4.230   1.143  11.846 -0.0494  0.7090 -0.0101
 2584TIP3    H129243   4.200   1.077  11.909  0.9759 -0.0836 -0.3215
 2584TIP3    H229244   4.243   1.222  11.899  1.8693 -0.2378  1.0241
 2585TIP3   OH229245   6.596   1.859  15.872  0.5015 -0.0299 -0.0753
 2585TIP3    H129246   6.525   1.856  15.935  1.8462  0.6404  1.5260
 2585TIP3    H229247   6.578   1.785  15.813 -0.3580 -1.2006  1.5659
 2586TIP3   OH229248   0.802   6.370   5.221  0.3283  0.1371 -0.5315
 2586TIP3    H129249   0.868   6.424   5.177  1.1356  0.8366  1.4250
 2586TIP3    H229250   0.849   6.290   5.245 -0.3966 -0.7192 -1.8155
 2587TIP3   OH229251   2.374   6.521   0.848  0.0070 -0.1680 -0.2189
 2587TIP3    H129252   2.313   6.529   0.921 -0.5067 -2.2108 -0.3838
 2587TIP3    H229253   2.391   6.612   0.822 -1.1834  0.5348  1.2767
 2588TIP3   OH229254   1.716   4.106   1.014  0.2058 -0.6311  0.2877
 2588TIP3    H129255   1.740   4.040   1.079  0.5519 -2.1110 -1.2870
 2588TIP3    H229256   1.741   4.068   0.930 -1.3789  0.6839 -0.8485
 2589TIP3   OH229257   2.474   0.031   6.630 -0.1701 -0.2463 -0.1428
 2589TIP3    H129258   2.527   0.110   6.622 -1.3729  0.5356 -0.5853
 2589TIP3    H229259   2.529  -0.038   6.593  1.0676  0.2768  0.6468
 2590TIP3   OH229260   4.893   5.987   5.594  0.1478 -0.3331  0.5061
 2590TIP3    H129261   4.879   6.034   5.676  0.5676  0.4478  0.1476
 2590TIP3    H229262   4.805   5.972   5.560 -0.0421 -0.9092  1.2206
 2591TIP3   OH229263   3.423   5.225   0.764  0.0728  0.3433  0.1158
 2591TIP3    H129264   3.360   5.156   0.784 -1.0466  1.5082  0.6274
 2591TIP3    H229265   3.378   5.282   0.701  0.8483  0.8353 -0.0096
 2592TIP3   OH229266   6.433   5.731   2.651 -0.0475 -0.8915 -0.2836
 2592TIP3    H129267   6.527   5.725   2.667 -0.2056 -1.8455  0.3790
 2592TIP3    H229268   6.416   5.824   2.639  1.1126 -0.7964 -1.2817
 2593TIP3   OH229269   6.502   1.704   4.924 -0.2538 -0.4731 -0.2531
 2593TIP3    H129270   6.597   1.697   4.930 -0.2512  0.8558  2.4298
 2593TIP3    H229271   6.472   1.713   5.014 -2.7838  0.8917 -1.1165
 2594TIP3   OH229272   2.408   5.145  10.585  0.6645  0.0135 -0.3066
 2594TIP3    H129273   2.492   5.099  10.585  1.3701  1.2239 -0.7815
 2594TIP3    H229274   2.351   5.091  10.531  0.5772 -1.7223  1.4083
 2595TIP3   OH229275   1.720   3.409   1.567 -0.5281  0.2301 -1.2659
 2595TIP3    H129276   1.759   3.322   1.570  0.5239  0.7167 -0.3090
 2595TIP3    H229277   1.743   3.449   1.651 -3.7544  0.2666 -0.2489
 2596TIP3   OH229278   4.760   5.531   1.239 -0.5526 -0.8152 -0.0459
 2596TIP3    H129279   4.762   5.565   1.329  2.5527 -2.0035  0.4583
 2596TIP3    H229280   4.777   5.608   1.184  0.5088 -0.5515  0.6330
 2597TIP3   OH229281   0.665   5.440  15.611 -0.3401 -0.2839  0.3321
 2597TIP3    H129282   0.591   5.443  15.550 -0.9905  1.2294  1.1485
 2597TIP3    H229283   0.743   5.436  15.555 -0.9937 -3.5856 -0.5700
 2598TIP3   OH229284   5.097   1.379   5.850  0.2581  0.4589  0.4094
 2598TIP3    H129285   5.150   1.306   5.817  2.6051  2.5267 -0.7260
 2598TIP3    H229286   5.021   1.382   5.791  0.6862 -0.4044 -0.2165
 2599TIP3   OH229287   3.107   4.301   1.974  0.0093  0.1918  0.0428
 2599TIP3    H129288   3.034   4.272   1.919 -0.0422 -1.0809  0.7408
 2599TIP3    H229289   3.108   4.396   1.964 -0.6145  0.0707 -1.3691
 2600TIP3   OH229290   3.594   4.433  13.387 -0.1193 -0.2298 -0.3824
 2600TIP3    H129291   3.687   4.455  13.382  0.4061 -2.2784 -0.3121
 2600TIP3    H229292   3.549   4.516  13.368  1.6815  0.0387 -4.4509
 2601TIP3   OH229293   4.838   4.515   2.964  0.5855  0.0498 -0.2154
 2601TIP3    H129294   4.786   4.594   2.980 -0.9709 -1.2390  1.5516
 2601TIP3    H229295   4.829   4.499   2.870  0.6711  1.7464 -0.5555
 2602TIP3   OH229296   4.894   3.082   2.308 -0.3017  0.5837  0.2053
 2602TIP3    H129297   4.956   3.151   2.284 -0.6929  1.1962  0.9314
 2602TIP3    H229298   4.881   3.033   2.227  0.1505  1.2237 -0.2660
 2603TIP3   OH229299   5.516   4.220   0.305  0.6524  0.0343  0.3181
 2603TIP3    H129300   5.482   4.197   0.219  1.1455 -0.9376  0.3635
 2603TIP3    H229301   5.595   4.270   0.287  0.6026  0.0730  0.2069
 2604TIP3   OH229302   6.361   5.436  15.109  0.4604  0.5997  0.0324
 2604TIP3    H129303   6.295   5.489  15.152  0.4957  0.7436 -0.0876
 2604TIP3    H229304   6.316   5.398  15.033  0.6239  1.0181 -0.2729
 2605TIP3   OH229305   3.990   0.776   0.529 -0.0725  0.0300 -0.0720
 2605TIP3    H129306   3.925   0.824   0.478 -0.6237 -0.2314  0.3698
 2605TIP3    H229307   3.974   0.684   0.507 -1.7609 -0.2962  2.1311
 2606TIP3   OH229308   2.504   0.907  16.720  0.4217 -0.5640 -0.0071
 2606TIP3    H129309   2.419   0.878  16.685  0.7716 -2.1586  0.3563
 2606TIP3    H229310   2.482   0.959  16.797 -0.2309 -0.7296 -0.0755
 2607TIP3   OH229311   3.263   3.069   1.239  0.4454  0.1528  0.2245
 2607TIP3    H129312   3.253   3.146   1.183  0.2631 -0.0540 -0.0323
 2607TIP3    H229313   3.269   3.104   1.328 -0.9007  0.4002  0.2445
 2608TIP3   OH229314   5.390   0.350   0.175  0.0405  0.0829 -0.3836
 2608TIP3    H129315   5.301   0.348   0.141 -0.0840 -1.7120 -0.0747
 2608TIP3    H229316   5.441   0.302   0.109  0.6515  0.5336 -0.2454
 2609TIP3   OH229317   6.282   0.301   0.914 -0.2793 -0.3700  0.1489
 2609TIP3    H129318   6.238   0.252   0.983 -0.4030  2.3948  2.1941
 2609TIP3    H229319   6.341   0.360   0.960  2.4472 -0.9361 -2.3359
 2610TIP3   OH229320   3.428   3.155   2.066  0.1603  0.6523 -0.0199
 2610TIP3    H129321   3.368   3.095   2.022 -0.8429  2.2881 -0.9736
 2610TIP3    H229322   3.470   3.101   2.133 -0.0953 -1.3055 -1.3383
 2611TIP3   OH229323   4.460   1.374  16.283 -0.3354  0.3794  0.0502
 2611TIP3    H129324   4.547   1.343  16.258 -1.2951 -0.9662 -1.9180
 2611TIP3    H229325   4.458   1.367  16.378  1.4872 -0.1441  0.0813
 2612TIP3   OH229326   4.998   6.086  11.672 -0.1403  0.3570  0.0310
 2612TIP3    H129327   4.977   6.169  11.630 -0.3161  1.1313  1.6160
 2612TIP3    H229328   5.064   6.108  11.737 -0.5878 -0.6545  0.8445
 2613TIP3   OH229329   0.627   3.566   0.213 -0.7961 -0.4730  0.0886
 2613TIP3    H129330   0.561   3.582   0.145  1.7583  1.1399 -2.2476
 2613TIP3    H229331   0.656   3.653   0.239  0.9874 -1.1128  0.3870
 2614TIP3   OH229332   1.006   5.735  12.712  0.0814 -0.0381  0.1501
 2614TIP3    H129333   1.038   5.680  12.784 -0.2629 -0.4738 -0.0205
 2614TIP3    H229334   0.931   5.782  12.750  1.3545  1.5759  0.7831
 2615TIP3   OH229335   0.536   5.990   3.316  0.2658 -0.1194 -0.4165
 2615TIP3    H129336   0.554   5.904   3.352  1.3875 -0.6351 -2.0700
 2615TIP3    H229337   0.537   6.049   3.392 -0.4996 -1.5247  0.7306
 2616TIP3   OH229338   4.837   3.078   0.564  0.5162  0.0643 -0.4471
 2616TIP3    H129339   4.844   3.015   0.636  0.2365  1.2040  0.6161
 2616TIP3    H229340   4.926   3.109   0.550  0.5238  0.0830 -0.3594
 2617TIP3   OH229341   6.588   2.326  10.599  0.7509 -0.3812  0.0917
 2617TIP3    H129342   6.610   2.415  10.572  0.9220 -0.4224  0.0890
 2617TIP3    H229343   6.662   2.273  10.568  0.7904 -0.4792  0.3554
 2618TIP3   OH229344   3.298   2.418  14.044  0.2448 -0.2861  0.6469
 2618TIP3    H129345   3.302   2.351  14.113 -0.9240 -0.4841  0.5468
 2618TIP3    H229346   3.353   2.489  14.076  2.7679 -1.8508  0.0853
 2619TIP3   OH229347   1.741   1.363   3.789  0.5371  0.2425 -0.4451
 2619TIP3    H129348   1.679   1.358   3.717 -1.4551  2.1946  0.9976
 2619TIP3    H229349   1.754   1.271   3.815  0.0229 -0.3641 -2.1749
 2620TIP3   OH229350   2.100   6.164   4.092 -0.2410  0.4270 -0.3241
 2620TIP3    H129351   2.168   6.110   4.132 -0.2231  0.1526 -0.7155
 2620TIP3    H229352   2.118   6.253   4.122  0.6532  0.4503 -0.9192
 2621TIP3   OH229353   1.403   2.238  11.554  0.2185  0.1192 -0.2476
 2621TIP3    H129354   1.460   2.230  11.630  1.7119  2.5571 -0.9934
 2621TIP3    H229355   1.461   2.225  11.479 -0.6997  0.2760 -1.0066
 2622TIP3   OH229356   5.659   2.459  13.772 -0.0533  0.1964 -0.5749
 2622TIP3    H129357   5.581   2.515  13.767  0.2142  0.6146 -0.2114
 2622TIP3    H229358   5.726   2.508  13.725  0.6504  1.0171  1.1825
 2623TIP3   OH229359   0.805   1.849  14.960  0.0043  1.0162  0.2573
 2623TIP3    H129360   0.884   1.869  15.010 -0.5932  2.9110  0.5020
 2623TIP3    H229361   0.835   1.840  14.870  0.5866  1.1806  0.4327
 2624TIP3   OH229362   1.619   2.589   3.330 -0.5363  0.1354  0.1628
 2624TIP3    H129363   1.530   2.585   3.294  0.3219  0.5779 -2.1813
 2624TIP3    H229364   1.650   2.677   3.307  0.5464 -0.0417  0.8746
 2625TIP3   OH229365   6.343   5.089   1.423  0.2878 -0.3847  0.6916
 2625TIP3    H129366   6.361   5.166   1.476 -0.2004 -0.5179  1.0590
 2625TIP3    H229367   6.394   5.102   1.343 -0.1265  0.5280  0.5607
 2626TIP3   OH229368   5.717   4.106   2.421  0.2204  0.9080  0.1015
 2626TIP3    H129369   5.692   4.047   2.492 -2.7394  0.5381 -1.1179
 2626TIP3    H229370   5.699   4.193   2.455  0.1875  0.8239  0.3042
 2627TIP3   OH229371   6.807   1.310   1.806 -0.5285  0.0993 -0.1900
 2627TIP3    H129372   6.823   1.253   1.730  0.4847  1.1429 -0.7859
 2627TIP3    H229373   6.791   1.249   1.878  0.2117 -0.9509 -0.8821
 2628TIP3   OH229374   5.178   5.376   5.834  0.3428  0.3460  0.1662
 2628TIP3    H129375   5.143   5.303   5.884  1.6320 -2.3224 -2.5293
 2628TIP3    H229376   5.101   5.424   5.804 -0.6181 -0.9231  0.5310
 2629TIP3   OH229377   0.531   0.504  15.378  0.2176 -0.0500 -0.0691
 2629TIP3    H129378   0.603   0.562  15.405  0.2030 -0.3852  0.7165
 2629TIP3    H229379   0.480   0.556  15.316  0.4319  0.6354  0.3243
 2630TIP3   OH229380   1.225   4.615   1.953  0.5350  0.5141 -0.0164
 2630TIP3    H129381   1.240   4.521   1.941  0.4115  0.5812 -0.7312
 2630TIP3    H229382   1.135   4.629   1.923  1.0035  1.0833 -1.2339
 2631TIP3   OH229383   3.035   4.455  16.645  0.4415  0.1537 -0.1739
 2631TIP3    H129384   3.078   4.453  16.730  0.3834  0.1066 -0.1449
 2631TIP3    H229385   3.107   4.451  16.582  0.4455 -0.5686 -0.1302
 2632TIP3   OH229386   6.797   5.285   4.155  0.2618  0.1919  0.5727
 2632TIP3    H129387   6.846   5.214   4.197  1.4100 -1.2945 -2.9722
 2632TIP3    H229388   6.709   5.276   4.191  1.1574 -0.8632  2.7004
 2633TIP3   OH229389   3.919   5.856   4.845 -0.2339  0.1602 -0.6246
 2633TIP3    H129390   3.991   5.799   4.817 -0.6882 -0.4545 -0.5669
 2633TIP3    H229391   3.867   5.871   4.766  0.5572  1.5238 -0.9180
 2634TIP3   OH229392   1.876   4.744  14.764  0.2993  0.5223  0.3328
 2634TIP3    H129393   1.936   4.740  14.840  2.0363  1.4810 -0.9133
 2634TIP3    H229394   1.916   4.810  14.706 -1.1860  0.0821 -1.2515
 2635TIP3   OH229395   4.131   0.268   0.487 -0.3902 -0.6990 -0.1886
 2635TIP3    H129396   4.062   0.216   0.528 -0.7627  0.7436  1.1023
 2635TIP3    H229397   4.210   0.248   0.538 -0.2893 -0.8532 -0.4053
 2636TIP3   OH229398   3.801   2.324  12.878 -0.4367 -0.2277  0.2202
 2636TIP3    H129399   3.782   2.349  12.787  0.5014 -2.5694 -0.6950
 2636TIP3    H229400   3.721   2.346  12.926 -1.0916  0.7384 -1.2351
 2637TIP3   OH229401   6.316   2.210  16.418 -0.4030  0.2611  0.4060
 2637TIP3    H129402   6.276   2.292  16.447 -1.1160 -0.3191  1.1289
 2637TIP3    H229403   6.336   2.163  16.499  0.7416  0.0549  0.0287
 2638TIP3   OH229404   1.792   1.992  12.797 -0.1305  0.1689  0.0421
 2638TIP3    H129405   1.762   2.055  12.862 -1.8873  1.1281 -1.5761
 2638TIP3    H229406   1.887   1.999  12.799 -0.1615  0.6056  2.0329
 2639TIP3   OH229407   4.107   0.660   5.211 -0.3217  0.0443  0.1370
 2639TIP3    H129408   4.195   0.668   5.174 -0.5776 -2.5814 -1.2702
 2639TIP3    H229409   4.117   0.685   5.303  2.0028 -0.5753  0.1179
 2640TIP3   OH229410   1.778   4.109   5.764  0.0186 -0.4706 -0.5668
 2640TIP3    H129411   1.684   4.128   5.766  0.2352  0.6666 -0.5596
 2640TIP3    H229412   1.795   4.060   5.844 -0.4172  0.0696 -0.1381
 2641TIP3   OH229413   3.807   5.435  17.020 -0.0249 -0.0026  0.4490
 2641TIP3    H129414   3.870   5.492  16.976 -1.0715  0.3718 -0.6254
 2641TIP3    H229415   3.788   5.366  16.956 -0.8879  0.0419  0.6406
 2642TIP3   OH229416   2.598   5.802  13.616  0.1547 -0.0584  0.3005
 2642TIP3    H129417   2.650   5.872  13.656  3.0699 -1.6650 -0.3451
 2642TIP3    H229418   2.584   5.739  13.687 -1.7200  0.7096  0.6684
 2643TIP3   OH229419   5.132   2.913   4.019  0.1237 -0.0112 -0.4530
 2643TIP3    H129420   5.222   2.894   4.048  0.3283  0.5336 -0.7091
 2643TIP3    H229421   5.127   2.873   3.932 -0.0105 -0.3739 -0.2809
 2644TIP3   OH229422   5.053   1.472   2.578  0.1136  0.4046 -0.2819
 2644TIP3    H129423   5.133   1.429   2.549 -1.2015 -1.5068 -1.3766
 2644TIP3    H229424   5.030   1.427   2.659  0.5818  1.5611  0.5171
 2645TIP3   OH229425   1.629   3.759   5.879  0.1474 -0.7634  0.0078
 2645TIP3    H129426   1.637   3.838   5.932 -0.6576  1.2369 -2.6484
 2645TIP3    H229427   1.719   3.737   5.854  0.2644  0.3439 -0.5906
 2646TIP3   OH229428   1.937   0.131   5.810 -0.0388 -0.0440  0.1894
 2646TIP3    H129429   1.870   0.179   5.859 -0.2979 -0.7611  0.5585
 2646TIP3    H229430   2.002   0.106   5.876 -0.0379 -0.4271  0.0435
 2647TIP3   OH229431   3.412   2.304   5.518  0.1035 -0.1253  0.6872
 2647TIP3    H129432   3.381   2.218   5.490  2.1274 -0.3508 -1.1044
 2647TIP3    H229433   3.403   2.303   5.613 -1.9687 -1.4488  0.5285
 2648TIP3   OH229434   3.134   5.699   2.792 -0.3566 -0.8983 -0.1414
 2648TIP3    H129435   3.196   5.677   2.723  0.4248 -1.7313  0.8141
 2648TIP3    H229436   3.061   5.639   2.779 -0.2465 -1.0029 -0.2771
 2649TIP3   OH229437   6.316   2.109  17.072 -0.1567 -0.0035 -0.1250
 2649TIP3    H129438   6.392   2.155  17.037  0.5392 -0.3700  0.8884
 2649TIP3    H229439   6.248   2.177  17.078 -0.1807  0.1679 -1.7510
 2650TIP3   OH229440   5.671   0.981  15.631 -0.3044 -0.3488  0.5185
 2650TIP3    H129441   5.761   1.008  15.649  0.2449  1.4960 -3.7821
 2650TIP3    H229442   5.631   1.057  15.590 -3.0510 -1.9463 -0.0370
 2651TIP3   OH229443   5.806   6.097   4.555  0.3104  0.6020 -0.0977
 2651TIP3    H129444   5.733   6.127   4.610 -0.8446  1.9352 -2.2148
 2651TIP3    H229445   5.855   6.037   4.611 -1.4229  0.9949  1.9832
 2652TIP3   OH229446   5.226   6.802   4.475  0.1782  0.3390 -0.2761
 2652TIP3    H129447   5.267   6.840   4.397  0.0313  2.4057  0.5988
 2652TIP3    H229448   5.172   6.730   4.441  2.5849 -0.9289 -1.7224
 2653TIP3   OH229449   2.298   4.658  12.760 -0.5722 -0.6125 -0.1481
 2653TIP3    H129450   2.319   4.565  12.762 -1.4838 -0.8470 -0.5939
 2653TIP3    H229451   2.317   4.689  12.848 -0.1479 -1.1949 -0.0275
 2654TIP3   OH229452   2.731   3.982   1.933 -0.4122  0.4271  0.0634
 2654TIP3    H129453   2.661   4.041   1.961 -0.1631  1.4384 -1.3412
 2654TIP3    H229454   2.768   3.948   2.015 -1.1241  1.5622  0.8863
 2655TIP3   OH229455   4.453   3.284  14.596 -0.4518 -0.2632  0.4102
 2655TIP3    H129456   4.488   3.371  14.611  0.4997 -0.6777  0.6611
 2655TIP3    H229457   4.446   3.245  14.683 -1.4675 -0.2256  0.3600
 2656TIP3   OH229458   6.088   2.587   0.614  0.0252  0.4436 -0.0248
 2656TIP3    H129459   6.109   2.585   0.521 -0.7410  1.3205 -0.2351
 2656TIP3    H229460   6.066   2.678   0.632  2.3423  0.7584  1.5499
 2657TIP3   OH229461   0.555   1.456  13.200 -0.0127  0.9810 -0.1897
 2657TIP3    H129462   0.490   1.477  13.268  0.7124  0.6284  0.6366
 2657TIP3    H229463   0.502   1.427  13.126 -0.8135 -1.8813  1.3238
 2658TIP3   OH229464   4.133   6.113   2.779 -0.4514  0.0081  0.5470
 2658TIP3    H129465   4.166   6.201   2.798 -0.6871  0.2302 -0.0224
 2658TIP3    H229466   4.050   6.108   2.825  0.1993 -0.4251  1.7026
 2659TIP3   OH229467   5.821   0.985  14.275  0.2990  0.1419  0.5529
 2659TIP3    H129468   5.826   0.986  14.371 -1.6796  2.9022  0.7492
 2659TIP3    H229469   5.764   0.910  14.255  1.2803 -0.8782  1.4432
 2660TIP3   OH229470   3.075   2.876  15.729  0.0779 -0.6508  0.1089
 2660TIP3    H129471   3.050   2.809  15.793 -1.5964  0.5326  0.7734
 2660TIP3    H229472   3.170   2.864  15.718  0.3614 -1.2015  2.4654
 2661TIP3   OH229473   6.568   1.518  14.727  0.1126  0.0889 -0.0026
 2661TIP3    H129474   6.605   1.602  14.701 -0.0975  0.0551 -0.4227
 2661TIP3    H229475   6.473   1.532  14.724  0.0792 -0.0745  0.2316
 2662TIP3   OH229476   5.738   6.657   5.514  0.1932  0.1423  0.7131
 2662TIP3    H129477   5.698   6.575   5.486 -1.9774  1.3500  0.0243
 2662TIP3    H229478   5.781   6.692   5.436 -1.0643  0.8344  0.3040
 2663TIP3   OH229479   5.304   1.979   3.447 -0.0680 -0.3222  0.4278
 2663TIP3    H129480   5.375   1.983   3.383  0.5032 -1.6136  0.9457
 2663TIP3    H229481   5.343   2.013   3.528  0.5930 -2.7522  1.2088
 2664TIP3   OH229482   2.299   4.687  16.332 -0.1123  0.0348  0.0950
 2664TIP3    H129483   2.295   4.776  16.297  0.2330 -0.2662 -0.7413
 2664TIP3    H229484   2.294   4.630  16.255  3.3801 -0.6401  0.1569
 2665TIP3   OH229485   6.517   0.357  11.846  0.3609 -0.2329 -0.0498
 2665TIP3    H129486   6.574   0.281  11.855  0.7605 -0.2843 -2.3254
 2665TIP3    H229487   6.575   0.429  11.822 -0.4414 -0.3203 -2.5598
 2666TIP3   OH229488   0.093   2.374   0.383 -0.0782  0.0786  0.0777
 2666TIP3    H129489   0.167   2.420   0.343  0.4623  0.1983  1.1777
 2666TIP3    H229490   0.133   2.302   0.432 -0.7185 -0.0790  0.3783
 2667TIP3   OH229491   3.049   3.819  13.816 -0.0983 -0.3771 -0.0956
 2667TIP3    H129492   3.023   3.759  13.886 -0.5764 -0.2498 -0.1646
 2667TIP3    H229493   3.115   3.771  13.767  1.4368  0.1044  1.3798
 2668TIP3   OH229494   3.491   2.627  14.039 -0.3609 -0.4901  0.3565
 2668TIP3    H129495   3.468   2.696  14.101 -1.0223 -0.0051 -0.3974
 2668TIP3    H229496   3.584   2.611  14.053 -0.6139 -0.7479  1.8068
 2669TIP3   OH229497   3.854   1.085  11.624  0.4947 -0.1963 -0.2972
 2669TIP3    H129498   3.826   1.071  11.715 -0.4977  0.6041 -0.4579
 2669TIP3    H229499   3.949   1.088  11.629  0.4357  0.8244  0.9025
 2670TIP3   OH229500   3.434   5.307   3.193 -0.4139 -0.3553  0.3169
 2670TIP3    H129501   3.346   5.273   3.209 -0.5234  0.2514  1.0407
 2670TIP3    H229502   3.486   5.230   3.171 -1.0761 -0.7441  0.0823
 2671TIP3   OH229503   1.454   2.793  14.868  0.2097 -0.0992 -0.2248
 2671TIP3    H129504   1.432   2.850  14.942  2.2604  0.7620 -0.2096
 2671TIP3    H229505   1.529   2.835  14.826 -0.2710 -1.0965 -2.2193
 2672TIP3   OH229506   3.180   4.309   4.963  0.2230  0.3186 -0.0016
 2672TIP3    H129507   3.107   4.343   5.014  2.2371  2.7674  1.5548
 2672TIP3    H229508   3.207   4.383   4.908  1.5390 -0.4641 -0.4695
 2673TIP3   OH229509   3.684   3.750  15.343  0.2017 -0.8183 -0.1283
 2673TIP3    H129510   3.657   3.784  15.257  0.2353 -2.1244 -0.6817
 2673TIP3    H229511   3.750   3.684  15.323  0.3958 -0.9690  0.9373
 2674TIP3   OH229512   6.018   3.286   5.870  0.6290  0.1438 -0.3065
 2674TIP3    H129513   6.010   3.200   5.828 -0.3722  0.2726 -0.3913
 2674TIP3    H229514   5.931   3.304   5.905  0.2994  1.9687 -1.9260
 2675TIP3   OH229515   3.024   6.020  17.195  0.7196  0.2107 -0.1568
 2675TIP3    H129516   3.061   6.042  17.280 -0.6386 -0.1048  0.5383
 2675TIP3    H229517   3.089   6.051  17.132  0.9646  2.0285  0.9246
 2676TIP3   OH229518   1.615   1.986  13.513 -0.0274  0.8901 -0.0824
 2676TIP3    H129519   1.550   2.050  13.484  0.3672  2.0672  1.4974
 2676TIP3    H229520   1.606   1.985  13.609  0.5168 -0.8515 -0.0222
 2677TIP3   OH229521   4.169   0.225  14.054 -0.4483 -0.5093  0.8588
 2677TIP3    H129522   4.236   0.207  14.120 -0.1132  0.4117  0.7812
 2677TIP3    H229523   4.094   0.260  14.103 -0.9826 -1.7676  0.9749
 2678TIP3   OH229524   4.343   0.030  13.205 -0.2837  0.0874  0.7420
 2678TIP3    H129525   4.335  -0.051  13.155 -0.2664  0.5497 -0.0223
 2678TIP3    H229526   4.292   0.094  13.156  0.7222  0.8474  0.6586
 2679TIP3   OH229527   0.728   2.863  11.262 -0.0017  0.4442  1.1081
 2679TIP3    H129528   0.752   2.937  11.206  0.0739  0.8083  1.6201
 2679TIP3    H229529   0.803   2.803  11.254  0.8365  1.3112  2.2306
 2680TIP3   OH229530   3.045   1.561  13.488 -0.4511 -0.1706  0.2157
 2680TIP3    H129531   3.076   1.640  13.532 -0.0983  0.4769 -1.1521
 2680TIP3    H229532   3.119   1.501  13.489  0.4234  0.7853 -1.6487
 2681TIP3   OH229533   4.509   0.103  16.352  0.6313  0.3507  0.2615
 2681TIP3    H129534   4.587   0.113  16.406  0.8313  0.7806 -0.0941
 2681TIP3    H229535   4.446   0.060  16.408  1.1680 -0.1065  0.5197
 2682TIP3   OH229536   2.087   5.458  14.625  0.8602 -0.4919 -0.2712
 2682TIP3    H129537   2.168   5.410  14.636  1.5457  0.3147 -1.5161
 2682TIP3    H229538   2.102   5.512  14.547 -0.5659  0.2872 -0.0365
 2683TIP3   OH229539   1.008   1.446   6.226  0.3397 -0.5512 -0.0000
 2683TIP3    H129540   0.973   1.534   6.242 -0.3506 -0.9493  0.7867
 2683TIP3    H229541   0.931   1.389   6.228  0.5135 -0.9772 -2.4134
 2684TIP3   OH229542   5.218   4.839   5.473  0.0305  1.0008 -0.2794
 2684TIP3    H129543   5.240   4.900   5.543  1.2450  0.0665  0.2085
 2684TIP3    H229544   5.279   4.860   5.402  0.6865  0.1777  0.0173
 2685TIP3   OH229545   3.728   4.500   2.779  0.4969  0.5095  0.4994
 2685TIP3    H129546   3.809   4.505   2.727  0.6416  3.7979  0.8426
 2685TIP3    H229547   3.658   4.501   2.713  0.7111  0.0766  0.2612
 2686TIP3   OH229548   6.370   5.643   1.226 -0.3203  0.6582 -0.3866
 2686TIP3    H129549   6.374   5.736   1.248 -2.1991  0.5620  0.5562
 2686TIP3    H229550   6.280   5.618   1.247  0.3725 -1.5570  0.0983
 2687TIP3   OH229551   6.141   4.880   3.135 -0.4118  0.0074 -0.4428
 2687TIP3    H129552   6.174   4.794   3.108 -1.6894 -0.3602 -0.9110
 2687TIP3    H229553   6.155   4.882   3.229  0.2881 -0.4191 -0.5308
 2688TIP3   OH229554   4.811   6.370  13.305  0.6328  0.0592  0.2159
 2688TIP3    H129555   4.757   6.420  13.244  2.1927  0.8546 -0.5675
 2688TIP3    H229556   4.786   6.279  13.289  0.9427  0.2532 -1.5728
 2689TIP3   OH229557   2.617   5.942   0.703 -0.3732  0.2668 -0.4445
 2689TIP3    H129558   2.682   5.991   0.653  1.1398 -0.0290  1.1223
 2689TIP3    H229559   2.550   6.007   0.725 -1.0653  0.4063 -2.7215
 2690TIP3   OH229560   6.608   1.028  15.606 -0.1240  0.8128  0.1030
 2690TIP3    H129561   6.699   1.017  15.635 -0.5137  2.3089  2.1419
 2690TIP3    H229562   6.612   1.026  15.510  1.7126 -1.3914  0.1549
 2691TIP3   OH229563   2.947   0.693  16.827 -0.5140  0.2773 -0.4204
 2691TIP3    H129564   2.910   0.781  16.841  0.7606  0.7627  0.0599
 2691TIP3    H229565   2.980   0.667  16.913 -0.7201 -0.6141 -0.5973
 2692TIP3   OH229566   5.536   4.529   0.278 -0.1667  0.1232  0.2838
 2692TIP3    H129567   5.590   4.473   0.222 -1.1291 -1.8960  1.2569
 2692TIP3    H229568   5.598   4.578   0.331  0.7129  0.5292 -1.0731
 2693TIP3   OH229569   1.875   5.557   3.426  0.1800 -0.5311  0.5382
 2693TIP3    H129570   1.800   5.616   3.434  1.3573  1.1637 -0.2704
 2693TIP3    H229571   1.908   5.572   3.337  2.5380  0.1499  1.4483
 2694TIP3   OH229572   1.201   5.019   0.048  0.2799  0.6514 -0.6145
 2694TIP3    H129573   1.164   5.010   0.136  0.1157  1.1172 -0.6322
 2694TIP3    H229574   1.153   4.955  -0.005 -0.7086  1.4265 -0.6926
 2695TIP3   OH229575   4.241   6.432   5.906 -0.0004 -0.1871 -0.5633
 2695TIP3    H129576   4.278   6.345   5.917  0.4324  0.0440 -0.1952
 2695TIP3    H229577   4.168   6.435   5.969 -0.2965 -0.4371 -0.8885
 2696TIP3   OH229578   3.405   2.756   1.574 -0.7871  0.5649 -0.1182
 2696TIP3    H129579   3.409   2.839   1.620 -1.3883  0.4185  0.2128
 2696TIP3    H229580   3.406   2.779   1.481 -0.2445  0.8979 -0.0303
 2697TIP3   OH229581   6.374   1.879  16.027 -0.2406 -0.2653  0.0522
 2697TIP3    H129582   6.292   1.848  16.066  0.2581  0.7917  2.0871
 2697TIP3    H229583   6.386   1.967  16.063  1.2663  0.0271 -1.0549
 2698TIP3   OH229584   6.614   0.495  12.824  0.0217 -0.0239  0.0838
 2698TIP3    H129585   6.525   0.529  12.818  0.0103 -0.1663 -0.7259
 2698TIP3    H229586   6.610   0.410  12.779  0.6051  0.0555 -0.1184
 2699TIP3   OH229587   3.749   1.111   5.139  0.3182 -0.6358 -0.4346
 2699TIP3    H129588   3.719   1.021   5.126  1.6024 -1.1517  0.0467
 2699TIP3    H229589   3.753   1.121   5.234  0.0528 -0.0157 -0.4859
 2700TIP3   OH229590   6.238   3.078   0.292  0.0484 -0.5902 -0.3787
 2700TIP3    H129591   6.167   3.056   0.232 -1.3595 -2.0737  1.6930
 2700TIP3    H229592   6.292   2.999   0.295 -0.5175 -0.9545  1.0743
 2701TIP3   OH229593   6.618   6.286   5.114 -0.1882 -0.4272 -0.1811
 2701TIP3    H129594   6.600   6.377   5.092 -0.4971 -0.9325 -2.3146
 2701TIP3    H229595   6.532   6.245   5.120 -0.0352 -0.9140 -1.0403
 2702TIP3   OH229596   2.002   0.877   1.876  0.4457 -0.3382 -0.2607
 2702TIP3    H129597   2.005   0.788   1.841 -0.2934 -0.6281  0.3802
 2702TIP3    H229598   2.034   0.868   1.966 -0.5493 -0.1246  0.1198
 2703TIP3   OH229599   1.229   3.809  13.705 -0.5507 -0.2218  0.3967
 2703TIP3    H129600   1.306   3.843  13.751 -1.5446  0.9320  1.2513
 2703TIP3    H229601   1.253   3.816  13.612  0.1511  0.6999  0.6290
 2704TIP3   OH229602   1.815   3.752   2.768 -0.2429  0.1802 -0.0005
 2704TIP3    H129603   1.816   3.808   2.846  1.6260 -0.8423  0.8009
 2704TIP3    H229604   1.813   3.663   2.804  0.1010 -0.2998 -1.1383
 2705TIP3   OH229605   5.289   5.348  17.080  0.0166  0.3432  0.2064
 2705TIP3    H129606   5.329   5.262  17.073 -1.7785 -0.4488 -1.1463
 2705TIP3    H229607   5.345   5.405  17.027  0.2325 -0.3868 -0.3706
 2706TIP3   OH229608   4.123   0.658  14.459  0.3317  0.0490  0.1619
 2706TIP3    H129609   4.043   0.629  14.416 -1.3456  1.1967  2.2552
 2706TIP3    H229610   4.107   0.750  14.479  1.7747  0.0554  1.4869
 2707TIP3   OH229611   3.462   3.415   5.472  0.0737 -0.4368  0.3694
 2707TIP3    H129612   3.439   3.333   5.427  0.6468 -0.2556 -0.2734
 2707TIP3    H229613   3.443   3.483   5.407 -0.8768 -0.0039  1.0734
 2708TIP3   OH229614   6.427   3.451  15.833 -0.5798 -0.1007 -0.2688
 2708TIP3    H129615   6.374   3.475  15.909 -0.9614 -1.5565 -0.0429
 2708TIP3    H229616   6.517   3.457  15.864 -0.7284 -0.5940  0.2819
 2709TIP3   OH229617   0.921   0.684  10.689 -0.2878  0.0823  0.3932
 2709TIP3    H129618   0.954   0.773  10.687 -1.3053  0.4645 -0.2394
 2709TIP3    H229619   0.826   0.694  10.697 -0.6444 -0.8660 -1.8768
 2710TIP3   OH229620   6.104   1.251  11.137 -0.7266 -0.0559 -0.6023
 2710TIP3    H129621   6.058   1.274  11.218  0.7095 -0.9764  0.5560
 2710TIP3    H229622   6.196   1.249  11.163 -0.3251 -1.4661 -1.9924
 2711TIP3   OH229623   4.342   4.813  11.166 -0.1877  0.3125  0.0256
 2711TIP3    H129624   4.423   4.808  11.116 -0.4676 -0.0874 -0.3888
 2711TIP3    H229625   4.296   4.732  11.147 -0.4651  0.3129  0.6465
 2712TIP3   OH229626   5.672   1.758   1.491  0.0072  0.3133  0.4790
 2712TIP3    H129627   5.595   1.703   1.505  0.8726 -0.8459  0.7985
 2712TIP3    H229628   5.721   1.753   1.573 -0.3793  2.4059  0.8999
 2713TIP3   OH229629   4.140   5.744  11.941  0.5718 -0.1982 -0.5727
 2713TIP3    H129630   4.069   5.693  11.901  0.3132  1.0816 -1.8410
 2713TIP3    H229631   4.220   5.709  11.901  0.4863 -0.2860 -0.6694
 2714TIP3   OH229632   0.371   2.003   2.138  0.2738  0.9538 -0.1004
 2714TIP3    H129633   0.405   1.914   2.132 -1.2140  0.4102 -0.8392
 2714TIP3    H229634   0.385   2.040   2.051 -0.3152  0.9934 -0.1775
 2715TIP3   OH229635   6.436   2.915  14.575 -0.0216 -0.0799 -0.1188
 2715TIP3    H129636   6.472   2.849  14.515  0.8459 -0.0109  0.3163
 2715TIP3    H229637   6.376   2.866  14.631 -0.0395 -0.3415 -0.3616
 2716TIP3   OH229638   5.401   1.025  12.236  0.0504 -0.5781  0.0321
 2716TIP3    H129639   5.465   1.081  12.191 -0.6174 -1.2194 -1.7817
 2716TIP3    H229640   5.331   1.085  12.261  0.0581 -0.3312 -0.5129
 2717TIP3   OH229641   6.787   2.545   4.196  0.4488  0.5418 -0.2007
 2717TIP3    H129642   6.844   2.533   4.273 -1.2346  2.2292  1.4271
 2717TIP3    H229643   6.700   2.524   4.228 -0.5241  2.7564 -1.1834
 2718TIP3   OH229644   1.364   0.933   1.359  0.2242  0.2738  0.3616
 2718TIP3    H129645   1.367   1.028   1.354 -0.4178  0.3172  0.7688
 2718TIP3    H229646   1.453   0.908   1.386 -0.2029  0.9017  2.5073
 2719TIP3   OH229647   5.083   6.104   6.284  0.5256 -0.7620 -0.3460
 2719TIP3    H129648   4.991   6.118   6.307  0.5919 -1.3529  0.3023
 2719TIP3    H229649   5.131   6.165   6.340  0.4481  0.8609 -1.9478
 2720TIP3   OH229650   2.046   6.236  15.763  0.0683 -0.2486  0.1473
 2720TIP3    H129651   2.018   6.321  15.730  1.6887 -0.7258 -2.7965
 2720TIP3    H229652   1.965   6.191  15.786 -0.8214  2.1794  2.3563
 2721TIP3   OH229653   4.229   5.126   3.098  0.0746  0.0600  0.4853
 2721TIP3    H129654   4.152   5.181   3.114 -2.0182 -2.4175 -0.4123
 2721TIP3    H229655   4.249   5.139   3.005  0.6981  0.5932  0.6842
 2722TIP3   OH229656   6.817   0.735  11.981  0.2669  0.1309  0.1965
 2722TIP3    H129657   6.758   0.751  12.054 -0.4767 -1.9905  0.1433
 2722TIP3    H229658   6.848   0.645  11.994 -0.1490 -0.4458 -2.2076
 2723TIP3   OH229659   3.636   5.815   2.406  0.1185  0.4550 -0.3820
 2723TIP3    H129660   3.630   5.866   2.487 -1.4769  2.1684 -1.4741
 2723TIP3    H229661   3.728   5.821   2.380  0.6020  0.0949  1.1286
 2724TIP3   OH229662   1.603   5.286   2.990  0.1871  0.0864  0.2560
 2724TIP3    H129663   1.621   5.309   3.081  0.4589  0.7130  0.0492
 2724TIP3    H229664   1.619   5.367   2.942  0.1319 -0.2688 -0.3605
 2725TIP3   OH229665   2.032   6.738   3.672  0.0640  0.0166  0.4301
 2725TIP3    H129666   1.936   6.747   3.672  0.1865  1.8434 -0.7464
 2725TIP3    H229667   2.047   6.643   3.672 -1.7211 -0.3052  1.2206
 2726TIP3   OH229668   0.402   3.426  12.458 -0.0860 -0.1928  0.3148
 2726TIP3    H129669   0.356   3.361  12.404  1.4490  0.0508 -1.3411
 2726TIP3    H229670   0.331   3.472  12.503 -1.4507 -0.3656 -1.5229
 2727TIP3   OH229671   4.424   2.826   2.429 -0.7872  0.0048  0.3503
 2727TIP3    H129672   4.359   2.890   2.458 -1.9276 -0.9312 -0.0304
 2727TIP3    H229673   4.466   2.795   2.509 -1.5440 -0.1120  0.7135
 2728TIP3   OH229674   2.030   6.038  13.327 -0.5068 -0.4077 -0.2186
 2728TIP3    H129675   2.073   5.985  13.394 -0.3063 -0.0852 -0.0871
 2728TIP3    H229676   2.020   6.124  13.368  0.8127  0.1803 -1.0515
 2729TIP3   OH229677   1.850   5.280   5.151  0.0038 -0.0805  0.7594
 2729TIP3    H129678   1.913   5.340   5.192 -0.9692  0.7853  1.0037
 2729TIP3    H229679   1.827   5.322   5.069  0.2143 -0.7066  0.3751
 2730TIP3   OH229680   2.492   2.213   4.071 -0.0554 -0.3629  0.1673
 2730TIP3    H129681   2.439   2.249   4.142  0.6711 -1.0179  1.0623
 2730TIP3    H229682   2.437   2.146   4.031  0.1021 -1.0987  1.1456
 2731TIP3   OH229683   6.695   2.170  11.193  0.0252  0.5996  0.5407
 2731TIP3    H129684   6.636   2.120  11.138 -0.6862  1.9307  0.0392
 2731TIP3    H229685   6.702   2.256  11.150  0.2231  1.3523  1.9826
 2732TIP3   OH229686   4.294   1.418  17.160 -0.9598 -0.4917  0.0117
 2732TIP3    H129687   4.268   1.327  17.147 -1.1069 -0.3079 -1.0216
 2732TIP3    H229688   4.256   1.465  17.086  0.9524  0.0502 -0.6759
 2733TIP3   OH229689   4.270   5.088  11.872 -0.1690 -0.0840 -0.1404
 2733TIP3    H129690   4.333   5.157  11.852 -0.0298 -0.2480 -0.2725
 2733TIP3    H229691   4.289   5.020  11.808 -1.7737  0.6567 -1.4791
 2734TIP3   OH229692   0.574   2.064   0.065  0.5037  0.2719  0.2241
 2734TIP3    H129693   0.555   2.005  -0.008  1.7545  0.6902 -0.4602
 2734TIP3    H229694   0.663   2.042   0.092  0.4832  0.9184  0.8558
 2735TIP3   OH229695   3.216   2.145  12.366  0.1931  0.0688 -0.1914
 2735TIP3    H129696   3.139   2.089  12.379  0.8382 -0.4260  1.8401
 2735TIP3    H229697   3.195   2.225  12.414  1.3532 -0.5098  1.3560
 2736TIP3   OH229698   6.786   4.293   0.495 -0.3528 -0.2328 -0.3661
 2736TIP3    H129699   6.828   4.341   0.567 -0.3593  1.8866 -1.6856
 2736TIP3    H229700   6.698   4.276   0.527 -0.5291  1.1547 -0.0142
 2737TIP3   OH229701   2.931   2.008   4.471 -0.0188  0.3412 -0.0134
 2737TIP3    H129702   2.869   2.028   4.401  0.6020  1.4549 -0.2670
 2737TIP3    H229703   2.955   1.917   4.457 -2.1684 -0.3828  0.5434
 2738TIP3   OH229704   5.859   1.989   2.208 -0.3692 -0.0640  0.3689
 2738TIP3    H129705   5.782   1.982   2.152  0.6127 -1.3571 -0.9045
 2738TIP3    H229706   5.933   2.000   2.147  0.7555 -1.7254  1.3156
 2739TIP3   OH229707   4.815   5.634   0.979  0.3652  0.4375  0.0505
 2739TIP3    H129708   4.823   5.608   0.887  1.2406 -0.4147  0.3525
 2739TIP3    H229709   4.904   5.628   1.013 -0.0271  0.3059  1.0714
 2740TIP3   OH229710   0.248   5.577   1.122  0.1037  0.4748  0.4711
 2740TIP3    H129711   0.188   5.618   1.183 -1.4134  0.3097 -0.8513
 2740TIP3    H229712   0.335   5.605   1.150 -0.4970  0.0442  2.9478
 2741TIP3   OH229713   0.565   4.009  11.652  0.0033 -0.6408  0.3309
 2741TIP3    H129714   0.598   3.992  11.565 -0.7547 -1.5166  0.1964
 2741TIP3    H229715   0.620   4.080  11.686  1.1655 -1.2100 -0.3321
 2742TIP3   OH229716   6.358   3.151  16.428  0.2818  0.0260  0.5530
 2742TIP3    H129717   6.322   3.076  16.381 -0.4163  0.2714  0.6818
 2742TIP3    H229718   6.431   3.181  16.373  1.0294 -1.1629  0.8431
 2743TIP3   OH229719   3.382   2.646   5.793  0.0488  0.3018 -0.8004
 2743TIP3    H129720   3.456   2.674   5.739 -1.3259  0.5709 -2.6394
 2743TIP3    H229721   3.349   2.726   5.833  1.0597  0.1038  0.5222
 2744TIP3   OH229722   4.889   1.620  16.895 -0.4725  0.2554 -0.0078
 2744TIP3    H129723   4.976   1.647  16.924 -0.6379  0.8180 -0.0236
 2744TIP3    H229724   4.852   1.573  16.970  0.3982 -1.3091 -0.5000
 2745TIP3   OH229725   2.701   6.234  13.473 -0.4140  0.2295  0.1029
 2745TIP3    H129726   2.730   6.158  13.423 -0.5406 -0.5262  1.1395
 2745TIP3    H229727   2.687   6.302  13.407 -1.8225 -1.0985 -1.0503
 2746TIP3   OH229728   0.530   1.298   0.306  0.4980 -0.6226 -0.3984
 2746TIP3    H129729   0.468   1.235   0.270 -2.7647  2.1765 -0.2367
 2746TIP3    H229730   0.485   1.336   0.381  2.4446  1.5318 -0.1901
 2747TIP3   OH229731   0.465   1.696  12.971 -0.2519  0.2457 -0.2045
 2747TIP3    H129732   0.378   1.656  12.964 -0.3642  0.4787 -0.1629
 2747TIP3    H229733   0.471   1.725  13.062  0.4464 -1.0608  0.1917
 2748TIP3   OH229734   5.902   1.280  13.473 -0.1673 -0.0342 -0.4132
 2748TIP3    H129735   5.898   1.296  13.567 -0.3209 -0.0881 -0.4106
 2748TIP3    H229736   5.945   1.195  13.465 -2.2467 -1.1393 -0.2944
 2749TIP3   OH229737   3.190   4.784   4.470 -0.0090 -0.3077  0.2681
 2749TIP3    H129738   3.283   4.765   4.464  0.3969  1.5158  0.1876
 2749TIP3    H229739   3.147   4.701   4.451  1.5923 -1.6010  1.9494
 2750TIP3   OH229740   3.571   6.697  12.417 -1.1304  0.1517 -0.2778
 2750TIP3    H129741   3.666   6.702  12.408 -0.9192 -2.2879 -0.1477
 2750TIP3    H229742   3.540   6.783  12.387  1.0576  0.8386 -0.8232
 2751TIP3   OH229743   2.406   0.731  12.987 -0.0960  0.2266 -0.0348
 2751TIP3    H129744   2.419   0.756  13.079 -4.0146  1.1209  0.4725
 2751TIP3    H229745   2.337   0.664  12.990  0.4194 -0.5086 -2.3202
 2752TIP3   OH229746   4.380   2.706   3.085  0.3895  0.8157 -0.0014
 2752TIP3    H129747   4.457   2.736   3.133 -0.3890  2.7000  0.1814
 2752TIP3    H229748   4.396   2.736   2.995  0.4680  0.0066 -0.2633
 2753TIP3   OH229749   3.847   0.125  17.107 -1.0268 -0.4123 -0.0765
 2753TIP3    H129750   3.896   0.043  17.104 -0.2225  0.0843 -1.2404
 2753TIP3    H229751   3.861   0.165  17.021 -1.4067  0.9420  0.4609
 2754TIP3   OH229752   5.673   4.409  11.413  0.3025  0.1230  0.8234
 2754TIP3    H129753   5.715   4.418  11.328 -1.6329 -0.3576 -0.2478
 2754TIP3    H229754   5.735   4.358  11.466  1.5640  0.5025 -0.2515
 2755TIP3   OH229755   1.754   2.368   0.187 -0.0747  0.0483 -0.4884
 2755TIP3    H129756   1.702   2.449   0.193  0.6843  0.4582  1.5799
 2755TIP3    H229757   1.839   2.393   0.222 -0.0090 -1.7825  0.7848
 2756TIP3   OH229758   2.320   2.887   3.493  0.0331 -0.2084 -0.1746
 2756TIP3    H129759   2.356   2.815   3.545 -1.5504 -1.0795 -0.2307
 2756TIP3    H229760   2.268   2.938   3.554  1.0404  0.8416 -0.1657
 2757TIP3   OH229761   6.516   4.370  14.923 -0.0950  0.6329 -0.4576
 2757TIP3    H129762   6.590   4.310  14.911 -1.5351 -0.9017 -2.2740
 2757TIP3    H229763   6.541   4.450  14.878 -0.5303 -0.8404 -3.5968
 2758TIP3   OH229764   5.425   6.070   6.648  0.0544  0.3364 -0.0658
 2758TIP3    H129765   5.463   6.001   6.703 -0.0373 -0.9723 -1.5816
 2758TIP3    H229766   5.331   6.054   6.651 -0.0411  0.9240  0.2317
 2759TIP3   OH229767   5.848   0.126   0.706 -0.0876  0.8466  0.2517
 2759TIP3    H129768   5.923   0.069   0.696  1.4313  2.3688  2.1242
 2759TIP3    H229769   5.774   0.067   0.722  0.9161 -0.6343 -0.4461
 2760TIP3   OH229770   3.786   4.950  11.479 -0.5727  0.2826 -0.3308
 2760TIP3    H129771   3.808   5.035  11.516 -2.8593  0.0654  1.7549
 2760TIP3    H229772   3.843   4.888  11.525 -0.5180  0.4523 -0.1678
 2761TIP3   OH229773   3.403   3.631   0.270 -0.2829  0.3654 -0.8508
 2761TIP3    H129774   3.442   3.547   0.292  0.4754  0.2590 -2.4602
 2761TIP3    H229775   3.371   3.665   0.353  0.4998 -0.9489  0.0256
 2762TIP3   OH229776   5.454   1.063   2.740 -0.4007  0.0544  0.5590
 2762TIP3    H129777   5.383   1.048   2.803 -0.4855  3.1830  1.4108
 2762TIP3    H229778   5.532   1.078   2.795  0.2546 -0.3835 -0.2305
 2763TIP3   OH229779   5.521   6.203   4.311 -0.8366 -0.1278  0.1073
 2763TIP3    H129780   5.548   6.204   4.219 -2.3802 -1.1580 -0.3942
 2763TIP3    H229781   5.542   6.114   4.341  0.8373  0.5817  1.1567
 2764TIP3   OH229782   6.243   3.721   4.442 -0.0755  0.6285  0.2469
 2764TIP3    H129783   6.265   3.695   4.352 -0.3082  1.2507  0.0052
 2764TIP3    H229784   6.167   3.778   4.433 -0.2303  0.5300  0.8610
 2765TIP3   OH229785   3.081   4.842   3.447 -0.8757 -0.2223  0.1685
 2765TIP3    H129786   3.060   4.787   3.372 -0.5043  1.0235 -0.8980
 2765TIP3    H229787   3.165   4.808   3.479 -0.1603  0.2853 -1.0808
 2766TIP3   OH229788   2.448   3.704   1.687  0.1661 -0.0694 -0.1257
 2766TIP3    H129789   2.452   3.608   1.692  2.0710  0.0401  2.1929
 2766TIP3    H229790   2.538   3.730   1.667  0.5321  1.2871  2.7710
 2767TIP3   OH229791   2.979   4.202  10.657  0.2492 -0.3143 -0.6305
 2767TIP3    H129792   2.935   4.184  10.574  0.0442  1.1489 -0.8608
 2767TIP3    H229793   2.908   4.221  10.719  0.4860  2.3851 -1.0860
 2768TIP3   OH229794   3.087   2.361  15.989  0.5365  0.3421 -0.1994
 2768TIP3    H129795   3.110   2.326  16.076  1.2629 -1.7851 -1.1765
 2768TIP3    H229796   2.994   2.380  15.995  0.6082  0.3976  1.0942
 2769TIP3   OH229797   1.792   1.993  15.823 -0.0071 -0.2221  0.1015
 2769TIP3    H129798   1.746   1.930  15.878 -1.1245 -1.7543 -2.4020
 2769TIP3    H229799   1.745   2.075  15.836 -1.9400 -1.1829 -0.5047
 2770TIP3   OH229800   4.438   4.315   3.540  0.3070  0.6668 -0.6628
 2770TIP3    H129801   4.507   4.380   3.532 -0.1470  1.7374  2.5874
 2770TIP3    H229802   4.478   4.234   3.511  2.2040  1.6494 -0.9802
 2771TIP3   OH229803   5.636   0.276   3.810 -0.0002 -0.0363 -0.1531
 2771TIP3    H129804   5.544   0.286   3.834 -0.3196  2.5981 -2.0068
 2771TIP3    H229805   5.634   0.225   3.729  0.4850 -2.4916  1.2902
 2772TIP3   OH229806   6.265   6.783  13.243  0.7130 -0.4815  0.1243
 2772TIP3    H129807   6.344   6.767  13.192  0.8660  0.5830  0.0022
 2772TIP3    H229808   6.196   6.790  13.177  0.9577  1.1831  0.0165
 2773TIP3   OH229809   3.749   1.606   3.732  0.0679 -0.1194 -0.3180
 2773TIP3    H129810   3.703   1.643   3.808 -3.2976 -1.8952 -1.2709
 2773TIP3    H229811   3.762   1.514   3.755  0.0247 -0.4184 -1.4649
 2774TIP3   OH229812   0.092   5.797   0.247 -0.3563 -0.5034  0.2377
 2774TIP3    H129813   0.065   5.889   0.242 -1.7720 -0.9397 -0.8533
 2774TIP3    H229814   0.092   5.777   0.341  0.1906  0.6416  0.5070
 2775TIP3   OH229815   0.900   5.143  11.806  0.0201  0.3657 -0.8044
 2775TIP3    H129816   0.812   5.176  11.822 -0.3587 -0.8244 -0.3121
 2775TIP3    H229817   0.893   5.091  11.726  1.0147  2.8723 -2.6625
 2776TIP3   OH229818   0.041   1.504  15.512 -0.1100  0.1569  0.5575
 2776TIP3    H129819   0.135   1.489  15.516  0.0834  1.1965  0.2502
 2776TIP3    H229820   0.030   1.566  15.439 -0.8411  1.4024  1.6878
 2777TIP3   OH229821   1.119   0.191   2.815 -0.2383 -0.2090 -0.3780
 2777TIP3    H129822   1.176   0.230   2.748  0.2520  0.0127  0.1593
 2777TIP3    H229823   1.103   0.102   2.784 -0.0942 -0.0826 -0.8355
 2778TIP3   OH229824   5.713   6.247   5.244 -0.7403 -0.1204  0.5865
 2778TIP3    H129825   5.767   6.273   5.170 -0.0805 -2.2002  0.2956
 2778TIP3    H229826   5.768   6.263   5.321 -1.1379  1.2748  0.6235
 2779TIP3   OH229827   5.954   2.338  13.523  0.2904 -0.6560  0.0391
 2779TIP3    H129828   6.019   2.342  13.453 -2.6137 -0.8072 -2.9006
 2779TIP3    H229829   5.925   2.429  13.534 -1.9797 -1.0435 -1.8956
 2780TIP3   OH229830   4.343   4.702   2.896 -0.5390  0.3636  0.1294
 2780TIP3    H129831   4.315   4.689   2.805 -0.8184  0.7531  0.1545
 2780TIP3    H229832   4.385   4.788   2.896  1.0761 -0.3966  0.0036
 2781TIP3   OH229833   6.005   5.344  17.150 -0.0485 -0.3276 -0.0864
 2781TIP3    H129834   6.055   5.263  17.140  2.4032  1.2400 -1.6087
 2781TIP3    H229835   6.070   5.409  17.174 -1.9990  1.1875  1.3190
 2782TIP3   OH229836   6.758   0.878  13.998  0.0303  0.0729 -0.4081
 2782TIP3    H129837   6.748   0.801  13.941 -1.8306  1.3787 -1.9815
 2782TIP3    H229838   6.853   0.891  14.004  0.3259 -1.0395 -1.9780
 2783TIP3   OH229839   4.619   3.971  15.430  0.0363  0.8808 -0.2104
 2783TIP3    H129840   4.689   4.030  15.458 -0.2078  0.9317  0.2979
 2783TIP3    H229841   4.615   3.983  15.335  1.8119 -0.3403 -0.4829
 2784TIP3   OH229842   3.914   6.630  12.387 -0.7171 -0.0558  0.6040
 2784TIP3    H129843   3.918   6.537  12.408  1.4527 -0.1676 -0.0916
 2784TIP3    H229844   3.897   6.633  12.293  0.5631  0.1803  0.3563
 2785TIP3   OH229845   3.194   4.728   2.859  0.6046 -0.3150  0.6776
 2785TIP3    H129846   3.261   4.735   2.791  1.4655 -1.5932  1.3530
 2785TIP3    H229847   3.193   4.815   2.900 -0.1225  0.5671 -1.0784
 2786TIP3   OH229848   2.581   0.571  13.367  0.1386  0.5641 -0.1029
 2786TIP3    H129849   2.562   0.478  13.379  0.3168  0.2809 -1.8255
 2786TIP3    H229850   2.550   0.612  13.448 -1.3048 -0.7844  0.0722
 2787TIP3   OH229851   0.678   3.633  12.712 -0.1770 -0.7956 -0.3355
 2787TIP3    H129852   0.741   3.632  12.785 -0.4494 -2.6548 -0.0772
 2787TIP3    H229853   0.730   3.612  12.635 -0.0659  0.1709 -0.5350
 2788TIP3   OH229854   5.616   1.306   3.972  0.3159 -0.0992  0.5020
 2788TIP3    H129855   5.523   1.328   3.964  0.2719 -0.1797  0.7698
 2788TIP3    H229856   5.616   1.219   4.014  0.5261  0.3832  1.5361
 2789TIP3   OH229857   4.540   5.331  14.322 -0.0233  0.4659  0.3474
 2789TIP3    H129858   4.531   5.418  14.362  0.8294  1.2390 -1.0449
 2789TIP3    H229859   4.629   5.330  14.287 -0.2306 -0.7445 -0.1862
 2790TIP3   OH229860   1.392   1.852  17.190  0.2044 -0.4272  0.3918
 2790TIP3    H129861   1.440   1.874  17.270  0.8699 -0.5068  0.0254
 2790TIP3    H229862   1.401   1.930  17.135  0.9914 -0.9023 -0.1744
 2791TIP3   OH229863   4.709   0.059   2.601 -0.5377 -1.5590  0.3244
 2791TIP3    H129864   4.626   0.064   2.554 -0.4417 -2.0548  0.1071
 2791TIP3    H229865   4.706   0.133   2.662  0.4229  0.7227 -2.1928
 2792TIP3   OH229866   2.287   2.389  13.079  0.2690 -0.2891 -0.1654
 2792TIP3    H129867   2.290   2.392  13.175 -0.6081 -0.2155 -0.1292
 2792TIP3    H229868   2.374   2.417  13.051  0.9474 -1.5312  0.6252
 2793TIP3   OH229869   5.315   4.890  14.078 -0.1203  0.0349 -0.4087
 2793TIP3    H129870   5.406   4.866  14.099 -0.1627 -0.3580 -0.6695
 2793TIP3    H229871   5.323   4.952  14.006 -0.0254  0.5853  0.0688
 2794TIP3   OH229872   0.109   2.304   0.827  0.8417 -0.1388 -0.2394
 2794TIP3    H129873   0.201   2.305   0.856  1.5236  1.4975 -2.1882
 2794TIP3    H229874   0.106   2.232   0.764  0.7737 -0.2110 -0.1536
 2795TIP3   OH229875   5.219   1.202  13.827  0.1361 -0.6490 -0.0205
 2795TIP3    H129876   5.311   1.227  13.825  0.0873 -0.4740 -0.1469
 2795TIP3    H229877   5.172   1.282  13.802 -0.0199 -0.8756 -0.4631
 2796TIP3   OH229878   2.871   1.797   2.985  0.1979  0.2882  0.0333
 2796TIP3    H129879   2.924   1.738   3.037 -0.5854  0.8336  1.5005
 2796TIP3    H229880   2.839   1.743   2.913 -0.6635 -1.1565  1.4331
 2797TIP3   OH229881   2.726   4.627  13.800 -0.0328 -0.1587 -0.2276
 2797TIP3    H129882   2.806   4.634  13.852 -0.3615  0.4721  0.2084
 2797TIP3    H229883   2.664   4.582  13.858 -0.2196  0.0141 -0.2936
 2798TIP3   OH229884   2.047   5.166   1.426  0.1526  0.5931 -0.5141
 2798TIP3    H129885   1.981   5.190   1.492 -0.8157 -0.6826 -0.9831
 2798TIP3    H229886   2.127   5.151   1.477 -0.7115 -0.9489  0.4858
 2799TIP3   OH229887   2.035   6.490  16.574 -0.0600 -0.4752  0.6901
 2799TIP3    H129888   1.979   6.550  16.623 -0.0878  0.1151 -0.0443
 2799TIP3    H229889   2.064   6.540  16.498  0.4091 -1.1987  0.3730
 2800TIP3   OH229890   3.279   0.569   6.700 -0.3914  0.6657  0.3804
 2800TIP3    H129891   3.325   0.579   6.617 -0.4787 -0.4884  0.1783
 2800TIP3    H229892   3.186   0.572   6.677 -0.4445  2.3628  0.7079
 2801TIP3   OH229893   6.116   3.656  13.936  0.0972 -0.5033 -0.1285
 2801TIP3    H129894   6.068   3.574  13.934 -1.1668  0.2177 -1.1468
 2801TIP3    H229895   6.085   3.702  14.013  0.5719 -0.8351  0.2649
 2802TIP3   OH229896   1.038   5.273  13.527 -0.0558  0.4003 -0.1246
 2802TIP3    H129897   1.120   5.239  13.564 -0.7647  0.7630  1.9186
 2802TIP3    H229898   0.975   5.202  13.540 -0.9906  1.5274  2.0707
 2803TIP3   OH229899   0.786   2.276   3.301  0.0585  0.0746  0.5770
 2803TIP3    H129900   0.789   2.242   3.390  0.1933 -0.7668  0.2543
 2803TIP3    H229901   0.744   2.208   3.249 -1.2469  1.1011  0.2266
 2804TIP3   OH229902   3.309   2.991  12.521 -0.4885  0.3909 -0.4074
 2804TIP3    H129903   3.266   2.907  12.504 -0.7942  0.3946  0.3305
 2804TIP3    H229904   3.398   2.967  12.547  0.0703  0.3931 -2.1766
 2805TIP3   OH229905   3.573   1.690  16.657  0.0882  0.0854  0.0044
 2805TIP3    H129906   3.552   1.596  16.652 -0.6976  0.2020  0.8910
 2805TIP3    H229907   3.665   1.692  16.684  0.6096 -0.4225 -1.5860
 2806TIP3   OH229908   3.256   3.914   3.440  0.6039  0.2238 -0.4080
 2806TIP3    H129909   3.295   4.002   3.434 -0.0392  0.4364 -2.1916
 2806TIP3    H229910   3.322   3.857   3.400  1.4112 -0.2870  1.5537
 2807TIP3   OH229911   4.669   6.486   0.782 -0.1455 -0.0612 -0.3948
 2807TIP3    H129912   4.573   6.481   0.783 -0.2704  1.8285 -0.0324
 2807TIP3    H229913   4.691   6.544   0.854  1.3873 -1.4193  0.2969
 2808TIP3   OH229914   1.234   2.404   3.700  0.0847  0.0067 -0.8496
 2808TIP3    H129915   1.223   2.345   3.625 -0.9212 -0.5061 -0.3125
 2808TIP3    H229916   1.155   2.392   3.752  0.5666  0.7007  0.0690
 2809TIP3   OH229917   6.526   2.032   2.413 -0.1523  0.0596 -0.4141
 2809TIP3    H129918   6.594   2.041   2.480 -0.7777  3.1151 -0.0278
 2809TIP3    H229919   6.446   2.013   2.463  0.1834 -2.6917 -0.7988
 2810TIP3   OH229920   5.861   4.975  11.792  0.2205  0.6068 -0.7763
 2810TIP3    H129921   5.863   4.905  11.858 -1.0139 -0.5808 -1.9093
 2810TIP3    H229922   5.904   5.049  11.834  2.2162 -1.0130  0.2646
 2811TIP3   OH229923   5.230   4.387  14.377  0.0645 -0.0318  0.2393
 2811TIP3    H129924   5.146   4.401  14.420 -0.7477  2.0519 -1.8098
 2811TIP3    H229925   5.228   4.295  14.349 -0.3685 -0.7504  2.4615
 2812TIP3   OH229926   1.746   2.924   0.904 -0.0673 -0.6755 -0.2692
 2812TIP3    H129927   1.778   2.919   0.814 -0.9311  0.4299 -0.6615
 2812TIP3    H229928   1.656   2.953   0.896 -0.3462 -1.1379  0.9429
 2813TIP3   OH229929   6.158   4.181   5.183 -0.4388  0.0261  0.0389
 2813TIP3    H129930   6.243   4.167   5.140 -0.3258  0.5305  0.0929
 2813TIP3    H229931   6.170   4.146   5.271 -0.5948 -0.7930 -0.2604
 2814TIP3   OH229932   1.623   5.446   3.221 -0.1899  0.2039  0.1396
 2814TIP3    H129933   1.633   5.430   3.315  0.8809  0.1562  0.0340
 2814TIP3    H229934   1.553   5.511   3.215  0.3546  0.9073  1.0516
 2815TIP3   OH229935   2.010   0.568   4.616  0.1212 -0.2491 -0.1059
 2815TIP3    H129936   1.945   0.638   4.621  0.4968  0.2303 -1.5070
 2815TIP3    H229937   2.047   0.576   4.529  2.2110 -0.3994  0.7169
 2816TIP3   OH229938   1.478   1.490  15.707  0.4465  0.3161 -0.5343
 2816TIP3    H129939   1.450   1.582  15.701  0.7387  0.4597  0.2389
 2816TIP3    H229940   1.409   1.448  15.758  0.5774  0.2204 -0.4367
 2817TIP3   OH229941   0.360   0.954  15.610 -0.1087 -0.2591 -0.1200
 2817TIP3    H129942   0.423   0.892  15.575 -0.4340 -2.2395  2.4804
 2817TIP3    H229943   0.359   0.937  15.704 -4.2874 -0.1628  0.0490
 2818TIP3   OH229944   3.908   1.386   4.558 -0.0725  0.4146 -0.2018
 2818TIP3    H129945   3.883   1.462   4.506 -0.0958  1.0256  0.6884
 2818TIP3    H229946   3.851   1.390   4.635 -0.0676 -0.5010 -0.1457
 2819TIP3   OH229947   5.803   5.446  15.940 -0.0403 -0.2284  0.4408
 2819TIP3    H129948   5.747   5.523  15.947 -1.6204 -1.2772 -0.1589
 2819TIP3    H229949   5.801   5.406  16.026 -0.1942 -0.2536  0.4249
 2820TIP3   OH229950   6.802   1.285  13.123 -0.1778  0.1082 -0.9196
 2820TIP3    H129951   6.799   1.372  13.162 -1.9208  0.7197 -2.2647
 2820TIP3    H229952   6.730   1.285  13.060  0.0336 -2.1844 -1.2373
 2821TIP3   OH229953   3.033   4.471   3.531  0.3579 -0.0968 -0.1509
 2821TIP3    H129954   2.972   4.505   3.465 -1.0810  0.7716  1.5522
 2821TIP3    H229955   3.015   4.376   3.532 -0.1918 -0.0046 -0.4570
 2822TIP3   OH229956   0.439   3.702  12.360 -0.4577  0.4038  0.8930
 2822TIP3    H129957   0.439   3.707  12.264  0.4668  1.5168  0.9278
 2822TIP3    H229958   0.402   3.616  12.380  0.4839 -0.3453 -0.4851
 2823TIP3   OH229959   3.126   6.781   4.970 -0.2328 -0.1926  0.4048
 2823TIP3    H129960   3.092   6.702   5.012  1.2634  0.4491  3.0278
 2823TIP3    H229961   3.093   6.853   5.023 -1.2008  0.9816 -1.6806
 2824TIP3   OH229962   0.784   5.859   2.790 -0.7281 -0.1419 -0.5912
 2824TIP3    H129963   0.755   5.820   2.873 -0.5409 -1.4639 -1.1178
 2824TIP3    H229964   0.796   5.784   2.731  2.4213  0.4214 -0.8314
 2825TIP3   OH229965   1.157   3.314   0.479 -0.1911  0.3204 -0.6259
 2825TIP3    H129966   1.108   3.334   0.559  1.6213  0.0698  0.6189
 2825TIP3    H229967   1.227   3.379   0.477  1.0818 -1.0119 -0.8029
 2826TIP3   OH229968   2.886   1.000  13.816  0.4165  0.5089  0.2423
 2826TIP3    H129969   2.844   0.916  13.796  0.0570  0.4596  1.1819
 2826TIP3    H229970   2.912   1.034  13.730 -1.5158  0.5326 -0.3848
 2827TIP3   OH229971   0.282   6.137  12.404  0.1606  0.0767 -0.6030
 2827TIP3    H129972   0.250   6.121  12.315  0.8129  0.0847 -0.8414
 2827TIP3    H229973   0.223   6.087  12.460  0.0683 -0.3622 -1.0842
 2828TIP3   OH229974   0.846   3.123   3.592  0.0248 -0.3947 -0.4020
 2828TIP3    H129975   0.917   3.060   3.604  1.4276  1.2579  0.3366
 2828TIP3    H229976   0.802   3.095   3.512  0.9880 -1.9333 -0.4295
 2829TIP3   OH229977   0.046   4.131   4.654 -0.0505  0.0028 -0.3412
 2829TIP3    H129978   0.051   4.044   4.614 -1.1112 -0.3197  0.1963
 2829TIP3    H229979  -0.046   4.141   4.678  0.2308  0.9148  0.4043
 2830TIP3   OH229980   2.948   0.466  15.734  0.7733 -0.2349  0.0142
 2830TIP3    H129981   2.872   0.487  15.788  1.4444  1.4156  0.3644
 2830TIP3    H229982   2.924   0.384  15.689 -0.1535 -1.1688  2.1021
 2831TIP3   OH229983   5.490   5.511   4.260  0.1792 -0.1987 -0.2596
 2831TIP3    H129984   5.527   5.423   4.253  0.1841 -0.1259 -1.5229
 2831TIP3    H229985   5.553   5.567   4.214 -0.6359  0.1910 -0.9344
 2832TIP3   OH229986   5.263   6.660  12.979  0.2964 -0.0618 -0.4425
 2832TIP3    H129987   5.178   6.675  13.021 -0.1918 -0.6610 -1.1824
 2832TIP3    H229988   5.265   6.566  12.963  2.3436 -0.5635  2.1538
 2833TIP3   OH229989   5.619   3.032   2.190  0.2101 -0.2267  0.1147
 2833TIP3    H129990   5.633   3.047   2.284  0.8676  1.3646 -0.2123
 2833TIP3    H229991   5.705   3.006   2.157 -0.0460 -0.8951 -0.0544
 2834TIP3   OH229992   2.367   6.274   1.227 -0.2182 -0.4368 -0.1832
 2834TIP3    H129993   2.314   6.198   1.206 -3.6783  2.1924 -1.9051
 2834TIP3    H229994   2.443   6.268   1.169  0.6913 -3.4411  1.1354
 2835TIP3   OH229995   5.010   3.254  11.688 -0.5588  0.2865  0.0071
 2835TIP3    H129996   4.939   3.241  11.751 -0.7771  1.4370  0.0210
 2835TIP3    H229997   5.024   3.167  11.650 -1.6549 -0.0562  0.3390
 2836TIP3   OH229998   2.189   5.676  15.260  0.4070  0.3377  0.0146
 2836TIP3    H129999   2.240   5.714  15.332 -1.1702  1.2158  0.7174
 2836TIP3    H230000   2.237   5.700  15.181  1.1984  0.9437  0.6683
 2837TIP3   OH230001   5.097   0.499  12.109 -0.1470 -0.5949 -0.0905
 2837TIP3    H130002   5.189   0.480  12.128  0.7580  1.1899 -2.2700
 2837TIP3    H230003   5.069   0.557  12.180  1.9894  2.8386 -1.7860
 2838TIP3   OH230004   3.059   1.421  15.794 -0.2493  0.2388  0.4837
 2838TIP3    H130005   3.008   1.500  15.776  0.8256  0.9085  0.2646
 2838TIP3    H230006   3.012   1.377  15.865 -1.6990  0.2695 -0.4071
 2839TIP3   OH230007   4.302   1.965  11.469 -0.7015 -0.2275  0.4138
 2839TIP3    H130008   4.362   1.965  11.544  0.1983  3.0265 -0.1327
 2839TIP3    H230009   4.215   1.964  11.508 -0.2479  0.9258  1.5297
 2840TIP3   OH230010   1.069   0.286  14.979  0.8377  0.0105  0.2665
 2840TIP3    H130011   1.108   0.333  14.906  2.1469 -0.3286  0.7145
 2840TIP3    H230012   1.025   0.354  15.030  0.3643  0.3234 -0.5464
 2841TIP3   OH230013   3.719   5.264   2.826 -0.3409  0.1218 -0.2645
 2841TIP3    H130014   3.792   5.233   2.880 -0.2120  0.6843 -0.1100
 2841TIP3    H230015   3.681   5.336   2.876  1.0542  2.0318 -1.8019
 2842TIP3   OH230016   3.349   3.539   2.034  0.3360  0.1780 -0.2133
 2842TIP3    H130017   3.345   3.470   2.099 -0.6021 -0.3309 -0.7855
 2842TIP3    H230018   3.376   3.617   2.083  0.5174 -0.3898  0.6020
 2843TIP3   OH230019   3.797   5.440  16.559 -0.4572 -0.4038 -0.0086
 2843TIP3    H130020   3.890   5.463  16.555 -0.3791 -0.0362  2.3376
 2843TIP3    H230021   3.753   5.523  16.580 -1.0909 -0.9291  0.7669
 2844TIP3   OH230022   0.233   0.218   3.212 -0.0736 -0.0814 -0.8560
 2844TIP3    H130023   0.274   0.270   3.143 -1.5433  0.8628 -1.0576
 2844TIP3    H230024   0.160   0.272   3.242  0.4294 -0.5359  1.3521
 2845TIP3   OH230025   5.215   3.182  16.852 -0.5004  0.5739  0.0266
 2845TIP3    H130026   5.208   3.277  16.857 -2.3315  0.5027 -0.3322
 2845TIP3    H230027   5.171   3.159  16.770 -0.8843 -0.6349  0.5517
 2846TIP3   OH230028   4.698   1.954  13.389  0.1255  0.5403  0.9305
 2846TIP3    H130029   4.734   1.997  13.311 -1.3253  0.0955 -0.0397
 2846TIP3    H230030   4.774   1.932  13.442  1.4902 -1.8862 -1.7679
 2847TIP3   OH230031   5.808   0.272  16.907  0.4180 -0.1427 -0.0534
 2847TIP3    H130032   5.860   0.246  16.983 -0.8883 -2.8379  0.0287
 2847TIP3    H230033   5.728   0.308  16.944  0.6169  0.4098 -0.1619
 2848TIP3   OH230034   4.274   4.026  14.093 -0.1646  0.4167 -0.3617
 2848TIP3    H130035   4.362   4.051  14.119 -0.0359 -1.5375  1.3951
 2848TIP3    H230036   4.272   4.037  13.998  1.4478  1.9431 -0.2583
 2849TIP3   OH230037   1.993   4.123   2.292  0.0800 -0.0636  0.3409
 2849TIP3    H130038   1.933   4.104   2.364  0.6405  0.4055  0.9489
 2849TIP3    H230039   1.938   4.124   2.214 -0.8662  1.2145  0.9806
 2850TIP3   OH230040   4.409   2.241  15.909 -0.4289  0.8403 -0.0347
 2850TIP3    H130041   4.411   2.296  15.831 -1.4403  0.8746 -0.0604
 2850TIP3    H230042   4.315   2.228  15.926 -0.2472 -1.3497 -0.3738
 2851TIP3   OH230043   2.700   2.479   3.925  0.8360  0.4457 -0.1406
 2851TIP3    H130044   2.737   2.467   3.837  1.6682 -3.3648  0.5506
 2851TIP3    H230045   2.606   2.486   3.910  0.8903 -0.9552 -1.3188
 2852TIP3   OH230046   2.868   1.914  13.119 -0.4452 -0.2046  0.0420
 2852TIP3    H130047   2.824   1.879  13.041 -1.6502 -0.1989  0.6944
 2852TIP3    H230048   2.798   1.955  13.169  0.7345  2.3187 -0.2067
 2853TIP3   OH230049   6.579   4.158   5.728 -0.3862  0.2374  0.5806
 2853TIP3    H130050   6.557   4.173   5.820 -0.9219 -0.1472  0.5158
 2853TIP3    H230051   6.667   4.120   5.731  0.3432  1.8606  0.8281
 2854TIP3   OH230052   0.191   6.532   2.970 -0.2031 -0.8169 -0.3684
 2854TIP3    H130053   0.273   6.493   3.002 -1.1461 -0.5641  2.6889
 2854TIP3    H230054   0.200   6.625   2.992 -1.2246 -0.7507 -0.2230
 2855TIP3   OH230055   3.281   1.508  12.151 -0.0240 -0.1972  0.3666
 2855TIP3    H130056   3.313   1.593  12.122 -0.8763 -0.5253 -1.7633
 2855TIP3    H230057   3.358   1.464  12.187  1.0803  0.4200 -1.1262
 2856TIP3   OH230058   0.366   3.345  13.568  0.4680  0.6151  0.1692
 2856TIP3    H130059   0.355   3.251  13.575  0.2140  0.5703 -0.7313
 2856TIP3    H230060   0.384   3.374  13.657 -0.6000 -0.1297  0.6466
 2857TIP3   OH230061   1.070   2.881  14.252  0.6792  0.3799 -0.6610
 2857TIP3    H130062   1.089   2.952  14.313  0.1212  1.8693 -2.1368
 2857TIP3    H230063   1.091   2.918  14.166 -0.6861 -0.8537 -1.5691
 2858TIP3   OH230064   5.184   3.660   2.921 -0.2668  0.3546 -0.2206
 2858TIP3    H130065   5.242   3.643   2.995  0.9387  2.8740 -0.4874
 2858TIP3    H230066   5.107   3.607   2.938  1.1882 -1.4038  1.2899
 2859TIP3   OH230067   0.884   4.915  12.504 -0.1015 -0.7841  0.3577
 2859TIP3    H130068   0.862   4.983  12.568 -0.3960  0.3886 -0.9237
 2859TIP3    H230069   0.807   4.911  12.447  0.0363 -2.0079  0.2469
 2860TIP3   OH230070   1.595   2.598   4.366  0.5648 -0.1662 -0.3727
 2860TIP3    H130071   1.629   2.521   4.412  0.2855  1.4217  2.7238
 2860TIP3    H230072   1.620   2.672   4.421 -1.0468  1.7873 -2.1058
 2861TIP3   OH230073   5.502   1.032   0.810  0.0112  0.3395  0.1203
 2861TIP3    H130074   5.540   0.947   0.789  0.4191  0.2190  1.2551
 2861TIP3    H230075   5.525   1.046   0.902 -0.3045  1.5427  0.0321
 2862TIP3   OH230076   6.723   5.163   5.187 -0.4351  1.1653 -0.2894
 2862TIP3    H130077   6.633   5.150   5.155 -0.4803 -1.3826  0.6768
 2862TIP3    H230078   6.712   5.189   5.279 -0.4418 -4.6719  1.8104
 2863TIP3   OH230079   0.676   5.851  16.373 -0.0078  0.0349 -0.3267
 2863TIP3    H130080   0.769   5.840  16.352  0.4871  2.1349  0.5199
 2863TIP3    H230081   0.660   5.945  16.364 -0.9187  0.4496  3.7819
 2864TIP3   OH230082   0.886   5.492   0.139  0.3891 -0.0640  0.5916
 2864TIP3    H130083   0.928   5.480   0.054 -1.4193 -0.8377 -0.2577
 2864TIP3    H230084   0.792   5.493   0.119 -0.0488  1.8093  2.3392
 2865TIP3   OH230085   0.756   1.010   5.910  0.0297  0.3824 -0.0025
 2865TIP3    H130086   0.800   1.069   5.971 -1.3094  2.0455 -0.5754
 2865TIP3    H230087   0.720   0.940   5.965 -0.6555  1.5404  1.0689
 2866TIP3   OH230088   5.972   3.915   5.272 -1.0129  0.6421  0.3573
 2866TIP3    H130089   5.991   3.836   5.322  1.4634 -0.3396 -1.8981
 2866TIP3    H230090   6.015   3.985   5.321 -0.5052  0.0791  0.7272
 2867TIP3   OH230091   3.820   4.313   1.270  0.1044 -0.2352 -0.0354
 2867TIP3    H130092   3.801   4.335   1.179  3.2004 -1.5258 -1.1440
 2867TIP3    H230093   3.773   4.231   1.285 -1.2322  0.4968 -0.0837
 2868TIP3   OH230094   5.022   5.138  10.767 -0.2297 -0.3110  0.2960
 2868TIP3    H130095   5.064   5.080  10.831 -0.4345  0.8328  1.5029
 2868TIP3    H230096   4.929   5.132  10.788 -0.3971 -0.6106 -0.4973
 2869TIP3   OH230097   0.531   2.829  12.377  0.3652 -0.0982  0.3683
 2869TIP3    H130098   0.487   2.901  12.423  0.6565  0.4298 -0.1659
 2869TIP3    H230099   0.620   2.861  12.362 -0.0121  0.1861 -1.4853
 2870TIP3   OH230100   1.730   5.640  12.310  0.5085 -0.3877  0.3054
 2870TIP3    H130101   1.797   5.579  12.341 -0.9559 -1.8589  0.7027
 2870TIP3    H230102   1.719   5.618  12.218 -0.0886 -0.7909  0.4715
 2871TIP3   OH230103   4.912   2.777  14.104 -0.2195 -0.2029 -0.4553
 2871TIP3    H130104   4.885   2.693  14.141  0.2743 -1.2914 -2.4364
 2871TIP3    H230105   4.840   2.801  14.045 -0.2315  0.6380 -0.1138
 2872TIP3   OH230106   0.664   3.780  15.052 -0.0599  0.5066  0.3817
 2872TIP3    H130107   0.630   3.818  14.971 -3.3610  2.4862  2.4716
 2872TIP3    H230108   0.600   3.713  15.076  0.6162  0.2654  1.5780
 2873TIP3   OH230109   1.119   0.612  13.316  0.5892  0.1469 -0.7035
 2873TIP3    H130110   1.139   0.623  13.223 -0.7494 -1.1285 -1.1713
 2873TIP3    H230111   1.156   0.526  13.338 -2.1010 -1.1925 -1.0057
 2874TIP3   OH230112   5.656   6.418  13.111 -0.8457  0.4024  0.3505
 2874TIP3    H130113   5.685   6.508  13.124  2.0032 -0.4002  0.1889
 2874TIP3    H230114   5.734   6.372  13.080 -2.0516 -2.2709  1.0370
 2875TIP3   OH230115   3.947   3.831  14.457  0.0739  0.2255  0.3632
 2875TIP3    H130116   3.890   3.899  14.420  0.2265  1.7786  2.7327
 2875TIP3    H230117   3.900   3.749  14.439 -0.6844  1.0163 -1.5874
 2876TIP3   OH230118   0.135   6.362  14.220  0.0388  0.4572 -0.3195
 2876TIP3    H130119   0.135   6.360  14.316 -1.6441  0.6343 -0.2830
 2876TIP3    H230120   0.217   6.320  14.195 -0.0965 -0.7875  1.1784
 2877TIP3   OH230121   1.250   0.052  11.929  0.7082 -0.5123  0.2890
 2877TIP3    H130122   1.334   0.065  11.973  2.0919 -0.6048 -2.1443
 2877TIP3    H230123   1.260   0.096  11.845 -1.4393 -1.1806 -0.3830
 2878TIP3   OH230124   2.347   2.175  15.172 -0.0543 -0.5726  0.6513
 2878TIP3    H130125   2.398   2.154  15.094 -1.4598  0.8455 -0.6988
 2878TIP3    H230126   2.393   2.250  15.211  0.3384 -0.9426  0.9188
 2879TIP3   OH230127   2.180   4.044  16.803  0.5625  0.1154  0.7311
 2879TIP3    H130128   2.225   4.010  16.725 -0.1372  0.1979  0.2791
 2879TIP3    H230129   2.191   4.139  16.796  0.9573  0.0908  1.0187
 2880TIP3   OH230130   4.989   4.965  11.324  0.7782  0.8217 -0.1147
 2880TIP3    H130131   4.935   4.988  11.249 -0.4486  0.3762  0.6065
 2880TIP3    H230132   5.025   4.879  11.303  0.1060  0.5132 -0.0353
 2881TIP3   OH230133   5.244   2.083  12.324 -0.1594 -0.6420  0.2910
 2881TIP3    H130134   5.334   2.084  12.293 -0.1139 -0.3946  0.4263
 2881TIP3    H230135   5.202   2.157  12.279 -0.4520 -1.1119 -0.2276
 2882TIP3   OH230136   2.610   5.942   5.079 -0.3120 -0.2678  0.3581
 2882TIP3    H130137   2.573   5.903   5.158 -2.4658  0.6642 -0.1348
 2882TIP3    H230138   2.674   5.878   5.049  0.2698 -0.8382  2.5925
 2883TIP3   OH230139   3.554   4.229   3.648  0.3753 -0.4477  0.0771
 2883TIP3    H130140   3.625   4.237   3.712  1.1539 -0.7990 -0.7279
 2883TIP3    H230141   3.474   4.248   3.698  1.0807  0.5428  0.8657
 2884TIP3   OH230142   3.503   0.021   3.481 -0.6334 -0.3112 -0.4059
 2884TIP3    H130143   3.583   0.051   3.525  0.8773 -2.3124 -1.5951
 2884TIP3    H230144   3.449  -0.013   3.553 -0.1639  0.5007  0.3597
 2885TIP3   OH230145   2.061   1.139   2.025  0.3191  0.1767 -0.2928
 2885TIP3    H130146   1.983   1.124   1.971 -0.3501  1.5725  0.2466
 2885TIP3    H230147   2.084   1.051   2.056  0.8123 -0.6919 -2.8834
 2886TIP3   OH230148   2.683   2.168  16.887  0.6972 -0.5441  0.6471
 2886TIP3    H130149   2.754   2.179  16.951  0.7908 -2.6011  0.9512
 2886TIP3    H230150   2.651   2.079  16.902 -0.1694 -0.5996 -1.2905
 2887TIP3   OH230151   2.809   6.497  12.475 -0.5832  0.5283  0.0585
 2887TIP3    H130152   2.754   6.554  12.422  0.1308  0.4602 -0.7629
 2887TIP3    H230153   2.764   6.412  12.473 -1.1825  0.8265  0.5605
 2888TIP3   OH230154   4.249   6.395   1.867 -0.4426 -0.2046 -0.5850
 2888TIP3    H130155   4.164   6.436   1.884 -0.5047 -0.2801 -0.7113
 2888TIP3    H230156   4.312   6.465   1.883 -0.4201 -0.5569  0.9806
 2889TIP3   OH230157   3.765   2.255  13.743  0.0132 -0.0370 -0.0504
 2889TIP3    H130158   3.685   2.225  13.786 -0.6826 -0.1476 -1.3687
 2889TIP3    H230159   3.762   2.215  13.656  1.2052  0.4444 -0.3354
 2890TIP3   OH230160   0.763   2.191  16.580  0.0077  0.4209 -0.4927
 2890TIP3    H130161   0.834   2.189  16.516 -0.0331  1.0282 -0.5622
 2890TIP3    H230162   0.797   2.244  16.652 -0.0253 -0.0830 -0.0990
 2891TIP3   OH230163   2.508   0.202   4.593 -0.3294  0.3731 -0.3853
 2891TIP3    H130164   2.443   0.235   4.532  0.4213 -1.2812 -2.1802
 2891TIP3    H230165   2.505   0.107   4.582  0.7887  0.1119  1.1973
 2892TIP3   OH230166   2.332   3.041   5.269 -0.4463  0.0011  0.1531
 2892TIP3    H130167   2.294   2.963   5.229  1.5798 -0.7267 -0.5198
 2892TIP3    H230168   2.312   3.112   5.208 -1.3655 -0.2034  0.2101
 2893TIP3   OH230169   0.733   6.581   2.994 -0.2800 -0.5757 -0.0327
 2893TIP3    H130170   0.749   6.548   3.083 -1.0854  0.1189  0.3880
 2893TIP3    H230171   0.708   6.673   3.007 -0.4332 -0.4775 -0.9767
 2894TIP3   OH230172   4.524   4.268   4.298 -0.3656  0.2355  0.2889
 2894TIP3    H130173   4.607   4.226   4.275  0.1808  0.8325  1.1206
 2894TIP3    H230174   4.457   4.211   4.260  0.3655 -1.1428  0.9786
 2895TIP3   OH230175   5.110   1.412  11.532 -0.9658 -0.4994 -0.1073
 2895TIP3    H130176   5.178   1.467  11.569 -0.4703 -0.5475 -0.9246
 2895TIP3    H230177   5.157   1.338  11.494 -1.2967  0.2504 -2.1031
 2896TIP3   OH230178   1.595   1.046  13.962  0.4407 -0.2837  0.0177
 2896TIP3    H130179   1.625   1.083  13.879  0.4384 -0.0735  0.1096
 2896TIP3    H230180   1.528   0.983  13.938  1.8234 -1.7017 -0.2963
 2897TIP3   OH230181   4.849   3.916  10.684 -0.4503  0.2041  0.5842
 2897TIP3    H130182   4.823   3.895  10.773 -0.9565  0.0790  0.4082
 2897TIP3    H230183   4.907   3.844  10.659 -1.0610 -0.2618  0.4839
 2898TIP3   OH230184   6.609   1.301   2.872  0.2280  0.3403 -0.6820
 2898TIP3    H130185   6.639   1.262   2.790  0.5504  0.5788 -0.6769
 2898TIP3    H230186   6.681   1.285   2.934 -0.5840 -1.1140 -0.0478
 2899TIP3   OH230187   2.711   1.601   2.894 -0.1738  0.0714 -0.1066
 2899TIP3    H130188   2.643   1.571   2.834 -0.0133  0.7932 -0.6594
 2899TIP3    H230189   2.676   1.582   2.981 -0.1601 -1.5189 -0.4237
 2900TIP3   OH230190   3.444   1.698   5.331 -0.3040 -0.8649 -0.4618
 2900TIP3    H130191   3.504   1.757   5.286  0.9407 -0.7660  1.2126
 2900TIP3    H230192   3.363   1.748   5.340 -0.1330 -0.4064 -1.3883
 2901TIP3   OH230193   0.810   3.303  15.718 -0.3014 -0.3243 -0.4701
 2901TIP3    H130194   0.840   3.222  15.676  0.7115  0.0094 -0.4018
 2901TIP3    H230195   0.883   3.331  15.772 -0.6874  0.5857 -0.4071
 2902TIP3   OH230196   1.198   1.393  16.587  0.0501  0.7027 -0.0878
 2902TIP3    H130197   1.261   1.397  16.659  0.7797  1.2210 -0.7425
 2902TIP3    H230198   1.206   1.304  16.553  0.3791  0.7480 -0.1284
 2903TIP3   OH230199   3.053   1.989  13.782 -0.0509 -0.0237  0.3091
 2903TIP3    H130200   3.052   2.080  13.813  1.7571  0.2500 -0.3057
 2903TIP3    H230201   3.146   1.969  13.771 -0.4807 -1.3021 -1.4019
 2904TIP3   OH230202   3.769   3.633  12.298  0.0499  0.4010  0.0363
 2904TIP3    H130203   3.741   3.546  12.329 -1.3016  0.7939 -0.0144
 2904TIP3    H230204   3.773   3.624  12.203  2.2315 -0.2384  0.1343
 2905TIP3   OH230205   3.984   5.604   1.525  0.1694 -0.6874  0.1141
 2905TIP3    H130206   4.002   5.548   1.449  2.2008 -0.0565  0.0733
 2905TIP3    H230207   4.032   5.685   1.508 -0.6859  0.1144  1.3183
 2906TIP3   OH230208   3.552   6.680  10.620 -0.2255  0.2896  0.4344
 2906TIP3    H130209   3.564   6.615  10.551 -1.4805  1.1269 -0.6211
 2906TIP3    H230210   3.521   6.758  10.574  2.5451  2.1667  1.4387
 2907TIP3   OH230211   6.090   0.684   4.477  0.2890  0.2409 -0.8042
 2907TIP3    H130212   6.144   0.744   4.425  2.4638 -0.5075  0.4843
 2907TIP3    H230213   6.113   0.597   4.444  0.4602 -0.1351  0.2657
 2908TIP3   OH230214   6.172   4.291   0.302  0.2379  0.2097  0.1833
 2908TIP3    H130215   6.157   4.292   0.208 -2.4749  2.3741  0.4904
 2908TIP3    H230216   6.140   4.206   0.331  1.3966 -0.6043 -0.8580
 2909TIP3   OH230217   0.407   6.427  15.633 -0.2127 -0.1358 -0.3510
 2909TIP3    H130218   0.469   6.368  15.589 -0.1989  0.0784 -0.6266
 2909TIP3    H230219   0.433   6.515  15.604  1.1897  0.2320  1.8143
 2910TIP3   OH230220   5.771   3.180   1.552  0.0686 -0.3007  0.4416
 2910TIP3    H130221   5.743   3.240   1.621  0.7388 -1.2997  1.6360
 2910TIP3    H230222   5.703   3.112   1.550 -1.3180  1.0242 -1.7238
 2911TIP3   OH230223   5.403   0.789   5.510  0.7298 -0.0173  0.4110
 2911TIP3    H130224   5.467   0.767   5.442 -0.5816 -0.2475 -0.7897
 2911TIP3    H230225   5.431   0.875   5.541  1.2373  0.2007 -0.5803
 2912TIP3   OH230226   4.746   5.849  15.638  0.6158 -0.1253 -0.8835
 2912TIP3    H130227   4.841   5.846  15.629  1.0587 -0.7382  2.7467
 2912TIP3    H230228   4.727   5.934  15.678  0.1272 -1.3596  1.7277
 2913TIP3   OH230229   6.816   3.223  11.430 -0.1083 -0.0344  0.3190
 2913TIP3    H130230   6.803   3.175  11.511 -0.9514 -0.7817 -0.2463
 2913TIP3    H230231   6.749   3.291  11.431 -0.4810 -0.3929 -0.0036
 2914TIP3   OH230232   4.166   3.338   5.576 -0.3048  0.4398 -0.1103
 2914TIP3    H130233   4.210   3.377   5.501 -0.2115  0.8507  0.1514
 2914TIP3    H230234   4.079   3.378   5.576 -0.1735  0.7262  0.2203
 2915TIP3   OH230235   1.532   1.160   6.150 -0.2164  0.3309 -0.5287
 2915TIP3    H130236   1.523   1.069   6.179  0.4302 -0.3209 -2.2352
 2915TIP3    H230237   1.519   1.212   6.229 -2.7536 -1.1330  0.1072
 2916TIP3   OH230238   4.426   2.016  15.284  0.1016 -0.1162  0.0976
 2916TIP3    H130239   4.399   1.931  15.319  0.3005  0.7448  2.5448
 2916TIP3    H230240   4.520   2.008  15.271  0.0663 -0.3831  0.0094
 2917TIP3   OH230241   2.506   0.892   0.377 -0.6229 -0.0202 -0.3644
 2917TIP3    H130242   2.578   0.846   0.422 -1.4440 -1.2461 -0.2488
 2917TIP3    H230243   2.546   0.929   0.299  0.0430 -1.1376 -0.5750
 2918TIP3   OH230244   0.214   2.752  12.400  0.3444  0.6269  0.3212
 2918TIP3    H130245   0.308   2.730  12.399  0.6018  1.7078 -0.6060
 2918TIP3    H230246   0.171   2.670  12.375  1.3970  1.4108 -5.2863
 2919TIP3   OH230247   3.140   1.747  13.680 -0.4415 -0.4097  0.8328
 2919TIP3    H130248   3.217   1.803  13.675  0.1512 -0.7568  3.9683
 2919TIP3    H230249   3.070   1.804  13.711 -1.2498 -0.3271 -1.0093
 2920TIP3   OH230250   3.355   6.181   5.622  0.0614  0.6871 -0.2851
 2920TIP3    H130251   3.386   6.135   5.544 -0.8884 -0.0638 -0.2350
 2920TIP3    H230252   3.434   6.217   5.661  0.5747  0.9148 -1.4913
 2921TIP3   OH230253   5.725   1.368   4.658 -0.1644  0.2285  0.3717
 2921TIP3    H130254   5.629   1.358   4.654 -0.2260  0.7044  0.6576
 2921TIP3    H230255   5.749   1.331   4.743 -0.0219 -0.4172  0.0611
 2922TIP3   OH230256   2.789   1.528  16.602  0.2835  0.3162 -0.1399
 2922TIP3    H130257   2.823   1.474  16.531 -3.3386 -2.0180 -0.3744
 2922TIP3    H230258   2.821   1.486  16.682 -0.2918 -0.5855 -0.3684
 2923TIP3   OH230259   1.408   2.287  15.441  0.0680 -0.1228 -0.0141
 2923TIP3    H130260   1.379   2.236  15.517 -0.9044 -0.5242 -0.6267
 2923TIP3    H230261   1.373   2.375  15.457 -0.6201 -0.3448 -0.2445
 2924TIP3   OH230262   0.414   3.262   2.249  0.1698 -0.4060 -0.2518
 2924TIP3    H130263   0.350   3.324   2.216  0.2289 -0.0314  0.3177
 2924TIP3    H230264   0.495   3.283   2.202  0.8699  1.6679  1.7255
 2925TIP3   OH230265   6.768   5.310   1.672 -0.1107 -0.1638 -0.6829
 2925TIP3    H130266   6.701   5.277   1.612  0.9192 -0.3312 -1.7814
 2925TIP3    H230267   6.719   5.356   1.740 -1.3678 -0.8149 -1.1183
 2926TIP3   OH230268   0.502   1.460   2.596 -0.3644 -0.3347 -0.1461
 2926TIP3    H130269   0.507   1.479   2.689  0.3034 -1.4343  0.0513
 2926TIP3    H230270   0.568   1.517   2.556 -2.5514  2.2737 -0.3538
 2927TIP3   OH230271   5.549   4.820   4.710  0.0695 -0.5624 -0.1119
 2927TIP3    H130272   5.527   4.794   4.620  1.7900 -2.3246 -0.0918
 2927TIP3    H230273   5.469   4.861   4.743 -2.1511 -3.7209 -1.0530
 2928TIP3   OH230274   3.700   5.650  14.768 -0.0059 -0.3942 -0.1419
 2928TIP3    H130275   3.769   5.707  14.803 -0.4288  1.1333 -1.6750
 2928TIP3    H230276   3.709   5.656  14.673 -1.5440 -1.0669 -0.3636
 2929TIP3   OH230277   1.847   6.636  14.589 -0.0398 -0.3951 -0.0004
 2929TIP3    H130278   1.771   6.693  14.602  0.0936  0.1240 -1.3134
 2929TIP3    H230279   1.811   6.548  14.594 -1.1192 -0.1729 -2.3438
 2930TIP3   OH230280   2.474   6.573   5.692 -0.3517 -0.4178  0.8831
 2930TIP3    H130281   2.479   6.659   5.734 -0.2310 -0.1316  0.2930
 2930TIP3    H230282   2.564   6.543   5.687 -0.5179 -1.3908  2.6977
 2931TIP3   OH230283   6.341   4.875  11.640 -0.4583  0.1282 -0.2633
 2931TIP3    H130284   6.417   4.820  11.620 -1.6655 -1.7337  0.0438
 2931TIP3    H230285   6.325   4.860  11.733  0.2146  2.4175  0.2966
 2932TIP3   OH230286   1.820   2.736   4.705 -0.0625 -0.3673 -0.4098
 2932TIP3    H130287   1.780   2.653   4.732  1.9700 -1.3446 -0.2006
 2932TIP3    H230288   1.757   2.803   4.730 -0.8608 -1.7060  1.3186
 2933TIP3   OH230289   0.758   0.665   3.301  0.2519  0.5753 -0.0194
 2933TIP3    H130290   0.852   0.685   3.303  0.2408  0.5971  0.7618
 2933TIP3    H230291   0.717   0.744   3.266  0.3398  1.4313  1.7173
 2934TIP3   OH230292   2.018   6.718  13.800  0.5575  0.1539  0.4651
 2934TIP3    H130293   1.997   6.788  13.738 -0.3952  2.1572  2.8975
 2934TIP3    H230294   1.962   6.645  13.774  0.6876  0.6687 -1.4122
 2935TIP3   OH230295   3.915   0.859  16.153  0.1259 -0.0317  0.3562
 2935TIP3    H130296   3.942   0.944  16.187  2.9567 -0.2441 -1.0325
 2935TIP3    H230297   3.914   0.871  16.058 -1.4201 -1.0595  0.2064
 2936TIP3   OH230298   3.148   0.102  12.905  0.0983  0.0469 -0.3219
 2936TIP3    H130299   3.213   0.044  12.866  0.9021 -1.0979  2.4516
 2936TIP3    H230300   3.191   0.188  12.909  0.7479 -0.2812 -0.1708
 2937TIP3   OH230301   1.488   0.457  14.719 -1.1461  0.0823  0.4665
 2937TIP3    H130302   1.534   0.444  14.802 -0.7062 -2.1199 -0.0612
 2937TIP3    H230303   1.557   0.477  14.656 -1.3397  0.4084  0.3514
 2938TIP3   OH230304   4.194   3.542  16.606  0.4104  0.5031 -0.7684
 2938TIP3    H130305   4.275   3.542  16.658  1.0258  1.1057 -1.6947
 2938TIP3    H230306   4.127   3.575  16.665  0.9646  0.5724 -0.1679
 2939TIP3   OH230307   3.832   4.233  16.583 -0.4246 -0.5670  0.1809
 2939TIP3    H130308   3.749   4.273  16.611 -0.5049 -1.5777  1.4852
 2939TIP3    H230309   3.811   4.189  16.500 -0.6961  0.7927 -0.4940
 2940TIP3   OH230310   4.935   3.051  15.345 -0.2275  0.2853  0.2209
 2940TIP3    H130311   5.029   3.067  15.355  0.1157 -1.9307  1.0098
 2940TIP3    H230312   4.927   3.008  15.260 -0.8203  2.1878 -0.7401
 2941TIP3   OH230313   4.379   2.265  13.574 -0.3367 -0.0445 -0.0123
 2941TIP3    H130314   4.289   2.296  13.574  0.1093  1.3238  0.9950
 2941TIP3    H230315   4.385   2.208  13.650 -0.6662 -1.1665 -0.8056
 2942TIP3   OH230316   0.339   6.030   4.615  0.0347  0.2077 -0.4883
 2942TIP3    H130317   0.425   6.057   4.584 -0.2118  1.1012 -0.4482
 2942TIP3    H230318   0.353   5.944   4.655  0.8284  0.1755 -0.8195
 2943TIP3   OH230319   6.675   0.828  13.330 -0.0848  0.1679 -0.1983
 2943TIP3    H130320   6.704   0.911  13.292 -2.2271  1.2886  0.4682
 2943TIP3    H230321   6.672   0.844  13.424  0.5918 -1.0589  0.0464
 2944TIP3   OH230322   2.091   4.789  14.478  0.0278  0.3946  0.1637
 2944TIP3    H130323   2.126   4.717  14.530 -0.5443 -0.5787 -0.7766
 2944TIP3    H230324   2.168   4.842  14.456  0.9980 -1.7618 -1.9695
 2945TIP3   OH230325   3.627   3.123  12.010 -0.0899  0.2853 -0.1986
 2945TIP3    H130326   3.694   3.172  11.963  0.4978  1.3652  1.6771
 2945TIP3    H230327   3.672   3.046  12.043 -0.2131  0.1214 -0.4110
 2946TIP3   OH230328   2.663   6.351   1.909  0.0492  0.1141  0.3408
 2946TIP3    H130329   2.667   6.444   1.932 -1.3705  0.9170 -2.3067
 2946TIP3    H230330   2.753   6.330   1.884  0.7795  0.2223  2.6208
 2947TIP3   OH230331   0.069   4.773  11.929 -0.2172 -0.1692 -0.1806
 2947TIP3    H130332   0.132   4.724  11.982 -2.2642 -3.8907 -0.8512
 2947TIP3    H230333   0.047   4.849  11.983  1.8551 -0.8439  1.7954
 2948TIP3   OH230334   5.567   1.451  15.807 -0.6259 -0.4694 -0.0285
 2948TIP3    H130335   5.618   1.416  15.881 -0.6062 -1.6761 -0.5792
 2948TIP3    H230336   5.585   1.545  15.807  0.3246 -0.6364  0.7764
 2949TIP3   OH230337   4.873   2.264   6.407  0.2838  0.2716  0.0352
 2949TIP3    H130338   4.857   2.350   6.447  0.0094  1.2833 -2.1126
 2949TIP3    H230339   4.800   2.252   6.347  0.7200 -1.1436 -0.2297
 2950TIP3   OH230340   1.371   2.700  14.246 -0.8314  0.0656 -0.5578
 2950TIP3    H130341   1.455   2.654  14.242 -2.4528 -3.4070  0.9725
 2950TIP3    H230342   1.366   2.732  14.337 -2.0203 -1.8047  0.0990
 2951TIP3   OH230343   0.515   1.635  16.464 -0.1138  0.3298 -0.3095
 2951TIP3    H130344   0.569   1.636  16.544  0.3242 -0.7830 -0.5730
 2951TIP3    H230345   0.544   1.712  16.415  1.1952 -0.1830 -0.3926
 2952TIP3   OH230346   3.710   1.129   0.999 -0.3403  0.4285  0.5411
 2952TIP3    H130347   3.700   1.036   1.021  0.6585  0.2621  0.3456
 2952TIP3    H230348   3.802   1.137   0.972 -0.7475  1.2191 -0.6726
 2953TIP3   OH230349   1.005   5.877  12.190  0.1054 -0.1526  0.1883
 2953TIP3    H130350   1.031   5.896  12.280 -2.6305 -0.5920  1.1697
 2953TIP3    H230351   1.047   5.794  12.170 -2.6239 -2.4041  2.8060
 2954TIP3   OH230352   2.069   0.141  17.144 -0.0058 -0.3007  0.3570
 2954TIP3    H130353   2.040   0.116  17.057  1.8559 -0.9507 -0.1094
 2954TIP3    H230354   1.991   0.180  17.185 -1.1681 -0.8822 -1.2214
 2955TIP3   OH230355   3.551   2.482   3.219 -0.2209 -0.2211  0.5544
 2955TIP3    H130356   3.616   2.412   3.230 -0.7214 -0.7150  0.4105
 2955TIP3    H230357   3.514   2.494   3.307 -0.3102 -0.3103  0.5292
 2956TIP3   OH230358   3.360   0.298  12.163  0.4474 -0.0561  0.7600
 2956TIP3    H130359   3.397   0.386  12.168 -0.9594  0.6319 -0.3063
 2956TIP3    H230360   3.371   0.273  12.071  2.7383 -1.9105  1.4233
 2957TIP3   OH230361   6.529   2.496   3.818 -0.3118  0.3769 -0.3000
 2957TIP3    H130362   6.518   2.428   3.884 -0.7947 -1.0476 -1.7844
 2957TIP3    H230363   6.611   2.539   3.843 -0.9777  0.5562  1.7652
 2958TIP3   OH230364   5.776   2.667  15.171 -0.1780 -0.3938 -0.0594
 2958TIP3    H130365   5.806   2.628  15.089  0.1519 -1.3635  0.5036
 2958TIP3    H230366   5.687   2.635  15.181 -1.4459  2.3301 -1.6314
 2959TIP3   OH230367   1.201   2.323   4.066  0.2447 -0.4330  0.2073
 2959TIP3    H130368   1.165   2.326   3.977 -0.3682  0.1473  0.4655
 2959TIP3    H230369   1.156   2.393   4.112  1.0613 -0.2854  0.7985
 2960TIP3   OH230370   0.464   2.295   3.425  0.4508  0.0032 -0.5331
 2960TIP3    H130371   0.498   2.355   3.491 -0.8924 -0.3972  0.5664
 2960TIP3    H230372   0.468   2.209   3.465  1.0984 -0.4771 -1.5919
 2961TIP3   OH230373   1.674   6.350  13.055 -0.2642 -0.2623  0.3154
 2961TIP3    H130374   1.649   6.431  13.011  1.7576  0.6387  0.7417
 2961TIP3    H230375   1.714   6.297  12.986  0.0991 -0.1194  0.4124
 2962TIP3   OH230376   3.436   5.628   2.338 -0.0982  0.4260 -0.4016
 2962TIP3    H130377   3.480   5.576   2.271 -0.7717  0.1224 -0.6165
 2962TIP3    H230378   3.496   5.702   2.354  0.5913 -0.0954 -0.5147
 2963TIP3   OH230379   5.938   0.546  11.596 -0.1221 -0.1316  0.2750
 2963TIP3    H130380   5.879   0.584  11.531 -1.1139 -0.5823  0.8973
 2963TIP3    H230381   5.990   0.482  11.548 -1.5738 -1.2274  0.1041
 2964TIP3   OH230382   0.570   2.148  12.602  0.8672 -0.1519  0.0188
 2964TIP3    H130383   0.535   2.068  12.641 -1.0505  0.7456  0.2617
 2964TIP3    H230384   0.654   2.162  12.645  0.6146 -1.3169  0.9183
 2965TIP3   OH230385   3.408   1.848  13.657  0.0496  0.0544 -0.7751
 2965TIP3    H130386   3.463   1.796  13.600 -0.8550  1.2490 -2.8409
 2965TIP3    H230387   3.405   1.934  13.616 -1.0345  0.8444  0.8410
 2966TIP3   OH230388   0.036   4.777   2.903  0.2292 -0.4576 -0.2917
 2966TIP3    H130389  -0.019   4.788   2.980  0.7805 -2.5353  0.4665
 2966TIP3    H230390   0.120   4.815   2.927  0.2423 -0.6452 -0.0308
 2967TIP3   OH230391   2.186   0.579  16.509 -0.3176  0.1581 -0.3622
 2967TIP3    H130392   2.108   0.627  16.481 -0.0539 -0.1109 -1.6163
 2967TIP3    H230393   2.163   0.487  16.499 -0.5720  0.0034  1.3525
 2968TIP3   OH230394   5.010   2.650  13.694 -0.2167 -0.4396  0.0532
 2968TIP3    H130395   4.914   2.656  13.700 -0.3081  0.6553 -1.5787
 2968TIP3    H230396   5.042   2.706  13.764 -0.7658 -0.7697  0.5780
 2969TIP3   OH230397   1.734   2.074   5.682 -0.3658 -0.3011  0.3790
 2969TIP3    H130398   1.666   2.044   5.742  1.1129 -2.3287  1.1675
 2969TIP3    H230399   1.737   2.168   5.695 -3.1317 -0.0975  0.1394
 2970TIP3   OH230400   1.651   5.846  15.246  0.4269 -0.5363  0.0078
 2970TIP3    H130401   1.659   5.834  15.151  1.3428  0.1027 -0.0093
 2970TIP3    H230402   1.623   5.761  15.279  2.6131 -1.5374 -0.5513
 2971TIP3   OH230403   4.435   6.174  13.336  0.1143 -0.0285  0.4715
 2971TIP3    H130404   4.428   6.183  13.431  0.1977 -0.1210  0.4865
 2971TIP3    H230405   4.367   6.112  13.312 -0.6387  0.8274  0.3314
 2972TIP3   OH230406   5.978   0.019  15.964 -0.0769 -0.0639  0.3112
 2972TIP3    H130407   5.970   0.012  16.059 -2.2387  0.8614  0.2634
 2972TIP3    H230408   5.890  -0.000  15.931 -0.6303  4.0057 -1.1578
 2973TIP3   OH230409   3.094   3.514  13.337 -0.4901 -0.4565  0.0922
 2973TIP3    H130410   3.078   3.424  13.367  2.9689 -1.2526 -0.0556
 2973TIP3    H230411   3.141   3.504  13.254 -0.7288  1.5373 -0.3405
 2974TIP3   OH230412   1.888   6.356  16.919 -0.2483 -0.0095  0.6382
 2974TIP3    H130413   1.843   6.308  16.850 -0.2314  1.6214 -0.5533
 2974TIP3    H230414   1.830   6.349  16.995 -0.6302 -1.1873  0.2632
 2975TIP3   OH230415   4.155   4.227  13.033 -0.1880  0.2201 -0.4104
 2975TIP3    H130416   4.226   4.288  13.053  0.3331 -1.0479  1.9642
 2975TIP3    H230417   4.199   4.153  12.990 -0.3319  0.1636 -0.4607
 2976TIP3   OH230418   0.287   4.392   1.585 -0.0077 -0.2922  0.1053
 2976TIP3    H130419   0.283   4.478   1.628 -1.0405 -0.6148  0.7026
 2976TIP3    H230420   0.238   4.403   1.504  0.4069 -0.1519 -0.1271
 2977TIP3   OH230421   1.565   4.548   5.449  0.0086  0.0521  0.2691
 2977TIP3    H130422   1.485   4.545   5.395  0.0362 -1.3132  0.2711
 2977TIP3    H230423   1.535   4.584   5.533 -0.2924  0.9691 -0.2114
 2978TIP3   OH230424   3.593   0.011   0.553 -0.1322  0.2303 -0.7399
 2978TIP3    H130425   3.586  -0.037   0.471  1.1250 -0.4661 -0.4705
 2978TIP3    H230426   3.585  -0.055   0.621 -0.5704  0.7134 -0.3123
 2979TIP3   OH230427   0.785   6.272   2.194  0.3546 -0.4545 -0.4974
 2979TIP3    H130428   0.819   6.200   2.246  0.1931 -0.8918 -0.9816
 2979TIP3    H230429   0.861   6.308   2.150  0.2501 -1.3248 -1.4489
 2980TIP3   OH230430   3.261   1.203   4.951  0.4613  0.2829 -0.1308
 2980TIP3    H130431   3.184   1.220   5.005 -0.0276  1.1621 -1.0769
 2980TIP3    H230432   3.325   1.166   5.012 -1.6288 -3.3036  0.1608
 2981TIP3   OH230433   5.574   0.644   5.013  0.6966 -0.2233 -0.9645
 2981TIP3    H130434   5.480   0.654   5.028  0.8337  2.2886 -1.4653
 2981TIP3    H230435   5.608   0.614   5.097 -0.7659 -3.5306 -1.3861
 2982TIP3   OH230436   1.966   2.859   3.677 -0.4689 -0.2523 -0.6856
 2982TIP3    H130437   2.045   2.811   3.699 -0.0140  0.7211 -0.1438
 2982TIP3    H230438   1.907   2.844   3.751 -0.3674 -0.0814 -0.5679
 2983TIP3   OH230439   3.483   0.270   2.449 -0.2411  0.3888  0.1125
 2983TIP3    H130440   3.453   0.356   2.479 -0.3502  0.4394 -0.1397
 2983TIP3    H230441   3.432   0.253   2.370 -2.6228 -1.3346  1.8594
 2984TIP3   OH230442   6.056   4.499   4.850 -0.4234 -0.4475 -0.2080
 2984TIP3    H130443   5.996   4.448   4.796 -0.6582 -0.5415  0.1395
 2984TIP3    H230444   6.039   4.590   4.825 -2.0068 -0.3317  1.1800
 2985TIP3   OH230445   1.418   5.498  11.958 -0.6127  0.7165  0.2951
 2985TIP3    H130446   1.328   5.481  11.983 -0.8444  0.2664 -0.7514
 2985TIP3    H230447   1.411   5.552  11.879  0.0340  0.8673  0.3355
 2986TIP3   OH230448   0.792   3.463  16.545 -0.2023  0.2261 -0.1409
 2986TIP3    H130449   0.747   3.411  16.612  1.3978  0.0120  0.8314
 2986TIP3    H230450   0.846   3.525  16.594  1.0172  0.0714 -1.2050
 2987TIP3   OH230451   4.364   4.120  12.507  0.7632  0.1170  1.2002
 2987TIP3    H130452   4.405   4.137  12.423 -0.2750  0.4252  0.7384
 2987TIP3    H230453   4.398   4.187  12.566 -0.5373  1.6066  0.3228
 2988TIP3   OH230454   1.458   2.217  15.183  0.1655 -0.1612  0.2005
 2988TIP3    H130455   1.369   2.189  15.161 -0.3697  0.5612  1.3670
 2988TIP3    H230456   1.450   2.262  15.268  1.6853 -0.3490  0.4857
 2989TIP3   OH230457   0.040   2.288   5.297 -0.4695  0.7588 -0.6782
 2989TIP3    H130458   0.077   2.365   5.341 -1.1790  0.7922 -0.1353
 2989TIP3    H230459   0.115   2.230   5.283 -0.2189  0.8034  0.4528
 2990TIP3   OH230460   4.829   3.674  14.538 -0.5532  0.5893  0.2026
 2990TIP3    H130461   4.866   3.753  14.577  1.4606  0.1674 -0.7541
 2990TIP3    H230462   4.900   3.611  14.539 -1.4422 -0.4832 -1.1507
 2991TIP3   OH230463   5.185   5.073  15.640  0.5113  0.7944 -0.0450
 2991TIP3    H130464   5.142   5.041  15.562 -0.0389  0.6230  0.3253
 2991TIP3    H230465   5.132   5.148  15.668 -1.2702 -1.0814  2.0039
 2992TIP3   OH230466   3.889   2.448   3.080 -0.0035  0.0875  0.7879
 2992TIP3    H130467   3.813   2.505   3.068  0.4168  0.5053  0.0042
 2992TIP3    H230468   3.924   2.472   3.166  0.1008  0.9555  0.5225
 2993TIP3   OH230469   5.942   2.050   3.986 -0.1607  0.0616  0.2919
 2993TIP3    H130470   5.905   1.986   4.046 -0.7371  1.0971  1.0697
 2993TIP3    H230471   5.865   2.091   3.945 -0.0533  2.9713  2.6879
 2994TIP3   OH230472   1.006   5.808  13.646 -0.0564  0.4002  0.7577
 2994TIP3    H130473   0.945   5.734  13.650 -0.5281  0.5930 -1.7168
 2994TIP3    H230474   1.093   5.767  13.642 -0.3571 -0.1343 -1.6031
 2995TIP3   OH230475   0.299   1.572  16.635  0.4816 -0.6125 -0.3869
 2995TIP3    H130476   0.379   1.607  16.595  0.3769  0.3508  0.2005
 2995TIP3    H230477   0.319   1.480  16.652  1.8530 -0.1614  0.6723
 2996TIP3   OH230478   6.289   2.856  15.160 -0.5251  0.1219  0.3715
 2996TIP3    H130479   6.371   2.885  15.119 -0.9012 -0.6559 -1.0176
 2996TIP3    H230480   6.297   2.761  15.166 -2.1827 -0.2694 -1.9391
 2997TIP3   OH230481   3.104   0.828  11.381 -0.2493  0.2066 -0.1644
 2997TIP3    H130482   3.128   0.882  11.306 -0.1827 -0.5461 -0.6867
 2997TIP3    H230483   3.008   0.826  11.380 -0.2287 -0.9971 -1.0963
 2998TIP3   OH230484   2.577   2.619  12.263 -0.0975  0.0501 -0.2047
 2998TIP3    H130485   2.637   2.547  12.242  0.2261 -0.0432  0.9515
 2998TIP3    H230486   2.521   2.584  12.332  0.4435  1.0637  0.7961
 2999TIP3   OH230487   6.190   6.361   5.849 -0.0616  0.4326 -0.5712
 2999TIP3    H130488   6.209   6.402   5.932 -0.1943 -0.1447 -0.2457
 2999TIP3    H230489   6.275   6.350   5.806  0.0174  0.6282 -0.4608
 3000TIP3   OH230490   5.213   2.334  13.432 -0.6731  0.3458  0.2807
 3000TIP3    H130491   5.246   2.281  13.359 -0.7808 -0.5565  0.8796
 3000TIP3    H230492   5.192   2.419  13.392  0.8703  0.4314 -0.4143
 3001TIP3   OH230493   3.449   4.290  12.426  0.2483  0.2123 -0.1725
 3001TIP3    H130494   3.433   4.222  12.490  1.1128 -0.3734 -0.5652
 3001TIP3    H230495   3.541   4.280  12.402  0.1784  1.0003 -0.8297
 3002TIP3   OH230496   6.460   0.741   4.626  0.8618 -0.0147  0.2634
 3002TIP3    H130497   6.379   0.777   4.589  0.6562  0.4077  1.0946
 3002TIP3    H230498   6.472   0.657   4.581  0.0817  0.0176 -0.0222
 3003TIP3   OH230499   6.043   2.841  15.386 -0.0607  0.2921 -0.2889
 3003TIP3    H130500   6.115   2.903  15.394  0.2465 -0.0377 -0.4801
 3003TIP3    H230501   5.999   2.866  15.304  0.3760 -0.0651 -0.6372
 3004TIP3   OH230502   0.790   4.280   3.332 -0.6715  0.3146  0.6183
 3004TIP3    H130503   0.816   4.368   3.360 -1.4089  0.1387  1.9553
 3004TIP3    H230504   0.743   4.293   3.250  1.5038  0.8780 -0.6144
 3005TIP3   OH230505   6.347   2.430   2.826  0.2892  0.3357 -0.3315
 3005TIP3    H130506   6.356   2.361   2.891 -0.2861 -0.0534 -0.6550
 3005TIP3    H230507   6.404   2.402   2.754 -0.3697 -0.1019 -0.6993
 3006TIP3   OH230508   6.174   2.101  12.456  0.4968 -0.2614 -0.1835
 3006TIP3    H130509   6.110   2.030  12.443  0.2726 -0.3714  1.3784
 3006TIP3    H230510   6.233   2.068  12.524  0.5153  0.9680  0.4220
 3007TIP3   OH230511   0.881   5.981   3.379  0.0569  0.4998  0.2113
 3007TIP3    H130512   0.893   6.053   3.441 -1.4676  0.7553  0.2371
 3007TIP3    H230513   0.970   5.957   3.354  0.7826  0.0362  2.8798
 3008TIP3   OH230514   1.967   2.733   1.830  0.0343 -0.1091 -0.1541
 3008TIP3    H130515   1.872   2.721   1.835  0.0066 -0.0289 -0.4860
 3008TIP3    H230516   2.002   2.644   1.828 -0.1019 -0.1542 -1.2855
 3009TIP3   OH230517   5.594   1.119   5.846  0.2375 -0.0507 -0.0062
 3009TIP3    H130518   5.674   1.162   5.816  0.6092 -0.6684  0.0887
 3009TIP3    H230519   5.621   1.030   5.868 -0.5990 -0.4451 -0.5355
 3010TIP3   OH230520   5.459   5.718  16.827  0.1379 -0.3258 -0.1784
 3010TIP3    H130521   5.451   5.807  16.860  0.6606 -0.9410  1.7466
 3010TIP3    H230522   5.451   5.726  16.732  2.3788  2.0534 -0.2724
 3011TIP3   OH230523   0.372   5.732   3.971 -0.4787 -0.0826  0.2218
 3011TIP3    H130524   0.413   5.783   3.901 -0.5707 -1.5857 -0.9927
 3011TIP3    H230525   0.312   5.673   3.925 -0.9529 -0.7342  1.6296
 3012TIP3   OH230526   3.627   6.202   5.648  0.0249 -0.3575 -0.1430
 3012TIP3    H130527   3.714   6.175   5.676 -0.9003 -2.0444  1.3277
 3012TIP3    H230528   3.627   6.188   5.553  1.8496  1.3272 -0.4608
 3013TIP3   OH230529   1.398   1.464   4.697 -0.4125 -0.7636 -0.0789
 3013TIP3    H130530   1.412   1.436   4.787 -1.2380 -0.6257  0.0948
 3013TIP3    H230531   1.430   1.555   4.695 -1.3232 -0.4183  0.3425
 3014TIP3   OH230532   0.760   6.378   6.323 -0.2755 -0.2617  0.1744
 3014TIP3    H130533   0.798   6.297   6.289  1.5459 -0.1461  1.7297
 3014TIP3    H230534   0.667   6.358   6.333  0.0288 -1.9662 -0.0406
 3015TIP3   OH230535   4.211   4.478  16.983  0.1278 -0.5705  0.0746
 3015TIP3    H130536   4.221   4.387  16.958 -0.0281 -0.3048 -0.9945
 3015TIP3    H230537   4.296   4.518  16.964  0.1050 -0.4314  0.2632
 3016TIP3   OH230538   2.725   3.846  13.752  0.0591 -0.2340  0.2053
 3016TIP3    H130539   2.654   3.808  13.804  0.4094  0.1823  0.9943
 3016TIP3    H230540   2.732   3.936  13.784 -0.6205  0.4642 -1.4794
 3017TIP3   OH230541   6.480   6.305   0.637 -0.2350  0.4564 -0.1013
 3017TIP3    H130542   6.393   6.321   0.673 -0.4819 -0.1127 -0.4345
 3017TIP3    H230543   6.496   6.212   0.652  0.7801  0.7785  0.9368
 3018TIP3   OH230544   3.897   2.404  15.738 -0.4626  0.4404 -0.3218
 3018TIP3    H130545   3.897   2.380  15.830  0.8163  0.0739 -0.3943
 3018TIP3    H230546   3.928   2.495  15.737 -1.9142  0.9515 -0.2963
 3019TIP3   OH230547   2.882   5.747  12.953  0.4766  0.7013 -0.3527
 3019TIP3    H130548   2.907   5.763  12.862  0.2609  2.4294 -0.1332
 3019TIP3    H230549   2.786   5.750  12.952  0.4593  0.3185 -0.1264
 3020TIP3   OH230550   3.036   5.436  16.260  0.4825 -0.2498  0.4991
 3020TIP3    H130551   3.127   5.449  16.234  0.1276 -1.0430 -1.2240
 3020TIP3    H230552   3.017   5.510  16.318  2.1992 -0.0602  0.8605
 3021TIP3   OH230553   5.632   4.561   3.795  0.1346 -0.1245 -0.2207
 3021TIP3    H130554   5.668   4.580   3.708  1.1330 -1.0721 -0.0366
 3021TIP3    H230555   5.553   4.615   3.801  1.3413  1.8060 -0.7620
 3022TIP3   OH230556   3.169   0.314   0.128 -0.2110  0.2651 -0.1832
 3022TIP3    H130557   3.180   0.378   0.199 -0.2346  0.0287  0.0317
 3022TIP3    H230558   3.076   0.320   0.104  0.0390  1.1995 -1.0019
 3023TIP3   OH230559   3.290   2.047   3.070 -0.1684 -0.1873 -0.4014
 3023TIP3    H130560   3.344   2.085   3.138  1.5549  1.6899 -2.6375
 3023TIP3    H230561   3.294   1.953   3.084  2.0207  0.0301  0.7264
 3024TIP3   OH230562   6.665   4.275   5.003 -0.2160  0.0097  0.6367
 3024TIP3    H130563   6.756   4.288   4.978  0.1884 -1.3080  1.3968
 3024TIP3    H230564   6.615   4.313   4.930  0.9229  0.6284  0.1602
 3025TIP3   OH230565   2.897   2.446   1.116  0.2514  0.6340 -0.1456
 3025TIP3    H130566   2.881   2.422   1.208 -0.0236 -0.9660 -0.5901
 3025TIP3    H230567   2.935   2.368   1.077 -2.2012  0.2658 -2.0709
 3026TIP3   OH230568   1.888   3.828  14.267 -0.1422 -0.4647  0.7303
 3026TIP3    H130569   1.892   3.838  14.172 -0.4018  0.9417  0.8464
 3026TIP3    H230570   1.901   3.734  14.282  2.0469 -0.4375 -0.5565
 3027TIP3   OH230571   1.966   0.019   1.638  0.3700  1.0159  0.0472
 3027TIP3    H130572   2.011  -0.047   1.690 -1.7939 -1.7529 -1.3591
 3027TIP3    H230573   2.035   0.058   1.584  2.0492  1.5170  2.3887
 3028TIP3   OH230574   5.958   2.318  13.025 -0.0348 -0.0751  0.0021
 3028TIP3    H130575   6.003   2.247  12.978 -1.4731 -1.1595  0.1932
 3028TIP3    H230576   5.970   2.297  13.117  0.2239  0.3995  0.0806
 3029TIP3   OH230577   3.252   4.288   5.484  0.1216  0.8388  0.0366
 3029TIP3    H130578   3.247   4.254   5.574  1.0800 -0.8372 -0.5020
 3029TIP3    H230579   3.178   4.247   5.440  1.7799 -1.4181 -0.8416
 3030TIP3   OH230580   5.360   2.719  11.696  0.9340 -0.3788  0.7309
 3030TIP3    H130581   5.319   2.643  11.655  1.8215 -1.9666  2.6203
 3030TIP3    H230582   5.292   2.757  11.751  0.1009  1.0501 -1.1623
 3031TIP3   OH230583   0.553   1.003   2.242 -0.6127  0.5915  0.2401
 3031TIP3    H130584   0.647   1.020   2.238 -0.6576  1.2329  1.4383
 3031TIP3    H230585   0.544   0.930   2.303 -0.7343 -1.2967 -1.8852
 3032TIP3   OH230586   1.496   2.806  12.632 -0.3964  0.2836  0.1644
 3032TIP3    H130587   1.561   2.851  12.686  1.1196 -1.3846 -0.1548
 3032TIP3    H230588   1.433   2.874  12.607  1.1602  1.9550  0.5950
 3033TIP3   OH230589   5.167   6.264  13.531  0.0520  0.0375 -0.6327
 3033TIP3    H130590   5.207   6.350  13.549  0.3087 -0.0130 -0.9652
 3033TIP3    H230591   5.229   6.220  13.473 -0.1966 -0.2812 -0.6583
 3034TIP3   OH230592   0.534   4.497   2.438 -0.7927  0.4326 -0.0161
 3034TIP3    H130593   0.440   4.517   2.439 -0.9951 -0.4375 -0.8619
 3034TIP3    H230594   0.540   4.410   2.478 -0.3148  0.5820  0.2438
 3035TIP3   OH230595   4.490   0.296  13.250 -0.1653  0.0141 -0.5429
 3035TIP3    H130596   4.441   0.214  13.256  0.4457 -0.4383 -1.5118
 3035TIP3    H230597   4.455   0.339  13.172  0.8995 -0.2807 -1.2065
 3036TIP3   OH230598   4.068   3.520   2.552 -0.6843 -0.0569  0.2989
 3036TIP3    H130599   4.098   3.576   2.624 -0.5558  0.6884 -0.3236
 3036TIP3    H230600   4.130   3.539   2.481 -1.4545  0.0221 -0.3542
 3037TIP3   OH230601   0.894   5.010  13.552  0.1076  0.7079  0.3686
 3037TIP3    H130602   0.898   4.921  13.586  0.7496 -0.3430 -2.2121
 3037TIP3    H230603   0.801   5.034  13.557 -0.4217 -0.9455 -0.7713
 3038TIP3   OH230604   3.705   3.432  11.804 -0.4712  0.1010 -0.1143
 3038TIP3    H130605   3.666   3.458  11.720  0.3128 -0.5981 -0.7090
 3038TIP3    H230606   3.734   3.342  11.790 -2.0744 -0.7438  1.5351
 3039TIP3   OH230607   0.490   6.528   6.539  0.0982  0.6538 -0.0195
 3039TIP3    H130608   0.403   6.568   6.547  0.2158  1.1655 -1.0614
 3039TIP3    H230609   0.478   6.438   6.568 -1.2101  0.2123 -1.7497
 3040TIP3   OH230610   0.601   6.730   2.333  0.0448  0.8862  0.4588
 3040TIP3    H130611   0.630   6.736   2.424  0.6252 -0.2418  0.3809
 3040TIP3    H230612   0.683   6.730   2.283 -0.1462 -0.5596  0.1005
 3041TIP3   OH230613   6.366   0.327   3.533  0.1776  0.8353  0.0114
 3041TIP3    H130614   6.417   0.341   3.613 -0.5094  1.0812  0.4125
 3041TIP3    H230615   6.306   0.402   3.529 -0.6971  0.1533 -0.0235
 3042TIP3   OH230616   6.567   1.423  12.518 -0.2261 -0.4344 -0.0918
 3042TIP3    H130617   6.607   1.336  12.517 -1.0474 -0.8914  1.9647
 3042TIP3    H230618   6.509   1.424  12.442 -0.2333 -1.7019 -0.1244
 3043TIP3   OH230619   3.544   1.067   1.907  0.1578  0.0117 -0.2994
 3043TIP3    H130620   3.505   1.142   1.951  0.9571 -1.3289  2.9959
 3043TIP3    H230621   3.470   1.024   1.864 -1.1427  0.3384  1.4707
 3044TIP3   OH230622   5.079   3.861  12.116  0.5428  0.2553 -0.2113
 3044TIP3    H130623   5.022   3.880  12.041 -0.0244  0.2361  0.2025
 3044TIP3    H230624   5.087   3.765  12.117 -0.6832  0.1383  0.6199
 3045TIP3   OH230625   1.160   2.713  12.909  0.2999 -0.3493 -0.5434
 3045TIP3    H130626   1.072   2.696  12.873 -1.2195  0.7216  2.3375
 3045TIP3    H230627   1.146   2.781  12.975  3.2354 -0.5703  0.4444
 3046TIP3   OH230628   6.393   0.431  17.004 -0.0889  0.6243  0.2959
 3046TIP3    H130629   6.420   0.400  17.090 -0.5614  1.6889  0.8413
 3046TIP3    H230630   6.405   0.526  17.007 -1.7351  0.8855 -0.2017
 3047TIP3   OH230631   3.270   0.050   2.001 -0.3680 -0.9933  0.3658
 3047TIP3    H130632   3.207   0.093   1.944  0.5516  0.8608  0.6455
 3047TIP3    H230633   3.326   0.000   1.943 -0.5051 -0.5345 -0.1660
 3048TIP3   OH230634   1.912   2.625  12.216  0.2464 -0.2690  0.4964
 3048TIP3    H130635   1.957   2.588  12.140 -1.3113 -1.7445  0.2148
 3048TIP3    H230636   1.925   2.719  12.208  1.5058 -0.5030 -0.6830
 3049TIP3   OH230637   5.845   1.412   2.020 -0.3202 -0.0687  0.3278
 3049TIP3    H130638   5.788   1.345   2.059 -0.6443  1.0574  1.9092
 3049TIP3    H230639   5.886   1.368   1.945 -0.1250 -2.2034  1.5889
 3050TIP3   OH230640   1.881   5.194   1.681  0.6443  0.0574 -0.7424
 3050TIP3    H130641   1.820   5.120   1.683  2.4563 -1.4980 -0.0248
 3050TIP3    H230642   1.826   5.270   1.663 -1.2670 -1.4827 -1.8202
 3051TIP3   OH230643   5.724   6.475  14.683  0.3639  0.1761  0.3721
 3051TIP3    H130644   5.808   6.434  14.662  1.7453  1.6412  2.6227
 3051TIP3    H230645   5.676   6.409  14.733  0.9340 -0.0888  0.5757
 3052TIP3   OH230646   5.719   1.664   2.044 -0.0833  0.7172 -0.3769
 3052TIP3    H130647   5.650   1.663   2.111 -0.3760  1.2036 -0.6683
 3052TIP3    H230648   5.733   1.572   2.023 -0.3856  0.5940 -0.0514
 3053TIP3   OH230649   0.961   2.787  10.048 -0.0032 -0.1434  0.1977
 3053TIP3    H130650   0.947   2.706  10.098  0.6851  0.2440  1.0505
 3053TIP3    H230651   0.903   2.850  10.090  0.1457  0.0348  0.1329
 3054TIP3   OH230652   6.457   3.157  12.064  0.4270  0.3122  0.2278
 3054TIP3    H130653   6.538   3.184  12.021  1.1383 -0.1649  1.2532
 3054TIP3    H230654   6.418   3.095  12.002  0.5010  1.0307 -0.5665
 3055TIP3   OH230655   2.140   4.115   4.571  0.0144  0.3814  0.3130
 3055TIP3    H130656   2.200   4.147   4.503  2.4829 -2.2976  1.0331
 3055TIP3    H230657   2.097   4.039   4.532  0.9637 -0.7848  1.4629
 3056TIP3   OH230658   1.870   5.138   3.933 -0.4955  0.6930  0.3212
 3056TIP3    H130659   1.835   5.094   3.855 -2.1954  1.7871  0.4292
 3056TIP3    H230660   1.869   5.071   4.001 -0.1025  0.0579 -0.2797
 3057TIP3   OH230661   1.943   1.861  16.055 -0.3180 -0.3397 -0.5068
 3057TIP3    H130662   2.022   1.907  16.084 -1.1542  0.0261  1.3647
 3057TIP3    H230663   1.966   1.824  15.970  0.3196  3.8193 -2.4061
 3058TIP3   OH230664   5.915   0.389  14.449 -0.1202  0.0592  0.1028
 3058TIP3    H130665   5.981   0.378  14.380  2.2808  0.7916  2.1693
 3058TIP3    H230666   5.859   0.312  14.440  0.1956  0.0285 -2.5123
 3059TIP3   OH230667   2.575   4.379  12.459  0.0566 -0.0018  0.1776
 3059TIP3    H130668   2.488   4.417  12.458 -0.9831 -2.0544  2.5131
 3059TIP3    H230669   2.583   4.332  12.376 -0.7019  0.9383 -0.4285
 3060TIP3   OH230670   2.957   6.527  13.479 -0.0285  0.1881  0.0483
 3060TIP3    H130671   2.975   6.434  13.488  0.0080  0.2239  0.3649
 3060TIP3    H230672   2.893   6.533  13.408 -0.1470 -0.0908  0.1322
 3061TIP3   OH230673   1.464   5.027   1.492  0.0834  0.8355 -0.3870
 3061TIP3    H130674   1.411   4.985   1.560 -0.1686 -0.0472 -1.0997
 3061TIP3    H230675   1.410   5.100   1.462 -0.1140  0.8008 -0.1270
 3062TIP3   OH230676   5.474   4.019   6.078  0.8073 -0.3615 -0.5648
 3062TIP3    H130677   5.437   3.954   6.137  0.3755 -0.8165 -1.3136
 3062TIP3    H230678   5.515   4.083   6.135 -0.6985 -0.1054  0.2875
 3063TIP3   OH230679   3.171   0.348  15.841 -0.3129  0.2039  0.0524
 3063TIP3    H130680   3.101   0.407  15.814 -0.3297  0.0202 -0.3117
 3063TIP3    H230681   3.250   0.385  15.801  0.5710  2.7054  3.5913
 3064TIP3   OH230682   3.561   3.945   5.377 -0.0987 -0.6930 -0.7807
 3064TIP3    H130683   3.637   3.926   5.432  0.8863 -0.6027 -2.0679
 3064TIP3    H230684   3.486   3.934   5.435  0.9180 -0.2727  0.6613
 3065TIP3   OH230685   3.545   5.172  13.012 -0.1889 -0.3747 -0.0531
 3065TIP3    H130686   3.631   5.136  12.991  1.1143  1.5808  1.5283
 3065TIP3    H230687   3.542   5.256  12.966 -1.7037 -0.8379 -0.8733
 3066TIP3   OH230688   1.396   5.038  12.447  0.1678  0.2803  0.1389
 3066TIP3    H130689   1.471   4.982  12.468  0.1398 -0.3748 -1.3840
 3066TIP3    H230690   1.330   4.979  12.412  0.2084  1.2426 -1.7043
 3067TIP3   OH230691   0.804   2.555   1.567  0.0650  0.2165  0.3537
 3067TIP3    H130692   0.852   2.638   1.560 -0.4102  0.4562 -0.0895
 3067TIP3    H230693   0.794   2.525   1.477 -1.5227  0.6852  0.3530
 3068TIP3   OH230694   3.751   6.811  12.165 -0.7914  0.3450  0.1329
 3068TIP3    H130695   3.794   6.881  12.213  1.5711 -0.7009 -0.2850
 3068TIP3    H230696   3.657   6.826  12.178 -0.3090  2.1092  2.0695
 3069TIP3   OH230697   6.072   6.629   4.930 -0.5810 -0.1292  0.0238
 3069TIP3    H130698   6.053   6.565   4.999 -0.9993 -0.1435 -0.1001
 3069TIP3    H230699   5.992   6.681   4.923  0.4640  1.8883  1.6554
 3070TIP3   OH230700   3.669   0.842   1.653  0.2537  0.0250 -0.2496
 3070TIP3    H130701   3.596   0.836   1.592  1.0119 -2.4598 -1.0563
 3070TIP3    H230702   3.690   0.935   1.657 -4.3572  1.2272  1.8435
 3071TIP3   OH230703   3.371   2.773  13.820 -0.5487  0.0292 -0.4903
 3071TIP3    H130704   3.396   2.750  13.731 -0.1202 -0.2895 -0.2900
 3071TIP3    H230705   3.435   2.729  13.875 -1.2286 -0.3403  0.0110
 3072TIP3   OH230706   5.801   0.150  16.657 -0.1880 -0.1877 -0.6435
 3072TIP3    H130707   5.783   0.059  16.678 -0.6740  0.1399  0.4269
 3072TIP3    H230708   5.804   0.195  16.742  0.1293  0.7768 -1.1405
 3073TIP3   OH230709   5.894   6.216   6.077 -0.0506  0.1657  0.1892
 3073TIP3    H130710   5.804   6.185   6.084 -0.2178 -0.2524 -2.5760
 3073TIP3    H230711   5.924   6.222   6.167 -2.2027 -1.5683  1.1381
 3074TIP3   OH230712   4.551   2.048   4.832  0.0377  0.0785  0.5919
 3074TIP3    H130713   4.507   2.123   4.792  2.5529  0.9226 -0.8518
 3074TIP3    H230714   4.636   2.083   4.861  1.5602 -2.2652 -0.7170
 3075TIP3   OH230715   6.447   0.196   5.847  0.8102 -0.2734  0.1781
 3075TIP3    H130716   6.518   0.172   5.788 -0.1315  0.2054 -1.2311
 3075TIP3    H230717   6.444   0.126   5.912  2.3303 -0.4622  0.0797
 3076TIP3   OH230718   6.713   5.645   1.595  0.2592 -0.0053 -0.9813
 3076TIP3    H130719   6.782   5.711   1.603  0.7788 -0.6892  0.5608
 3076TIP3    H230720   6.756   5.569   1.557  0.0605 -0.0314 -1.1586
 3077TIP3   OH230721   2.316   2.957   4.789  0.2104  1.1285 -0.3309
 3077TIP3    H130722   2.327   2.873   4.835 -0.3022  2.0420  1.5776
 3077TIP3    H230723   2.365   2.947   4.708 -0.3354 -1.2278 -0.4264
 3078TIP3   OH230724   1.334   5.682  14.136 -0.9746 -0.4379  0.4437
 3078TIP3    H130725   1.428   5.671  14.117 -1.1541 -0.2966 -0.6097
 3078TIP3    H230726   1.325   5.659  14.228  0.7126  3.0769  1.6405
 3079TIP3   OH230727   2.245   4.692   4.778 -0.1416 -0.2424  0.0967
 3079TIP3    H130728   2.244   4.786   4.758 -0.5419 -0.4431 -0.8843
 3079TIP3    H230729   2.197   4.652   4.706 -0.5896 -1.1405  0.8824
 3080TIP3   OH230730   4.022   5.181   6.345  0.1957 -0.1257  0.4588
 3080TIP3    H130731   3.981   5.137   6.270 -0.0870 -0.9839  1.1065
 3080TIP3    H230732   4.085   5.242   6.305 -0.2577 -0.2493 -0.4867
 3081TIP3   OH230733   4.731   0.894   0.015  0.2072  0.2122 -0.4112
 3081TIP3    H130734   4.720   0.845  -0.066  0.1691 -2.4224  1.0900
 3081TIP3    H230735   4.826   0.891   0.032 -0.0535 -2.1872  1.2205
 3082TIP3   OH230736   6.070   6.751   3.433  0.0988 -0.2787  0.0544
 3082TIP3    H130737   6.009   6.720   3.500 -1.8259  2.4791 -0.2278
 3082TIP3    H230738   6.100   6.672   3.390 -3.0324 -1.8655  0.4734
 3083TIP3   OH230739   4.485   2.105  11.298 -0.0749 -0.1384 -0.3767
 3083TIP3    H130740   4.423   2.050  11.346 -1.4916  0.9763 -0.8910
 3083TIP3    H230741   4.438   2.186  11.280  1.4688  0.6730 -0.9602
 3084TIP3   OH230742   2.828   0.306   0.719  0.1434 -0.6933  0.1976
 3084TIP3    H130743   2.740   0.269   0.712  0.6438 -2.0405  0.7935
 3084TIP3    H230744   2.885   0.237   0.687  0.9967  0.2101 -0.2807
 3085TIP3   OH230745   4.583   5.349   0.198 -0.6128 -0.0452 -0.2227
 3085TIP3    H130746   4.539   5.363   0.114 -1.3037 -0.8038 -0.0063
 3085TIP3    H230747   4.525   5.288   0.245  0.7331 -1.1954  0.0181
 3086TIP3   OH230748   5.484   0.309   0.613  1.2299  0.1326 -0.6452
 3086TIP3    H130749   5.425   0.326   0.687 -0.1594  0.8760 -1.8589
 3086TIP3    H230750   5.495   0.395   0.572  1.6021 -0.3411 -1.5622
 3087TIP3   OH230751   3.396   1.329  15.596 -0.2076  0.7649  0.1503
 3087TIP3    H130752   3.337   1.375  15.538 -1.5414 -0.2438  0.6485
 3087TIP3    H230753   3.469   1.301  15.540 -2.1140 -1.4188 -1.4548
 3088TIP3   OH230754   0.095   0.452  10.904 -0.4058 -0.8050 -0.3144
 3088TIP3    H130755   0.148   0.522  10.867 -0.0417 -0.9999 -0.1646
 3088TIP3    H230756   0.124   0.373  10.859  0.2082 -1.0829  0.5312
 3089TIP3   OH230757   0.285   5.791  15.102 -0.3269 -0.1272 -0.0628
 3089TIP3    H130758   0.308   5.749  15.020  1.2813  1.4170 -0.4698
 3089TIP3    H230759   0.366   5.788  15.154 -0.7425  0.6691  0.6594
 3090TIP3   OH230760   0.166   0.471  11.689  0.0288 -0.1236  0.2381
 3090TIP3    H130761   0.156   0.563  11.664  2.3781 -0.3629 -2.1646
 3090TIP3    H230762   0.193   0.474  11.780  0.7785  1.6642  0.0138
 3091TIP3   OH230763   6.199   4.054  16.792 -0.1543  0.2128  0.3792
 3091TIP3    H130764   6.251   4.068  16.871 -1.5602  0.2743  1.3414
 3091TIP3    H230765   6.110   4.040  16.825 -0.7929  0.3592 -1.2083
 3092TIP3   OH230766   2.023   5.208   0.401  0.8430  0.1825 -0.1352
 3092TIP3    H130767   1.935   5.233   0.427  0.8808  1.5459 -1.2228
 3092TIP3    H230768   2.060   5.166   0.479 -0.7607 -0.4640  0.3254
 3093TIP3   OH230769   2.475   0.775   2.194  0.5849  0.3623 -0.2936
 3093TIP3    H130770   2.517   0.849   2.237  0.3516 -0.3054  1.1418
 3093TIP3    H230771   2.469   0.708   2.262 -0.2154 -0.5726 -1.2504
 3094TIP3   OH230772   0.831   5.414   1.970 -0.8981 -0.3522  0.1348
 3094TIP3    H130773   0.864   5.501   1.950 -2.1483 -0.5427 -3.7096
 3094TIP3    H230774   0.773   5.426   2.045  2.2520  1.1826  2.5383
 3095TIP3   OH230775   1.081   3.654  11.157 -0.2467  0.9384  0.0069
 3095TIP3    H130776   1.004   3.711  11.158  0.4842  1.9430  0.0595
 3095TIP3    H230777   1.137   3.690  11.088  1.2522  1.7026  1.5399
 3096TIP3   OH230778   1.485   1.707   2.546  0.2019  0.0406  0.0726
 3096TIP3    H130779   1.478   1.732   2.454 -0.7714 -0.0573  0.1097
 3096TIP3    H230780   1.528   1.622   2.545  2.3336  1.0462 -0.1341
 3097TIP3   OH230781   5.306   1.759   5.478 -0.4334  0.5802  1.0926
 3097TIP3    H130782   5.255   1.748   5.558 -0.4555 -1.7884  0.8093
 3097TIP3    H230783   5.243   1.750   5.407  0.0313 -0.4426  0.7814
 3098TIP3   OH230784   3.985   2.546   2.052  0.0303 -0.3266 -0.1829
 3098TIP3    H130785   3.991   2.559   1.957 -2.4694  1.0514 -0.2409
 3098TIP3    H230786   4.073   2.562   2.084  0.3473  2.1619 -2.0091
 3099TIP3   OH230787   0.054   2.156   1.386 -0.0145  0.1281  0.2270
 3099TIP3    H130788  -0.033   2.193   1.369 -0.5416  0.2514  2.7262
 3099TIP3    H230789   0.114   2.210   1.335 -1.1833  1.6807  0.4321
 3100TIP3   OH230790   5.307   0.574   5.084  0.3640  0.1634 -0.9563
 3100TIP3    H130791   5.313   0.492   5.134  0.4345  0.6226 -0.1985
 3100TIP3    H230792   5.246   0.554   5.013  0.1261 -0.4545 -0.5899
 3101TIP3   OH230793   0.136   3.781   0.111  0.6943 -0.1950  0.1337
 3101TIP3    H130794   0.080   3.783   0.188  1.5070  1.2398  0.7182
 3101TIP3    H230795   0.220   3.749   0.143  1.1620  0.8239 -0.0540
 3102TIP3   OH230796   4.060   5.617   5.593  0.0848  0.0429  0.4746
 3102TIP3    H130797   4.142   5.637   5.638  2.6001 -1.3393 -3.0889
 3102TIP3    H230798   4.043   5.693   5.539  0.3492 -0.5901 -0.5247
 3103TIP3   OH230799   5.674   0.470   6.062  0.4366 -0.7450 -0.0199
 3103TIP3    H130800   5.592   0.518   6.066  0.9054  0.0786 -0.1305
 3103TIP3    H230801   5.697   0.451   6.153 -0.0620 -1.3144 -0.0073
 3104TIP3   OH230802   0.569   1.505   0.001  0.2160  0.0875 -0.0137
 3104TIP3    H130803   0.509   1.430   0.005 -2.3235  1.9583 -0.3093
 3104TIP3    H230804   0.656   1.465  -0.004 -0.9673 -2.8208  0.1135
 3105TIP3   OH230805   1.805   0.473   6.469  0.1397 -0.0250  0.6424
 3105TIP3    H130806   1.865   0.406   6.501 -0.4493 -0.6301  0.4989
 3105TIP3    H230807   1.717   0.439   6.488 -0.1700  1.0299  1.2210
 3106TIP3   OH230808   2.462   2.341  15.842  0.0909  0.5003 -0.3388
 3106TIP3    H130809   2.441   2.261  15.795  0.5773  0.1991 -0.0522
 3106TIP3    H230810   2.493   2.401  15.775 -0.4210  0.5053 -0.5767
 3107TIP3   OH230811   1.495   3.580  12.234  0.1944  0.3081  0.1418
 3107TIP3    H130812   1.559   3.645  12.264  0.7326  0.0472 -0.4304
 3107TIP3    H230813   1.451   3.621  12.160  1.7938 -0.6294 -1.4050
 3108TIP3   OH230814   1.512   4.867  17.230  0.4558 -0.3291  0.0156
 3108TIP3    H130815   1.536   4.871  17.322  0.9494  0.6110 -0.1380
 3108TIP3    H230816   1.469   4.782  17.219 -0.0790 -0.2266  1.2174
 3109TIP3   OH230817   5.834   0.105  12.004 -0.4015  0.1952 -0.5595
 3109TIP3    H130818   5.876   0.166  11.943 -0.7359  0.6533 -0.3452
 3109TIP3    H230819   5.799   0.162  12.073  0.8716 -0.3730  0.6139
 3110TIP3   OH230820   5.966   0.744  15.456  0.3078 -0.4970  0.1959
 3110TIP3    H130821   6.012   0.668  15.419  1.8855  0.6350 -0.2614
 3110TIP3    H230822   5.919   0.782  15.382 -0.2437 -0.8415  0.3629
 3111TIP3   OH230823   3.314   3.677  12.379  0.6912 -0.3310  0.0787
 3111TIP3    H130824   3.294   3.621  12.454  2.2237  1.9538  2.3793
 3111TIP3    H230825   3.269   3.759  12.397  4.2876  1.7148  0.7726
 3112TIP3   OH230826   5.594   0.708   5.322 -0.7211 -0.5409  0.0398
 3112TIP3    H130827   5.673   0.669   5.359 -0.4544 -0.3319 -0.3049
 3112TIP3    H230828   5.605   0.802   5.334 -1.1348 -0.5353  0.4128
 3113TIP3   OH230829   3.997   3.435   0.881  0.3287  0.3538 -0.0845
 3113TIP3    H130830   4.066   3.496   0.858 -0.0815  1.5517  1.6795
 3113TIP3    H230831   4.004   3.365   0.816  1.5317  1.7019 -1.4784
 3114TIP3   OH230832   4.259   6.073   0.921  0.1145 -0.3154  0.5110
 3114TIP3    H130833   4.329   6.014   0.947  2.0020  1.3692 -0.3950
 3114TIP3    H230834   4.276   6.090   0.828  0.0449  2.0811  0.8785
 3115TIP3   OH230835   2.567   3.029   3.787  0.3513 -0.1932 -0.1538
 3115TIP3    H130836   2.482   3.011   3.827 -0.0004 -0.8361 -1.1503
 3115TIP3    H230837   2.622   2.954   3.811  0.7351  0.3624  0.7326
 3116TIP3   OH230838   4.666   4.471   3.538 -0.3816  0.5196  0.3333
 3116TIP3    H130839   4.674   4.564   3.521 -0.3402  0.7279  1.4307
 3116TIP3    H230840   4.743   4.449   3.590 -0.1133 -0.2422 -0.3611
 3117TIP3   OH230841   3.695   0.758   3.914  0.4263  0.0611  0.1943
 3117TIP3    H130842   3.790   0.743   3.919  0.7546  2.1355  1.3626
 3117TIP3    H230843   3.661   0.727   3.997  0.2261  0.1627  0.1511
 3118TIP3   OH230844   5.724   0.760  10.429 -0.7617 -0.0589  0.4342
 3118TIP3    H130845   5.637   0.778  10.393 -0.0560  0.4104 -1.0831
 3118TIP3    H230846   5.785   0.782  10.359  0.5087 -2.2145  0.7707
 3119TIP3   OH230847   6.538   4.228   0.617 -0.3582  0.0676  0.2845
 3119TIP3    H130848   6.474   4.220   0.546 -1.1368  0.3847  0.9415
 3119TIP3    H230849   6.487   4.220   0.697  0.3586  0.7744  0.8279
 3120TIP3   OH230850   4.560   4.989  13.617  0.4152 -0.2128  0.1467
 3120TIP3    H130851   4.567   4.986  13.522  0.6078 -0.0275  0.1541
 3120TIP3    H230852   4.477   4.945  13.637 -0.6745  1.5711 -0.2542
 3121TIP3   OH230853   3.650   1.207  13.514 -0.0095  0.0935  0.0040
 3121TIP3    H130854   3.668   1.287  13.564  1.3290 -0.9601  1.2943
 3121TIP3    H230855   3.590   1.235  13.444 -1.5949  1.7395  1.8953
 3122TIP3   OH230856   0.569   2.432   6.356  0.5340  0.3047  0.3560
 3122TIP3    H130857   0.619   2.497   6.307  0.3014  0.0854 -0.1797
 3122TIP3    H230858   0.624   2.411   6.431  0.1786  1.8642  1.1020
 3123TIP3   OH230859   5.634   1.196  12.164  0.0341 -0.2266  0.3852
 3123TIP3    H130860   5.721   1.176  12.128  0.7672  0.9507  1.4130
 3123TIP3    H230861   5.640   1.172  12.257 -0.1701  1.3872  0.8499
 3124TIP3   OH230862   2.863   6.506   0.523  1.1022  0.1433 -0.5971
 3124TIP3    H130863   2.797   6.482   0.459  0.7563  0.3672 -0.3301
 3124TIP3    H230864   2.947   6.490   0.479  0.8706  0.0456 -1.0054
 3125TIP3   OH230865   1.455   3.859   2.275 -0.9870  0.4591  0.1475
 3125TIP3    H130866   1.424   3.804   2.347 -0.7297 -0.4208 -0.3957
 3125TIP3    H230867   1.400   3.835   2.201  1.1142 -1.3702 -0.9291
 3126TIP3   OH230868   3.000   1.020  13.060 -0.0105  0.0559  0.2965
 3126TIP3    H130869   3.048   0.947  13.022 -1.5877 -0.4282 -0.8840
 3126TIP3    H230870   2.936   0.978  13.118  1.2853  0.7087  2.3249
 3127TIP3   OH230871   3.425   2.583   6.126 -0.1056  0.2875  0.1607
 3127TIP3    H130872   3.379   2.629   6.196  0.6114 -1.2797  1.7580
 3127TIP3    H230873   3.495   2.535   6.171  1.9436  1.1098 -1.9355
 3128TIP3   OH230874   1.187   5.316  12.991 -0.6174 -0.3192  0.4545
 3128TIP3    H130875   1.219   5.335  13.079  1.7835 -0.4483 -0.3245
 3128TIP3    H230876   1.135   5.237  13.000  1.2204 -1.4727  1.5027
 3129TIP3   OH230877   0.720   2.834   3.881 -0.3669 -0.4417 -0.0098
 3129TIP3    H130878   0.790   2.830   3.816  0.9403 -0.3104  1.3323
 3129TIP3    H230879   0.667   2.755   3.865  0.5726 -0.9833 -0.5321
 3130TIP3   OH230880   4.911   5.901   0.195  0.2533 -0.2780 -0.3028
 3130TIP3    H130881   4.858   5.933   0.268  1.2270 -1.4878  0.9991
 3130TIP3    H230882   4.997   5.942   0.209 -0.0712  1.0593 -1.9465
 3131TIP3   OH230883   3.243   5.497   3.565 -0.3217  0.3029  0.4550
 3131TIP3    H130884   3.303   5.443   3.616 -0.2346  1.6830  1.8834
 3131TIP3    H230885   3.294   5.574   3.541 -0.9032  0.5077 -0.1780
 3132TIP3   OH230886   1.867   4.296   1.570  0.0245  0.6996 -0.2508
 3132TIP3    H130887   1.799   4.363   1.582 -0.3655  0.3859 -0.7029
 3132TIP3    H230888   1.885   4.297   1.476  0.4100  0.5444 -0.1794
 3133TIP3   OH230889   4.903   0.889   0.505 -0.4089  0.4210  0.2607
 3133TIP3    H130890   4.862   0.975   0.511 -2.8397 -0.6594  0.4605
 3133TIP3    H230891   4.854   0.844   0.436  2.6790  0.0710 -1.9242
 3134TIP3   OH230892   1.030   1.390  12.384 -0.3248 -0.2278 -0.3378
 3134TIP3    H130893   0.991   1.468  12.343  1.0094  1.0711  0.7432
 3134TIP3    H230894   0.958   1.352  12.434 -0.4070  1.8988  1.3056
 3135TIP3   OH230895   3.410   0.631   5.164  0.8983  0.0752  0.0808
 3135TIP3    H130896   3.403   0.547   5.209 -0.1993  0.2124  0.2025
 3135TIP3    H230897   3.321   0.668   5.168  0.8498  0.2603 -1.8577
 3136TIP3   OH230898   6.624   5.448   3.227 -0.5070  0.2054  0.0424
 3136TIP3    H130899   6.663   5.382   3.169  1.1562  1.0418  0.1421
 3136TIP3    H230900   6.532   5.450   3.203 -0.2154 -0.8208 -1.2558
 3137TIP3   OH230901   2.022   2.622  15.996 -0.3430  0.7820 -0.3646
 3137TIP3    H130902   2.022   2.628  15.901 -1.8107  1.2361 -0.3462
 3137TIP3    H230903   2.089   2.685  16.024 -1.4156  2.2739 -1.0197
 3138TIP3   OH230904   1.609   5.285   4.620 -0.3697 -0.4923  0.0567
 3138TIP3    H130905   1.624   5.369   4.577 -0.3877 -1.6054 -2.2586
 3138TIP3    H230906   1.515   5.283   4.639 -0.4868 -0.2696 -0.5046
 3139TIP3   OH230907   2.111   6.797  13.149 -0.1866  0.0801  0.0270
 3139TIP3    H130908   2.086   6.734  13.216 -2.1826  1.5268  0.7479
 3139TIP3    H230909   2.206   6.806  13.159 -0.0651 -1.6531  0.8827
 3140TIP3   OH230910   5.195   4.472   3.823 -0.2042 -0.4784 -0.0354
 3140TIP3    H130911   5.102   4.474   3.844  0.0300 -0.1161  0.9873
 3140TIP3    H230912   5.214   4.379   3.804 -0.9506 -0.4225 -1.1565
 3141TIP3   OH230913   1.577   0.737   2.111  0.5091 -0.0280 -0.0301
 3141TIP3    H130914   1.604   0.676   2.043  1.3658 -0.7188  0.8853
 3141TIP3    H230915   1.659   0.762   2.155  0.0401  0.8596  0.3685
 3142TIP3   OH230916   2.789   2.720  11.634 -0.2030  0.0436 -0.1985
 3142TIP3    H130917   2.730   2.733  11.709 -0.7325  0.9189 -0.7468
 3142TIP3    H230918   2.805   2.808  11.601  2.8510  0.0391  0.9656
 3143TIP3   OH230919   5.113   1.887   4.265  0.2436 -0.0652  0.0101
 3143TIP3    H130920   5.164   1.807   4.249 -0.5876 -0.3885 -1.1822
 3143TIP3    H230921   5.164   1.956   4.223 -0.1878 -0.3539 -1.0023
 3144TIP3   OH230922   1.850   0.689  15.639 -0.1901  0.5363 -0.0252
 3144TIP3    H130923   1.805   0.605  15.626  1.0459 -0.7206  2.9091
 3144TIP3    H230924   1.783   0.748  15.674 -0.6779  0.2446 -0.4622
 3145TIP3   OH230925   1.667   6.428   0.950  0.2342  0.3124 -0.1973
 3145TIP3    H130926   1.670   6.332   0.942 -0.2951  0.3305 -0.6881
 3145TIP3    H230927   1.574   6.450   0.939  0.3938  0.9087 -0.3812
 3146TIP3   OH230928   0.073   0.859   2.620 -0.3162 -0.1551  0.2950
 3146TIP3    H130929   0.159   0.889   2.589 -0.9146  1.2672 -0.0652
 3146TIP3    H230930   0.012   0.888   2.552 -1.5455  2.1851  2.2510
 3147TIP3   OH230931   3.831   4.215  12.831  0.6794  0.2202 -0.1338
 3147TIP3    H130932   3.845   4.277  12.758  0.1678  0.2134 -0.2434
 3147TIP3    H230933   3.858   4.130  12.796 -0.1479  0.1122 -0.5284
 3148TIP3   OH230934   5.174   4.203   4.084 -0.0665  0.1698  0.8138
 3148TIP3    H130935   5.266   4.231   4.083 -0.0510  0.1286 -0.3334
 3148TIP3    H230936   5.177   4.114   4.117  0.1551  0.6197  2.0585
 3149TIP3   OH230937   5.833   4.999   4.309  0.4281 -1.1244  0.0518
 3149TIP3    H130938   5.822   4.916   4.261  0.8833  0.7613 -3.6446
 3149TIP3    H230939   5.921   5.028   4.287 -0.1220  0.8839  0.3071
 3150TIP3   OH230940   3.371   0.050   5.546  0.3680 -0.4379 -0.3662
 3150TIP3    H130941   3.464   0.036   5.564  0.3275  0.5842  0.8014
 3150TIP3    H230942   3.342   0.106   5.617 -0.6722  0.9717 -1.8357
 3151TIP3   OH230943   0.178   6.251  12.695  0.0292 -0.0900 -0.0387
 3151TIP3    H130944   0.141   6.172  12.734  0.8544 -1.7956 -2.4564
 3151TIP3    H230945   0.115   6.278  12.628  1.7501 -1.5229 -2.4124
 3152TIP3   OH230946   1.127   5.667   3.233 -0.1801  0.0088 -0.3279
 3152TIP3    H130947   1.117   5.762   3.229 -3.6902 -0.1517  0.9464
 3152TIP3    H230948   1.075   5.635   3.159  0.5945 -0.9384 -0.4728
 3153TIP3   OH230949   5.328   0.585  15.573 -0.4516 -0.4500 -0.6583
 3153TIP3    H130950   5.372   0.639  15.508 -0.0283 -0.7677 -0.6383
 3153TIP3    H230951   5.396   0.564  15.637 -0.8504 -0.1770 -0.1372
 3154TIP3   OH230952   0.260   5.783   0.563  0.0656 -0.7398  0.1699
 3154TIP3    H130953   0.235   5.872   0.538  2.0231 -0.2022 -0.0161
 3154TIP3    H230954   0.225   5.773   0.651  2.1086  1.2544  1.2981
 3155TIP3   OH230955   4.821   5.146  11.428 -0.3517  0.1700 -0.2224
 3155TIP3    H130956   4.880   5.072  11.417  1.0072  1.3376 -1.3887
 3155TIP3    H230957   4.734   5.108  11.429  0.2229 -1.3494 -2.0650
 3156TIP3   OH230958   3.616   4.453   5.839  0.5566  0.5987  0.2915
 3156TIP3    H130959   3.637   4.402   5.761  1.6565 -0.3947  1.1941
 3156TIP3    H230960   3.655   4.403   5.911 -2.6002  0.1053  1.8128
 3157TIP3   OH230961   5.648   3.642  11.664  0.2226  0.0649  0.9223
 3157TIP3    H130962   5.656   3.580  11.737 -0.7575 -1.9303 -0.5810
 3157TIP3    H230963   5.572   3.696  11.687 -0.7449 -1.2477  0.9269
 3158TIP3   OH230964   1.751   0.257  14.635  0.2107 -0.0617 -0.0960
 3158TIP3    H130965   1.824   0.221  14.585 -0.6889 -1.9807 -0.1068
 3158TIP3    H230966   1.735   0.343  14.595  2.4146  0.4193 -0.0870
 3159TIP3   OH230967   2.067   6.212   0.241  0.1722  0.0199  0.4152
 3159TIP3    H130968   2.009   6.136   0.241 -0.0335  0.1415 -1.2067
 3159TIP3    H230969   2.008   6.288   0.242  0.2994  0.1424 -0.4137
 3160TIP3   OH230970   3.260   2.659  13.451  0.4678  0.2272  0.0534
 3160TIP3    H130971   3.189   2.661  13.515  1.1038  1.0589  0.7568
 3160TIP3    H230972   3.221   2.695  13.371 -0.1864 -0.3282  0.1124
 3161TIP3   OH230973   1.004   4.551   6.233  0.4871 -0.3927 -0.6023
 3161TIP3    H130974   1.076   4.613   6.222 -0.0704  0.2868 -0.4890
 3161TIP3    H230975   1.028   4.500   6.310 -0.3286  1.5614  1.0548
 3162TIP3   OH230976   6.467   2.207   5.042  0.3239 -0.0581 -0.5774
 3162TIP3    H130977   6.477   2.132   4.983  2.3347  0.9743 -1.6409
 3162TIP3    H230978   6.524   2.188   5.116 -1.7066 -1.0458  0.8578
 3163TIP3   OH230979   0.145   4.948  11.083  0.4099 -0.4517  0.6216
 3163TIP3    H130980   0.233   4.914  11.099  0.4969 -0.0057  1.1207
 3163TIP3    H230981   0.113   4.972  11.170 -1.1385 -2.7983  0.7993
 3164TIP3   OH230982   2.295   6.739   2.880  0.2806  0.4722 -0.1405
 3164TIP3    H130983   2.244   6.780   2.950  0.0676  0.4194 -0.2639
 3164TIP3    H230984   2.382   6.726   2.918  0.4803  1.4236 -0.2374
 3165TIP3   OH230985   2.151   0.079   3.091  0.2970 -0.1847  0.2206
 3165TIP3    H130986   2.243   0.102   3.082 -0.2226  1.7048 -0.7538
 3165TIP3    H230987   2.105   0.163   3.092 -1.4913 -1.0970 -0.3668
 3166TIP3   OH230988   1.514   6.115   3.826  0.6728  0.3706  0.7793
 3166TIP3    H130989   1.461   6.168   3.886  0.1978  0.8465 -0.0319
 3166TIP3    H230990   1.454   6.046   3.797  0.7285  0.4636  0.4410
 3167TIP3   OH230991   2.622   4.894  14.925 -0.3336 -0.2105 -0.4952
 3167TIP3    H130992   2.611   4.811  14.973  1.7621 -0.4513 -0.3425
 3167TIP3    H230993   2.618   4.961  14.993 -0.6557 -0.2897 -0.4337
 3168TIP3   OH230994   6.059   6.185   4.752 -0.2201 -0.4760 -0.3903
 3168TIP3    H130995   6.122   6.256   4.743 -0.3215 -0.3193  0.0742
 3168TIP3    H230996   6.066   6.158   4.844 -2.2250  0.9136  0.2546
 3169TIP3   OH230997   1.419   1.370   2.965  0.1373  0.5183  0.2464
 3169TIP3    H130998   1.425   1.450   2.914  0.8266  0.3372  0.0229
 3169TIP3    H230999   1.381   1.397   3.048  1.5261  1.3191  0.6506
 3170TIP3   OH231000   5.674   2.598   2.679  0.1628  0.1789 -0.1413
 3170TIP3    H131001   5.691   2.514   2.638 -1.7406 -0.5598  0.4381
 3170TIP3    H231002   5.657   2.658   2.607  1.3841  0.0555 -0.5514
 3171TIP3   OH231003   6.540   0.666   2.159 -0.3379  0.5620 -0.1154
 3171TIP3    H131004   6.608   0.696   2.099  0.7951 -1.5387  0.0505
 3171TIP3    H231005   6.560   0.710   2.242 -1.0970  2.3842 -0.8421
 3172TIP3   OH231006   0.334   6.233   4.001 -0.1542  0.2372  0.0882
 3172TIP3    H131007   0.349   6.323   4.028  0.1737  0.2210 -0.0355
 3172TIP3    H231008   0.351   6.181   4.079 -0.7562  0.3123  0.2756
 3173TIP3   OH231009   5.068   4.772   5.013  0.4903  0.2346 -0.1252
 3173TIP3    H131010   5.141   4.736   5.063  0.6416  1.8790  0.8933
 3173TIP3    H231011   4.994   4.716   5.036  1.3375 -1.3483 -1.0376
 3174TIP3   OH231012   4.855   5.736  16.445  0.2694 -0.2169 -0.2803
 3174TIP3    H131013   4.804   5.655  16.445  0.7418 -0.5370  0.8454
 3174TIP3    H231014   4.938   5.712  16.487  0.1607  0.9927  0.6951
 3175TIP3   OH231015   1.451   4.756  13.298 -0.0716  0.3468  0.1492
 3175TIP3    H131016   1.487   4.818  13.362 -0.6793  0.2147  0.6310
 3175TIP3    H231017   1.406   4.811  13.234  1.7980  0.5939 -1.0352
 3176TIP3   OH231018   2.541   2.960  13.600  0.4737 -0.2839 -0.1243
 3176TIP3    H131019   2.497   2.986  13.519  0.2270 -0.1523  0.0494
 3176TIP3    H231020   2.489   3.001  13.669 -1.2924 -2.9691  0.3050
 3177TIP3   OH231021   1.684   2.773   2.128  0.3271  0.0470  0.0561
 3177TIP3    H131022   1.734   2.851   2.102  0.7910 -0.3440 -0.2519
 3177TIP3    H231023   1.751   2.706   2.142 -0.1428 -0.7511 -1.2843
 3178TIP3   OH231024   1.587   3.004  11.297 -0.3099 -0.3590 -0.1093
 3178TIP3    H131025   1.598   3.024  11.204 -0.8626 -0.8123 -0.2831
 3178TIP3    H231026   1.493   2.987  11.306 -0.0919 -1.4646  0.2952
 3179TIP3   OH231027   0.678   4.220  11.140 -0.8375  0.5304 -0.2874
 3179TIP3    H131028   0.758   4.215  11.192 -0.4144 -0.1242 -0.9884
 3179TIP3    H231029   0.623   4.150  11.173 -1.8496  2.0122  1.3460
 3180TIP3   OH231030   1.458   1.603  15.350  0.9036 -0.0069  0.1543
 3180TIP3    H131031   1.508   1.591  15.269 -0.8732  1.6446 -1.2888
 3180TIP3    H231032   1.508   1.668  15.400  1.3512 -0.0561 -0.2196
 3181TIP3   OH231033   5.748   2.156  11.981  0.0778 -0.4723  0.4072
 3181TIP3    H131034   5.744   2.230  12.042 -0.4962  0.9751 -1.2697
 3181TIP3    H231035   5.804   2.092  12.024 -1.7362 -0.3424  3.2178
 3182TIP3   OH231036   4.561   5.049  14.390  0.7060  0.1134  0.3375
 3182TIP3    H131037   4.557   5.142  14.370  0.5609  0.5418  2.1912
 3182TIP3    H231038   4.654   5.031  14.404  1.0634 -0.6108 -2.3075
 3183TIP3   OH231039   1.801   0.273  16.996 -0.5315  0.2843 -0.1147
 3183TIP3    H131040   1.881   0.321  16.975 -0.4863  0.0520 -0.4707
 3183TIP3    H231041   1.731   0.320  16.949 -0.1770 -1.3653 -2.4372
 3184TIP3   OH231042   6.237   6.258   0.258  0.7072  0.1391  0.4488
 3184TIP3    H131043   6.185   6.204   0.318  1.1753 -1.6025 -0.6410
 3184TIP3    H231044   6.222   6.348   0.288 -2.3168 -0.3356  0.6424
 3185TIP3   OH231045   6.145   3.592  11.442 -0.0396  0.4585 -0.2285
 3185TIP3    H131046   6.114   3.676  11.475 -0.9857  0.0990 -0.1501
 3185TIP3    H231047   6.138   3.600  11.346 -0.6727  0.2859 -0.2039
 3186TIP3   OH231048   4.571   4.727   3.242  0.1260  0.4757  0.2179
 3186TIP3    H131049   4.627   4.714   3.319 -0.2722  1.3602  0.6646
 3186TIP3    H231050   4.487   4.689   3.267  0.1376  0.3191  0.0260
 3187TIP3   OH231051   6.325   6.625   1.438 -0.5570 -0.6275  0.0787
 3187TIP3    H131052   6.380   6.691   1.481  1.0013 -2.5911  1.2421
 3187TIP3    H231053   6.239   6.667   1.430  0.5390  1.7747  0.1289
 3188TIP3   OH231054   2.526   4.511   2.325 -0.1466 -0.2868  0.3860
 3188TIP3    H131055   2.598   4.573   2.311 -0.5850  0.4658  1.3970
 3188TIP3    H231056   2.447   4.563   2.309 -0.5227 -0.5546  1.3685
 3189TIP3   OH231057   5.657   3.866  15.636 -0.1484  0.4342 -0.0417
 3189TIP3    H131058   5.643   3.829  15.724 -0.2447  0.6865  0.0491
 3189TIP3    H231059   5.751   3.853  15.620 -0.3173 -0.5261 -0.3178
 3190TIP3   OH231060   1.207   2.149  11.851  0.5566  0.2809 -0.3017
 3190TIP3    H131061   1.286   2.201  11.861 -0.6524  2.3057 -0.8135
 3190TIP3    H231062   1.136   2.213  11.843 -0.9105 -1.4313 -1.9171
 3191TIP3   OH231063   5.622   1.678   3.199 -0.0553  0.1084  0.5927
 3191TIP3    H131064   5.631   1.594   3.154  0.6125 -2.0919  4.3231
 3191TIP3    H231065   5.698   1.729   3.170 -0.3218 -0.6272 -1.5601
 3192TIP3   OH231066   1.787   4.633   0.407 -0.2579  0.6038 -0.1628
 3192TIP3    H131067   1.875   4.630   0.369  0.2785  0.0884  1.0666
 3192TIP3    H231068   1.751   4.717   0.377  0.0344  0.1336 -1.9623
 3193TIP3   OH231069   4.335   0.697  11.752 -0.3974  0.7199  0.1649
 3193TIP3    H131070   4.256   0.655  11.718  0.4061 -1.9696  1.2821
 3193TIP3    H231071   4.395   0.699  11.678 -1.5109  2.9952 -0.7536
 3194TIP3   OH231072   0.444   1.805  13.607 -0.0009 -0.0623 -0.2350
 3194TIP3    H131073   0.466   1.895  13.584  0.0413 -0.3040 -1.2118
 3194TIP3    H231074   0.524   1.756  13.590  1.5560  0.3093  4.6120
 3195TIP3   OH231075   3.997   3.354  14.004  0.6775 -0.0023 -0.2141
 3195TIP3    H131076   4.064   3.379  13.941  1.2144  1.3688  0.8643
 3195TIP3    H231077   4.012   3.261  14.019  1.4749 -0.0114 -0.9881
 3196TIP3   OH231078   1.778   4.404  15.042 -0.2070 -0.3780 -0.0768
 3196TIP3    H131079   1.800   4.430  14.952  0.0368 -0.1049  0.0596
 3196TIP3    H231080   1.715   4.470  15.071 -1.8900 -1.6109 -0.7493
 3197TIP3   OH231081   4.993   0.524   5.128  0.1785 -0.4659 -0.2467
 3197TIP3    H131082   4.915   0.482   5.165  0.6107 -1.4995 -0.4903
 3197TIP3    H231083   5.063   0.505   5.190  0.0398  1.3610  0.5149
 3198TIP3   OH231084   4.994   5.791  13.134  0.0782  0.5603 -0.0577
 3198TIP3    H131085   4.980   5.764  13.043  0.0120  0.5417 -0.0423
 3198TIP3    H231086   4.921   5.752  13.182 -0.1037  0.8918 -0.0622
 3199TIP3   OH231087   2.713   3.238   5.019  0.0003  0.2595 -0.4112
 3199TIP3    H131088   2.675   3.282   5.095  1.2476 -0.3564  0.6051
 3199TIP3    H231089   2.670   3.152   5.016 -0.1048  0.3133 -0.4519
 3200TIP3   OH231090   1.502   5.137  10.948  0.0911  0.2518  0.4751
 3200TIP3    H131091   1.540   5.100  10.869  1.5840  1.6493  0.4771
 3200TIP3    H231092   1.574   5.188  10.987 -0.8355  0.2241  2.3119
 3201TIP3   OH231093   6.565   3.689  12.430  0.0365 -0.0896 -0.5752
 3201TIP3    H131094   6.541   3.604  12.394 -0.8162 -0.0794 -0.0603
 3201TIP3    H231095   6.555   3.750  12.357 -0.2850 -0.2871 -0.6987
 3202TIP3   OH231096   1.807   4.238  15.693 -0.5981 -0.2361 -0.1960
 3202TIP3    H131097   1.747   4.303  15.656 -0.8786  0.1392  0.8683
 3202TIP3    H231098   1.881   4.236  15.633 -1.3749 -0.2207 -1.1812
 3203TIP3   OH231099   2.370   5.560  14.310  0.2098 -0.2004 -0.1880
 3203TIP3    H131100   2.277   5.570  14.328  0.6531  1.0034  1.6156
 3203TIP3    H231101   2.402   5.504  14.380  1.1936  1.0403  0.3851
 3204TIP3   OH231102   3.123   1.691  14.901  0.2116 -0.2912 -0.1710
 3204TIP3    H131103   3.152   1.768  14.949  0.9079  0.1845 -1.3165
 3204TIP3    H231104   3.048   1.721  14.850 -0.6085 -0.8261  0.7040
 3205TIP3   OH231105   5.688   6.109  17.157  0.1977 -0.0221  0.5844
 3205TIP3    H131106   5.657   6.022  17.135  1.4522 -0.1751 -0.7706
 3205TIP3    H231107   5.770   6.118  17.107  0.8874  1.3419  1.8840
 3206TIP3   OH231108   1.221   5.580   4.553 -0.0733 -0.2666 -0.1893
 3206TIP3    H131109   1.208   5.657   4.499 -3.4635 -1.6815 -1.6754
 3206TIP3    H231110   1.205   5.506   4.494  2.0127 -2.1178  1.4103
 3207TIP3   OH231111   1.837   0.920  11.457 -0.4640 -0.0947 -0.4901
 3207TIP3    H131112   1.924   0.883  11.467  0.1071  1.1341 -0.6900
 3207TIP3    H231113   1.851   1.002  11.408 -1.8880 -0.6003 -1.8491
 3208TIP3   OH231114   2.991   4.308   1.398 -0.0812  0.4858 -0.3255
 3208TIP3    H131115   2.904   4.273   1.377 -0.0314  1.1875 -1.7686
 3208TIP3    H231116   3.031   4.240   1.453 -1.1935 -0.2512 -0.3896
 3209TIP3   OH231117   0.017   2.391  14.682 -0.4795 -0.0690 -0.6382
 3209TIP3    H131118  -0.023   2.439  14.609  2.1869  2.9180 -0.3702
 3209TIP3    H231119   0.012   2.452  14.755 -1.0572 -2.1188  1.1294
 3210TIP3   OH231120   0.700   5.818   5.669  0.1371 -0.2572  0.5915
 3210TIP3    H131121   0.788   5.796   5.637 -0.2533 -0.1139 -0.6544
 3210TIP3    H231122   0.715   5.865   5.750  1.2717  0.6276 -0.0999
 3211TIP3   OH231123   4.451   4.436  14.852  0.2537 -0.3515 -0.2750
 3211TIP3    H131124   4.368   4.391  14.865  0.3943 -0.1882  1.4752
 3211TIP3    H231125   4.468   4.430  14.758 -0.0208 -3.3819 -0.2174
 3212TIP3   OH231126   3.010   2.877   0.562 -0.3125  0.4923  0.3585
 3212TIP3    H131127   2.996   2.783   0.575 -0.1282  0.3768 -0.2571
 3212TIP3    H231128   3.019   2.912   0.651 -0.3939 -0.0684  0.5933
 3213TIP3   OH231129   1.419   2.892   3.844 -0.2294 -0.7929  0.3074
 3213TIP3    H131130   1.347   2.872   3.904 -0.5354  0.8201  0.5342
 3213TIP3    H231131   1.382   2.956   3.783  0.8213 -0.4571  0.0107
 3214TIP3   OH231132   6.244   6.177  13.439 -0.2868  0.2096  0.0534
 3214TIP3    H131133   6.228   6.255  13.491 -0.3520  0.6066 -0.5618
 3214TIP3    H231134   6.340   6.171  13.433 -0.2612 -0.1541  0.6824
 3215TIP3   OH231135   4.550   5.989  12.367 -0.3071  0.7724 -0.1726
 3215TIP3    H131136   4.601   5.951  12.439 -0.7947  0.4177 -0.0074
 3215TIP3    H231137   4.493   5.917  12.338  0.3627  0.7056 -1.3747
 3216TIP3   OH231138   3.795   4.928  13.047  0.3070 -0.0461  0.0838
 3216TIP3    H131139   3.745   4.931  13.128  0.2016  1.4818 -0.0047
 3216TIP3    H231140   3.759   4.854  12.999  0.2829 -0.8843  1.3656
 3217TIP3   OH231141   1.042   4.834   1.601 -0.5576 -0.3266 -0.4987
 3217TIP3    H131142   0.986   4.782   1.660 -0.7465  0.1179 -0.2819
 3217TIP3    H231143   0.983   4.860   1.530 -0.4680 -0.3879 -0.5950
 3218TIP3   OH231144   0.484   6.314  12.908  0.2119  0.3302 -0.4882
 3218TIP3    H131145   0.454   6.251  12.973 -0.2879  0.7621 -0.2941
 3218TIP3    H231146   0.542   6.374  12.956  0.8365 -0.0833 -0.7117
 3219TIP3   OH231147   2.874   0.555  15.276  0.1005  0.1255 -0.0206
 3219TIP3    H131148   2.882   0.487  15.343 -1.2198  0.1228  0.1672
 3219TIP3    H231149   2.806   0.523  15.217  1.5865 -0.1002 -1.6995
 3220TIP3   OH231150   4.019   2.076   2.457  0.0337  0.5343  0.0949
 3220TIP3    H131151   3.950   2.131   2.495  0.4336  0.7822  0.4754
 3220TIP3    H231152   3.983   2.046   2.373 -0.7586  0.2036  0.5371
 3221TIP3   OH231153   2.711   4.435  16.764 -0.9770  0.8159  0.5586
 3221TIP3    H131154   2.728   4.369  16.831 -1.3688  0.1553  0.0298
 3221TIP3    H231155   2.772   4.506  16.784  0.2781 -0.1873  0.4880
 3222TIP3   OH231156   5.336   2.723  14.290 -0.6630  0.7042  0.1191
 3222TIP3    H131157   5.350   2.658  14.222 -0.4142  1.9046 -1.0248
 3222TIP3    H231158   5.251   2.763  14.269  0.1830  2.2506 -0.5371
 3223TIP3   OH231159   2.835   1.479   1.748 -0.2040  0.2748  0.3846
 3223TIP3    H131160   2.790   1.525   1.677  1.2153  0.6757 -0.3049
 3223TIP3    H231161   2.768   1.463   1.814 -1.4367  0.4162 -0.7968
 3224TIP3   OH231162   2.051   3.744   3.334 -0.2977  0.3235  0.2363
 3224TIP3    H131163   1.978   3.775   3.281 -1.5084 -2.2869  0.2235
 3224TIP3    H231164   2.123   3.732   3.272 -0.4436  1.0309 -0.0816
 3225TIP3   OH231165   2.675   6.230  10.415 -0.0614 -0.0515  0.4960
 3225TIP3    H131166   2.669   6.178  10.494  0.7927 -0.9576 -0.0169
 3225TIP3    H231167   2.769   6.237  10.397 -0.2262  0.4067 -0.2627
 3226TIP3   OH231168   0.081   5.930  15.569 -0.3519  0.4112 -0.3504
 3226TIP3    H131169   0.092   5.891  15.483  0.6140  1.2147 -0.6063
 3226TIP3    H231170   0.077   5.855  15.629  4.0809 -0.1866 -0.4971
 3227TIP3   OH231171   0.258   3.706  13.737 -0.2944  0.3764  0.2166
 3227TIP3    H131172   0.351   3.712  13.715 -0.6162  0.5771 -1.1607
 3227TIP3    H231173   0.216   3.773  13.683 -1.2429  0.3084  0.8464
 3228TIP3   OH231174   1.954   3.383  16.752 -0.3847  0.2928  0.3524
 3228TIP3    H131175   1.945   3.324  16.677 -2.3828  1.1187 -0.1173
 3228TIP3    H231176   1.960   3.325  16.828  0.5717 -0.5347 -0.3332
 3229TIP3   OH231177   1.496   4.999  14.024 -0.7672  0.0603  0.0577
 3229TIP3    H131178   1.585   5.020  14.054 -0.7688 -0.4724  0.4306
 3229TIP3    H231179   1.473   4.919  14.070 -0.4584 -1.2520 -1.9261
 3230TIP3   OH231180   0.634   1.525  12.818  0.2763  0.4930  0.0809
 3230TIP3    H131181   0.561   1.487  12.769 -0.0521 -0.2821  1.1426
 3230TIP3    H231182   0.592   1.571  12.891  0.8624 -0.1944  0.8601
 3231TIP3   OH231183   4.075   2.177   2.775 -0.2598  0.5732 -0.4821
 3231TIP3    H131184   3.996   2.188   2.721 -0.2693  3.5987 -0.0509
 3231TIP3    H231185   4.044   2.185   2.865  0.4483  1.2115 -0.2839
 3232TIP3   OH231186   1.077   1.335  15.379  0.0087  0.0377 -0.3994
 3232TIP3    H131187   1.116   1.413  15.419  4.0420 -2.0695  0.3687
 3232TIP3    H231188   1.028   1.368  15.304  1.1858  3.3249  0.1096
 3233TIP3   OH231189   4.728   0.192  12.867 -0.2243 -0.0496 -0.4853
 3233TIP3    H131190   4.735   0.167  12.775 -1.6042  0.0542 -0.6443
 3233TIP3    H231191   4.749   0.285  12.869 -0.9209  0.1171 -0.8168
 3234TIP3   OH231192   4.987   1.868  14.095 -0.6169 -0.0379 -0.3770
 3234TIP3    H131193   4.944   1.856  14.010 -0.6664 -0.1128 -0.3416
 3234TIP3    H231194   4.970   1.959  14.118 -0.2327  0.1064 -0.6501
 3235TIP3   OH231195   1.543   3.077  16.941 -0.3152  0.0229  0.0004
 3235TIP3    H131196   1.492   3.021  16.999 -0.1668  0.2989  0.3996
 3235TIP3    H231197   1.534   3.164  16.978 -0.6740  0.2957 -0.7088
 3236TIP3   OH231198   2.744   6.720   1.926  0.0337  0.4618 -0.0059
 3236TIP3    H131199   2.689   6.716   1.847 -0.3074  0.2898  0.2353
 3236TIP3    H231200   2.797   6.799   1.915 -1.3647  1.5153  0.4621
 3237TIP3   OH231201   6.522   4.281  17.076 -0.1067  0.3879  0.9053
 3237TIP3    H131202   6.591   4.344  17.097 -2.0938  2.1932  2.4117
 3237TIP3    H231203   6.537   4.208  17.136  0.7245  0.5598  0.9174
 3238TIP3   OH231204   1.963   0.094  14.557  0.8015 -0.7912  0.4934
 3238TIP3    H131205   1.995   0.155  14.491  0.4480  0.1108  1.1269
 3238TIP3    H231206   1.918   0.026  14.507  0.1274  0.1252 -0.1819
 3239TIP3   OH231207   1.789   3.200   0.725 -0.4136 -0.2078  0.2336
 3239TIP3    H131208   1.867   3.177   0.775  0.2355  2.8511  0.8172
 3239TIP3    H231209   1.786   3.136   0.654  1.1591 -1.9383  1.6344
 3240TIP3   OH231210   0.447   4.916   1.842  0.0932 -0.3152 -0.4334
 3240TIP3    H131211   0.400   4.998   1.857  0.3660 -0.3488  0.6376
 3240TIP3    H231212   0.501   4.934   1.765  0.1650  0.5151 -0.2041
 3241TIP3   OH231213   6.122   1.504  15.688  0.6203 -0.0411 -0.1986
 3241TIP3    H131214   6.143   1.597  15.677  1.4328 -0.1496  0.3467
 3241TIP3    H231215   6.124   1.490  15.783 -1.8763 -0.1001 -0.0657
 3242TIP3   OH231216   5.167   5.051  15.280 -0.1356  0.1295  0.1049
 3242TIP3    H131217   5.245   5.066  15.333  0.1630 -1.4138  0.1442
 3242TIP3    H231218   5.184   5.098  15.199  0.0590  1.2648  0.7795
 3243TIP3   OH231219   3.216   5.989   2.577  0.2194  0.3707  0.1505
 3243TIP3    H131220   3.235   6.059   2.515  0.8982  0.3912  0.3671
 3243TIP3    H231221   3.126   6.003   2.604  0.0069  0.5145 -0.6341
 3244TIP3   OH231222   0.799   4.386  16.583 -0.2914 -0.1426 -0.2941
 3244TIP3    H131223   0.894   4.395  16.582 -0.0062 -1.4769 -4.2625
 3244TIP3    H231224   0.767   4.464  16.537 -0.5503 -1.8482 -3.3182
 3245TIP3   OH231225   2.896   2.413   2.034  0.0515 -0.2208  0.6538
 3245TIP3    H131226   2.912   2.376   1.947  0.9490 -2.0872  1.5347
 3245TIP3    H231227   2.882   2.506   2.019 -1.3644 -0.7218 -1.6457
 3246TIP3   OH231228   5.761   3.711   3.343  0.1519 -0.0424 -0.1725
 3246TIP3    H131229   5.679   3.729   3.388 -0.5155 -1.0486 -0.9243
 3246TIP3    H231230   5.789   3.795   3.307 -1.5696  0.0057 -1.5331
 3247TIP3   OH231231   1.015   4.352  13.638  0.0885  0.5679 -0.4845
 3247TIP3    H131232   1.048   4.265  13.616  0.2384  0.4136  0.3167
 3247TIP3    H231233   0.937   4.363  13.583 -1.4705 -1.1450  1.2297
 3248TIP3   OH231234   3.243   3.527  13.052  0.3212 -0.4579 -0.7720
 3248TIP3    H131235   3.185   3.567  12.987 -1.2870  1.6657  1.7606
 3248TIP3    H231236   3.326   3.575  13.043  0.2691 -0.4936 -1.5129
 3249TIP3   OH231237   0.337   0.978   4.203 -0.5722  0.0423 -0.6280
 3249TIP3    H131238   0.291   1.062   4.196 -0.6435 -0.0269 -1.0373
 3249TIP3    H231239   0.429   1.002   4.214 -0.0530  0.2217 -4.1870
 3250TIP3   OH231240   6.318   1.142   0.607 -0.1325 -0.7280 -0.4177
 3250TIP3    H131241   6.309   1.187   0.523  0.6375  0.0349 -0.1069
 3250TIP3    H231242   6.402   1.172   0.641 -0.8812 -0.2560  1.0801
 3251TIP3   OH231243   3.153   6.760  15.997 -0.5317  0.3601 -0.3160
 3251TIP3    H131244   3.086   6.722  16.053  0.1550 -1.4760 -0.6588
 3251TIP3    H231245   3.224   6.784  16.057 -0.0706 -0.9989 -0.2631
 3252TIP3   OH231246   0.247   5.428   5.340  0.4905 -0.7072 -0.2753
 3252TIP3    H131247   0.300   5.504   5.316 -0.0136 -0.0529  0.6428
 3252TIP3    H231248   0.269   5.412   5.432  2.8290 -3.5123 -1.1593
 3253TIP3   OH231249   6.229   1.144   4.901 -0.1866 -0.3109  0.2092
 3253TIP3    H131250   6.263   1.124   4.989  0.4897 -2.3727 -0.4726
 3253TIP3    H231251   6.294   1.203   4.863 -0.7459  1.0266  1.2370
 3254TIP3   OH231252   1.652   3.756   0.780  0.5467  0.0674 -0.2434
 3254TIP3    H131253   1.639   3.732   0.872  0.9352  0.6019 -0.0414
 3254TIP3    H231254   1.566   3.783   0.750  0.2952 -0.6784 -0.2101
 3255TIP3   OH231255   1.132   1.708   4.983 -0.2452  0.0522  0.1574
 3255TIP3    H131256   1.094   1.790   5.016  0.1915 -0.0948  1.0574
 3255TIP3    H231257   1.103   1.703   4.892  0.7341  1.8433 -0.3080
 3256TIP3   OH231258   4.424   4.573   0.966 -0.5553 -0.2987 -0.1874
 3256TIP3    H131259   4.358   4.521   0.919 -0.3813 -1.3016  0.6230
 3256TIP3    H231260   4.440   4.523   1.046  0.0069  0.7681  0.3855
 3257TIP3   OH231261   1.085   2.116  15.663 -0.0019  0.3557  0.2598
 3257TIP3    H131262   1.148   2.048  15.640 -1.2126 -0.8304  0.3182
 3257TIP3    H231263   1.139   2.193  15.679  1.2179  0.3398 -2.9588
 3258TIP3   OH231264   4.150   2.343  17.187 -0.2109 -0.9875  0.6463
 3258TIP3    H131265   4.102   2.422  17.162  0.1134 -1.0546 -0.2367
 3258TIP3    H231266   4.083   2.281  17.214 -0.5676 -0.8522  0.0777
 3259TIP3   OH231267   0.806   1.199  11.883 -0.0584  0.2016  0.0832
 3259TIP3    H131268   0.891   1.238  11.902  0.0457 -0.4253  0.9910
 3259TIP3    H231269   0.754   1.216  11.961 -0.7815  0.5964 -0.4719
 3260TIP3   OH231270   5.881   3.521   1.734 -0.0425 -0.2890  1.2951
 3260TIP3    H131271   5.792   3.513   1.769 -0.3114 -2.7193  0.2865
 3260TIP3    H231272   5.869   3.524   1.639  0.9074  0.4002  1.1899
 3261TIP3   OH231273   1.900   1.925  13.440  0.4475 -0.3377 -0.0665
 3261TIP3    H131274   1.909   1.963  13.352  0.0341 -0.1863 -0.0491
 3261TIP3    H231275   1.811   1.948  13.466 -0.0516 -1.8841 -0.3225
 3262TIP3   OH231276   1.865   2.500  16.517  0.5491  0.0028 -0.1614
 3262TIP3    H131277   1.934   2.457  16.568 -1.6992 -4.0818 -0.1849
 3262TIP3    H231278   1.865   2.455  16.433 -2.0696 -0.0875 -0.1775
 3263TIP3   OH231279   6.275   4.023  15.913 -0.2042 -0.2401 -0.2482
 3263TIP3    H131280   6.349   4.048  15.857  0.8312 -1.0344  0.7251
 3263TIP3    H231281   6.211   4.094  15.901  0.7882  0.5598 -0.9702
 3264TIP3   OH231282   1.198   3.958   5.109  0.2167  0.3606 -0.5406
 3264TIP3    H131283   1.260   3.904   5.158  0.2070 -0.2125 -1.1407
 3264TIP3    H231284   1.147   3.895   5.058 -0.5699  0.8623 -0.3764
 3265TIP3   OH231285   4.808   5.662   2.152 -0.0352 -0.6084 -0.0219
 3265TIP3    H131286   4.748   5.633   2.221  1.9512 -0.5874  1.8043
 3265TIP3    H231287   4.828   5.583   2.103 -1.1483 -0.7036 -0.3510
 3266TIP3   OH231288   5.658   6.493  15.001  0.1836  0.0220 -0.3667
 3266TIP3    H131289   5.614   6.569  15.038  1.3609  0.6180 -0.1467
 3266TIP3    H231290   5.610   6.418  15.036 -0.3640  0.6329  0.2233
 3267TIP3   OH231291   3.331   5.691   5.475  0.6022 -0.6131  0.1237
 3267TIP3    H131292   3.307   5.717   5.386 -0.9970  0.0898  0.7305
 3267TIP3    H231293   3.418   5.730   5.489 -0.8102  2.8624  0.2585
 3268TIP3   OH231294   4.071   1.803  12.031  0.2355  0.4546 -0.1563
 3268TIP3    H131295   4.041   1.814  12.121  0.2723 -3.2776  0.4695
 3268TIP3    H231296   3.992   1.815  11.978 -0.3598  0.0213  0.6127
 3269TIP3   OH231297   0.043   4.550  11.284 -0.5929 -0.4675  0.5671
 3269TIP3    H131298  -0.043   4.591  11.292 -0.6560  0.4471 -2.9744
 3269TIP3    H231299   0.027   4.457  11.303 -1.8202  0.0396  2.2641
 3270TIP3   OH231300   1.379   4.314  12.426  0.2624  0.2719  0.1883
 3270TIP3    H131301   1.404   4.406  12.432 -1.9124  0.9549 -0.5443
 3270TIP3    H231302   1.297   4.307  12.475 -0.8686 -0.7344 -1.7228
 3271TIP3   OH231303   3.343   0.569  12.933 -0.0588  0.3384 -0.1529
 3271TIP3    H131304   3.307   0.640  12.880 -0.4395  0.9978  0.9388
 3271TIP3    H231305   3.379   0.613  13.010 -0.7876 -0.6898  0.8109
 3272TIP3   OH231306   1.828   6.730   6.481 -0.0762 -0.2657 -0.3282
 3272TIP3    H131307   1.808   6.696   6.394  0.1184 -0.0899 -0.4434
 3272TIP3    H231308   1.817   6.655   6.539  1.6988 -0.9056 -0.7437
 3273TIP3   OH231309   3.398   6.785  16.130 -0.0671 -0.0050  0.0638
 3273TIP3    H131310   3.481   6.783  16.081 -1.0189 -1.9879 -1.6244
 3273TIP3    H231311   3.418   6.737  16.211  0.3221 -1.0150 -0.6070
 3274TIP3   OH231312   2.641   2.972   5.498  0.3931  0.1100 -0.0549
 3274TIP3    H131313   2.660   2.959   5.405  1.5981  0.4820  0.1156
 3274TIP3    H231314   2.570   3.037   5.499  0.9969  0.8064 -0.7147
 3275TIP3   OH231315   5.975   2.670  12.696 -0.1447 -0.5105 -0.1485
 3275TIP3    H131316   6.044   2.612  12.664 -1.5215 -2.0120 -0.5049
 3275TIP3    H231317   5.915   2.613  12.744 -0.1182  1.0838  1.9340
 3276TIP3   OH231318   4.301   5.013   1.358 -0.1714  0.0437 -0.1675
 3276TIP3    H131319   4.253   5.030   1.277  2.0524 -0.2533 -1.6166
 3276TIP3    H231320   4.392   5.034   1.338  0.1041  3.0379  3.2217
 3277TIP3   OH231321   3.742   4.254  16.927 -0.0844  0.1169  0.0694
 3277TIP3    H131322   3.834   4.273  16.946  0.6275 -2.7138 -0.0496
 3277TIP3    H231323   3.696   4.274  17.008  0.7260  0.8939  0.3545
 3278TIP3   OH231324   0.167   3.086   5.888  0.2405 -0.6831  0.4053
 3278TIP3    H131325   0.217   3.162   5.918 -0.4140 -0.5604  1.2277
 3278TIP3    H231326   0.106   3.121   5.824  0.7327 -0.7199 -0.0925
 3279TIP3   OH231327   4.950   4.294   3.962 -0.1890  0.1080  0.0159
 3279TIP3    H131328   5.018   4.240   4.002  1.0071  1.9878  0.6646
 3279TIP3    H231329   4.885   4.306   4.032 -0.7561 -0.9338 -0.3154
 3280TIP3   OH231330   6.009   1.524  16.490 -0.3863 -0.6700 -0.1389
 3280TIP3    H131331   6.100   1.501  16.476  0.3593  1.4134  0.8294
 3280TIP3    H231332   5.998   1.524  16.585 -1.2212 -0.3370 -0.2224
 3281TIP3   OH231333   5.185   2.944   2.191 -0.2423  0.4011 -0.2909
 3281TIP3    H131334   5.093   2.936   2.168 -0.2006 -0.3667 -0.2254
 3281TIP3    H231335   5.221   3.006   2.128 -0.8973  1.0563 -0.0332
 3282TIP3   OH231336   1.495   0.996   5.643 -0.5707 -0.6105 -0.0378
 3282TIP3    H131337   1.468   1.082   5.675 -1.8675 -0.6277 -1.0155
 3282TIP3    H231338   1.547   1.014   5.565 -0.3876 -0.6971  0.0628
 3283TIP3   OH231339   6.286   3.756  12.236  0.4082 -0.3754  0.2175
 3283TIP3    H131340   6.338   3.675  12.235  1.7180  0.4257  0.4430
 3283TIP3    H231341   6.195   3.727  12.227  0.7288 -1.9778  1.5970
 3284TIP3   OH231342   0.604   2.620   4.166  0.4847 -0.1796 -0.1641
 3284TIP3    H131343   0.638   2.530   4.172  1.9607  0.1135 -2.6154
 3284TIP3    H231344   0.679   2.675   4.187 -0.1223  0.5133  0.2251
 3285TIP3   OH231345   3.470   4.421   4.995 -0.4612 -0.1334 -0.2530
 3285TIP3    H131346   3.419   4.499   5.018  0.8720  0.7414 -0.0984
 3285TIP3    H231347   3.519   4.447   4.917  0.3440 -0.6489  0.0646
 3286TIP3   OH231348   5.632   1.024  14.049 -0.3810 -0.4334 -0.3110
 3286TIP3    H131349   5.594   1.110  14.068  2.1258  0.9835 -1.2439
 3286TIP3    H231350   5.579   0.963  14.100 -2.0585  1.6891  0.6533
 3287TIP3   OH231351   5.900   4.947  16.057  0.8646  0.1881 -0.6738
 3287TIP3    H131352   5.948   4.864  16.055 -2.1727 -1.7297 -0.7554
 3287TIP3    H231353   5.964   5.013  16.032  3.1607 -2.2817 -1.7503
 3288TIP3   OH231354   4.983   6.130  10.852 -0.0424  0.2789  0.1528
 3288TIP3    H131355   5.024   6.191  10.913  0.7676  1.0207 -1.0986
 3288TIP3    H231356   5.035   6.136  10.772 -1.2775 -0.4018 -0.7523
 3289TIP3   OH231357   0.673   3.952  12.213  0.5830 -0.3662 -0.0326
 3289TIP3    H131358   0.592   3.909  12.241  0.7450  0.0628  1.1886
 3289TIP3    H231359   0.686   3.923  12.123 -0.7592 -0.6900 -0.1487
 3290TIP3   OH231360   2.958   6.486   0.026  0.0492  0.1963  0.6582
 3290TIP3    H131361   2.965   6.463  -0.066  1.6823 -1.4223  1.1186
 3290TIP3    H231362   3.011   6.565   0.036  0.2763  0.0920  0.2971
 3291TIP3   OH231363   4.532   3.948  15.133 -0.2633 -0.8248 -0.2398
 3291TIP3    H131364   4.467   3.962  15.065 -0.8304  1.1879  0.6250
 3291TIP3    H231365   4.508   3.865  15.174 -1.3621 -0.8595 -0.9410
 3292TIP3   OH231366   4.780   1.837   0.289  0.1430 -0.1848 -0.6913
 3292TIP3    H131367   4.842   1.807   0.224 -0.1598 -1.6073 -0.3666
 3292TIP3    H231368   4.706   1.775   0.283 -0.3680  0.2954  0.2402
 3293TIP3   OH231369   6.127   5.439   1.947  0.0182  0.1938  0.0461
 3293TIP3    H131370   6.141   5.533   1.933  1.5479  0.0326  0.3426
 3293TIP3    H231371   6.134   5.400   1.860  0.1962  0.2733  0.0235
 3294TIP3   OH231372   1.419   2.445  15.901 -1.0083 -0.0216 -0.4140
 3294TIP3    H131373   1.507   2.424  15.871 -0.5383 -1.0081  1.4893
 3294TIP3    H231374   1.427   2.533  15.938 -0.6363 -0.4014  0.4193
 3295TIP3   OH231375   0.528   0.637   2.087 -0.4447  0.3784  0.1130
 3295TIP3    H131376   0.486   0.554   2.063  0.6799 -0.0417 -0.4446
 3295TIP3    H231377   0.593   0.614   2.153  0.7603  0.5976 -0.9545
 3296TIP3   OH231378   6.489   4.472  16.668  0.2133  0.5497 -0.6225
 3296TIP3    H131379   6.492   4.393  16.722 -1.7493  0.8105 -0.0487
 3296TIP3    H231380   6.450   4.444  16.586 -1.1579  1.0135 -0.1584
 3297TIP3   OH231381   0.166   1.091  10.885  0.0850  0.2759  0.3938
 3297TIP3    H131382   0.111   1.085  10.963 -0.7253  0.8328 -0.1236
 3297TIP3    H231383   0.231   1.022  10.896 -1.1396 -0.8678  0.6728
 3298TIP3   OH231384   6.166   2.817   3.733 -0.2804 -0.2861  0.1298
 3298TIP3    H131385   6.095   2.835   3.671  1.3524  1.7107 -1.3095
 3298TIP3    H231386   6.243   2.805   3.678  1.0707  0.6648  1.7165
 3299TIP3   OH231387   0.470   2.894   2.781 -0.2436  0.2506  0.7931
 3299TIP3    H131388   0.525   2.968   2.755  0.2693 -1.0276 -2.1905
 3299TIP3    H231389   0.528   2.837   2.830  0.3751  0.1758 -0.0063
 3300TIP3   OH231390   2.783   5.920  14.919  0.0190 -0.2065 -0.3410
 3300TIP3    H131391   2.795   5.998  14.973 -1.2409 -0.0302 -0.2927
 3300TIP3    H231392   2.689   5.917  14.902  0.3064 -0.5867 -2.0305
 3301TIP3   OH231393   3.464   4.025  14.734 -0.1183 -0.1241  0.8931
 3301TIP3    H131394   3.373   4.017  14.704 -0.1622 -3.1165  1.5186
 3301TIP3    H231395   3.457   4.044  14.827 -0.0672  0.8851  0.6989
 3302TIP3   OH231396   6.441   6.749  14.793  0.1592 -0.2977 -0.1753
 3302TIP3    H131397   6.527   6.715  14.816 -0.9783 -2.8895  0.5111
 3302TIP3    H231398   6.392   6.673  14.760 -1.4197  1.3772 -1.9857
 3303TIP3   OH231399   5.531   6.144  13.583  0.0425  0.7276 -0.1101
 3303TIP3    H131400   5.623   6.141  13.558 -0.0936  2.6298 -1.0299
 3303TIP3    H231401   5.486   6.093  13.515  0.1489  2.1967 -1.3274
 3304TIP3   OH231402   3.988   4.517  16.314 -0.2108  0.7846  0.1235
 3304TIP3    H131403   4.066   4.462  16.307 -0.7498  0.0204 -0.1374
 3304TIP3    H231404   3.933   4.489  16.240 -0.6406  1.4441  0.1887
 3305TIP3   OH231405   3.823   5.602  13.182  0.2471 -0.4276  0.1946
 3305TIP3    H131406   3.727   5.601  13.176  0.2255 -0.1825  0.4518
 3305TIP3    H231407   3.845   5.695  13.191  0.7105 -0.1347 -2.7620
 3306TIP3   OH231408   3.161   6.166  17.001 -0.3148 -0.4489  0.4719
 3306TIP3    H131409   3.099   6.237  17.019 -0.5026 -0.3971 -0.3103
 3306TIP3    H231410   3.163   6.161  16.905  2.2214  0.7421  0.3948
 3307TIP3   OH231411   0.548   5.612  13.828  0.0239  0.5377 -0.3247
 3307TIP3    H131412   0.626   5.668  13.836  1.1960 -0.5844 -2.6223
 3307TIP3    H231413   0.493   5.636  13.902  2.3029  1.7955  1.0832
 3308TIP3   OH231414   4.503   6.781   3.286 -0.2420  0.2715  0.2612
 3308TIP3    H131415   4.574   6.768   3.348  0.1331 -0.4055 -0.2942
 3308TIP3    H231416   4.468   6.694   3.271 -1.3914  0.6368  0.7520
 3309TIP3   OH231417   3.295   0.813   5.443 -0.1209  0.4204  0.2645
 3309TIP3    H131418   3.323   0.831   5.533 -2.1472  1.2851  0.7808
 3309TIP3    H231419   3.316   0.893   5.395  2.2810 -0.5548 -0.4341
 3310TIP3   OH231420   1.569   3.505   6.385 -0.2720 -0.3796 -0.6043
 3310TIP3    H131421   1.590   3.517   6.477  0.1456  0.5027 -0.8028
 3310TIP3    H231422   1.475   3.490   6.383 -0.3294 -0.0856 -0.0604
 3311TIP3   OH231423   1.650   2.688  12.975  0.2767  0.7518 -0.2511
 3311TIP3    H131424   1.564   2.683  12.932  0.2155 -0.9211  0.0282
 3311TIP3    H231425   1.713   2.689  12.903  0.1101 -0.5287 -0.4374
 3312TIP3   OH231426   5.640   5.417  15.365  0.1075  0.0863  0.0382
 3312TIP3    H131427   5.678   5.404  15.452 -0.8865 -1.3691  0.2964
 3312TIP3    H231428   5.660   5.508  15.343 -0.1345  0.6735  2.0341
 3313TIP3   OH231429   4.654   3.617  11.291 -0.4288 -0.2187  0.0290
 3313TIP3    H131430   4.675   3.559  11.218 -1.7647 -2.3696  1.2539
 3313TIP3    H231431   4.728   3.677  11.296 -0.1632 -0.1644 -2.8786
 3314TIP3   OH231432   4.641   2.178   5.224 -0.4435 -0.3157 -0.0560
 3314TIP3    H131433   4.647   2.095   5.271  0.0631 -0.5268 -0.4769
 3314TIP3    H231434   4.732   2.200   5.203 -0.6180  0.0618 -0.4292
 3315TIP3   OH231435   3.980   2.385   0.905  0.3199  0.0682 -0.3191
 3315TIP3    H131436   3.955   2.475   0.923  1.3195  0.4437 -0.7264
 3315TIP3    H231437   3.951   2.369   0.815 -1.4309 -0.6191  0.3214
 3316TIP3   OH231438   6.806   5.828   2.462 -0.0985  0.0734 -1.1812
 3316TIP3    H131439   6.760   5.845   2.380 -0.0737  1.7474 -0.8686
 3316TIP3    H231440   6.816   5.914   2.503 -1.0694 -0.8130  1.0916
 3317TIP3   OH231441   4.304   0.793  12.093  0.4937  0.0796  0.0618
 3317TIP3    H131442   4.360   0.719  12.114  1.5408  0.6080 -0.7702
 3317TIP3    H231443   4.352   0.869  12.126 -0.7453  0.3849  1.2581
 3318TIP3   OH231444   3.404   5.986  10.749  0.2833 -0.2214  0.4502
 3318TIP3    H131445   3.484   5.934  10.744  2.7275  3.3134 -0.5600
 3318TIP3    H231446   3.371   5.989  10.659  1.6036  1.9070 -0.0178
 3319TIP3   OH231447   6.563   1.487  14.998  0.1504  0.5023  0.2948
 3319TIP3    H131448   6.564   1.460  14.906 -0.4556  1.7628 -0.0891
 3319TIP3    H231449   6.499   1.558  15.002  0.9124  1.1491  1.4922
 3320TIP3   OH231450   4.820   1.417   3.451 -0.0902  0.2380 -0.3798
 3320TIP3    H131451   4.840   1.327   3.479  0.9862 -0.1363 -2.1726
 3320TIP3    H231452   4.798   1.463   3.532  0.9747 -1.2269  0.8013
 3321TIP3   OH231453   1.738   0.598   2.559 -0.2030 -0.3917 -0.4638
 3321TIP3    H131454   1.737   0.502   2.553  1.5251 -0.5212  0.6794
 3321TIP3    H231455   1.662   0.619   2.613  0.1775 -1.2589  0.4623
 3322TIP3   OH231456   0.855   1.431  13.491 -0.1139 -0.5556  0.3808
 3322TIP3    H131457   0.875   1.346  13.531  1.2145  0.3670  1.7792
 3322TIP3    H231458   0.937   1.480  13.497 -1.0830  1.1320  0.3580
 3323TIP3   OH231459   3.377   5.484  14.100 -0.6028  0.3694 -0.2028
 3323TIP3    H131460   3.332   5.460  14.181  0.4525  1.2663  0.6865
 3323TIP3    H231461   3.318   5.544  14.056  0.5121  3.3344  2.0304
 3324TIP3   OH231462   4.908   4.004   0.033 -0.4395  0.0303 -0.4898
 3324TIP3    H131463   4.871   4.005   0.121 -0.2944  0.5650 -0.4310
 3324TIP3    H231464   4.929   3.912   0.017  0.5853  0.0830  0.4706
 3325TIP3   OH231465   5.529   3.933  13.524  0.4097  0.2395  0.1962
 3325TIP3    H131466   5.599   3.923  13.460 -1.6331  0.7582 -2.2964
 3325TIP3    H231467   5.538   3.858  13.582  1.3529 -1.2289 -1.7379
 3326TIP3   OH231468   4.332   6.729   2.970 -0.7433  0.2989 -0.3281
 3326TIP3    H131469   4.420   6.764   2.956 -1.1539  2.5115  1.8417
 3326TIP3    H231470   4.347   6.639   2.999  0.7828  0.4652 -0.5072
 3327TIP3   OH231471   3.277   3.524   4.167 -0.8453 -0.0818  0.4501
 3327TIP3    H131472   3.223   3.502   4.243  0.0879 -2.6472  0.4754
 3327TIP3    H231473   3.271   3.448   4.110 -0.0095  1.0065 -1.1861
 3328TIP3   OH231474   5.720   0.514   5.802  0.0194 -0.1235  0.2876
 3328TIP3    H131475   5.634   0.556   5.797 -0.6579 -1.4741  0.0214
 3328TIP3    H231476   5.730   0.490   5.894  0.0637 -0.0624  0.2987
 3329TIP3   OH231477   0.116   4.367   0.744  0.4809  0.5932  0.2057
 3329TIP3    H131478   0.190   4.404   0.792  1.2782 -1.6994  0.8865
 3329TIP3    H231479   0.114   4.275   0.770 -1.3643  0.1109 -1.3806
 3330TIP3   OH231480   4.467   4.025   2.761  0.5360  0.0876 -0.3890
 3330TIP3    H131481   4.374   4.027   2.786 -0.1636  0.1325 -2.7423
 3330TIP3    H231482   4.492   3.933   2.772 -0.3389 -0.3008 -1.4681
 3331TIP3   OH231483   2.259   2.276   2.857  0.4691 -0.3000 -0.2947
 3331TIP3    H131484   2.326   2.236   2.912  0.5494 -0.9812 -0.8722
 3331TIP3    H231485   2.178   2.270   2.909  0.6745 -0.2917  0.0295
 3332TIP3   OH231486   4.616   4.120  10.808 -0.0001 -0.1348 -0.1888
 3332TIP3    H131487   4.523   4.112  10.786 -0.0617 -1.1759  0.3658
 3332TIP3    H231488   4.616   4.141  10.901  0.3098  1.3687 -0.5037
 3333TIP3   OH231489   2.277   3.610  13.828 -0.1459 -0.0034  0.1486
 3333TIP3    H131490   2.182   3.603  13.843 -0.1658  0.0301  0.0355
 3333TIP3    H231491   2.288   3.590  13.736  0.0754 -1.0811  0.4007
 3334TIP3   OH231492   6.468   0.498   3.876  0.2518 -0.1624  0.3816
 3334TIP3    H131493   6.497   0.588   3.892 -1.1901  0.3666  0.2128
 3334TIP3    H231494   6.391   0.508   3.820  1.0482 -1.6125 -1.0356
 3335TIP3   OH231495   4.094   6.119  15.016  0.1523  0.0563  0.4011
 3335TIP3    H131496   4.139   6.044  14.978 -0.0163 -0.4542  1.1931
 3335TIP3    H231497   4.010   6.085  15.047 -0.7737  0.9741 -0.9532
 3336TIP3   OH231498   1.597   4.497   0.595  0.1554 -0.3497 -0.5578
 3336TIP3    H131499   1.611   4.404   0.613  0.6980 -0.5012 -1.7352
 3336TIP3    H231500   1.658   4.518   0.526 -2.0154  0.1378 -2.4526
 3337TIP3   OH231501   2.855   4.879  13.805  0.2848  0.1241 -0.5944
 3337TIP3    H131502   2.845   4.831  13.724 -1.2423  0.4995 -0.6518
 3337TIP3    H231503   2.898   4.818  13.865  3.4472  0.5162 -2.2501
 3338TIP3   OH231504   0.792   0.784   0.691  0.2935  0.1147 -0.0901
 3338TIP3    H131505   0.823   0.694   0.682  1.1744  0.5607 -1.8766
 3338TIP3    H231506   0.802   0.823   0.604  2.2845  2.6633  1.1203
 3339TIP3   OH231507   0.378   2.758   4.684  0.0947  0.2039  0.9337
 3339TIP3    H131508   0.434   2.693   4.727 -0.9068 -0.2567  1.5649
 3339TIP3    H231509   0.433   2.837   4.680  1.7575 -0.9638 -0.9268
 3340TIP3   OH231510   3.687   2.927  14.862  0.1017 -0.3158 -0.4434
 3340TIP3    H131511   3.775   2.890  14.869  0.2616  0.1597  0.1659
 3340TIP3    H231512   3.645   2.906  14.945  0.0332  0.4483 -0.2760
 3341TIP3   OH231513   6.471   6.325   4.131 -0.8160  0.6334  0.4668
 3341TIP3    H131514   6.466   6.413   4.168 -0.9110  0.2677  1.3314
 3341TIP3    H231515   6.380   6.297   4.122 -0.9379  1.5577 -2.1491
 3342TIP3   OH231516   6.636   4.725  14.365 -0.5093  0.7461 -0.1057
 3342TIP3    H131517   6.637   4.720  14.460 -1.5727 -3.5044 -0.0991
 3342TIP3    H231518   6.728   4.722  14.340 -0.2268 -1.6471  0.9036
 3343TIP3   OH231519   4.969   6.016  15.294 -0.6329 -0.4274  0.7718
 3343TIP3    H131520   5.043   5.957  15.279 -0.4458 -0.2202  0.8655
 3343TIP3    H231521   5.002   6.079  15.359 -0.8071 -0.1840  0.6257
 3344TIP3   OH231522   1.535   5.998   2.563  0.0979  0.0213  0.1638
 3344TIP3    H131523   1.508   5.971   2.475 -0.4273  0.4035  0.2057
 3344TIP3    H231524   1.613   5.945   2.581 -0.6713 -1.1936  0.0827
 3345TIP3   OH231525   5.775   5.905  15.580 -1.0077 -0.3058  0.4281
 3345TIP3    H131526   5.818   5.945  15.504 -2.6848 -0.3511 -0.6165
 3345TIP3    H231527   5.821   5.821  15.592  0.8273  0.7363  1.0056
 3346TIP3   OH231528   1.463   1.430  11.828 -0.1587  0.3799 -0.1348
 3346TIP3    H131529   1.447   1.500  11.891 -2.1825 -1.1993  1.2461
 3346TIP3    H231530   1.499   1.358  11.880  1.2788  0.1323 -1.3992
 3347TIP3   OH231531   5.558   0.218   1.460 -0.5392 -0.8359 -0.0731
 3347TIP3    H131532   5.632   0.166   1.428 -0.3899 -0.3158 -0.5996
 3347TIP3    H231533   5.514   0.249   1.380  0.8858  1.9889  0.1123
 3348TIP3   OH231534   5.047   3.617   0.331 -0.2237  0.0342 -0.1725
 3348TIP3    H131535   5.038   3.570   0.249 -1.3462  0.4940 -0.3330
 3348TIP3    H231536   5.079   3.703   0.306 -1.8226  0.6349 -0.3107
 3349TIP3   OH231537   4.111   3.230  15.171 -0.5125  0.0671 -0.3002
 3349TIP3    H131538   4.041   3.180  15.212  0.4593 -1.4963 -0.4413
 3349TIP3    H231539   4.097   3.320  15.200 -1.7533 -0.4434  0.7900
 3350TIP3   OH231540   6.618   1.908   1.144  0.4865 -0.3072  0.5305
 3350TIP3    H131541   6.637   1.972   1.075  1.7715  0.3132  1.4192
 3350TIP3    H231542   6.534   1.870   1.119 -0.1426  1.4856 -0.2010
 3351TIP3   OH231543   2.995   0.315   2.865 -0.2184  0.4566  0.4636
 3351TIP3    H131544   3.030   0.350   2.947  0.0374 -0.2787  0.6710
 3351TIP3    H231545   2.935   0.245   2.892 -1.6785  1.5040  0.1112
 3352TIP3   OH231546   3.051   6.778  14.042 -0.0029  0.1206  0.1701
 3352TIP3    H131547   2.988   6.786  14.114 -0.3797 -0.8503 -0.0356
 3352TIP3    H231548   3.039   6.857  13.991  0.3616  0.8886  1.2397
 3353TIP3   OH231549   5.206   1.294   4.396 -0.2083  0.2088 -0.0029
 3353TIP3    H131550   5.196   1.383   4.360 -1.1198 -0.0308 -0.3828
 3353TIP3    H231551   5.268   1.251   4.337 -1.0357  0.0891 -0.8057
 3354TIP3   OH231552   4.623   4.694   5.377  0.2240  0.0560  0.6489
 3354TIP3    H131553   4.591   4.727   5.294  0.5354  0.4764  0.6950
 3354TIP3    H231554   4.683   4.761   5.409  1.5376 -0.9221  0.3351
 3355TIP3   OH231555   6.289   5.924   5.039  0.3427  0.0735 -0.6392
 3355TIP3    H131556   6.278   6.018   5.030 -1.0517  0.1414  1.2390
 3355TIP3    H231557   6.311   5.894   4.950 -1.0135  1.9244 -1.6655
 3356TIP3   OH231558   4.882   6.431   3.202 -0.7019  0.3254 -0.3440
 3356TIP3    H131559   4.801   6.389   3.173 -0.7529  0.4336 -0.3582
 3356TIP3    H231560   4.935   6.439   3.123 -0.2485 -0.6887 -0.1648
 3357TIP3   OH231561   6.306   1.290  15.067  0.0096 -0.4633  0.4096
 3357TIP3    H131562   6.230   1.306  15.011 -0.3371 -0.2012  0.9432
 3357TIP3    H231563   6.313   1.368  15.121  0.0369 -0.9178  1.0760
 3358TIP3   OH231564   6.229   3.011  12.197  0.1380  0.5612  0.1655
 3358TIP3    H131565   6.271   3.085  12.154 -1.8683  1.7661  0.1394
 3358TIP3    H231566   6.138   3.015  12.168 -0.5816 -0.4409  2.0756
 3359TIP3   OH231567   2.468   3.639  15.417  0.5110  0.8538  0.6916
 3359TIP3    H131568   2.431   3.701  15.480 -0.3205 -1.0456  2.1556
 3359TIP3    H231569   2.435   3.553  15.444 -0.0473 -0.0699 -2.4621
 3360TIP3   OH231570   5.681   0.123   3.088 -0.2150 -0.2262 -0.4455
 3360TIP3    H131571   5.772   0.117   3.059  0.2407 -1.6983  1.1211
 3360TIP3    H231572   5.683   0.192   3.155 -0.0220 -0.9234  0.2846
 3361TIP3   OH231573   5.718   5.883  14.351 -0.5349 -0.3324  0.4223
 3361TIP3    H131574   5.795   5.868  14.405  0.7097  1.7088 -0.6626
 3361TIP3    H231575   5.665   5.944  14.402 -0.9455 -0.9227  0.7129
 3362TIP3   OH231576   0.334   6.006  17.125  0.2397  0.6590  0.3336
 3362TIP3    H131577   0.423   5.972  17.122  0.4665  1.2749 -0.2806
 3362TIP3    H231578   0.289   5.951  17.189  1.4025  1.1602  1.6307
 3363TIP3   OH231579   0.328   5.179   1.914 -0.0795  0.2018  0.1591
 3363TIP3    H131580   0.301   5.234   1.988 -2.5461  0.3829 -0.7614
 3363TIP3    H231581   0.251   5.177   1.857  0.3927 -3.0293 -0.5661
 3364TIP3   OH231582   1.874   5.792  16.398  0.2232 -0.4292 -0.4371
 3364TIP3    H131583   1.935   5.864  16.383 -0.1155  0.9109  3.4109
 3364TIP3    H231584   1.791   5.824  16.361  0.1093  1.2190  1.0821
 3365TIP3   OH231585   2.451   5.689  12.589  0.4011 -0.6094  0.0089
 3365TIP3    H131586   2.522   5.727  12.641  1.2481 -0.4411 -1.2339
 3365TIP3    H231587   2.494   5.630  12.528 -0.7331 -2.0564  0.5660
 3366TIP3   OH231588   2.994   1.529  14.615  0.8281 -0.5073  0.4389
 3366TIP3    H131589   2.963   1.450  14.658 -0.7953 -0.8733 -1.2794
 3366TIP3    H231590   2.934   1.598  14.643 -0.9892 -0.9808 -1.9920
 3367TIP3   OH231591   6.038   3.699  12.876 -0.2546  0.2908  0.7463
 3367TIP3    H131592   5.960   3.752  12.892 -2.0066 -0.2087 -4.2679
 3367TIP3    H231593   6.103   3.760  12.842  0.3683  0.1767  1.6843
 3368TIP3   OH231594   1.161   5.902   4.113  0.2553 -0.3568 -0.6397
 3368TIP3    H131595   1.160   5.945   4.198  2.1115 -0.9927 -0.2521
 3368TIP3    H231596   1.158   5.809   4.133  1.2588 -0.5264 -1.2302
 3369TIP3   OH231597   0.105   2.180   3.493 -0.0464 -0.1039  0.2715
 3369TIP3    H131598   0.176   2.208   3.435  0.7237 -2.7670 -0.2264
 3369TIP3    H231599   0.139   2.195   3.582 -0.0236  1.2090  0.0592
 3370TIP3   OH231600   4.522   0.605   0.383  0.1391 -0.0478 -0.0356
 3370TIP3    H131601   4.505   0.538   0.316  0.2000  0.5889 -0.6992
 3370TIP3    H231602   4.442   0.656   0.387 -0.8121 -1.5436  2.1559
 3371TIP3   OH231603   6.514   5.931   6.354 -0.3579  0.5615 -0.2543
 3371TIP3    H131604   6.525   5.897   6.443  1.9928  0.0829 -0.6562
 3371TIP3    H231605   6.439   5.882   6.319 -0.7804  0.1340  1.1560
 3372TIP3   OH231606   1.336   3.378  15.247  0.6243 -0.4760 -0.1089
 3372TIP3    H131607   1.312   3.425  15.327 -0.3348 -2.2942  0.7473
 3372TIP3    H231608   1.405   3.431  15.208 -1.8069  2.8271 -0.4155
 3373TIP3   OH231609   1.358   5.049  13.257  0.3228  0.5035 -0.0421
 3373TIP3    H131610   1.337   5.090  13.341  0.5576 -0.8772  0.7180
 3373TIP3    H231611   1.273   5.038  13.214  0.0273 -0.1238  0.6764
 3374TIP3   OH231612   3.571   3.443   6.195  0.5221 -0.5361  0.0271
 3374TIP3    H131613   3.544   3.496   6.270 -0.7783  0.3747 -1.0321
 3374TIP3    H231614   3.524   3.360   6.205 -1.5899  0.4620 -0.9805
 3375TIP3   OH231615   4.385   1.077  12.637  0.2059 -0.3048  0.3584
 3375TIP3    H131616   4.461   1.092  12.581  0.0826 -0.5026  0.1373
 3375TIP3    H231617   4.348   0.995  12.606  0.4274 -0.6793  1.0517
 3376TIP3   OH231618   6.665   4.010  11.760 -1.0020 -0.1468  0.5862
 3376TIP3    H131619   6.693   3.923  11.788 -1.0717 -0.4882 -0.3813
 3376TIP3    H231620   6.746   4.059  11.750 -1.0265  0.4787  2.8690
 3377TIP3   OH231621   4.067   3.404   4.245 -0.1503 -0.3109  0.0047
 3377TIP3    H131622   4.162   3.415   4.259 -0.1377 -0.5186  0.0894
 3377TIP3    H231623   4.054   3.422   4.152  0.4036 -3.0532 -0.6757
 3378TIP3   OH231624   3.996   5.581   1.870  1.2100  0.6445 -0.3828
 3378TIP3    H131625   4.092   5.571   1.869  1.0937 -0.9013  0.6674
 3378TIP3    H231626   3.982   5.673   1.849  3.1623  2.1600  3.8192
 3379TIP3   OH231627   3.477   5.819  12.934 -0.0751 -0.1345  0.0957
 3379TIP3    H131628   3.384   5.798  12.927 -0.6205  2.1746 -0.3613
 3379TIP3    H231629   3.480   5.914  12.941  2.0446 -0.2922  4.3381
 3380TIP3   OH231630   1.943   5.390   0.990 -0.5729 -0.0853  0.5599
 3380TIP3    H131631   1.903   5.396   1.077 -2.0024  0.0217 -0.0788
 3380TIP3    H231632   1.993   5.309   0.992  1.5975  1.1552  2.3231
 3381TIP3   OH231633   2.603   0.794  11.151 -0.3534 -0.2661 -0.2666
 3381TIP3    H131634   2.612   0.699  11.158 -1.7905 -0.3929  0.2778
 3381TIP3    H231635   2.662   0.819  11.080  0.8364 -1.4172  0.2857
 3382TIP3   OH231636   1.782   6.305  14.982 -0.8565  0.0789  0.0194
 3382TIP3    H131637   1.725   6.330  15.056 -0.9498 -0.0400 -0.0120
 3382TIP3    H231638   1.721   6.276  14.914 -0.8374  1.1861 -0.4910
 3383TIP3   OH231639   5.814   0.493   2.594 -0.2817  0.4605  0.1614
 3383TIP3    H131640   5.889   0.479   2.536 -0.6230 -0.1072 -0.1486
 3383TIP3    H231641   5.753   0.422   2.572 -0.7377  0.6853  0.6875
 3384TIP3   OH231642   3.807   5.042   3.631 -0.2032 -0.2027 -0.4473
 3384TIP3    H131643   3.795   5.101   3.705 -1.4174  1.3134 -1.7874
 3384TIP3    H231644   3.736   4.979   3.639  0.6644 -1.0863  0.5805
 3385TIP3   OH231645   4.763   0.722   0.932 -0.1967 -0.0564  0.4137
 3385TIP3    H131646   4.700   0.698   1.000  1.0702 -0.7763  1.3556
 3385TIP3    H231647   4.713   0.778   0.873 -1.5845 -0.1839  1.4146
 3386TIP3   OH231648   5.259   5.086  11.213  0.7397 -0.2821 -0.1190
 3386TIP3    H131649   5.340   5.114  11.256  0.4755  0.6722 -0.2209
 3386TIP3    H231650   5.247   4.995  11.240  1.1602 -0.0294  0.9384
 3387TIP3   OH231651   6.277   2.664   5.431 -0.5862 -0.2055 -0.2535
 3387TIP3    H131652   6.215   2.620   5.489  0.0061  0.2931  0.7824
 3387TIP3    H231653   6.359   2.615   5.440 -0.5970 -0.3780 -1.0029
 3388TIP3   OH231654   4.418   4.143  14.407  0.1104  0.0090  0.0378
 3388TIP3    H131655   4.500   4.101  14.432  0.1608  1.0542  1.8135
 3388TIP3    H231656   4.350   4.086  14.442  0.1797  1.5900  3.1348
 3389TIP3   OH231657   1.610   1.427  12.874  0.4343  0.1643  0.2992
 3389TIP3    H131658   1.613   1.523  12.870  1.8517  0.2258  1.7544
 3389TIP3    H231659   1.528   1.407  12.920  1.0912  0.8028  1.8207
 3390TIP3   OH231660   3.708   6.559   3.643  0.2617 -0.3430  0.2147
 3390TIP3    H131661   3.747   6.628   3.696 -0.3755  0.4263 -0.2846
 3390TIP3    H231662   3.638   6.523   3.699 -0.1243  0.1686  0.0658
 3391TIP3   OH231663   2.412   4.213   2.293 -0.0025  0.2162 -0.0681
 3391TIP3    H131664   2.333   4.258   2.261  0.9981  1.9443 -0.2836
 3391TIP3    H231665   2.434   4.259   2.374 -0.7535 -2.0943  1.5357
 3392TIP3   OH231666   3.762   6.639  15.809  0.5009 -0.0487  0.6289
 3392TIP3    H131667   3.787   6.552  15.838 -0.3095 -0.4186  0.2272
 3392TIP3    H231668   3.842   6.674  15.769  0.7145 -0.7664  0.4112
 3393TIP3   OH231669   6.167   4.367   4.462  0.1607  0.0133  0.1559
 3393TIP3    H131670   6.243   4.373   4.404 -0.4701 -0.6337 -0.7756
 3393TIP3    H231671   6.151   4.273   4.471  0.4848  0.0919  1.7259
 3394TIP3   OH231672   4.157   6.013   1.920 -0.1211  0.6338 -0.2474
 3394TIP3    H131673   4.193   6.049   1.839  2.0658  2.0599  1.2587
 3394TIP3    H231674   4.231   5.966   1.960 -0.9565  0.5139  1.2157
 3395TIP3   OH231675   1.144   5.524  11.267  0.0768 -0.6389  0.1559
 3395TIP3    H131676   1.164   5.501  11.357  2.5937  0.7868  0.0654
 3395TIP3    H231677   1.227   5.513  11.220 -0.7143  0.3492 -1.6025
 3396TIP3   OH231678   4.365   0.659  13.425 -0.1301  0.2486 -0.8966
 3396TIP3    H131679   4.380   0.672  13.519  0.3659  0.6488 -1.0233
 3396TIP3    H231680   4.314   0.578  13.419  2.0019 -1.1960 -0.4257
 3397TIP3   OH231681   2.413   2.406   1.192 -0.0030 -0.5527 -0.1324
 3397TIP3    H131682   2.318   2.392   1.191 -0.4963  2.2507 -0.7291
 3397TIP3    H231683   2.425   2.488   1.240  2.2851 -1.5388  1.1407
 3398TIP3   OH231684   5.112   2.709  11.023 -0.1896 -0.0847  0.0663
 3398TIP3    H131685   5.087   2.722  10.931 -0.5553  0.7186  0.2670
 3398TIP3    H231686   5.193   2.758  11.033 -0.2352 -0.0387  0.2102
 3399TIP3   OH231687   1.331   2.076  11.121 -0.7692  0.3086  0.5496
 3399TIP3    H131688   1.388   2.129  11.176 -1.3745  0.3740  1.1213
 3399TIP3    H231689   1.314   1.997  11.172 -0.6539 -0.0173  0.0986
 3400TIP3   OH231690   6.673   1.039  14.525 -0.1432  0.0911  0.0310
 3400TIP3    H131691   6.747   1.099  14.535 -1.0513  1.1488  0.5870
 3400TIP3    H231692   6.680   1.008  14.435  1.1383 -0.0479  0.1641
 3401TIP3   OH231693   4.065   5.080   1.518 -0.0400 -0.4310 -0.5831
 3401TIP3    H131694   4.062   5.081   1.614 -1.7736  0.5868 -0.5967
 3401TIP3    H231695   4.149   5.121   1.496 -1.0134  2.4737  0.5513
 3402TIP3   OH231696   5.723   5.037   5.065 -0.5203 -0.2180  0.0289
 3402TIP3    H131697   5.752   5.116   5.020  0.4663  0.2289  1.3978
 3402TIP3    H231698   5.729   4.968   4.999  2.4592  0.0977 -0.1683
 3403TIP3   OH231699   4.927   4.056  16.192 -0.2027  0.5857 -0.4623
 3403TIP3    H131700   4.869   3.982  16.211 -0.9513  1.0576 -0.8630
 3403TIP3    H231701   4.910   4.118  16.262  0.4871  0.3489 -0.0804
 3404TIP3   OH231702   4.915   2.990   2.045 -0.6521  0.7903 -0.2875
 3404TIP3    H131703   4.826   2.977   2.013  0.6444 -0.5661 -3.8283
 3404TIP3    H231704   4.969   2.936   1.989  2.2631 -0.6006  3.4467
 3405TIP3   OH231705   0.766   5.442   1.048  0.3434 -0.0310  0.1800
 3405TIP3    H131706   0.711   5.447   1.126 -0.8328  1.5677 -0.6653
 3405TIP3    H231707   0.710   5.400   0.982  0.7480  0.0804 -0.2424
 3406TIP3   OH231708   5.252   5.294   5.118 -0.1201  0.6121 -0.3692
 3406TIP3    H131709   5.270   5.203   5.141  1.5084  0.4500 -2.0077
 3406TIP3    H231710   5.339   5.335   5.112 -0.4749  1.2131 -3.5027
 3407TIP3   OH231711   4.113   5.088   5.083  0.1291 -0.0551  0.5315
 3407TIP3    H131712   4.065   5.023   5.135 -0.8432  0.3152  0.1351
 3407TIP3    H231713   4.194   5.044   5.057  0.7654 -0.1692  2.5407
 3408TIP3   OH231714   4.270   0.381  13.414 -0.1724 -0.3284  0.0681
 3408TIP3    H131715   4.260   0.343  13.326  2.1453 -0.1975 -0.3295
 3408TIP3    H231716   4.186   0.365  13.457 -0.7665 -2.0087 -1.5680
 3409TIP3   OH231717   2.896   0.739   5.003  0.5317  0.9432  0.4011
 3409TIP3    H131718   2.933   0.733   5.091  1.5639  1.7935  0.0390
 3409TIP3    H231719   2.865   0.829   4.995 -0.7837  0.5139  0.3446
 3410TIP3   OH231720   0.338   0.222   2.688  0.4216  0.1812 -0.6696
 3410TIP3    H131721   0.430   0.234   2.665 -0.3154  2.2252 -2.9619
 3410TIP3    H231722   0.292   0.293   2.642 -2.2591 -0.5014  0.7478
 3411TIP3   OH231723   2.882   6.474  14.653 -0.1193 -0.8148 -0.6684
 3411TIP3    H131724   2.900   6.554  14.604 -0.1723 -0.6269 -0.3861
 3411TIP3    H231725   2.871   6.504  14.744 -1.4939 -0.9643 -0.7684
 3412TIP3   OH231726   3.506   5.008  15.618 -0.2451 -0.5684  0.1850
 3412TIP3    H131727   3.458   4.927  15.601 -0.1667 -0.4348 -0.7335
 3412TIP3    H231728   3.590   4.980  15.653  0.1287 -0.9474 -0.9528
 3413TIP3   OH231729   2.019   5.912   6.231  0.4564  0.3072 -0.9759
 3413TIP3    H131730   1.960   5.892   6.304  0.9219  1.2885 -0.2980
 3413TIP3    H231731   2.046   6.003   6.248  2.5848 -0.2866 -0.9575
 3414TIP3   OH231732   3.033   1.047  17.171 -0.2254 -0.4566 -0.7974
 3414TIP3    H131733   2.953   1.030  17.221 -0.7056  0.7285 -1.1330
 3414TIP3    H231734   3.098   0.989  17.210 -0.9063 -0.4653  0.3742
 3415TIP3   OH231735   1.930   0.291   4.115  1.0304 -0.9529  0.1137
 3415TIP3    H131736   2.008   0.309   4.168  1.2760  0.5078 -0.6646
 3415TIP3    H231737   1.860   0.276   4.178  1.5473 -0.3751  0.8437
 3416TIP3   OH231738   4.538   2.690   0.834 -0.7169  0.5377  0.2003
 3416TIP3    H131739   4.534   2.700   0.929  0.1870 -0.3404  0.3511
 3416TIP3    H231740   4.462   2.635   0.813 -1.9865  2.2396  0.1567
 3417TIP3   OH231741   6.299   3.111   1.258  0.3368  0.0925  0.2594
 3417TIP3    H131742   6.388   3.076   1.266  0.0536 -0.5546  0.6982
 3417TIP3    H231743   6.311   3.205   1.242  1.1251 -0.2461 -1.3598
 3418TIP3   OH231744   5.775   5.807   4.466 -0.2469  0.3755  0.4872
 3418TIP3    H131745   5.788   5.871   4.536  0.5714  1.6116 -0.7465
 3418TIP3    H231746   5.857   5.757   4.463 -0.3579  0.1913  0.5565
 3419TIP3   OH231747   6.235   4.027   4.135  0.4313  0.2478  0.5934
 3419TIP3    H131748   6.255   4.027   4.041 -0.3440  0.9864  0.4187
 3419TIP3    H231749   6.310   3.983   4.175  1.5276  1.3098 -0.2245
 3420TIP3   OH231750   1.715   0.575   5.869  0.6652 -0.1560 -0.5695
 3420TIP3    H131751   1.684   0.627   5.795 -0.8616  0.6373  0.5645
 3420TIP3    H231752   1.744   0.492   5.830 -0.3005  0.1579 -2.0266
 3421TIP3   OH231753   6.691   6.381   3.439 -0.2405  0.1507  0.1160
 3421TIP3    H131754   6.732   6.456   3.482 -0.2547  0.3486 -0.2060
 3421TIP3    H231755   6.597   6.395   3.450 -0.2312 -0.0969  0.5127
 3422TIP3   OH231756   1.286   6.661  13.936  0.7139  0.2088  0.1432
 3422TIP3    H131757   1.328   6.648  13.851 -0.8278 -1.0207 -0.4714
 3422TIP3    H231758   1.317   6.747  13.965 -1.1301  2.1788 -3.1432
 3423TIP3   OH231759   5.238   3.833   4.531 -0.8429 -0.1344  0.6559
 3423TIP3    H131760   5.261   3.856   4.441  0.4046  0.1769  1.0370
 3423TIP3    H231761   5.150   3.796   4.524 -0.6745 -0.3353 -0.7229
 3424TIP3   OH231762   2.202   2.328  12.095 -0.1462  0.0334  0.0408
 3424TIP3    H131763   2.200   2.423  12.085 -0.3881 -0.0545 -0.8293
 3424TIP3    H231764   2.223   2.295  12.008 -0.4951 -0.7258  0.2375
 3425TIP3   OH231765   5.125   0.779   3.007 -0.3368  0.0428  0.1046
 3425TIP3    H131766   5.218   0.789   2.989 -0.5014  0.2800 -0.6735
 3425TIP3    H231767   5.108   0.836   3.082  0.3468 -0.8311  0.9439
 3426TIP3   OH231768   0.883   1.463   2.610 -0.4944 -0.2664  0.2710
 3426TIP3    H131769   0.859   1.463   2.702 -1.8100 -0.4749 -0.0448
 3426TIP3    H231770   0.876   1.371   2.583 -1.1685 -0.0666 -0.2745
 3427TIP3   OH231771   2.674   3.387  13.171  0.5038  0.7391 -0.1465
 3427TIP3    H131772   2.746   3.420  13.117  0.9447  0.8442  0.4925
 3427TIP3    H231773   2.708   3.390  13.261 -0.2861  0.7626  0.1608
 3428TIP3   OH231774   5.575   0.230   4.253  0.1999 -0.0980  0.1847
 3428TIP3    H131775   5.586   0.301   4.317 -2.4848  2.3603 -1.8795
 3428TIP3    H231776   5.620   0.261   4.175  0.2156 -1.3540 -0.3222
 3429TIP3   OH231777   2.237   0.100  14.977 -0.5793  1.1439  0.4607
 3429TIP3    H131778   2.163   0.079  14.921  0.3615  0.9024 -0.7351
 3429TIP3    H231779   2.254   0.020  15.026 -0.4408  0.8491 -0.0576
 3430TIP3   OH231780   3.009   5.256   1.090  0.1269  1.1846  0.5382
 3430TIP3    H131781   3.098   5.290   1.099 -0.0290  1.2560  2.2912
 3430TIP3    H231782   3.013   5.167   1.125 -0.5259  1.2683  0.8518
 3431TIP3   OH231783   4.629   6.385   2.006 -0.4129 -0.1640  0.2608
 3431TIP3    H131784   4.671   6.314   2.054  0.9979  0.7043  0.3427
 3431TIP3    H231785   4.620   6.455   2.071  1.8216  1.1487 -0.7590
 3432TIP3   OH231786   6.310   0.609  16.721  0.0356  0.3247  0.5393
 3432TIP3    H131787   6.406   0.602  16.726  0.2721 -0.4552 -2.6982
 3432TIP3    H231788   6.280   0.519  16.734 -0.3157  0.5832  1.6337
 3433TIP3   OH231789   2.566   3.521  11.859  0.2237  0.0270  0.0957
 3433TIP3    H131790   2.498   3.461  11.829  0.4157 -0.7885  1.2124
 3433TIP3    H231791   2.590   3.488  11.946  1.1329  1.0643  0.2599
 3434TIP3   OH231792   2.520   4.584   0.167  0.0594  0.2875  0.2755
 3434TIP3    H131793   2.447   4.543   0.214  0.3448 -0.2688  0.2497
 3434TIP3    H231794   2.541   4.662   0.217 -1.6886  1.4289 -0.6662
 3435TIP3   OH231795   3.532   4.618  11.611 -0.4074  0.0668  0.1939
 3435TIP3    H131796   3.564   4.571  11.534 -1.0964  0.6012 -0.4332
 3435TIP3    H231797   3.538   4.555  11.682  0.6976 -0.2842 -0.1927
 3436TIP3   OH231798   4.392   4.155   2.197 -0.0800 -0.5325 -0.1904
 3436TIP3    H131799   4.381   4.231   2.255 -1.0530 -0.2368 -0.7406
 3436TIP3    H231800   4.453   4.186   2.130  1.4048 -1.0160  0.8769
 3437TIP3   OH231801   5.434   6.745   1.664  0.0260  0.4989 -0.4759
 3437TIP3    H131802   5.387   6.711   1.588 -0.7457 -2.2528  1.0939
 3437TIP3    H231803   5.380   6.718   1.739  1.9272  1.0730  1.1833
 3438TIP3   OH231804   6.630   6.219   1.156  0.2727 -0.0668 -0.0700
 3438TIP3    H131805   6.568   6.256   1.219  1.3678  0.5673  0.6841
 3438TIP3    H231806   6.607   6.259   1.073  1.1109  1.9990  0.6341
 3439TIP3   OH231807   4.455   3.188  16.645  0.1530 -0.1223  0.2896
 3439TIP3    H131808   4.422   3.175  16.556 -0.6952  0.2225  0.5387
 3439TIP3    H231809   4.435   3.106  16.690  0.2727 -0.1742  0.2460
 3440TIP3   OH231810   0.756   4.426  13.561  0.1694 -0.0701 -0.4163
 3440TIP3    H131811   0.708   4.425  13.478 -3.1927  1.9925  1.2948
 3440TIP3    H231812   0.701   4.375  13.621  1.0101  0.8692  1.2196
 3441TIP3   OH231813   1.209   1.570  15.501 -0.0615  0.7548 -0.3258
 3441TIP3    H131814   1.220   1.651  15.552  0.8001 -0.3065  1.2508
 3441TIP3    H231815   1.298   1.539  15.486 -0.3678 -1.3173  1.5481
 3442TIP3   OH231816   4.037   1.480  12.179  0.2477  0.1134 -0.2710
 3442TIP3    H131817   3.965   1.432  12.138 -0.4300  0.7306  0.1640
 3442TIP3    H231818   4.095   1.504  12.107 -0.2496  0.0532 -0.6961
 3443TIP3   OH231819   6.485   6.749  16.369  0.2104  0.2029 -0.4685
 3443TIP3    H131820   6.474   6.654  16.372 -1.2655  0.3322  3.0307
 3443TIP3    H231821   6.413   6.780  16.314 -0.8516 -0.5931  0.4361
 3444TIP3   OH231822   5.989   3.691   1.927 -0.4181 -0.5072  0.2187
 3444TIP3    H131823   6.084   3.701   1.925 -0.5606  1.0160 -0.4791
 3444TIP3    H231824   5.961   3.709   1.838 -1.2902 -2.1953  0.1084
 3445TIP3   OH231825   1.065   4.143   0.310  0.5219  0.3640 -0.1879
 3445TIP3    H131826   1.008   4.194   0.366 -0.6201 -0.5998 -0.4462
 3445TIP3    H231827   1.067   4.056   0.349  2.2714  0.4900  0.1248
 3446TIP3   OH231828   4.542   5.672   3.148  0.5277 -0.1398 -0.3333
 3446TIP3    H131829   4.590   5.754   3.139 -0.5081  0.6764  1.1947
 3446TIP3    H231830   4.598   5.617   3.203  1.6292 -0.8591 -2.0630
 3447TIP3   OH231831   2.295   4.373   5.871  0.4925  0.6803 -0.7125
 3447TIP3    H131832   2.220   4.353   5.927  0.7104  0.0760 -0.6340
 3447TIP3    H231833   2.256   4.403   5.789  0.1391 -0.9040 -1.1526
 3448TIP3   OH231834   3.380   6.762   1.767  0.2720 -0.6615  0.3112
 3448TIP3    H131835   3.314   6.820   1.728 -0.7212 -1.3510  0.9195
 3448TIP3    H231836   3.376   6.683   1.714  0.9180 -0.5510  0.0964
 3449TIP3   OH231837   6.513   4.502   3.153 -0.7493  0.0989 -0.8660
 3449TIP3    H131838   6.593   4.483   3.104  0.3638 -1.2063  1.2862
 3449TIP3    H231839   6.544   4.521   3.242 -2.8045  0.1214 -0.1077
 3450TIP3   OH231840   4.301   1.981  10.599 -0.2549  0.4933 -0.6271
 3450TIP3    H131841   4.361   2.046  10.637 -1.0460 -0.2128  2.0433
 3450TIP3    H231842   4.220   2.029  10.585 -0.3691  0.4702 -0.0913
 3451TIP3   OH231843   1.226   6.777  12.236  0.0923  0.0086 -0.3962
 3451TIP3    H131844   1.309   6.790  12.190  0.1594  1.1778  0.0387
 3451TIP3    H231845   1.167   6.740  12.169  0.2461  1.4839 -1.3830
 3452TIP3   OH231846   2.925   1.005  13.561  0.2445  0.0133  0.2972
 3452TIP3    H131847   3.009   1.045  13.585  1.1542 -1.4983 -0.2726
 3452TIP3    H231848   2.910   1.032  13.470  1.1987 -1.4382 -0.3175
 3453TIP3   OH231849   2.174   2.618  12.012 -0.3184  0.2888 -0.0362
 3453TIP3    H131850   2.093   2.608  11.962 -0.3692  0.1383  0.0736
 3453TIP3    H231851   2.179   2.711  12.033 -1.2812  0.0550  1.3173
 3454TIP3   OH231852   1.368   1.008  11.172  0.2294  0.1372  0.4235
 3454TIP3    H131853   1.276   1.000  11.150  0.0888  1.3505  0.4945
 3454TIP3    H231854   1.389   0.927  11.219 -0.4781 -0.6760 -0.6360
 3455TIP3   OH231855   4.368   2.954  15.886 -0.2337 -0.2382 -0.3713
 3455TIP3    H131856   4.431   3.015  15.925  0.8392 -1.9925  0.8132
 3455TIP3    H231857   4.310   2.930  15.958  0.3458 -1.7825 -0.3831
 3456TIP3   OH231858   6.117   5.791   3.719 -0.1514  0.1651  0.3696
 3456TIP3    H131859   6.152   5.829   3.800 -1.3197  1.6306  0.2310
 3456TIP3    H231860   6.195   5.776   3.664  0.4518  1.7289  0.7320
 3457TIP3   OH231861   2.369   5.136  16.037 -0.0900 -0.2053  0.3731
 3457TIP3    H131862   2.300   5.201  16.020 -0.4546 -0.8881 -0.9007
 3457TIP3    H231863   2.356   5.069  15.970 -0.2503 -2.0569  2.1593
 3458TIP3   OH231864   6.668   2.098  17.212 -0.1153 -0.1424 -0.2030
 3458TIP3    H131865   6.628   2.032  17.270 -0.4498  1.4476  1.4857
 3458TIP3    H231866   6.672   2.177  17.266 -0.3491  1.4204 -2.3564
 3459TIP3   OH231867   4.336   1.822  16.986  0.4799  0.3287  0.5727
 3459TIP3    H131868   4.332   1.855  17.076  0.0177  3.0760 -0.3701
 3459TIP3    H231869   4.379   1.892  16.937 -0.4332 -0.5539 -1.5777
 3460TIP3   OH231870   4.929   1.669   4.912  0.0018  0.2788 -0.3397
 3460TIP3    H131871   5.006   1.673   4.856 -1.1868  0.6346 -2.0050
 3460TIP3    H231872   4.931   1.751   4.962  1.2075 -0.1662  0.3831
 3461TIP3   OH231873   3.466   1.405   0.135  0.1378 -0.5946 -0.3134
 3461TIP3    H131874   3.550   1.367   0.164 -0.2095 -1.4344 -0.3766
 3461TIP3    H231875   3.455   1.482   0.190  0.7709 -0.6900 -0.0350
 3462TIP3   OH231876   2.270   5.781   5.544  0.3648  0.1361  0.4521
 3462TIP3    H131877   2.184   5.761   5.508  0.0785  0.8150  0.7389
 3462TIP3    H231878   2.255   5.854   5.604  1.0039 -0.3062  1.1652
 3463TIP3   OH231879   5.989   0.157  12.672  0.1440 -0.3338 -0.2084
 3463TIP3    H131880   5.977   0.240  12.718  0.8527 -0.8941  1.0375
 3463TIP3    H231881   5.919   0.156  12.607  1.9782  2.7122 -2.5312
 3464TIP3   OH231882   0.714   6.236   3.276 -0.2487  0.2213 -0.6372
 3464TIP3    H131883   0.641   6.175   3.292  1.2369 -1.2851  0.8712
 3464TIP3    H231884   0.680   6.321   3.303 -1.2181 -0.5798  0.8369
 3465TIP3   OH231885   2.835   5.188   4.005  0.2687 -0.2201  0.2180
 3465TIP3    H131886   2.753   5.140   4.018  0.9238 -1.0943  1.2885
 3465TIP3    H231887   2.900   5.139   4.056  1.3170  0.8558 -0.0425
 3466TIP3   OH231888   3.926   4.868   0.775  0.3399  0.0356 -0.1846
 3466TIP3    H131889   3.897   4.898   0.861  1.2150 -0.5398  0.3258
 3466TIP3    H231890   3.972   4.786   0.792 -0.6472 -0.8147 -1.3714
 3467TIP3   OH231891   1.591   1.075  16.328  0.4058  0.0525  0.2207
 3467TIP3    H131892   1.584   0.986  16.294 -1.2881 -0.1153  0.8955
 3467TIP3    H231893   1.500   1.105  16.335  0.9564  2.7716 -2.3300
 3468TIP3   OH231894   5.901   6.532  10.869 -0.2442  0.2847  0.5747
 3468TIP3    H131895   5.922   6.548  10.777 -0.6107 -0.5535  0.3419
 3468TIP3    H231896   5.883   6.438  10.874 -4.0092  0.8620  0.7450
 3469TIP3   OH231897   0.946   4.477   5.349 -0.7487  0.5336  0.2978
 3469TIP3    H131898   0.939   4.389   5.312 -0.5378  1.0202 -0.9320
 3469TIP3    H231899   1.025   4.475   5.402 -0.9965 -0.1417  0.6625
 3470TIP3   OH231900   1.338   3.621   0.274  0.1300  0.6420 -0.9365
 3470TIP3    H131901   1.257   3.611   0.224  0.0204  2.3348 -1.1383
 3470TIP3    H231902   1.335   3.710   0.308  1.4762  0.4145 -0.1446
 3471TIP3   OH231903   5.520   1.581   5.493 -0.7515  0.1620  0.3745
 3471TIP3    H131904   5.530   1.545   5.405  0.7278 -1.8760  1.3026
 3471TIP3    H231905   5.442   1.636   5.487 -0.0523  1.0342 -2.4722
 3472TIP3   OH231906   5.189   4.161   6.332  0.0072  0.0235 -0.0500
 3472TIP3    H131907   5.161   4.226   6.397 -1.1964 -1.5025  1.0421
 3472TIP3    H231908   5.266   4.199   6.291  0.3514  1.3928  1.7537
 3473TIP3   OH231909   4.757   2.047  11.433  1.0084  0.2851 -0.2440
 3473TIP3    H131910   4.822   2.016  11.495  0.0228 -2.9954 -0.6751
 3473TIP3    H231911   4.696   2.098  11.485  0.5128 -1.9142  1.4493
 3474TIP3   OH231912   0.928   2.539   0.502  0.2890  0.3330  0.0701
 3474TIP3    H131913   0.871   2.476   0.458 -1.1068 -0.6005  2.9555
 3474TIP3    H231914   0.968   2.589   0.431 -2.6486 -0.2376 -2.1957
 3475TIP3   OH231915   0.602   0.357   0.721  0.3597  0.4007 -0.3749
 3475TIP3    H131916   0.507   0.349   0.732  0.2098  1.2795 -0.8802
 3475TIP3    H231917   0.636   0.270   0.741 -0.6470 -0.2193 -1.2331
 3476TIP3   OH231918   1.764   3.639   3.600  0.7968  0.8256 -0.1360
 3476TIP3    H131919   1.733   3.615   3.688  1.5763 -0.0276 -0.0750
 3476TIP3    H231920   1.835   3.701   3.615 -0.1709  1.9925 -0.2407
 3477TIP3   OH231921   2.162   3.735   1.702 -0.4133 -0.1801  0.5135
 3477TIP3    H131922   2.254   3.730   1.727  0.2982 -1.4537 -1.9845
 3477TIP3    H231923   2.134   3.644   1.694 -1.6017  0.1818  0.2597
 3478TIP3   OH231924   1.625   4.604  16.430 -0.2733 -0.2139  0.1803
 3478TIP3    H131925   1.700   4.604  16.488 -0.1337 -0.2658  0.0008
 3478TIP3    H231926   1.618   4.514  16.399 -0.1941 -0.1335 -0.0766
 3479TIP3   OH231927   3.885   3.872   4.107  0.1569 -0.2075  0.5101
 3479TIP3    H131928   3.970   3.870   4.151  0.6892 -4.3004 -0.2349
 3479TIP3    H231929   3.823   3.838   4.172 -0.6756  1.3115  0.5574
 3480TIP3   OH231930   3.711   2.421   2.792  0.7219 -0.1461  0.1387
 3480TIP3    H131931   3.702   2.379   2.878  2.1631 -3.3048 -1.0851
 3480TIP3    H231932   3.804   2.443   2.786  0.2754  1.8450  0.0945
 3481TIP3   OH231933   0.503   5.037   0.810  0.2524  0.6624 -0.0052
 3481TIP3    H131934   0.479   5.089   0.734 -1.1261 -1.0023 -0.7794
 3481TIP3    H231935   0.428   5.044   0.869  0.7366  0.8349  0.6095
 3482TIP3   OH231936   6.529   0.054   1.819  0.3113  0.3450  0.0780
 3482TIP3    H131937   6.495  -0.030   1.790  1.2144  0.6474 -2.0318
 3482TIP3    H231938   6.559   0.038   1.909 -1.0451 -1.1172  0.3124
 3483TIP3   OH231939   1.920   3.079  11.693 -0.2678 -0.5078  0.1202
 3483TIP3    H131940   1.915   3.174  11.686  1.1520 -0.3693  0.6543
 3483TIP3    H231941   1.980   3.053  11.623  0.0343 -0.9153  0.5234
 3484TIP3   OH231942   5.737   4.351  12.111  0.2037  0.0937  0.1617
 3484TIP3    H131943   5.687   4.294  12.053 -2.7596  2.5242  0.0898
 3484TIP3    H231944   5.685   4.355  12.192  2.0008  0.2214  1.3823
 3485TIP3   OH231945   3.810   5.168  12.951 -0.1789 -0.1786 -0.3991
 3485TIP3    H131946   3.822   5.082  12.991  0.1013 -1.0281 -2.2171
 3485TIP3    H231947   3.857   5.228  13.009  0.0470 -1.3165  0.6356
 3486TIP3   OH231948   2.688   0.178   5.308  0.1725  0.3456  0.5110
 3486TIP3    H131949   2.737   0.191   5.390  1.7694 -1.1824 -0.1353
 3486TIP3    H231950   2.728   0.239   5.246 -0.0420  0.4497  0.4740
 3487TIP3   OH231951   4.722   3.451  11.067  0.2491  0.0817 -0.1552
 3487TIP3    H131952   4.786   3.457  10.996 -1.0996 -0.8800 -1.4970
 3487TIP3    H231953   4.640   3.428  11.024 -1.0010  1.1703  1.5323
 3488TIP3   OH231954   5.439   2.830   0.595 -0.9003  0.9356  0.1839
 3488TIP3    H131955   5.398   2.869   0.672 -1.5456 -0.1255  0.4135
 3488TIP3    H231956   5.469   2.904   0.542 -0.2409  1.6705  1.5554
 3489TIP3   OH231957   4.059   5.637   0.987 -0.3674  0.3189  0.4426
 3489TIP3    H131958   4.018   5.613   1.070  0.2255  1.7667  1.1746
 3489TIP3    H231959   4.152   5.618   0.999 -0.1520  1.3176  0.4274
 3490TIP3   OH231960   6.355   1.359   1.468  1.0094  0.5560 -0.2854
 3490TIP3    H131961   6.439   1.324   1.497  2.0394  2.2761 -1.0130
 3490TIP3    H231962   6.335   1.430   1.529 -0.6186 -0.6616  0.6750
 3491TIP3   OH231963   0.532   3.553   4.302  0.1527  0.1623  0.3933
 3491TIP3    H131964   0.540   3.649   4.303  0.2876  0.2078 -1.7470
 3491TIP3    H231965   0.445   3.536   4.266  1.1873 -0.4800 -2.0005
 3492TIP3   OH231966   2.592   0.306   2.942  0.1153 -0.5429 -0.1519
 3492TIP3    H131967   2.570   0.391   2.903 -0.0198 -0.9755 -1.0377
 3492TIP3    H231968   2.656   0.327   3.010 -2.0954  0.6047  1.6792
 3493TIP3   OH231969   1.865   0.933  14.468  1.0432  0.2354 -0.1313
 3493TIP3    H131970   1.856   0.883  14.387  0.3913  0.1553 -0.0165
 3493TIP3    H231971   1.960   0.939  14.482  1.1451 -0.4006 -0.4921
 3494TIP3   OH231972   5.995   1.012   5.458 -0.0865 -0.0685  0.2557
 3494TIP3    H131973   6.087   1.009   5.430 -0.3547 -0.3340 -0.6471
 3494TIP3    H231974   5.993   0.961   5.539  0.8076  1.1202  1.0445
 3495TIP3   OH231975   4.463   3.668   3.284 -0.1930 -0.4163 -0.1459
 3495TIP3    H131976   4.384   3.655   3.232 -1.1185  1.9041  0.5642
 3495TIP3    H231977   4.532   3.688   3.221 -0.1287 -2.3793 -0.7640
 3496TIP3   OH231978   1.278   3.369   5.611 -0.0570  0.0031  0.0685
 3496TIP3    H131979   1.226   3.447   5.629 -1.7191 -0.6793 -1.4085
 3496TIP3    H231980   1.292   3.371   5.516 -1.2801 -2.1130 -0.2295
 3497TIP3   OH231981   3.515   2.921   1.953  0.1816  0.4150  0.5755
 3497TIP3    H131982   3.559   2.975   2.018 -0.6275  0.3588  1.1770
 3497TIP3    H231983   3.526   2.831   1.984  0.6076  0.3059  0.1316
 3498TIP3   OH231984   0.150   2.844  14.127 -0.4817  0.2493 -0.2952
 3498TIP3    H131985   0.171   2.892  14.207  0.8462 -1.1273  0.2248
 3498TIP3    H231986   0.186   2.897  14.056  2.2867 -0.5924  0.3662
 3499TIP3   OH231987   0.293   1.316  13.148 -0.2990 -0.1237  0.7969
 3499TIP3    H131988   0.277   1.243  13.208 -0.8753 -0.4423  0.2643
 3499TIP3    H231989   0.263   1.284  13.063 -0.1013  0.5605  0.4631
 3500TIP3   OH231990   5.818   5.961   5.985  0.0703 -0.4333  1.1194
 3500TIP3    H131991   5.851   5.893   6.044  0.6483  0.4666  1.8473
 3500TIP3    H231992   5.893   6.018   5.969  0.2407 -1.2667 -1.4129
 3501TIP3   OH231993   6.359   4.850   4.238 -0.1981  0.1802  0.2500
 3501TIP3    H131994   6.355   4.803   4.321 -0.6327 -1.0796 -0.4475
 3501TIP3    H231995   6.420   4.800   4.184 -0.6862  0.3811 -0.5204
 3502TIP3   OH231996   2.514   0.055  13.862 -0.3038  0.4270 -0.8068
 3502TIP3    H131997   2.530   0.132  13.807  1.2298 -0.1542 -1.2138
 3502TIP3    H231998   2.569   0.069  13.939 -0.2010 -0.1411 -0.7759
 3503TIP3   OH231999   3.015   3.493   2.715  0.1296 -0.4556  0.0619
 3503TIP3    H132000   3.100   3.528   2.744  0.5719 -0.7132 -0.8612
 3503TIP3    H232001   2.962   3.571   2.698 -0.2704 -0.2956  1.8309
 3504TIP3   OH232002   2.500   2.278   2.361 -0.3735  0.4292 -0.0828
 3504TIP3    H132003   2.515   2.184   2.354 -2.3993  0.0528  0.1398
 3504TIP3    H232004   2.537   2.315   2.281 -1.0545 -0.7761 -0.9803
 3505TIP3   OH232005   2.923   5.933  11.164 -0.1817  0.0919 -0.5933
 3505TIP3    H132006   2.848   5.908  11.217  0.4176  0.8513  0.6655
 3505TIP3    H232007   2.955   6.014  11.204 -0.4328  1.4020 -2.8706
 3506TIP3   OH232008   3.623   4.930  15.323 -0.1179 -0.4456 -0.0701
 3506TIP3    H132009   3.606   5.024  15.332  1.8015 -0.0876  0.2579
 3506TIP3    H232010   3.540   4.893  15.293 -1.1245  1.2373  0.5332
 3507TIP3   OH232011   0.040   5.887   4.228 -0.3782  0.5663  0.1921
 3507TIP3    H132012   0.071   5.934   4.306 -0.3600  1.3705 -0.2965
 3507TIP3    H232013   0.046   5.951   4.157 -0.1339 -0.2425 -0.5286
 3508TIP3   OH232014   1.149   6.116   3.702 -0.3148 -0.0430  0.4990
 3508TIP3    H132015   1.221   6.178   3.693  0.1863 -0.3672  1.9049
 3508TIP3    H232016   1.084   6.145   3.638 -0.2463  2.1354  1.3267
 3509TIP3   OH232017   5.249   5.991  16.574  0.0272  0.6793 -0.3882
 3509TIP3    H132018   5.242   6.052  16.647  0.0593 -1.0372  1.1208
 3509TIP3    H232019   5.257   6.047  16.497 -0.1276  2.5603  0.8881
 3510TIP3   OH232020   5.073   3.948  12.681  0.0009  0.0915 -0.5510
 3510TIP3    H132021   5.019   3.963  12.759  0.7753  0.7456 -0.1251
 3510TIP3    H232022   5.162   3.942  12.715  0.1561 -1.7401 -1.1430
 3511TIP3   OH232023   4.808   2.880   2.485 -0.2915 -0.1799 -0.2234
 3511TIP3    H132024   4.809   2.945   2.555  1.3168 -1.9167  1.4812
 3511TIP3    H232025   4.831   2.929   2.406 -0.6856  1.5605  0.6954
 3512TIP3   OH232026   4.491   3.911   6.872  0.1345 -0.2674  0.0417
 3512TIP3    H132027   4.475   3.981   6.936 -1.1544 -0.4733 -0.0293
 3512TIP3    H232028   4.491   3.956   6.787 -1.0302 -0.3884 -0.0306
 3513TIP3   OH232029   6.171   2.580  16.674 -0.0689  0.0471  0.1536
 3513TIP3    H132030   6.238   2.633  16.630 -0.0219 -0.3111 -0.2130
 3513TIP3    H232031   6.161   2.503  16.618 -1.5546  0.6013 -0.3837
 3514TIP3   OH232032   4.732   0.193  15.151 -0.5890 -0.0830 -0.1397
 3514TIP3    H132033   4.642   0.224  15.153 -1.0266 -1.2714  2.9949
 3514TIP3    H232034   4.784   0.269  15.176 -0.7495  0.4045 -1.2258
 3515TIP3   OH232035   3.375   5.124  14.132 -0.1181  0.6022  0.6321
 3515TIP3    H132036   3.459   5.147  14.092  0.2916  0.0974  1.1983
 3515TIP3    H232037   3.355   5.037  14.100 -0.1710  0.5113  0.9067
 3516TIP3   OH232038   3.784   2.149   5.058  0.2900  0.5785 -0.1533
 3516TIP3    H132039   3.831   2.098   4.992 -0.2648 -0.9246  0.5625
 3516TIP3    H232040   3.840   2.145   5.136  0.3446  1.2607 -0.1561
 3517TIP3   OH232041   4.004   2.234  16.603  0.1723  0.0037  0.0516
 3517TIP3    H132042   3.999   2.215  16.509 -0.6731  1.2644 -0.1885
 3517TIP3    H232043   3.990   2.329  16.608  0.2741 -0.0444  1.4564
 3518TIP3   OH232044   2.855   4.234  14.772 -0.2786 -0.1009  0.7167
 3518TIP3    H132045   2.882   4.181  14.848  1.0426 -2.2094 -1.0922
 3518TIP3    H232046   2.923   4.301  14.765  1.5572 -1.9774 -0.5102
 3519TIP3   OH232047   6.063   3.453   5.640  0.7041 -0.4494 -0.4893
 3519TIP3    H132048   6.054   3.393   5.714 -0.2243 -0.6601 -0.7572
 3519TIP3    H232049   5.973   3.477   5.618  0.9844 -0.1667 -1.3680
 3520TIP3   OH232050   0.786   2.886   6.116 -0.3113 -0.3757 -0.0121
 3520TIP3    H132051   0.861   2.851   6.163 -1.4883 -2.2645  0.5761
 3520TIP3    H232052   0.821   2.917   6.033  1.2451 -0.2874  0.6530
 3521TIP3   OH232053   3.285   0.290   5.037  0.3337 -0.2633 -0.3863
 3521TIP3    H132054   3.209   0.308   5.093  1.0052  4.5817 -0.6935
 3521TIP3    H232055   3.258   0.316   4.949  1.5895 -0.9593 -1.0189
 3522TIP3   OH232056   4.175   4.514  15.784 -0.0218 -0.1491  0.0293
 3522TIP3    H132057   4.137   4.427  15.795  0.9509 -0.7611 -1.2271
 3522TIP3    H232058   4.148   4.541  15.696  0.4187  0.4482  0.0694
 3523TIP3   OH232059   6.563   2.963  11.101  0.5224 -0.0356  0.0129
 3523TIP3    H132060   6.645   2.914  11.106 -0.0285 -1.0104 -0.3795
 3523TIP3    H232061   6.505   2.920  11.163  0.4752  1.0040  0.7082
 3524TIP3   OH232062   4.870   6.694   2.476  0.0597 -0.0369 -0.5303
 3524TIP3    H132063   4.814   6.759   2.519 -0.6038 -1.1814  0.3911
 3524TIP3    H232064   4.810   6.644   2.421  0.2216 -1.0430  0.1863
 3525TIP3   OH232065   3.871   6.541  14.180  0.0173  0.6082 -0.5779
 3525TIP3    H132066   3.955   6.565  14.221 -0.6998  1.5277  0.4082
 3525TIP3    H232067   3.854   6.452  14.210  1.2150 -0.0709 -1.7860
 3526TIP3   OH232068   0.734   5.922   3.142 -0.1603 -0.0052  0.0962
 3526TIP3    H132069   0.791   5.943   3.217  0.9263 -2.3695  0.0451
 3526TIP3    H232070   0.647   5.953   3.168 -0.0334 -1.6138  2.8460
 3527TIP3   OH232071   1.283   1.453  17.233  0.0090  0.5393 -0.4397
 3527TIP3    H132072   1.309   1.523  17.292 -1.3763  1.4471 -0.8555
 3527TIP3    H232073   1.291   1.490  17.146  0.2587 -0.1730 -0.7297
 3528TIP3   OH232074   4.708   5.258   3.944  0.2820 -0.2918  0.1385
 3528TIP3    H132075   4.682   5.314   4.017  2.2848  0.8192  0.0780
 3528TIP3    H232076   4.803   5.270   3.937  0.0373  0.7454 -3.5248
 3529TIP3   OH232077   4.610   4.226  15.188  0.3555 -0.5227  0.8678
 3529TIP3    H132078   4.533   4.231  15.245 -0.2165 -0.4443  0.0918
 3529TIP3    H232079   4.622   4.132  15.172 -0.4493 -0.4595 -0.1734
 3530TIP3   OH232080   5.007   4.292   1.478  0.6626  0.2741  0.2881
 3530TIP3    H132081   5.095   4.329   1.487 -0.1110  2.4779 -0.3819
 3530TIP3    H232082   4.969   4.339   1.404 -0.7336 -1.3881 -0.1148
 3531TIP3   OH232083   6.270   3.494   2.756 -0.2374  0.3840  0.6749
 3531TIP3    H132084   6.340   3.504   2.691 -0.6177  1.7913  0.4602
 3531TIP3    H232085   6.316   3.468   2.836  0.2943 -0.8070  0.0105
 3532TIP3   OH232086   3.221   0.270   2.728  0.0996  0.3841 -0.7911
 3532TIP3    H132087   3.136   0.292   2.765  0.7438  0.2312  0.8554
 3532TIP3    H232088   3.207   0.269   2.633 -1.6454  0.6539 -0.5561
 3533TIP3   OH232089   5.413   2.472  16.537  0.3338 -0.0618 -0.1768
 3533TIP3    H132090   5.330   2.517  16.553  0.6600  0.4945 -0.0322
 3533TIP3    H232091   5.480   2.530  16.573  0.6521 -1.4597  1.6788
 3534TIP3   OH232092   4.077   6.286  11.373  0.8737  0.1424 -0.4408
 3534TIP3    H132093   4.038   6.365  11.410  1.9393  0.3492  0.3123
 3534TIP3    H232094   4.118   6.243  11.448  2.1381 -0.0077 -1.1914
 3535TIP3   OH232095   1.427   4.741  16.837  0.1504  0.7938  0.1876
 3535TIP3    H132096   1.467   4.672  16.889  0.7810  1.0939  0.1123
 3535TIP3    H232097   1.488   4.814  16.843  0.6260  0.5879 -1.6049
 3536TIP3   OH232098   1.403   0.461   1.982 -0.0250 -0.1394  0.0149
 3536TIP3    H132099   1.381   0.540   1.932 -1.4257 -0.4060  0.1695
 3536TIP3    H232100   1.454   0.407   1.922  0.4326  0.6235 -0.2903
 3537TIP3   OH232101   3.546   1.075   3.825 -0.2041 -0.5511 -0.2937
 3537TIP3    H132102   3.529   1.134   3.751 -2.2838  1.2427  1.4585
 3537TIP3    H232103   3.460   1.061   3.865  0.7286 -2.1462  1.2993
 3538TIP3   OH232104   1.999   0.734   0.327  0.0624 -0.0117  0.1017
 3538TIP3    H132105   2.023   0.666   0.265 -0.3506  2.7466 -3.3914
 3538TIP3    H232106   1.906   0.750   0.311  0.6360  2.8799 -1.0053
 3539TIP3   OH232107   6.590   4.958  14.223  0.2556 -0.7111 -0.3163
 3539TIP3    H132108   6.572   4.871  14.258  0.3879 -0.5196  0.2469
 3539TIP3    H232109   6.685   4.963  14.218  0.2374 -1.5643 -2.8909
 3540TIP3   OH232110   2.418   6.439   2.047  0.0943  0.0682 -0.1127
 3540TIP3    H132111   2.327   6.409   2.036  0.3549 -1.7795  2.0843
 3540TIP3    H232112   2.466   6.395   1.976 -0.2216 -1.7098  0.7122
 3541TIP3   OH232113   3.542   3.986  11.706  0.1351  0.5036  0.3354
 3541TIP3    H132114   3.631   3.955  11.694 -0.1338 -0.0059 -0.4396
 3541TIP3    H232115   3.517   4.021  11.620  0.7434  3.7959  1.3812
 3542TIP3   OH232116   0.492   1.970  12.874  0.0843 -0.0710 -0.2110
 3542TIP3    H132117   0.478   1.925  12.790 -0.9287 -1.9484  0.9065
 3542TIP3    H232118   0.528   1.903  12.932  0.6591  1.1716  0.9181
 3543TIP3   OH232119   6.789   2.272   5.900 -0.3624  0.2621 -0.2597
 3543TIP3    H132120   6.766   2.340   5.837  1.4638  0.9971 -0.1836
 3543TIP3    H232121   6.822   2.199   5.847  3.1917  1.6560 -0.2189
 3544TIP3   OH232122   4.008   4.574  17.231  0.5198  0.0757 -0.2124
 3544TIP3    H132123   4.027   4.503  17.170  0.4651 -0.9452  0.9248
 3544TIP3    H232124   4.070   4.643  17.206 -0.3255  0.1770 -2.1856
 3545TIP3   OH232125   1.097   2.135   5.631 -0.0074 -0.0894  0.0810
 3545TIP3    H132126   1.148   2.174   5.560 -0.3008  0.3764  0.1221
 3545TIP3    H232127   1.084   2.044   5.604 -0.3757  0.1607 -0.6143
 3546TIP3   OH232128   5.267   4.606   4.756 -0.0970 -0.0784 -0.0115
 3546TIP3    H132129   5.204   4.627   4.687  0.9075 -1.1790 -1.3167
 3546TIP3    H232130   5.330   4.678   4.752  0.4467 -0.5833 -0.8808
 3547TIP3   OH232131   3.278   0.246   2.216  0.2864  0.6674  0.5241
 3547TIP3    H132132   3.323   0.323   2.180  0.6016  0.4030  0.3461
 3547TIP3    H232133   3.294   0.177   2.152 -1.1261  0.7887 -0.0004
 3548TIP3   OH232134   3.004   2.999  14.973  1.0072 -0.2339  0.5939
 3548TIP3    H132135   3.054   2.929  14.932  1.1861  0.7142 -0.8962
 3548TIP3    H232136   2.912   2.974  14.961  1.0002  0.5424 -1.5064
 3549TIP3   OH232137   2.733   0.655  15.527  0.3486  0.5528  0.3194
 3549TIP3    H132138   2.821   0.640  15.493  0.1449  0.3823 -0.1353
 3549TIP3    H232139   2.690   0.570  15.519  0.0383  0.7173  0.2372
 3550TIP3   OH232140   1.210   2.294  12.297 -0.3200  0.8145 -0.0309
 3550TIP3    H132141   1.284   2.291  12.236  0.6870 -1.5591  1.1749
 3550TIP3    H232142   1.205   2.386  12.323  1.0845  1.3514 -1.4733
 3551TIP3   OH232143   0.503   1.632   5.995  0.7416  0.1496  1.1405
 3551TIP3    H132144   0.497   1.538   5.980  2.3795  0.1016  0.6300
 3551TIP3    H232145   0.571   1.641   6.062  1.0261  1.0003  0.7461
 3552TIP3   OH232146   2.650   2.013  14.533 -0.2643  0.1109  0.0782
 3552TIP3    H132147   2.600   1.979  14.459  0.4540  1.5979 -1.1343
 3552TIP3    H232148   2.741   1.998  14.510 -0.0423 -1.6432  1.8100
 3553TIP3   OH232149   1.411   4.590  12.432 -0.3885  0.1862  0.2276
 3553TIP3    H132150   1.496   4.618  12.398  0.8676 -1.3458  1.8875
 3553TIP3    H232151   1.402   4.635  12.516 -0.5136 -0.7354  0.7302
 3554TIP3   OH232152   4.421   5.492  17.191  0.2077 -0.4335 -0.7030
 3554TIP3    H132153   4.345   5.434  17.193 -0.0820 -0.0517  0.0259
 3554TIP3    H232154   4.396   5.566  17.247  1.3505 -0.6067  0.0911
 3555TIP3   OH232155   6.109   0.755   3.239 -0.2408  0.5110 -0.7291
 3555TIP3    H132156   6.190   0.759   3.190  0.6639  0.4312  0.6928
 3555TIP3    H232157   6.044   0.798   3.183  1.0758  1.8087 -1.3064
 3556TIP3   OH232158   5.887   1.168   1.110  0.0072 -0.0670  0.4878
 3556TIP3    H132159   5.979   1.196   1.105  0.2377 -1.0186 -1.4558
 3556TIP3    H232160   5.888   1.098   1.176  0.9262 -0.8206 -0.2823
 3557TIP3   OH232161   1.521   4.147  11.639 -0.2168 -0.3795  0.4851
 3557TIP3    H132162   1.437   4.164  11.681  0.6209  1.5577  1.5276
 3557TIP3    H232163   1.530   4.217  11.575 -0.1037 -1.5519 -0.8364
 3558TIP3   OH232164   4.270   0.573  12.739 -0.1016 -0.1071  0.1262
 3558TIP3    H132165   4.298   0.623  12.816 -0.5999  0.3502  0.0114
 3558TIP3    H232166   4.178   0.553  12.755 -0.1496 -0.1995 -0.2459
 3559TIP3   OH232167   3.619   5.280  14.661 -0.0883  0.4339  0.1277
 3559TIP3    H132168   3.552   5.254  14.597 -0.4544 -0.0439  0.6808
 3559TIP3    H232169   3.700   5.284  14.612 -0.2190 -0.7405 -0.2131
 3560TIP3   OH232170   4.727   4.532  16.431 -0.0727 -0.4112 -0.4649
 3560TIP3    H132171   4.785   4.459  16.453  0.1822  0.0538  0.4162
 3560TIP3    H232172   4.665   4.537  16.504  0.7099  1.0706  0.1411
 3561TIP3   OH232173   4.266   3.167   2.281 -0.0294 -0.0212  0.0096
 3561TIP3    H132174   4.256   3.124   2.366  0.9368 -0.0066  0.1334
 3561TIP3    H232175   4.269   3.260   2.302 -0.9071  0.0566 -0.1535
 3562TIP3   OH232176   3.550   3.492  15.007 -0.2987  0.0956  0.0471
 3562TIP3    H132177   3.480   3.556  14.990  1.3860  1.8686 -0.6151
 3562TIP3    H232178   3.549   3.435  14.931 -1.5437 -0.4455  0.4367
 3563TIP3   OH232179   3.171   3.758  11.940  0.0763  0.2870 -0.0281
 3563TIP3    H132180   3.171   3.851  11.920  2.0612  0.8641  2.2232
 3563TIP3    H232181   3.252   3.725  11.900  0.2451 -0.1057  0.6259
 3564TIP3   OH232182   5.978   3.934   4.980  0.5491  0.0615 -0.0181
 3564TIP3    H132183   5.972   3.935   5.076 -1.4983 -1.2468 -0.0775
 3564TIP3    H232184   5.997   4.025   4.957  2.8108  0.1193  1.6669
 3565TIP3   OH232185   5.848   0.807  17.041 -0.0011  0.2314  0.1343
 3565TIP3    H132186   5.872   0.779  16.953 -0.2483  1.3420 -0.3069
 3565TIP3    H232187   5.871   0.900  17.044 -0.2208  0.2705  1.1652
 3566TIP3   OH232188   6.051   1.293  15.302  0.6352  0.2730 -0.3100
 3566TIP3    H132189   6.046   1.290  15.397  0.5911 -0.7092 -0.3382
 3566TIP3    H232190   6.079   1.205  15.276 -0.6690  0.1225 -1.2809
 3567TIP3   OH232191   1.235   4.192  16.170 -0.4060 -0.2044 -0.3682
 3567TIP3    H132192   1.277   4.273  16.198  0.0022 -1.1583  2.0203
 3567TIP3    H232193   1.163   4.220  16.113 -0.2980  1.8264  0.4337
 3568TIP3   OH232194   4.975   3.334  13.070 -0.5819 -0.2177 -0.2209
 3568TIP3    H132195   5.004   3.375  13.152  2.1055 -1.0723 -0.6584
 3568TIP3    H232196   4.918   3.400  13.030 -1.4739  0.4818  1.9887
 3569TIP3   OH232197   0.488   6.449   4.177  0.2159 -0.5560 -0.0197
 3569TIP3    H132198   0.485   6.405   4.262 -1.6440 -1.6373 -0.5951
 3569TIP3    H232199   0.480   6.542   4.198  2.3120 -0.5848  1.1030
 3570TIP3   OH232200   3.740   4.703   0.115  0.8148 -0.1485 -0.6076
 3570TIP3    H132201   3.835   4.711   0.125  1.0898 -0.5952 -2.5536
 3570TIP3    H232202   3.712   4.788   0.079  0.6733 -0.4989 -1.3273
 3571TIP3   OH232203   1.150   5.131  14.652  0.2147 -0.0374  0.2981
 3571TIP3    H132204   1.074   5.111  14.706 -0.4520 -0.4111 -0.7528
 3571TIP3    H232205   1.199   5.049  14.648  0.4870  0.1027  0.6629
 3572TIP3   OH232206   5.454   3.710  14.340  0.0233 -0.3334  0.1263
 3572TIP3    H132207   5.481   3.681  14.427  0.7851 -2.2321 -0.6949
 3572TIP3    H232208   5.359   3.697  14.339  0.1156 -1.0256  0.4103
 3573TIP3   OH232209   5.056   5.540   2.389  0.1592  0.0848 -0.3336
 3573TIP3    H132210   4.988   5.490   2.434  0.1052  1.2780  0.9628
 3573TIP3    H232211   5.014   5.624   2.368  0.6001  0.0517 -1.4248
 3574TIP3   OH232212   0.485   3.445  11.473 -0.2942 -0.6078  0.3778
 3574TIP3    H132213   0.400   3.411  11.500 -0.8946  0.9418  0.5251
 3574TIP3    H232214   0.508   3.508  11.542  0.5077 -0.2798 -0.1778
 3575TIP3   OH232215   0.688   6.130  16.334 -0.4678 -0.8073 -0.5425
 3575TIP3    H132216   0.715   6.199  16.395 -0.0622 -0.7176 -0.8216
 3575TIP3    H232217   0.726   6.156  16.250  1.3415 -2.3572 -0.2603
 3576TIP3   OH232218   6.586   5.979  11.160  0.6322 -0.7890 -0.3779
 3576TIP3    H132219   6.634   6.058  11.137 -0.1568 -0.5472 -1.2903
 3576TIP3    H232220   6.615   5.913  11.097  0.0409 -0.7380 -0.7133
 3577TIP3   OH232221   3.569   6.632  11.613 -0.4250 -0.4822  0.2023
 3577TIP3    H132222   3.499   6.675  11.563 -1.7863  0.6522  2.8756
 3577TIP3    H232223   3.640   6.696  11.615 -0.9801  0.1314  0.9779
 3578TIP3   OH232224   0.276   4.700   2.249 -0.3441  0.0495 -0.3166
 3578TIP3    H132225   0.260   4.639   2.177 -0.8331  1.1336 -1.1694
 3578TIP3    H232226   0.371   4.710   2.252 -0.1692 -1.5136  0.5261
 3579TIP3   OH232227   5.955   2.664  14.631 -0.6560  0.2347 -0.0338
 3579TIP3    H132228   5.884   2.716  14.669  0.7587  2.1049  0.1244
 3579TIP3    H232229   5.972   2.703  14.546 -0.1749 -0.5637 -0.3216
 3580TIP3   OH232230   4.465   6.576  16.194 -0.5854 -0.3008 -0.3030
 3580TIP3    H132231   4.550   6.551  16.159 -0.4618  0.5148 -0.6264
 3580TIP3    H232232   4.479   6.584  16.289 -0.5285 -1.0045 -0.2473
 3581TIP3   OH232233   2.634   1.165   1.973 -0.1625 -0.0789 -0.2837
 3581TIP3    H132234   2.541   1.150   1.985 -0.0597  0.1824  1.0182
 3581TIP3    H232235   2.663   1.094   1.916 -0.9987 -0.6477 -0.0139
 3582TIP3   OH232236   0.364   1.608  11.593  0.3370 -0.1235  0.1628
 3582TIP3    H132237   0.427   1.536  11.583  1.3552  0.6791  0.5919
 3582TIP3    H232238   0.332   1.624  11.504  1.0282 -0.2981 -0.1274
 3583TIP3   OH232239   4.610   0.243   4.208  0.2331  0.3511  0.2350
 3583TIP3    H132240   4.662   0.162   4.201 -0.4030 -0.4347  3.1878
 3583TIP3    H232241   4.520   0.215   4.194  0.2164  1.0802 -1.3179
 3584TIP3   OH232242   4.803   1.147   2.655 -0.7637  0.2796 -0.6271
 3584TIP3    H132243   4.876   1.175   2.709 -0.8338 -0.5940 -0.0470
 3584TIP3    H232244   4.755   1.227   2.635 -0.1133  0.7530 -0.3264
 3585TIP3   OH232245   3.658   1.999  12.972 -0.1247 -0.0434 -0.6239
 3585TIP3    H132246   3.745   1.992  13.012 -0.2966  0.5490 -0.1370
 3585TIP3    H232247   3.671   1.967  12.883  0.4017 -0.7737 -0.2975
 3586TIP3   OH232248   6.795   1.558  11.683 -0.2259 -0.5068  0.1515
 3586TIP3    H132249   6.765   1.578  11.594 -0.7686 -1.2805  0.1515
 3586TIP3    H232250   6.844   1.477  11.674  1.1776  0.2996  0.3027
 3587TIP3   OH232251   1.492   1.313  13.984  0.4430  0.1660 -0.4579
 3587TIP3    H132252   1.513   1.223  14.005  1.3233  0.6573  0.8766
 3587TIP3    H232253   1.401   1.324  14.013  0.7071  0.0292  0.4181
 3588TIP3   OH232254   0.368   0.217  15.176 -0.3649  0.7088 -0.8783
 3588TIP3    H132255   0.326   0.141  15.216  1.4069 -0.3733 -0.9630
 3588TIP3    H232256   0.421   0.255  15.247  1.1360  0.0264 -1.5967
 3589TIP3   OH232257   6.447   0.077   0.930  0.3377  0.0104  0.2110
 3589TIP3    H132258   6.470   0.044   1.017  2.6734  0.3100 -0.2102
 3589TIP3    H232259   6.420   0.167   0.944  0.8771  0.1113  0.6136
 3590TIP3   OH232260   4.700   1.696  13.826 -0.3608 -0.0266 -0.2769
 3590TIP3    H132261   4.658   1.645  13.757 -0.1601 -0.2064 -0.2692
 3590TIP3    H232262   4.636   1.700  13.896 -0.9651  1.0349 -0.8666
 3591TIP3   OH232263   6.745   1.778   1.348 -0.2920 -0.0811 -0.0588
 3591TIP3    H132264   6.708   1.817   1.269 -0.4468 -2.6289 -1.3476
 3591TIP3    H232265   6.697   1.696   1.359  1.2621 -0.8716  1.3922
 3592TIP3   OH232266   4.903   0.502   0.770 -0.3121 -0.0205  0.0905
 3592TIP3    H132267   4.858   0.565   0.826  1.4108 -0.9317  2.6918
 3592TIP3    H232268   4.845   0.491   0.695 -1.2826  3.6252  0.1308
 3593TIP3   OH232269   6.572   1.086  14.025 -0.1032  0.3076 -0.2338
 3593TIP3    H132270   6.633   1.012  14.029 -3.8349 -3.0985  2.3143
 3593TIP3    H232271   6.588   1.134  14.106 -1.6405 -1.6084  1.3343
 3594TIP3   OH232272   1.272   2.499   2.954 -0.0537 -0.0472  0.2449
 3594TIP3    H132273   1.315   2.562   3.013  0.9675 -0.7031  0.2219
 3594TIP3    H232274   1.209   2.552   2.906  2.2110  1.4777 -1.2883
 3595TIP3   OH232275   2.382   0.482   4.043  0.2949  0.4150  0.0807
 3595TIP3    H132276   2.310   0.430   4.008 -0.4240  1.4339 -0.0270
 3595TIP3    H232277   2.457   0.459   3.990  0.2436 -1.2182  0.6705
 3596TIP3   OH232278   6.554   0.059   6.069 -0.5990  0.1041 -0.4066
 3596TIP3    H132279   6.493   0.089   6.136 -0.5870  1.1016 -0.8275
 3596TIP3    H232280   6.604  -0.011   6.111 -1.2292  0.0761  0.3151
 3597TIP3   OH232281   6.551   5.598   0.667 -0.5784  0.2409 -0.7974
 3597TIP3    H132282   6.594   5.546   0.735  0.1549  2.3543  0.4585
 3597TIP3    H232283   6.500   5.534   0.617  1.4672 -1.8971 -0.3454
 3598TIP3   OH232284   3.401   0.521   2.545  0.2133  0.3943 -0.0952
 3598TIP3    H132285   3.320   0.480   2.576  0.6105  1.3105  2.3864
 3598TIP3    H232286   3.372   0.583   2.478 -1.3001  1.1992  1.2190
 3599TIP3   OH232287   0.712   5.969   1.962  0.4028 -0.0082 -0.5458
 3599TIP3    H132288   0.638   5.910   1.951  1.2524 -1.2224  0.0614
 3599TIP3    H232289   0.750   5.945   2.047  1.0056  1.1594 -0.4596
 3600TIP3   OH232290   3.400   4.436   2.176 -0.2373 -0.2112 -0.1457
 3600TIP3    H132291   3.394   4.344   2.200 -1.7644 -0.4296 -1.2123
 3600TIP3    H232292   3.381   4.438   2.083  0.6630  1.1109 -0.3341
 3601TIP3   OH232293   4.699   5.070   1.063 -0.5240 -0.2094 -0.1839
 3601TIP3    H132294   4.675   5.129   1.134 -1.8486 -0.9317  0.0046
 3601TIP3    H232295   4.641   4.995   1.074 -0.5072 -0.4997 -1.8027
 3602TIP3   OH232296   2.491   6.653   3.036  0.3570 -0.1153  0.4012
 3602TIP3    H132297   2.525   6.670   3.124  1.3792  1.1314 -0.1903
 3602TIP3    H232298   2.544   6.710   2.979 -0.3487 -0.8191 -1.0051
 3603TIP3   OH232299   6.480   3.335   1.936 -0.1983 -0.4214 -0.3487
 3603TIP3    H132300   6.416   3.404   1.918  0.2573  0.1916  0.3038
 3603TIP3    H232301   6.482   3.329   2.032  1.7020  0.5447 -0.2879
 3604TIP3   OH232302   4.100   6.002  12.716 -0.0861 -0.5238 -0.2600
 3604TIP3    H132303   4.195   6.001  12.707 -0.0430 -0.9226  0.2610
 3604TIP3    H232304   4.069   5.937  12.653  0.0296 -0.9171  0.0859
 3605TIP3   OH232305   5.311   0.513  13.484 -0.2302 -0.4191  0.0127
 3605TIP3    H132306   5.347   0.570  13.416 -1.9408  0.6413 -0.0756
 3605TIP3    H232307   5.257   0.450  13.436 -1.1139  0.0722  0.3445
 3606TIP3   OH232308   2.004   5.771   5.484 -0.2455 -0.0827 -0.0593
 3606TIP3    H132309   1.923   5.731   5.517  0.3610  0.8864  2.7858
 3606TIP3    H232310   2.004   5.860   5.518  2.2272 -0.1869  0.4058
 3607TIP3   OH232311   1.631   0.301  16.388 -0.1122 -0.2678 -0.0494
 3607TIP3    H132312   1.687   0.283  16.463 -1.2649  0.2999  0.9626
 3607TIP3    H232313   1.588   0.218  16.369 -0.9427 -0.0502  0.8621
 3608TIP3   OH232314   5.747   3.163  12.269 -0.5476 -0.4730  0.1199
 3608TIP3    H132315   5.699   3.097  12.319  1.0686 -1.8106 -0.0067
 3608TIP3    H232316   5.793   3.215  12.335  0.4228 -1.3105  0.1315
 3609TIP3   OH232317   5.207   2.201  14.284 -0.4303  0.0136  0.0026
 3609TIP3    H132318   5.198   2.225  14.376 -1.3683 -1.2886  0.2866
 3609TIP3    H232319   5.126   2.231  14.243 -0.8146 -0.9951 -0.0065
 3610TIP3   OH232320   3.608   0.252   0.679 -0.3476  0.0339 -0.2902
 3610TIP3    H132321   3.654   0.310   0.618  0.4668 -0.5631 -0.2655
 3610TIP3    H232322   3.593   0.172   0.629  0.6240 -0.5839  0.3825
 3611TIP3   OH232323   1.148   6.133   0.147  0.3615 -0.1028 -0.3025
 3611TIP3    H132324   1.224   6.144   0.205  0.2815  0.9760 -0.3716
 3611TIP3    H232325   1.172   6.061   0.090  1.3648  0.2440 -0.3483
 3612TIP3   OH232326   3.278   3.493  15.654 -0.4695 -0.0099 -0.0728
 3612TIP3    H132327   3.295   3.562  15.718  0.1014  0.4920 -0.7494
 3612TIP3    H232328   3.363   3.479  15.610 -0.5330 -1.2397  0.1447
 3613TIP3   OH232329   0.576   5.823   1.199  0.7589  0.1299 -0.0510
 3613TIP3    H132330   0.579   5.879   1.122  0.8419 -0.9573 -0.8569
 3613TIP3    H232331   0.667   5.818   1.229  0.7268  0.5504  0.1229
 3614TIP3   OH232332   3.506   5.804   0.595  0.0681 -0.1690  0.1781
 3614TIP3    H132333   3.429   5.756   0.565 -0.8821  2.2723 -1.6247
 3614TIP3    H232334   3.572   5.789   0.528  0.4676 -0.5871  0.6579
 3615TIP3   OH232335   5.012   0.628  14.452 -0.5175  0.5567 -0.8985
 3615TIP3    H132336   4.995   0.606  14.361 -3.1339 -0.2484 -0.3187
 3615TIP3    H232337   5.082   0.569  14.479 -0.0426  0.4865 -2.2414
 3616TIP3   OH232338   5.386   3.247   1.695  0.3087  0.3661  0.0455
 3616TIP3    H132339   5.342   3.212   1.773 -0.3857 -0.2427 -0.6042
 3616TIP3    H232340   5.317   3.293   1.648  1.1437  2.4422  0.7491
 3617TIP3   OH232341   3.597   5.104   5.161  0.4342  0.6282 -0.1120
 3617TIP3    H132342   3.530   5.075   5.223  0.7877 -1.6637 -0.7241
 3617TIP3    H232343   3.553   5.169   5.106 -1.7392 -1.7362 -1.3399
 3618TIP3   OH232344   0.684   1.967  15.680 -0.4116 -0.5327 -0.3461
 3618TIP3    H132345   0.667   1.915  15.601  0.1616 -0.0003 -0.8338
 3618TIP3    H232346   0.756   1.921  15.724 -0.6019 -0.7247 -0.2371
 3619TIP3   OH232347   6.445   4.751  13.995  0.1204  0.3834  0.3107
 3619TIP3    H132348   6.373   4.788  14.046 -0.4661 -1.4113  0.8337
 3619TIP3    H232349   6.514   4.818  13.999 -1.0846  1.6461  0.7406
 3620TIP3   OH232350   2.787   1.550  15.838  0.4785 -0.3507  0.1357
 3620TIP3    H132351   2.763   1.641  15.817  4.0675  0.6925 -0.0970
 3620TIP3    H232352   2.763   1.541  15.930 -1.0414  0.3709 -0.1434
 3621TIP3   OH232353   4.042   2.645   0.613 -0.4342 -0.3397  0.3972
 3621TIP3    H132354   3.988   2.690   0.678  1.9849  1.5915  1.2304
 3621TIP3    H232355   4.055   2.558   0.651 -1.0847 -0.0706  1.2901
 3622TIP3   OH232356   5.645   0.796   2.954  0.1635  0.0827 -0.3346
 3622TIP3    H132357   5.649   0.729   2.886 -0.0857 -1.1168  0.8058
 3622TIP3    H232358   5.615   0.750   3.032 -2.6003  2.0008 -0.1207
 3623TIP3   OH232359   3.075   2.556  15.550 -0.0585  0.4623 -0.4643
 3623TIP3    H132360   3.063   2.463  15.569 -0.3570  0.8145  1.2253
 3623TIP3    H232361   3.138   2.585  15.615 -0.8785  1.7065 -0.2064
 3624TIP3   OH232362   2.577   3.423  12.109  0.0318  0.1276 -0.3115
 3624TIP3    H132363   2.517   3.350  12.128  0.2557 -0.1612 -0.7019
 3624TIP3    H232364   2.647   3.414  12.174 -1.5656  1.9451  1.8312
 3625TIP3   OH232365   6.427   4.205  14.685  0.3539 -0.0906 -0.1860
 3625TIP3    H132366   6.440   4.121  14.640  1.1755  0.8227 -1.7235
 3625TIP3    H232367   6.474   4.195  14.768 -0.2425 -1.4190  0.0210
 3626TIP3   OH232368   3.854   1.865  11.872  0.3208  0.2808  0.6773
 3626TIP3    H132369   3.815   1.835  11.790 -0.4142  0.5394  0.9171
 3626TIP3    H232370   3.793   1.834  11.940 -0.2122  1.8676  0.9662
 3627TIP3   OH232371   1.207   6.419  12.113 -0.0185  0.0382  0.5248
 3627TIP3    H132372   1.175   6.364  12.042 -0.6348 -1.4579  1.9047
 3627TIP3    H232373   1.142   6.489  12.120 -1.3161 -1.2013  1.2177
 3628TIP3   OH232374   0.047   1.314  14.132  0.3963 -0.2215  1.4125
 3628TIP3    H132375   0.027   1.374  14.204  0.0932  0.4150  0.7945
 3628TIP3    H232376   0.101   1.246  14.173  2.6354  1.6137  1.6969
 3629TIP3   OH232377   0.639   0.850   4.530  0.1019 -0.3836 -0.3487
 3629TIP3    H132378   0.703   0.916   4.560  1.8811 -1.8293 -0.8270
 3629TIP3    H232379   0.554   0.885   4.560  0.9106  2.2838 -0.8770
 3630TIP3   OH232380   0.329   0.736  13.928 -0.2463  0.3709  0.0762
 3630TIP3    H132381   0.262   0.804  13.924 -0.0955  0.4984 -0.3990
 3630TIP3    H232382   0.400   0.770  13.875  0.9257  1.0099  1.9676
 3631TIP3   OH232383   5.443   6.115  12.539  0.0980 -0.2533 -0.4501
 3631TIP3    H132384   5.360   6.106  12.492 -0.8774 -0.7250  1.2763
 3631TIP3    H232385   5.488   6.032  12.524 -0.6052 -0.7586  0.1402
 3632TIP3   OH232386   1.167   0.339  14.455  0.6798  0.6440  0.7713
 3632TIP3    H132387   1.213   0.270  14.503 -1.3943 -0.3283  1.5000
 3632TIP3    H232388   1.182   0.418  14.506 -0.2585 -0.0905  2.2634
 3633TIP3   OH232389   6.463   3.190  14.623 -0.2610 -0.1144 -0.4487
 3633TIP3    H132390   6.536   3.206  14.683 -1.0252 -0.1228  0.5032
 3633TIP3    H232391   6.458   3.095  14.616  1.0066 -0.1029 -2.0301
 3634TIP3   OH232392   4.103   1.914   4.646  0.3452  0.0929  0.4551
 3634TIP3    H132393   4.170   1.967   4.688  0.8003 -0.4039  0.3534
 3634TIP3    H232394   4.099   1.947   4.556  0.0810  0.4701  0.5993
 3635TIP3   OH232395   6.737   1.037  17.072  0.4578 -0.0333 -0.6725
 3635TIP3    H132396   6.676   1.081  17.014  0.9629  0.9233 -0.5001
 3635TIP3    H232397   6.794   0.987  17.014  0.3443  0.1358 -0.9327
 3636TIP3   OH232398   0.191   0.447   0.316 -0.5221  0.6753  0.4296
 3636TIP3    H132399   0.124   0.498   0.363 -0.4338  1.4348 -0.2298
 3636TIP3    H232400   0.153   0.360   0.307 -2.0267  1.4013 -1.0302
 3637TIP3   OH232401   2.817   5.066   0.176  0.0459 -0.1966 -0.2748
 3637TIP3    H132402   2.788   5.135   0.116  1.0804  1.1144  0.6880
 3637TIP3    H232403   2.787   5.095   0.262  0.5960 -0.8882  0.1544
 3638TIP3   OH232404   0.182   5.631   3.289  0.3166  0.1523 -0.7142
 3638TIP3    H132405   0.243   5.656   3.359  0.3595 -0.5544 -0.4926
 3638TIP3    H232406   0.163   5.713   3.244  0.6122  0.5510 -0.1302
 3639TIP3   OH232407   5.782   1.153   5.625 -0.2087 -0.3593  0.0950
 3639TIP3    H132408   5.805   1.093   5.555 -2.2618 -0.3472 -0.6598
 3639TIP3    H232409   5.863   1.198   5.646  0.5112 -0.4998 -2.1413
 3640TIP3   OH232410   4.218   4.104  16.561  0.4786  0.3104  0.3551
 3640TIP3    H132411   4.158   4.171  16.593 -0.7400 -0.8823  0.6934
 3640TIP3    H232412   4.214   4.035  16.628  1.4549 -0.2439 -0.1268
 3641TIP3   OH232413   1.302   0.541  16.284  0.2436  0.4987 -0.1553
 3641TIP3    H132414   1.305   0.486  16.363  2.2176 -0.9324 -1.1434
 3641TIP3    H232415   1.350   0.491  16.218 -0.9211  1.8833 -2.1475
 3642TIP3   OH232416   0.046   2.525  12.741 -0.0386  0.5789  0.0706
 3642TIP3    H132417   0.136   2.504  12.715 -0.1641  0.9456 -0.7005
 3642TIP3    H232418   0.048   2.527  12.836  0.6034 -0.1462  0.0790
 3643TIP3   OH232419   5.376   3.503   0.158  0.1921 -0.0150 -0.1737
 3643TIP3    H132420   5.465   3.469   0.161 -0.2909 -1.3070  0.3257
 3643TIP3    H232421   5.377   3.579   0.216  0.8933 -0.1999  0.0591
 3644TIP3   OH232422   3.195   1.153  15.759 -0.6948 -0.0463 -0.7656
 3644TIP3    H132423   3.194   1.238  15.715  0.6695 -0.7003 -2.1920
 3644TIP3    H232424   3.105   1.121  15.753 -0.6949  0.1845 -2.6029
 3645TIP3   OH232425   4.961   3.484   2.857  0.3581  0.1234 -0.9320
 3645TIP3    H132426   4.980   3.413   2.919  1.6089  0.4424 -0.9214
 3645TIP3    H232427   4.993   3.450   2.773 -1.4656 -0.3716 -1.4842
 3646TIP3   OH232428   5.530   4.161   1.113 -0.4226  0.1146 -0.0899
 3646TIP3    H132429   5.578   4.240   1.136 -1.4441  0.8292 -0.3597
 3646TIP3    H232430   5.509   4.121   1.198 -0.6177  0.5688  0.0779
 3647TIP3   OH232431   3.767   6.495   1.508 -0.2480  0.0770 -0.1311
 3647TIP3    H132432   3.788   6.564   1.445 -0.8608  0.6129  0.2356
 3647TIP3    H232433   3.698   6.443   1.464 -1.5064  1.1357  0.5276
 3648TIP3   OH232434   3.497   5.881   1.475  0.7434  0.2084  0.4551
 3648TIP3    H132435   3.469   5.855   1.387 -1.4853  1.7136  0.6564
 3648TIP3    H232436   3.578   5.831   1.490  0.6413 -0.8297 -2.0314
 3649TIP3   OH232437   6.798   3.974   5.731  0.0371 -0.1584  0.2518
 3649TIP3    H132438   6.864   3.911   5.702  1.2500  0.6159  1.2539
 3649TIP3    H232439   6.760   3.935   5.809 -0.1379 -0.2289  0.1335
 3650TIP3   OH232440   5.617   1.210  15.046  0.1472  0.1680  0.2912
 3650TIP3    H132441   5.679   1.217  15.119  0.8582  1.0756 -0.3794
 3650TIP3    H232442   5.530   1.216  15.087  0.5228 -0.1484  1.1396
 3651TIP3   OH232443   5.370   2.893   4.380 -0.6770  0.3840 -0.4792
 3651TIP3    H132444   5.449   2.878   4.431 -0.6186 -1.1041 -0.9432
 3651TIP3    H232445   5.299   2.892   4.444 -0.6496 -1.8919 -0.4000
 3652TIP3   OH232446   0.797   6.756  12.601 -0.1875 -0.5372  0.8249
 3652TIP3    H132447   0.803   6.846  12.634  0.1478 -1.0534  2.2562
 3652TIP3    H232448   0.883   6.718  12.620 -0.0149 -0.9123 -0.5961
 3653TIP3   OH232449   2.675   2.224   4.657 -0.0317 -0.7524 -0.0573
 3653TIP3    H132450   2.747   2.170   4.688  0.6984  0.2918  0.1272
 3653TIP3    H232451   2.596   2.175   4.680  0.5807 -1.3432  0.8497
 3654TIP3   OH232452   2.770   5.767   3.700  0.1550 -0.3194  0.5134
 3654TIP3    H132453   2.694   5.716   3.671  0.0860  0.5282 -0.9018
 3654TIP3    H232454   2.830   5.764   3.625  0.2156  1.5304  0.4491
 3655TIP3   OH232455   6.286   2.108  14.885 -0.0332  0.5134 -0.0905
 3655TIP3    H132456   6.364   2.103  14.830  1.0373 -0.0783  1.4008
 3655TIP3    H232457   6.217   2.066  14.833  0.8587  0.2295 -1.0832
 3656TIP3   OH232458   3.117   0.468  12.688 -0.0288 -0.2053  0.6300
 3656TIP3    H132459   3.037   0.457  12.739 -1.1856  2.1052 -0.4956
 3656TIP3    H232460   3.188   0.450  12.749 -1.3768 -1.0748  2.0098
 3657TIP3   OH232461   1.700   2.151  13.023  0.3155 -0.4325  0.5514
 3657TIP3    H132462   1.610   2.119  13.027  0.6245 -1.7528 -1.2764
 3657TIP3    H232463   1.705   2.221  13.087 -2.0016 -0.3545  0.6981
 3658TIP3   OH232464   4.653   2.842   2.014  0.1760  0.5460  0.0106
 3658TIP3    H132465   4.609   2.856   1.930 -1.2356 -3.5079 -0.1536
 3658TIP3    H232466   4.585   2.861   2.079 -0.2788 -0.8034 -0.0355
 3659TIP3   OH232467   0.789   1.815  14.125  0.2377 -0.6259  0.0453
 3659TIP3    H132468   0.789   1.910  14.116  0.1003 -0.6444 -0.1704
 3659TIP3    H232469   0.706   1.794  14.167 -0.0452 -0.7014 -0.5328
 3660TIP3   OH232470   0.102   2.209  11.964  0.5438 -0.2348 -0.0241
 3660TIP3    H132471   0.109   2.120  11.999  1.0279 -0.8207 -1.5531
 3660TIP3    H232472   0.159   2.261  12.021 -0.3441 -0.7039  1.3760
 3661TIP3   OH232473   2.445   3.080  15.788  0.4570 -0.6150 -0.5780
 3661TIP3    H132474   2.404   3.164  15.771  0.0804 -0.9101 -1.1836
 3661TIP3    H232475   2.476   3.085  15.878  1.0997  0.4408 -0.8452
 3662TIP3   OH232476   1.731   4.613   0.954 -0.4227 -0.1287  0.3962
 3662TIP3    H132477   1.671   4.543   0.930 -1.3043  0.9871 -0.8479
 3662TIP3    H232478   1.699   4.690   0.906  0.8915  0.9700  1.1779
 3663TIP3   OH232479   1.288   0.848   0.065  0.5440 -0.1607 -0.1297
 3663TIP3    H132480   1.221   0.810   0.008  0.8191 -0.1486 -0.4613
 3663TIP3    H232481   1.268   0.942   0.067 -0.3081 -0.3450  0.9168
 3664TIP3   OH232482   1.898   0.292  13.274 -0.1565 -0.7969  0.2394
 3664TIP3    H132483   1.903   0.356  13.344  0.8109 -1.4600  0.8008
 3664TIP3    H232484   1.989   0.280  13.246 -0.6857  1.1976 -2.7849
 3665TIP3   OH232485   4.520   4.504  16.676 -0.6267 -0.0934 -0.1757
 3665TIP3    H132486   4.426   4.500  16.663 -0.5100 -1.2583 -0.8115
 3665TIP3    H232487   4.542   4.422  16.720  0.2710 -0.5414 -1.3829
 3666TIP3   OH232488   4.145   1.280   1.179  0.0059  0.1520 -0.4260
 3666TIP3    H132489   4.214   1.289   1.245  0.1191  0.9042 -0.6392
 3666TIP3    H232490   4.065   1.308   1.224  0.0548  0.4987 -0.5507
 3667TIP3   OH232491   3.513   0.993  16.413  0.0951  0.1091  0.5135
 3667TIP3    H132492   3.579   1.062  16.417  0.1771  0.0546  0.1233
 3667TIP3    H232493   3.553   0.925  16.357  0.8634 -1.1491  2.4699
 3668TIP3   OH232494   5.304   1.551   4.581  0.0504  0.1701 -0.4566
 3668TIP3    H132495   5.240   1.575   4.648  0.8210  0.0789  0.3268
 3668TIP3    H232496   5.360   1.628   4.573  1.3589 -0.6221  0.6788
 3669TIP3   OH232497   2.403   2.088   1.150  0.3240  0.2277 -0.5293
 3669TIP3    H132498   2.448   2.025   1.093 -2.2008 -0.3331 -2.0673
 3669TIP3    H232499   2.386   2.163   1.094  1.1767  1.3301  0.6331
 3670TIP3   OH232500   6.652   0.485   1.759  0.0229  0.0361 -0.2597
 3670TIP3    H132501   6.634   0.434   1.680  0.3343 -1.4428  0.5885
 3670TIP3    H232502   6.609   0.436   1.829  0.6893  0.7265  0.6537
 3671TIP3   OH232503   1.986   0.768   4.120 -0.0050 -0.2082  0.4091
 3671TIP3    H132504   1.891   0.755   4.125 -0.1551 -0.2268 -1.4459
 3671TIP3    H232505   2.005   0.760   4.026  2.2728 -3.1778  0.9819
 3672TIP3   OH232506   3.817   2.494   5.730 -0.0540  0.2782 -0.1065
 3672TIP3    H132507   3.733   2.465   5.766 -0.0845  0.7735  0.2244
 3672TIP3    H232508   3.802   2.495   5.635 -0.8456  1.6013  0.0007
 3673TIP3   OH232509   1.232   2.082   1.552  0.4001  0.0912  0.2092
 3673TIP3    H132510   1.156   2.120   1.598  0.4441 -0.4227  0.7199
 3673TIP3    H232511   1.251   2.002   1.600  0.9695 -0.0344 -0.2172
 3674TIP3   OH232512   0.764   6.080   4.877  0.0474  0.8794 -0.0114
 3674TIP3    H132513   0.721   6.037   4.803  1.4166 -2.1194  0.7658
 3674TIP3    H232514   0.694   6.100   4.938 -0.5874 -1.7848  0.2415
 3675TIP3   OH232515   1.646   4.268   6.083  0.6026  0.5315  0.0423
 3675TIP3    H132516   1.611   4.201   6.141  1.5339  0.2488  0.2754
 3675TIP3    H232517   1.730   4.292   6.121  1.0719  0.5817 -1.0064
 3676TIP3   OH232518   0.527   4.844  13.145 -0.0682 -0.2564  0.2083
 3676TIP3    H132519   0.614   4.824  13.179  0.5042 -2.1567 -2.0710
 3676TIP3    H232520   0.543   4.905  13.073 -0.0590 -2.9494 -2.3130
 3677TIP3   OH232521   5.013   5.782  14.474  0.2372 -0.9246 -0.0385
 3677TIP3    H132522   4.923   5.782  14.441  0.2709 -0.3315 -0.1459
 3677TIP3    H232523   5.009   5.839  14.551  0.8229  0.3546 -0.9222
 3678TIP3   OH232524   6.082   3.173  14.412 -0.5848  0.3461  0.1365
 3678TIP3    H132525   6.078   3.146  14.320  0.4039  0.2299  0.1205
 3678TIP3    H232526   6.099   3.092  14.460 -0.0108  0.5721  0.3184
 3679TIP3   OH232527   1.372   5.308  16.595  0.8525  0.3874 -0.1395
 3679TIP3    H132528   1.411   5.262  16.669  0.3680  1.6732  0.9606
 3679TIP3    H232529   1.439   5.304  16.526  1.7166  0.0096  0.7023
 3680TIP3   OH232530   5.152   6.100   3.026 -0.0776 -0.0397  0.2198
 3680TIP3    H132531   5.244   6.075   3.026 -0.0583 -0.0263  1.3874
 3680TIP3    H232532   5.152   6.191   3.057 -0.5681 -0.4654  1.5394
 3681TIP3   OH232533   2.433   1.332  12.787 -0.2124  0.3890  0.3725
 3681TIP3    H132534   2.496   1.263  12.807 -1.6420 -1.2968 -0.6969
 3681TIP3    H232535   2.438   1.391  12.862  1.5074 -0.5134  1.0279
 3682TIP3   OH232536   6.232   0.225   0.639  0.2125 -0.3761 -0.3540
 3682TIP3    H132537   6.204   0.138   0.666 -0.4374  0.6381  2.5163
 3682TIP3    H232538   6.259   0.268   0.720  1.6650  1.7295 -1.8440
 3683TIP3   OH232539   4.457   5.830   3.737 -0.7271 -0.0501  0.2495
 3683TIP3    H132540   4.439   5.923   3.742  0.6593  0.1913  1.2656
 3683TIP3    H232541   4.406   5.800   3.662  1.9907  2.3334 -2.8891
 3684TIP3   OH232542   5.717   2.944   4.796  0.2308 -0.2354  0.3673
 3684TIP3    H132543   5.691   2.861   4.758  1.5933  0.3676 -2.0352
 3684TIP3    H232544   5.809   2.932   4.821 -0.3030 -0.2509  2.5645
 3685TIP3   OH232545   4.234   3.856  13.478  0.5112 -0.1441 -0.2721
 3685TIP3    H132546   4.187   3.851  13.394  1.9921 -0.9998 -1.0833
 3685TIP3    H232547   4.201   3.937  13.518 -1.0973 -0.3269 -1.1176
 3686TIP3   OH232548   2.884   0.720   4.004 -0.2467 -0.2057 -0.6436
 3686TIP3    H132549   2.941   0.796   4.014 -0.3423 -0.3685  1.5441
 3686TIP3    H232550   2.805   0.743   4.052 -0.4958 -1.4748 -0.4209
 3687TIP3   OH232551   0.417   5.839  11.059  0.6052 -0.3703  0.2334
 3687TIP3    H132552   0.372   5.821  11.142 -2.2001 -0.4921 -1.1858
 3687TIP3    H232553   0.493   5.781  11.060 -0.6242 -2.0700  1.7578
 3688TIP3   OH232554   5.398   3.220   3.233 -0.4008  0.6174  0.0163
 3688TIP3    H132555   5.484   3.209   3.274  0.3091  0.5809 -1.4233
 3688TIP3    H232556   5.365   3.302   3.270 -0.3607 -0.0311  1.5795
 3689TIP3   OH232557   0.026   0.946  11.831 -0.0176 -0.9748  0.2345
 3689TIP3    H132558   0.034   0.860  11.874  1.7455 -1.0016 -0.0947
 3689TIP3    H232559  -0.065   0.972  11.847 -0.3786 -2.5681  0.9723
 3690TIP3   OH232560   0.300   1.779   0.318  0.7858  0.1665 -0.1014
 3690TIP3    H132561   0.251   1.748   0.395  0.7123  0.8310  0.1302
 3690TIP3    H232562   0.243   1.759   0.244  1.0493 -0.8818 -0.0313
 3691TIP3   OH232563   0.365   4.542   2.039 -0.2909  0.0237  0.7292
 3691TIP3    H132564   0.455   4.511   2.047  0.2336  1.6926  1.7211
 3691TIP3    H232565   0.364   4.592   1.957  0.3220  1.8626  1.7831
 3692TIP3   OH232566   4.207   5.370   1.391 -0.1825  0.3372 -0.1432
 3692TIP3    H132567   4.238   5.459   1.377  2.3728 -0.5421 -0.6948
 3692TIP3    H232568   4.221   5.354   1.485  0.4630  0.1605 -0.2647
 3693TIP3   OH232569   5.105   1.741  17.183  0.2439  0.4710  0.5278
 3693TIP3    H132570   5.178   1.709  17.235  0.1361  1.4408  1.3037
 3693TIP3    H232571   5.134   1.730  17.092  1.2058  0.5121  0.8214
 3694TIP3   OH232572   1.641   6.263  15.234  0.0936  0.4676  0.1185
 3694TIP3    H132573   1.703   6.192  15.217  0.7910  1.4661 -1.7268
 3694TIP3    H232574   1.570   6.220  15.283  2.5362 -0.5353  3.1132
 3695TIP3   OH232575   1.515   3.534   3.142 -0.0536  0.0363 -0.3781
 3695TIP3    H132576   1.539   3.599   3.076 -1.0339  0.5744 -0.2205
 3695TIP3    H232577   1.487   3.585   3.217 -0.6926 -0.5743 -0.1916
 3696TIP3   OH232578   5.264   3.376   1.934 -0.2330 -0.3187 -0.5315
 3696TIP3    H132579   5.207   3.428   1.877  0.5365  0.3960 -0.6732
 3696TIP3    H232580   5.268   3.426   2.016 -0.9192 -1.0787 -0.0227
 3697TIP3   OH232581   3.425   5.664  16.796 -0.0246 -0.2143 -0.4667
 3697TIP3    H132582   3.360   5.704  16.853 -1.7481  0.4026 -2.7069
 3697TIP3    H232583   3.412   5.570  16.806  1.3535 -0.2406  1.8528
 3698TIP3   OH232584   1.145   1.575  11.851 -0.2084 -0.6088  0.1339
 3698TIP3    H132585   1.052   1.569  11.832  0.1750 -0.8370 -1.9176
 3698TIP3    H232586   1.188   1.553  11.768  1.6541  1.0993  0.5623
 3699TIP3   OH232587   4.923   5.345   5.493 -0.3327  0.0306  0.2115
 3699TIP3    H132588   4.958   5.291   5.422 -0.2194  0.2268  0.1182
 3699TIP3    H232589   4.839   5.304   5.515  0.2566 -0.8583  0.9071
 3700TIP3   OH232590   2.267   1.835  10.729 -0.1729 -0.0819 -0.1551
 3700TIP3    H132591   2.297   1.907  10.785  0.2324  0.7697 -1.4241
 3700TIP3    H232592   2.191   1.799  10.775 -1.1736  1.9906 -0.0908
 3701TIP3   OH232593   1.595   3.756  17.047 -0.5031  0.4928  0.2851
 3701TIP3    H132594   1.546   3.764  16.966  0.5630  1.3407 -0.3024
 3701TIP3    H232595   1.660   3.688  17.029  0.6136  1.6153 -0.0588
 3702TIP3   OH232596   2.161   6.642   2.113  0.5133 -0.4083 -0.3070
 3702TIP3    H132597   2.116   6.558   2.125  3.3776 -2.1037 -0.3153
 3702TIP3    H232598   2.189   6.667   2.201  0.8417 -0.2045 -0.4669
 3703TIP3   OH232599   2.557   3.800  12.728  0.1105 -0.1668 -0.2991
 3703TIP3    H132600   2.517   3.848  12.800  0.1450  0.5672 -0.7488
 3703TIP3    H232601   2.494   3.731  12.706  0.7490 -1.3133  1.3596
 3704TIP3   OH232602   3.076   0.545  14.408 -0.0078  0.3483 -0.2318
 3704TIP3    H132603   3.041   0.457  14.424 -1.4653  0.6247 -1.6264
 3704TIP3    H232604   3.116   0.570  14.491  1.2239 -1.9562 -0.0513
 3705TIP3   OH232605   3.776   4.673   6.277 -0.5507  0.3383 -0.0099
 3705TIP3    H132606   3.762   4.767   6.266 -1.4862  0.2788  0.5468
 3705TIP3    H232607   3.690   4.634   6.260 -0.3720 -0.3348  0.5780
 3706TIP3   OH232608   3.244   0.785  16.929 -0.0300 -0.8555 -0.3140
 3706TIP3    H132609   3.187   0.861  16.921  1.6322  0.3511 -1.3100
 3706TIP3    H232610   3.242   0.745  16.842 -0.1118 -1.3922 -0.0704
 3707TIP3   OH232611   2.531   1.141   3.425 -0.4294 -0.3366  0.1050
 3707TIP3    H132612   2.502   1.108   3.341  0.3543 -0.8274  0.0190
 3707TIP3    H232613   2.576   1.224   3.405 -0.4518 -0.3334  0.0690
 3708TIP3   OH232614   4.086   6.793  12.233 -0.1004  0.1892  0.2662
 3708TIP3    H132615   4.045   6.731  12.293 -0.4366  0.2393  0.0886
 3708TIP3    H232616   4.036   6.873  12.243  0.2792  0.4119  0.4298
 3709TIP3   OH232617   0.032   6.799  11.661 -1.1058  0.3314 -0.5355
 3709TIP3    H132618   0.100   6.866  11.657 -0.5606 -0.2233 -0.7112
 3709TIP3    H232619  -0.050   6.848  11.666 -0.6030  1.0520  1.9225
 3710TIP3   OH232620   2.237   2.681  17.113  0.3395 -0.3869 -0.0483
 3710TIP3    H132621   2.172   2.687  17.043 -0.3217  2.0673  0.6631
 3710TIP3    H232622   2.187   2.665  17.192  0.1916  3.4451  0.8219
 3711TIP3   OH232623   4.270   6.760   3.916  0.1367 -0.7828 -0.1732
 3711TIP3    H132624   4.298   6.831   3.974  3.4859 -1.7464 -0.4244
 3711TIP3    H232625   4.301   6.680   3.958  0.7919 -1.6760 -2.2185
 3712TIP3   OH232626   3.144   3.955  10.863 -0.3156  0.0182 -0.0515
 3712TIP3    H132627   3.209   4.024  10.855 -0.8768  0.4269 -1.3079
 3712TIP3    H232628   3.095   3.977  10.943  0.2752  0.3965  0.2054
 3713TIP3   OH232629   4.743   0.524   5.906 -0.2938  0.6391 -0.4025
 3713TIP3    H132630   4.802   0.458   5.941 -0.5946  0.2280 -0.6654
 3713TIP3    H232631   4.783   0.551   5.823 -0.6279  0.1425 -0.7272
 3714TIP3   OH232632   2.177   1.173  15.171 -0.6457  0.8376  0.2154
 3714TIP3    H132633   2.106   1.110  15.157 -1.4048  1.5586  0.7559
 3714TIP3    H232634   2.251   1.119  15.198 -0.3546 -0.1542 -2.2319
 3715TIP3   OH232635   4.891   4.164   3.470 -0.0976  0.3825  0.1461
 3715TIP3    H132636   4.919   4.191   3.383  1.4381  0.4447  0.6373
 3715TIP3    H232637   4.889   4.068   3.466 -0.3187  0.3937 -0.0363
 3716TIP3   OH232638   6.757   1.664  12.411  0.4199 -0.5165 -0.3553
 3716TIP3    H132639   6.707   1.612  12.475 -1.7410  1.0995 -0.6099
 3716TIP3    H232640   6.715   1.644  12.327  0.7399  0.2684 -0.7076
 3717TIP3   OH232641   1.898   3.582  13.617  0.8910  0.2484 -0.0134
 3717TIP3    H132642   1.808   3.571  13.648  0.5532  0.9065 -0.7273
 3717TIP3    H232643   1.889   3.604  13.524  1.8744 -1.8227 -0.6754
 3718TIP3   OH232644   5.761   2.613   6.333  0.1099 -0.0837  0.8471
 3718TIP3    H132645   5.798   2.598   6.420  0.1795 -1.2752  0.6187
 3718TIP3    H232646   5.794   2.541   6.279  0.8078  1.1312 -0.4143
 3719TIP3   OH232647   0.873   6.690   0.569  0.4193  0.5594 -0.1350
 3719TIP3    H132648   0.816   6.615   0.585  0.5972 -0.3680 -3.1886
 3719TIP3    H232649   0.948   6.675   0.627  0.2145 -1.3910 -0.2975
 3720TIP3   OH232650   6.516   4.577   1.682  0.2174 -0.0665 -0.0966
 3720TIP3    H132651   6.446   4.539   1.734  0.6635  1.2288  1.5407
 3720TIP3    H232652   6.480   4.661   1.652  0.9842  0.5306  0.6188
 3721TIP3   OH232653   5.948   4.418  16.520  0.1855 -0.2717 -0.1343
 3721TIP3    H132654   5.883   4.350  16.537 -0.7538  0.8314  0.8400
 3721TIP3    H232655   5.898   4.493  16.489  0.8157  0.9248  1.5286
 3722TIP3   OH232656   2.313   3.976   3.621 -0.8477  0.1108  0.0026
 3722TIP3    H132657   2.364   3.907   3.578 -1.0202 -0.5577  0.8465
 3722TIP3    H232658   2.319   4.051   3.562  2.0602  0.4396  0.5679
 3723TIP3   OH232659   0.181   3.492   1.779  0.1970 -0.2638  0.4808
 3723TIP3    H132660   0.106   3.486   1.837 -0.6973  0.8119 -0.5336
 3723TIP3    H232661   0.222   3.576   1.800  0.5488 -0.3990  0.3544
 3724TIP3   OH232662   2.936   1.505  12.544  0.4863 -0.4561  0.6886
 3724TIP3    H132663   2.945   1.493  12.638 -2.2262 -1.0024  0.9532
 3724TIP3    H232664   2.871   1.440  12.517 -2.1140  2.4925 -0.7601
 3725TIP3   OH232665   5.387   0.891   3.005  0.3597  0.0353 -0.0880
 3725TIP3    H132666   5.384   0.942   3.086 -0.6323  2.6883 -1.6532
 3725TIP3    H232667   5.471   0.915   2.965 -0.4655  1.2075 -1.2203
 3726TIP3   OH232668   6.760   4.881   2.256  0.6722 -0.3551  0.4155
 3726TIP3    H132669   6.753   4.870   2.351  1.3393 -0.7437  0.4296
 3726TIP3    H232670   6.673   4.862   2.222  0.6635 -1.1458  0.8690
 3727TIP3   OH232671   2.523   6.292   5.834  0.2073 -0.1775 -0.1745
 3727TIP3    H132672   2.517   6.291   5.738  0.3571  0.1875 -0.1899
 3727TIP3    H232673   2.478   6.373   5.860  0.4401 -0.1189  0.0439
 3728TIP3   OH232674   0.973   5.229   1.384  0.0869 -0.1674  0.0627
 3728TIP3    H132675   0.961   5.279   1.303 -0.4458 -1.3437 -0.6155
 3728TIP3    H232676   0.947   5.289   1.454 -0.7654  0.4245 -0.7389
 3729TIP3   OH232677   0.185   2.487   2.479  0.1051 -0.0589  0.2311
 3729TIP3    H132678   0.149   2.401   2.456  0.4317  0.1316 -1.0867
 3729TIP3    H232679   0.147   2.507   2.564 -0.5994 -1.1569  0.1956
 3730TIP3   OH232680   6.189   5.873   0.286 -0.1671  0.1960  0.4085
 3730TIP3    H132681   6.119   5.813   0.259 -0.2942  0.6607 -0.2920
 3730TIP3    H232682   6.161   5.904   0.372  0.3974 -1.5315  1.2820
 3731TIP3   OH232683   2.792   0.051  15.879 -0.4562  0.0458  0.1778
 3731TIP3    H132684   2.761   0.051  15.970 -1.7404  1.1399 -0.2250
 3731TIP3    H232685   2.887   0.059  15.887 -0.6610  1.9037  1.4407
 3732TIP3   OH232686   2.241   5.811   1.124  0.2084 -0.5046 -0.1104
 3732TIP3    H132687   2.185   5.880   1.160 -1.4365 -1.8068 -0.0848
 3732TIP3    H232688   2.243   5.827   1.030 -0.5634 -0.6917 -0.1605
 3733TIP3   OH232689   4.179   5.917   5.565 -0.0718 -0.0165  0.2271
 3733TIP3    H132690   4.151   5.896   5.654 -0.8048  1.0476  0.2655
 3733TIP3    H232691   4.235   5.994   5.574  1.3159 -0.9377 -0.0721
 3734TIP3   OH232692   1.802   4.682   5.359  0.6606 -0.4067 -0.1948
 3734TIP3    H132693   1.727   4.636   5.397  1.2690 -2.3082 -1.1321
 3734TIP3    H232694   1.768   4.720   5.277  0.2077  0.6687  0.4734
 3735TIP3   OH232695   4.034   5.069  15.669  0.0648  0.0943 -1.0811
 3735TIP3    H132696   3.961   5.059  15.607 -1.4319  0.8526  0.4543
 3735TIP3    H232697   4.014   5.007  15.739  1.0741  0.1107 -0.7737
 3736TIP3   OH232698   1.562   0.952   0.886 -0.3469  0.5188  0.3397
 3736TIP3    H132699   1.653   0.981   0.881 -0.3636  0.7091  0.9955
 3736TIP3    H232700   1.511   1.034   0.894 -0.4040  0.3558  2.0902
 3737TIP3   OH232701   0.902   2.038  16.152 -1.2081  0.0213  0.0960
 3737TIP3    H132702   0.936   2.121  16.186 -0.1018 -1.0366  1.7121
 3737TIP3    H232703   0.976   1.978  16.159 -2.3615 -1.4376  0.1859
 3738TIP3   OH232704   0.117   3.000  12.454 -0.2259 -0.1569 -0.5294
 3738TIP3    H132705   0.035   2.987  12.407 -1.9492  0.3485  2.1089
 3738TIP3    H232706   0.156   2.913  12.459 -0.6331 -0.4267 -1.7222
 3739TIP3   OH232707   1.980   3.187  16.929 -0.1790 -0.3576 -0.0630
 3739TIP3    H132708   1.930   3.132  16.869  2.1613 -1.8279 -0.8161
 3739TIP3    H232709   2.025   3.125  16.986  0.8203  0.8694  0.5320
 3740TIP3   OH232710   4.102   1.233  13.087 -0.3265 -0.1783 -0.3976
 3740TIP3    H132711   4.111   1.161  13.150 -0.3056 -0.9495 -1.2597
 3740TIP3    H232712   4.120   1.193  13.002 -1.7429  0.5261 -1.0665
 3741TIP3   OH232713   3.874   6.759   0.983  0.4819 -0.6975  0.1327
 3741TIP3    H132714   3.939   6.829   0.988  0.7262 -0.8692 -0.5343
 3741TIP3    H232715   3.791   6.804   0.966  0.6855 -0.5874 -0.5898
 3742TIP3   OH232716   0.867   4.947   0.280 -0.0698  0.2458 -0.2815
 3742TIP3    H132717   0.854   4.975   0.189  0.8797 -0.1602 -0.5585
 3742TIP3    H232718   0.950   4.987   0.306 -0.7793  1.1027  0.7273
 3743TIP3   OH232719   1.923   4.197   3.560 -0.2534  0.1016  0.3074
 3743TIP3    H132720   1.853   4.221   3.621 -0.2455 -1.9073  1.1904
 3743TIP3    H232721   1.878   4.168   3.481 -0.4032 -0.4796  0.6023
 3744TIP3   OH232722   4.761   5.000  12.691 -0.4186  0.4610  0.2859
 3744TIP3    H132723   4.797   4.915  12.667 -2.6041 -0.0775 -1.3639
 3744TIP3    H232724   4.776   5.006  12.786  0.1392 -1.5595  0.3673
 3745TIP3   OH232725   2.314   5.471   2.808 -0.1932  0.8578  0.0294
 3745TIP3    H132726   2.347   5.467   2.718 -3.0431 -2.0055 -1.1032
 3745TIP3    H232727   2.282   5.560   2.818  1.5576  1.6969 -1.1714
 3746TIP3   OH232728   5.753   4.055   4.794  0.3371  0.2254 -0.0645
 3746TIP3    H132729   5.684   4.052   4.728  0.3462 -2.1253 -0.0415
 3746TIP3    H232730   5.834   4.037   4.745  0.3677 -1.3158  0.5008
 3747TIP3   OH232731   2.741   2.923  15.045  0.0128  0.1123 -0.1475
 3747TIP3    H132732   2.708   2.947  14.958 -0.5217  0.8510  0.2486
 3747TIP3    H232733   2.696   2.982  15.105  0.8965  0.0805  0.5692
 3748TIP3   OH232734   4.690   6.730  12.898 -0.3138  0.2968 -0.4491
 3748TIP3    H132735   4.637   6.702  12.823 -1.9173  1.3450  0.2384
 3748TIP3    H232736   4.653   6.814  12.924  0.3602  0.0828  1.3733
 3749TIP3   OH232737   2.519   0.781  12.742 -0.8882  0.1148  0.6743
 3749TIP3    H132738   2.493   0.722  12.672 -2.1627  1.5427 -0.1057
 3749TIP3    H232739   2.498   0.734  12.823 -0.2153 -1.1922  0.1140
 3750TIP3   OH232740   3.491   3.275  12.505  0.5243 -0.6358 -0.3267
 3750TIP3    H132741   3.457   3.330  12.576 -1.6649 -1.4508 -0.6559
 3750TIP3    H232742   3.470   3.186  12.532  4.3525 -1.4800  0.3852
 3751TIP3   OH232743   1.461   0.035  12.082  0.2069 -0.3311 -0.1863
 3751TIP3    H132744   1.465  -0.057  12.056 -0.3321 -0.3531 -0.2059
 3751TIP3    H232745   1.547   0.070  12.061  0.5470 -0.9271  0.1741
 3752TIP3   OH232746   0.905   0.637  12.106 -0.3447  0.1737 -0.0414
 3752TIP3    H132747   0.848   0.711  12.084 -0.3227  0.3752  0.5861
 3752TIP3    H232748   0.973   0.639  12.038 -0.4408  0.6214 -0.1298
 3753TIP3   OH232749   6.274   5.612  16.642 -0.0996  0.0141 -0.3015
 3753TIP3    H132750   6.297   5.532  16.595 -0.4669 -0.5049  0.3789
 3753TIP3    H232751   6.251   5.675  16.573 -0.0937 -0.5541 -0.8303
 3754TIP3   OH232752   3.205   4.955  15.777 -0.2151 -0.2533 -0.2549
 3754TIP3    H132753   3.171   4.974  15.865  2.0765  0.1750  0.6210
 3754TIP3    H232754   3.265   4.881  15.790  1.9055  1.2425 -0.9569
 3755TIP3   OH232755   5.513   5.596  15.881 -0.1618 -0.0886  0.2613
 3755TIP3    H132756   5.500   5.506  15.910  1.8248 -0.2899  0.6785
 3755TIP3    H232757   5.434   5.617  15.832 -0.8164 -1.9341  0.4489
 3756TIP3   OH232758   2.757   1.595  15.446 -0.1706 -0.2690  0.5909
 3756TIP3    H132759   2.769   1.642  15.528  1.4718 -0.2953  0.3991
 3756TIP3    H232760   2.838   1.546  15.434 -0.6182 -0.7338 -0.7482
 3757TIP3   OH232761   0.032   3.911  11.963 -0.3446  0.1455  0.2370
 3757TIP3    H132762   0.082   3.923  12.043 -0.1454  0.6830  0.0371
 3757TIP3    H232763   0.046   3.992  11.913 -2.4182  0.8699  0.7342
 3758TIP3   OH232764   3.530   4.433   3.289 -0.0406  0.1293 -0.2135
 3758TIP3    H132765   3.589   4.423   3.214  0.1025 -1.6703  0.0771
 3758TIP3    H232766   3.457   4.485   3.255  1.8733  2.8689 -0.4364
 3759TIP3   OH232767   1.248   1.590  15.002 -0.3536  0.2021  0.6694
 3759TIP3    H132768   1.328   1.625  15.042 -0.3349 -0.1689  0.9595
 3759TIP3    H232769   1.255   1.614  14.909  0.9329 -1.3277  0.3371
 3760TIP3   OH232770   1.081   1.214   0.384  0.5229 -0.2328 -0.0714
 3760TIP3    H132771   0.990   1.187   0.394 -0.0763  1.7662  0.4281
 3760TIP3    H232772   1.101   1.260   0.466  1.4473  0.7729 -0.8388
 3761TIP3   OH232773   6.684   0.050  16.921 -0.4547 -0.0160 -0.4979
 3761TIP3    H132774   6.683  -0.005  16.844  3.8687  1.7045 -2.0769
 3761TIP3    H232775   6.656   0.136  16.890  0.6562  0.5340 -0.0447
 3762TIP3   OH232776   2.413   2.228  16.533 -0.0367 -0.1486  0.1628
 3762TIP3    H132777   2.403   2.134  16.548  1.4819 -0.3494  0.0327
 3762TIP3    H232778   2.354   2.246  16.460  0.9446 -1.3759 -0.9864
 3763TIP3   OH232779   5.779   2.174   1.474  0.0516 -0.1479 -0.0841
 3763TIP3    H132780   5.752   2.264   1.459 -0.4798  0.2288  2.5678
 3763TIP3    H232781   5.708   2.121   1.437 -0.4711  0.5829 -0.1549
 3764TIP3   OH232782   4.252   2.766  14.078  0.0319  0.0445  0.2329
 3764TIP3    H132783   4.191   2.791  14.008  0.3661 -0.9896 -0.4631
 3764TIP3    H232784   4.254   2.670  14.074 -1.0916 -0.1539  2.6738
 3765TIP3   OH232785   1.888   1.266   6.434 -0.0822 -0.5415 -0.3182
 3765TIP3    H132786   1.936   1.206   6.492 -1.3781  0.4729  1.9215
 3765TIP3    H232787   1.798   1.236   6.440 -0.2263 -0.4807 -1.9682
 3766TIP3   OH232788   0.989   6.004   4.331  0.4387  0.4752  0.3161
 3766TIP3    H132789   1.018   6.088   4.366 -1.1877  0.7560  1.1203
 3766TIP3    H232790   0.929   6.027   4.260  0.9536 -0.0358 -0.2884
 3767TIP3   OH232791   6.245   3.285  15.476 -0.2053  0.5599 -0.4132
 3767TIP3    H132792   6.266   3.337  15.554  1.6746  0.7969 -1.0114
 3767TIP3    H232793   6.316   3.304  15.415 -1.0521 -0.4655 -1.7770
 3768TIP3   OH232794   5.359   6.201  12.809 -0.0719  0.0559  0.3532
 3768TIP3    H132795   5.379   6.170  12.721  1.7400 -0.0389  0.7609
 3768TIP3    H232796   5.341   6.121  12.859  3.4829 -0.4348  1.1291
 3769TIP3   OH232797   3.280   2.262   4.653  0.0181 -0.2768  0.0950
 3769TIP3    H132798   3.324   2.335   4.610 -0.5844 -0.7425 -1.3924
 3769TIP3    H232799   3.272   2.289   4.744  0.9534  0.9525 -0.1595
 3770TIP3   OH232800   3.763   5.271  15.172 -0.3174  0.0154  0.9484
 3770TIP3    H132801   3.692   5.225  15.128 -1.3414  0.9352  1.5767
 3770TIP3    H232802   3.781   5.347  15.115  1.5012 -1.1915 -0.1926
 3771TIP3   OH232803   2.618   6.283  12.550 -0.0941  0.2348  0.0782
 3771TIP3    H132804   2.611   6.193  12.582  0.9794  0.0618 -0.1207
 3771TIP3    H232805   2.645   6.273  12.458 -0.9155  0.7476 -0.2262
 3772TIP3   OH232806   3.449   5.546   0.368 -0.2224 -0.7327 -0.0201
 3772TIP3    H132807   3.378   5.508   0.419 -0.1560  1.3820  1.8078
 3772TIP3    H232808   3.405   5.606   0.307 -0.0760  0.8540  1.3607
 3773TIP3   OH232809   0.619   4.385  14.519  0.9078  0.1939 -0.7490
 3773TIP3    H132810   0.591   4.297  14.546  0.4413  0.6354  0.2231
 3773TIP3    H232811   0.699   4.369  14.469  2.7470 -0.5732  2.1779
 3774TIP3   OH232812   2.208   2.955  15.878 -0.7346 -0.3448  0.4886
 3774TIP3    H132813   2.131   2.956  15.821 -1.2563  0.4154  1.1700
 3774TIP3    H232814   2.283   2.966  15.819 -1.3252  1.6183  0.0282
 3775TIP3   OH232815   6.275   0.533   6.396 -0.0031 -0.0686 -0.1669
 3775TIP3    H132816   6.348   0.595   6.390 -0.1492  0.1995  0.6707
 3775TIP3    H232817   6.197   0.588   6.394 -0.2755 -0.4322 -2.3858
 3776TIP3   OH232818   5.042   6.560  17.072 -0.4890  0.0042  0.3512
 3776TIP3    H132819   4.989   6.640  17.079  0.0244  0.3779 -0.0238
 3776TIP3    H232820   5.021   6.525  16.986  0.7038  0.7583 -0.2720
 3777TIP3   OH232821   3.011   0.155  15.202  0.5357  0.1963 -0.3940
 3777TIP3    H132822   3.075   0.091  15.233  0.8187 -0.3016 -1.9388
 3777TIP3    H232823   2.927   0.109  15.205  0.8254 -0.5306 -2.1258
 3778TIP3   OH232824   1.999   6.506  11.576  0.1911  0.4067  0.8159
 3778TIP3    H132825   2.083   6.543  11.549  1.0492 -0.4617  2.1502
 3778TIP3    H232826   2.015   6.474  11.665 -1.5992  0.3284  1.1453
 3779TIP3   OH232827   6.083   4.513  15.587 -0.1495  0.3513 -0.0655
 3779TIP3    H132828   6.174   4.522  15.559 -0.2973  0.4935 -0.5094
 3779TIP3    H232829   6.032   4.545  15.513 -0.5378  1.6332  0.7306
 3780TIP3   OH232830   6.516   1.005   3.332  0.4187 -0.0853 -0.3149
 3780TIP3    H132831   6.499   0.932   3.390  1.0584  1.2570  1.6605
 3780TIP3    H232832   6.435   1.015   3.282 -0.7999 -0.2610  1.5292
 3781TIP3   OH232833   0.354   4.215   2.837  0.1219 -0.0713  0.8232
 3781TIP3    H132834   0.328   4.239   2.748 -0.8939  2.9124  1.8050
 3781TIP3    H232835   0.445   4.245   2.844  0.4368 -0.9533  0.5966
 3782TIP3   OH232836   2.938   4.096  16.245 -0.3140 -0.1134  0.3990
 3782TIP3    H132837   2.995   4.146  16.187 -1.9622 -0.4502 -1.6296
 3782TIP3    H232838   2.989   4.018  16.268  0.9326  0.7586  0.6895
 3783TIP3   OH232839   2.141   1.443   2.933  0.1294  0.0064 -0.1184
 3783TIP3    H132840   2.221   1.412   2.892 -0.1015 -1.1704  0.2841
 3783TIP3    H232841   2.164   1.456   3.025 -0.1009 -0.1603 -0.0368
 3784TIP3   OH232842   2.990   4.690  14.617  0.4646  0.5132 -0.3363
 3784TIP3    H132843   2.918   4.742  14.653 -0.2839  0.3207 -1.4890
 3784TIP3    H232844   2.947   4.625  14.561  1.5583  0.8847 -1.6627
 3785TIP3   OH232845   3.614   1.716   0.730 -0.1567  0.3668  0.1655
 3785TIP3    H132846   3.626   1.623   0.750 -5.4013 -0.1226  2.7269
 3785TIP3    H232847   3.565   1.717   0.648 -2.5257  0.5505  1.5120
 3786TIP3   OH232848   3.120   0.240   0.878  0.0208  0.0471 -0.1104
 3786TIP3    H132849   3.053   0.301   0.909  0.1801  0.6197 -0.8738
 3786TIP3    H232850   3.077   0.189   0.809  0.6366  1.1087 -1.3214
 3787TIP3   OH232851   3.591   4.439   4.484 -0.2619  0.0814  0.8255
 3787TIP3    H132852   3.639   4.437   4.402  0.2726 -0.5085  1.1477
 3787TIP3    H232853   3.589   4.348   4.514 -0.5546  0.2695  1.4004
 3788TIP3   OH232854   2.790   3.061  11.306  0.0178 -0.2491 -0.0297
 3788TIP3    H132855   2.778   3.105  11.390  1.3414  1.2355 -0.5593
 3788TIP3    H232856   2.881   3.078  11.283 -0.5326  0.1336 -2.1386
 3789TIP3   OH232857   4.558   5.289  15.818  0.7615 -0.5322  0.1088
 3789TIP3    H132858   4.601   5.280  15.903  2.1327  1.0824 -0.3755
 3789TIP3    H232859   4.624   5.262  15.754  0.8284  1.1687 -0.5924
 3790TIP3   OH232860   0.648   4.245  11.737  0.1142  0.0100  0.0042
 3790TIP3    H132861   0.740   4.253  11.711  0.1101  1.2629  0.2947
 3790TIP3    H232862   0.646   4.275  11.828 -0.5268 -0.3599  0.1193
 3791TIP3   OH232863   2.718   1.012   4.062  0.0622  0.2360 -0.1121
 3791TIP3    H132864   2.687   1.101   4.049  1.8269  0.9655  0.3883
 3791TIP3    H232865   2.797   1.006   4.008 -0.0211 -1.0293 -0.1285
 3792TIP3   OH232866   4.082   4.338  16.674  0.8257 -0.2290  0.2376
 3792TIP3    H132867   4.115   4.428  16.674  0.0362  0.1009 -1.2987
 3792TIP3    H232868   3.987   4.348  16.662  0.8188 -1.2696 -0.6513
 3793TIP3   OH232869   2.871   6.032  12.780 -0.8688 -0.7928 -0.3253
 3793TIP3    H132870   2.796   5.991  12.822 -1.6273  0.1160 -0.7557
 3793TIP3    H232871   2.848   6.035  12.687 -1.8817  2.5740 -0.1113
 3794TIP3   OH232872   4.051   4.460   2.969  0.1424 -0.1510 -0.7461
 3794TIP3    H132873   4.072   4.452   3.062  2.4344  0.4802 -1.1561
 3794TIP3    H232874   4.055   4.370   2.936  0.8133 -0.2224 -0.5003
 3795TIP3   OH232875   6.030   3.118   0.793  0.0114  0.3812  0.2833
 3795TIP3    H132876   5.982   3.199   0.777 -1.4253 -0.4089  0.4590
 3795TIP3    H232877   6.028   3.107   0.888 -1.8817 -1.0288  0.1423
 3796TIP3   OH232878   1.086   3.172   3.376  0.3174  0.1515 -0.6308
 3796TIP3    H132879   1.172   3.153   3.337  0.3320  0.5361 -0.7974
 3796TIP3    H232880   1.069   3.099   3.435 -0.0283 -0.8248 -1.8972
 3797TIP3   OH232881   1.305   1.038  12.999 -0.3563  0.1301 -0.0269
 3797TIP3    H132882   1.288   1.044  12.905 -0.2766 -1.9219 -0.2225
 3797TIP3    H232883   1.373   0.971  13.007  1.6132  2.1608  1.3507
 3798TIP3   OH232884   5.024   5.987   5.154 -0.7490  0.0545  0.2652
 3798TIP3    H132885   4.964   6.050   5.114  0.1415  0.9876  0.3639
 3798TIP3    H232886   5.111   6.018   5.130 -0.1801  0.4126  2.5676
 3799TIP3   OH232887   5.806   1.070  11.084  0.3147  0.5425  0.2434
 3799TIP3    H132888   5.771   1.159  11.081 -1.1531 -0.0199 -1.4230
 3799TIP3    H232889   5.861   1.064  11.006 -0.3276 -0.2740 -0.1530
 3800TIP3   OH232890   6.678   3.209  13.419 -0.0596  0.5576 -0.3726
 3800TIP3    H132891   6.606   3.207  13.482  0.4878  1.1645  0.2996
 3800TIP3    H232892   6.757   3.206  13.473  0.4292 -0.5677 -1.1208
 3801TIP3   OH232893   3.745   2.492   0.590 -0.5732 -0.4852 -0.2732
 3801TIP3    H132894   3.800   2.414   0.594 -0.5114 -0.4386 -0.2052
 3801TIP3    H232895   3.802   2.561   0.556  0.1502  0.1865  2.0824
 3802TIP3   OH232896   3.677   5.189  14.032  0.1946 -0.2805 -0.9042
 3802TIP3    H132897   3.716   5.225  13.952 -1.1169 -2.0677 -2.4528
 3802TIP3    H232898   3.736   5.118  14.057  0.2006 -0.2133 -0.7304
 3803TIP3   OH232899   5.684   4.310   3.169  0.4494  0.4613 -0.0974
 3803TIP3    H132900   5.646   4.391   3.133 -1.3837 -0.6984 -0.9221
 3803TIP3    H232901   5.659   4.242   3.107 -3.1971 -1.7748  3.3416
 3804TIP3   OH232902   1.140   1.675   5.270 -0.4303 -0.2265 -0.8541
 3804TIP3    H132903   1.079   1.748   5.277  0.2768  0.4207 -1.2018
 3804TIP3    H232904   1.160   1.670   5.176 -0.1215 -0.5651 -0.7721
 3805TIP3   OH232905   1.378   1.328  16.904  0.1024  0.2043 -0.9476
 3805TIP3    H132906   1.432   1.322  16.983  1.9608 -2.1418 -2.2689
 3805TIP3    H232907   1.301   1.377  16.932  0.0132 -1.6559  2.7313
 3806TIP3   OH232908   3.475   3.308  16.562 -0.4048 -0.2191 -0.8375
 3806TIP3    H132909   3.470   3.238  16.628 -0.9511  0.8291  0.2638
 3806TIP3    H232910   3.568   3.319  16.547 -0.1609  0.6902  1.0738
 3807TIP3   OH232911   4.355   0.946  11.321 -0.3875 -0.0335  0.5734
 3807TIP3    H132912   4.391   0.878  11.378  0.6911  0.3157  0.3314
 3807TIP3    H232913   4.386   1.028  11.358  1.1027  0.1694 -0.9738
 3808TIP3   OH232914   2.287   4.965  13.694  0.1685  0.5329  0.6835
 3808TIP3    H132915   2.271   5.011  13.611 -0.8915 -0.8297  0.0921
 3808TIP3    H232916   2.382   4.949  13.694 -0.0234 -0.9517 -1.1415
 3809TIP3   OH232917   4.674   5.629   3.984 -0.6923  0.2101  0.4247
 3809TIP3    H132918   4.693   5.625   3.890  0.2667  1.1256  0.5473
 3809TIP3    H232919   4.750   5.676   4.021 -0.2982 -1.4589  1.8679
 3810TIP3   OH232920   6.051   1.315  11.695 -0.5944  0.5529 -0.4696
 3810TIP3    H132921   6.046   1.236  11.748 -0.9407 -0.5123 -2.0265
 3810TIP3    H232922   6.132   1.358  11.724  0.6891 -1.4192 -0.9700
 3811TIP3   OH232923   4.507   3.918   0.700  0.1522  0.3760  0.9406
 3811TIP3    H132924   4.437   3.966   0.657  2.1505  2.6180 -0.0286
 3811TIP3    H232925   4.507   3.832   0.656  1.2719  2.0990 -2.9076
 3812TIP3   OH232926   4.525   5.342   1.914  0.6678  1.0293 -0.0043
 3812TIP3    H132927   4.439   5.365   1.948  0.0944  0.1071 -0.7839
 3812TIP3    H232928   4.519   5.249   1.892  0.7906  1.6205 -3.0378
 3813TIP3   OH232929   2.012   0.950  14.952  0.0963  0.0662  0.0801
 3813TIP3    H132930   1.966   0.964  15.034 -0.7750 -0.3543 -0.3151
 3813TIP3    H232931   2.022   1.037  14.914 -2.5295  0.0255 -0.9323
 3814TIP3   OH232932   2.130   5.837  10.720  0.0961  0.0982 -0.3858
 3814TIP3    H132933   2.138   5.823  10.626 -0.4132  0.2940 -0.4618
 3814TIP3    H232934   2.192   5.907  10.740 -1.9393  2.2403 -1.1133
 3815TIP3   OH232935   2.696   1.785   5.671 -0.0813 -1.1444 -0.1041
 3815TIP3    H132936   2.652   1.701   5.655 -0.6493 -1.0924  1.0542
 3815TIP3    H232937   2.627   1.850   5.659  0.1923 -0.8981 -0.3319
 3816TIP3   OH232938   0.690   0.276   3.806  0.0565 -0.5132  0.0269
 3816TIP3    H132939   0.615   0.332   3.784 -0.5569 -0.6443  1.6417
 3816TIP3    H232940   0.739   0.269   3.725 -1.2879  0.1914 -0.8868
 3817TIP3   OH232941   5.807   4.225  14.521  0.4437 -0.5801  0.2610
 3817TIP3    H132942   5.856   4.307  14.524  1.6934 -1.1182 -2.3328
 3817TIP3    H232943   5.833   4.178  14.600  1.1096  0.7666  0.8663
 3818TIP3   OH232944   2.465   5.773   0.518 -0.1665 -0.2744  0.2518
 3818TIP3    H132945   2.517   5.703   0.478 -1.1580 -1.3495  0.7793
 3818TIP3    H232946   2.508   5.854   0.489  0.6015 -1.0679 -0.9441
 3819TIP3   OH232947   1.521   4.043   5.209  0.3382 -0.1231 -0.5066
 3819TIP3    H132948   1.610   4.076   5.194  0.0710  0.8995  0.0383
 3819TIP3    H232949   1.475   4.117   5.250 -1.1003 -0.2253 -1.8406
 3820TIP3   OH232950   6.295   0.327  14.947  0.5175  0.1592  0.8744
 3820TIP3    H132951   6.315   0.334  14.854 -0.7515 -3.4072  0.1878
 3820TIP3    H232952   6.279   0.417  14.975  3.4146  1.6397 -1.6744
 3821TIP3   OH232953   1.618   2.436  12.810  0.3491  0.1888 -0.6732
 3821TIP3    H132954   1.595   2.353  12.768 -1.6162 -1.7800  3.7351
 3821TIP3    H232955   1.537   2.487  12.808  0.2816  0.1464  0.4526
 3822TIP3   OH232956   3.142   4.311  12.561 -0.0809  0.1446 -0.6202
 3822TIP3    H132957   3.102   4.334  12.645  1.0248  0.2806 -0.1167
 3822TIP3    H232958   3.155   4.395  12.516 -0.8935  0.0539 -1.0455
 3823TIP3   OH232959   1.474   0.001  16.909  0.1106  0.3620 -0.3647
 3823TIP3    H132960   1.413   0.054  16.961  2.1537  1.8152  0.7507
 3823TIP3    H232961   1.521  -0.051  16.974  0.5564 -0.1872 -1.1114
 3824TIP3   OH232962   3.518   4.115  11.462  0.0729 -0.6131 -0.1176
 3824TIP3    H132963   3.432   4.158  11.457  0.0480 -0.0391  3.2997
 3824TIP3    H232964   3.579   4.180  11.426 -0.1077  2.1479  3.9943
 3825TIP3   OH232965   0.157   0.038   3.489  0.2249 -0.3404 -0.5571
 3825TIP3    H132966   0.120   0.088   3.562  0.0468  0.0614 -0.9217
 3825TIP3    H232967   0.200   0.103   3.434  2.5024 -0.8980  0.4276
 3826TIP3   OH232968   1.717   3.205  12.922  0.1856 -0.4002 -0.7009
 3826TIP3    H132969   1.746   3.117  12.944  0.9187 -0.0518 -0.2155
 3826TIP3    H232970   1.790   3.261  12.949 -1.3237  0.6283  1.4477
 3827TIP3   OH232971   1.263   0.496  11.221 -0.2910 -0.0863  0.0566
 3827TIP3    H132972   1.284   0.557  11.151  0.5437 -0.8005 -0.3352
 3827TIP3    H232973   1.339   0.498  11.279 -0.4483 -0.4244  0.2835
 3828TIP3   OH232974   3.135   5.198   3.624 -0.1420  0.3906 -0.4415
 3828TIP3    H132975   3.061   5.228   3.677 -0.4818 -2.0879  0.6261
 3828TIP3    H232976   3.099   5.125   3.573  1.2708 -0.0377 -0.8500
 3829TIP3   OH232977   5.609   5.184  16.358  0.2094 -0.2162  0.9028
 3829TIP3    H132978   5.551   5.217  16.427 -1.9330 -0.1290 -0.8201
 3829TIP3    H232979   5.605   5.252  16.290  0.3431 -1.3796 -0.2948
 3830TIP3   OH232980   3.896   3.361  17.156  0.1327  0.1402 -0.5312
 3830TIP3    H132981   3.843   3.433  17.188 -0.4267  0.2677 -1.6919
 3830TIP3    H232982   3.961   3.402  17.098 -1.7821 -0.4300 -3.2844
 3831TIP3   OH232983   5.379   6.755  15.833  0.6328 -0.2152  0.6905
 3831TIP3    H132984   5.460   6.708  15.815  0.9043 -0.4620  2.3951
 3831TIP3    H232985   5.371   6.818  15.762  1.3372 -1.4475 -0.5222
 3832TIP3   OH232986   6.259   6.082  15.870 -0.0827 -0.2013  0.1471
 3832TIP3    H132987   6.227   6.149  15.809 -0.2436  1.8836  2.3452
 3832TIP3    H232988   6.347   6.060  15.839  0.0161  1.1251 -0.5759
 3833TIP3   OH232989   2.126   5.275  15.692 -0.3517  0.1330 -0.4460
 3833TIP3    H132990   2.077   5.355  15.672 -1.8195 -0.1179  1.8128
 3833TIP3    H232991   2.197   5.304  15.750 -0.2042 -0.0404 -0.5394
 3834TIP3   OH232992   6.772   3.128  11.977 -0.4685  0.0506  0.6708
 3834TIP3    H132993   6.748   3.046  12.022  0.4295 -0.5824  0.0325
 3834TIP3    H232994   6.867   3.134  11.987 -0.1066 -0.4912 -1.6872
 3835TIP3   OH232995   6.430   2.046   3.279 -0.5009  0.4133 -0.1335
 3835TIP3    H132996   6.383   2.127   3.295  1.5310  1.6619 -0.0903
 3835TIP3    H232997   6.455   2.015   3.366  1.0950  1.2860 -0.2370
 3836TIP3   OH232998   1.712   1.140   4.984 -0.1336 -0.2276  0.4053
 3836TIP3    H132999   1.677   1.180   5.064  3.4629  0.3146  1.8937
 3836TIP3    H233000   1.690   1.047   4.991  0.9132 -0.3654  2.5826
 3837TIP3   OH233001   5.107   1.221  11.056  0.1188  0.0031  0.2736
 3837TIP3    H133002   5.181   1.227  10.996 -0.8846  0.7753 -0.9448
 3837TIP3    H233003   5.054   1.149  11.021 -0.9960  1.1146 -0.4229
 3838TIP3   OH233004   4.911   5.413  12.538  0.1292  0.2635 -0.5277
 3838TIP3    H133005   4.938   5.322  12.533  0.6285  0.4439 -1.2947
 3838TIP3    H233006   4.840   5.421  12.474 -0.1437  0.3426 -0.2206
 3839TIP3   OH233007   3.113   0.976   4.306  0.2378 -0.5905  0.1893
 3839TIP3    H133008   3.207   0.985   4.294  0.4335 -1.7300  0.7154
 3839TIP3    H233009   3.079   0.955   4.219  0.5009 -0.4407  0.0494
 3840TIP3   OH233010   6.258   4.629   3.280  0.6302  0.1617 -0.4349
 3840TIP3    H133011   6.268   4.565   3.351 -0.3916  0.3247 -0.1263
 3840TIP3    H233012   6.328   4.608   3.219  0.1568 -1.4478 -0.4740
 3841TIP3   OH233013   5.371   5.629  13.719 -0.2452 -0.1005 -1.0350
 3841TIP3    H133014   5.384   5.656  13.809 -0.1883 -1.1245 -0.7167
 3841TIP3    H233015   5.277   5.630  13.705 -0.2820 -0.3940 -0.8110
 3842TIP3   OH233016   1.388   3.921  15.834 -0.1483 -0.1649  0.3716
 3842TIP3    H133017   1.331   3.845  15.844 -1.0235  0.5608  1.0589
 3842TIP3    H233018   1.428   3.932  15.921  0.7901 -0.4541 -0.0041
 3843TIP3   OH233019   6.404   1.216   4.501  0.0675 -0.6595  0.4008
 3843TIP3    H133020   6.320   1.236   4.460  0.2514 -0.8106 -0.0449
 3843TIP3    H233021   6.436   1.138   4.456  0.5243 -0.5100  0.4574
 3844TIP3   OH233022   1.106   0.347   1.828  0.0044 -0.2670 -0.1433
 3844TIP3    H133023   1.186   0.363   1.879 -0.7749 -0.4849  1.1900
 3844TIP3    H233024   1.134   0.288   1.758  1.2352  0.5295 -0.3633
 3845TIP3   OH233025   6.339   3.707   0.968 -0.4939 -0.1049  0.1768
 3845TIP3    H133026   6.351   3.725   1.061  2.2588  0.4939 -0.2074
 3845TIP3    H233027   6.428   3.709   0.932 -1.2651 -2.3452 -2.1275
 3846TIP3   OH233028   4.018   3.760   1.558  0.0922 -0.1370  0.3437
 3846TIP3    H133029   3.929   3.794   1.546  1.0837  1.6999 -2.9666
 3846TIP3    H233030   4.007   3.687   1.619 -3.3087  1.4360  1.9288
 3847TIP3   OH233031   1.356   1.020   0.389 -0.4455 -0.4136 -0.4894
 3847TIP3    H133032   1.270   1.063   0.380  0.1756  0.7564 -0.9995
 3847TIP3    H233033   1.339   0.946   0.448 -1.6397  0.2948  0.1043
 3848TIP3   OH233034   4.030   0.383  11.765  0.2595  0.0136  0.1926
 3848TIP3    H133035   4.054   0.465  11.721  0.1175 -0.6970 -1.2758
 3848TIP3    H233036   3.959   0.348  11.712 -0.6744 -0.3645  1.6485
 3849TIP3   OH233037   0.086   5.309  17.105 -0.1476 -0.3063 -0.0332
 3849TIP3    H133038   0.013   5.286  17.047 -1.3805 -0.5299  1.5508
 3849TIP3    H233039   0.151   5.241  17.089 -1.1206 -1.2694 -0.0310
 3850TIP3   OH233040   1.644   4.841   0.790  0.2129  0.2066 -0.2443
 3850TIP3    H133041   1.722   4.805   0.748 -1.8246 -1.7916 -2.7403
 3850TIP3    H233042   1.578   4.839   0.721 -2.5037  0.1483  2.1785
 3851TIP3   OH233043   4.682   3.212  13.202  0.4408 -0.0943  0.2450
 3851TIP3    H133044   4.670   3.259  13.284 -0.0657 -0.4263  0.3650
 3851TIP3    H233045   4.691   3.120  13.228  0.2554 -0.2042 -0.0757
 3852TIP3   OH233046   0.400   4.656  16.974  0.6248  0.6974 -0.2908
 3852TIP3    H133047   0.433   4.569  16.994  0.8945  0.1934 -2.6456
 3852TIP3    H233048   0.471   4.700  16.928  0.5815  2.2951  1.0479
 3853TIP3   OH233049   3.494   1.182   0.692  0.1350 -0.3722  0.3996
 3853TIP3    H133050   3.429   1.166   0.761  1.7731 -2.6238  1.5316
 3853TIP3    H233051   3.553   1.106   0.696  0.9901 -0.0106 -2.7274
 3854TIP3   OH233052   4.580   5.596  13.761 -0.5674  0.5455  0.3990
 3854TIP3    H133053   4.606   5.573  13.671 -0.0388  0.5947  0.5344
 3854TIP3    H233054   4.536   5.518  13.794  1.2537 -0.3362  0.8728
 3855TIP3   OH233055   6.225   5.220   2.110 -0.1460 -0.0570  0.2243
 3855TIP3    H133056   6.174   5.141   2.095  0.4430 -0.3673 -0.1997
 3855TIP3    H233057   6.177   5.289   2.065 -0.2360 -0.3284 -0.0970
 3856TIP3   OH233058   2.898   2.754  12.940 -0.2168  0.2638  0.4624
 3856TIP3    H133059   2.898   2.770  13.034  1.1943 -0.0969  0.5374
 3856TIP3    H233060   2.891   2.659  12.931  2.4619 -0.0073  0.3309
 3857TIP3   OH233061   0.518   3.033  16.670 -0.0885  0.1169 -0.3499
 3857TIP3    H133062   0.482   3.021  16.582 -0.2083  2.9705 -0.8004
 3857TIP3    H233063   0.606   3.069  16.656  0.6602 -1.1771  0.7453
 3858TIP3   OH233064   4.542   0.575   2.706 -0.1515 -0.5404 -0.6385
 3858TIP3    H133065   4.499   0.522   2.639 -0.5444 -1.3103  0.2033
 3858TIP3    H233066   4.635   0.550   2.700  0.2085  0.9977 -2.3397
 3859TIP3   OH233067   1.433   4.078  13.066 -0.2918  0.0107  0.1693
 3859TIP3    H133068   1.402   4.084  13.157 -1.0431 -0.8842 -0.0121
 3859TIP3    H233069   1.357   4.044  13.018  0.6549 -1.2455 -0.4761
 3860TIP3   OH233070   0.662   2.345  17.080  0.2906  0.1585  0.5798
 3860TIP3    H133071   0.654   2.359  16.986  0.8166 -1.2783  0.2968
 3860TIP3    H233072   0.656   2.250  17.091  0.0434  0.3155  2.0180
 3861TIP3   OH233073   3.037   2.277  15.526 -0.1765 -0.3487 -0.0154
 3861TIP3    H133074   2.957   2.269  15.578 -0.3974  1.0795 -0.0937
 3861TIP3    H233075   3.006   2.287  15.436  0.1078 -0.3667 -0.1161
 3862TIP3   OH233076   4.635   0.961  13.599  0.4496 -0.1437 -0.2495
 3862TIP3    H133077   4.667   1.037  13.551  1.5096 -0.5959 -0.3066
 3862TIP3    H233078   4.712   0.905  13.609 -0.5602 -1.8160 -1.3501
 3863TIP3   OH233079   4.859   6.215  17.203 -0.3467  0.0925 -0.7726
 3863TIP3    H133080   4.839   6.308  17.202  1.8888  0.6430 -1.2930
 3863TIP3    H233081   4.930   6.206  17.268 -2.3926 -1.7577  1.4159
 3864TIP3   OH233082   6.326   3.285   2.204  0.3269 -0.3084 -0.0073
 3864TIP3    H133083   6.243   3.270   2.159  0.7019 -1.3038 -0.3772
 3864TIP3    H233084   6.387   3.224   2.164  2.2659  2.8832 -2.3849
 3865TIP3   OH233085   3.757   1.328   2.739 -0.1259 -0.0119 -0.2553
 3865TIP3    H133086   3.838   1.375   2.758  0.3605 -1.1346  0.5071
 3865TIP3    H233087   3.776   1.237   2.759 -1.5663 -0.3091 -0.1168
 3866TIP3   OH233088   5.656   3.443  11.032 -0.0828 -0.0391  0.1871
 3866TIP3    H133089   5.607   3.513  10.988 -0.4175 -0.2497  0.2272
 3866TIP3    H233090   5.657   3.469  11.124 -1.8273 -1.0132  0.5252
 3867TIP3   OH233091   1.691   5.868  15.601  0.0396  0.4091 -0.0728
 3867TIP3    H133092   1.660   5.886  15.689 -1.8862  0.3244 -0.6956
 3867TIP3    H233093   1.689   5.953  15.556 -0.9510  0.1282 -0.5942
 3868TIP3   OH233094   2.646   0.719   1.999 -0.1693  0.1542 -0.1019
 3868TIP3    H133095   2.718   0.780   2.015  0.7153 -0.9225  0.0585
 3868TIP3    H233096   2.585   0.735   2.071  2.2793 -2.4380  2.7860
 3869TIP3   OH233097   1.176   3.198   4.174 -0.3804 -0.3496  0.3173
 3869TIP3    H133098   1.244   3.261   4.201 -0.3499 -0.7428  1.2175
 3869TIP3    H233099   1.162   3.144   4.252 -0.9897 -0.9390 -0.1887
 3870TIP3   OH233100   1.453   1.292  16.160  0.5574  0.2973  0.5830
 3870TIP3    H133101   1.412   1.230  16.100  1.6600  0.8372 -0.7800
 3870TIP3    H233102   1.381   1.348  16.190  0.1153  0.6728 -1.0647
 3871TIP3   OH233103   1.532   2.610  16.501 -0.4479 -0.5984 -0.5807
 3871TIP3    H133104   1.551   2.703  16.498 -1.1714 -0.4597 -1.4493
 3871TIP3    H233105   1.590   2.571  16.436  0.1087 -0.8171  0.0327
 3872TIP3   OH233106   2.211   1.205  13.638 -0.4329 -0.1215 -0.4449
 3872TIP3    H133107   2.293   1.255  13.632 -0.7112  0.4183  0.1158
 3872TIP3    H233108   2.228   1.126  13.588 -0.0131  0.5778 -1.4426
 3873TIP3   OH233109   2.577   0.407  13.946 -0.4374 -0.2201 -0.0791
 3873TIP3    H133110   2.535   0.492  13.939 -0.3976 -0.2698 -1.0903
 3873TIP3    H233111   2.641   0.405  13.875  1.4663 -0.0723  1.5496
 3874TIP3   OH233112   2.689   3.667   2.797  0.0073  0.2118 -0.8260
 3874TIP3    H133113   2.695   3.631   2.708  1.6121  0.8578 -1.0033
 3874TIP3    H233114   2.745   3.610   2.850 -2.6582 -1.5608  0.3086
 3875TIP3   OH233115   5.719   1.363   4.929 -0.4094  0.3251  0.3448
 3875TIP3    H133116   5.765   1.444   4.950 -0.3849  0.1468  0.9897
 3875TIP3    H233117   5.777   1.293   4.959 -0.7819  0.0838  0.5163
 3876TIP3   OH233118   4.586   0.255  15.432 -0.4651  0.2286  0.4314
 3876TIP3    H133119   4.509   0.289  15.479 -0.2954  1.3436 -0.0572
 3876TIP3    H233120   4.645   0.331  15.426  0.5651 -0.5407  0.5707
 3877TIP3   OH233121   1.659   1.060  11.930 -0.2459 -0.1866 -0.1301
 3877TIP3    H133122   1.717   1.031  11.860 -1.8565 -0.8461 -1.2443
 3877TIP3    H233123   1.718   1.086  12.001  1.4144  0.0997 -1.5573
 3878TIP3   OH233124   2.286   5.495   6.244 -0.1514 -0.0909  0.0635
 3878TIP3    H133125   2.205   5.540   6.268  0.1056  0.5292 -0.2110
 3878TIP3    H233126   2.320   5.460   6.326 -0.6631 -0.2939  0.1893
 3879TIP3   OH233127   5.645   0.173   5.542 -0.1007  0.2778  0.0280
 3879TIP3    H133128   5.605   0.244   5.493 -1.1472  0.6007  1.2826
 3879TIP3    H233129   5.737   0.199   5.552  0.1029  0.2505 -1.6068
 3880TIP3   OH233130   3.551   0.482   0.814 -0.2997 -0.3956 -0.4984
 3880TIP3    H133131   3.580   0.405   0.765  0.5025 -0.4716  0.0799
 3880TIP3    H233132   3.485   0.448   0.875 -4.8515  0.3143 -4.3889
 3881TIP3   OH233133   5.298   4.077  11.791  0.2414 -1.0918 -0.1368
 3881TIP3    H133134   5.317   4.147  11.729 -1.6335 -0.6017 -0.2449
 3881TIP3    H233135   5.373   4.018  11.786 -0.1783 -1.5278 -3.4912
 3882TIP3   OH233136   3.329   1.865   3.961 -0.0698  0.2088 -0.3290
 3882TIP3    H133137   3.382   1.940   3.932 -1.7998  1.4218 -0.5335
 3882TIP3    H233138   3.280   1.899   4.035  0.7392 -1.4392  1.0266
 3883TIP3   OH233139   5.680   6.640   1.697 -0.1391 -0.1579  0.0107
 3883TIP3    H133140   5.588   6.656   1.679 -0.6916 -1.0871  1.7711
 3883TIP3    H233141   5.723   6.725   1.683 -1.4533  0.5805  0.3226
 3884TIP3   OH233142   2.872   5.601  13.326  0.0778 -0.0291 -0.4013
 3884TIP3    H133143   2.876   5.670  13.259 -1.3619  0.8575  0.3896
 3884TIP3    H233144   2.939   5.626  13.390  1.5142 -0.9193 -1.4916
 3885TIP3   OH233145   1.669   4.307  14.570 -0.0854 -0.1845  0.0230
 3885TIP3    H133146   1.695   4.238  14.631  0.9597 -0.1316 -0.3303
 3885TIP3    H233147   1.608   4.361  14.619 -2.2675 -2.2849 -0.2335
 3886TIP3   OH233148   5.766   5.742  12.072 -0.2733  0.1362  0.2456
 3886TIP3    H133149   5.823   5.780  12.140  1.1273 -0.6515 -0.4331
 3886TIP3    H233150   5.806   5.769  11.990 -1.8900  0.9851 -0.2873
 3887TIP3   OH233151   4.781   6.019   1.809 -0.1032  0.6198  0.4920
 3887TIP3    H133152   4.809   6.111   1.813  1.9852  0.0158  0.8535
 3887TIP3    H233153   4.820   5.986   1.728 -1.4000  0.1814  0.0180
 3888TIP3   OH233154   2.478   6.170   3.615 -0.6698  0.6886 -0.6511
 3888TIP3    H133155   2.464   6.078   3.593  2.1514  0.4148 -1.8248
 3888TIP3    H233156   2.485   6.215   3.530  0.2290  1.5445 -0.1560
 3889TIP3   OH233157   3.405   3.184   0.557  0.4121  0.3973  0.2833
 3889TIP3    H133158   3.365   3.253   0.504  2.5330  1.2829 -0.2534
 3889TIP3    H233159   3.422   3.113   0.495 -3.0240 -1.3507  1.0651
 3890TIP3   OH233160   3.593   0.341   5.643 -0.1198  0.0836  0.5507
 3890TIP3    H133161   3.652   0.293   5.585  1.7664  2.0893  0.6563
 3890TIP3    H233162   3.561   0.414   5.590 -0.3336  0.5636  1.3193
 3891TIP3   OH233163   5.058   5.160  12.490 -0.3622 -0.6523 -0.2174
 3891TIP3    H133164   5.071   5.095  12.559  2.4386  0.0620  0.0700
 3891TIP3    H233165   5.143   5.204  12.482 -0.7958 -0.1197 -3.5620
 3892TIP3   OH233166   2.401   0.666  12.371 -0.4139  0.6105 -0.0600
 3892TIP3    H133167   2.310   0.690  12.389 -0.6279 -0.4534  0.3471
 3892TIP3    H233168   2.418   0.700  12.283 -0.9698  1.4521  0.1467
 3893TIP3   OH233169   4.486   1.104  13.143 -0.2449  0.3727  0.1825
 3893TIP3    H133170   4.428   1.028  13.152  0.5987 -0.1650  1.3071
 3893TIP3    H233171   4.446   1.156  13.073 -1.4794 -0.5176  0.1859
 3894TIP3   OH233172   4.495   4.758  15.634 -0.0859 -0.0530 -0.5712
 3894TIP3    H133173   4.430   4.828  15.629  0.4750  0.5210  0.0507
 3894TIP3    H233174   4.480   4.706  15.555 -0.8583  0.4591 -0.7719
 3895TIP3   OH233175   1.569   5.014   2.928 -0.6306  0.1668 -0.5191
 3895TIP3    H133176   1.480   5.010   2.892 -0.6253  0.1608 -0.5312
 3895TIP3    H233177   1.576   5.103   2.964 -1.5916 -0.6486  1.8834
 3896TIP3   OH233178   1.189   3.234  15.457 -0.0748 -0.1158 -0.5148
 3896TIP3    H133179   1.239   3.236  15.375  3.1384  1.4372  1.2917
 3896TIP3    H233180   1.111   3.285  15.438  1.0240  0.9903 -2.3963
 3897TIP3   OH233181   4.874   1.401   5.703  0.4267 -0.0507 -0.1963
 3897TIP3    H133182   4.836   1.325   5.660  0.7915  0.6190 -1.7920
 3897TIP3    H233183   4.798   1.454   5.728  0.1461 -1.1807  1.4755
 3898TIP3   OH233184   3.996   0.034  11.490  0.0399 -0.4353  0.6202
 3898TIP3    H133185   4.002   0.129  11.485 -2.2980 -0.2639 -0.2767
 3898TIP3    H233186   4.087   0.003  11.482  0.7176  1.6710 -0.4785
 3899TIP3   OH233187   4.028   0.543  11.284  0.3656 -0.0641 -0.1520
 3899TIP3    H133188   4.108   0.584  11.250 -0.2019  0.0909 -1.3695
 3899TIP3    H233189   3.965   0.615  11.289  0.4142 -0.0941  1.2445
 3900TIP3   OH233190   0.615   4.405   5.618  0.1316  0.1070  0.4719
 3900TIP3    H133191   0.654   4.336   5.565 -0.1794  0.6705 -0.5211
 3900TIP3    H233192   0.560   4.454   5.557 -0.9012  0.2762  1.5033
 3901TIP3   OH233193   6.665   4.773  11.646  0.1733 -0.3095  0.0162
 3901TIP3    H133194   6.728   4.839  11.673  1.2268 -1.4728  0.5361
 3901TIP3    H233195   6.643   4.726  11.727  1.8022 -2.5185 -0.7062
 3902TIP3   OH233196   2.804   6.129  16.722  0.3861 -0.6358 -0.2177
 3902TIP3    H133197   2.790   6.097  16.811  0.4083 -0.6658 -0.2242
 3902TIP3    H233198   2.880   6.080  16.690 -0.6090 -1.8409 -0.8490
 3903TIP3   OH233199   1.226   3.549  13.810 -0.2944 -0.4656 -0.2590
 3903TIP3    H133200   1.289   3.573  13.879 -0.6828  0.1240 -0.0994
 3903TIP3    H233201   1.218   3.628  13.757  0.3423 -1.0557 -1.2596
 3904TIP3   OH233202   6.060   5.633   0.213  0.3877 -0.1458  0.3371
 3904TIP3    H133203   5.981   5.606   0.167 -0.3400  0.1220  1.3881
 3904TIP3    H233204   6.090   5.554   0.259  0.2050 -0.0236  0.6703
 3905TIP3   OH233205   0.525   3.347   5.106 -0.0287 -0.1556  0.8886
 3905TIP3    H133206   0.500   3.440   5.106 -2.2585 -0.6695 -0.2683
 3905TIP3    H233207   0.566   3.333   5.021 -1.4994 -0.5875  0.2074
 3906TIP3   OH233208   6.524   6.569   4.219  0.3202  0.0742 -0.1138
 3906TIP3    H133209   6.602   6.528   4.257 -0.0303 -0.1292  0.4064
 3906TIP3    H233210   6.519   6.654   4.263  1.1233  0.7576 -1.2890
 3907TIP3   OH233211   1.324   6.023  12.454  0.1747 -0.6622 -0.3832
 3907TIP3    H133212   1.343   5.980  12.538  0.8714  0.3731  0.0048
 3907TIP3    H233213   1.229   6.022  12.448  0.0488  0.4255  1.0665
 3908TIP3   OH233214   5.280   5.365  16.221  0.4218 -0.6268 -0.0584
 3908TIP3    H133215   5.246   5.301  16.284  1.4926 -0.0502  1.1529
 3908TIP3    H233216   5.352   5.408  16.267  1.1647 -0.0844 -1.6420
 3909TIP3   OH233217   2.719   4.803  14.296 -0.3414  0.1892  0.6346
 3909TIP3    H133218   2.710   4.709  14.280 -0.2716 -0.1492  2.3656
 3909TIP3    H233219   2.807   4.824  14.264  0.8955 -1.0371  2.9196
 3910TIP3   OH233220   4.885   5.889  16.203 -0.4257  0.7188 -0.2459
 3910TIP3    H133221   4.800   5.927  16.226 -0.9947 -0.5467 -0.1406
 3910TIP3    H233222   4.896   5.816  16.264  0.5523  0.6370 -0.5113
 3911TIP3   OH233223   3.219   6.597  15.515  0.1648 -0.3128  0.5276
 3911TIP3    H133224   3.190   6.564  15.601  0.8655 -1.7142  0.2612
 3911TIP3    H233225   3.222   6.519  15.460  0.1141  0.5114 -0.6813
 3912TIP3   OH233226   3.967   6.268  13.252  0.2927  0.6107  0.4912
 3912TIP3    H133227   3.874   6.251  13.242  0.4364  0.8936 -2.1021
 3912TIP3    H233228   4.000   6.195  13.304 -0.8771 -1.2293 -1.2301
 3913TIP3   OH233229   3.378   2.098   6.338  0.2109 -0.7726  0.0692
 3913TIP3    H133230   3.318   2.067   6.269 -0.4189 -0.3849  0.4262
 3913TIP3    H233231   3.407   2.184   6.306 -0.7270 -0.2192  0.6455
 3914TIP3   OH233232   5.806   2.263  15.144 -0.4550 -0.3930 -0.4220
 3914TIP3    H133233   5.777   2.201  15.077 -1.7235  0.6311 -0.8703
 3914TIP3    H233234   5.858   2.327  15.097 -0.7154 -0.0879 -0.2989
 3915TIP3   OH233235   3.466   6.030   5.410  0.0616  0.0348 -0.2645
 3915TIP3    H133236   3.493   5.947   5.448  0.5974  0.7098  0.8665
 3915TIP3    H233237   3.544   6.063   5.366  0.4083  0.8219  0.9080
 3916TIP3   OH233238   3.120   1.199   2.946 -0.4674 -0.5384  0.0006
 3916TIP3    H133239   3.174   1.153   3.011 -1.3021  0.3869  1.4088
 3916TIP3    H233240   3.149   1.164   2.862  1.4445 -0.9687  0.7783
 3917TIP3   OH233241   5.469   2.549   1.228 -0.1318 -0.0890 -0.0811
 3917TIP3    H133242   5.448   2.464   1.265 -2.2071 -0.5235 -2.0026
 3917TIP3    H233243   5.421   2.612   1.282 -0.1252 -0.3348  0.2083
 3918TIP3   OH233244   3.618   0.198   2.114 -0.1165 -0.3050 -0.0646
 3918TIP3    H133245   3.629   0.154   2.030  0.8359 -0.3098  0.0463
 3918TIP3    H233246   3.607   0.127   2.177  2.2147 -0.5032  0.2338
 3919TIP3   OH233247   0.516   2.999   3.962  0.0747  0.5593 -0.2027
 3919TIP3    H133248   0.472   3.011   3.878  0.7227  0.7728 -0.5188
 3919TIP3    H233249   0.593   2.946   3.941 -1.7000 -2.7767  0.8304
 3920TIP3   OH233250   4.589   5.013   1.351 -0.3663  0.1744 -0.5176
 3920TIP3    H133251   4.618   5.078   1.415 -0.9734  0.7239 -0.7873
 3920TIP3    H233252   4.647   4.939   1.364 -0.9653 -0.0335  1.2037
 3921TIP3   OH233253   5.659   5.910  16.672 -0.1592 -0.0604 -0.1937
 3921TIP3    H133254   5.726   5.844  16.684 -3.2240 -3.5146 -0.3569
 3921TIP3    H233255   5.664   5.965  16.750  1.9860 -0.9272  0.3414
 3922TIP3   OH233256   3.994   1.235   3.328  0.4972  0.4297  0.6443
 3922TIP3    H133257   3.931   1.227   3.400 -1.4811 -0.0829 -1.0475
 3922TIP3    H233258   3.965   1.312   3.279  0.5351 -0.3981 -0.7338
 3923TIP3   OH233259   3.478   6.209   3.725 -0.0403 -0.3327  0.0865
 3923TIP3    H133260   3.434   6.145   3.670  2.9099 -2.0391 -0.4851
 3923TIP3    H233261   3.435   6.200   3.810 -1.7569 -0.7814 -0.7802
 3924TIP3   OH233262   4.132   5.782   3.149 -0.2950 -0.0418 -0.0328
 3924TIP3    H133263   4.067   5.829   3.096  0.1948 -0.2948 -0.8709
 3924TIP3    H233264   4.103   5.795   3.240 -0.8351  0.8609 -0.3264
 3925TIP3   OH233265   2.977   5.008  15.624  0.3589  0.0886 -0.8001
 3925TIP3    H133266   3.061   4.982  15.660  0.4084 -0.3682 -1.2235
 3925TIP3    H233267   2.977   5.104  15.628 -0.1855  0.0502  1.6043
 3926TIP3   OH233268   6.020   3.529   5.254 -0.3919  1.0833 -0.3391
 3926TIP3    H133269   5.988   3.439   5.257  0.8628  0.6294  0.9641
 3926TIP3    H233270   5.981   3.566   5.175 -0.2190 -0.8869 -1.4158
 3927TIP3   OH233271   3.820   1.414   0.602  0.2388  0.0674 -0.0009
 3927TIP3    H133272   3.807   1.432   0.695 -1.6831  1.5231 -0.4947
 3927TIP3    H233273   3.891   1.473   0.575  0.1314  0.3469  0.3296
 3928TIP3   OH233274   4.477   6.713  13.422  0.1865 -0.1254 -0.0209
 3928TIP3    H133275   4.441   6.764  13.350 -0.4616 -1.4202 -0.6376
 3928TIP3    H233276   4.484   6.776  13.494 -2.4772  0.4123 -0.1201
 3929TIP3   OH233277   0.309   2.875   4.099 -0.4448  0.1697  0.0011
 3929TIP3    H133278   0.345   2.821   4.170  1.0371 -0.9484 -1.5080
 3929TIP3    H233279   0.386   2.916   4.059 -1.3777  1.9369 -0.1024
 3930TIP3   OH233280   1.385   1.629   0.186  0.2366 -0.6777  0.0209
 3930TIP3    H133281   1.445   1.689   0.141 -0.1638 -0.9127 -0.8424
 3930TIP3    H233282   1.317   1.686   0.222 -0.2664 -0.6144 -0.9919
 3931TIP3   OH233283   5.634   1.015  12.724 -0.2810 -0.0132 -0.1596
 3931TIP3    H133284   5.631   1.024  12.629 -1.2998 -0.0555 -0.1404
 3931TIP3    H233285   5.600   1.098  12.758 -2.1803 -0.8405  0.1148
 3932TIP3   OH233286   5.699   4.882   6.146 -0.2979  0.2069  0.5306
 3932TIP3    H133287   5.733   4.955   6.198 -1.4949  0.5525  0.8593
 3932TIP3    H233288   5.615   4.861   6.186 -0.4246 -0.7148 -0.1735
 3933TIP3   OH233289   1.135   2.390   0.810  0.3330 -0.1830  0.2432
 3933TIP3    H133290   1.045   2.380   0.778 -0.1042 -0.6414  1.5584
 3933TIP3    H233291   1.154   2.308   0.856  1.1592  0.1940  0.6037
 3934TIP3   OH233292   5.284   2.322   1.281  0.5526  0.2448 -0.3288
 3934TIP3    H133293   5.235   2.352   1.205  0.6910  0.2369 -0.4219
 3934TIP3    H233294   5.259   2.230   1.292  1.5907 -0.1638 -1.2160
 3935TIP3   OH233295   4.214   5.170   0.042  0.8523 -0.0186  0.3444
 3935TIP3    H133296   4.211   5.178   0.138  1.7194 -1.9103  0.5648
 3935TIP3    H233297   4.177   5.252   0.011  1.8515  1.2488  2.2854
 3936TIP3   OH233298   0.149   5.940   1.883  0.1758  0.0995 -0.3359
 3936TIP3    H133299   0.085   6.009   1.897  0.7289  0.4541  0.4911
 3936TIP3    H233300   0.110   5.885   1.815 -1.0761  0.2178  0.2607
 3937TIP3   OH233301   5.271   4.931   4.286 -0.1956 -0.2059  0.3563
 3937TIP3    H133302   5.230   4.854   4.325  0.6032  0.1895  2.0794
 3937TIP3    H233303   5.214   4.954   4.212 -0.5743 -2.2805 -0.0720
 3938TIP3   OH233304   1.320   0.378  16.856 -0.1086 -0.0793  0.7264
 3938TIP3    H133305   1.404   0.338  16.835  0.3298  0.3147  1.6807
 3938TIP3    H233306   1.339   0.471  16.865 -1.1070  0.3926 -1.4256
 3939TIP3   OH233307   5.079   6.660  16.650 -0.0454  0.0952  0.6644
 3939TIP3    H133308   5.008   6.618  16.601 -0.2763  1.2706 -0.0542
 3939TIP3    H233309   5.158   6.617  16.618 -0.3899 -0.9974  1.2322
 3940TIP3   OH233310   2.169   0.871   6.569 -0.6067  0.8157  0.0926
 3940TIP3    H133311   2.215   0.900   6.490  0.7924 -0.5340  0.3539
 3940TIP3    H233312   2.108   0.804   6.539 -1.2106  1.4268 -0.0438
 3941TIP3   OH233313   1.766   0.555   3.188  0.7427 -1.0122 -0.8688
 3941TIP3    H133314   1.759   0.618   3.117  1.0188  0.4947  0.3897
 3941TIP3    H233315   1.858   0.558   3.215  0.4033 -0.7340  0.2801
 3942TIP3   OH233316   5.209   4.251  14.016  0.2263  0.7167 -0.3072
 3942TIP3    H133317   5.119   4.248  13.984  0.2460  0.8081 -0.3685
 3942TIP3    H233318   5.207   4.201  14.098  0.5187 -1.0485 -1.3110
 3943TIP3   OH233319   6.229   6.162   4.132 -0.6532  0.5341 -0.1911
 3943TIP3    H133320   6.164   6.202   4.074 -0.2712 -0.1449 -1.1025
 3943TIP3    H233321   6.185   6.085   4.167  0.5770 -1.7031 -3.1737
 3944TIP3   OH233322   2.950   2.267   3.274 -0.2087 -0.3133 -0.0242
 3944TIP3    H133323   3.035   2.227   3.291 -0.4297 -0.0904  1.7348
 3944TIP3    H233324   2.956   2.354   3.313 -0.5427  0.5395 -1.7610
 3945TIP3   OH233325   1.968   1.313   2.741  0.0588 -0.9623  0.2109
 3945TIP3    H133326   1.879   1.292   2.769  0.6377 -3.8103  0.2103
 3945TIP3    H233327   2.005   1.363   2.814 -0.8944 -1.5323  1.1068
 3946TIP3   OH233328   2.069   3.410   3.889 -0.3215 -0.1521 -0.2275
 3946TIP3    H133329   2.020   3.458   3.956  0.6050 -0.0832  0.4218
 3946TIP3    H233330   2.082   3.323   3.926 -0.1407 -0.2333 -0.4793
 3947TIP3   OH233331   5.105   2.230  11.636  1.0585  0.8219  0.0239
 3947TIP3    H133332   5.180   2.194  11.588  0.0844  0.1449 -1.0186
 3947TIP3    H233333   5.048   2.154  11.651  0.6707  1.2884  1.0114
 3948TIP3   OH233334   0.676   1.551  14.738  0.1437  0.3585 -0.2943
 3948TIP3    H133335   0.752   1.533  14.794 -0.8461 -0.8238  0.7539
 3948TIP3    H233336   0.623   1.613  14.788 -0.3200 -0.0328 -0.2779
 3949TIP3   OH233337   2.141   5.606  13.971  0.1761 -0.1794  0.1345
 3949TIP3    H133338   2.187   5.571  13.894 -0.4135 -0.4717 -0.0882
 3949TIP3    H233339   2.131   5.532  14.030 -0.0327 -0.1273  0.1676
 3950TIP3   OH233340   2.898   3.066   0.702  0.5633  0.0534  0.4540
 3950TIP3    H133341   2.831   3.068   0.771  0.1774  0.5762  0.0723
 3950TIP3    H233342   2.850   3.043   0.623  1.0044 -0.5365  0.3496
 3951TIP3   OH233343   3.388   0.957  16.633  0.9516  0.5252  0.2901
 3951TIP3    H133344   3.421   0.988  16.549 -0.4415  0.3041 -0.3744
 3951TIP3    H233345   3.352   0.870  16.614  1.3887  0.0942  1.3159
 3952TIP3   OH233346   2.709   1.552  17.102 -0.2214  0.0247  0.4711
 3952TIP3    H133347   2.703   1.643  17.073  2.0977  0.2137  0.4019
 3952TIP3    H233348   2.721   1.558  17.197 -1.9049 -0.3476  0.7516
 3953TIP3   OH233349   0.693   0.396  13.816 -0.3611 -0.6053  0.3302
 3953TIP3    H133350   0.681   0.335  13.890  0.3313  0.8003  1.6626
 3953TIP3    H233351   0.788   0.399  13.804 -0.2190  1.6859  1.6221
 3954TIP3   OH233352   4.743   2.392   5.604  0.0009 -0.4776 -0.0735
 3954TIP3    H133353   4.674   2.388   5.537  0.8800 -0.2397 -1.0281
 3954TIP3    H233354   4.822   2.365   5.558  1.1218  2.0315  0.1855
 3955TIP3   OH233355   6.776   2.219   2.558 -0.3305 -0.2309 -0.0005
 3955TIP3    H133356   6.810   2.130   2.565  1.1699  0.4244  1.6082
 3955TIP3    H233357   6.811   2.252   2.475 -0.1334 -0.8298 -0.1580
 3956TIP3   OH233358   2.116   0.539  14.222  0.3058  0.4909 -0.5006
 3956TIP3    H133359   2.206   0.512  14.203 -0.0362  0.4992 -2.2382
 3956TIP3    H233360   2.110   0.534  14.318  1.9091 -0.2640 -0.4015
 3957TIP3   OH233361   5.625   6.590   4.617  0.1497 -0.6730 -0.1326
 3957TIP3    H133362   5.569   6.546   4.553  1.3687 -0.1507 -1.6259
 3957TIP3    H233363   5.593   6.681   4.617  0.1623 -0.6689 -0.0054
 3958TIP3   OH233364   0.146   4.663  14.700 -0.1630 -0.2372  0.4523
 3958TIP3    H133365   0.165   4.748  14.661  0.9442 -0.1978  1.0275
 3958TIP3    H233366   0.183   4.599  14.640 -2.5711 -0.4541 -0.9063
 3959TIP3   OH233367   6.689   2.916  12.154 -0.2213  0.1042 -0.1437
 3959TIP3    H133368   6.718   2.848  12.215 -2.9047  0.5403  1.7901
 3959TIP3    H233369   6.627   2.872  12.097  0.3790  0.2740 -0.9414
 3960TIP3   OH233370   1.556   5.900  14.059  0.1894  0.5188 -0.3002
 3960TIP3    H133371   1.568   5.948  14.141 -1.4815 -0.9040  0.8665
 3960TIP3    H233372   1.597   5.815  14.075 -1.2761 -0.2464 -0.3941
 3961TIP3   OH233373   5.374   4.409  15.919 -0.1572 -0.6321  0.5127
 3961TIP3    H133374   5.340   4.494  15.948  0.9478 -0.5483  1.6379
 3961TIP3    H233375   5.459   4.402  15.962  0.2960 -1.7817 -0.5390
 3962TIP3   OH233376   2.465   3.520   2.876 -0.2217  0.1731 -0.7172
 3962TIP3    H133377   2.379   3.544   2.841 -0.5067  2.3053  1.1404
 3962TIP3    H233378   2.526   3.582   2.835 -0.0933  0.6863  0.2062
 3963TIP3   OH233379   2.686   2.916  16.284 -0.1175  0.4624 -0.2706
 3963TIP3    H133380   2.602   2.947  16.317 -0.9065 -1.0250 -0.7679
 3963TIP3    H233381   2.697   2.961  16.200  1.6322  3.8301  1.5723
 3964TIP3   OH233382   4.919   1.910  12.956 -0.5942  0.2621  0.5088
 3964TIP3    H133383   4.993   1.871  13.003 -1.2122  0.8352  2.0107
 3964TIP3    H233384   4.959   1.967  12.891  0.3112  1.0181  1.6961
 3965TIP3   OH233385   1.552   2.341  11.767  0.4212  0.5557  0.5801
 3965TIP3    H133386   1.535   2.419  11.820 -0.8396  0.6200  0.1406
 3965TIP3    H233387   1.537   2.268  11.827 -0.8468  0.6301  0.3982
 3966TIP3   OH233388   1.867   6.083  15.248  0.2999 -0.1818 -0.2693
 3966TIP3    H133389   1.847   5.997  15.211 -1.0799  0.8696 -2.1192
 3966TIP3    H233390   1.948   6.069  15.298  1.8817 -1.9232 -3.0350
 3967TIP3   OH233391   5.141   6.153   3.999 -0.0534 -0.0771 -0.3613
 3967TIP3    H133392   5.079   6.222   3.977  0.8891  1.6061  1.9235
 3967TIP3    H233393   5.223   6.198   4.018  0.6928 -1.8203  0.9086
 3968TIP3   OH233394   0.542   2.464   1.003 -0.1456  0.1719 -0.1873
 3968TIP3    H133395   0.516   2.532   0.940 -1.0676 -0.9438 -1.0739
 3968TIP3    H233396   0.609   2.506   1.057 -0.8526  1.8584 -0.5284
 3969TIP3   OH233397   1.053   6.363  16.654  0.2917  0.6421 -0.4170
 3969TIP3    H133398   1.144   6.376  16.679  0.3930 -0.7563  0.0399
 3969TIP3    H233399   1.032   6.274  16.684 -1.2555  0.9766 -0.4091
 3970TIP3   OH233400   0.326   3.062  16.877  0.2208 -0.4982  0.3310
 3970TIP3    H133401   0.372   3.074  16.794 -1.8938  2.2672 -0.6153
 3970TIP3    H233402   0.240   3.028  16.852 -0.5436  0.6260  1.3366
 3971TIP3   OH233403   1.481   0.411  13.182  0.1328 -0.1627 -0.1370
 3971TIP3    H133404   1.537   0.475  13.225  1.5612 -1.1281 -0.4662
 3971TIP3    H233405   1.541   0.362  13.125 -0.8425 -1.9464  0.3033
 3972TIP3   OH233406   3.183   4.418   0.763 -0.8804  0.5665  0.0799
 3972TIP3    H133407   3.154   4.453   0.678  1.2399 -1.8072 -1.7617
 3972TIP3    H233408   3.238   4.487   0.799 -2.7207  2.0872  0.1630
 3973TIP3   OH233409   0.080   6.610  14.325  0.0416 -0.1086  0.1824
 3973TIP3    H133410   0.031   6.575  14.400  0.0321 -1.1702 -0.2906
 3973TIP3    H233411   0.126   6.533  14.289  1.3462  0.6878  0.0783
 3974TIP3   OH233412   1.882   2.897   5.019  0.1708  0.6028 -0.3533
 3974TIP3    H133413   1.823   2.967   5.046 -0.5154  0.7572 -2.1098
 3974TIP3    H233414   1.865   2.826   5.081  0.0692  1.5640  0.7582
 3975TIP3   OH233415   2.467   3.877  15.770  0.0153 -0.0550  0.1122
 3975TIP3    H133416   2.376   3.861  15.793  0.0170  0.1447  0.2566
 3975TIP3    H233417   2.469   3.970  15.744  0.4777  0.3795  1.5969
 3976TIP3   OH233418   3.357   4.481   2.963 -0.0914 -0.1349  0.5989
 3976TIP3    H133419   3.355   4.564   3.011 -0.2158  0.3787 -0.2588
 3976TIP3    H233420   3.432   4.434   2.998 -0.8683 -0.2943  2.1192
 3977TIP3   OH233421   1.910   1.614   2.582 -0.0307 -0.3637  0.1909
 3977TIP3    H133422   1.937   1.582   2.496  2.2147 -0.3297  0.8174
 3977TIP3    H233423   1.849   1.548   2.614 -0.0935 -0.9037 -1.0019
 3978TIP3   OH233424   3.670   6.428   2.640 -0.1743  0.2280  0.4257
 3978TIP3    H133425   3.715   6.438   2.724  0.3143  2.8286 -0.0691
 3978TIP3    H233426   3.577   6.425   2.662  0.0143 -1.5038  1.1768
 3979TIP3   OH233427   1.586   2.480   6.129  0.5098  0.3608 -0.2616
 3979TIP3    H133428   1.663   2.537   6.138 -0.3054  1.8367 -1.9084
 3979TIP3    H233429   1.535   2.496   6.208  1.2105  0.4721  0.1725
 3980TIP3   OH233430   1.765   6.594   1.505  0.1029  0.2227  0.2030
 3980TIP3    H133431   1.841   6.639   1.541  1.3168  0.3051 -2.2185
 3980TIP3    H233432   1.703   6.664   1.486 -0.0725  0.2984  1.0354
 3981TIP3   OH233433   0.979   5.778   5.288  0.0502  0.0455  0.3979
 3981TIP3    H133434   1.065   5.800   5.251  0.1492 -1.1763 -0.1568
 3981TIP3    H233435   0.978   5.682   5.288 -0.8158  0.0485  1.5855
 3982TIP3   OH233436   6.637   6.246   4.467 -0.0386 -0.5602 -0.3702
 3982TIP3    H133437   6.644   6.197   4.386  1.0503 -1.3266  0.1654
 3982TIP3    H233438   6.543   6.245   4.487 -0.0790 -2.2689 -0.4860
 3983TIP3   OH233439   3.009   2.810  12.073  0.1163  0.2276  0.9130
 3983TIP3    H133440   2.974   2.899  12.071  0.1106  0.3657  3.4311
 3983TIP3    H233441   3.034   2.792  11.983 -2.5136  1.6971 -0.2500
 3984TIP3   OH233442   0.125   4.304  14.779  0.9482 -0.3997  0.1678
 3984TIP3    H133443   0.130   4.398  14.799 -0.6652  0.1303 -1.5491
 3984TIP3    H233444   0.168   4.297  14.693  1.5284 -1.3534  0.5255
 3985TIP3   OH233445   0.978   6.652  15.184 -0.4186 -0.4481  1.0706
 3985TIP3    H133446   1.059   6.603  15.177 -0.8898 -1.5596  2.7516
 3985TIP3    H233447   1.005   6.740  15.212  0.1919 -0.9508  2.0931
 3986TIP3   OH233448   0.743   1.490  15.040 -0.0814 -0.1482 -0.0584
 3986TIP3    H133449   0.665   1.533  15.077 -0.3378 -0.9105  0.3132
 3986TIP3    H233450   0.817   1.535  15.081 -0.3299  0.3634 -0.1634
 3987TIP3   OH233451   1.487   0.272  11.594 -0.5839 -0.2921 -0.1170
 3987TIP3    H133452   1.532   0.327  11.530 -1.1286 -0.0673 -0.3126
 3987TIP3    H233453   1.439   0.209  11.541  0.2369 -1.1393  0.1073
 3988TIP3   OH233454   1.862   3.841   2.512  0.8664  0.6665  0.3034
 3988TIP3    H133455   1.821   3.926   2.528  1.0139  1.2704 -2.0872
 3988TIP3    H233456   1.866   3.800   2.598 -2.1992  1.7027  1.0712
 3989TIP3   OH233457   4.766   4.739  14.545 -0.2224 -0.0815 -0.4679
 3989TIP3    H133458   4.837   4.685  14.513  0.2813  1.6113 -2.4161
 3989TIP3    H233459   4.808   4.806  14.600 -0.7172 -0.9198  1.0078
 3990TIP3   OH233460   3.034   5.457   6.260 -0.0677 -0.4604  0.1008
 3990TIP3    H133461   3.072   5.537   6.297  0.2410 -0.1731 -0.8250
 3990TIP3    H233462   3.080   5.386   6.304  1.8637 -0.1269 -1.2827
 3991TIP3   OH233463   6.239   2.416   5.220 -0.2363 -0.0244 -0.3402
 3991TIP3    H133464   6.249   2.500   5.264 -1.4013 -0.2080  0.3182
 3991TIP3    H233465   6.286   2.426   5.137  1.2742  0.6181  0.5536
 3992TIP3   OH233466   4.788   6.159   1.363  0.4320  0.1420  0.0339
 3992TIP3    H133467   4.713   6.117   1.406  0.1194  0.6365 -0.0174
 3992TIP3    H233468   4.807   6.103   1.288 -0.2298  0.2938 -0.2541
 3993TIP3   OH233469   4.463   4.638  13.539 -0.2211 -0.2307  0.3442
 3993TIP3    H133470   4.456   4.649  13.444  2.2405  0.4062  0.1587
 3993TIP3    H233471   4.553   4.666  13.559 -0.2239 -1.6960  2.6745
 3994TIP3   OH233472   5.375   4.246   0.899 -0.1580 -0.3207  0.6571
 3994TIP3    H133473   5.449   4.302   0.877  1.0307 -1.8168  0.6237
 3994TIP3    H233474   5.390   4.222   0.991 -1.3183  0.3637  1.0519
 3995TIP3   OH233475   6.752   0.417  14.405  0.1345 -0.4346  0.8936
 3995TIP3    H133476   6.720   0.333  14.436  1.4417 -1.0763  0.5599
 3995TIP3    H233477   6.840   0.400  14.373 -0.1350  0.7541 -0.6369
 3996TIP3   OH233478   4.541   0.676  13.856  0.2516 -0.3961 -0.4083
 3996TIP3    H133479   4.576   0.765  13.845  0.8897 -0.4165  1.2534
 3996TIP3    H233480   4.618   0.620  13.860 -0.1018 -0.8776 -0.2604
 3997TIP3   OH233481   5.976   1.329  15.552 -0.0061  0.4122 -0.5719
 3997TIP3    H133482   5.936   1.300  15.634 -2.3918  0.5965 -1.5877
 3997TIP3    H233483   6.041   1.394  15.578  1.3642 -1.5784  1.3340
 3998TIP3   OH233484   2.408   4.017   4.862  0.2875  0.3668  0.3145
 3998TIP3    H133485   2.393   3.938   4.810  2.7130  0.0879 -0.0794
 3998TIP3    H233486   2.353   4.006   4.940 -2.6496  0.3062 -1.6076
 3999TIP3   OH233487   0.536   5.645   0.247  0.0753  0.3984  0.5184
 3999TIP3    H133488   0.597   5.596   0.303 -0.4070 -2.3302 -1.1388
 3999TIP3    H233489   0.453   5.597   0.254 -0.6254  1.3718 -0.6932
 4000TIP3   OH233490   1.146   2.413  11.601 -0.3191 -0.4852 -0.0391
 4000TIP3    H133491   1.227   2.375  11.568 -0.3876 -0.1084 -0.6586
 4000TIP3    H233492   1.079   2.387  11.537 -0.5189 -0.0414 -0.0156
 4001TIP3   OH233493   6.815   5.797  15.013 -1.0194 -0.4231 -0.1725
 4001TIP3    H133494   6.750   5.817  14.946 -2.5535 -0.2608  1.3137
 4001TIP3    H233495   6.848   5.882  15.041 -0.7490 -0.4657 -0.3574
 4002TIP3   OH233496   1.920   2.298   3.949 -0.1902  0.1988  0.1098
 4002TIP3    H133497   1.861   2.291   4.024  0.1677  0.1551  0.3955
 4002TIP3    H233498   1.913   2.214   3.904  2.7658 -1.5751  2.5116
 4003TIP3   OH233499   4.969   2.795   2.903  0.2959 -0.5328  0.7639
 4003TIP3    H133500   5.005   2.726   2.847  0.1623 -0.2767  0.3557
 4003TIP3    H233501   5.046   2.836   2.943  0.3602 -1.0835  1.2130
 4004TIP3   OH233502   0.246   3.813   1.339  0.1369 -0.5919 -0.8615
 4004TIP3    H133503   0.220   3.726   1.309  0.4337 -0.7170 -0.7560
 4004TIP3    H233504   0.214   3.872   1.271 -0.5247 -0.7329 -0.6798
 4005TIP3   OH233505   0.426   3.448  11.942 -0.1656  0.1009 -0.2172
 4005TIP3    H133506   0.352   3.456  12.002 -0.3473  2.4323 -0.6313
 4005TIP3    H233507   0.500   3.426  11.998 -0.9235 -1.0369  0.3711
 4006TIP3   OH233508   5.471   5.667   3.797  0.1878  0.2076 -0.9661
 4006TIP3    H133509   5.493   5.637   3.885  3.0462  2.3691 -0.7654
 4006TIP3    H233510   5.378   5.690   3.802 -0.6835 -3.0743  0.3423
 4007TIP3   OH233511   2.900   5.014  11.531 -0.1977 -0.1485 -0.0833
 4007TIP3    H133512   2.896   5.106  11.556 -1.8803 -0.2106 -0.0004
 4007TIP3    H233513   2.971   4.977  11.583  0.5514  1.1189 -0.1857
 4008TIP3   OH233514   0.211   2.690   0.818  0.7492 -0.0685 -0.3952
 4008TIP3    H133515   0.239   2.603   0.791  2.5597  0.4367 -0.2958
 4008TIP3    H233516   0.171   2.728   0.740 -1.2610 -1.4111 -0.0872
 4009TIP3   OH233517   1.651   5.716   3.428 -0.3740 -0.0984  0.4674
 4009TIP3    H133518   1.585   5.741   3.363 -1.1618 -0.2312  1.1903
 4009TIP3    H233519   1.620   5.756   3.510  0.4300 -0.1938  0.8272
 4010TIP3   OH233520   6.461   3.181  13.613 -0.3370  0.4373 -0.3778
 4010TIP3    H133521   6.410   3.262  13.622  0.1467  0.9029 -1.6645
 4010TIP3    H233522   6.523   3.184  13.686  0.1123  1.5565 -0.7908
 4011TIP3   OH233523   5.474   2.239  12.897 -0.1828  0.3055 -0.0970
 4011TIP3    H133524   5.504   2.288  12.974 -2.2930  0.6212  0.5994
 4011TIP3    H233525   5.499   2.294  12.823  1.0227  0.4716  0.3997
 4012TIP3   OH233526   0.470   0.569   1.239  0.2525  0.2083 -0.3756
 4012TIP3    H133527   0.378   0.576   1.264 -0.1462 -0.6957 -1.4993
 4012TIP3    H233528   0.503   0.659   1.239 -0.4306  0.4677  0.7273
 4013TIP3   OH233529   5.720   4.467  12.505 -0.4851  0.1381  0.1445
 4013TIP3    H133530   5.792   4.414  12.540 -0.6027 -1.2896 -1.6288
 4013TIP3    H233531   5.763   4.534  12.451 -0.4356 -0.8548 -1.1000
 4014TIP3   OH233532   3.822   2.750  11.553 -0.4740  0.4799  0.4679
 4014TIP3    H133533   3.763   2.694  11.604  1.4509 -1.8990  0.2656
 4014TIP3    H233534   3.910   2.726  11.584  0.6388  0.5916 -2.3382
 4015TIP3   OH233535   6.068   6.497   6.630 -0.3379  0.5253 -0.1291
 4015TIP3    H133536   6.130   6.570   6.642  0.1250  0.2716 -0.9031
 4015TIP3    H233537   6.063   6.486   6.535  0.1501 -0.9110 -0.0064
 4016TIP3   OH233538   5.262   2.339   1.685 -0.4408  0.1517  0.6962
 4016TIP3    H133539   5.178   2.302   1.713 -1.6502  1.1124 -1.4299
 4016TIP3    H233540   5.294   2.279   1.618 -0.4332  0.8107  0.0927
 4017TIP3   OH233541   2.156   5.882  15.523 -0.2629 -0.2264 -0.8534
 4017TIP3    H133542   2.070   5.844  15.542  0.1376 -0.0218  1.8029
 4017TIP3    H233543   2.137   5.972  15.498 -0.8631 -0.2738 -0.6082
 4018TIP3   OH233544   2.156   4.526   6.122  0.4139  0.2429  0.6575
 4018TIP3    H133545   2.225   4.547   6.185 -0.3955 -0.6347  1.8828
 4018TIP3    H233546   2.156   4.430   6.120 -0.9775  0.2239  0.9303
 4019TIP3   OH233547   3.199   6.414   3.574 -0.1239  0.0272 -0.6328
 4019TIP3    H133548   3.241   6.362   3.643  0.3194  3.4269  1.9064
 4019TIP3    H233549   3.270   6.432   3.512  1.2457  2.0627  1.3663
 4020TIP3   OH233550   5.006   1.795   0.777 -0.5638 -0.3553 -0.3851
 4020TIP3    H133551   4.921   1.788   0.822 -0.6690 -0.8258 -0.6627
 4020TIP3    H233552   4.989   1.763   0.689 -0.2111  0.0227 -0.5927
 4021TIP3   OH233553   2.378   6.268  14.630  0.2125 -0.2556 -0.0888
 4021TIP3    H133554   2.360   6.176  14.609  0.7573 -0.7014  1.3197
 4021TIP3    H233555   2.300   6.297  14.678 -0.2135  0.2203 -1.0203
 4022TIP3   OH233556   2.272   0.829   5.899 -0.1997  0.6073  0.1011
 4022TIP3    H133557   2.228   0.804   5.818  0.2136 -2.1833  0.6232
 4022TIP3    H233558   2.350   0.772   5.901 -0.1539  0.6926  2.3849
 4023TIP3   OH233559   6.753   3.895   5.153 -0.2139  0.1320  0.0244
 4023TIP3    H133560   6.819   3.834   5.187  0.6737  1.6365  1.1430
 4023TIP3    H233561   6.688   3.839   5.110  0.0889 -1.6883  1.7688
 4024TIP3   OH233562   4.812   4.238  17.185  0.8061  0.3484  0.5387
 4024TIP3    H133563   4.720   4.228  17.209  0.8458  0.0477  0.5644
 4024TIP3    H233564   4.847   4.149  17.185  0.7448  0.3016 -0.8727
 4025TIP3   OH233565   1.547   2.201  15.841  0.0439 -0.1284  0.0503
 4025TIP3    H133566   1.615   2.253  15.798 -0.7153  0.3390 -0.6161
 4025TIP3    H233567   1.508   2.150  15.771 -1.1409  0.5689  0.1812
 4026TIP3   OH233568   2.151   1.739  15.749  0.3468 -0.7103  0.0087
 4026TIP3    H133569   2.153   1.832  15.772 -1.5291 -0.0998 -1.9616
 4026TIP3    H233570   2.239   1.707  15.772  0.1393  0.7917  3.4176
 4027TIP3   OH233571   1.856   2.860  15.527  0.1188  0.3055  0.5155
 4027TIP3    H133572   1.846   2.921  15.454  0.5053 -1.0233 -0.7188
 4027TIP3    H233573   1.947   2.829  15.519 -0.1231 -0.5539  0.9808
 4028TIP3   OH233574   3.623   6.527  16.188 -0.1914  0.4651 -0.1598
 4028TIP3    H133575   3.708   6.501  16.224 -0.0880  1.6399  0.4832
 4028TIP3    H233576   3.644   6.568  16.105 -0.1731  0.4102 -0.1824
 4029TIP3   OH233577   4.166   5.188   0.314 -1.1284 -0.2125  0.2844
 4029TIP3    H133578   4.085   5.196   0.364 -1.7871  0.1100 -0.7935
 4029TIP3    H233579   4.188   5.095   0.318 -1.4101 -0.2590  0.7972
 4030TIP3   OH233580   0.286   5.167  16.082  0.0247  0.1132  0.0303
 4030TIP3    H133581   0.372   5.125  16.076  0.0806  0.1858  0.2977
 4030TIP3    H233582   0.260   5.181  15.991  1.0576  1.6416 -0.0807
 4031TIP3   OH233583   2.079   3.275  16.241 -0.7492 -0.4535 -0.3246
 4031TIP3    H133584   2.011   3.212  16.264 -2.5975  1.9674  1.4538
 4031TIP3    H233585   2.072   3.285  16.146 -3.3319  0.0882 -0.1544
 4032TIP3   OH233586   1.887   0.006   2.126 -0.3875 -0.3660  0.1794
 4032TIP3    H133587   1.800   0.011   2.164 -0.7380 -0.6067 -0.5689
 4032TIP3    H233588   1.898  -0.085   2.100 -0.1844 -0.2021 -0.3367
 4033TIP3   OH233589   2.047   1.572   5.529 -0.6772 -0.1311 -0.1860
 4033TIP3    H133590   2.074   1.604   5.616  0.5139 -0.3968 -0.4491
 4033TIP3    H233591   2.110   1.503   5.508 -0.1903  0.7543 -1.7931
 4034TIP3   OH233592   0.128   6.672   1.327 -0.2336 -0.6135 -0.2027
 4034TIP3    H133593   0.092   6.740   1.270 -0.5001 -0.3365  0.2828
 4034TIP3    H233594   0.051   6.628   1.363 -0.3167  1.6786  2.9135
 4035TIP3   OH233595   3.985   6.101   0.994  0.6260  0.0151  0.0994
 4035TIP3    H133596   3.984   6.113   1.089  0.3036  0.3741  0.0556
 4035TIP3    H233597   4.075   6.077   0.974  0.1809 -2.5008  0.7703
 4036TIP3   OH233598   2.893   4.702   4.174 -0.3168 -0.6976 -0.2818
 4036TIP3    H133599   2.942   4.699   4.092  2.1302  1.5473  0.9323
 4036TIP3    H233600   2.924   4.627   4.224  1.2180  0.1245  0.0609
 4037TIP3   OH233601   3.583   4.834   4.908 -0.2748  0.1954 -0.1009
 4037TIP3    H133602   3.675   4.807   4.915 -0.1076  0.9504  0.7954
 4037TIP3    H233603   3.563   4.827   4.814  0.4555 -0.7184 -0.2093
 4038TIP3   OH233604   5.048   4.821   0.808 -0.3923 -0.0049 -0.2752
 4038TIP3    H133605   4.992   4.752   0.772 -0.9725 -0.0097  0.6078
 4038TIP3    H233606   4.993   4.864   0.874  0.3577  0.5601 -0.0125
 4039TIP3   OH233607   6.329   4.283  15.223 -0.0787 -0.2528 -0.5664
 4039TIP3    H133608   6.411   4.332  15.214 -0.6614  0.7405 -0.6191
 4039TIP3    H233609   6.293   4.280  15.134 -0.2999 -0.3241 -0.4750
 4040TIP3   OH233610   5.794   0.435  15.496  0.3977  0.2659  0.3745
 4040TIP3    H133611   5.868   0.439  15.436  0.8242  1.8594  0.9717
 4040TIP3    H233612   5.722   0.479  15.451 -0.4941 -1.9764 -0.5392
 4041TIP3   OH233613   3.485   5.534  11.802 -0.1316  0.0322  0.3705
 4041TIP3    H133614   3.401   5.517  11.758  0.6637 -0.0548 -1.1879
 4041TIP3    H233615   3.494   5.629  11.798 -0.0797  0.0280  0.3916
 4042TIP3   OH233616   3.721   3.023  16.741  0.7094 -0.2524  0.0664
 4042TIP3    H133617   3.751   3.015  16.832 -1.1784  0.7116  0.8247
 4042TIP3    H233618   3.683   2.937  16.721  0.1035 -0.1269  0.6183
 4043TIP3   OH233619   0.164   0.864  14.890  0.0199 -0.5344 -0.2988
 4043TIP3    H133620   0.213   0.786  14.861 -1.5115 -1.6591 -0.0185
 4043TIP3    H233621   0.073   0.842  14.872 -0.5554  0.7106  0.9409
 4044TIP3   OH233622   1.239   1.182  13.514  0.3362 -0.3226  0.3350
 4044TIP3    H133623   1.193   1.134  13.445  0.7917  0.6024 -0.6563
 4044TIP3    H233624   1.290   1.248  13.466 -0.4797  1.3244  1.6279
 4045TIP3   OH233625   6.525   2.937   1.323  0.0465  0.6018  0.3137
 4045TIP3    H133626   6.609   2.931   1.279 -0.1701 -0.6100  0.0108
 4045TIP3    H233627   6.487   2.849   1.313 -0.9599  0.9404  1.0098
 4046TIP3   OH233628   5.945   0.080   3.117 -0.0206 -0.7585  0.6387
 4046TIP3    H133629   6.010   0.013   3.097  1.3889  0.7636 -0.0441
 4046TIP3    H233630   5.987   0.136   3.182 -0.7000  0.1729  0.2911
 4047TIP3   OH233631   4.256   4.412  14.616 -0.1399 -0.1789 -0.3138
 4047TIP3    H133632   4.229   4.321  14.605 -1.1355  0.1845 -0.9864
 4047TIP3    H233633   4.178   4.456  14.649 -0.1253  0.7190 -1.4287
 4048TIP3   OH233634   3.043   4.483   5.553  0.0493  1.3201  0.0395
 4048TIP3    H133635   3.069   4.403   5.599 -0.2943  1.1116 -0.1237
 4048TIP3    H233636   2.947   4.477   5.546  0.1279  1.1569 -1.0456
 4049TIP3   OH233637   5.512   5.176  11.303 -0.0830 -0.4486  0.2391
 4049TIP3    H133638   5.500   5.262  11.262 -0.2371 -1.6621 -2.4742
 4049TIP3    H233639   5.601   5.178  11.338 -0.6631  1.3571  1.7460
 4050TIP3   OH233640   6.371   0.214   5.340 -0.5801 -0.1006 -0.1796
 4050TIP3    H133641   6.437   0.241   5.404  1.0341 -1.5373 -1.1601
 4050TIP3    H233642   6.396   0.260   5.259 -2.4842  1.5480  0.0778
 4051TIP3   OH233643   1.528   5.441   0.679 -0.8737 -0.3464  0.3493
 4051TIP3    H133644   1.600   5.389   0.715  1.7380  2.4314 -0.4262
 4051TIP3    H233645   1.478   5.469   0.755  1.5889  1.3008  1.4980
 4052TIP3   OH233646   6.662   0.038  14.473  0.1491  0.0109  0.1311
 4052TIP3    H133647   6.670   0.086  14.391 -0.7168  0.3019  0.2028
 4052TIP3    H233648   6.662   0.106  14.541  3.0948 -0.3109  0.6057
 4053TIP3   OH233649   3.240   0.574   0.711 -0.4113  0.1875 -0.1220
 4053TIP3    H133650   3.328   0.569   0.749  0.6847  1.2170 -2.3676
 4053TIP3    H233651   3.225   0.668   0.698 -1.0223 -0.0930 -1.5829
 4054TIP3   OH233652   5.904   6.295  13.050 -0.1364 -0.0660  0.1952
 4054TIP3    H133653   5.990   6.337  13.056  0.1949 -0.8395  0.9469
 4054TIP3    H233654   5.901   6.234  13.123 -0.9763 -0.7054 -0.3522
 4055TIP3   OH233655   6.624   3.966   0.564  0.7479  0.4979  0.0674
 4055TIP3    H133656   6.601   4.052   0.600 -2.0306 -0.6962  1.4654
 4055TIP3    H233657   6.556   3.948   0.499 -0.9637 -2.0507  2.3415
 4056TIP3   OH233658   6.167   4.166  14.580 -0.0831 -0.6633 -0.3272
 4056TIP3    H133659   6.101   4.225  14.616 -0.7530 -1.9104  0.5439
 4056TIP3    H233660   6.250   4.213  14.591 -0.7511  0.8026 -1.1740
 4057TIP3   OH233661   0.098   0.886   1.341 -0.1590 -0.5320 -0.7821
 4057TIP3    H133662   0.077   0.975   1.315  0.1269 -0.1916  0.1344
 4057TIP3    H233663   0.018   0.836   1.321 -0.3058 -0.0900 -1.3237
 4058TIP3   OH233664   0.768   6.111  14.679  0.2793 -0.0875  0.2243
 4058TIP3    H133665   0.785   6.138  14.769 -0.3538  0.3678  0.2131
 4058TIP3    H233666   0.854   6.091  14.643  0.6240  0.5881  0.6611
 4059TIP3   OH233667   2.986   2.597  14.513 -0.1844 -0.2561 -0.0883
 4059TIP3    H133668   2.901   2.582  14.553  0.2126 -1.5322  0.3414
 4059TIP3    H233669   3.047   2.546  14.566  0.6954 -0.1458 -0.9553
 4060TIP3   OH233670   5.133   3.686  13.511  0.5292 -0.3896  0.0753
 4060TIP3    H133671   5.205   3.730  13.466 -0.5449  2.2786  0.7477
 4060TIP3    H233672   5.055   3.709  13.460  0.0062 -2.9145 -0.4362
 4061TIP3   OH233673   1.090   1.347  10.942  0.0853 -0.6003 -0.1309
 4061TIP3    H133674   1.175   1.351  10.899  1.1137 -0.1731  1.8711
 4061TIP3    H233675   1.088   1.259  10.981 -0.2962 -0.5112  0.0489
 4062TIP3   OH233676   3.888   5.305  14.549 -0.1780  0.1614  0.1977
 4062TIP3    H133677   3.956   5.304  14.481 -1.6169  0.4432 -1.3233
 4062TIP3    H233678   3.920   5.367  14.615  1.0755  0.2011 -0.4219
 4063TIP3   OH233679   0.843   5.747  15.350 -0.1003 -0.0988  0.3846
 4063TIP3    H133680   0.937   5.760  15.363  0.0679 -0.4142 -0.4523
 4063TIP3    H233681   0.835   5.657  15.319 -0.5425  0.3238 -0.8011
 4064TIP3   OH233682   1.110   4.850   0.562 -0.3276  0.6874  0.2271
 4064TIP3    H133683   1.049   4.918   0.592 -2.1828 -1.3130  1.3089
 4064TIP3    H233684   1.162   4.829   0.639 -1.3065 -0.6074  0.5783
 4065TIP3   OH233685   4.188   0.006  16.106  0.1878 -0.3927  0.1366
 4065TIP3    H133686   4.261   0.015  16.046  0.7778 -0.8946  0.7661
 4065TIP3    H233687   4.192   0.085  16.161  0.6143 -0.7008  0.5518
 4066TIP3   OH233688   3.517   1.126  12.022  0.0954 -0.0642  0.2326
 4066TIP3    H133689   3.436   1.078  12.040  0.1301  0.4244  1.8238
 4066TIP3    H233690   3.489   1.204  11.975 -0.4106  0.2893  1.1084
 4067TIP3   OH233691   2.973   3.199  15.340 -0.0164  0.1016 -0.2781
 4067TIP3    H133692   2.962   3.111  15.305 -1.4324  0.2402 -0.2537
 4067TIP3    H233693   3.012   3.186  15.426  1.9613 -0.3378 -1.1852
 4068TIP3   OH233694   0.945   4.428   2.634  0.3620 -0.6917  0.2405
 4068TIP3    H133695   0.984   4.399   2.552 -1.5722 -4.4432  0.4248
 4068TIP3    H233696   0.918   4.518   2.618  0.1603 -1.2472 -3.1982
 4069TIP3   OH233697   1.950   2.285  12.243 -0.4974  0.3537 -1.2831
 4069TIP3    H133698   2.036   2.300  12.202  0.7888  1.9146  1.7093
 4069TIP3    H233699   1.947   2.191  12.259  2.3616  0.5999  1.7096
 4070TIP3   OH233700   4.505   0.231   6.563 -0.7903  0.1524  0.2129
 4070TIP3    H133701   4.471   0.310   6.520  1.4361  1.1562  0.1597
 4070TIP3    H233702   4.462   0.159   6.518 -0.3067  1.2361 -2.1477
 4071TIP3   OH233703   4.690   2.638   2.411 -0.2485  0.5047  0.2260
 4071TIP3    H133704   4.713   2.659   2.321 -0.6030  1.1504  0.2768
 4071TIP3    H233705   4.734   2.705   2.463  1.5290 -0.9611  0.7153
 4072TIP3   OH233706   3.889   1.029  12.917 -0.4473  0.2640 -0.2959
 4072TIP3    H133707   3.921   1.106  12.964 -0.0948  0.1507 -0.3460
 4072TIP3    H233708   3.843   0.977  12.983  0.3638 -0.0749  0.0112
 4073TIP3   OH233709   5.970   1.283  10.888 -0.1654 -0.3076  0.0618
 4073TIP3    H133710   5.971   1.196  10.849 -0.3362 -1.2202  1.9510
 4073TIP3    H233711   6.030   1.276  10.963 -0.7773  0.9660  0.7067
 4074TIP3   OH233712   0.216   4.401   1.296  0.6007  0.0529  0.2387
 4074TIP3    H133713   0.242   4.447   1.216  1.0940  1.4488  1.1700
 4074TIP3    H233714   0.149   4.457   1.335 -1.4975 -1.8535 -0.4305
 4075TIP3   OH233715   4.308   3.523   0.845 -0.1829  0.2357  0.7072
 4075TIP3    H133716   4.274   3.497   0.931  0.2405  0.4094  0.9294
 4075TIP3    H233717   4.336   3.442   0.804 -0.2442  0.1701  0.7954
 4076TIP3   OH233718   6.396   2.392  10.900  0.6718 -0.1010 -0.2284
 4076TIP3    H133719   6.382   2.302  10.872 -0.6163 -0.2784  0.9161
 4076TIP3    H233720   6.371   2.445  10.825  2.2509 -0.6873 -1.2163
 4077TIP3   OH233721   3.128   1.437  11.233  0.6900 -0.3155 -0.7660
 4077TIP3    H133722   3.192   1.449  11.163  0.2245  0.1873 -1.1006
 4077TIP3    H233723   3.149   1.506  11.296  1.8290 -1.4400  0.1497
 4078TIP3   OH233724   6.813   4.308  16.555  0.2638  0.0765 -0.1036
 4078TIP3    H133725   6.720   4.330  16.566 -0.0494 -0.9196 -0.6022
 4078TIP3    H233726   6.825   4.305  16.460  0.8052  0.1505 -0.0399
 4079TIP3   OH233727   1.770   6.672  11.598  0.4413  0.1673 -0.1701
 4079TIP3    H133728   1.862   6.648  11.605  0.1901 -1.0644 -0.8107
 4079TIP3    H233729   1.726   6.591  11.572 -0.7924  0.7873 -0.0776
 4080TIP3   OH233730   2.246   6.205   5.025 -0.1859 -0.0386 -0.0432
 4080TIP3    H133731   2.258   6.225   5.118 -0.3487  0.9679 -0.2227
 4080TIP3    H233732   2.331   6.227   4.985 -0.5398  0.8850 -0.3294
 4081TIP3   OH233733   2.458   1.833   3.885 -0.1018  0.0172 -0.9681
 4081TIP3    H133734   2.542   1.841   3.930 -0.5527 -1.0280  0.1145
 4081TIP3    H233735   2.481   1.815   3.794  0.8694 -1.2104 -0.5054
 4082TIP3   OH233736   0.710   4.568   1.841  0.0171  0.0932  0.2112
 4082TIP3    H133737   0.709   4.474   1.860  0.2098 -0.3354 -1.7015
 4082TIP3    H233738   0.671   4.608   1.918 -4.2280 -1.8773 -0.6099
 4083TIP3   OH233739   6.033   5.485  13.060  0.3671  0.0621  0.2813
 4083TIP3    H133740   6.074   5.404  13.090  0.2264 -0.0840  0.0842
 4083TIP3    H233741   5.939   5.470  13.072  0.3900  0.5473  1.1117
 4084TIP3   OH233742   3.472   1.022  12.554 -0.2284  0.3480 -0.3041
 4084TIP3    H133743   3.426   0.940  12.534 -1.0955  0.6346  0.4432
 4084TIP3    H233744   3.514   1.005  12.638 -0.1421  0.5603 -0.3056
 4085TIP3   OH233745   6.606   2.636   0.426  0.2539 -0.0281 -0.9250
 4085TIP3    H133746   6.644   2.713   0.384  1.3525 -0.3983 -0.6509
 4085TIP3    H233747   6.538   2.607   0.365  0.8392  0.2963 -1.7602
 4086TIP3   OH233748   5.580   4.833  12.267 -0.3119 -0.4334 -0.0312
 4086TIP3    H133749   5.499   4.785  12.283 -0.6187 -0.2040 -0.8581
 4086TIP3    H233750   5.559   4.924  12.287 -0.0869 -0.4608  0.3330
 4087TIP3   OH233751   2.056   3.599  11.553  0.2562 -0.3752  0.1979
 4087TIP3    H133752   2.111   3.675  11.533  0.3007 -0.2980  0.6147
 4087TIP3    H233753   1.971   3.635  11.578  0.4277 -0.4346  0.8948
 4088TIP3   OH233754   2.974   4.186   5.208 -0.0018 -0.1269 -0.0576
 4088TIP3    H133755   3.066   4.165   5.225  0.6049  3.0453  1.1466
 4088TIP3    H233756   2.929   4.167   5.291 -0.4692 -1.5459 -0.6032
 4089TIP3   OH233757   4.023   4.565  13.263  0.0456 -0.4168  0.3065
 4089TIP3    H133758   4.065   4.652  13.270 -0.8992  0.0653  0.1096
 4089TIP3    H233759   3.930   4.583  13.266 -0.1641 -1.4536  0.3567
 4090TIP3   OH233760   5.253   4.429   0.184 -0.1181  0.7339 -0.2778
 4090TIP3    H133761   5.222   4.367   0.250 -0.5746  0.6567 -0.5627
 4090TIP3    H233762   5.348   4.424   0.190 -0.1397  1.3175  0.9399
 4091TIP3   OH233763   3.970   0.788  10.675  0.4361 -0.0452  0.2339
 4091TIP3    H133764   3.984   0.875  10.636  2.0654  0.3871  1.6113
 4091TIP3    H233765   3.960   0.729  10.600 -0.7453  1.3101 -0.7330
 4092TIP3   OH233766   6.439   0.736   0.023  0.3136  0.1760 -0.2127
 4092TIP3    H133767   6.357   0.688   0.019  0.6809 -0.6008  1.2605
 4092TIP3    H233768   6.427   0.799   0.094  0.5423  0.9533 -0.8433
 4093TIP3   OH233769   6.630   4.195   3.696 -0.0185 -0.0689 -0.0366
 4093TIP3    H133770   6.573   4.243   3.757  0.9611  0.2521  0.6519
 4093TIP3    H233771   6.590   4.208   3.610 -0.2091  1.3314  0.2437
 4094TIP3   OH233772   0.336   1.278  13.930  0.6067  0.3532  0.1366
 4094TIP3    H133773   0.267   1.312  13.987  0.7085 -1.9483  1.7620
 4094TIP3    H233774   0.416   1.317  13.965  0.3704  1.3829 -0.4314
 4095TIP3   OH233775   6.228   1.737  12.504  0.2107  0.2230  0.4951
 4095TIP3    H133776   6.238   1.689  12.586 -1.3850 -3.1819 -1.0464
 4095TIP3    H233777   6.152   1.793  12.518  1.0621  1.0980  1.8428
 4096TIP3   OH233778   0.123   1.527  13.320  0.3926  0.3182  0.1370
 4096TIP3    H133779   0.211   1.489  13.328  0.2092  0.1379  1.3963
 4096TIP3    H233780   0.075   1.493  13.395 -0.7813  0.3770 -0.5702
 4097TIP3   OH233781   0.746   6.606   5.887 -0.2944 -0.5254  0.1378
 4097TIP3    H133782   0.673   6.546   5.900  0.1261 -1.1391 -0.2964
 4097TIP3    H233783   0.775   6.591   5.797 -0.9934  1.2413 -0.4327
 4098TIP3   OH233784   5.395   6.417   4.992 -0.0413  0.0282 -0.1415
 4098TIP3    H133785   5.372   6.437   4.901 -0.7087  1.5322  0.3171
 4098TIP3    H233786   5.485   6.451   5.002  0.0094 -0.0820 -0.2201
 4099TIP3   OH233787   5.853   5.890  12.543  0.0967 -0.1921  1.3523
 4099TIP3    H133788   5.808   5.904  12.626 -1.7148  0.3519  0.3354
 4099TIP3    H233789   5.943   5.921  12.559 -0.7934  1.9983  2.4835
 4100TIP3   OH233790   3.645   0.836  11.978 -0.0722 -0.3293 -0.1083
 4100TIP3    H133791   3.673   0.927  11.966 -0.6416  0.0599  1.3599
 4100TIP3    H233792   3.639   0.825  12.073 -0.2342 -1.8371 -0.2784
 4101TIP3   OH233793   0.188   5.614   3.753 -0.2012 -0.0742 -0.1155
 4101TIP3    H133794   0.116   5.660   3.798 -0.1579 -2.0484  2.1684
 4101TIP3    H233795   0.159   5.523   3.750  0.5929 -0.3165 -2.6975
 4102TIP3   OH233796   4.905   0.939  16.439  0.0518 -0.2470 -0.2447
 4102TIP3    H133797   4.840   1.009  16.451  0.0040 -0.6090  1.8432
 4102TIP3    H233798   4.873   0.866  16.491  2.7849  0.0350  2.0821
 4103TIP3   OH233799   2.250   4.555   3.316 -0.2571 -0.2137  0.0165
 4103TIP3    H133800   2.247   4.611   3.239  1.0018  2.2569  1.5976
 4103TIP3    H233801   2.168   4.572   3.361 -0.0522  0.0638  0.2915
 4104TIP3   OH233802   1.663   0.865  11.203  0.0483  0.6896  0.5241
 4104TIP3    H133803   1.638   0.874  11.111 -0.2146  0.2267  0.5445
 4104TIP3    H233804   1.581   0.875  11.251 -0.4614 -2.3022  0.5162
 4105TIP3   OH233805   1.457   1.963  15.330 -0.5495  1.1378 -0.3093
 4105TIP3    H133806   1.380   1.980  15.385  0.9748  0.4909  2.2326
 4105TIP3    H233807   1.461   2.038  15.271 -2.2780  1.9510  0.5123
 4106TIP3   OH233808   5.727   2.585   0.936 -0.3381  0.3728 -0.1215
 4106TIP3    H133809   5.633   2.603   0.942  0.1331  2.5086  3.1255
 4106TIP3    H233810   5.768   2.670   0.944  1.9126 -0.7087  0.4807
 4107TIP3   OH233811   3.213   3.706  14.159 -0.8723  0.4990 -0.2552
 4107TIP3    H133812   3.205   3.660  14.242 -0.0871  0.2872 -0.2874
 4107TIP3    H233813   3.140   3.674  14.106  1.3479 -3.2237 -1.4357
 4108TIP3   OH233814   3.927   6.383   5.189  0.3712 -0.0230  0.1093
 4108TIP3    H133815   3.882   6.413   5.268 -0.7180 -2.8361  0.7152
 4108TIP3    H233816   3.910   6.451   5.124 -1.8389  0.6862  1.3171
 4109TIP3   OH233817   0.616   3.152  15.852  0.4725 -0.5870  0.3951
 4109TIP3    H133818   0.682   3.184  15.790  1.2976 -0.1643  1.4571
 4109TIP3    H233819   0.664   3.143  15.934 -1.1317  1.3180  1.6271
 4110TIP3   OH233820   4.190   2.149   0.887  0.1069 -0.3944  0.7821
 4110TIP3    H133821   4.163   2.062   0.859 -2.0422  0.3722  0.2706
 4110TIP3    H233822   4.113   2.204   0.872  1.6320  1.7598  0.3668
 4111TIP3   OH233823   5.651   1.654  13.349  0.3048 -0.9127  0.0874
 4111TIP3    H133824   5.582   1.719  13.366 -0.1230 -1.3509  0.0733
 4111TIP3    H233825   5.705   1.655  13.427  0.7254 -0.0281 -0.2046
 4112TIP3   OH233826   1.113   0.812   1.699 -0.6188 -0.2010  0.6780
 4112TIP3    H133827   1.051   0.752   1.658  1.2285 -0.7520 -1.5267
 4112TIP3    H233828   1.180   0.754   1.737  0.0259  0.4020  0.4831
 4113TIP3   OH233829   1.141   2.660  14.065  0.1015  0.1622  0.4066
 4113TIP3    H133830   1.108   2.746  14.090  0.9081  1.3893 -2.3295
 4113TIP3    H233831   1.224   2.652  14.112  0.2646  1.1265  0.3145
 4114TIP3   OH233832   4.946   1.115  15.969  0.0562 -0.2650  0.4456
 4114TIP3    H133833   4.970   1.078  15.884  0.0113  0.1360  0.2546
 4114TIP3    H233834   4.862   1.075  15.990 -0.4215  0.3709 -0.1727
 4115TIP3   OH233835   3.582   3.425   0.289  0.0184 -0.1682  0.0545
 4115TIP3    H133836   3.549   3.361   0.226  0.3215  0.2071 -0.4941
 4115TIP3    H233837   3.655   3.382   0.332 -1.4950 -1.2430  1.7090
 4116TIP3   OH233838   2.384   1.912  12.288 -0.2764  0.1321  0.1846
 4116TIP3    H133839   2.395   1.817  12.293  0.4508  0.0173 -2.1981
 4116TIP3    H233840   2.377   1.940  12.379  0.4205 -2.0907  0.9994
 4117TIP3   OH233841   3.124   0.246  12.443 -0.4888  0.1833 -0.3713
 4117TIP3    H133842   3.115   0.328  12.395  2.4083  0.3005 -0.9043
 4117TIP3    H233843   3.182   0.267  12.516 -0.7971 -1.1098  0.2856
 4118TIP3   OH233844   2.420   1.053   3.173  0.0822  0.2091 -0.2746
 4118TIP3    H133845   2.346   0.993   3.162 -0.9078  1.1917  0.8553
 4118TIP3    H233846   2.494   1.005   3.136 -1.1384 -0.7007 -1.7007
 4119TIP3   OH233847   1.784   3.336   1.108 -0.4041  0.3270 -0.3180
 4119TIP3    H133848   1.820   3.253   1.076 -1.0271 -0.2184  0.3461
 4119TIP3    H233849   1.690   3.321   1.114 -0.3293  0.3697  1.7523
 4120TIP3   OH233850   5.310   4.967   5.756  0.6129 -0.4542  0.0457
 4120TIP3    H133851   5.230   4.959   5.807  0.0045 -1.5746 -1.0292
 4120TIP3    H233852   5.322   5.061   5.743  0.1295 -0.2274  1.2139
 4121TIP3   OH233853   1.247   0.893   5.731  0.2669 -0.2711 -0.2577
 4121TIP3    H133854   1.318   0.920   5.672 -0.5517 -1.4266 -1.8370
 4121TIP3    H233855   1.199   0.974   5.748  2.6146  0.8309  1.9268
 4122TIP3   OH233856   6.355   3.856   2.968  0.5187  0.1599  0.4412
 4122TIP3    H133857   6.268   3.823   2.945  0.1249  0.6420  1.2118
 4122TIP3    H233858   6.405   3.851   2.886 -0.1423 -0.3872  0.0597
 4123TIP3   OH233859   0.475   0.945  16.527  0.0684 -0.3864 -0.2393
 4123TIP3    H133860   0.421   0.985  16.596 -1.5407 -0.7990 -1.1940
 4123TIP3    H233861   0.532   1.017  16.497 -1.6194  0.8041 -0.7892
 4124TIP3   OH233862   0.704   3.521  16.050 -0.2605  0.5512 -0.0815
 4124TIP3    H133863   0.694   3.508  16.144  0.3956  2.3772  0.2750
 4124TIP3    H233864   0.798   3.517  16.034 -0.2943  1.2638 -0.4911
 4125TIP3   OH233865   4.469   0.816  12.531  0.4453  0.3501 -0.3132
 4125TIP3    H133866   4.477   0.727  12.566 -1.4202  0.2379 -0.1044
 4125TIP3    H233867   4.531   0.867  12.583 -0.3539 -0.3324  1.3987
 4126TIP3   OH233868   2.125   1.434   6.085 -0.6697 -0.0487  0.7569
 4126TIP3    H133869   2.117   1.518   6.130 -2.6559 -0.4973  1.3277
 4126TIP3    H233870   2.123   1.369   6.156  0.1150 -0.6307  0.2638
 4127TIP3   OH233871   3.624   0.705  13.387  0.1115  0.0542 -0.4507
 4127TIP3    H133872   3.600   0.797  13.377  0.4197 -0.0840 -3.2101
 4127TIP3    H233873   3.719   0.706  13.399 -0.0140  0.1073  0.6885
 4128TIP3   OH233874   2.893   4.809  11.358  0.1882  0.2335 -0.5159
 4128TIP3    H133875   2.898   4.874  11.429  0.6370  1.1514 -1.3493
 4128TIP3    H233876   2.898   4.725  11.402  0.0922  0.7759  0.5748
 4129TIP3   OH233877   6.315   5.667  11.472  0.3520 -0.2803  0.1434
 4129TIP3    H133878   6.312   5.753  11.514 -1.3419 -0.1814 -0.1187
 4129TIP3    H233879   6.330   5.687  11.379  0.4203 -0.2947  0.1513
 4130TIP3   OH233880   2.820   3.393  12.250  0.0739  0.0255  0.4675
 4130TIP3    H133881   2.909   3.414  12.278  0.2283 -2.1550  1.8168
 4130TIP3    H233882   2.827   3.376  12.156  1.0451  0.0305  0.5366
 4131TIP3   OH233883   3.352   1.990  15.343  0.0345  0.1262 -0.4942
 4131TIP3    H133884   3.445   1.993  15.322  0.1653 -0.5871 -0.0578
 4131TIP3    H233885   3.344   2.042  15.423  0.1755 -0.3695 -0.1529
 4132TIP3   OH233886   3.493   1.299   0.434  0.4907  0.2260  0.0851
 4132TIP3    H133887   3.474   1.392   0.436  2.6053  0.8059 -2.0970
 4132TIP3    H233888   3.462   1.266   0.518 -1.3736  2.6324  0.4427
 4133TIP3   OH233889   3.655   6.767   4.915 -0.7240 -0.3667  0.4830
 4133TIP3    H133890   3.564   6.785   4.939 -0.5689  0.2185  0.6318
 4133TIP3    H233891   3.704   6.842   4.947 -0.1171 -0.8963  0.8255
 4134TIP3   OH233892   6.458   5.068   0.087 -0.6290 -0.0199 -0.1194
 4134TIP3    H133893   6.388   5.064   0.152  0.4786 -0.1668  1.0833
 4134TIP3    H233894   6.503   5.151   0.104  0.4022 -0.6078  0.0829
 4135TIP3   OH233895   1.485   2.482   3.790 -0.0724 -0.6324 -0.1168
 4135TIP3    H133896   1.392   2.468   3.769 -0.4380  1.1041  0.2032
 4135TIP3    H233897   1.490   2.470   3.884 -0.9159  3.4023  0.6178
 4136TIP3   OH233898   4.444   0.821   2.687  0.0804 -0.1242 -0.6765
 4136TIP3    H133899   4.487   0.736   2.692 -0.4519 -0.3245  1.1088
 4136TIP3    H233900   4.369   0.815   2.746  2.1261  2.6806  2.6630
 4137TIP3   OH233901   4.039   0.599  15.661 -0.3257 -0.6866  0.0400
 4137TIP3    H133902   4.055   0.627  15.571  0.6563 -0.5473  0.2439
 4137TIP3    H233903   3.949   0.568  15.661 -0.4284 -0.4137 -0.9229
 4138TIP3   OH233904   6.003   3.280   3.613 -0.1849  0.7163 -0.1907
 4138TIP3    H133905   5.985   3.235   3.531 -0.7910  2.0149 -0.7996
 4138TIP3    H233906   5.962   3.366   3.603  1.6857  1.7550  0.5617
 4139TIP3   OH233907   5.117   2.278   0.550 -0.2013  0.2982  0.3248
 4139TIP3    H133908   5.152   2.349   0.603  0.3274 -0.5638  1.1631
 4139TIP3    H233909   5.123   2.201   0.606 -0.1715 -0.5315 -0.7815
 4140TIP3   OH233910   1.304   2.349   6.159  0.1527  0.0929  0.2066
 4140TIP3    H133911   1.372   2.410   6.190 -1.2935  2.2597 -0.6419
 4140TIP3    H233912   1.236   2.353   6.226  0.4751 -1.4582  0.6581
 4141TIP3   OH233913   4.217   1.643   5.353  0.5027 -0.8335 -0.1443
 4141TIP3    H133914   4.222   1.612   5.262 -1.3676 -1.7059 -0.0003
 4141TIP3    H233915   4.232   1.737   5.347 -0.0826 -0.7940 -1.4502
 4142TIP3   OH233916   4.074   4.774   1.691 -0.0903  0.2170  0.8439
 4142TIP3    H133917   4.004   4.827   1.728 -0.6018  0.0592  0.1244
 4142TIP3    H233918   4.044   4.683   1.701 -2.5079  0.1643 -3.9927
 4143TIP3   OH233919   3.194   5.254  12.021 -0.5851  0.0200  0.1079
 4143TIP3    H133920   3.148   5.293  12.096 -0.6759  1.2134 -0.5394
 4143TIP3    H233921   3.280   5.296  12.021 -0.4288 -0.2929 -0.2132
 4144TIP3   OH233922   2.544   0.751   1.407  0.2009  0.0804 -0.2389
 4144TIP3    H133923   2.502   0.832   1.436  1.0233 -0.1061  1.6304
 4144TIP3    H233924   2.475   0.685   1.413 -0.2869  0.4893 -1.1099
 4145TIP3   OH233925   1.018   4.293  10.586 -0.4211  0.6715  0.0546
 4145TIP3    H133926   0.951   4.229  10.562 -1.3646  1.4489  0.5492
 4145TIP3    H233927   1.086   4.282  10.519 -1.1251 -0.0077 -0.5751
 4146TIP3   OH233928   0.272   1.901   1.100 -0.3852 -0.1500 -0.5602
 4146TIP3    H133929   0.304   1.981   1.141 -0.4032 -0.3907 -0.0685
 4146TIP3    H233930   0.350   1.850   1.082 -0.2310  0.6013 -2.2539
 4147TIP3   OH233931   5.162   1.570  15.097  0.3031 -0.2278  0.8342
 4147TIP3    H133932   5.168   1.482  15.061  1.7169  0.8026 -1.7018
 4147TIP3    H233933   5.253   1.599  15.107 -0.1151  1.3255  0.5027
 4148TIP3   OH233934   5.964   3.372   3.985  0.4413  0.0988  0.2708
 4148TIP3    H133935   5.930   3.452   3.945 -0.7052 -0.4561  0.0624
 4148TIP3    H233936   5.921   3.368   4.070  2.2379  0.8463  1.2523
 4149TIP3   OH233937   6.284   5.639  12.806  0.6698 -0.2221 -0.2247
 4149TIP3    H133938   6.196   5.601  12.812  0.0222  1.2484  0.1896
 4149TIP3    H233939   6.318   5.609  12.722  0.5547 -2.3684  0.4402
 4150TIP3   OH233940   0.757   5.973   6.119 -0.0364 -0.1326  0.0842
 4150TIP3    H133941   0.787   5.882   6.123  0.7866  0.1761  1.8013
 4150TIP3    H233942   0.763   6.005   6.209 -2.4025  0.9954 -0.0758
 4151TIP3   OH233943   0.720   3.374   0.527 -0.2226  0.3763  0.7481
 4151TIP3    H133944   0.753   3.290   0.495 -0.5695  0.7071 -0.5607
 4151TIP3    H233945   0.734   3.434   0.453  0.3256  1.5575  1.7642
 4152TIP3   OH233946   6.045   2.511  10.606  0.0100  0.3574  0.4719
 4152TIP3    H133947   6.003   2.529  10.690 -0.4707  0.2035  0.2647
 4152TIP3    H233948   5.999   2.435  10.571  0.9412 -0.2683  0.5747
 4153TIP3   OH233949   0.589   0.438   3.302 -0.1156 -0.2796  0.8074
 4153TIP3    H133950   0.622   0.398   3.222 -0.4177  1.4954 -0.2669
 4153TIP3    H233951   0.646   0.514   3.317 -1.4924  0.7756  0.9146
 4154TIP3   OH233952   5.475   1.225  15.982 -0.5073 -0.5241  0.1404
 4154TIP3    H133953   5.540   1.287  16.014 -1.8629  0.5719  0.8586
 4154TIP3    H233954   5.431   1.192  16.060 -1.8142 -0.0975 -0.3685
 4155TIP3   OH233955   0.895   0.666   5.441  0.3317 -0.1327  0.6444
 4155TIP3    H133956   0.913   0.760   5.442 -0.4024  0.0229  0.1466
 4155TIP3    H233957   0.843   0.652   5.362 -1.4352 -0.6006  1.8278
 4156TIP3   OH233958   3.482   1.697   3.704  0.0865  0.0165 -0.1673
 4156TIP3    H133959   3.502   1.720   3.795 -1.4908  1.2783 -0.0928
 4156TIP3    H233960   3.562   1.656   3.671  1.2670  1.0525  1.2904
 4157TIP3   OH233961   5.025   1.299   4.915  0.1800  0.2195 -0.5600
 4157TIP3    H133962   4.978   1.323   4.835  1.2857 -3.1693 -2.4264
 4157TIP3    H233963   5.106   1.349   4.912  0.4677 -0.3081 -1.8956
 4158TIP3   OH233964   5.468   1.637   4.889 -0.0202 -0.4014  0.5378
 4158TIP3    H133965   5.539   1.635   4.824 -1.4073  0.0643 -1.0415
 4158TIP3    H233966   5.488   1.713   4.943  0.5594 -0.1247 -0.0388
 4159TIP3   OH233967   3.554   5.103  15.062  0.2393 -0.4570  0.2646
 4159TIP3    H133968   3.502   5.036  15.107  2.2380 -1.2535  1.5129
 4159TIP3    H233969   3.619   5.053  15.013  1.0176  0.5469  0.2662
 4160TIP3   OH233970   0.316   1.704   2.278  0.7004  0.0848 -0.5198
 4160TIP3    H133971   0.254   1.738   2.214  3.4132 -0.5846 -3.8140
 4160TIP3    H233972   0.401   1.706   2.233  2.9140 -0.3216  3.1670
 4161TIP3   OH233973   6.223   2.652  12.338 -0.1857 -0.2029  0.5186
 4161TIP3    H133974   6.247   2.632  12.248 -0.5731  0.2593  0.3071
 4161TIP3    H233975   6.181   2.573  12.371 -0.5371 -0.1880  0.1146
 4162TIP3   OH233976   0.634   4.254   2.544 -0.3699 -0.2429 -0.4924
 4162TIP3    H133977   0.602   4.169   2.574  0.7856  0.0411  1.7522
 4162TIP3    H233978   0.710   4.233   2.489 -1.3651 -0.7073 -1.7341
 4163TIP3   OH233979   0.275   3.888   2.540 -0.1650 -0.1003  0.0656
 4163TIP3    H133980   0.197   3.924   2.497  0.0533 -0.4352 -0.6159
 4163TIP3    H233981   0.342   3.955   2.529  0.3730 -0.8733 -1.6014
 4164TIP3   OH233982   0.905   2.012  15.354  0.2130 -0.0395 -0.1998
 4164TIP3    H133983   0.869   1.924  15.347  0.2436 -0.1024  0.3940
 4164TIP3    H233984   0.848   2.057  15.415  0.3941  0.2514 -0.2418
 4165TIP3   OH233985   5.719   6.770  16.066 -0.5520 -0.3538 -0.0807
 4165TIP3    H133986   5.748   6.764  16.157  0.0012 -1.9864 -0.3380
 4165TIP3    H233987   5.659   6.845  16.065  1.5602  1.4366  1.0139
 4166TIP3   OH233988   2.324   2.978  10.690  0.4410  0.2465  0.0268
 4166TIP3    H133989   2.257   3.040  10.717 -0.1966 -0.2087 -0.4854
 4166TIP3    H233990   2.374   2.959  10.770 -1.6836 -1.4563  1.0357
 4167TIP3   OH233991   2.262   0.032  13.619  0.2780  0.4798  0.0257
 4167TIP3    H133992   2.350   0.049  13.653  1.2532  3.5629 -3.4190
 4167TIP3    H233993   2.209   0.104  13.653 -0.6643 -0.5824  0.9142
 4168TIP3   OH233994   0.726   5.232  15.979  0.2338  0.0431 -0.2848
 4168TIP3    H133995   0.776   5.293  15.924  0.1487 -0.3810 -0.8487
 4168TIP3    H233996   0.791   5.193  16.037  0.2671  0.7622  0.1715
 4169TIP3   OH233997   6.569   4.344  13.778 -0.2289  0.1618  0.6187
 4169TIP3    H133998   6.559   4.423  13.726 -0.7546 -1.0671 -1.2142
 4169TIP3    H233999   6.515   4.279  13.735  4.4782 -2.8895 -1.4663
 4170TIP3   OH234000   0.163   5.709  15.701  0.3938  0.5722 -0.3079
 4170TIP3    H134001   0.194   5.623  15.727 -0.1720  0.7718  1.1182
 4170TIP3    H234002   0.236   5.768  15.721 -0.6215  0.9817  2.6522
 4171TIP3   OH234003   1.462   3.376  10.985 -0.1738  0.2948 -0.2577
 4171TIP3    H134004   1.482   3.468  10.964 -0.5725  0.4638  0.0898
 4171TIP3    H234005   1.528   3.326  10.936  0.8244  0.8211  0.4986
 4172TIP3   OH234006   1.763   5.633  13.495 -0.0007 -0.4058 -0.2561
 4172TIP3    H134007   1.838   5.666  13.444  1.3656  1.7379  2.8196
 4172TIP3    H234008   1.797   5.621  13.583 -2.9946 -0.6848  0.9786
 4173TIP3   OH234009   2.204   3.078  13.498  0.3311  0.3382  0.1634
 4173TIP3    H134010   2.127   3.082  13.443 -0.2497  1.1839  0.9990
 4173TIP3    H234011   2.262   3.014  13.455 -0.0718  0.9916 -1.4184
 4174TIP3   OH234012   3.090   0.600  15.976 -0.1056  0.6243  0.0070
 4174TIP3    H134013   2.995   0.602  15.966 -0.0982  0.1385 -0.1835
 4174TIP3    H234014   3.124   0.634  15.893 -0.1200  2.2438  0.6171
 4175TIP3   OH234015   1.092   1.079   4.926 -0.2970 -0.3788 -0.1223
 4175TIP3    H134016   1.003   1.044   4.919 -0.6545  0.5332 -0.1856
 4175TIP3    H234017   1.112   1.076   5.019 -0.9124  0.6729  0.0513
 4176TIP3   OH234018   6.435   0.045   0.457 -0.1401 -0.3557  0.3025
 4176TIP3    H134019   6.458   0.059   0.365 -0.2693 -0.3779  0.2673
 4176TIP3    H234020   6.371   0.113   0.476 -0.5403 -0.7037  0.2170
 4177TIP3   OH234021   5.126   4.148   1.811  0.2639  0.0497  0.0063
 4177TIP3    H134022   5.064   4.176   1.743  1.4954  2.1794 -0.3356
 4177TIP3    H234023   5.071   4.110   1.879 -1.2691  0.3890 -0.9815
 4178TIP3   OH234024   3.098   4.725   5.387  0.2618 -0.2586 -0.0677
 4178TIP3    H134025   3.076   4.736   5.294 -0.3439 -0.5093  0.0396
 4178TIP3    H234026   3.014   4.711   5.430  0.5817 -0.6346  0.4522
 4179TIP3   OH234027   3.261   1.112  16.361  0.1722  0.2573 -0.2555
 4179TIP3    H134028   3.340   1.127  16.309 -0.1359 -0.3063 -0.8931
 4179TIP3    H234029   3.223   1.032  16.325 -1.5609  1.3643 -1.0175
 4180TIP3   OH234030   0.482   6.777   4.782  0.3334  0.4454  0.2280
 4180TIP3    H134031   0.541   6.769   4.857 -0.0477  0.4097  0.5299
 4180TIP3    H234032   0.422   6.848   4.806 -0.5265 -0.3351  0.4770
 4181TIP3   OH234033   4.768   4.934  13.786  0.0070 -0.2753 -0.3998
 4181TIP3    H134034   4.768   4.923  13.881  2.0822  0.8061 -0.2024
 4181TIP3    H234035   4.683   4.974  13.766 -0.8586 -1.4080  0.8438
 4182TIP3   OH234036   2.120   4.780  13.966  0.2875 -0.0158 -0.0274
 4182TIP3    H134037   2.100   4.827  13.885 -0.3364  0.3239  0.3156
 4182TIP3    H234038   2.165   4.844  14.020  0.9023 -0.3089 -0.1813
 4183TIP3   OH234039   6.483   4.364  12.996 -0.6552 -1.0016 -0.0512
 4183TIP3    H134040   6.403   4.313  12.983 -2.0141  0.9916  0.0201
 4183TIP3    H234041   6.483   4.386  13.089  0.1469 -1.2195  0.0081
 4184TIP3   OH234042   0.628   5.662   0.700 -0.4961 -0.1386 -0.1675
 4184TIP3    H134043   0.568   5.641   0.628 -3.5287  0.4113  1.9890
 4184TIP3    H234044   0.580   5.727   0.752  1.1351 -1.1688  2.8479
 4185TIP3   OH234045   1.440   5.843   3.301  0.0288 -0.2822 -0.4162
 4185TIP3    H134046   1.443   5.908   3.370  1.7521 -0.3995 -0.3346
 4185TIP3    H234047   1.415   5.891   3.222  2.4503  0.7669 -0.6121
 4186TIP3   OH234048   1.370   4.191   5.381 -0.0583 -0.1026 -0.1900
 4186TIP3    H134049   1.422   4.195   5.461 -0.5224  0.7713  0.0851
 4186TIP3    H234050   1.289   4.148   5.407  0.7154 -2.0052 -0.7510
 4187TIP3   OH234051   2.299   1.972  16.849 -0.5011 -0.3080  0.2550
 4187TIP3    H134052   2.287   2.035  16.778 -1.2896 -0.7578 -0.0268
 4187TIP3    H234053   2.378   1.924  16.825  0.5195  1.0319  0.8400
 4188TIP3   OH234054   4.872   1.437  10.736  0.3272  0.0361  0.0811
 4188TIP3    H134055   4.824   1.520  10.731  1.6580  0.7946 -0.7405
 4188TIP3    H234056   4.908   1.436  10.825  2.9742  1.9556 -0.8572
 4189TIP3   OH234057   3.307   3.322  11.856  0.3941 -0.0794  0.5544
 4189TIP3    H134058   3.264   3.398  11.815  1.1924  0.0304 -0.1166
 4189TIP3    H234059   3.397   3.351  11.870  0.8537 -1.0753 -0.2015
 4190TIP3   OH234060   1.828   4.437  17.193  0.1784 -0.1632  0.1861
 4190TIP3    H134061   1.775   4.359  17.206 -0.8101  0.3488 -0.5897
 4190TIP3    H234062   1.864   4.427  17.105  2.2250 -0.9690  1.0518
 4191TIP3   OH234063   5.799   4.163   0.431 -0.3682  0.3868  0.2068
 4191TIP3    H134064   5.872   4.131   0.485 -0.6454 -1.7214 -0.5900
 4191TIP3    H234065   5.797   4.104   0.356 -0.3104  2.9369 -1.9428
 4192TIP3   OH234066   4.444   4.050   3.888  0.6254  0.5992 -0.5374
 4192TIP3    H134067   4.418   4.032   3.978  1.5485  0.9200 -0.1936
 4192TIP3    H234068   4.526   4.098   3.896 -0.5009  2.8243 -1.4858
 4193TIP3   OH234069   3.428   6.765   0.979  0.4750 -0.7204  0.3346
 4193TIP3    H134070   3.348   6.810   1.002  0.4674  0.9344 -2.4833
 4193TIP3    H234071   3.496   6.832   0.981  0.9431 -1.0786 -1.4776
 4194TIP3   OH234072   2.123   4.812  15.613  0.7471 -0.8867  0.7908
 4194TIP3    H134073   2.202   4.863  15.595  0.1394 -0.4158 -0.7117
 4194TIP3    H234074   2.051   4.872  15.594  0.0113 -1.3937  1.8778
 4195TIP3   OH234075   1.102   1.590  13.522 -0.1783 -0.2844 -0.1543
 4195TIP3    H134076   1.161   1.663  13.502 -1.0847  0.4675 -0.1764
 4195TIP3    H234077   1.102   1.585  13.618 -1.3836  0.8707 -0.0540
 4196TIP3   OH234078   0.538   1.352  11.873  0.2583 -0.5137 -0.3140
 4196TIP3    H134079   0.502   1.319  11.790  0.8132  1.2772 -1.3262
 4196TIP3    H234080   0.560   1.273  11.922 -2.1166 -1.6469 -0.9331
 4197TIP3   OH234081   2.918   2.630  16.580  0.6208  0.1808  0.2742
 4197TIP3    H134082   2.908   2.535  16.578  0.7283  0.1742  0.0223
 4197TIP3    H234083   2.915   2.656  16.488  0.2686  0.4563  0.3612
 4198TIP3   OH234084   1.051   0.656  11.404 -0.2855 -0.2364 -0.4195
 4198TIP3    H134085   1.108   0.648  11.328  1.5827 -1.3573  1.0129
 4198TIP3    H234086   1.074   0.741  11.442 -0.3043 -0.2380 -0.4043
 4199TIP3   OH234087   6.064   5.800  11.335  0.0872  0.3473  0.2018
 4199TIP3    H134088   6.055   5.886  11.376 -0.5162  0.3411  0.0884
 4199TIP3    H234089   6.147   5.805  11.288  0.6137  0.4746  1.1201
 4200TIP3   OH234090   2.156   1.105   3.785 -0.5954  0.2593 -0.4095
 4200TIP3    H134091   2.215   1.124   3.711 -0.4266 -0.4696 -0.4671
 4200TIP3    H234092   2.076   1.073   3.744 -0.5445 -0.0315 -0.2868
 4201TIP3   OH234093   0.341   5.284  10.699 -0.5242  0.1072 -0.4376
 4201TIP3    H134094   0.328   5.212  10.762 -1.6535  1.6820  1.2212
 4201TIP3    H234095   0.288   5.356  10.733  0.3797  1.6837 -2.1736
 4202TIP3   OH234096   2.180   0.297  13.271  0.5287 -0.0117  0.3042
 4202TIP3    H134097   2.181   0.210  13.309 -0.3698  0.2511  0.9667
 4202TIP3    H234098   2.231   0.351  13.332  1.9584 -0.2492 -0.6208
 4203TIP3   OH234099   0.143   6.810   4.604 -0.0480  0.0023  0.0175
 4203TIP3    H134100   0.129   6.731   4.655 -0.2770 -0.1564 -0.2877
 4203TIP3    H234101   0.170   6.779   4.517  0.1945  0.2660 -0.0037
 4204TIP3   OH234102   3.822   2.810   5.757 -0.1010 -0.1338  0.0506
 4204TIP3    H134103   3.807   2.905   5.762  0.4105 -0.0632  0.2725
 4204TIP3    H234104   3.740   2.775   5.721  0.2508  0.5623 -1.5175
 4205TIP3   OH234105   6.667   4.652   1.315 -0.5287  0.4087 -0.2251
 4205TIP3    H134106   6.722   4.638   1.239 -1.8851 -1.9454 -0.8945
 4205TIP3    H234107   6.587   4.692   1.280 -0.7583  0.2416  0.0972
 4206TIP3   OH234108   5.331   4.521   3.073 -0.0902  0.0384 -0.5945
 4206TIP3    H134109   5.347   4.428   3.058  0.0380  0.2164 -1.5987
 4206TIP3    H234110   5.269   4.547   3.005 -1.1406  0.4025  0.4703
 4207TIP3   OH234111   0.485   0.250   6.225  0.4720 -0.1726  0.2895
 4207TIP3    H134112   0.474   0.345   6.227  0.4168 -0.1705 -0.0978
 4207TIP3    H234113   0.438   0.219   6.303 -0.9492 -0.0215 -0.4710
 4208TIP3   OH234114   2.480   4.308  16.086 -0.2297 -0.4083 -0.4483
 4208TIP3    H134115   2.557   4.309  16.142 -0.6844  2.0450  0.2135
 4208TIP3    H234116   2.425   4.238  16.121  0.2150  0.0262  1.1761
 4209TIP3   OH234117   1.474   1.861  14.195  0.9487 -0.2141 -0.4016
 4209TIP3    H134118   1.475   1.901  14.282  2.3039  0.3692 -0.6487
 4209TIP3    H234119   1.420   1.920  14.141  1.4867  0.3467 -0.3409
 4210TIP3   OH234120   1.877   5.567   3.152 -0.0673  0.0029  0.5326
 4210TIP3    H134121   1.873   5.660   3.130  0.9978  0.4538  2.0941
 4210TIP3    H234122   1.788   5.535   3.136 -0.8071  1.5922  1.2471
 4211TIP3   OH234123   6.691   4.724  14.645  0.7503 -0.1009 -0.1586
 4211TIP3    H134124   6.773   4.677  14.661  1.1067  0.7852  0.7801
 4211TIP3    H234125   6.711   4.814  14.671 -0.8094 -0.0727  1.0756
 4212TIP3   OH234126   0.687   4.834   2.560  0.4010 -0.1250 -0.0636
 4212TIP3    H134127   0.639   4.782   2.495 -0.4381 -1.3328  1.4473
 4212TIP3    H234128   0.619   4.875   2.613  1.0701  0.6729  0.1991
 4213TIP3   OH234129   6.524   2.361   1.936 -0.2689 -0.5278  0.5722
 4213TIP3    H134130   6.549   2.321   2.019  0.4894 -0.1746  0.5192
 4213TIP3    H234131   6.549   2.297   1.870 -0.4965 -0.6346  0.5897
 4214TIP3   OH234132   1.756   1.855  17.184  0.0162  0.0652 -0.0708
 4214TIP3    H134133   1.677   1.864  17.237  0.2137  0.8639  0.1039
 4214TIP3    H234134   1.828   1.851  17.247  0.1436 -0.3681 -0.2377
 4215TIP3   OH234135   5.244   3.432  14.226 -0.4586  1.1007  0.2175
 4215TIP3    H134136   5.187   3.433  14.303 -0.7961 -0.0826 -0.0076
 4215TIP3    H234137   5.317   3.375  14.251  1.0134  3.0544  0.7341
 4216TIP3   OH234138   5.632   4.416   1.188 -0.1347  0.0710  0.0991
 4216TIP3    H134139   5.704   4.479   1.190 -1.0620  1.1769 -0.3573
 4216TIP3    H234140   5.583   4.437   1.108  0.2073 -2.0320 -0.7247
 4217TIP3   OH234141   0.504   3.062  15.499 -0.3867  0.2044  0.3278
 4217TIP3    H134142   0.448   3.083  15.424 -1.1537  0.1003  0.8530
 4217TIP3    H234143   0.481   3.128  15.565  0.2133  0.2397  0.5085
 4218TIP3   OH234144   1.689   1.533  13.197  0.0954  0.3399  0.0665
 4218TIP3    H134145   1.710   1.444  13.169 -0.1024  0.4663 -0.5013
 4218TIP3    H234146   1.595   1.542  13.181  0.2452  0.8825 -0.5537
 4219TIP3   OH234147   2.022   0.426  10.447  0.0830 -0.6543  0.0497
 4219TIP3    H134148   2.021   0.473  10.363 -0.8771 -0.5598  0.1087
 4219TIP3    H234149   1.947   0.462  10.495 -1.3950 -3.0293 -0.3480
 4220TIP3   OH234150   4.698   6.474   0.068  0.3651 -0.5272  0.1630
 4220TIP3    H134151   4.788   6.504   0.084  0.1467 -0.6108  1.7201
 4220TIP3    H234152   4.655   6.550   0.027  0.8792 -0.1381  0.3237
 4221TIP3   OH234153   2.328   4.144   4.359  0.0723 -0.3406  0.3692
 4221TIP3    H134154   2.331   4.238   4.343 -0.6347 -0.4963 -0.7552
 4221TIP3    H234155   2.297   4.106   4.277  1.0713 -1.6259  0.5436
 4222TIP3   OH234156   5.835   0.590  14.223 -0.3895  0.4424  0.9341
 4222TIP3    H134157   5.924   0.608  14.192 -0.4052 -0.9681 -0.0459
 4222TIP3    H234158   5.842   0.588  14.318  0.7943 -0.3834  0.8454
 4223TIP3   OH234159   0.524   2.524  10.681 -0.7351  0.3511  0.3141
 4223TIP3    H134160   0.471   2.549  10.606  0.0343  0.7289 -0.1209
 4223TIP3    H234161   0.590   2.464  10.645  0.1757  1.2162  0.5089
 4224TIP3   OH234162   5.906   6.112   1.547  0.1511  0.4396 -0.2447
 4224TIP3    H134163   5.942   6.192   1.586  2.1247 -0.3915 -0.2116
 4224TIP3    H234164   5.823   6.139   1.508  0.1307  2.2005  0.9120
 4225TIP3   OH234165   0.751   0.081  13.552 -0.3709 -0.4685 -0.4885
 4225TIP3    H134166   0.753  -0.012  13.574  0.6296  0.0426  1.8569
 4225TIP3    H234167   0.666   0.112  13.585 -0.5908 -0.4763 -1.0303
 4226TIP3   OH234168   4.199   2.299   0.370  0.0313  0.5498  0.3162
 4226TIP3    H134169   4.215   2.217   0.323  1.1125 -0.2099  1.9227
 4226TIP3    H234170   4.266   2.359   0.338 -0.9591  0.9602 -1.0990
 4227TIP3   OH234171   2.417   3.398  14.813  0.6916 -0.1304 -1.0192
 4227TIP3    H134172   2.421   3.442  14.899  1.7800  0.2033 -1.2159
 4227TIP3    H234173   2.453   3.463  14.752  0.9783 -0.7767 -1.5460
 4228TIP3   OH234174   6.143   5.995   3.379  0.0306  0.2122  0.3331
 4228TIP3    H134175   6.087   6.027   3.308 -1.5411 -1.8522  0.5664
 4228TIP3    H234176   6.212   5.946   3.334 -0.3480 -0.1825  0.1756
 4229TIP3   OH234177   5.514   1.009  16.577 -0.2808  0.0019  0.6843
 4229TIP3    H134178   5.555   0.938  16.628 -0.7710  1.1012  2.7233
 4229TIP3    H234179   5.426   0.976  16.558  0.1175 -0.6774 -0.0561
 4230TIP3   OH234180   5.877   4.635  15.098 -0.2927 -0.0365  0.2390
 4230TIP3    H134181   5.971   4.639  15.084 -0.1731 -0.4188  0.9444
 4230TIP3    H234182   5.866   4.589  15.180 -1.0904  0.2115  0.2814
 4231TIP3   OH234183   5.630   6.166  14.957  0.3100 -0.1214 -0.0781
 4231TIP3    H134184   5.588   6.223  14.892  1.5354  0.6685 -0.2200
 4231TIP3    H234185   5.575   6.173  15.035 -0.1444  0.4248 -0.4369
 4232TIP3   OH234186   5.484   5.873  15.512  0.4228  0.2374 -0.2462
 4232TIP3    H134187   5.574   5.900  15.532  0.3460 -0.0131  0.4675
 4232TIP3    H234188   5.446   5.948  15.466  1.0248  0.3094 -0.6369
 4233TIP3   OH234189   2.253   4.106  12.761  0.0591 -0.6770 -0.0753
 4233TIP3    H134190   2.241   4.011  12.765  0.2382 -0.6749  0.7225
 4233TIP3    H234191   2.335   4.122  12.808 -0.7138  0.0014  1.0747
 4234TIP3   OH234192   5.169   4.486   1.087  0.1649  0.1529  0.1139
 4234TIP3    H134193   5.097   4.506   1.027  1.2807 -1.7293 -2.0091
 4234TIP3    H234194   5.244   4.533   1.050  0.8173 -0.8193  0.1785
 4235TIP3   OH234195   6.342   3.753   2.115  0.6972 -0.0945 -0.2216
 4235TIP3    H134196   6.304   3.767   2.028  1.6468 -0.1620 -0.6545
 4235TIP3    H234197   6.418   3.810   2.117  1.4202 -1.0549  0.0843
 4236TIP3   OH234198   1.978   5.188   4.679  0.6989 -0.5329  0.2054
 4236TIP3    H134199   1.996   5.094   4.681 -0.8251 -0.8853 -0.8114
 4236TIP3    H234200   1.962   5.207   4.587  0.5880  0.6508  0.4551
 4237TIP3   OH234201   3.819   5.852   2.744 -0.0810  0.6042 -0.4713
 4237TIP3    H134202   3.785   5.908   2.675 -2.9883  1.6888  1.6304
 4237TIP3    H234203   3.873   5.911   2.798 -0.6069  0.6214  0.0415
 4238TIP3   OH234204   0.326   1.456  15.874 -0.2967 -0.4791 -0.1682
 4238TIP3    H134205   0.394   1.390  15.885 -1.2145 -1.1144  2.6601
 4238TIP3    H234206   0.255   1.410  15.830  0.1235 -0.5529 -0.7740
 4239TIP3   OH234207   3.358   4.746  15.512 -0.0212  0.2423  0.1981
 4239TIP3    H134208   3.394   4.678  15.456 -1.3302 -1.3273  1.1834
 4239TIP3    H234209   3.265   4.749  15.490 -0.0389  1.5822  0.3368
 4240TIP3   OH234210   3.358   1.131   0.951  0.1848  0.0282  0.0022
 4240TIP3    H134211   3.354   1.204   1.013 -0.2205  0.2254 -0.2492
 4240TIP3    H234212   3.418   1.068   0.991 -1.3845 -0.6360  1.4497
 4241TIP3   OH234213   2.765   0.418   5.075  0.0694 -0.5645  0.1196
 4241TIP3    H134214   2.721   0.469   5.006  1.6572  2.5353  1.2045
 4241TIP3    H234215   2.842   0.381   5.031 -1.6030 -3.0911 -0.9243
 4242TIP3   OH234216   5.858   4.062  15.398 -0.1683 -0.2959 -0.4307
 4242TIP3    H134217   5.833   3.971  15.409 -3.2347  0.7257  2.8650
 4242TIP3    H234218   5.898   4.087  15.481 -1.7896  1.9404 -0.2104
 4243TIP3   OH234219   2.971   4.365  11.731 -0.1320  0.2434 -0.7382
 4243TIP3    H134220   3.006   4.419  11.660  0.4048  0.8017 -0.0677
 4243TIP3    H234221   2.891   4.327  11.695 -0.4997  1.4575 -1.2313
 4244TIP3   OH234222   0.068   5.476   1.399  0.5419 -0.2555  0.0554
 4244TIP3    H134223   0.089   5.563   1.365  1.3564 -0.3086  0.4030
 4244TIP3    H234224   0.125   5.466   1.476 -0.6219 -0.4946  0.9126
 4245TIP3   OH234225   2.418   0.763  13.263 -0.1412  0.0370  0.4689
 4245TIP3    H134226   2.468   0.834  13.302  0.6888 -1.1196  1.6309
 4245TIP3    H234227   2.467   0.684  13.286 -1.5140 -0.9891  0.0309
 4246TIP3   OH234228   6.674   6.326  15.412  1.1215 -0.5312 -0.1416
 4246TIP3    H134229   6.595   6.289  15.371  0.0214  1.4054  0.0859
 4246TIP3    H234230   6.666   6.420  15.398  2.3057 -0.0824  1.8065
 4247TIP3   OH234231   4.663   2.968   5.512 -0.0676 -0.0694 -0.5825
 4247TIP3    H134232   4.633   2.991   5.424  0.8623  0.9326 -0.6731
 4247TIP3    H234233   4.682   2.875   5.508 -2.5661 -0.6517 -0.6525
 4248TIP3   OH234234   2.969   3.589  12.685  0.2882 -0.5370  0.2526
 4248TIP3    H134235   2.877   3.606  12.666  0.0129 -1.7297  0.4288
 4248TIP3    H234236   2.994   3.659  12.746 -0.5011 -0.1965  0.1986
 4249TIP3   OH234237   6.754   2.167  16.581 -0.0553  0.0958 -0.6389
 4249TIP3    H134238   6.738   2.108  16.655 -0.8183  1.2025  0.1279
 4249TIP3    H234239   6.849   2.167  16.569  0.0853 -0.0641  0.3978
 4250TIP3   OH234240   4.149   1.797   0.329 -0.5842 -0.4875 -0.3034
 4250TIP3    H134241   4.227   1.847   0.305  0.2698 -1.4451  0.3738
 4250TIP3    H234242   4.076   1.853   0.304  0.2265  2.7638  3.5597
 4251TIP3   OH234243   4.851   3.816   3.785  0.3192 -0.2924  0.3057
 4251TIP3    H134244   4.861   3.911   3.771  1.9416 -0.6139 -1.0836
 4251TIP3    H234245   4.775   3.792   3.732  0.7047  0.0421 -0.4198
 4252TIP3   OH234246   3.965   1.621  14.571 -0.1211 -0.9094 -0.6174
 4252TIP3    H134247   4.037   1.681  14.553  0.1253 -0.8077  0.6224
 4252TIP3    H234248   3.898   1.645  14.507  1.7801 -2.5827 -3.4278
 4253TIP3   OH234249   2.486   5.713  16.510  0.3076 -0.4069 -0.4370
 4253TIP3    H134250   2.469   5.647  16.578 -2.4626  1.4257  0.8592
 4253TIP3    H234251   2.535   5.781  16.556 -1.5997  0.8539 -0.1397
 4254TIP3   OH234252   3.677   3.778   3.093  0.2981  0.5798  0.3339
 4254TIP3    H134253   3.674   3.873   3.091 -0.4396  0.5750  0.5846
 4254TIP3    H234254   3.768   3.756   3.109  0.4395  1.2492  0.4654
 4255TIP3   OH234255   1.315   5.746   0.620 -0.2003  0.1794 -0.0504
 4255TIP3    H134256   1.275   5.661   0.602  0.0632 -0.2159  1.1075
 4255TIP3    H234257   1.255   5.810   0.584 -0.1566 -0.5102 -1.3957
 4256TIP3   OH234258   0.052   1.294  17.163  0.2188  0.7209 -0.6349
 4256TIP3    H134259   0.060   1.199  17.159 -0.2475  0.6817 -0.6355
 4256TIP3    H234260   0.090   1.324  17.080 -1.5879  0.4068 -1.6206
 4257TIP3   OH234261   3.263   1.028  15.188 -0.2793  0.1268  0.3654
 4257TIP3    H134262   3.210   0.967  15.240 -2.9098  0.8077 -1.3052
 4257TIP3    H234263   3.238   1.010  15.098 -0.6902  3.2000 -0.2234
 4258TIP3   OH234264   6.190   2.627   1.499 -0.5158  0.3040 -0.2328
 4258TIP3    H134265   6.214   2.586   1.582 -1.2330  0.7454  0.1981
 4258TIP3    H234266   6.150   2.557   1.448  0.8758 -0.2314 -0.6295
 4259TIP3   OH234267   4.336   0.020   3.573  0.1882  0.1747 -0.0607
 4259TIP3    H134268   4.274   0.061   3.634  0.2597  0.3726 -0.1198
 4259TIP3    H234269   4.379   0.094   3.530 -0.4737  0.0467 -0.9855
 4260TIP3   OH234270   5.560   2.166   4.953  0.3620  0.2296 -0.7983
 4260TIP3    H134271   5.484   2.206   4.997 -0.3177 -0.6727 -1.1112
 4260TIP3    H234272   5.615   2.240   4.928  0.4707  0.7971  1.0329
 4261TIP3   OH234273   6.114   0.922   3.803  0.3865 -0.2584  0.3098
 4261TIP3    H134274   6.115   1.017   3.802  0.9439 -0.2609 -0.5376
 4261TIP3    H234275   6.206   0.897   3.792  0.0823 -0.8896 -1.0001
 4262TIP3   OH234276   0.525   4.082   1.233  0.2220 -0.0873 -0.0384
 4262TIP3    H134277   0.590   4.017   1.260  1.7521  1.1660 -0.5319
 4262TIP3    H234278   0.524   4.076   1.137 -0.4287 -0.0938 -0.0391
 4263TIP3   OH234279   5.720   5.754   2.069 -0.0773  0.1248 -0.1008
 4263TIP3    H134280   5.771   5.795   2.139  1.8025  0.7603 -1.7522
 4263TIP3    H234281   5.696   5.668   2.103 -0.6941  1.0528  1.9392
 4264TIP3   OH234282   2.930   5.028  11.901 -0.5150  0.0780  0.0163
 4264TIP3    H134283   2.951   4.974  11.977  0.4994  0.2862 -0.1003
 4264TIP3    H234284   2.998   5.008  11.838 -0.8147  0.6094 -0.4855
 4265TIP3   OH234285   5.694   0.467  14.026  0.0577 -0.3915  0.1778
 4265TIP3    H134286   5.666   0.555  14.000 -1.2090 -0.8817 -0.1776
 4265TIP3    H234287   5.748   0.481  14.103 -0.3951  0.6844  0.3158
 4266TIP3   OH234288   6.236   6.187   5.011  0.4054  0.1088  0.5460
 4266TIP3    H134289   6.224   6.247   4.937  1.3531  1.4640  1.4579
 4266TIP3    H234290   6.281   6.239   5.078  0.6556 -1.4289  1.6296
 4267TIP3   OH234291   2.621   4.047  16.966 -0.7677  0.1678 -0.1095
 4267TIP3    H134292   2.526   4.047  16.973 -0.7072  1.1669  0.9163
 4267TIP3    H234293   2.648   4.133  16.997  0.5200 -0.3710  0.3426
 4268TIP3   OH234294   5.736   2.120  16.445  0.3928  0.2176 -0.2271
 4268TIP3    H134295   5.825   2.085  16.456  0.0172 -1.0252 -0.9072
 4268TIP3    H234296   5.704   2.135  16.534  1.7113  1.8652  0.0141
 4269TIP3   OH234297   0.928   5.522   4.702  0.7771  0.5111  0.0817
 4269TIP3    H134298   0.955   5.494   4.615  1.1517  1.7113 -0.2120
 4269TIP3    H234299   0.998   5.490   4.760  0.7112  0.0283 -0.1001
 4270TIP3   OH234300   4.413   1.594   4.885  0.2398  0.3706  0.4380
 4270TIP3    H134301   4.399   1.661   4.818 -2.0149 -0.0872  0.3613
 4270TIP3    H234302   4.449   1.520   4.838 -1.2666  0.0744 -0.3088
 4271TIP3   OH234303   3.555   2.432   5.864  0.7775  0.5697 -0.0398
 4271TIP3    H134304   3.502   2.374   5.918  1.1927  0.0228 -0.2081
 4271TIP3    H234305   3.503   2.512   5.856 -1.1409 -0.7448 -2.1028
 4272TIP3   OH234306   5.837   2.020  10.565 -0.4699  0.5770 -0.2265
 4272TIP3    H134307   5.827   1.959  10.492  0.5659  1.6006 -1.2861
 4272TIP3    H234308   5.833   1.965  10.643 -0.4811 -0.7182 -1.1004
 4273TIP3   OH234309   4.079   6.738  14.132  0.5390 -0.1246  0.0780
 4273TIP3    H134310   4.128   6.656  14.136  0.9734  0.1591  0.6958
 4273TIP3    H234311   4.142   6.805  14.159  0.9085  0.7561 -2.5909
 4274TIP3   OH234312   4.368   2.942   1.215  0.2947  0.1361  0.3829
 4274TIP3    H134313   4.406   3.029   1.206 -1.1943  0.9328  1.3296
 4274TIP3    H234314   4.386   2.917   1.306  3.0499 -1.7675 -0.5637
 4275TIP3   OH234315   2.024   4.312  15.493 -0.2298 -0.1000 -0.3239
 4275TIP3    H134316   2.011   4.368  15.417 -1.0053  0.2621  0.0650
 4275TIP3    H234317   2.117   4.321  15.514 -0.0664 -0.0032 -1.0625
 4276TIP3   OH234318   4.683   4.109   3.649  0.1675  0.2664 -0.1822
 4276TIP3    H134319   4.746   4.163   3.600  1.0105  0.6646  1.2802
 4276TIP3    H234320   4.631   4.172   3.698  0.0177 -0.1710  0.2239
 4277TIP3   OH234321   4.268   5.615   1.346  0.3830  0.5614  0.2565
 4277TIP3    H134322   4.237   5.705   1.362  1.2465  0.6572  1.6072
 4277TIP3    H234323   4.359   5.626   1.317 -0.0153  0.1756 -1.2048
 4278TIP3   OH234324   5.881   2.540  12.354  0.2105  0.2108 -0.3624
 4278TIP3    H134325   5.974   2.521  12.343  0.0732 -0.1987 -0.8288
 4278TIP3    H234326   5.859   2.501  12.439 -0.4980 -3.5604 -2.0460
 4279TIP3   OH234327   5.364   4.405   5.256  0.1937 -0.3788  0.3542
 4279TIP3    H134328   5.286   4.451   5.286  0.5939  0.6912 -0.2102
 4279TIP3    H234329   5.369   4.424   5.162 -0.7347 -3.2323 -0.3611
 4280TIP3   OH234330   3.942   5.140   5.634 -0.6291 -0.5625 -0.1139
 4280TIP3    H134331   3.992   5.141   5.716  0.2857 -0.0035 -0.6500
 4280TIP3    H234332   3.915   5.049   5.624  0.1133 -0.8437  0.3138
 4281TIP3   OH234333   6.321   1.091   3.104 -0.1567  0.0174 -0.4937
 4281TIP3    H134334   6.263   1.016   3.095 -0.8267  0.5471 -0.6416
 4281TIP3    H234335   6.369   1.095   3.021 -0.6554  0.1902 -0.7764
 4282TIP3   OH234336   0.549   1.647  15.204 -0.0867 -0.0433 -0.1749
 4282TIP3    H134337   0.568   1.740  15.217 -0.1549 -0.0732  0.1583
 4282TIP3    H234338   0.453   1.642  15.209 -0.1815  0.0658 -1.5444
 4283TIP3   OH234339   0.554   5.485   3.346 -0.3922  0.2563  0.3958
 4283TIP3    H134340   0.545   5.544   3.271  3.1542 -2.3407 -2.4261
 4283TIP3    H234341   0.494   5.413   3.327  0.4217 -0.3480  0.0833
 4284TIP3   OH234342   0.910   4.260   0.537 -0.1196 -0.1155 -0.7421
 4284TIP3    H134343   0.923   4.211   0.619  2.1068  1.8188  0.1702
 4284TIP3    H234344   0.868   4.341   0.564  1.3526  0.8905 -1.3362
 4285TIP3   OH234345   2.005   5.482  13.200  0.0787 -0.2988  0.1070
 4285TIP3    H134346   1.930   5.437  13.161 -1.1871  2.6625 -1.1375
 4285TIP3    H234347   2.078   5.463  13.141 -0.2511 -1.1549 -0.0466
 4286TIP3   OH234348   4.734   0.680  16.394  0.0206 -0.2563  0.2745
 4286TIP3    H134349   4.746   0.681  16.299  2.3657 -0.5964  0.5058
 4286TIP3    H234350   4.681   0.602  16.410 -2.2689  0.9600 -0.8653
 4287TIP3   OH234351   3.977   6.469   3.612 -0.5617 -0.1307  0.5660
 4287TIP3    H134352   4.038   6.537   3.639  1.0333 -1.2089 -0.2250
 4287TIP3    H234353   3.892   6.514   3.609  0.0782  1.3150  2.0288
 4288TIP3   OH234354   3.821   5.704  16.484 -0.4139  0.3384 -0.0714
 4288TIP3    H134355   3.908   5.666  16.495 -0.5461  0.3152  1.0019
 4288TIP3    H234356   3.830   5.793  16.519 -0.8290  0.3169  0.0939
 4289TIP3   OH234357   3.884   6.110   4.516  0.2156  0.1945 -0.4991
 4289TIP3    H134358   3.945   6.174   4.551  0.0179  0.9323 -1.4454
 4289TIP3    H234359   3.923   6.025   4.537  0.0745  0.5826  1.4833
 4290TIP3   OH234360   5.768   4.186   4.375 -0.2043  0.2070 -0.2804
 4290TIP3    H134361   5.722   4.163   4.455  0.0112  0.9900  0.0764
 4290TIP3    H234362   5.732   4.271   4.350 -0.0633  0.1043 -0.8525
 4291TIP3   OH234363   0.615   6.275   4.682 -0.3003  0.2559  0.2258
 4291TIP3    H134364   0.655   6.207   4.737 -0.9619 -0.2085  0.1352
 4291TIP3    H234365   0.683   6.343   4.676  2.1016 -2.0960 -3.0763
 4292TIP3   OH234366   2.337   3.455   4.077  0.2909  0.1056  0.3811
 4292TIP3    H134367   2.421   3.415   4.103  0.1934 -0.1714  0.2767
 4292TIP3    H234368   2.337   3.449   3.981 -0.1836 -0.5878  0.4192
 4293TIP3   OH234369   2.539   3.978  14.962  0.1468 -0.7549 -0.1907
 4293TIP3    H134370   2.485   3.965  15.040 -1.4060  0.4792 -1.0125
 4293TIP3    H234371   2.599   4.048  14.986 -0.7652  0.0783 -0.2938
 4294TIP3   OH234372   0.984   4.851   1.262 -0.2417 -0.3590  0.2587
 4294TIP3    H134373   0.930   4.900   1.324 -0.7195 -0.8327  0.2326
 4294TIP3    H234374   0.922   4.792   1.218 -0.2982  1.2627 -2.0392
 4295TIP3   OH234375   3.630   4.800   3.616  0.0906 -0.4345 -0.1310
 4295TIP3    H134376   3.537   4.794   3.639  0.0721 -0.0605 -0.1020
 4295TIP3    H234377   3.631   4.810   3.521  0.0479  0.5392 -0.0470
 4296TIP3   OH234378   5.304   1.553  14.766  0.3905  0.4776  0.3640
 4296TIP3    H134379   5.310   1.486  14.834  1.0252 -1.2062 -1.2533
 4296TIP3    H234380   5.395   1.565  14.737  0.2477  1.8875  0.4583
 4297TIP3   OH234381   2.291   1.462   4.490 -0.3871  0.3937 -0.1237
 4297TIP3    H134382   2.342   1.542   4.473 -0.2938  0.3134 -0.2225
 4297TIP3    H234383   2.354   1.391   4.481 -0.4178  0.3239  0.2026
 4298TIP3   OH234384   4.877   3.630  12.302 -0.2479 -0.4603  0.4596
 4298TIP3    H134385   4.956   3.607  12.252 -0.1315 -0.3556  0.5936
 4298TIP3    H234386   4.862   3.554  12.359  0.7123  0.1970  1.6169
 4299TIP3   OH234387   2.095   3.512  16.061 -0.4474 -0.1895 -0.0815
 4299TIP3    H134388   2.071   3.590  16.010 -0.6678  0.1454  0.5313
 4299TIP3    H234389   2.189   3.502  16.044  0.3049  2.0119  2.1822
 4300TIP3   OH234390   0.208   0.329   1.888  0.0607 -0.4983  0.0451
 4300TIP3    H134391   0.169   0.244   1.907  0.6735 -1.0390 -1.0067
 4300TIP3    H234392   0.247   0.319   1.801  0.8631  0.6021  0.2470
 4301TIP3   OH234393   4.075   1.337  15.166 -0.4873 -0.8581  0.5168
 4301TIP3    H134394   4.018   1.411  15.145  0.1579 -0.8098 -1.2585
 4301TIP3    H234395   4.034   1.296  15.242 -2.0928  0.0188  0.1738
 4302TIP3   OH234396   1.149   4.777   5.941  0.2844 -0.2444 -0.2245
 4302TIP3    H134397   1.165   4.713   6.011 -1.5229 -1.4426 -0.8500
 4302TIP3    H234398   1.148   4.862   5.986 -0.1694 -0.9261  1.0890
 4303TIP3   OH234399   6.517   3.099   2.112  0.2502 -0.4915 -0.7808
 4303TIP3    H134400   6.527   3.050   2.031 -0.7421 -2.6065  0.2908
 4303TIP3    H234401   6.531   3.034   2.181 -0.8897  0.7916  0.7329
 4304TIP3   OH234402   5.277   0.188   3.491  0.0498  0.0985 -0.0192
 4304TIP3    H134403   5.286   0.102   3.451 -2.3855 -0.7719  1.1038
 4304TIP3    H234404   5.260   0.247   3.417  2.0548 -0.2753 -0.8309
 4305TIP3   OH234405   3.623   1.294  11.550 -0.2260  0.0105 -0.1952
 4305TIP3    H134406   3.657   1.377  11.518  0.0483 -0.4026 -1.0184
 4305TIP3    H234407   3.696   1.255  11.599 -0.0658 -0.1294 -0.5439
 4306TIP3   OH234408   3.737   2.636  12.362  0.4100  0.0043 -0.0035
 4306TIP3    H134409   3.766   2.637  12.271  1.5335 -0.5314  0.3263
 4306TIP3    H234410   3.751   2.726  12.392  0.3743  0.0986 -0.2656
 4307TIP3   OH234411   2.578   3.830   0.779  0.2349  0.2126  0.4622
 4307TIP3    H134412   2.635   3.761   0.746  0.1735  0.8926 -1.1953
 4307TIP3    H234413   2.505   3.832   0.716 -0.2972  1.0667  1.0856
 4308TIP3   OH234414   3.211   2.294   3.491 -0.1906  0.8753 -0.1508
 4308TIP3    H134415   3.252   2.371   3.529 -1.3687  0.7779  1.4380
 4308TIP3    H234416   3.247   2.288   3.402 -0.8256  3.8410 -0.7221
 4309TIP3   OH234417   2.835   6.235   3.175  0.2353 -1.2409 -0.2483
 4309TIP3    H134418   2.776   6.270   3.241  0.0325  0.1995 -1.1572
 4309TIP3    H234419   2.842   6.142   3.196 -0.9353 -1.0834  0.9408
 4310TIP3   OH234420   2.591   1.881   3.639  0.3651  0.3943  0.0388
 4310TIP3    H134421   2.555   1.965   3.613 -0.3330 -0.0099 -0.3187
 4310TIP3    H234422   2.685   1.897   3.647  0.3894  0.9393 -1.1311
 4311TIP3   OH234423   3.274   6.461   2.013 -0.2318  0.5494 -0.2766
 4311TIP3    H134424   3.323   6.491   2.090  1.4041 -0.6254 -0.7999
 4311TIP3    H234425   3.340   6.458   1.943 -1.2575 -0.2729 -1.2304
 4312TIP3   OH234426   6.669   1.898  14.827  0.5528  0.1816 -0.2667
 4312TIP3    H134427   6.635   1.987  14.821  2.6475  1.0226 -0.3301
 4312TIP3    H234428   6.681   1.883  14.921 -1.3582 -0.7211 -0.1053
 4313TIP3   OH234429   3.956   3.661   2.138  0.2654 -0.1057  0.1646
 4313TIP3    H134430   3.977   3.569   2.121 -3.7226 -1.1509 -0.0397
 4313TIP3    H234431   3.969   3.705   2.054  2.0202 -0.4511  0.2158
 4314TIP3   OH234432   3.830   4.649  15.715 -0.1886  0.2799 -0.1484
 4314TIP3    H134433   3.843   4.621  15.624  0.4175 -1.0183  0.3121
 4314TIP3    H234434   3.815   4.568  15.763 -1.2294  1.0058  0.8199
 4315TIP3   OH234435   4.059   1.470   6.297 -0.8108  0.2693 -0.2207
 4315TIP3    H134436   3.995   1.469   6.369 -1.3025 -2.4464 -0.5553
 4315TIP3    H234437   4.023   1.409   6.233  1.3254 -0.0862 -1.1711
 4316TIP3   OH234438   4.476   0.884  15.613 -0.6060 -0.1632  0.0566
 4316TIP3    H134439   4.398   0.833  15.592 -0.0891 -1.6225  1.5485
 4316TIP3    H234440   4.516   0.902  15.527 -2.2534  0.1520 -0.6876
 4317TIP3   OH234441   3.767   4.368   1.664 -0.5690 -0.5734  0.3203
 4317TIP3    H134442   3.783   4.350   1.756 -0.3202  1.4724  0.7234
 4317TIP3    H234443   3.817   4.448   1.646 -1.8724 -0.0427 -1.1756
 4318TIP3   OH234444   0.220   0.510   6.720 -0.2729 -0.2026 -0.3856
 4318TIP3    H134445   0.142   0.565   6.715  0.7847  1.4753  0.5007
 4318TIP3    H234446   0.275   0.539   6.648 -0.8884 -2.1764 -1.7281
 4319TIP3   OH234447   1.068   6.437   1.880  0.6453  0.6128 -0.2331
 4319TIP3    H134448   1.139   6.502   1.877  1.6222 -0.3644  0.5755
 4319TIP3    H234449   1.069   6.405   1.971 -0.2769 -0.0242 -0.4360
 4320TIP3   OH234450   0.365   5.379  13.741  0.2991 -0.3208  0.4225
 4320TIP3    H134451   0.377   5.452  13.801 -2.1691  1.5412 -1.1892
 4320TIP3    H234452   0.421   5.399  13.666  0.6498 -0.8136  0.5424
 4321TIP3   OH234453   4.306   6.761   2.666 -0.3135  1.0240 -0.3907
 4321TIP3    H134454   4.312   6.726   2.755  3.9599  4.9254  1.2488
 4321TIP3    H234455   4.348   6.694   2.611 -0.7006 -0.3313  0.8949
 4322TIP3   OH234456   4.932   1.696  14.637 -0.3192  0.3827  0.6787
 4322TIP3    H134457   4.857   1.681  14.578  1.1964 -1.7032 -0.8943
 4322TIP3    H234458   4.925   1.627  14.702 -0.1330  0.5882  0.9160
 4323TIP3   OH234459   0.374   2.381  15.880 -0.7054 -0.3870 -0.0044
 4323TIP3    H134460   0.414   2.366  15.966 -0.8411 -0.7670 -0.0083
 4323TIP3    H234461   0.448   2.406  15.824 -0.7497  0.8515  0.4486
 4324TIP3   OH234462   0.419   1.903  16.595 -0.1930  0.6713 -0.0779
 4324TIP3    H134463   0.379   1.844  16.530  2.7671 -0.6946 -0.8445
 4324TIP3    H234464   0.345   1.948  16.636 -2.6861 -3.3110  0.3010
 4325TIP3   OH234465   5.246   5.489   4.910  0.7872  0.5272  0.1250
 4325TIP3    H134466   5.253   5.482   5.006 -1.2630  2.2436  0.4638
 4325TIP3    H234467   5.221   5.580   4.894 -1.2852 -0.2948 -1.8490
 4326TIP3   OH234468   0.735   0.661  14.150  0.2000  0.3444 -0.4020
 4326TIP3    H134469   0.742   0.609  14.230 -1.6213 -1.0234 -1.0708
 4326TIP3    H234470   0.644   0.692  14.150 -0.0614 -0.3219 -2.3071
 4327TIP3   OH234471   2.552   0.401   4.778  0.8796 -0.2735 -0.1258
 4327TIP3    H134472   2.567   0.315   4.738 -0.9511 -0.9075  0.4508
 4327TIP3    H234473   2.513   0.381   4.863  0.4665  1.1293  0.0338
 4328TIP3   OH234474   5.094   0.177   3.721 -0.6911  0.1178  0.5800
 4328TIP3    H134475   5.178   0.165   3.677 -0.2129  1.5735  1.0270
 4328TIP3    H234476   5.049   0.245   3.670  0.1051  2.2396  2.5097
 4329TIP3   OH234477   3.362   6.198   2.884  0.2705 -0.2197  0.3999
 4329TIP3    H134478   3.412   6.222   2.806 -0.8851 -0.4183 -0.4329
 4329TIP3    H234479   3.397   6.112   2.909  0.9088  0.0127  0.3336
 4330TIP3   OH234480   1.841   0.526  12.449 -0.1724  0.2583 -1.0409
 4330TIP3    H134481   1.802   0.452  12.495 -0.3044  0.9367 -0.0530
 4330TIP3    H234482   1.795   0.603  12.482  1.4036  0.9942 -0.4812
 4331TIP3   OH234483   4.170   1.147  14.446  0.1303  0.0229 -0.0693
 4331TIP3    H134484   4.098   1.210  14.445 -1.1592 -1.4184 -0.7785
 4331TIP3    H234485   4.157   1.093  14.368 -0.4094 -2.8588  1.8669
 4332TIP3   OH234486   6.085   1.630   1.299  0.4280 -0.1326  0.2115
 4332TIP3    H134487   6.157   1.676   1.257 -1.2403  1.6117 -0.9236
 4332TIP3    H234488   6.083   1.665   1.388  0.9600 -0.2112  0.2601
 4333TIP3   OH234489   4.901   0.125   1.634 -0.4519  0.2205 -0.3405
 4333TIP3    H134490   4.984   0.099   1.675  1.0239  1.0783 -2.5579
 4333TIP3    H234491   4.872   0.201   1.684 -1.2354 -1.4799  1.9546
 4334TIP3   OH234492   4.003   6.614   1.214 -0.2327 -0.3333  0.4760
 4334TIP3    H134493   3.996   6.632   1.120  0.2909  1.9952  0.8381
 4334TIP3    H234494   4.044   6.527   1.218 -0.5806 -0.6376 -1.4321
 4335TIP3   OH234495   4.452   5.750  11.076  0.1939  0.6496  0.7304
 4335TIP3    H134496   4.434   5.691  11.003 -0.5644  0.4913  1.0387
 4335TIP3    H234497   4.379   5.737  11.136  1.7874 -0.7512  2.4965
 4336TIP3   OH234498   3.205   1.455   5.274 -0.3555 -0.2096 -0.3949
 4336TIP3    H134499   3.187   1.496   5.358 -1.3582  1.1138 -1.2111
 4336TIP3    H234500   3.297   1.429   5.279  0.5994  2.8761 -0.0727
 4337TIP3   OH234501   0.441   2.791   4.376 -0.3688  0.0870  0.1895
 4337TIP3    H134502   0.445   2.833   4.462 -0.2850  2.2480 -0.7920
 4337TIP3    H234503   0.532   2.768   4.357 -0.0343  1.6288 -0.2139
 4338TIP3   OH234504   0.225   5.528  14.670 -0.2764 -0.3447 -0.6494
 4338TIP3    H134505   0.140   5.526  14.626 -0.5040 -1.3058 -0.1892
 4338TIP3    H234506   0.278   5.586  14.617 -1.2535  0.3597 -0.8856
 4339TIP3   OH234507   2.900   0.262  12.241 -0.2746  0.4388 -0.5919
 4339TIP3    H134508   2.882   0.305  12.325 -1.6536 -0.1884 -0.5427
 4339TIP3    H234509   2.834   0.297  12.181  1.5218  1.9212 -1.8396
 4340TIP3   OH234510   0.291   1.701   1.868 -0.3640  0.2700  0.0415
 4340TIP3    H134511   0.196   1.689   1.855 -0.0033 -1.8449 -1.0774
 4340TIP3    H234512   0.314   1.775   1.812 -1.2825  0.5175 -0.0258
 4341TIP3   OH234513   0.279   3.879  16.133 -0.2878 -0.6356  0.3034
 4341TIP3    H134514   0.225   3.941  16.084  0.1160 -0.2480  0.3348
 4341TIP3    H234515   0.334   3.838  16.067 -0.8381 -1.2656  0.2295
 4342TIP3   OH234516   4.646   6.146   4.655  0.0701  0.2446 -0.7617
 4342TIP3    H134517   4.680   6.058   4.638  1.5105  0.5838  0.1218
 4342TIP3    H234518   4.588   6.136   4.730 -0.3224 -0.0575 -1.1033
 4343TIP3   OH234519   1.600   5.021   6.418  0.4480  0.4183  0.7150
 4343TIP3    H134520   1.661   5.059   6.481  0.0708  0.4765  1.0494
 4343TIP3    H234521   1.570   5.095   6.366 -0.0527  0.5444  1.1671
 4344TIP3   OH234522   4.635   4.212   6.068 -0.0829  0.3378 -0.4179
 4344TIP3    H134523   4.604   4.211   5.977 -1.3157  2.3113 -0.0911
 4344TIP3    H234524   4.662   4.303   6.083  2.5583 -0.5247  0.4489
 4345TIP3   OH234525   1.085   4.239  16.757 -0.9377  0.2795 -0.1333
 4345TIP3    H134526   1.054   4.215  16.845 -0.3804  1.8724  0.5365
 4345TIP3    H234527   1.154   4.175  16.738  0.7164  1.3905  1.7193
 4346TIP3   OH234528   3.735   4.435   4.253 -0.1932  0.1931 -0.4129
 4346TIP3    H134529   3.652   4.438   4.207 -1.0019 -0.7688  0.9080
 4346TIP3    H234530   3.801   4.452   4.186 -1.4329  0.6998 -1.5323
 4347TIP3   OH234531   1.251   0.862  14.472 -0.0466  0.2420 -0.4353
 4347TIP3    H134532   1.160   0.838  14.490  0.0173  0.8082  0.7308
 4347TIP3    H234533   1.300   0.831  14.548  0.4686  1.4502 -0.2521
 4348TIP3   OH234534   6.289   1.195  11.516  0.1019 -0.1766 -0.7575
 4348TIP3    H134535   6.210   1.242  11.490 -1.8586 -3.1153 -0.5956
 4348TIP3    H234536   6.344   1.193  11.438 -1.2767 -0.4960 -1.7429
 4349TIP3   OH234537   5.040   4.695  16.912  0.7684 -0.0034  0.5280
 4349TIP3    H134538   4.999   4.688  16.826  0.6254 -0.4422  0.6304
 4349TIP3    H234539   5.006   4.620  16.961  0.4901  0.4938  1.1131
 4350TIP3   OH234540   1.595   0.382  16.836  0.2460 -0.4976 -0.7236
 4350TIP3    H134541   1.590   0.354  16.744 -0.5540 -0.5990 -0.6503
 4350TIP3    H234542   1.597   0.478  16.831  0.6322 -0.5072 -0.8595
 4351TIP3   OH234543   4.518   1.627  12.343  0.4367 -0.4217 -0.1219
 4351TIP3    H134544   4.474   1.647  12.260  1.2580  0.7012 -0.3060
 4351TIP3    H234545   4.449   1.637  12.409 -0.0305 -0.5191 -0.5845
 4352TIP3   OH234546   1.790   5.146  11.238 -0.3583 -0.2413  0.3271
 4352TIP3    H134547   1.843   5.089  11.183 -0.2793  0.8477 -0.7637
 4352TIP3    H234548   1.844   5.164  11.315 -0.3655 -1.5551  0.6621
 4353TIP3   OH234549   0.974   0.838  15.613 -0.1253 -0.5861  0.0907
 4353TIP3    H134550   0.988   0.909  15.550 -3.1497  1.8049  1.8207
 4353TIP3    H234551   0.926   0.772  15.564 -0.9294  0.4618 -0.5818
 4354TIP3   OH234552   6.336   4.419  11.108  0.5857  0.0297 -0.3566
 4354TIP3    H134553   6.411   4.435  11.165 -0.0384  0.9237  0.2350
 4354TIP3    H234554   6.261   4.453  11.157 -0.4119 -1.9580 -0.3777
 4355TIP3   OH234555   0.097   3.659  11.047  0.5525  0.4050  0.4663
 4355TIP3    H134556   0.117   3.617  10.963 -0.1499  0.5932  0.1941
 4355TIP3    H234557   0.138   3.602  11.112 -2.0871 -1.9589  0.2595
 4356TIP3   OH234558   4.306   4.953   1.955  0.4871  0.0306  0.2296
 4356TIP3    H134559   4.388   4.949   1.905 -0.0375 -0.0089 -0.6584
 4356TIP3    H234560   4.248   5.005   1.900  0.0164  0.3316  1.0053
 4357TIP3   OH234561   0.597   5.641   3.122  0.3775 -0.2391 -0.1512
 4357TIP3    H134562   0.662   5.608   3.060 -0.6856  1.7580 -2.4954
 4357TIP3    H234563   0.633   5.725   3.152 -0.2905  0.0374 -0.0987
 4358TIP3   OH234564   4.484   1.878  12.488 -0.1077  0.3888 -0.2406
 4358TIP3    H134565   4.430   1.802  12.509 -0.3112  0.7103  0.4369
 4358TIP3    H234566   4.558   1.842  12.439 -1.3407  0.0450 -1.9405
 4359TIP3   OH234567   4.552   5.969  11.195 -0.1780 -0.3636 -0.0801
 4359TIP3    H134568   4.619   6.013  11.143 -1.8524  1.7777 -0.5380
 4359TIP3    H234569   4.529   5.892  11.143 -1.2001  1.2667 -2.2017
 4360TIP3   OH234570   1.916   1.085  14.061 -0.1596  0.0945  0.2239
 4360TIP3    H134571   1.955   1.123  13.983  0.3923 -0.5736  0.1658
 4360TIP3    H234572   1.904   1.159  14.121 -1.8357  0.8560 -0.9810
 4361TIP3   OH234573   3.181   4.460  15.813  0.0522  0.3079  0.5550
 4361TIP3    H134574   3.213   4.374  15.784  1.4532  0.8160  0.5297
 4361TIP3    H234575   3.112   4.482  15.751  0.5505 -0.2277 -0.2109
 4362TIP3   OH234576   4.097   3.819  13.207  0.2000  0.5069  0.0011
 4362TIP3    H134577   4.169   3.809  13.146  2.3316 -1.3898  2.5721
 4362TIP3    H234578   4.053   3.734  13.208 -0.1416  0.6777  0.6885
 4363TIP3   OH234579   3.674   0.567  15.104  0.2450 -0.0615 -0.4648
 4363TIP3    H134580   3.631   0.560  15.019 -1.2856 -1.7337  0.3922
 4363TIP3    H234581   3.603   0.562  15.168  1.5124 -0.5991  0.9542
 4364TIP3   OH234582   1.443   5.042   1.888 -0.3887 -0.2481  0.4950
 4364TIP3    H134583   1.406   5.125   1.858 -0.8941 -1.1552 -1.5844
 4364TIP3    H234584   1.397   4.976   1.837  1.3456 -1.6776  0.6963
 4365TIP3   OH234585   0.498   3.129  17.090 -0.4151  1.1225  0.2474
 4365TIP3    H134586   0.439   3.117  17.016 -0.5679 -0.1686  0.5459
 4365TIP3    H234587   0.583   3.097  17.058 -0.6168 -0.0114  0.7941
 4366TIP3   OH234588   6.361   4.206   2.562 -0.6306  0.3090 -0.4849
 4366TIP3    H134589   6.340   4.181   2.651  0.2958  0.8612 -0.0911
 4366TIP3    H234590   6.279   4.240   2.526 -1.6949 -2.3277 -0.7389
 4367TIP3   OH234591   5.958   4.051   5.598 -0.2234  0.4535  0.0848
 4367TIP3    H134592   5.987   3.971   5.642 -1.4993  0.6364  1.3565
 4367TIP3    H234593   5.865   4.059   5.622 -0.1164  2.3285  0.0215
 4368TIP3   OH234594   6.351   5.077  11.985  0.1085  0.3077  0.7111
 4368TIP3    H134595   6.322   4.986  11.984  0.4624  0.1793 -0.8396
 4368TIP3    H234596   6.443   5.072  12.013  0.1866  0.1640  0.4334
 4369TIP3   OH234597   4.803   0.078  13.273 -0.3108  0.5719  0.4351
 4369TIP3    H134598   4.831   0.040  13.356 -1.1175 -1.5563 -0.2019
 4369TIP3    H234599   4.716   0.042  13.258  0.4357 -0.3989 -2.0800
 4370TIP3   OH234600   2.142   2.809   1.203 -0.7001 -0.0073 -0.2689
 4370TIP3    H134601   2.237   2.817   1.217 -0.7133  1.6715 -0.8660
 4370TIP3    H234602   2.106   2.891   1.238 -1.8345 -0.2585 -0.7955
 4371TIP3   OH234603   3.817   0.897   0.077 -0.0761  0.3587  0.2135
 4371TIP3    H134604   3.781   0.810   0.060  0.7162  0.2483 -1.0284
 4371TIP3    H234605   3.885   0.908   0.010 -1.5262  2.7554 -1.0086
 4372TIP3   OH234606   1.359   4.978   4.783  0.2494  0.2700  0.3442
 4372TIP3    H134607   1.451   4.955   4.777  0.5275  1.6900 -3.4258
 4372TIP3    H234608   1.358   5.060   4.832  1.4651  1.7883 -1.9753
 4373TIP3   OH234609   0.132   4.049  13.806  0.2753  0.1243 -0.2083
 4373TIP3    H134610   0.068   4.119  13.801 -0.5370 -0.6545 -1.0818
 4373TIP3    H234611   0.109   3.989  13.735  1.5690 -0.5145 -0.1329
 4374TIP3   OH234612   5.670   2.477   3.515 -0.5877 -0.2286 -0.2364
 4374TIP3    H134613   5.659   2.571   3.525  1.2455 -0.0762  0.7511
 4374TIP3    H234614   5.585   2.446   3.483 -1.5187  1.6096  0.3307
 4375TIP3   OH234615   3.084   5.082  12.480 -0.0463  0.3954 -0.0357
 4375TIP3    H134616   3.170   5.086  12.438 -0.3243  0.1308 -0.6387
 4375TIP3    H234617   3.102   5.048  12.568  0.5712  1.1793  0.1620
 4376TIP3   OH234618   6.369   4.028  16.995 -0.2674 -0.0802 -0.6608
 4376TIP3    H134619   6.451   3.985  17.016 -0.0002 -0.0749 -1.6214
 4376TIP3    H234620   6.385   4.121  17.013 -0.6726 -0.2871  0.9017
 4377TIP3   OH234621   3.423   5.464   5.261 -0.4545  0.4774  0.1362
 4377TIP3    H134622   3.355   5.412   5.304 -0.8464 -1.7139 -2.7764
 4377TIP3    H234623   3.384   5.489   5.177  2.3855 -1.4262 -1.9587
 4378TIP3   OH234624   6.342   2.960  11.903  0.0744 -0.2798 -0.3733
 4378TIP3    H134625   6.308   2.897  11.966  0.2293 -0.2729 -0.2808
 4378TIP3    H234626   6.404   2.909  11.850  0.2725 -0.1845 -0.2356
 4379TIP3   OH234627   6.504   4.828   2.195  0.2590  0.6631  0.9167
 4379TIP3    H134628   6.463   4.857   2.277  0.0492  0.6196  0.8278
 4379TIP3    H234629   6.458   4.747   2.173  0.2904  0.6947  0.7348
 4380TIP3   OH234630   3.750   2.844  10.859 -0.5376  0.3466 -0.4259
 4380TIP3    H134631   3.710   2.758  10.871  1.3372 -0.5234  0.0243
 4380TIP3    H234632   3.795   2.838  10.774  0.5889  0.4498  0.1452
 4381TIP3   OH234633   3.426   2.020   0.039 -0.1998  0.2529 -0.4813
 4381TIP3    H134634   3.363   2.085   0.071  1.0961  0.9222  0.7839
 4381TIP3    H234635   3.376   1.939   0.035 -1.0907  0.7175  0.6793
 4382TIP3   OH234636   6.609   2.472   0.046  0.2380 -0.6930  0.5927
 4382TIP3    H134637   6.516   2.451   0.039  0.3083 -1.5393  1.8093
 4382TIP3    H234638   6.618   2.557   0.004 -0.9905 -0.8433  0.0015
 4383TIP3   OH234639   1.779   4.384  16.539  0.9880 -0.0371 -0.2811
 4383TIP3    H134640   1.729   4.304  16.558  0.7114 -0.0912 -1.2037
 4383TIP3    H234641   1.795   4.423  16.625 -0.6961  0.0133  0.0289
 4384TIP3   OH234642   3.893   5.042   3.219 -0.0801  0.2395 -0.6190
 4384TIP3    H134643   3.801   5.048   3.243 -0.1304 -0.9574 -0.4696
 4384TIP3    H234644   3.935   4.999   3.293  0.2365 -1.0401 -1.4979
 4385TIP3   OH234645   6.231   5.526  12.334  0.0003  0.6421 -0.0515
 4385TIP3    H134646   6.159   5.540  12.273 -0.9587  1.2864  1.1846
 4385TIP3    H234647   6.277   5.449  12.301 -1.4459  0.0344 -0.6874
 4386TIP3   OH234648   2.112   6.549  14.522  0.2210 -0.2075 -0.0349
 4386TIP3    H134649   2.125   6.537  14.616  0.2494  2.6489  0.4305
 4386TIP3    H234650   2.024   6.587  14.515  0.9654  1.4798 -0.9007
 4387TIP3   OH234651   2.910   4.147   3.259  0.0033 -0.3364  0.3267
 4387TIP3    H134652   2.964   4.072   3.233  1.3178  1.1425 -1.4590
 4387TIP3    H234653   2.968   4.223   3.248 -1.4122  1.0079  1.6685
 4388TIP3   OH234654   5.389   2.538   3.814  0.2751 -0.2629 -0.0182
 4388TIP3    H134655   5.471   2.556   3.860 -0.4047 -0.9254  1.5091
 4388TIP3    H234656   5.411   2.466   3.754  1.0619  0.3062 -0.4413
 4389TIP3   OH234657   4.395   5.660  11.912  0.2403 -0.2848  0.2417
 4389TIP3    H134658   4.417   5.614  11.831 -0.3213  0.3667 -0.2993
 4389TIP3    H234659   4.428   5.604  11.982  0.6240 -0.9187 -0.4370
 4390TIP3   OH234660   5.233   0.066  12.551 -0.4896 -0.3268 -0.5241
 4390TIP3    H134661   5.196  -0.020  12.533 -0.9056 -0.2829  0.0978
 4390TIP3    H234662   5.258   0.062  12.644 -2.7061  0.9963  0.2017
 4391TIP3   OH234663   1.743   4.346   1.167 -0.3892  0.1077 -0.1672
 4391TIP3    H134664   1.746   4.252   1.150 -0.7260  0.1424 -0.4454
 4391TIP3    H234665   1.703   4.383   1.088 -1.7659  0.3072  0.5842
 4392TIP3   OH234666   4.605   0.495  12.820  0.2807 -0.4194  0.4236
 4392TIP3    H134667   4.572   0.501  12.730  0.6019 -3.0349  0.0348
 4392TIP3    H234668   4.679   0.555  12.823 -0.0395  0.0727 -0.9034
 4393TIP3   OH234669   6.188   1.278   2.001 -0.6212  0.1810  0.1105
 4393TIP3    H134670   6.261   1.294   2.062 -1.8744  1.3993  1.3859
 4393TIP3    H234671   6.149   1.196   2.031 -1.9464  1.3522  1.7952
 4394TIP3   OH234672   2.837   0.807  11.341 -0.2350  0.2166 -0.1130
 4394TIP3    H134673   2.771   0.761  11.289 -0.0045  1.0355 -1.1529
 4394TIP3    H234674   2.808   0.898  11.342 -0.4613  0.1656  1.5824
 4395TIP3   OH234675   2.779   4.328  12.642  0.4278 -0.5081 -0.6214
 4395TIP3    H134676   2.697   4.341  12.594 -0.2606 -0.8306  0.4209
 4395TIP3    H234677   2.824   4.258  12.595 -0.6615 -1.4634 -0.2926
 4396TIP3   OH234678   0.363   5.363   2.186  0.1484 -0.1323 -0.4044
 4396TIP3    H134679   0.327   5.438   2.235 -0.1980 -0.5601  0.0049
 4396TIP3    H234680   0.346   5.384   2.094 -0.5074  0.0123 -0.2563
 4397TIP3   OH234681   3.164   0.302   2.458  0.9109 -0.5092  0.0374
 4397TIP3    H134682   3.217   0.265   2.387  0.5597  0.7921 -0.9438
 4397TIP3    H234683   3.085   0.333   2.415  0.4461 -0.1906  1.0989
 4398TIP3   OH234684   5.506   1.912   2.742  0.8064  0.0426 -0.7118
 4398TIP3    H134685   5.427   1.919   2.795  1.6352  0.2313  0.5388
 4398TIP3    H234686   5.564   1.853   2.792  2.0962  1.2218 -0.7417
 4399TIP3   OH234687   3.229   6.354  13.485  0.1316  0.5233  0.0115
 4399TIP3    H134688   3.144   6.347  13.528 -0.7071 -0.0034 -1.6503
 4399TIP3    H234689   3.281   6.282  13.521 -0.8194 -0.4061 -0.4337
 4400TIP3   OH234690   4.087   3.793  10.288 -0.5386 -0.3125  0.5242
 4400TIP3    H134691   4.146   3.867  10.271 -1.0139  0.0759  0.5233
 4400TIP3    H234692   4.056   3.808  10.378 -2.3916  0.7643 -0.2317
 4401TIP3   OH234693   1.830   3.241  10.986 -0.4063  0.2916 -0.6501
 4401TIP3    H134694   1.922   3.229  10.963 -0.0102  0.7380  0.6124
 4401TIP3    H234695   1.817   3.336  10.984 -0.8339  0.2322 -0.8155
 4402TIP3   OH234696   5.435   3.792  15.465 -0.0347 -0.8546 -0.5288
 4402TIP3    H134697   5.402   3.863  15.410 -1.4501  2.5069  4.0541
 4402TIP3    H234698   5.491   3.836  15.530  2.0380 -4.5384  0.5112
 4403TIP3   OH234699   4.335   5.911   5.342 -0.4868 -0.6521 -0.1401
 4403TIP3    H134700   4.271   5.916   5.413 -1.6365 -0.0511 -1.1794
 4403TIP3    H234701   4.390   5.836   5.364 -1.3164 -0.9515  0.9731
 4404TIP3   OH234702   2.651   2.736   1.243 -0.3180 -0.2651  0.3293
 4404TIP3    H134703   2.650   2.660   1.302  1.3102 -0.0696  0.6578
 4404TIP3    H234704   2.700   2.802   1.292  1.3591 -0.1972 -1.3466
 4405TIP3   OH234705   0.183   1.486   2.879 -0.4988 -0.3781 -0.6783
 4405TIP3    H134706   0.134   1.523   2.952  0.6797  0.7079 -0.3918
 4405TIP3    H234707   0.147   1.527   2.801 -0.0938  0.3810 -0.4733
 4406TIP3   OH234708   0.232   1.357   4.721 -0.3386  0.2530  0.5480
 4406TIP3    H134709   0.211   1.450   4.716 -0.7474  0.1890  1.0534
 4406TIP3    H234710   0.321   1.355   4.757 -0.3266  0.4418  0.5301
 4407TIP3   OH234711   6.528   4.070   1.481 -0.5740 -0.2896 -0.0936
 4407TIP3    H134712   6.616   4.065   1.443 -0.4656 -0.3199  0.1595
 4407TIP3    H234713   6.530   4.146   1.539 -0.3259 -1.0185  0.8864
 4408TIP3   OH234714   0.201   2.281  11.534 -0.2054 -0.2988  0.2229
 4408TIP3    H134715   0.184   2.199  11.581  1.8128  0.0633  1.7017
 4408TIP3    H234716   0.135   2.283  11.464 -1.6301 -2.1451  1.4359
 4409TIP3   OH234717   2.402   3.581   3.626  0.4042 -0.2910 -0.2827
 4409TIP3    H134718   2.467   3.641   3.661  0.6835 -0.7322 -0.0438
 4409TIP3    H234719   2.318   3.616   3.658  0.6165 -0.4150  0.4228
 4410TIP3   OH234720   0.900   2.090  13.909 -0.0586  0.6825  0.4647
 4410TIP3    H134721   0.809   2.062  13.897 -0.2380  0.6136  1.8796
 4410TIP3    H234722   0.914   2.154  13.839 -1.0456  0.3541 -0.0565
 4411TIP3   OH234723   1.580   5.524   3.699  0.3308 -0.2675 -0.6225
 4411TIP3    H134724   1.581   5.619   3.698 -1.3168 -0.1246  2.1141
 4411TIP3    H234725   1.521   5.500   3.628 -4.2433  1.1707  2.2657
 4412TIP3   OH234726   2.650   3.315  11.192  0.2538 -0.6791 -0.2481
 4412TIP3    H134727   2.565   3.276  11.212  0.2044 -0.4300  0.0205
 4412TIP3    H234728   2.699   3.312  11.274  0.9150 -1.8388 -0.6595
 4413TIP3   OH234729   1.189   6.122  15.746  0.5943  0.4321 -0.0541
 4413TIP3    H134730   1.234   6.199  15.712 -0.0333  1.0736  0.5340
 4413TIP3    H234731   1.101   6.152  15.767  0.0414 -0.6755 -0.6693
 4414TIP3   OH234732   0.600   5.176  17.029  0.4943  0.5873 -0.1012
 4414TIP3    H134733   0.613   5.245  16.963  2.0589 -0.1117 -0.5642
 4414TIP3    H234734   0.554   5.106  16.981 -0.0038  0.8136  0.0439
 4415TIP3   OH234735   2.451   3.641   6.212 -0.3808  0.4578  0.5289
 4415TIP3    H134736   2.393   3.673   6.281 -1.7879  1.9747 -1.2366
 4415TIP3    H234737   2.400   3.573   6.168  0.4551 -0.4152  0.8757
 4416TIP3   OH234738   1.366   1.172   6.525  0.3489  0.2828 -0.3271
 4416TIP3    H134739   1.320   1.255   6.509  0.7723  0.7240  0.6224
 4416TIP3    H234740   1.439   1.196   6.583 -0.0314 -0.8871  0.6843
 4417TIP3   OH234741   3.571   5.755   4.922 -0.0503  0.6407 -0.4328
 4417TIP3    H134742   3.608   5.832   4.965 -0.6821  0.7146 -0.0078
 4417TIP3    H234743   3.493   5.788   4.878 -1.5196 -0.0896  1.4674
 4418TIP3   OH234744   1.838   3.495  16.167 -0.4868 -0.4994  0.0661
 4418TIP3    H134745   1.932   3.497  16.152 -0.3297 -0.3249  1.0075
 4418TIP3    H234746   1.828   3.456  16.254 -1.2325  0.2392  0.3286
 4419TIP3   OH234747   2.709   1.411  16.338  0.2435  0.3330 -0.5357
 4419TIP3    H134748   2.749   1.325  16.330 -1.5871 -0.6191 -0.0391
 4419TIP3    H234749   2.617   1.393  16.360 -0.1167  2.4138 -0.1100
 4420TIP3   OH234750   3.187   5.038  12.183  0.5965  0.1510 -0.0345
 4420TIP3    H134751   3.111   4.989  12.152  0.7038  0.1832 -0.3470
 4420TIP3    H234752   3.220   5.084  12.106 -0.1018  1.5163  0.4627
 4421TIP3   OH234753   0.815   6.551   1.041 -0.2039  0.7014  0.2652
 4421TIP3    H134754   0.778   6.477   1.090  1.4423 -1.2027 -1.1958
 4421TIP3    H234755   0.742   6.613   1.033 -2.7624 -2.2051 -1.2758
 4422TIP3   OH234756   4.083   1.014   0.295  0.4134  0.1735  0.1143
 4422TIP3    H134757   4.062   1.104   0.270 -1.2452 -0.0016  0.7555
 4422TIP3    H234758   4.015   0.990   0.358  1.6148 -1.0772  0.9997
 4423TIP3   OH234759   0.209   5.428  15.185 -0.0122  0.1694  1.1244
 4423TIP3    H134760   0.186   5.455  15.096 -1.5197  1.0292  1.7392
 4423TIP3    H234761   0.295   5.466  15.199  0.1696  0.1837  0.0983
 4424TIP3   OH234762   5.287   6.051  12.335 -0.3791  0.4594 -0.6564
 4424TIP3    H134763   5.212   5.997  12.311  0.5945 -0.9775 -0.5400
 4424TIP3    H234764   5.262   6.140  12.310 -2.1193  0.0100 -0.6015
 4425TIP3   OH234765   2.642   3.424   1.224 -0.2897  0.2378  0.8401
 4425TIP3    H134766   2.576   3.442   1.158  1.2101  2.1680 -0.2466
 4425TIP3    H234767   2.647   3.504   1.276  2.0024  0.6754  0.0853
 4426TIP3   OH234768   1.383   5.741   1.612  0.3829  0.2166 -0.4363
 4426TIP3    H134769   1.418   5.830   1.619 -0.2010  0.3395  1.8855
 4426TIP3    H234770   1.459   5.687   1.591  0.8869  1.1550 -1.0994
 4427TIP3   OH234771   5.256   0.057   3.115  0.3922 -0.4689 -0.1290
 4427TIP3    H134772   5.243   0.031   3.023 -0.4090  0.0372 -0.1686
 4427TIP3    H234773   5.345   0.028   3.136  1.0330  0.4345 -1.4260
 4428TIP3   OH234774   4.232   5.336   6.266  0.3207 -0.0121  0.0009
 4428TIP3    H134775   4.218   5.370   6.354  0.8625  1.2851 -0.3844
 4428TIP3    H234776   4.264   5.412   6.216  1.3305 -1.0373 -0.9673
 4429TIP3   OH234777   2.200   1.894   2.273 -0.0330 -0.1498 -0.3691
 4429TIP3    H134778   2.138   1.921   2.341  0.1297  1.1704 -0.7277
 4429TIP3    H234779   2.170   1.938   2.194  0.1217 -1.2144 -1.0388
 4430TIP3   OH234780   5.511   5.291  13.749  0.1322  0.0088 -0.6033
 4430TIP3    H134781   5.504   5.350  13.824 -0.3917  0.0462 -0.6770
 4430TIP3    H234782   5.421   5.283  13.717  0.0271 -1.6180  0.0062
 4431TIP3   OH234783   0.053   5.593   0.455 -0.1587 -0.6099  0.1492
 4431TIP3    H134784   0.141   5.630   0.450 -0.6206  0.3553 -1.4127
 4431TIP3    H234785   0.011   5.642   0.526  0.1357 -0.1231 -0.0075
 4432TIP3   OH234786   2.843   1.155  14.932 -0.2657  0.2170 -0.5737
 4432TIP3    H134787   2.856   1.199  15.016  2.0374 -0.3328 -0.5641
 4432TIP3    H234788   2.749   1.164  14.914 -0.4047  2.4588  0.8626
 4433TIP3   OH234789   3.354   2.616  16.467 -0.2399 -0.3639  0.2284
 4433TIP3    H134790   3.371   2.709  16.451 -0.1671 -0.0770  1.8133
 4433TIP3    H234791   3.376   2.573  16.384 -0.9064  1.0877 -0.7456
 4434TIP3   OH234792   2.257   3.078   4.298 -0.0607 -0.3969  0.1281
 4434TIP3    H134793   2.218   3.165   4.296 -0.9555 -0.7152  1.7199
 4434TIP3    H234794   2.335   3.085   4.243  0.3170  1.6288  0.8276
 4435TIP3   OH234795   1.886   1.780  11.766  0.3974 -0.0897 -0.1117
 4435TIP3    H134796   1.981   1.776  11.779  0.3497  0.5368  0.4962
 4435TIP3    H234797   1.859   1.689  11.755  1.1648 -0.2250 -1.0309
 4436TIP3   OH234798   6.257   4.317   0.004 -0.2395  0.0101  0.2924
 4436TIP3    H134799   6.344   4.283   0.024 -0.3363 -0.4994 -0.1470
 4436TIP3    H234800   6.273   4.386  -0.061 -0.3440 -1.6367 -1.5623
 4437TIP3   OH234801   2.629   0.205  16.058  0.7584 -0.2460 -0.1863
 4437TIP3    H134802   2.697   0.255  16.104  1.8542  0.5922 -2.5638
 4437TIP3    H234803   2.566   0.271  16.030 -0.6412 -0.9158  1.2219
 4438TIP3   OH234804   3.769   4.351   3.780 -0.3847  0.4760  0.4565
 4438TIP3    H134805   3.759   4.319   3.870 -1.2011  1.1034  0.6020
 4438TIP3    H234806   3.861   4.335   3.759 -0.8377 -2.4562  0.3170
 4439TIP3   OH234807   2.803   1.918  14.224  0.0688  0.0062 -0.0597
 4439TIP3    H134808   2.715   1.881  14.229  0.3468 -0.6073  0.3880
 4439TIP3    H234809   2.835   1.892  14.137 -0.6931  1.4063 -0.7949
 4440TIP3   OH234810   0.908   2.554   5.135 -0.2977  0.2641 -0.3468
 4440TIP3    H134811   0.900   2.536   5.041 -1.2197  0.1935 -0.2716
 4440TIP3    H234812   0.979   2.617   5.142 -0.5494  0.6509 -1.1529
 4441TIP3   OH234813   5.994   1.679   1.972 -0.3772 -0.5979 -0.3666
 4441TIP3    H134814   5.974   1.592   2.006 -0.3365  0.3419  2.2556
 4441TIP3    H234815   5.940   1.739   2.023  0.3119  1.0182 -1.4280
 4442TIP3   OH234816   5.054   0.598   0.179  0.7461 -0.0812 -0.6484
 4442TIP3    H134817   5.050   0.608   0.274  0.7275  0.2314 -0.6788
 4442TIP3    H234818   5.102   0.517   0.165  0.5781 -0.2283 -0.3682
 4443TIP3   OH234819   5.108   5.082  14.245  0.3005  0.1776  0.4556
 4443TIP3    H134820   5.059   5.100  14.165 -0.3422  0.3158  0.8654
 4443TIP3    H234821   5.197   5.110  14.226  0.2138 -0.0422 -0.2971
 4444TIP3   OH234822   4.680   3.692   2.376  0.0506 -0.3654  0.3368
 4444TIP3    H134823   4.755   3.745   2.349  1.4835 -1.4571  1.9429
 4444TIP3    H234824   4.625   3.752   2.426  1.1143 -0.0957  1.2302
 4445TIP3   OH234825   4.030   5.779   0.172 -0.4199  0.4720 -0.0634
 4445TIP3    H134826   4.019   5.735   0.256 -0.9480  1.1886  0.2527
 4445TIP3    H234827   4.028   5.708   0.107  0.6877 -0.1668  0.5571
 4446TIP3   OH234828   2.750   3.579   3.784  0.4177 -0.1466  0.0260
 4446TIP3    H134829   2.728   3.584   3.691  0.2880  1.8842  0.1281
 4446TIP3    H234830   2.838   3.616   3.790 -0.7690  2.8622  1.0306
 4447TIP3   OH234831   0.043   3.732  10.502  1.0076 -0.1545  0.1252
 4447TIP3    H134832   0.122   3.737  10.448  0.1286  1.5546 -1.0750
 4447TIP3    H234833  -0.003   3.654  10.471  0.9967  0.2596 -0.9342
 4448TIP3   OH234834   4.337   4.462  14.073  0.1027 -0.0796  0.7163
 4448TIP3    H134835   4.312   4.428  14.158 -0.6678 -1.0112  0.1299
 4448TIP3    H234836   4.400   4.398  14.038 -1.7693 -1.2762 -0.6220
 4449TIP3   OH234837   2.733   4.062  15.488  0.3024  0.5949  0.0301
 4449TIP3    H134838   2.738   4.049  15.393 -1.7788 -1.1873  0.0592
 4449TIP3    H234839   2.785   3.990  15.525 -0.9946 -0.3035  0.1890
 4450TIP3   OH234840   0.744   3.019  12.421  0.6444  0.2263 -0.0334
 4450TIP3    H134841   0.704   3.079  12.484  0.0633  1.5010 -1.5604
 4450TIP3    H234842   0.832   3.003  12.456  0.1458  0.4325  1.3851
 4451TIP3   OH234843   5.217   0.871  14.094  0.1052  0.2410 -0.2744
 4451TIP3    H134844   5.285   0.902  14.154  0.4415  0.3596 -0.7055
 4451TIP3    H234845   5.223   0.776  14.098  0.7190  0.2488 -0.7611
 4452TIP3   OH234846   0.935   6.536  14.477 -0.0072  0.1077  0.3709
 4452TIP3    H134847   0.913   6.626  14.503  0.3919  0.5302 -0.6930
 4452TIP3    H234848   0.860   6.508  14.425  0.6037  0.4643 -0.7383
 4453TIP3   OH234849   0.740   0.145   3.529  0.0678  0.4496 -0.1115
 4453TIP3    H134850   0.700   0.070   3.573  2.1897 -0.2569  0.7347
 4453TIP3    H234851   0.732   0.125   3.436 -1.8579  0.5625 -0.0192
 4454TIP3   OH234852   6.501   6.723  10.978 -0.0631  0.0829 -0.9530
 4454TIP3    H134853   6.475   6.631  10.971 -0.3903  0.1926 -1.1868
 4454TIP3    H234854   6.467   6.751  11.063  2.8133 -0.8933  0.6789
 4455TIP3   OH234855   0.931   0.693  14.862  0.2805  0.5108 -0.0738
 4455TIP3    H134856   1.017   0.681  14.903 -0.1670 -1.1854  0.4565
 4455TIP3    H234857   0.876   0.727  14.933  0.3761  1.0471 -0.2568
 4456TIP3   OH234858   5.429   5.146  15.357  0.2954 -0.4219  0.1208
 4456TIP3    H134859   5.474   5.141  15.272  0.3651  1.6772 -0.0284
 4456TIP3    H234860   5.499   5.147  15.421  0.5203  1.8487 -0.0613
 4457TIP3   OH234861   3.516   1.038   5.581  0.0777 -0.3588  0.2058
 4457TIP3    H134862   3.554   1.014   5.666 -0.9327 -2.4895  0.1050
 4457TIP3    H234863   3.583   1.011   5.518 -0.4013 -1.5244  0.1814
 4458TIP3   OH234864   2.556   1.489   0.510  0.2515 -0.7315  0.0795
 4458TIP3    H134865   2.562   1.580   0.484  0.4400 -0.8492 -0.2921
 4458TIP3    H234866   2.561   1.439   0.428  3.3157 -1.2132  0.4436
 4459TIP3   OH234867   4.591   1.647  15.613  0.1478 -0.0164  0.1503
 4459TIP3    H134868   4.519   1.595  15.577  0.2963  0.5774 -1.0901
 4459TIP3    H234869   4.646   1.667  15.536  2.2067 -1.3308  1.2076
 4460TIP3   OH234870   4.257   1.355  12.339 -0.4258  0.1133 -0.1512
 4460TIP3    H134871   4.201   1.309  12.277  0.6844 -0.5065 -0.7291
 4460TIP3    H234872   4.239   1.447  12.323  0.6402  0.0314 -2.2470
 4461TIP3   OH234873   1.309   5.602   2.547  0.1401 -0.2428  0.3580
 4461TIP3    H134874   1.303   5.682   2.600 -0.7471 -0.5221  0.7060
 4461TIP3    H234875   1.225   5.598   2.501  0.8305 -0.1011 -0.9451
 4462TIP3   OH234876   0.406   4.475  16.405 -0.1006 -0.4726  0.2408
 4462TIP3    H134877   0.315   4.500  16.391 -0.2560  0.0751  1.9807
 4462TIP3    H234878   0.405   4.380  16.406 -0.7639 -0.4695  0.7405
 4463TIP3   OH234879   0.462   4.795  14.497  0.0028 -0.0139 -0.8832
 4463TIP3    H134880   0.432   4.705  14.510  0.9257 -0.0673  1.1826
 4463TIP3    H234881   0.541   4.786  14.444  1.6072 -0.7415  1.4644
 4464TIP3   OH234882   1.762   2.366   2.681 -0.5030 -0.1147 -0.4432
 4464TIP3    H134883   1.751   2.358   2.776  1.0883  0.2883 -0.1930
 4464TIP3    H234884   1.752   2.277   2.648 -1.5184 -0.1951  0.0301
 4465TIP3   OH234885   2.320   4.678   0.661  0.0079 -0.0452 -0.3195
 4465TIP3    H134886   2.390   4.714   0.715 -0.9395  0.2065  0.7868
 4465TIP3    H234887   2.276   4.614   0.718  0.7177 -1.8961 -1.7422
 4466TIP3   OH234888   4.582   6.081   6.525 -0.1413 -0.1125  0.5203
 4466TIP3    H134889   4.522   6.066   6.452  0.1523 -1.4066  0.5203
 4466TIP3    H234890   4.538   6.147   6.579 -0.0796  1.3453 -1.1098
 4467TIP3   OH234891   2.198   4.301   3.596  0.0656  0.1538  0.0414
 4467TIP3    H134892   2.111   4.263   3.584  0.7268 -1.2260 -0.6831
 4467TIP3    H234893   2.254   4.253   3.534  1.3724  0.8834  0.6076
 4468TIP3   OH234894   2.508   0.853  10.344 -0.2926  0.2994 -0.0006
 4468TIP3    H134895   2.504   0.933  10.395 -2.1076  0.7173 -0.7556
 4468TIP3    H234896   2.425   0.849  10.296  0.6388 -0.9187 -1.6497
 4469TIP3   OH234897   4.341   5.673   5.675 -0.0516  0.0515 -0.0182
 4469TIP3    H134898   4.366   5.656   5.766 -0.9460 -2.5909 -0.1702
 4469TIP3    H234899   4.424   5.684   5.629  0.4475  0.4462  0.9420
 4470TIP3   OH234900   4.696   0.888   0.682  0.2403 -0.6761 -0.4299
 4470TIP3    H134901   4.706   0.982   0.663  0.5880 -0.3942  1.0669
 4470TIP3    H234902   4.771   0.847   0.638  1.1114 -0.0272  0.4064
 4471TIP3   OH234903   0.433   4.387  16.975  0.1354 -0.1415 -0.3494
 4471TIP3    H134904   0.500   4.388  17.043 -0.3785  3.8189  0.3824
 4471TIP3    H234905   0.353   4.359  17.020  0.4581 -0.7722 -0.1675
 4472TIP3   OH234906   2.083   2.111  13.533 -0.2400  0.9706 -0.1189
 4472TIP3    H134907   2.052   2.021  13.521  0.8951  0.7671 -2.0368
 4472TIP3    H234908   2.071   2.129  13.626 -0.2166 -1.2742  0.3807
 4473TIP3   OH234909   4.166   5.683   0.557  0.2519 -0.5499  0.0302
 4473TIP3    H134910   4.111   5.677   0.479  1.0447 -0.0172 -0.5914
 4473TIP3    H234911   4.108   5.660   0.630 -0.2335 -2.1220 -0.8076
 4474TIP3   OH234912   4.346   5.258  16.444 -0.0047  0.4781  0.4138
 4474TIP3    H134913   4.378   5.167  16.449  0.9838  0.7561 -0.5392
 4474TIP3    H234914   4.331   5.282  16.536 -0.8174 -0.8119  0.6618
 4475TIP3   OH234915   2.393   1.559  11.336 -0.3124 -0.2090  0.3120
 4475TIP3    H134916   2.486   1.538  11.349 -0.1712  0.3520  0.2690
 4475TIP3    H234917   2.354   1.551  11.423  0.1149  1.0901  0.6547
 4476TIP3   OH234918   0.025   5.512   2.845 -0.2149  0.1060 -0.1974
 4476TIP3    H134919   0.046   5.433   2.794  0.2044 -0.4386  0.7859
 4476TIP3    H234920   0.080   5.505   2.923 -2.3881 -0.2067  1.3953
 4477TIP3   OH234921   5.699   2.012  13.703 -0.1152  0.2578  0.8650
 4477TIP3    H134922   5.633   1.981  13.764 -0.9819  0.9236  0.2991
 4477TIP3    H234923   5.756   1.936  13.688 -2.2936 -1.1824 -0.6580
 4478TIP3   OH234924   0.634   6.618   0.316  0.3082 -0.6796 -0.0159
 4478TIP3    H134925   0.703   6.618   0.250  0.3338 -0.1459  0.0048
 4478TIP3    H234926   0.562   6.666   0.275 -0.5843 -2.4168 -0.5781
 4479TIP3   OH234927   4.396   2.326   5.823 -0.2345 -1.1278  0.4712
 4479TIP3    H134928   4.366   2.304   5.735 -2.6284  0.5683  0.7921
 4479TIP3    H234929   4.322   2.371   5.864  1.1825 -0.9057  2.9964
 4480TIP3   OH234930   4.152   3.221   1.250 -0.3030 -0.3387 -0.5537
 4480TIP3    H134931   4.156   3.130   1.279  0.9608  0.0655  0.7081
 4480TIP3    H234932   4.116   3.268   1.326 -1.0981  0.2000 -1.2525
 4481TIP3   OH234933   2.458   5.430   5.006  0.4157 -0.2474  0.2848
 4481TIP3    H134934   2.434   5.407   4.917 -2.1803  1.1236  0.5326
 4481TIP3    H234935   2.500   5.352   5.041  0.1471 -1.3164 -1.6638
 4482TIP3   OH234936   5.106   2.282  12.620 -0.7566  0.3741  0.1913
 4482TIP3    H134937   5.146   2.323  12.697 -0.8095  0.1670  0.3282
 4482TIP3    H234938   5.040   2.346  12.591 -1.0408  0.2608  0.5777
 4483TIP3   OH234939   3.451   5.937   2.055  0.2699  0.5637  1.0955
 4483TIP3    H134940   3.474   5.844   2.049  0.5176  0.7043 -0.7939
 4483TIP3    H234941   3.361   5.941   2.022 -0.0436  0.9143  1.9589
 4484TIP3   OH234942   2.502   1.718   6.232 -0.3815 -0.4865 -0.2664
 4484TIP3    H134943   2.540   1.658   6.167 -1.5632 -1.7760  0.2041
 4484TIP3    H234944   2.422   1.750   6.191 -1.2535 -1.4846  0.6162
 4485TIP3   OH234945   4.305   5.585   3.136  0.4146 -0.2391  0.7070
 4485TIP3    H134946   4.392   5.626   3.140  0.4611 -0.4261  1.9756
 4485TIP3    H234947   4.244   5.659   3.138  0.5150 -0.0758 -0.7111
 4486TIP3   OH234948   0.443   3.666  17.007 -0.2266 -0.0878  0.0151
 4486TIP3    H134949   0.520   3.611  17.023 -1.4098 -2.1119 -0.8530
 4486TIP3    H234950   0.424   3.653  16.914 -0.8624  1.4507 -0.0989
 4487TIP3   OH234951   3.792   0.404  16.853 -0.1453  0.0687  0.3191
 4487TIP3    H134952   3.803   0.342  16.780 -2.4609  0.8656 -0.7982
 4487TIP3    H234953   3.714   0.373  16.899 -1.7151  2.4057 -0.6077
 4488TIP3   OH234954   1.941   3.578  15.413 -0.2991  1.0559  0.3387
 4488TIP3    H134955   1.853   3.541  15.420 -0.1111 -0.3438 -2.8838
 4488TIP3    H234956   1.933   3.666  15.448 -3.2268  1.2544 -0.5439
 4489TIP3   OH234957   6.684   6.061  15.484 -0.3011  0.1331 -0.0100
 4489TIP3    H134958   6.697   6.138  15.430 -2.5158  1.1815  0.8317
 4489TIP3    H234959   6.771   6.042  15.520  0.5405  1.4194 -1.2630
 4490TIP3   OH234960   3.328   2.799   0.509 -0.0187  0.1258 -0.9809
 4490TIP3    H134961   3.280   2.747   0.444  2.0274 -2.8902 -0.2666
 4490TIP3    H234962   3.311   2.755   0.592  2.0078  0.3920 -0.3721
 4491TIP3   OH234963   2.386   5.386  12.565  0.7022  0.0967  0.0433
 4491TIP3    H134964   2.406   5.344  12.481 -0.7760  1.3010 -0.9590
 4491TIP3    H234965   2.467   5.433  12.589  1.4477 -1.0363 -0.1945
 4492TIP3   OH234966   4.906   0.280   3.527 -0.0245 -0.3258 -0.8127
 4492TIP3    H134967   4.937   0.222   3.458  0.0342  0.2986 -1.3219
 4492TIP3    H234968   4.838   0.230   3.572  0.9618 -1.3126 -0.3604
 4493TIP3   OH234969   3.414   6.551  13.405  0.2379  0.4010  0.5232
 4493TIP3    H134970   3.372   6.480  13.453  0.5126 -0.5679 -0.6232
 4493TIP3    H234971   3.345   6.586  13.349  0.2940  0.5556  0.5495
 4494TIP3   OH234972   5.495   6.239   3.790  0.3471  0.0918  0.6165
 4494TIP3    H134973   5.464   6.288   3.866 -1.1071  0.4783 -0.1862
 4494TIP3    H234974   5.511   6.151   3.823 -0.6695  0.1475  1.2995
 4495TIP3   OH234975   5.937   2.572  13.895 -0.2212 -0.5425  0.5894
 4495TIP3    H134976   6.019   2.600  13.854 -0.6392  0.1366  0.1955
 4495TIP3    H234977   5.942   2.476  13.896  0.7026 -0.4935  0.8438
 4496TIP3   OH234978   1.975   2.376  14.992  0.0937  0.0657  0.4227
 4496TIP3    H134979   1.885   2.405  14.976  0.7278  1.4824 -0.7221
 4496TIP3    H234980   1.982   2.293  14.946 -0.7227 -0.2209  0.7985
 4497TIP3   OH234981   3.538   0.538   1.124  0.1067 -0.2168 -0.3205
 4497TIP3    H134982   3.577   0.537   1.212 -1.6546  1.5754  0.5907
 4497TIP3    H234983   3.579   0.466   1.078  1.0749 -1.2572  2.0050
 4498TIP3   OH234984   3.118   0.652   5.231  0.1868 -0.0875  0.0873
 4498TIP3    H134985   3.046   0.600   5.267  0.7119 -0.6044  0.4213
 4498TIP3    H234986   3.124   0.728   5.288 -2.3566  1.8385 -1.9634
 4499TIP3   OH234987   4.695   4.339  12.367 -0.2900 -0.1969  0.0845
 4499TIP3    H134988   4.744   4.257  12.369  0.2066  0.0737 -0.4652
 4499TIP3    H234989   4.758   4.405  12.397 -1.1652 -0.2229  2.1535
 4500TIP3   OH234990   0.928   1.830   2.728 -0.3851  0.1301 -0.6309
 4500TIP3    H134991   0.932   1.924   2.713  0.9454 -0.0087 -1.2869
 4500TIP3    H234992   0.911   1.821   2.822  1.5667  1.0500 -0.1419
 4501TIP3   OH234993   3.704   1.740   6.340 -0.3939  0.3828  1.1564
 4501TIP3    H134994   3.628   1.789   6.370 -1.2513  0.3505 -0.7956
 4501TIP3    H234995   3.767   1.746   6.412 -0.9504  3.2321  1.5205
 4502TIP3   OH234996   6.725   6.598  14.541 -0.0955  0.0992 -0.2387
 4502TIP3    H134997   6.670   6.670  14.511 -2.4359 -1.3157  0.4206
 4502TIP3    H234998   6.735   6.613  14.635 -0.1343 -0.1574 -0.1938
 4503TIP3   OH234999   2.930   6.098   5.331  0.1313 -0.2157  0.2873
 4503TIP3    H135000   2.899   6.104   5.421 -1.2239 -0.1378 -0.1686
 4503TIP3    H235001   2.914   6.006   5.307 -0.3211 -0.0284 -0.1459
 4504TIP3   OH235002   0.936   3.536  13.803 -0.4777  0.0159  0.3313
 4504TIP3    H135003   0.884   3.584  13.867  0.0457  2.3238 -0.8647
 4504TIP3    H235004   1.026   3.566  13.818 -0.0389 -1.0522 -0.0752
 4505TIP3   OH235005   0.119   1.905  14.254  0.0579 -0.5423  0.3382
 4505TIP3    H135006   0.131   1.901  14.349 -0.4782 -1.1498  0.3879
 4505TIP3    H235007   0.207   1.919  14.219  0.1429  0.6612  0.9624
 4506TIP3   OH235008   1.596   4.736   1.716  0.4905 -0.1375  0.6985
 4506TIP3    H135009   1.673   4.790   1.699  1.9381 -1.3199  3.0173
 4506TIP3    H235010   1.584   4.741   1.811 -2.9590  0.7921  0.3538
 4507TIP3   OH235011   1.091   4.373   1.785  0.5188  0.2831 -0.0323
 4507TIP3    H135012   1.109   4.356   1.878  0.2151  0.1356  0.0013
 4507TIP3    H235013   1.117   4.293   1.740  0.1581  0.1479 -0.0079
 4508TIP3   OH235014   5.960   2.789  14.394  0.2284  0.6393  0.3890
 4508TIP3    H135015   5.905   2.855  14.351 -0.2113 -0.6810 -1.1757
 4508TIP3    H235016   6.050   2.817  14.376  0.0652  1.6984  1.1749
 4509TIP3   OH235017   6.079   2.840   5.671  0.4501  0.1049  0.5686
 4509TIP3    H135018   6.077   2.750   5.703 -2.0135  0.1726  0.7942
 4509TIP3    H235019   6.120   2.890   5.741 -0.5576 -0.4666  1.5927
 4510TIP3   OH235020   2.202   2.175   1.545  0.2413 -0.3301  0.2530
 4510TIP3    H135021   2.195   2.183   1.640 -0.4722 -0.7444  0.2364
 4510TIP3    H235022   2.268   2.241   1.521  2.4510 -1.9969  1.3312
 4511TIP3   OH235023   2.173   3.713  10.898 -0.5043 -0.3298 -0.5253
 4511TIP3    H135024   2.132   3.799  10.906 -0.1843 -0.1981 -0.2422
 4511TIP3    H235025   2.266   3.731  10.909 -0.4323 -0.7069 -0.5287
 4512TIP3   OH235026   5.421   1.827  16.012 -1.6308 -0.1634  0.1725
 4512TIP3    H135027   5.400   1.905  16.064  0.3179 -1.1255  2.6236
 4512TIP3    H235028   5.469   1.861  15.937 -0.2419  1.0230  1.5301
 4513TIP3   OH235029   3.215   0.853   0.960 -0.1334 -0.3372  0.6218
 4513TIP3    H135030   3.209   0.941   0.923 -0.7328 -1.2201 -1.5406
 4513TIP3    H235031   3.306   0.844   0.987  0.2046  0.5627 -0.1755
 4514TIP3   OH235032   2.580   4.383   3.150 -0.7659  0.6608 -0.6273
 4514TIP3    H135033   2.622   4.389   3.064 -0.5488 -2.2517 -0.8405
 4514TIP3    H235034   2.523   4.306   3.142 -1.9950  1.3040  1.3584
 4515TIP3   OH235035   4.169   0.830   4.848 -0.1782  0.0304  0.4893
 4515TIP3    H135036   4.114   0.880   4.908 -0.4864  1.0622 -0.5989
 4515TIP3    H235037   4.203   0.896   4.787 -0.4115 -1.0577 -0.8561
 4516TIP3   OH235038   5.512   4.550  15.733  0.9308 -0.0533  0.3120
 4516TIP3    H135039   5.502   4.469  15.783  0.5884 -1.3714 -1.7588
 4516TIP3    H235040   5.605   4.551  15.708  0.5239 -0.9914 -1.4352
 4517TIP3   OH235041   3.740   6.486  15.190  0.6554  0.1158 -0.1871
 4517TIP3    H135042   3.648   6.469  15.208  0.8638 -0.9889 -0.1275
 4517TIP3    H235043   3.763   6.426  15.119  1.6105 -0.4146  0.5415
 4518TIP3   OH235044   4.275   6.347   4.439 -0.8066 -0.5710  0.3039
 4518TIP3    H135045   4.357   6.321   4.396 -1.4407 -1.7051 -0.2576
 4518TIP3    H235046   4.231   6.402   4.375 -1.6392 -2.0625 -0.4615
 4519TIP3   OH235047   6.423   5.280  12.492  0.3375  0.1133 -0.3338
 4519TIP3    H135048   6.436   5.293  12.398  0.9677 -1.2116 -0.4477
 4519TIP3    H235049   6.486   5.338  12.534  0.2572  0.4901 -0.7292
 4520TIP3   OH235050   4.865   1.312   4.100 -0.9716 -0.4996  0.4026
 4520TIP3    H135051   4.849   1.399   4.136  0.8277 -0.1544  0.4897
 4520TIP3    H235052   4.898   1.261   4.174  2.5796  0.1687 -0.5246
 4521TIP3   OH235053   2.641   0.803  15.085 -0.2884 -0.2074 -0.8654
 4521TIP3    H135054   2.584   0.750  15.029 -0.4534 -1.2167  0.2199
 4521TIP3    H235055   2.596   0.804  15.170  0.1561  0.9613 -0.6273
 4522TIP3   OH235056   2.535   2.252   3.178  0.1891  0.9990  0.0832
 4522TIP3    H135057   2.618   2.232   3.135  0.4187  0.4565  0.7615
 4522TIP3    H235058   2.547   2.341   3.211  0.9737  0.5063  1.2182
 4523TIP3   OH235059   1.403   2.968  10.969 -0.4687  0.0881 -0.2849
 4523TIP3    H135060   1.372   2.978  10.879 -1.7154 -2.7262 -0.2710
 4523TIP3    H235061   1.323   2.953  11.020  0.4219 -1.2926  0.7699
 4524TIP3   OH235062   0.875   4.025  15.465 -0.0375 -0.0708 -0.0936
 4524TIP3    H135063   0.799   4.029  15.522 -1.7221  0.8144 -2.2384
 4524TIP3    H235064   0.842   3.989  15.383  1.4225  1.9259 -1.6685
 4525TIP3   OH235065   1.654   4.486  11.745  0.2004 -0.3266  0.2454
 4525TIP3    H135066   1.704   4.405  11.734  1.2721  0.1357  1.5486
 4525TIP3    H235067   1.717   4.556  11.726  0.5094  0.3125  3.1507
 4526TIP3   OH235068   0.538   5.106  11.301 -0.1624 -0.5256 -0.1803
 4526TIP3    H135069   0.582   5.168  11.359 -0.2476 -0.2949 -0.3612
 4526TIP3    H235070   0.453   5.146  11.282  0.5040  0.2076 -1.7929
 4527TIP3   OH235071   0.974   3.285  16.809  0.3959  0.0128 -0.2547
 4527TIP3    H135072   1.015   3.360  16.767 -0.9504  0.1979 -1.3103
 4527TIP3    H235073   0.909   3.254  16.746 -1.0721 -0.2721  1.3025
 4528TIP3   OH235074   3.807   1.034   3.199  0.5543 -0.4279  0.2280
 4528TIP3    H135075   3.808   1.015   3.292  1.5083  1.7048  0.7210
 4528TIP3    H235076   3.883   1.090   3.185  0.7994 -1.2159 -1.9685
 4529TIP3   OH235077   5.372   2.551   4.964  0.1616 -0.2063  0.0956
 4529TIP3    H135078   5.346   2.467   4.926 -0.6492  0.1350 -0.1275
 4529TIP3    H235079   5.296   2.579   5.015 -0.5692  1.5547 -1.8087
 4530TIP3   OH235080   6.304   6.748  15.512 -0.1180 -0.4788 -0.0223
 4530TIP3    H135081   6.239   6.765  15.443 -1.6388 -2.9440  0.6607
 4530TIP3    H235082   6.327   6.835  15.545 -2.1393  0.5658 -1.1364
 4531TIP3   OH235083   5.477   2.750   3.057 -0.2428  0.1929  0.6777
 4531TIP3    H135084   5.393   2.760   3.012 -0.1474  2.4686  0.8836
 4531TIP3    H235085   5.531   2.822   3.023  0.8439  0.1632  2.2321
 4532TIP3   OH235086   2.524   1.150  11.946  0.1696 -0.1845 -0.2260
 4532TIP3    H135087   2.460   1.111  12.006  0.1780  0.1403  0.0001
 4532TIP3    H235088   2.504   1.244  11.949  0.8435 -0.0483  0.0676
 4533TIP3   OH235089   3.200   0.275  13.286 -0.1339  0.7407 -0.3991
 4533TIP3    H135090   3.293   0.256  13.269  0.6666  2.4547  1.6796
 4533TIP3    H235091   3.192   0.270  13.381 -2.3371  0.1390 -0.5664
 4534TIP3   OH235092   1.436   0.232   0.826  0.4516  0.0282  0.0466
 4534TIP3    H135093   1.462   0.320   0.799  2.3584 -1.1179 -2.1593
 4534TIP3    H235094   1.489   0.173   0.772 -1.9386 -2.5122  0.2451
 4535TIP3   OH235095   5.151   5.213  11.719 -0.1334  0.0661  0.2702
 4535TIP3    H135096   5.147   5.171  11.633  0.4009 -2.6663  1.4817
 4535TIP3    H235097   5.196   5.296  11.703 -1.3040  0.3005 -2.2846
 4536TIP3   OH235098   4.888   1.226  12.187 -0.5901 -0.0316 -0.1868
 4536TIP3    H135099   4.931   1.269  12.262 -3.2410 -0.4471  1.6994
 4536TIP3    H235100   4.850   1.298  12.137  1.5820  0.2889 -1.5314
 4537TIP3   OH235101   3.789   1.077   5.983 -0.2064  0.0461 -0.2859
 4537TIP3    H135102   3.815   1.169   5.986  0.1098 -0.0581  0.5472
 4537TIP3    H235103   3.837   1.036   6.056 -0.9527 -0.6145 -0.1521
 4538TIP3   OH235104   5.036   0.414   5.576 -0.0185 -0.6678  0.2649
 4538TIP3    H135105   4.946   0.427   5.545  0.5870 -0.7337 -1.6764
 4538TIP3    H235106   5.050   0.486   5.638 -1.1714 -0.2112  0.0265
 4539TIP3   OH235107   4.995   0.038   3.371 -0.2448  1.0216  0.3326
 4539TIP3    H135108   4.997   0.073   3.282 -0.5245 -0.5981 -0.3496
 4539TIP3    H235109   4.908   0.002   3.380  0.8796 -2.1142 -0.1354
 4540TIP3   OH235110   1.878   3.431   5.268  0.5337 -0.2934  0.3173
 4540TIP3    H135111   1.878   3.385   5.352  0.9637  0.0485  0.5071
 4540TIP3    H235112   1.938   3.505   5.281  1.1572 -0.6447 -0.5120
 4541TIP3   OH235113   4.164   5.525  15.444 -0.1341 -0.3563 -0.6938
 4541TIP3    H135114   4.120   5.440  15.437  0.5677 -0.8208  0.3890
 4541TIP3    H235115   4.257   5.505  15.438  0.2101 -0.0350  2.3475
 4542TIP3   OH235116   4.895   0.892   1.560 -0.2022  0.1246 -0.4884
 4542TIP3    H135117   4.864   0.874   1.471 -1.2514 -0.0598 -0.0972
 4542TIP3    H235118   4.826   0.860   1.617 -1.0160  3.0330  0.3181
 4543TIP3   OH235119   6.472   6.109   5.374 -0.2544 -0.4438 -0.3740
 4543TIP3    H135120   6.466   6.029   5.322  1.2829 -0.7407 -0.1397
 4543TIP3    H235121   6.412   6.095   5.447  0.4963 -1.6985  0.0349
 4544TIP3   OH235122   4.327   0.511  16.559 -0.4915  0.1665 -0.0504
 4544TIP3    H135123   4.338   0.477  16.470 -1.1799  1.8907 -0.8418
 4544TIP3    H235124   4.275   0.444  16.604  0.7364 -1.2176 -0.5895
 4545TIP3   OH235125   2.261   0.225  14.427  0.3516 -0.3708  0.0626
 4545TIP3    H135126   2.309   0.305  14.407 -1.8450  1.9330  3.1008
 4545TIP3    H235127   2.193   0.220  14.360 -0.6148  1.4138  0.8502
 4546TIP3   OH235128   1.700   1.361  16.311  0.1158 -0.3437 -0.5117
 4546TIP3    H135129   1.633   1.413  16.267 -1.2908  0.5753  2.4568
 4546TIP3    H235130   1.656   1.279  16.334  0.0067  0.1634  1.2337
 4547TIP3   OH235131   3.256   2.763   3.609  0.3473  0.1421  0.1840
 4547TIP3    H135132   3.325   2.810   3.562 -0.0222  0.7208  0.2068
 4547TIP3    H235133   3.302   2.699   3.662  0.7524 -0.9020 -1.3788
 4548TIP3   OH235134   4.494   0.438   5.405 -0.0388 -0.4283  0.6401
 4548TIP3    H135135   4.533   0.447   5.492 -1.7501  0.8676  1.3200
 4548TIP3    H235136   4.432   0.366   5.413  1.4861 -1.9282 -0.2196
 4549TIP3   OH235137   0.998   3.628   0.790  0.1980  0.6193 -0.3715
 4549TIP3    H135138   0.908   3.659   0.784 -0.6845 -1.4745  0.8477
 4549TIP3    H235139   1.009   3.604   0.882  2.1399  1.1101 -0.4248
 4550TIP3   OH235140   5.902   2.623  13.487  0.1048  0.9386 -0.2286
 4550TIP3    H135141   5.836   2.692  13.497 -0.4503  0.8671 -2.6342
 4550TIP3    H235142   5.929   2.630  13.395  2.0170 -0.3340  0.1824
 4551TIP3   OH235143   4.418   1.690  14.814 -0.4697  0.5905 -0.8680
 4551TIP3    H135144   4.467   1.763  14.851  1.0455  0.1082 -1.8078
 4551TIP3    H235145   4.420   1.623  14.882  0.7571  0.3449 -1.1351
 4552TIP3   OH235146   4.065   4.819  16.219 -0.0304  0.2896  0.0743
 4552TIP3    H135147   4.076   4.788  16.129 -0.8545 -0.3680  0.1805
 4552TIP3    H235148   4.090   4.744  16.273  0.5761  0.7219  0.4009
 4553TIP3   OH235149   3.325   2.620   4.715  0.6169 -0.1518 -0.4880
 4553TIP3    H135150   3.391   2.568   4.760  2.3540  2.1420 -0.2465
 4553TIP3    H235151   3.314   2.698   4.769 -2.2392 -0.3594 -0.6065
 4554TIP3   OH235152   3.372   0.534  15.232  0.2245  0.0378  0.6402
 4554TIP3    H135153   3.398   0.536  15.325 -1.3571 -0.8158  1.1312
 4554TIP3    H235154   3.315   0.458  15.225  0.9931 -0.4069 -1.2447
 4555TIP3   OH235155   0.482   1.789   5.159 -0.1531 -0.8462 -0.4797
 4555TIP3    H135156   0.390   1.803   5.137  0.2768  0.5411 -1.4931
 4555TIP3    H235157   0.521   1.876   5.159  1.1245 -1.3827  0.1686
 4556TIP3   OH235158   3.379   3.662   0.848 -0.1226 -0.2065 -0.1825
 4556TIP3    H135159   3.420   3.748   0.855 -0.4771  0.0994 -1.5230
 4556TIP3    H235160   3.453   3.602   0.835  0.1197 -0.1086  0.6775
 4557TIP3   OH235161   1.802   2.861  17.010 -0.5310  0.2711  0.0671
 4557TIP3    H135162   1.749   2.919  17.064  0.0534  0.6728  0.2197
 4557TIP3    H235163   1.862   2.818  17.071  0.0714  0.6589 -0.2362
 4558TIP3   OH235164   2.121   6.525   2.484  0.4643 -0.2886  0.3736
 4558TIP3    H135165   2.190   6.508   2.420  0.1460  0.7983 -0.2792
 4558TIP3    H235166   2.160   6.587   2.545  0.4440 -0.5854  0.6962
 4559TIP3   OH235167   0.053   2.075  16.858  0.8636 -0.1991 -0.4328
 4559TIP3    H135168   0.007   1.991  16.853 -1.8460  1.1599 -0.4191
 4559TIP3    H235169   0.098   2.072  16.943  2.7949 -2.4667 -1.4154
 4560TIP3   OH235170   2.979   4.244  15.101 -0.1926  0.2832 -0.1524
 4560TIP3    H135171   2.918   4.177  15.072 -0.4583  1.2195 -1.8979
 4560TIP3    H235172   2.978   4.238  15.197 -0.6597 -1.7594 -0.2369
 4561TIP3   OH235173   2.059   6.579   3.385  0.7305 -0.2669  0.4424
 4561TIP3    H135174   1.980   6.540   3.349  0.0319 -0.1628  1.8239
 4561TIP3    H235175   2.119   6.583   3.310 -0.5059 -0.4577 -0.6010
 4562TIP3   OH235176   2.683   5.926  14.235 -1.1276 -0.2414  0.0385
 4562TIP3    H135177   2.678   5.948  14.141 -0.9972 -0.6261 -0.0570
 4562TIP3    H235178   2.622   5.853  14.245 -0.2470 -0.9776  0.0316
 4563TIP3   OH235179   1.685   0.296  13.983  0.5695  0.2360  0.0401
 4563TIP3    H135180   1.689   0.213  14.031 -1.5691  0.1562  0.1768
 4563TIP3    H235181   1.776   0.324  13.977  1.0431  0.6348  4.8394
 4564TIP3   OH235182   5.929   0.268   2.115 -0.6193 -0.3381 -0.4138
 4564TIP3    H135183   6.010   0.302   2.077 -0.4512 -1.3827 -1.0252
 4564TIP3    H235184   5.867   0.341   2.109  0.5680  0.8611  1.1146
 4565TIP3   OH235185   2.666   2.783  16.944  0.1566  0.0167 -0.3725
 4565TIP3    H135186   2.753   2.748  16.925  0.4737 -0.4774  1.7031
 4565TIP3    H235187   2.608   2.707  16.942 -0.2515  0.3341 -1.6755
 4566TIP3   OH235188   3.150   2.496   5.717  0.3105 -0.2603 -0.5072
 4566TIP3    H135189   3.159   2.402   5.729 -1.8124 -0.5069 -0.3690
 4566TIP3    H235190   3.233   2.533   5.748 -0.4931 -1.7168  4.2471
 4567TIP3   OH235191   5.969   0.016  12.307 -0.2621 -0.3637 -0.4621
 4567TIP3    H135192   6.007   0.088  12.357  0.5876 -0.1922 -1.3381
 4567TIP3    H235193   5.957   0.050  12.219 -1.5961 -0.7252 -0.4485
 4568TIP3   OH235194   6.788   0.253   5.480 -0.0681 -0.1712  0.2985
 4568TIP3    H135195   6.836   0.273   5.400 -0.4571  0.8858  0.3069
 4568TIP3    H235196   6.729   0.182   5.456  0.6186 -0.6277 -0.0452
 4569TIP3   OH235197   0.931   4.099  11.263  0.2307 -0.2511  0.4337
 4569TIP3    H135198   0.991   4.025  11.255 -1.6401 -1.9153  0.8327
 4569TIP3    H235199   0.953   4.140  11.346  0.3880 -1.2666  0.9078
 4570TIP3   OH235200   1.120   4.827   2.622 -0.1916  0.1590 -0.2783
 4570TIP3    H135201   1.123   4.856   2.713  1.1361 -0.7748  0.0174
 4570TIP3    H235202   1.160   4.899   2.572  0.7412 -0.0544  0.1257
 4571TIP3   OH235203   3.585   6.741  16.378 -0.2013  0.0164 -0.3306
 4571TIP3    H135204   3.672   6.778  16.390 -0.8603  1.8394 -0.7197
 4571TIP3    H235205   3.599   6.660  16.329  1.3096 -0.1147  0.2802
 4572TIP3   OH235206   3.677   5.003  16.223 -0.1455  1.2467 -0.1623
 4572TIP3    H135207   3.690   4.970  16.312 -0.4270  0.5350 -0.3830
 4572TIP3    H235208   3.700   5.096  16.229  1.4185  0.8617  0.2942
 4573TIP3   OH235209   2.224   5.443  15.020 -0.0307  0.2616 -0.7022
 4573TIP3    H135210   2.277   5.517  15.051  1.8450 -1.9418  1.8840
 4573TIP3    H235211   2.215   5.387  15.097 -1.8204 -1.9560 -2.4067
 4574TIP3   OH235212   0.059   3.193  13.613 -0.0594  0.1487  0.2695
 4574TIP3    H135213   0.108   3.274  13.620  1.6324 -0.9249  1.8575
 4574TIP3    H235214  -0.019   3.207  13.667 -0.2342  0.9899 -0.1889
 4575TIP3   OH235215   4.454   1.384   2.182  0.3631 -0.1776  0.0646
 4575TIP3    H135216   4.535   1.425   2.151 -0.3335  1.8645  0.7988
 4575TIP3    H235217   4.446   1.304   2.130  1.2576  1.1237 -2.1807
 4576TIP3   OH235218   5.043   3.982   0.661 -0.3252 -0.4099  0.4441
 4576TIP3    H135219   5.000   4.025   0.734 -1.5833  1.0530 -1.0783
 4576TIP3    H235220   4.976   3.926   0.623  0.6515 -2.0712  1.0464
 4577TIP3   OH235221   1.669   5.596  15.559  0.0017  0.1459  0.0998
 4577TIP3    H135222   1.647   5.689  15.561  1.6648  0.5947 -0.6547
 4577TIP3    H235223   1.585   5.551  15.549 -0.7798  1.5850 -0.0207
 4578TIP3   OH235224   2.513   6.480  12.210 -0.4341 -0.1940  0.2542
 4578TIP3    H135225   2.560   6.401  12.184  0.0751 -0.5315  2.0911
 4578TIP3    H235226   2.432   6.449  12.250 -0.8749  0.2771 -0.2595
 4579TIP3   OH235227   1.892   4.910   1.051  0.0564  0.0493 -0.3793
 4579TIP3    H135228   1.842   4.992   1.056 -0.5633 -0.3757  0.6368
 4579TIP3    H235229   1.830   4.843   1.081  1.1163 -0.5386  0.5467
 4580TIP3   OH235230   2.300   1.192  16.736 -0.4478 -0.1807 -0.4503
 4580TIP3    H135231   2.287   1.286  16.748  1.3169 -0.1597  1.9560
 4580TIP3    H235232   2.238   1.151  16.795 -0.1326 -0.4797 -0.3227
 4581TIP3   OH235233   6.779   6.455  17.050  0.0629  0.3792 -0.2644
 4581TIP3    H135234   6.856   6.484  17.098 -0.4237 -0.3853  1.0321
 4581TIP3    H235235   6.807   6.373  17.008  0.7334  1.4510 -2.0226
 4582TIP3   OH235236   4.337   3.651   0.072  0.8559  0.2595  0.0178
 4582TIP3    H135237   4.386   3.587   0.020 -0.6245 -1.6477  0.8237
 4582TIP3    H235238   4.257   3.667   0.022 -0.1330 -0.8512  1.1666
 4583TIP3   OH235239   2.204   5.524  13.502 -0.5727  0.7551 -0.5438
 4583TIP3    H135240   2.297   5.514  13.524 -1.1028 -2.9589  0.7495
 4583TIP3    H235241   2.171   5.587  13.566  1.0028  2.2416 -1.1130
 4584TIP3   OH235242   3.900   2.781  14.677  0.1071  0.4320 -0.4473
 4584TIP3    H135243   3.811   2.770  14.645 -0.1228 -0.6143  0.5019
 4584TIP3    H235244   3.932   2.859  14.632 -1.6588  1.4756  0.0213
 4585TIP3   OH235245   6.421   4.205   3.185 -0.3718  0.3639 -0.1594
 4585TIP3    H135246   6.362   4.271   3.147 -0.5992 -0.0667 -0.5581
 4585TIP3    H235247   6.377   4.121   3.168  0.5943 -0.0027 -0.9042
 4586TIP3   OH235248   6.106   0.249   2.890 -0.0681 -0.6846  0.0987
 4586TIP3    H135249   6.044   0.176   2.884 -2.2663  0.8726  2.0367
 4586TIP3    H235250   6.116   0.265   2.984  1.8182  0.3729 -0.2265
 4587TIP3   OH235251   2.171   5.980  12.422  0.7243 -0.6667  0.2811
 4587TIP3    H135252   2.083   6.015  12.436  0.2636 -2.4284  2.3466
 4587TIP3    H235253   2.212   6.042  12.361 -1.2228  1.3527  0.8694
 4588TIP3   OH235254   5.474   3.374  17.056  0.1046  0.2864 -0.5070
 4588TIP3    H135255   5.479   3.361  16.961  1.0597 -0.0013 -0.4308
 4588TIP3    H235256   5.475   3.286  17.093 -0.1058  0.4015 -0.2160
 4589TIP3   OH235257   2.638   1.172   0.906  0.1399 -0.0766 -0.0976
 4589TIP3    H135258   2.550   1.192   0.938  0.1603  0.0347 -0.1093
 4589TIP3    H235259   2.695   1.185   0.982  0.2039  0.3085 -0.2096
 4590TIP3   OH235260   4.023   0.319  14.379 -0.4563 -0.1211 -0.4909
 4590TIP3    H135261   4.071   0.378  14.321 -2.2094  0.4204 -1.4788
 4590TIP3    H235262   4.057   0.232  14.358  1.2680  0.3959  0.0732
 4591TIP3   OH235263   6.504   2.424   0.990 -0.3217 -0.2878  0.0471
 4591TIP3    H135264   6.425   2.397   0.942 -0.3221 -1.4387  0.6512
 4591TIP3    H235265   6.568   2.443   0.922 -1.2037  1.0382 -0.4700
 4592TIP3   OH235266   1.883   5.735   4.585  0.1245  0.1047  0.0287
 4592TIP3    H135267   1.968   5.710   4.622  1.7612  1.7702 -2.3328
 4592TIP3    H235268   1.863   5.666   4.521 -0.5303 -0.4757  0.8355
 4593TIP3   OH235269   0.349   5.255   3.955  0.6754 -0.3994  0.2717
 4593TIP3    H135270   0.274   5.231   3.901  1.4430 -0.8991 -0.6094
 4593TIP3    H235271   0.392   5.172   3.975  0.2508 -0.2443  1.9121
 4594TIP3   OH235272   1.404   3.754  16.856  0.0588  0.2281 -0.6428
 4594TIP3    H135273   1.332   3.811  16.881 -0.2416 -1.0448  1.7535
 4594TIP3    H235274   1.362   3.671  16.832  0.5188 -1.9524  4.6309
 4595TIP3   OH235275   5.380   3.776   3.136  0.2762 -0.0593  0.8037
 4595TIP3    H135276   5.391   3.839   3.207  2.9048  1.2151 -0.5707
 4595TIP3    H235277   5.470   3.757   3.107 -0.6189 -1.7911 -1.0840
 4596TIP3   OH235278   2.213   2.956  16.280 -0.0105  0.0532 -0.0256
 4596TIP3    H135279   2.284   2.997  16.231  0.3287  0.1489  0.5317
 4596TIP3    H235280   2.141   2.950  16.218  1.2159 -2.3015 -1.3891
 4597TIP3   OH235281   5.293   5.611   0.983 -0.5576 -0.2284  0.0756
 4597TIP3    H135282   5.296   5.524   0.944 -0.6679 -0.3043  0.2371
 4597TIP3    H235283   5.362   5.610   1.049 -0.7119 -0.2688  0.2354
 4598TIP3   OH235284   3.499   2.778  10.485  0.1385 -0.2024  0.3860
 4598TIP3    H135285   3.417   2.735  10.508  0.4996 -1.6155 -0.8531
 4598TIP3    H235286   3.561   2.707  10.468  1.1985  0.8177 -0.2207
 4599TIP3   OH235287   0.326   5.191   0.353  0.3261  0.2472  0.0645
 4599TIP3    H135288   0.233   5.174   0.344  0.0105  1.9584 -0.2758
 4599TIP3    H235289   0.368   5.134   0.289 -0.5853  0.3062 -0.5926
 4600TIP3   OH235290   2.641   1.358  13.008  0.2932 -0.1985 -0.2046
 4600TIP3    H135291   2.705   1.427  12.986 -0.7273  0.3416 -1.5770
 4600TIP3    H235292   2.600   1.390  13.089  1.3544 -0.2944  0.3995
 4601TIP3   OH235293   5.316   5.604  15.141  0.1578  0.0388  0.1758
 4601TIP3    H135294   5.396   5.591  15.192  0.5526  3.2623  0.5996
 4601TIP3    H235295   5.247   5.564  15.194  1.2037 -1.1095  0.7255
 4602TIP3   OH235296   1.079   2.392   5.875 -0.8343 -0.4771  0.0079
 4602TIP3    H135297   1.028   2.417   5.952 -2.2109 -0.5222 -0.8598
 4602TIP3    H235298   1.117   2.307   5.898 -0.0802  0.1481  1.1458
 4603TIP3   OH235299   3.595   2.246  14.332  1.0756 -0.6461 -0.0669
 4603TIP3    H135300   3.617   2.272  14.421  0.1058  0.0521 -0.0028
 4603TIP3    H235301   3.678   2.247  14.284  1.3510  0.7787  0.4060
 4604TIP3   OH235302   3.746   4.907   4.140 -0.2532 -0.0567 -0.2657
 4604TIP3    H135303   3.795   4.931   4.062 -1.4170  0.0001 -1.0061
 4604TIP3    H235304   3.671   4.967   4.142 -0.1348  0.0854  1.0165
 4605TIP3   OH235305   2.898   4.045  17.013  0.0429  0.3394 -0.2585
 4605TIP3    H135306   2.895   3.954  16.983 -1.6911  0.4704 -0.6130
 4605TIP3    H235307   2.806   4.072  17.016  0.3786  1.5029  1.6273
 4606TIP3   OH235308   5.263   0.577  14.100  0.3437  0.2917  0.9730
 4606TIP3    H135309   5.257   0.562  14.006 -1.5926  0.6847  0.9928
 4606TIP3    H235310   5.214   0.505  14.139  0.2404  0.6963  1.6120
 4607TIP3   OH235311   3.699   2.802  13.827 -0.1250  0.2294 -0.6460
 4607TIP3    H135312   3.638   2.875  13.814  0.4022  1.0163  1.0930
 4607TIP3    H235313   3.745   2.822  13.908  3.0211  0.0687 -2.2127
 4608TIP3   OH235314   4.319   5.072   6.342  0.3361 -0.4623  0.5919
 4608TIP3    H135315   4.344   5.155   6.301  0.9018 -1.4070 -1.0925
 4608TIP3    H235316   4.267   5.097   6.418  1.0961  1.4384  0.5340
 4609TIP3   OH235317   3.262   0.991   2.759  0.1409 -0.0602 -0.1867
 4609TIP3    H135318   3.355   1.011   2.761  0.2787 -0.3895 -1.8415
 4609TIP3    H235319   3.258   0.895   2.756 -0.2772 -0.0703  0.4538
 4610TIP3   OH235320   5.432   5.179  12.173 -0.2835  0.7017 -0.2722
 4610TIP3    H135321   5.396   5.150  12.089 -0.5438  1.3439 -0.3953
 4610TIP3    H235322   5.439   5.274  12.163  1.6920  0.5970 -0.3552
 4611TIP3   OH235323   1.120   4.559   3.807  0.3419  0.4923  0.0915
 4611TIP3    H135324   1.139   4.541   3.899  1.0380  2.1930  0.3215
 4611TIP3    H235325   1.121   4.655   3.801 -0.9526  0.4485 -1.4362
 4612TIP3   OH235326   3.435   5.037   5.380  0.0605  0.1893  0.1384
 4612TIP3    H135327   3.415   4.954   5.424 -0.1751  1.5218  2.7331
 4612TIP3    H235328   3.349   5.076   5.363  0.1284 -0.5481 -2.1201
 4613TIP3   OH235329   1.145   0.849   0.568  0.2047 -0.1585 -0.2611
 4613TIP3    H135330   1.153   0.922   0.630  0.3550 -0.0895 -0.3614
 4613TIP3    H235331   1.160   0.771   0.620 -2.3390 -0.3209  0.3908
 4614TIP3   OH235332   0.269   4.097   0.083  0.1789 -0.2098 -0.1166
 4614TIP3    H135333   0.192   4.080   0.030  0.6144 -1.1375 -0.4737
 4614TIP3    H235334   0.291   4.188   0.066 -0.1926 -0.2541 -0.8636
 4615TIP3   OH235335   0.509   2.738   0.197 -0.0239 -0.2630 -0.5074
 4615TIP3    H135336   0.581   2.799   0.209  0.0644 -0.4732  0.0499
 4615TIP3    H235337   0.541   2.674   0.133 -0.9889  1.6585 -3.1117
 4616TIP3   OH235338   5.820   4.652  15.694 -0.7554  0.1765 -0.5692
 4616TIP3    H135339   5.882   4.579  15.697  0.5033  1.2012 -0.9377
 4616TIP3    H235340   5.875   4.730  15.693 -2.0627  1.1232 -0.9690
 4617TIP3   OH235341   2.549   3.230   6.481 -0.5816  0.5975 -0.4853
 4617TIP3    H135342   2.480   3.181   6.526 -1.3262  0.7163 -1.4724
 4617TIP3    H235343   2.503   3.303   6.439 -0.0185  0.0739 -2.0522
 4618TIP3   OH235344   2.507   5.892   3.131  0.3479  0.1378  0.3525
 4618TIP3    H135345   2.537   5.975   3.094 -0.9492  0.0846 -0.8764
 4618TIP3    H235346   2.587   5.843   3.148  1.0255  0.4227 -1.8170
 4619TIP3   OH235347   5.344   6.312  13.258  0.0429 -0.0823 -0.2346
 4619TIP3    H135348   5.405   6.243  13.234 -0.7462 -0.5403 -0.9555
 4619TIP3    H235349   5.385   6.393  13.228  0.9074 -0.2347  0.4953
 4620TIP3   OH235350   3.488   2.747   1.085 -0.0355 -0.3219  0.1203
 4620TIP3    H135351   3.411   2.708   1.127  0.9062 -0.5619  1.7025
 4620TIP3    H235352   3.529   2.674   1.038  0.9606 -1.0091  1.9411
 4621TIP3   OH235353   4.204   0.505   1.956 -0.1736 -0.1297 -0.1225
 4621TIP3    H135354   4.280   0.448   1.964 -0.4817 -0.6031 -0.5796
 4621TIP3    H235355   4.240   0.589   1.927  0.4270  0.2937  1.6735
 4622TIP3   OH235356   0.067   6.090  16.502  0.2776  0.3973 -0.1612
 4622TIP3    H135357   0.060   6.139  16.584  0.5022 -0.1089  0.1599
 4622TIP3    H235358   0.073   5.998  16.528  1.9525  0.3327 -0.6642
 4623TIP3   OH235359   1.325   2.587   4.292 -0.4626 -0.1483  0.1867
 4623TIP3    H135360   1.419   2.603   4.299  0.2687 -3.4130 -0.5488
 4623TIP3    H235361   1.309   2.513   4.351 -2.6616  0.5363  0.5326
 4624TIP3   OH235362   1.419   0.617  16.985 -0.5525  0.3126  0.0296
 4624TIP3    H135363   1.382   0.571  17.061  0.2728 -0.6124 -0.1052
 4624TIP3    H235364   1.505   0.646  17.015  0.0746 -0.6901 -0.7650
 4625TIP3   OH235365   0.166   0.063  15.657  0.2179  0.0879 -0.0685
 4625TIP3    H135366   0.140   0.144  15.702  0.2180  0.1238 -0.1331
 4625TIP3    H235367   0.228   0.021  15.716 -2.9066 -2.0078  2.0502
 4626TIP3   OH235368   0.420   0.734  15.233 -0.0421  0.0881 -0.5383
 4626TIP3    H135369   0.450   0.693  15.152  0.1427  2.5546 -1.8090
 4626TIP3    H235370   0.491   0.793  15.258 -0.3110 -0.2644  1.1526
 4627TIP3   OH235371   6.471   4.504  16.243 -0.3573  0.2465  0.3974
 4627TIP3    H135372   6.534   4.576  16.257 -0.1578  0.1959 -0.2242
 4627TIP3    H235373   6.499   4.436  16.304  0.3718  0.1131 -0.0727
 4628TIP3   OH235374   5.861   0.135  14.422  0.1848 -0.1659  0.3738
 4628TIP3    H135375   5.952   0.122  14.448 -0.0768 -0.1976  1.3001
 4628TIP3    H235376   5.822   0.047  14.423  0.1718 -0.1693 -0.1436
 4629TIP3   OH235377   5.650   0.397  12.406 -0.0356 -0.2397 -0.3308
 4629TIP3    H135378   5.686   0.425  12.490  1.7833 -0.5401 -0.9588
 4629TIP3    H235379   5.595   0.322  12.428  1.3278 -1.0442  0.4976
 4630TIP3   OH235380   4.917   3.916  14.649  0.0664  0.6782  0.5315
 4630TIP3    H135381   5.011   3.927  14.661  0.4297  2.2059 -2.6464
 4630TIP3    H235382   4.895   3.972  14.575 -2.9362 -1.4253 -0.3800
 4631TIP3   OH235383   3.807   1.684   3.448  0.2608  0.1969 -0.2876
 4631TIP3    H135384   3.817   1.691   3.543  0.6435  0.0947 -0.3207
 4631TIP3    H235385   3.790   1.591   3.432  2.0007 -0.1165 -0.4800
 4632TIP3   OH235386   0.190   2.440   4.028 -0.6996  0.6662  0.2833
 4632TIP3    H135387   0.108   2.417   4.071 -1.1071  1.1514 -0.2307
 4632TIP3    H235388   0.217   2.522   4.070  0.3530 -0.2826  1.5643
 4633TIP3   OH235389   6.551   6.231   3.240 -0.5151  0.3428 -0.5839
 4633TIP3    H135390   6.598   6.312   3.260  1.2070 -1.2461  2.7802
 4633TIP3    H235391   6.617   6.176   3.198 -0.5909 -0.4295  0.2654
 4634TIP3   OH235392   0.508   6.226  15.232  0.1458  0.1875  0.0593
 4634TIP3    H135393   0.572   6.264  15.171  0.3731 -2.1175 -1.2474
 4634TIP3    H235394   0.431   6.210  15.179  0.8544 -3.2693 -0.1284
 4635TIP3   OH235395   2.354   5.950   6.079  0.2285  0.2423  0.2887
 4635TIP3    H135396   2.347   5.962   6.174  1.1886  0.5975  0.3298
 4635TIP3    H235397   2.303   6.022   6.042 -2.0271 -1.1518  0.4946
 4636TIP3   OH235398   4.908   4.958   0.538  0.3670 -0.0467 -0.1023
 4636TIP3    H135399   4.979   4.992   0.484  0.5802 -1.5324 -0.8154
 4636TIP3    H235400   4.949   4.936   0.621  0.7020 -0.6434 -0.4194
 4637TIP3   OH235401   4.409   0.351  16.904 -0.3145 -0.2048  0.1054
 4637TIP3    H135402   4.447   0.270  16.937  0.9477 -0.0531 -0.8835
 4637TIP3    H235403   4.381   0.330  16.815  0.7215  0.6075 -0.4395
 4638TIP3   OH235404   0.575   3.451   1.601 -0.2765 -0.0233  0.0063
 4638TIP3    H135405   0.542   3.516   1.540 -2.4016 -0.4785  0.5765
 4638TIP3    H235406   0.535   3.369   1.572  1.7146 -0.9855 -0.2270
 4639TIP3   OH235407   2.268   6.464  16.287 -0.2818  0.3264  0.5116
 4639TIP3    H135408   2.337   6.485  16.225 -2.5508 -0.5037 -2.5113
 4639TIP3    H235409   2.218   6.545  16.298 -0.6450  0.1458  0.2128
 4640TIP3   OH235410   1.272   5.372  15.062  0.2363  0.3925  0.0868
 4640TIP3    H135411   1.236   5.284  15.053 -0.0557  0.4416  0.6993
 4640TIP3    H235412   1.264   5.411  14.976  1.6712 -0.6709 -0.5700
 4641TIP3   OH235413   5.200   6.395   3.071  0.2380 -0.7416 -0.2936
 4641TIP3    H135414   5.138   6.420   3.003 -0.2762  2.9702  1.3144
 4641TIP3    H235415   5.282   6.439   3.046  0.8681 -1.6943  0.0395
 4642TIP3   OH235416   0.031   6.792  14.085 -0.2995  0.2967 -0.1039
 4642TIP3    H135417   0.060   6.756  14.169 -1.2893 -0.1101  0.0810
 4642TIP3    H235418   0.109   6.832  14.048  0.2903 -0.0285  0.7469
 4643TIP3   OH235419   0.951   6.122   2.310 -0.2518 -0.4291 -0.0005
 4643TIP3    H135420   1.036   6.115   2.266  0.6364  0.0743  1.5547
 4643TIP3    H235421   0.939   6.036   2.351  0.7198  0.2405  1.8049
 4644TIP3   OH235422   4.436   1.197  16.811  0.5451 -0.1177  0.3485
 4644TIP3    H135423   4.524   1.214  16.843 -0.1568 -0.3959  2.5760
 4644TIP3    H235424   4.385   1.273  16.838 -0.3495 -0.9402  1.0840
 4645TIP3   OH235425   4.460   6.779   1.416  0.2849  0.1427  0.3069
 4645TIP3    H135426   4.427   6.813   1.333 -1.8832  1.7410  1.7310
 4645TIP3    H235427   4.553   6.803   1.417  0.5612 -0.5750 -1.9051
 4646TIP3   OH235428   2.942   3.001   5.053  0.1805  0.0124 -0.0537
 4646TIP3    H135429   2.952   3.011   4.958  2.4188 -1.5970 -0.0674
 4646TIP3    H235430   2.884   3.072   5.078  1.6532  2.1587 -2.2632
 4647TIP3   OH235431   4.677   1.261   0.217 -0.0255  0.1700 -0.0770
 4647TIP3    H135432   4.619   1.300   0.151 -0.8768 -0.9905 -0.0349
 4647TIP3    H235433   4.648   1.171   0.225  0.4083  0.1410  1.5272
 4648TIP3   OH235434   1.047   6.401   1.026 -0.0261 -0.4301 -0.0256
 4648TIP3    H135435   1.015   6.312   1.013 -1.0844 -0.5542  2.7636
 4648TIP3    H235436   0.968   6.455   1.029  0.3429  0.0999  1.3322
 4649TIP3   OH235437   4.707   0.167   4.950  0.0180  0.0896 -0.9152
 4649TIP3    H135438   4.642   0.145   4.884 -2.5681 -0.0564  1.4968
 4649TIP3    H235439   4.698   0.099   5.017  0.0383  2.0500  1.2066
 4650TIP3   OH235440   6.064   1.355   1.394  0.1406  0.2364  0.1122
 4650TIP3    H135441   6.159   1.353   1.388  0.2345  1.0271  1.0580
 4650TIP3    H235442   6.041   1.447   1.380 -0.6242 -0.1871 -1.7082
 4651TIP3   OH235443   6.052   6.463  13.889 -0.5142  0.3134 -0.1611
 4651TIP3    H135444   6.130   6.475  13.943  0.6967  0.5534 -1.8858
 4651TIP3    H235445   6.008   6.548  13.893 -1.8413 -0.3982  2.4319
 4652TIP3   OH235446   6.630   2.733  11.405  0.3368  0.3426  0.3085
 4652TIP3    H135447   6.551   2.771  11.366  1.2817  0.8846 -1.1481
 4652TIP3    H235448   6.665   2.805  11.459  1.5272  1.2347 -1.5762
 4653TIP3   OH235449   2.617   1.380   1.340  0.0964 -0.6300 -0.2449
 4653TIP3    H135450   2.522   1.367   1.341 -0.0529  0.1081  2.0817
 4653TIP3    H235451   2.630   1.464   1.385  1.8304 -0.3864 -1.1296
 4654TIP3   OH235452   6.007   5.763  16.522  0.5984 -0.1831 -0.2214
 4654TIP3    H135453   5.995   5.826  16.451  0.7685  0.2123  0.0951
 4654TIP3    H235454   6.060   5.810  16.587  1.7075 -1.0404 -0.4816
 4655TIP3   OH235455   5.703   4.581  14.496 -0.1139 -0.1458  0.1789
 4655TIP3    H135456   5.655   4.648  14.447 -0.1519 -2.5242 -3.4075
 4655TIP3    H235457   5.670   4.589  14.586 -2.3790  2.5063 -0.7346
 4656TIP3   OH235458   6.147   5.029   4.285  0.7177  0.4561  0.3203
 4656TIP3    H135459   6.166   5.086   4.359  0.8377  1.0936 -0.1962
 4656TIP3    H235460   6.220   4.967   4.283  0.4017  0.0475  1.1050
 4657TIP3   OH235461   5.956   3.950   3.895  0.3185 -0.1732  0.2775
 4657TIP3    H135462   6.047   3.977   3.886  0.0098  0.9761  0.4690
 4657TIP3    H235463   5.939   3.899   3.816  0.0256  2.9347 -1.8690
 4658TIP3   OH235464   0.740   4.397  15.740  0.6390 -0.4869  0.2945
 4658TIP3    H135465   0.833   4.407  15.761  0.7869  0.0766 -0.5919
 4658TIP3    H235466   0.725   4.457  15.668  0.0090 -1.9287 -0.8231
 4659TIP3   OH235467   3.937   6.305   0.727  0.5528  0.1785 -0.6993
 4659TIP3    H135468   3.995   6.292   0.651  1.3440 -2.3944  0.2542
 4659TIP3    H235469   3.877   6.231   0.724 -0.4829  0.9491  0.2897
 4660TIP3   OH235470   5.115   5.772   3.010 -0.4822 -0.8282  0.1197
 4660TIP3    H135471   5.068   5.746   2.931 -0.8102 -0.9176  0.3378
 4660TIP3    H235472   5.152   5.858   2.990  0.4016 -1.3531 -0.5233
 4661TIP3   OH235473   1.300   3.944  14.097  0.1083 -0.6502 -0.4808
 4661TIP3    H135474   1.307   4.018  14.158 -0.9725 -1.2241  0.3971
 4661TIP3    H235475   1.380   3.894  14.110 -0.8245 -1.7354  1.8860
 4662TIP3   OH235476   3.802   4.424   1.925 -0.2923 -0.6646  0.0181
 4662TIP3    H135477   3.790   4.518   1.917 -0.6292 -0.8513 -2.4231
 4662TIP3    H235478   3.800   4.407   2.019 -0.3629  1.7246  0.5000
 4663TIP3   OH235479   4.302   1.998  11.893 -0.0538  0.3135 -0.2120
 4663TIP3    H135480   4.259   1.913  11.894  0.2282  0.1596  1.7075
 4663TIP3    H235481   4.256   2.049  11.959  2.0984  0.4432  1.2843
 4664TIP3   OH235482   3.897   6.581  13.910 -0.5078 -0.1112 -0.4022
 4664TIP3    H135483   3.824   6.520  13.903 -1.3333  0.7749  0.2554
 4664TIP3    H235484   3.904   6.600  14.003  0.1720  0.2769 -0.5257
 4665TIP3   OH235485   6.534   5.176   4.106  0.0141  0.1296  0.3573
 4665TIP3    H135486   6.514   5.212   4.020 -1.4032  2.2529  1.5003
 4665TIP3    H235487   6.451   5.176   4.152  0.6393 -1.4812  1.5839
 4666TIP3   OH235488   5.518   6.798   3.912 -0.6511 -0.7309  0.4113
 4666TIP3    H135489   5.480   6.884   3.894 -0.9451 -0.2515  3.0271
 4666TIP3    H235490   5.446   6.737   3.899 -0.7306 -0.4789 -0.3893
 4667TIP3   OH235491   4.219   3.912   2.760  0.1340 -0.2617  0.1720
 4667TIP3    H135492   4.173   3.842   2.806  0.2093 -1.0031 -0.8346
 4667TIP3    H235493   4.257   3.869   2.683  0.9951  0.6936  0.0342
 4668TIP3   OH235494   3.202   6.425   5.023 -1.2389 -0.0429 -0.8569
 4668TIP3    H135495   3.240   6.485   5.087 -1.3162 -0.1307 -0.7303
 4668TIP3    H235496   3.144   6.368   5.073 -1.6291  0.1637 -1.0642
 4669TIP3   OH235497   6.408   0.952   1.178 -0.0289 -0.0131 -0.0511
 4669TIP3    H135498   6.385   0.906   1.097  0.4544  1.3614 -1.0133
 4669TIP3    H235499   6.348   1.027   1.181  1.5821  1.3714 -0.5098
 4670TIP3   OH235500   3.698   2.885  11.260  0.4282 -0.0316 -0.7705
 4670TIP3    H135501   3.653   2.907  11.178  1.5669  0.9575 -1.1597
 4670TIP3    H235502   3.722   2.793  11.250  0.1183 -0.0551 -1.3482
 4671TIP3   OH235503   1.647   6.324  12.026  0.4222  0.4909  0.5471
 4671TIP3    H135504   1.718   6.322  12.091 -1.0030  0.4908  2.1814
 4671TIP3    H235505   1.574   6.281  12.070 -0.6832  0.7392 -0.9879
 4672TIP3   OH235506   4.216   3.636   2.335 -0.3190  0.4408  0.0826
 4672TIP3    H135507   4.202   3.720   2.292  1.3993  0.3500 -0.7537
 4672TIP3    H235508   4.188   3.571   2.270  0.6907  0.3411 -0.2747
 4673TIP3   OH235509   2.028   4.985   0.219  0.7544  0.1993 -0.1879
 4673TIP3    H135510   2.016   5.070   0.261  0.5414  0.2287 -0.3067
 4673TIP3    H235511   1.989   4.922   0.280  0.2711  0.2621 -0.4311
 4674TIP3   OH235512   1.724   0.544  13.858 -0.0744  0.1778  0.3030
 4674TIP3    H135513   1.685   0.588  13.932  1.7999  0.0163  1.4592
 4674TIP3    H235514   1.813   0.521  13.887  0.6856 -0.0235 -1.9183
 4675TIP3   OH235515   4.861   0.806  13.601 -0.2990  0.1654  0.1980
 4675TIP3    H135516   4.873   0.715  13.574 -0.4296  0.4650 -0.9043
 4675TIP3    H235517   4.894   0.808  13.691 -0.6512 -1.0500  0.3818
 4676TIP3   OH235518   1.557   4.847   3.167  0.5770 -0.3692 -0.5048
 4676TIP3    H135519   1.547   4.892   3.083  1.5019  0.3053 -0.2690
 4676TIP3    H235520   1.641   4.801   3.159  1.9488  1.7064  0.9099
 4677TIP3   OH235521   3.221   2.928  11.222  0.3000  0.0672 -0.1744
 4677TIP3    H135522   3.143   2.980  11.201  0.2075  0.0760  0.1681
 4677TIP3    H235523   3.280   2.941  11.148 -1.4659 -2.9371 -2.3199
 4678TIP3   OH235524   0.267   6.177   1.347  1.1780 -0.1433  0.3767
 4678TIP3    H135525   0.361   6.179   1.326  1.0499  0.3745 -0.1739
 4678TIP3    H235526   0.254   6.253   1.403  0.9789  0.1048 -0.0090
 4679TIP3   OH235527   1.979   1.085  13.262  0.0855  0.2087 -0.1418
 4679TIP3    H135528   2.033   1.142  13.207  1.3735  0.2272  1.0942
 4679TIP3    H235529   2.014   0.997  13.246 -0.6695 -0.0107 -0.6316
 4680TIP3   OH235530   5.883   1.558   5.348 -0.4732 -0.2591 -0.3566
 4680TIP3    H135531   5.794   1.540   5.378 -0.0904 -3.3634 -0.6917
 4680TIP3    H235532   5.929   1.587   5.427 -1.7647  1.5976 -0.2248
 4681TIP3   OH235533   4.624   3.180  15.926 -0.1747  0.1327  0.0569
 4681TIP3    H135534   4.653   3.120  15.857 -1.6789 -0.2822 -0.2442
 4681TIP3    H235535   4.594   3.122  15.996 -2.9656  0.4348 -0.7858
 4682TIP3   OH235536   0.306   0.991   2.499 -0.5830  0.2971 -0.0207
 4682TIP3    H135537   0.276   0.922   2.440  2.2393  0.0721 -1.3268
 4682TIP3    H235538   0.328   1.064   2.442  1.1928  0.4627  0.8145
 4683TIP3   OH235539   3.066   5.414  14.482  0.3525  0.0738  0.0625
 4683TIP3    H135540   3.016   5.478  14.532  0.3480  0.6547 -0.6613
 4683TIP3    H235541   3.045   5.434  14.390  1.0003 -0.4303 -0.2028
 4684TIP3   OH235542   0.361   5.272  16.378  0.4789  0.4656 -0.5439
 4684TIP3    H135543   0.332   5.351  16.333 -1.4225  0.5953  0.7598
 4684TIP3    H235544   0.285   5.215  16.377  0.8697 -0.1401  1.1001
 4685TIP3   OH235545   0.159   0.984  11.204  0.2919 -0.5904  0.0597
 4685TIP3    H135546   0.065   0.995  11.191  0.4077  0.5443  0.1182
 4685TIP3    H235547   0.186   0.923  11.134  0.1920  2.2046 -2.6179
 4686TIP3   OH235548   2.825   0.923   1.276  0.0780 -0.0682  0.4904
 4686TIP3    H135549   2.865   0.976   1.207  0.8926 -1.9266 -0.5405
 4686TIP3    H235550   2.730   0.934   1.262  0.1784  2.0575  1.1247
 4687TIP3   OH235551   1.232   1.077   5.492  0.6216 -0.2562 -0.5281
 4687TIP3    H135552   1.291   1.151   5.480  0.5613 -0.0070  0.6355
 4687TIP3    H235553   1.165   1.109   5.553  1.5313 -1.7670  1.3362
 4688TIP3   OH235554   5.163   2.411  15.400  0.1136 -0.2153 -0.0956
 4688TIP3    H135555   5.137   2.320  15.386 -0.5556 -0.1520  0.6895
 4688TIP3    H235556   5.173   2.418  15.495  1.7743  0.1051 -0.2636
 4689TIP3   OH235557   1.633   4.289   5.530 -0.4990 -0.0960 -0.1249
 4689TIP3    H135558   1.593   4.377   5.533 -1.2998 -0.4394 -0.4914
 4689TIP3    H235559   1.598   4.245   5.607 -0.7975 -0.3817 -0.4201
 4690TIP3   OH235560   1.225   0.500   5.829 -0.1157 -0.2527  0.0637
 4690TIP3    H135561   1.187   0.570   5.777  1.8856 -1.2791 -3.0575
 4690TIP3    H235562   1.151   0.457   5.871 -1.6611  1.7111 -0.5361
 4691TIP3   OH235563   2.137   2.876  14.446 -0.5205  0.1939 -0.3789
 4691TIP3    H135564   2.170   2.843  14.363  0.3305 -0.8511  0.3417
 4691TIP3    H235565   2.196   2.948  14.469  0.0012 -0.3194 -0.0934
 4692TIP3   OH235566   5.331   1.166  11.507  0.6565  0.0567  0.5820
 4692TIP3    H135567   5.300   1.103  11.572  0.1228  0.7617  1.0311
 4692TIP3    H235568   5.279   1.146  11.428 -0.4945  0.7776  1.1230
 4693TIP3   OH235569   3.168   0.590   1.962  0.7712  0.0103 -0.4505
 4693TIP3    H135570   3.116   0.639   1.898 -0.0516  0.5766  0.6061
 4693TIP3    H235571   3.241   0.647   1.984  0.4722  0.2675 -0.1122
 4694TIP3   OH235572   4.180   3.009   5.694 -0.2730 -0.1860  0.3391
 4694TIP3    H135573   4.124   3.085   5.680  0.4893  0.4205  0.4980
 4694TIP3    H235574   4.211   3.018   5.784  0.5331 -0.1872  0.0722
 4695TIP3   OH235575   3.195   1.577   0.080  0.8110 -0.6458 -0.4110
 4695TIP3    H135576   3.181   1.483   0.090  1.7379 -0.8880 -1.2378
 4695TIP3    H235577   3.119   1.607   0.029 -0.2234 -0.6597  1.0432
 4696TIP3   OH235578   1.458   5.974   2.301 -1.0053 -0.7872  0.1326
 4696TIP3    H135579   1.466   5.913   2.228 -0.1280 -0.3319 -0.1624
 4696TIP3    H235580   1.470   6.061   2.262 -0.1435 -0.5652  0.8539
 4697TIP3   OH235581   2.526   3.419  12.938  0.1104  0.3055 -0.2988
 4697TIP3    H135582   2.555   3.426  13.028  0.6918  1.8527 -0.5854
 4697TIP3    H235583   2.605   3.398  12.889 -0.3276 -1.2875 -0.3932
 4698TIP3   OH235584   2.180   3.442  11.768 -0.7707  0.4600 -0.0446
 4698TIP3    H135585   2.170   3.375  11.701 -0.3701 -0.2387  0.5856
 4698TIP3    H235586   2.131   3.517  11.735 -0.8132  0.0252 -0.9826
 4699TIP3   OH235587   3.658   3.080  14.631 -0.0227  0.4363 -0.7347
 4699TIP3    H135588   3.613   3.024  14.568  3.5974 -1.0072 -2.3063
 4699TIP3    H235589   3.673   3.024  14.707  2.6151 -0.5188 -1.8673
 4700TIP3   OH235590   6.669   3.840   4.455 -0.2342 -0.5739 -0.4061
 4700TIP3    H135591   6.661   3.807   4.365 -0.8303 -2.5603  0.3245
 4700TIP3    H235592   6.608   3.787   4.505  1.3345 -0.7040  1.4739
 4701TIP3   OH235593   2.129   3.661   5.744 -0.0826 -0.2141  0.3164
 4701TIP3    H135594   2.095   3.712   5.817 -0.6464 -0.8525  0.5034
 4701TIP3    H235595   2.093   3.704   5.666  0.0065  0.0861  0.4397
 4702TIP3   OH235596   3.048   0.950   3.370  0.2035 -0.3264 -0.4315
 4702TIP3    H135597   2.968   0.951   3.423  0.8752 -1.6110  0.7019
 4702TIP3    H235598   3.018   0.929   3.282 -0.7823  0.0384 -0.1983
 4703TIP3   OH235599   5.826   2.733   1.217 -0.0893  0.0998  0.5377
 4703TIP3    H135600   5.886   2.684   1.161 -0.8224  0.4683 -0.6156
 4703TIP3    H235601   5.881   2.769   1.287  1.2110  1.1801 -0.9802
 4704TIP3   OH235602   3.863   5.735  15.760 -0.3252 -0.1326 -0.9830
 4704TIP3    H135603   3.801   5.675  15.801  0.3693 -1.1086 -1.3176
 4704TIP3    H235604   3.926   5.756  15.829 -0.5373  0.1742 -0.8812
 4705TIP3   OH235605   0.648   3.318   2.121  0.2665 -0.2071 -0.8038
 4705TIP3    H135606   0.720   3.271   2.162 -0.6488 -1.3192 -0.4344
 4705TIP3    H235607   0.666   3.311   2.027  0.4034 -0.8673 -0.7320
 4706TIP3   OH235608   5.761   0.237  16.297  0.4382  0.0786  0.2314
 4706TIP3    H135609   5.726   0.191  16.221  0.9782 -0.8709  0.5445
 4706TIP3    H235610   5.691   0.232  16.363  0.7581 -0.9221  0.5067
 4707TIP3   OH235611   6.550   1.320   0.667 -0.5270 -0.0606  0.3169
 4707TIP3    H135612   6.558   1.311   0.572  0.4515 -0.6829  0.4459
 4707TIP3    H235613   6.639   1.338   0.696 -0.8188  0.0824  1.1248
 4708TIP3   OH235614   3.971   4.682   0.345 -0.4946 -0.0917 -0.6711
 4708TIP3    H135615   3.983   4.617   0.415  0.3206 -0.7389 -1.3933
 4708TIP3    H235616   3.881   4.711   0.355 -0.9034 -1.3860 -0.3526
 4709TIP3   OH235617   1.864   3.883   5.196  0.1404  0.0313  0.4418
 4709TIP3    H135618   1.880   3.865   5.104 -0.9337  0.6877  0.1118
 4709TIP3    H235619   1.869   3.979   5.202 -1.4448  0.1261  0.7170
 4710TIP3   OH235620   5.170   5.947   6.561 -0.2496 -0.2230  0.4585
 4710TIP3    H135621   5.136   5.873   6.510  0.4375  0.0987 -0.5055
 4710TIP3    H235622   5.093   5.981   6.608 -0.9880 -0.3292 -0.6282
 4711TIP3   OH235623   1.977   2.620   2.816 -0.5425 -0.2339 -0.2039
 4711TIP3    H135624   1.908   2.645   2.876 -0.9183  1.2028 -1.1778
 4711TIP3    H235625   1.935   2.559   2.755 -0.4981 -0.6706  0.1964
 4712TIP3   OH235626   1.682   3.396  15.945 -0.5256  0.0532  0.0141
 4712TIP3    H135627   1.728   3.433  16.020 -0.2764 -0.0208 -0.1012
 4712TIP3    H235628   1.600   3.445  15.941 -0.6818 -0.1742  0.5316
 4713TIP3   OH235629   4.331   1.199   3.760 -0.1354  0.3789  0.7083
 4713TIP3    H135630   4.392   1.142   3.807 -0.1256 -1.8186 -1.7221
 4713TIP3    H235631   4.358   1.192   3.668 -3.4423  0.0574 -0.3681
 4714TIP3   OH235632   0.119   1.634   2.612 -0.4762 -0.0003 -0.7559
 4714TIP3    H135633   0.149   1.581   2.538  0.0056  1.1557 -1.4165
 4714TIP3    H235634   0.180   1.707   2.615 -0.2486 -0.2255  1.0516
 4715TIP3   OH235635   3.196   2.740   5.450  0.4949 -0.3978  0.1835
 4715TIP3    H135636   3.263   2.807   5.443  1.2888 -0.9458  1.9293
 4715TIP3    H235637   3.129   2.779   5.506 -0.1961 -0.2132 -0.7522
 4716TIP3   OH235638   1.538   5.663   0.494  0.1339  0.3518  0.1492
 4716TIP3    H135639   1.461   5.708   0.528 -1.4624 -1.1758 -1.2030
 4716TIP3    H235640   1.553   5.591   0.555 -0.7711 -0.5060 -0.5983
 4717TIP3   OH235641   3.923   6.561  16.038  0.3944 -0.5532  0.1560
 4717TIP3    H135642   3.967   6.561  15.953  2.1887 -0.7524  1.0289
 4717TIP3    H235643   3.904   6.469  16.055 -1.0055 -0.4078 -0.5058
 4718TIP3   OH235644   0.190   4.641  13.581 -0.2093 -0.0879  0.7632
 4718TIP3    H135645   0.275   4.659  13.622 -0.9115  0.7821  1.9336
 4718TIP3    H235646   0.204   4.655  13.488  1.2259 -1.1878  0.7816
 4719TIP3   OH235647   6.797   2.816   3.334  0.3091 -0.3212 -0.2063
 4719TIP3    H135648   6.817   2.803   3.242  0.6159  0.2435 -0.2245
 4719TIP3    H235649   6.839   2.899   3.356  2.2722 -1.5772  1.0516
 4720TIP3   OH235650   5.099   2.204  13.660 -0.2261  0.0418  0.6396
 4720TIP3    H135651   5.007   2.189  13.682 -0.2891 -0.5638 -0.0151
 4720TIP3    H235652   5.102   2.200  13.564  0.5737 -0.4615  0.6771
 4721TIP3   OH235653   0.023   2.679  15.493  0.0296  0.3468 -0.5762
 4721TIP3    H135654   0.060   2.654  15.409 -0.1506  1.7225 -1.0989
 4721TIP3    H235655   0.093   2.661  15.556  0.4829  0.0949 -1.1394
 4722TIP3   OH235656   4.606   5.558  15.757  0.0424  0.0312 -0.3702
 4722TIP3    H135657   4.642   5.626  15.814 -0.8617 -0.1093  0.3955
 4722TIP3    H235658   4.604   5.479  15.811 -0.7454 -0.1227 -0.6027
 4723TIP3   OH235659   3.854   0.280  15.499  0.3204 -0.0813  0.2387
 4723TIP3    H135660   3.831   0.235  15.418 -0.3409  0.3202  0.1969
 4723TIP3    H235661   3.875   0.210  15.561 -0.2685 -0.4294  0.0512
 4724TIP3   OH235662   0.189   0.023  10.899 -0.0413 -0.3664 -0.1299
 4724TIP3    H135663   0.108  -0.025  10.880 -0.1060  0.2189 -1.4266
 4724TIP3    H235664   0.244  -0.040  10.946 -1.2584 -0.7500  0.8178
 4725TIP3   OH235665   2.241   4.391  13.602 -0.0491  0.3223  0.4018
 4725TIP3    H135666   2.211   4.301  13.615 -3.7015  1.1624 -1.0385
 4725TIP3    H235667   2.258   4.423  13.691  0.5739 -1.5368  0.9880
 4726TIP3   OH235668   2.811   2.923   6.216 -0.2521  0.4777  0.1042
 4726TIP3    H135669   2.808   3.014   6.245  1.0820  0.6647 -0.2776
 4726TIP3    H235670   2.888   2.887   6.260 -1.4202 -0.8217  1.1871
 4727TIP3   OH235671   6.326   2.799   2.211 -0.5813  0.4497  0.4189
 4727TIP3    H135672   6.422   2.792   2.206 -0.6919 -0.3178 -3.2543
 4727TIP3    H235673   6.309   2.821   2.303  3.0101 -0.5888  1.5118
 4728TIP3   OH235674   3.271   1.794  11.222  0.2939 -0.4691 -0.1194
 4728TIP3    H135675   3.205   1.771  11.287  0.3992 -0.4668 -0.0108
 4728TIP3    H235676   3.276   1.718  11.164  0.1569 -0.4469 -0.1596
 4729TIP3   OH235677   3.892   2.157  12.172 -0.2473 -0.4901  1.0657
 4729TIP3    H135678   3.984   2.138  12.155 -0.0508  0.5661  0.8526
 4729TIP3    H235679   3.893   2.228  12.237 -0.8992 -0.3714  0.9614
 4730TIP3   OH235680   3.728   4.699   5.731 -0.1538 -0.1728  0.2576
 4730TIP3    H135681   3.822   4.719   5.731 -0.0404 -0.6801  0.9682
 4730TIP3    H235682   3.719   4.626   5.792 -1.0999  0.2544  0.6481
 4731TIP3   OH235683   0.462   6.665   5.043 -0.3766  0.8384 -0.2111
 4731TIP3    H135684   0.487   6.573   5.039 -0.6363  0.7684 -0.2599
 4731TIP3    H235685   0.366   6.664   5.044 -0.3778  1.0990  0.0230
 4732TIP3   OH235686   3.238   6.592   5.274 -0.2686 -0.0951  0.3560
 4732TIP3    H135687   3.275   6.522   5.328 -0.9142 -0.5039  0.2899
 4732TIP3    H235688   3.166   6.627   5.327  0.6577  1.1990  0.8104
 4733TIP3   OH235689   2.099   1.090  16.882  0.2029  0.0147 -0.6475
 4733TIP3    H135690   2.026   1.090  16.819 -0.2695  0.2504 -0.1101
 4733TIP3    H235691   2.086   1.170  16.933  0.4187 -0.3222 -0.0623
 4734TIP3   OH235692   4.412   6.142   4.840 -0.1787  0.3455  0.1623
 4734TIP3    H135693   4.378   6.126   4.928 -0.6698  0.0870 -0.0759
 4734TIP3    H235694   4.365   6.081   4.784  0.1478  0.4945 -0.2802
 4735TIP3   OH235695   3.533   3.463  15.562  0.0974 -0.0562  0.0994
 4735TIP3    H135696   3.572   3.496  15.481 -1.7477 -1.6342 -1.5334
 4735TIP3    H235697   3.526   3.369  15.549 -0.4826 -0.3215  2.0080
 4736TIP3   OH235698   1.836   2.740  16.315 -0.8453  0.0727 -0.1938
 4736TIP3    H135699   1.753   2.773  16.347 -0.4059  0.5746  0.4572
 4736TIP3    H235700   1.860   2.670  16.376 -0.2934  0.6302  0.2385
 4737TIP3   OH235701   2.064   6.440   0.521 -0.1143 -0.0550  0.0165
 4737TIP3    H135702   1.999   6.471   0.584 -0.0845 -0.2769  0.1576
 4737TIP3    H235703   2.014   6.389   0.458 -0.0823 -0.2133  0.1168
 4738TIP3   OH235704   2.992   0.078  11.842 -0.3710 -0.2363  0.4403
 4738TIP3    H135705   2.993  -0.014  11.866 -0.5881 -0.6005 -0.8560
 4738TIP3    H235706   3.038   0.122  11.913  1.7791 -1.6258  0.0155
 4739TIP3   OH235707   4.880   5.766   1.692  0.1893  0.4235 -0.0626
 4739TIP3    H135708   4.874   5.807   1.606  0.1909  0.0907 -0.2219
 4739TIP3    H235709   4.968   5.729   1.695  0.1161  0.2530  0.0002
 4740TIP3   OH235710   1.971   0.378   0.804 -0.2363 -0.2661  0.0913
 4740TIP3    H135711   1.900   0.429   0.764  0.0807  0.6349  0.6505
 4740TIP3    H235712   2.035   0.367   0.734 -1.7010 -2.7485 -1.0255
 4741TIP3   OH235713   2.901   4.456   3.086 -0.2243 -0.6360 -0.0883
 4741TIP3    H135714   2.894   4.487   2.995 -0.4381 -0.2309  0.0640
 4741TIP3    H235715   2.881   4.363   3.081  0.6308 -0.8122 -0.5896
 4742TIP3   OH235716   3.459   5.081   1.778 -0.2531  0.2320  0.3124
 4742TIP3    H135717   3.484   5.167   1.746  0.2256  0.8593  2.2158
 4742TIP3    H235718   3.379   5.059   1.731 -0.4568  1.7797 -0.0986
 4743TIP3   OH235719   4.102   1.467   0.324  0.3196  0.5650  0.2933
 4743TIP3    H135720   4.168   1.527   0.290  1.0935  0.3407  1.3491
 4743TIP3    H235721   4.049   1.521   0.383  0.9403  0.2661  1.1479
 4744TIP3   OH235722   0.759   4.680   6.284 -0.5660 -0.0250 -0.7992
 4744TIP3    H135723   0.850   4.649   6.281 -0.4696 -0.1113  1.4143
 4744TIP3    H235724   0.707   4.600   6.276 -0.3473 -0.4468  1.2133
 4745TIP3   OH235725   1.869   3.534  11.071 -0.1809  1.0351 -0.6267
 4745TIP3    H135726   1.924   3.600  11.113  0.8600 -0.0605 -0.2093
 4745TIP3    H235727   1.781   3.550  11.107  0.3333  1.2775  0.5773
 4746TIP3   OH235728   5.999   0.090  14.050  0.5433  0.5903  0.5791
 4746TIP3    H135729   6.010   0.042  13.968 -0.4783  0.4811  0.4949
 4746TIP3    H235730   6.066   0.054  14.108  2.0455  1.4594 -0.5403
 4747TIP3   OH235731   1.516   6.022   4.099  0.2116  0.3079  0.2197
 4747TIP3    H135732   1.488   6.112   4.120 -0.3230  0.4546 -1.0042
 4747TIP3    H235733   1.527   6.022   4.004 -0.0734 -1.0023  0.1644
 4748TIP3   OH235734   4.725   6.372   4.980  0.1549 -0.5560  0.2660
 4748TIP3    H135735   4.644   6.363   5.030  0.1454 -0.2910  0.3018
 4748TIP3    H235736   4.755   6.282   4.967 -0.5994 -0.7146 -0.4983
 4749TIP3   OH235737   3.410   3.114   2.874 -0.2024 -0.1781 -0.3245
 4749TIP3    H135738   3.337   3.166   2.842 -1.2218 -1.4314 -0.1518
 4749TIP3    H235739   3.446   3.165   2.947  1.2460  2.0171 -2.4101
 4750TIP3   OH235740   0.412   5.843   4.789  0.2078  0.1032  0.0155
 4750TIP3    H135741   0.350   5.834   4.862 -2.2228 -1.3778 -2.0901
 4750TIP3    H235742   0.490   5.797   4.820 -1.6868 -2.9007  0.8040
 4751TIP3   OH235743   6.446   5.097  16.362  0.3577  0.0248  0.0352
 4751TIP3    H135744   6.357   5.069  16.340  0.6024 -1.4525  0.7751
 4751TIP3    H235745   6.435   5.185  16.400 -0.8698 -0.4161  0.7525
 4752TIP3   OH235746   3.666   2.008  10.642 -0.5068 -0.4956 -0.0985
 4752TIP3    H135747   3.703   2.051  10.719 -0.1304  0.5828 -0.8552
 4752TIP3    H235748   3.692   2.064  10.568  0.4610 -2.2838 -1.1982
 4753TIP3   OH235749   4.604   2.408  14.026 -0.3409 -0.1345  0.3409
 4753TIP3    H135750   4.530   2.382  13.972 -0.5203  0.5696  0.2272
 4753TIP3    H235751   4.680   2.396  13.970 -0.5631  0.9947 -0.2466
 4754TIP3   OH235752   3.232   4.857  12.688  0.4572  0.9530 -0.0055
 4754TIP3    H135753   3.288   4.783  12.664  0.0378  0.3023  0.9745
 4754TIP3    H235754   3.159   4.818  12.735  1.2231  2.1411  2.3358
 4755TIP3   OH235755   5.158   0.307   0.433  0.3441  0.5028  0.2330
 4755TIP3    H135756   5.109   0.232   0.398 -1.4682  2.1841 -1.0242
 4755TIP3    H235757   5.246   0.297   0.395  0.2496 -1.1363  0.3649
 4756TIP3   OH235758   0.603   1.904  15.201  0.0551  0.3435 -0.6533
 4756TIP3    H135759   0.660   1.913  15.124 -0.4379 -1.1588 -1.2186
 4756TIP3    H235760   0.569   1.992  15.215  3.1721  1.5693  0.2708
 4757TIP3   OH235761   2.009   6.142   1.813 -0.3588 -0.3201 -0.3396
 4757TIP3    H135762   1.915   6.130   1.797 -0.3115  1.0041 -1.8850
 4757TIP3    H235763   2.048   6.141   1.726  1.1329 -1.1847  0.3018
 4758TIP3   OH235764   1.795   6.490   1.184 -0.5345  0.8177  0.3088
 4758TIP3    H135765   1.772   6.506   1.093 -1.3248  1.6791  0.6342
 4758TIP3    H235766   1.723   6.529   1.234 -0.8280 -0.8930  1.2790
 4759TIP3   OH235767   6.091   0.505   0.899  0.3303  0.1797 -0.0385
 4759TIP3    H135768   6.170   0.450   0.895  1.0133  1.1067  0.3416
 4759TIP3    H235769   6.026   0.457   0.847 -0.0399 -2.4675  2.6318
 4760TIP3   OH235770   2.141   2.891   5.137  0.4843  0.1704 -0.1558
 4760TIP3    H135771   2.067   2.899   5.197  0.7209  0.1447  0.1409
 4760TIP3    H235772   2.106   2.844   5.061  0.1609  0.2914 -0.0810
 4761TIP3   OH235773   5.158   0.518   2.545 -0.1944 -0.3597 -0.2634
 4761TIP3    H135774   5.213   0.595   2.559  0.2112 -0.7801  0.4737
 4761TIP3    H235775   5.073   0.542   2.581  0.2448 -0.6569  1.0101
 4762TIP3   OH235776   1.269   1.623   3.923  0.0057 -0.3980  0.1263
 4762TIP3    H135777   1.186   1.600   3.881 -0.0501  1.1175 -0.6634
 4762TIP3    H235778   1.248   1.627   4.017 -0.3954 -1.6459  0.1107
 4763TIP3   OH235779   5.930   1.155  16.199 -0.0512  0.2295 -0.1814
 4763TIP3    H135780   5.846   1.186  16.166 -0.0042  1.2237  0.5864
 4763TIP3    H235781   5.910   1.072  16.242 -0.6384  0.4328 -0.0561
 4764TIP3   OH235782   6.644   2.546   1.180 -0.5077 -0.4185  0.1268
 4764TIP3    H135783   6.592   2.560   1.259 -1.4263  0.0795 -0.5368
 4764TIP3    H235784   6.586   2.496   1.122 -0.0925 -0.2231 -0.4696
 4765TIP3   OH235785   5.625   0.785  14.412  0.1463 -0.8507 -0.2463
 4765TIP3    H135786   5.703   0.743  14.447 -0.6332 -2.3401 -0.2180
 4765TIP3    H235787   5.570   0.713  14.381 -0.6357  0.2367 -1.5217
 4766TIP3   OH235788   3.508   6.206  14.212  0.4798  0.0691  0.4548
 4766TIP3    H135789   3.521   6.146  14.138 -1.3099  0.4342 -0.2120
 4766TIP3    H235790   3.499   6.292  14.172  0.0307  0.3520  1.1388
 4767TIP3   OH235791   0.254   1.148  14.222  0.1114  0.4929 -0.3597
 4767TIP3    H135792   0.290   1.197  14.295 -1.1483 -1.2269  1.5213
 4767TIP3    H235793   0.307   1.069  14.216  0.1652  0.5801 -1.2985
 4768TIP3   OH235794   1.114   3.202  13.164  0.1636  0.2569 -0.1243
 4768TIP3    H135795   1.132   3.238  13.251 -1.3955 -0.3899  0.5145
 4768TIP3    H235796   1.111   3.108  13.177 -3.3461  0.2410 -0.0982
 4769TIP3   OH235797   3.062   4.639   3.207  0.5486 -0.2860 -0.6080
 4769TIP3    H135798   2.992   4.578   3.186  0.6146 -0.3698 -0.5841
 4769TIP3    H235799   3.031   4.723   3.174 -0.0150 -0.1227  0.3244
 4770TIP3   OH235800   1.125   1.307   2.668 -0.6469  0.1553 -0.2518
 4770TIP3    H135801   1.145   1.353   2.587  1.3999  0.1871  0.2411
 4770TIP3    H235802   1.055   1.246   2.643 -2.2585  2.2581 -1.2958
 4771TIP3   OH235803   5.861   2.183  11.143  0.4408 -1.1349 -0.9425
 4771TIP3    H135804   5.943   2.231  11.133 -0.4925  1.1229  1.2778
 4771TIP3    H235805   5.887   2.095  11.170  2.1550 -0.2245  0.5523
 4772TIP3   OH235806   1.200   4.581   4.851 -0.3175 -0.7799 -0.5163
 4772TIP3    H135807   1.203   4.486   4.839  1.6320 -1.0451  1.4211
 4772TIP3    H235808   1.197   4.594   4.946 -1.3551  1.1257 -0.7505
 4773TIP3   OH235809   1.530   5.760  12.106  0.4126 -0.3802 -0.4905
 4773TIP3    H135810   1.462   5.695  12.087 -0.9545  1.0033 -0.5973
 4773TIP3    H235811   1.554   5.743  12.197 -1.3074  0.1095  0.0988
 4774TIP3   OH235812   4.642   0.928  15.211  0.2630  0.1395  0.1263
 4774TIP3    H135813   4.572   0.966  15.265 -0.0220 -1.0251  0.5874
 4774TIP3    H235814   4.662   0.997  15.147 -0.6558  0.8467  0.5744
 4775TIP3   OH235815   0.508   2.210  14.272  0.2527 -0.3983 -0.7176
 4775TIP3    H135816   0.598   2.230  14.297  0.1154 -0.3159 -0.2982
 4775TIP3    H235817   0.480   2.142  14.333 -0.5691  0.8200  0.3013
 4776TIP3   OH235818   4.010   0.429   2.994  0.2557 -0.0649  0.1160
 4776TIP3    H135819   4.082   0.374   3.027  0.3311 -0.3651 -0.5338
 4776TIP3    H235820   4.007   0.411   2.900 -0.5286  0.1109  0.0992
 4777TIP3   OH235821   3.729   0.654   0.037  0.1865 -0.3429  0.6403
 4777TIP3    H135822   3.655   0.598   0.014 -1.0444  1.2881  0.4723
 4777TIP3    H235823   3.805   0.596   0.029 -1.1558 -2.5414  2.4589
 4778TIP3   OH235824   3.746   0.478  15.957  0.0742  0.3556  0.2848
 4778TIP3    H135825   3.838   0.505  15.952 -0.3902  2.3102  1.1417
 4778TIP3    H235826   3.716   0.477  15.866  0.7727  0.2982  0.0464
 4779TIP3   OH235827   4.297   3.150   2.811 -0.1558  0.0738  0.0686
 4779TIP3    H135828   4.354   3.119   2.882 -0.6583 -2.3679 -0.4980
 4779TIP3    H235829   4.256   3.229   2.845  0.6040 -0.3118  1.9804
 4780TIP3   OH235830   0.225   1.813   5.108 -0.6596  0.3843 -0.3234
 4780TIP3    H135831   0.136   1.805   5.142 -0.3573  0.2686  0.4539
 4780TIP3    H235832   0.227   1.900   5.069 -0.9418  0.6311  0.1952
 4781TIP3   OH235833   0.908   5.181  13.847 -0.2484 -0.0630  0.5403
 4781TIP3    H135834   0.826   5.175  13.798 -0.1337 -1.6785  0.4893
 4781TIP3    H235835   0.965   5.234  13.791 -0.3423 -1.3184 -0.7985
 4782TIP3   OH235836   4.823   1.501   1.930  0.1782  0.1582 -0.0641
 4782TIP3    H135837   4.757   1.467   1.870 -0.8195  2.9844 -0.6983
 4782TIP3    H235838   4.877   1.560   1.877  2.6281 -1.2453  0.6835
 4783TIP3   OH235839   3.954   3.815   0.911 -0.0657  0.5950 -0.5670
 4783TIP3    H135840   3.992   3.877   0.850  0.8872 -0.7420 -1.3851
 4783TIP3    H235841   3.928   3.740   0.857 -0.6467  0.0264  0.4577
 4784TIP3   OH235842   2.755   1.355  13.906  0.1694 -0.9600 -0.7521
 4784TIP3    H135843   2.791   1.377  13.992 -1.9044 -0.2426 -0.0112
 4784TIP3    H235844   2.821   1.387  13.844 -0.0253  2.1934  0.4654
 4785TIP3   OH235845   3.067   1.670  11.381  0.5791  0.0249 -0.2331
 4785TIP3    H135846   3.001   1.622  11.432  0.2842  0.6346 -0.0364
 4785TIP3    H235847   3.073   1.755  11.423  1.2208  0.1100 -0.4863
 4786TIP3   OH235848   6.769   5.751  12.236  0.5389  0.0630 -0.2666
 4786TIP3    H135849   6.855   5.772  12.272  0.2044 -0.2010  0.7173
 4786TIP3    H235850   6.784   5.743  12.141  1.1528  2.2029 -0.4023
 4787TIP3   OH235851   0.748   5.129   2.166 -0.0087 -0.3544  0.1470
 4787TIP3    H135852   0.653   5.114   2.169 -0.1326  0.4600  0.8722
 4787TIP3    H235853   0.777   5.119   2.257  0.7315 -1.3181 -0.1816
 4788TIP3   OH235854   1.106   0.061   4.290 -0.0621 -0.2575  0.0906
 4788TIP3    H135855   1.033   0.045   4.230  0.6914 -1.3135 -0.5849
 4788TIP3    H235856   1.121   0.155   4.286 -0.7592 -0.1656 -0.5099
 4789TIP3   OH235857   5.852   4.471  11.213  0.0330  0.2563  0.3379
 4789TIP3    H135858   5.931   4.508  11.253  1.0858 -1.1858 -0.3314
 4789TIP3    H235859   5.870   4.474  11.119 -0.1151 -1.3259  0.2377
 4790TIP3   OH235860   0.983   5.318  11.446  0.3329  0.0222  0.5410
 4790TIP3    H135861   1.079   5.314  11.445  0.3204 -1.4404  1.9771
 4790TIP3    H235862   0.964   5.412  11.454  1.5657  0.5363 -1.5526
 4791TIP3   OH235863   5.378   2.876   5.044 -0.6045 -0.2524  0.0045
 4791TIP3    H135864   5.442   2.825   4.994 -0.0715 -2.7989  3.0302
 4791TIP3    H235865   5.427   2.951   5.077 -0.4482  0.3258 -1.4550
 4792TIP3   OH235866   3.753   3.633   6.060  0.5035  0.2893 -0.3180
 4792TIP3    H135867   3.707   3.702   6.109  2.8047  0.0507  2.4582
 4792TIP3    H235868   3.751   3.662   5.969 -0.0339  3.1923  0.5261
 4793TIP3   OH235869   5.653   3.367   0.100  0.3689 -0.4879 -0.1211
 4793TIP3    H135870   5.598   3.297   0.065  0.7541  0.0559 -1.9209
 4793TIP3    H235871   5.741   3.329   0.104  0.2341 -0.7181  0.8100
 4794TIP3   OH235872   2.921   2.964   4.355 -0.5677  0.6741  0.2761
 4794TIP3    H135873   2.949   2.885   4.310 -1.8768  0.5423 -0.3630
 4794TIP3    H235874   2.832   2.945   4.384 -1.3663  2.2872 -0.9239
 4795TIP3   OH235875   4.184   6.483  12.439  0.4447 -0.1245  0.3215
 4795TIP3    H135876   4.166   6.409  12.381  0.2831  0.6797 -0.6833
 4795TIP3    H235877   4.106   6.490  12.494  0.2820 -0.4339  0.1333
 4796TIP3   OH235878   0.551   6.323  14.663 -0.5044 -0.5667  0.2714
 4796TIP3    H135879   0.569   6.338  14.756 -0.8587 -0.2468  0.2918
 4796TIP3    H235880   0.610   6.251  14.638  0.4225  0.1121  0.4566
 4797TIP3   OH235881   3.512   6.232  14.616 -0.0560  0.1280 -0.3378
 4797TIP3    H135882   3.555   6.160  14.663 -0.3018 -0.6777 -1.3068
 4797TIP3    H235883   3.554   6.232  14.530 -0.6894  0.5570 -0.6492
 4798TIP3   OH235884   2.266   3.778  12.824 -0.1110 -0.5586 -0.0057
 4798TIP3    H135885   2.263   3.718  12.749 -2.0519 -0.2760 -0.1983
 4798TIP3    H235886   2.239   3.725  12.899 -0.5642 -0.2418  0.0558
 4799TIP3   OH235887   1.305   1.627   3.000  0.1040  0.5856  0.6634
 4799TIP3    H135888   1.291   1.647   2.908  2.3315  0.2121  0.1746
 4799TIP3    H235889   1.326   1.711   3.040 -3.4196  1.2440  1.5110
 4800TIP3   OH235890   4.951   4.227   3.146 -0.4799 -0.0092  0.0347
 4800TIP3    H135891   4.968   4.321   3.134  0.7140 -0.3602 -1.1975
 4800TIP3    H235892   4.858   4.217   3.126 -0.5567  0.8557 -0.1031
 4801TIP3   OH235893   6.095   2.818   0.905 -0.1794  0.3205  0.2281
 4801TIP3    H135894   6.182   2.823   0.865  0.7772 -1.5202  1.9091
 4801TIP3    H235895   6.080   2.905   0.943  0.2477  1.1041 -1.3262
 4802TIP3   OH235896   1.384   4.761  15.749  0.0287  0.3756 -0.5142
 4802TIP3    H135897   1.319   4.736  15.814 -0.1594 -0.2079 -0.9146
 4802TIP3    H235898   1.333   4.790  15.673  0.2276  0.1240 -0.7499
 4803TIP3   OH235899   6.223   1.924   6.139 -0.4476 -0.2590  0.3272
 4803TIP3    H135900   6.160   1.970   6.195 -1.4201 -2.2887  1.0044
 4803TIP3    H235901   6.201   1.832   6.150  0.4297 -0.8208 -2.1343
 4804TIP3   OH235902   0.545   2.333   2.919 -0.0505  0.3292  0.0332
 4804TIP3    H135903   0.543   2.345   3.014  0.8607 -0.6723  0.2054
 4804TIP3    H235904   0.638   2.337   2.897  0.1713 -3.0604 -0.2534
 4805TIP3   OH235905   3.242   4.512  14.590  0.1317  0.1142  0.4688
 4805TIP3    H135906   3.199   4.597  14.594 -1.7632 -0.7013 -1.2746
 4805TIP3    H235907   3.187   4.454  14.643  0.0745 -0.5496 -0.3042
 4806TIP3   OH235908   4.135   1.655   3.367  0.0285  0.0955  0.5447
 4806TIP3    H135909   4.084   1.731   3.396  0.6039  1.4172 -1.6682
 4806TIP3    H235910   4.219   1.664   3.412  0.0814  0.7727  0.3235
 4807TIP3   OH235911   3.133   3.707   1.373  0.1511  0.1888  0.0746
 4807TIP3    H135912   3.194   3.737   1.305  0.1510 -1.5265 -0.7288
 4807TIP3    H235913   3.172   3.626   1.406  0.0339  0.8657  2.0053
 4808TIP3   OH235914   4.888   5.306  13.860 -0.2153  0.2997  0.3945
 4808TIP3    H135915   4.847   5.299  13.773  0.8191  0.1335 -0.0957
 4808TIP3    H235916   4.873   5.397  13.886 -2.3371 -0.1588  0.9911
 4809TIP3   OH235917   1.807   4.745  12.023  0.7952 -0.0728 -0.1920
 4809TIP3    H135918   1.882   4.730  12.081  0.1089 -0.5769  0.5730
 4809TIP3    H235919   1.824   4.832  11.985  1.1878  0.3344  0.8674
 4810TIP3   OH235920   3.087   6.534  15.034  0.4941  0.1011 -0.4532
 4810TIP3    H135921   3.049   6.576  15.111 -0.6003 -2.5009  0.5426
 4810TIP3    H235922   3.012   6.515  14.978  0.6592 -1.9830 -0.0554
 4811TIP3   OH235923   4.540   5.712  15.123 -0.2331  0.4117  0.2195
 4811TIP3    H135924   4.624   5.752  15.144  0.9655 -0.5943 -2.2570
 4811TIP3    H235925   4.544   5.696  15.028 -2.3040 -1.7035  0.3922
 4812TIP3   OH235926   2.902   6.169  13.866 -0.2181  0.5573 -0.2755
 4812TIP3    H135927   2.855   6.250  13.845  2.2190  2.2501  0.2973
 4812TIP3    H235928   2.900   6.164  13.961  1.8485  1.4963 -0.1110
 4813TIP3   OH235929   4.638   5.252   2.923 -0.6818  0.2055 -0.0907
 4813TIP3    H135930   4.588   5.294   2.993 -2.9222 -1.5568 -0.5350
 4813TIP3    H235931   4.647   5.161   2.950  0.9082  0.0900 -0.8314
 4814TIP3   OH235932   1.378   6.413  12.880  0.0307  0.5307 -0.0729
 4814TIP3    H135933   1.303   6.472  12.881 -0.0586  0.4475 -1.3450
 4814TIP3    H235934   1.453   6.469  12.902 -0.1840  0.9170 -0.3322
 4815TIP3   OH235935   6.423   3.666  16.659  0.3302  0.0831  0.1360
 4815TIP3    H135936   6.463   3.698  16.578 -0.9972 -0.3360 -0.7243
 4815TIP3    H235937   6.336   3.706  16.659  0.0407 -0.5251  0.9728
 4816TIP3   OH235938   1.120   3.453  10.618  0.2473 -0.0907 -0.0986
 4816TIP3    H135939   1.166   3.473  10.700 -0.2443 -0.1009  0.1825
 4816TIP3    H235940   1.040   3.409  10.645 -0.1442  0.3294 -0.5643
 4817TIP3   OH235941   5.306   0.194  16.921 -0.0497  0.1946 -0.1147
 4817TIP3    H135942   5.295   0.267  16.861 -2.3133  1.1227  1.3002
 4817TIP3    H235943   5.226   0.143  16.913  0.0492 -0.2454  1.3105
 4818TIP3   OH235944   5.223   5.359   2.009 -0.3626  0.7330 -0.1343
 4818TIP3    H135945   5.156   5.315   2.060 -2.0345  0.7760 -2.1675
 4818TIP3    H235946   5.228   5.447   2.046  0.5950 -0.0603  1.7749
 4819TIP3   OH235947   1.663   0.994  16.597 -0.5708  0.5085 -0.2425
 4819TIP3    H135948   1.628   1.016  16.511 -0.4192  2.9747  0.2720
 4819TIP3    H235949   1.611   1.046  16.658  0.5267  0.1792  1.0114
 4820TIP3   OH235950   0.962   5.241  17.096 -0.2431 -0.4131 -0.5949
 4820TIP3    H135951   0.975   5.335  17.084 -1.4674 -0.3013 -1.2438
 4820TIP3    H235952   0.921   5.212  17.014 -1.4579 -1.1801  0.2550
 4821TIP3   OH235953   3.473   4.857  10.629 -0.1100 -0.6408 -0.2647
 4821TIP3    H135954   3.491   4.943  10.592  1.6615 -0.8951 -0.0820
 4821TIP3    H235955   3.395   4.827  10.582  1.0864 -0.2767 -2.6768
 4822TIP3   OH235956   3.260   4.221  15.234 -0.3289 -0.3264 -0.0889
 4822TIP3    H135957   3.254   4.139  15.282 -1.4229  0.1418  0.6147
 4822TIP3    H235958   3.176   4.230  15.190  0.0288  0.0922 -0.7052
 4823TIP3   OH235959   6.017   5.620  11.987  0.2179  0.3081 -0.0360
 4823TIP3    H135960   5.965   5.571  12.052 -2.0376  0.5411 -1.5341
 4823TIP3    H235961   6.010   5.569  11.907  0.8273  1.2653 -0.7227
 4824TIP3   OH235962   4.579   0.168  11.639  0.1535 -0.2763  0.2876
 4824TIP3    H135963   4.642   0.108  11.600 -0.1987  0.4139 -1.4461
 4824TIP3    H235964   4.494   0.128  11.622  0.0298 -0.6307  1.5994
 4825TIP3   OH235965   5.020   6.342  16.285  0.0249  0.1476  0.0319
 4825TIP3    H135966   4.947   6.295  16.244  0.6034  0.5849 -1.5574
 4825TIP3    H235967   5.068   6.274  16.333 -1.1026 -0.2336  0.6687
 4826TIP3   OH235968   4.603   0.715  17.041 -0.4157  0.3675  0.0714
 4826TIP3    H135969   4.524   0.751  17.081 -1.1923  0.3887 -1.3994
 4826TIP3    H235970   4.588   0.724  16.947  1.3610  0.3935 -0.2464
 4827TIP3   OH235971   4.315   5.637  13.555 -0.3942 -0.5674 -0.8021
 4827TIP3    H135972   4.378   5.659  13.486 -0.2037  0.4480 -0.3164
 4827TIP3    H235973   4.234   5.678  13.528 -0.0008  0.9462  0.1776
 4828TIP3   OH235974   2.595   3.315  15.479 -0.2509  0.3366  0.0091
 4828TIP3    H135975   2.579   3.370  15.556  0.4341  0.0718  0.3487
 4828TIP3    H235976   2.663   3.253  15.508  2.8934  2.6142 -1.8577
 4829TIP3   OH235977   0.525   2.831  10.797  0.7405  0.1388  0.2111
 4829TIP3    H135978   0.543   2.761  10.734  2.2921 -0.8817  1.6860
 4829TIP3    H235979   0.599   2.891  10.787 -0.2199  1.2445 -0.5431
 4830TIP3   OH235980   1.155   1.167  12.796  0.1875 -0.2392  0.3116
 4830TIP3    H135981   1.104   1.090  12.820 -0.0620 -0.0502  0.3919
 4830TIP3    H235982   1.109   1.240  12.836 -0.7563  0.1977 -1.4797
 4831TIP3   OH235983   4.951   5.639   5.372 -0.2224  0.2507  0.0313
 4831TIP3    H135984   4.915   5.558   5.410 -1.5736  0.4871 -0.6660
 4831TIP3    H235985   4.998   5.681   5.445 -2.3670  0.4932  1.3697
 4832TIP3   OH235986   4.266   3.790   0.983 -0.3528  0.2536  0.5703
 4832TIP3    H135987   4.250   3.861   0.920 -1.5590  0.2783  0.8811
 4832TIP3    H235988   4.253   3.710   0.933  0.2295  0.2519  0.4143
 4833TIP3   OH235989   1.473   5.394  15.463 -0.4189  0.7938 -0.2668
 4833TIP3    H135990   1.535   5.334  15.421  2.1468  2.2293  1.2327
 4833TIP3    H235991   1.456   5.355  15.548 -2.5310 -0.1436 -1.0724
 4834TIP3   OH235992   0.486   0.905  13.482  0.3677  0.0549 -0.9852
 4834TIP3    H135993   0.560   0.862  13.438 -0.4898 -2.3270 -0.2771
 4834TIP3    H235994   0.508   0.998  13.482  3.3506 -0.5697 -0.7937
 4835TIP3   OH235995   5.611   4.868  14.126  0.0794  0.5198 -0.3312
 4835TIP3    H135996   5.636   4.875  14.218 -1.8366  2.1834  0.1474
 4835TIP3    H235997   5.602   4.774  14.110 -0.4330  0.2262  1.4649
 4836TIP3   OH235998   5.098   1.698  11.663 -0.0611 -0.3928 -0.2561
 4836TIP3    H135999   5.056   1.734  11.585  0.9720 -0.4255 -0.8318
 4836TIP3    H236000   5.181   1.663  11.633 -0.0099 -1.1718  0.7169
 4837TIP3   OH236001   4.814   1.303   4.696  0.3353 -0.3733  0.9849
 4837TIP3    H136002   4.886   1.304   4.633 -2.0504 -1.1710 -1.9724
 4837TIP3    H236003   4.777   1.391   4.692  0.1478 -0.4368  1.2776
 4838TIP3   OH236004   2.840   1.208   0.151 -0.1162 -0.6549 -0.5583
 4838TIP3    H136005   2.914   1.252   0.192 -0.4163 -1.1762  0.5819
 4838TIP3    H236006   2.872   1.122   0.128 -0.4286 -0.9874  0.2051
 4839TIP3   OH236007   4.300   4.979   3.953  0.7251 -0.2764  0.2082
 4839TIP3    H136008   4.383   4.971   3.999  0.4607 -0.8328  0.6063
 4839TIP3    H236009   4.278   4.889   3.927  0.0697 -0.1947  0.4398
 4840TIP3   OH236010   3.039   6.132   5.753 -0.2919 -0.1041  0.0592
 4840TIP3    H136011   2.970   6.078   5.715 -0.3405 -0.2227  0.3123
 4840TIP3    H236012   3.117   6.112   5.701 -0.2291 -0.6777  0.3719
 4841TIP3   OH236013   2.602   3.901  13.501 -0.0638  0.1729 -0.1297
 4841TIP3    H136014   2.682   3.944  13.472  0.4991 -1.7966 -1.6924
 4841TIP3    H236015   2.629   3.852  13.579  0.3235 -0.7056 -0.8134
 4842TIP3   OH236016   0.908   6.344  15.512  0.1510 -0.3715  0.6510
 4842TIP3    H136017   0.938   6.281  15.577  0.5645  0.5546  1.3737
 4842TIP3    H236018   0.851   6.404  15.560 -0.9550 -0.6913 -0.2137
 4843TIP3   OH236019   2.662   1.516  11.195  0.3678  0.2062  0.0633
 4843TIP3    H136020   2.692   1.607  11.200  0.1736  0.2814 -0.1221
 4843TIP3    H236021   2.638   1.504  11.103 -0.4481  0.2351  0.2681
 4844TIP3   OH236022   1.936   3.380  13.003  0.8312 -0.0922  0.2424
 4844TIP3    H136023   2.024   3.407  13.029  0.9248 -0.5272  0.3876
 4844TIP3    H236024   1.880   3.403  13.077  0.6435  1.1211 -0.2554
 4845TIP3   OH236025   3.861   2.936  14.374 -0.0702 -0.4782  0.1847
 4845TIP3    H136026   3.808   2.918  14.452  0.1179 -0.1761  0.3869
 4845TIP3    H236027   3.927   2.999  14.404 -0.7439  0.5914 -0.5115
 4846TIP3   OH236028   1.054   5.583   5.583 -0.2496 -0.4847 -0.2512
 4846TIP3    H136029   1.058   5.491   5.557 -1.4873 -0.3029 -1.1935
 4846TIP3    H236030   0.972   5.591   5.632  0.3197 -0.0678  0.6469
 4847TIP3   OH236031   0.652   5.688  11.294  0.5931  0.7326  0.0452
 4847TIP3    H136032   0.652   5.625  11.223  0.5562 -0.4293  1.0513
 4847TIP3    H236033   0.682   5.770  11.254 -0.8799  0.5084 -1.6300
 4848TIP3   OH236034   1.268   3.108   6.010 -0.1784  0.3139 -0.5920
 4848TIP3    H136035   1.343   3.163   5.988  0.9271 -1.1114 -0.5187
 4848TIP3    H236036   1.209   3.116   5.934  0.5453  0.6203 -1.1287
 4849TIP3   OH236037   0.049   4.394  15.116 -0.1622  0.1280  0.6045
 4849TIP3    H136038   0.008   4.322  15.069 -0.5131 -0.3484  1.6272
 4849TIP3    H236039   0.125   4.418  15.062 -1.4735  0.7077 -1.0576
 4850TIP3   OH236040   0.978   3.948  11.674 -0.0860  0.4751 -0.2514
 4850TIP3    H136041   0.952   3.856  11.671  0.0180  0.4311  0.2259
 4850TIP3    H236042   1.074   3.946  11.669 -0.1315  0.6466 -2.3304
 4851TIP3   OH236043   2.158   1.352   0.033  0.0264 -0.1218  0.0081
 4851TIP3    H136044   2.083   1.401   0.067  0.6769 -0.4595  2.0765
 4851TIP3    H236045   2.157   1.270   0.082  1.2097 -0.5259 -0.6161
 4852TIP3   OH236046   2.946   4.503   2.518  0.1995  0.1887  0.4427
 4852TIP3    H136047   3.018   4.477   2.462  1.1863  1.2142  1.1764
 4852TIP3    H236048   2.871   4.452   2.488  1.1840 -0.7498 -0.4619
 4853TIP3   OH236049   6.333   5.797  11.181 -0.0611 -0.5159 -0.3442
 4853TIP3    H136050   6.361   5.889  11.183 -1.0318 -0.2153  0.0702
 4853TIP3    H236051   6.376   5.761  11.104  2.5573 -0.4724  1.0011
 4854TIP3   OH236052   6.313   4.513   2.671 -0.3233 -0.0224 -0.0310
 4854TIP3    H136053   6.253   4.529   2.599  0.6668  0.0224 -0.8605
 4854TIP3    H236054   6.396   4.553   2.644  0.0446  0.0744  1.1641
 4855TIP3   OH236055   1.685   5.849  12.909 -0.0188 -0.0131  0.1689
 4855TIP3    H136056   1.726   5.899  12.980 -0.5945 -1.9302  1.9528
 4855TIP3    H236057   1.594   5.837  12.937  0.0081 -1.7322 -0.3409
 4856TIP3   OH236058   6.431   3.004  16.715  0.1045  0.2169 -0.0307
 4856TIP3    H136059   6.354   3.009  16.772 -0.0072 -1.0251 -0.0387
 4856TIP3    H236060   6.456   3.095  16.700 -0.6340  0.6011  0.9617
 4857TIP3   OH236061   2.378   0.494  11.408  0.1770  0.5911  0.0736
 4857TIP3    H136062   2.445   0.427  11.422 -0.3702 -0.3885 -1.6802
 4857TIP3    H236063   2.339   0.506  11.495  1.3290 -0.2019  0.7432
 4858TIP3   OH236064   5.227   5.988   2.323  0.0042  0.0155 -0.0526
 4858TIP3    H136065   5.276   5.914   2.288  0.6014  0.7580 -0.8176
 4858TIP3    H236066   5.138   5.955   2.334  0.3745 -0.9632  0.1224
 4859TIP3   OH236067   5.757   1.579  13.091  0.8714 -0.2814 -0.4200
 4859TIP3    H136068   5.776   1.512  13.156 -1.8538  0.2190  1.0565
 4859TIP3    H236069   5.733   1.656  13.143 -4.2624 -0.6535 -1.7247
 4860TIP3   OH236070   1.929   5.721  16.863 -0.1700  0.2470  0.1828
 4860TIP3    H136071   1.994   5.787  16.841  0.1676 -0.0028  0.4120
 4860TIP3    H236072   1.965   5.640  16.828 -0.5172  0.1632  0.0179
 4861TIP3   OH236073   1.986   4.650   0.018 -0.1686 -0.4817 -0.3473
 4861TIP3    H136074   2.038   4.624   0.094  0.5982 -0.9883 -1.0256
 4861TIP3    H236075   1.921   4.581   0.008  0.9559 -1.4539 -1.2839
 4862TIP3   OH236076   4.345   0.409   1.106 -0.2678  0.6961  0.3417
 4862TIP3    H136077   4.390   0.426   1.023  0.5465  2.8571  1.1566
 4862TIP3    H236078   4.329   0.315   1.105  1.1503  0.4012 -1.5458
 4863TIP3   OH236079   3.653   5.059   3.325 -0.1752 -0.1357 -0.1387
 4863TIP3    H136080   3.635   4.984   3.381 -0.0722  0.1045  0.2223
 4863TIP3    H236081   3.643   5.135   3.383 -1.0259  0.1775 -0.6771
 4864TIP3   OH236082   6.628   3.454   2.809  0.2527  0.2468  0.2113
 4864TIP3    H136083   6.560   3.392   2.836 -0.2334  0.9977  0.7569
 4864TIP3    H236084   6.599   3.538   2.845  1.7636  0.4748  0.9422
 4865TIP3   OH236085   6.545   4.686   4.128 -0.2065  0.0501 -0.0823
 4865TIP3    H136086   6.587   4.646   4.051 -1.6634 -0.9284 -0.4180
 4865TIP3    H236087   6.590   4.770   4.139  1.3488 -0.6374 -0.8128
 4866TIP3   OH236088   0.127   3.737   3.374  0.6225  0.0319  0.2131
 4866TIP3    H136089   0.098   3.679   3.303  0.1988  0.3117  0.1521
 4866TIP3    H236090   0.222   3.732   3.371  0.6937  1.3367 -1.4976
 4867TIP3   OH236091   0.375   4.547  10.952 -0.6240  0.3955  0.1069
 4867TIP3    H136092   0.416   4.503  11.027  0.2830 -0.8554 -1.0704
 4867TIP3    H236093   0.362   4.478  10.887 -2.3450  1.2522 -0.5301
 4868TIP3   OH236094   1.292   5.660  16.027  0.7132 -0.2142 -0.2657
 4868TIP3    H136095   1.236   5.731  15.994 -1.0659 -1.6759 -0.5259
 4868TIP3    H236096   1.381   5.697  16.025 -0.0603  1.7332 -1.1111
 4869TIP3   OH236097   1.607   2.626  11.357  0.2506  0.3106 -0.0629
 4869TIP3    H136098   1.595   2.650  11.265 -0.1144 -0.5912 -0.2674
 4869TIP3    H236099   1.701   2.613  11.367  0.1054 -1.7616 -0.9078
 4870TIP3   OH236100   1.241   5.048  12.178 -0.1970  0.2594  0.4039
 4870TIP3    H136101   1.183   5.044  12.101 -1.0991  1.3302  0.9976
 4870TIP3    H236102   1.182   5.037  12.253  0.1908  2.3084  1.0636
 4871TIP3   OH236103   6.278   4.947   0.289 -0.4611  0.0383 -0.0314
 4871TIP3    H136104   6.307   4.857   0.273 -1.2062  0.0244 -1.4971
 4871TIP3    H236105   6.187   4.939   0.317 -0.8434  0.3653 -1.1261
 4872TIP3   OH236106   6.729   0.889   5.805 -0.0080 -0.1707 -0.1228
 4872TIP3    H136107   6.686   0.878   5.720 -0.4075  0.7013 -0.0348
 4872TIP3    H236108   6.789   0.814   5.811  1.7790  0.9900 -2.2061
 4873TIP3   OH236109   0.814   4.988   1.478 -0.5265  0.0421 -0.1555
 4873TIP3    H136110   0.854   5.069   1.447 -0.7083 -0.5622 -2.1444
 4873TIP3    H236111   0.739   5.016   1.530 -0.6490  1.1523 -0.8944
 4874TIP3   OH236112   1.785   3.030  16.787 -0.3487  0.0340 -0.3525
 4874TIP3    H136113   1.757   2.957  16.843 -1.3619  0.9939  0.4314
 4874TIP3    H236114   1.711   3.091  16.788  0.5265  1.1418 -0.8795
 4875TIP3   OH236115   0.346   6.031  12.838 -0.3906 -0.2105  0.7448
 4875TIP3    H136116   0.324   6.124  12.836 -1.7826 -0.4762 -1.8428
 4875TIP3    H236117   0.261   5.987  12.826  0.4746 -1.7217 -0.1004
 4876TIP3   OH236118   4.139   6.346   1.208  0.0539 -0.2976  0.1283
 4876TIP3    H136119   4.228   6.314   1.195  0.8347  1.0268  1.7684
 4876TIP3    H236120   4.093   6.274   1.251  1.0341 -0.1744  1.4277
 4877TIP3   OH236121   2.693   3.893   4.768  0.3521 -0.3405  0.3571
 4877TIP3    H136122   2.688   3.985   4.794 -0.7532 -0.7225  1.5931
 4877TIP3    H236123   2.656   3.845   4.842 -0.4430 -1.6883 -0.8708
 4878TIP3   OH236124   3.140   2.206  13.914 -0.1267 -0.1698 -0.1719
 4878TIP3    H136125   3.224   2.190  13.957 -0.2516 -0.6821 -0.1062
 4878TIP3    H236126   3.161   2.265  13.842  0.8333 -2.4935 -1.9597
 4879TIP3   OH236127   4.641   1.616  15.177  0.8581  0.2302  0.0584
 4879TIP3    H136128   4.591   1.659  15.246 -1.8484  0.2019 -1.7296
 4879TIP3    H236129   4.693   1.550  15.222 -1.4227 -0.3716  2.0166
 4880TIP3   OH236130   4.081   6.788  15.015 -0.3051 -0.3580  0.1061
 4880TIP3    H136131   4.016   6.838  14.966 -0.6084 -1.7925 -1.0225
 4880TIP3    H236132   4.030   6.727  15.067  0.1149 -0.8582 -0.0660
 4881TIP3   OH236133   0.114   3.280  13.984 -0.2740  0.3870 -0.1184
 4881TIP3    H136134   0.039   3.242  14.029 -0.3372 -2.2076 -2.1705
 4881TIP3    H236135   0.078   3.318  13.905  0.3762  0.7405 -0.2501
 4882TIP3   OH236136   1.547   0.639   0.433  0.8800  0.3822 -0.0231
 4882TIP3    H136137   1.623   0.618   0.488  1.1459 -0.4864 -0.7043
 4882TIP3    H236138   1.507   0.554   0.414 -0.4313  0.8455  0.5478
 4883TIP3   OH236139   6.521   5.370  12.249 -0.6889 -0.1792  0.3223
 4883TIP3    H136140   6.529   5.371  12.153  0.4528  1.3244  0.3892
 4883TIP3    H236141   6.609   5.350  12.280 -0.5798  1.2396  1.0453
 4884TIP3   OH236142   2.625   3.932   5.160  0.1304 -0.3925 -0.0179
 4884TIP3    H136143   2.685   3.960   5.230 -0.9470 -2.1736  1.7233
 4884TIP3    H236144   2.549   3.991   5.170 -0.9708 -2.0003  1.8651
 4885TIP3   OH236145   4.891   4.611  13.257 -0.0345 -0.7582  0.8634
 4885TIP3    H136146   4.839   4.533  13.273 -1.2669 -0.0417  0.5041
 4885TIP3    H236147   4.871   4.635  13.166  1.0803 -0.5638  0.6487
 4886TIP3   OH236148   0.083   0.082   2.252 -0.4383 -0.5102 -0.3094
 4886TIP3    H136149   0.150   0.048   2.312  0.1358  0.1010 -0.5902
 4886TIP3    H236150   0.070   0.012   2.188  2.1138  0.4264 -2.0057
 4887TIP3   OH236151   6.422   4.898  13.392  0.0191 -0.1090 -0.0648
 4887TIP3    H136152   6.436   4.964  13.459 -2.5695 -0.6623  1.1505
 4887TIP3    H236153   6.387   4.946  13.317 -1.6975 -0.0023  0.7560
 4888TIP3   OH236154   5.686   1.095   2.396  0.0101  0.1554 -0.4852
 4888TIP3    H136155   5.686   1.101   2.491 -1.2754  0.3165 -0.4747
 4888TIP3    H236156   5.769   1.052   2.374 -0.3570 -1.2855  0.8008
 4889TIP3   OH236157   0.562   2.970  15.110  0.4910  0.2010  0.0248
 4889TIP3    H136158   0.580   3.061  15.137 -0.1211 -0.0574  1.3873
 4889TIP3    H236159   0.648   2.928  15.113  0.8647  0.8469 -1.1188
 4890TIP3   OH236160   5.826   4.987   3.004  0.4964  0.1221  0.4382
 4890TIP3    H136161   5.865   5.011   3.088 -0.1944 -0.0460  0.8199
 4890TIP3    H236162   5.825   5.068   2.954 -1.0788  0.7628  1.4106
 4891TIP3   OH236163   5.269   0.205  11.916  0.3561 -0.1972 -0.1850
 4891TIP3    H136164   5.279   0.300  11.926 -1.5475  0.0815 -0.5324
 4891TIP3    H236165   5.345   0.179  11.864  0.0264  1.4308 -1.6003
 4892TIP3   OH236166   5.734   5.460   3.789 -0.0801  0.2855 -0.5208
 4892TIP3    H136167   5.743   5.373   3.828  1.7801  1.1932  1.2372
 4892TIP3    H236168   5.808   5.468   3.730 -0.4603  0.5521 -0.9693
 4893TIP3   OH236169   2.016   5.011  16.295 -0.2061 -0.2700 -0.6878
 4893TIP3    H136170   1.937   4.988  16.247  1.3125 -0.3912 -3.2819
 4893TIP3    H236171   2.018   5.107  16.292 -0.3330 -0.2587 -0.4541
 4894TIP3   OH236172   5.027   5.576   4.120  0.2345 -0.8741 -0.5421
 4894TIP3    H136173   5.013   5.641   4.189 -2.1478 -1.1527 -0.6810
 4894TIP3    H236174   4.998   5.620   4.040 -1.3434 -2.0259 -0.6501
 4895TIP3   OH236175   1.235   6.659  10.906 -0.8287  0.2310 -0.4861
 4895TIP3    H136176   1.228   6.752  10.929 -0.9563  0.4850 -1.4904
 4895TIP3    H236177   1.172   6.647  10.835 -0.1447 -0.3985 -1.0087
 4896TIP3   OH236178   6.592   0.533  14.778  0.1232  0.0683  0.0879
 4896TIP3    H136179   6.655   0.547  14.849 -0.8917 -0.9995  1.2466
 4896TIP3    H236180   6.593   0.615  14.729  2.3999  0.0843  0.0638
 4897TIP3   OH236181   2.900   5.718  14.403  0.1081 -0.0347 -0.7688
 4897TIP3    H136182   2.839   5.646  14.418  0.3123 -0.3379 -1.3659
 4897TIP3    H236183   2.850   5.782  14.352 -0.2721  0.5421  0.3047
 4898TIP3   OH236184   5.127   6.728   2.154 -0.0181  0.3852  0.1251
 4898TIP3    H136185   5.169   6.772   2.228 -0.9341 -0.3769  1.1269
 4898TIP3    H236186   5.059   6.673   2.193  0.5337 -1.3063 -1.1349
 4899TIP3   OH236187   0.870   5.981  15.107 -0.5609 -0.1182  0.2208
 4899TIP3    H136188   0.949   5.935  15.079 -0.5761 -0.6791  1.0634
 4899TIP3    H236189   0.902   6.057  15.156 -0.5425  0.3021 -0.4340
 4900TIP3   OH236190   5.113   4.651   0.517  0.1361 -0.0254  0.2653
 4900TIP3    H136191   5.112   4.659   0.421  1.0294  0.1187  0.2527
 4900TIP3    H236192   5.206   4.647   0.539 -0.0537  0.3897  1.1722
 4901TIP3   OH236193   6.115   3.442  12.743  0.2519 -0.4477 -0.7039
 4901TIP3    H136194   6.185   3.473  12.686 -0.0355 -0.9547 -1.3486
 4901TIP3    H236195   6.115   3.503  12.818  3.6496 -2.3951  1.0880
 4902TIP3   OH236196   6.470   5.151   5.100  0.2424  0.1410 -0.3353
 4902TIP3    H136197   6.468   5.226   5.041  2.3007  2.1498  1.9236
 4902TIP3    H236198   6.428   5.184   5.180  0.0449 -1.5561  0.2907
 4903TIP3   OH236199   3.997   1.196   0.960 -0.5062 -0.2133  0.0976
 4903TIP3    H136200   4.030   1.140   0.889 -2.5985  0.4494 -1.5236
 4903TIP3    H236201   4.071   1.208   1.018  0.1514 -4.4606  0.4572
 4904TIP3   OH236202   3.483   4.868  11.691 -0.2058 -0.3175  0.2611
 4904TIP3    H136203   3.491   4.780  11.655 -1.0379  0.1632 -1.1851
 4904TIP3    H236204   3.422   4.913  11.632 -0.4702  0.9723  1.4526
 4905TIP3   OH236205   3.249   2.002  16.231 -0.4282 -0.1565 -0.5806
 4905TIP3    H136206   3.220   2.084  16.270  0.7861 -0.2025  0.4559
 4905TIP3    H236207   3.264   2.024  16.139  1.9882  1.4000  0.0874
 4906TIP3   OH236208   2.133   1.337   3.958 -0.3650 -0.2940  0.1561
 4906TIP3    H136209   2.084   1.296   4.029 -0.8504  0.8837  0.5323
 4906TIP3    H236210   2.147   1.267   3.894  0.5213 -1.5158  1.6143
 4907TIP3   OH236211   2.443   3.007   5.770 -0.1178 -0.0651  0.0914
 4907TIP3    H136212   2.454   3.039   5.680 -0.3322 -0.7318 -0.1755
 4907TIP3    H236213   2.434   2.912   5.761 -0.0929 -0.1423  0.8235
 4908TIP3   OH236214   6.656   3.284   4.400  0.0982  0.1890  0.0706
 4908TIP3    H136215   6.716   3.256   4.331  0.2743  0.3168  0.1705
 4908TIP3    H236216   6.636   3.375   4.380  0.7450  0.4584  0.6036
 4909TIP3   OH236217   4.271   4.509   4.697 -0.1568  0.0748  0.0821
 4909TIP3    H136218   4.219   4.570   4.644 -1.8070 -2.3136 -1.2456
 4909TIP3    H236219   4.237   4.519   4.785 -0.1611  1.2819 -0.0359
 4910TIP3   OH236220   1.747   6.354   0.604 -0.1642 -0.3165 -0.7187
 4910TIP3    H136221   1.797   6.404   0.669 -2.1695  0.8789 -0.0019
 4910TIP3    H236222   1.759   6.402   0.522 -0.7348  0.4411 -0.3769
 4911TIP3   OH236223   2.544   3.102   2.360  0.2740  0.3519  0.2592
 4911TIP3    H136224   2.503   3.179   2.320 -0.1899  0.8351  1.5948
 4911TIP3    H236225   2.471   3.048   2.389  0.5165  1.0770  2.3928
 4912TIP3   OH236226   1.334   4.491   0.760  0.4398 -0.0073  0.2175
 4912TIP3    H136227   1.415   4.487   0.710 -0.2379  0.0673 -0.9215
 4912TIP3    H236228   1.279   4.422   0.724 -0.4027  0.6368  0.2201
 4913TIP3   OH236229   0.250   4.742   1.470  0.8607  0.1362 -0.0089
 4913TIP3    H136230   0.329   4.708   1.429  1.6537 -0.9775  2.3121
 4913TIP3    H236231   0.187   4.670   1.466  0.9521  0.0106  0.7307
 4914TIP3   OH236232   4.552   3.046   3.030  0.1786 -0.7306  0.1006
 4914TIP3    H136233   4.608   2.974   3.000 -0.2503 -0.8221 -0.4847
 4914TIP3    H236234   4.588   3.124   2.987 -0.5159 -0.8806 -0.7932
 4915TIP3   OH236235   4.138   6.136   0.340  0.3948 -0.0402 -1.0319
 4915TIP3    H136236   4.065   6.193   0.365 -0.4652 -0.3568 -2.7441
 4915TIP3    H236237   4.144   6.073   0.412 -0.2331  0.6942 -0.3030
 4916TIP3   OH236238   4.852   5.975   2.066  0.3276  0.4392  0.1826
 4916TIP3    H136239   4.816   5.912   2.127  0.9621 -0.0187  0.0961
 4916TIP3    H236240   4.830   5.941   1.979  2.4476 -0.8020  0.0698
 4917TIP3   OH236241   6.011   5.790  16.011  0.4071  0.2939  0.2964
 4917TIP3    H136242   5.945   5.774  15.944 -1.1574 -0.4346  1.9396
 4917TIP3    H236243   6.026   5.884  16.009 -0.9915  0.5229  0.1582
 4918TIP3   OH236244   2.516   1.633   4.453  0.1407 -0.5574 -0.2508
 4918TIP3    H136245   2.558   1.640   4.368  1.0197  2.9763  0.3529
 4918TIP3    H236246   2.587   1.612   4.514 -0.1159 -0.9012 -0.0624
 4919TIP3   OH236247   0.397   5.056  13.504  0.6804  0.8828  0.3433
 4919TIP3    H136248   0.441   4.971  13.495 -1.2941 -0.2359  0.6782
 4919TIP3    H236249   0.376   5.081  13.414  0.0035  0.3093  0.3404
 4920TIP3   OH236250   5.154   6.329   1.062 -0.5820  0.8621  0.3055
 4920TIP3    H136251   5.212   6.261   1.027 -1.5825 -0.1511  0.5634
 4920TIP3    H236252   5.127   6.295   1.147 -1.1677  1.5467  0.3954
 4921TIP3   OH236253   2.349   1.524   3.973 -0.2817  0.2568  0.0341
 4921TIP3    H136254   2.317   1.584   3.906 -0.8073 -0.6490 -0.5395
 4921TIP3    H236255   2.283   1.455   3.977 -0.7833  0.7642  2.1705
 4922TIP3   OH236256   6.283   1.033   5.947 -0.2032  0.3754 -0.0882
 4922TIP3    H136257   6.296   1.052   5.854 -1.2039  1.8670  0.0424
 4922TIP3    H236258   6.354   0.973   5.969  0.9296  1.1478 -1.4594
 4923TIP3   OH236259   0.109   3.983  10.306  0.0142 -0.2185 -0.2265
 4923TIP3    H136260   0.186   3.990  10.250  0.5544 -2.0651  0.1946
 4923TIP3    H236261   0.145   3.975  10.395 -0.8168  2.9211  0.5084
 4924TIP3   OH236262   3.002   0.036  12.361 -0.6018  0.2054 -0.1517
 4924TIP3    H136263   2.941   0.085  12.306 -0.1130 -0.8209 -1.6854
 4924TIP3    H236264   3.053   0.103  12.407  0.6884  1.2503 -2.8648
 4925TIP3   OH236265   4.106   3.837  12.254  0.0512  0.3999  0.0846
 4925TIP3    H136266   4.145   3.914  12.213 -0.1497  1.2584  1.4458
 4925TIP3    H236267   4.037   3.872  12.310 -0.2329 -0.7971  0.5143
 4926TIP3   OH236268   5.266   4.465  16.753 -0.0392 -0.0865 -0.2593
 4926TIP3    H136269   5.206   4.467  16.679 -2.2576  0.7512  1.4337
 4926TIP3    H236270   5.222   4.410  16.818  1.0983  0.4370  1.0072
 4927TIP3   OH236271   3.086   4.333   0.370  0.3459  0.2821  0.1465
 4927TIP3    H136272   3.093   4.406   0.431  0.2197 -0.8328  1.5305
 4927TIP3    H236273   2.996   4.301   0.380  0.9334 -1.2431  1.0062
 4928TIP3   OH236274   1.912   1.032  15.196  0.4584  0.3302 -0.4180
 4928TIP3    H136275   1.841   0.973  15.222  0.8707  0.7754  1.9390
 4928TIP3    H236276   1.869   1.117  15.185  0.4587  0.3618 -0.1621
 4929TIP3   OH236277   3.122   3.015  10.864 -0.0692  0.2642  0.3613
 4929TIP3    H136278   3.035   3.041  10.894 -0.9590 -0.7214 -1.2294
 4929TIP3    H236279   3.178   3.091  10.883 -1.1105  0.6917  1.9543
 4930TIP3   OH236280   3.049   5.367  16.709 -0.5544  0.3062  0.6149
 4930TIP3    H136281   3.063   5.460  16.728  0.0239  0.4215 -0.3215
 4930TIP3    H236282   3.019   5.366  16.618 -2.0101 -0.3176  1.0700
 4931TIP3   OH236283   5.862   1.306   0.721  0.3071 -0.1420  0.2839
 4931TIP3    H136284   5.870   1.213   0.741 -1.1852 -1.5066 -4.1608
 4931TIP3    H236285   5.771   1.328   0.743  0.3823  0.0169  0.4408
 4932TIP3   OH236286   5.929   0.021  17.192 -0.3617 -0.4774 -0.0941
 4932TIP3    H136287   6.002  -0.008  17.137  0.3578 -1.3698  1.2887
 4932TIP3    H236288   5.969   0.078  17.257 -1.0973 -0.0242 -0.0257
 4933TIP3   OH236289   3.879   1.492  12.855  0.0155 -0.2891 -0.2096
 4933TIP3    H136290   3.854   1.462  12.943 -0.1548 -0.3833 -0.2903
 4933TIP3    H236291   3.890   1.587  12.865  0.0204 -0.3029 -0.0796
 4934TIP3   OH236292   3.193   2.315  17.085  0.2361  0.2336  0.3428
 4934TIP3    H136293   3.168   2.363  17.006  2.5888 -0.1578 -0.7341
 4934TIP3    H236294   3.223   2.383  17.145  1.0014  0.3508 -0.1543
 4935TIP3   OH236295   5.404   4.986  14.945 -0.6486 -0.6861 -0.0040
 4935TIP3    H136296   5.379   4.962  14.856 -1.2086  1.9345 -0.6478
 4935TIP3    H236297   5.322   5.011  14.987 -0.0732  0.9461  0.2360
 4936TIP3   OH236298   3.257   5.970   1.731 -0.4267  0.0738 -0.3144
 4936TIP3    H136299   3.338   6.018   1.718 -0.8924  1.2027  0.7209
 4936TIP3    H236300   3.241   5.974   1.825 -0.3951 -2.3166 -0.1483
 4937TIP3   OH236301   3.227   0.973  15.976 -0.2246 -0.4500 -0.2948
 4937TIP3    H136302   3.271   0.941  15.897 -1.0354  0.9798 -1.3582
 4937TIP3    H236303   3.235   1.068  15.972 -1.0886 -0.3057  0.8729
 4938TIP3   OH236304   1.636   2.904  10.728 -0.1345  0.6282  0.2358
 4938TIP3    H136305   1.621   2.819  10.769 -0.6230  1.2540  1.4041
 4938TIP3    H236306   1.549   2.932  10.698  0.2781 -0.0422 -1.7505
 4939TIP3   OH236307   6.638   5.097  12.053 -0.0886 -0.1356  0.0969
 4939TIP3    H136308   6.628   5.101  11.958 -0.1847 -0.2893  0.0996
 4939TIP3    H236309   6.721   5.052  12.067 -0.9103 -1.7210  0.0960
 4940TIP3   OH236310   3.247   6.559   1.177  0.1199 -0.6321  0.5528
 4940TIP3    H136311   3.224   6.470   1.153 -3.1019  0.4228 -0.8631
 4940TIP3    H236312   3.277   6.599   1.095  2.1245 -0.4835  1.2950
 4941TIP3   OH236313   3.882   2.771   3.670  0.0692 -0.4005  0.8714
 4941TIP3    H136314   3.865   2.832   3.742  1.5943 -0.1393  1.0400
 4941TIP3    H236315   3.942   2.818   3.612  1.1558 -1.6580  0.9235
 4942TIP3   OH236316   5.367   3.703  11.652  0.1919 -0.0566  0.6715
 4942TIP3    H136317   5.325   3.789  11.656  0.8197  0.2264  2.0558
 4942TIP3    H236318   5.301   3.645  11.617 -0.9404  0.6179  1.6148
 4943TIP3   OH236319   4.408   2.828  16.334  0.0770 -0.2408  0.3579
 4943TIP3    H136320   4.422   2.816  16.427  1.8653  0.1013  0.1667
 4943TIP3    H236321   4.382   2.741  16.302 -0.4786 -0.3736  1.1413
 4944TIP3   OH236322   1.219   0.027   3.397 -0.1583 -0.2290  0.6690
 4944TIP3    H136323   1.178   0.088   3.334  3.0175  1.6241  0.1631
 4944TIP3    H236324   1.178   0.049   3.480  0.4188  2.3152  0.3921
 4945TIP3   OH236325   2.439   6.313   0.003 -0.1954  0.1747 -0.2889
 4945TIP3    H136326   2.441   6.357   0.088  1.8970 -1.1819  0.4453
 4945TIP3    H236327   2.378   6.365  -0.049 -2.1525  0.6258  2.2395
 4946TIP3   OH236328   3.900   3.026  10.408  0.4130  0.0202 -0.1986
 4946TIP3    H136329   3.924   3.119  10.403 -1.3690  0.4879 -0.5957
 4946TIP3    H236330   3.875   3.003  10.318  0.2493 -0.6919  0.0224
 4947TIP3   OH236331   4.356   4.975   5.763 -0.3236 -0.2117  0.2864
 4947TIP3    H136332   4.289   4.925   5.808  3.0686 -4.6565  1.0552
 4947TIP3    H236333   4.411   5.011   5.833 -0.9320  2.1411 -0.3440
 4948TIP3   OH236334   0.546   3.367  12.815  0.1670  0.5457 -0.0207
 4948TIP3    H136335   0.458   3.371  12.777  0.4962  1.1919 -0.7604
 4948TIP3    H236336   0.561   3.456  12.848  1.3551  1.0985 -1.8718
 4949TIP3   OH236337   0.132   2.492   5.462 -0.1141 -0.1890  0.1339
 4949TIP3    H136338   0.207   2.432   5.459  0.9235  1.1091 -1.8534
 4949TIP3    H236339   0.163   2.567   5.512 -0.7092 -0.3669  0.7927
 4950TIP3   OH236340   0.433   0.628   0.539  0.0573 -0.6296  0.1992
 4950TIP3    H136341   0.503   0.624   0.474 -1.0732 -0.4941 -1.0620
 4950TIP3    H236342   0.462   0.696   0.601  0.4056  0.4282 -1.0813
 4951TIP3   OH236343   4.244   1.422  16.522  0.1357  0.0197  0.2347
 4951TIP3    H136344   4.153   1.437  16.546 -0.2921 -1.9163  0.0452
 4951TIP3    H236345   4.240   1.400  16.428  1.1940  2.8068 -0.5567
 4952TIP3   OH236346   3.456   2.841   3.407 -0.1509  0.7441 -0.5590
 4952TIP3    H136347   3.529   2.902   3.402 -0.9437  1.6245 -1.8784
 4952TIP3    H236348   3.438   2.817   3.317  0.6502 -2.1388 -0.0562
 4953TIP3   OH236349   0.335   1.284  14.445  0.6704  0.0376  0.4588
 4953TIP3    H136350   0.388   1.230  14.504  0.6264 -1.7120 -0.9942
 4953TIP3    H236351   0.392   1.298  14.369 -0.0484  0.2806 -0.0455
 4954TIP3   OH236352   1.017   0.552  14.071 -0.3226 -0.4213 -0.1362
 4954TIP3    H136353   0.934   0.545  14.118  0.2324 -0.7564  0.8198
 4954TIP3    H236354   1.083   0.557  14.140  0.5141 -0.8517 -0.8890
 4955TIP3   OH236355   2.445   0.983   1.540  0.2363 -0.1846 -0.0609
 4955TIP3    H136356   2.414   0.993   1.630  0.3534 -0.6708  0.0327
 4955TIP3    H236357   2.518   1.045   1.534 -1.0418  1.3396 -0.4368
 4956TIP3   OH236358   1.459   3.469   0.987  0.4006 -0.4078 -0.2954
 4956TIP3    H136359   1.517   3.456   0.912  1.7421  1.4437  0.3502
 4956TIP3    H236360   1.482   3.556   1.021 -1.6200 -0.3059  1.0084
 4957TIP3   OH236361   2.282   0.180   6.452 -0.0890 -0.1020 -0.5379
 4957TIP3    H136362   2.326   0.122   6.514 -0.3635  2.7609  2.6690
 4957TIP3    H236363   2.189   0.169   6.470 -0.1567  1.0437 -0.0700
 4958TIP3   OH236364   0.587   3.728  15.494 -0.0410  0.2758  0.5869
 4958TIP3    H136365   0.510   3.764  15.538  0.0986 -0.5807  1.5803
 4958TIP3    H236366   0.645   3.702  15.566  0.0373 -1.5290 -0.0782
 4959TIP3   OH236367   3.458   6.564   4.024  0.3212  0.6492 -0.4566
 4959TIP3    H136368   3.444   6.495   4.090  2.5288  1.0196  0.5060
 4959TIP3    H236369   3.428   6.644   4.067 -1.0353  0.5118 -1.0898
 4960TIP3   OH236370   0.458   6.732  13.499 -0.0779  0.2517  0.0491
 4960TIP3    H136371   0.433   6.811  13.547  0.2075  0.9089 -0.8563
 4960TIP3    H236372   0.455   6.758  13.407  1.7069 -0.2770 -0.2024
 4961TIP3   OH236373   5.601   2.273  11.095  0.3693  0.1350 -0.0614
 4961TIP3    H136374   5.599   2.181  11.120 -0.7398 -0.3399 -1.6998
 4961TIP3    H236375   5.694   2.295  11.090  0.6987 -1.4200 -1.3555
 4962TIP3   OH236376   2.935   4.952   2.143  0.3339  1.0215  0.0739
 4962TIP3    H136377   2.879   4.976   2.070  0.8344  1.4239 -0.1841
 4962TIP3    H236378   2.985   4.876   2.112 -1.4288 -0.5934  0.9765
 4963TIP3   OH236379   1.093   0.333   4.290 -0.7375  0.2311 -0.8161
 4963TIP3    H136380   1.114   0.411   4.342 -1.4288  0.0261 -0.2120
 4963TIP3    H236381   1.086   0.365   4.200  1.1868  0.4800 -0.9266
 4964TIP3   OH236382   0.364   4.902   3.305  0.3423  0.3561  0.4451
 4964TIP3    H136383   0.305   4.875   3.375  1.4577 -0.3037  1.1599
 4964TIP3    H236384   0.372   4.997   3.315 -0.1599  0.3748  0.6756
 4965TIP3   OH236385   4.497   4.458  14.435  0.3073 -0.4722 -0.1150
 4965TIP3    H136386   4.426   4.441  14.498  0.9092  1.5306  1.1949
 4965TIP3    H236387   4.471   4.538  14.390  1.6217  0.2255  0.2997
 4966TIP3   OH236388   6.112   4.014   0.210 -0.1281 -0.2277  0.3369
 4966TIP3    H136389   6.083   4.051   0.126 -1.1173 -0.4372  0.5805
 4966TIP3    H236390   6.088   3.921   0.205  0.4029 -0.3879  0.6007
 4967TIP3   OH236391   3.142   3.238  16.865 -0.0935 -0.0046  0.2650
 4967TIP3    H136392   3.152   3.314  16.807  0.1445  0.5067  0.9672
 4967TIP3    H236393   3.092   3.271  16.940 -1.3944 -0.9358 -0.1472
 4968TIP3   OH236394   2.326   2.591   2.522  0.0508  0.4977 -0.0985
 4968TIP3    H136395   2.292   2.579   2.610 -0.7191 -0.9786 -0.5688
 4968TIP3    H236396   2.403   2.535   2.518  0.2751  0.8121 -0.2717
 4969TIP3   OH236397   1.239   5.920  14.289  0.3489 -0.0723 -0.0864
 4969TIP3    H136398   1.261   6.004  14.247  0.2566 -0.6346 -1.3167
 4969TIP3    H236399   1.204   5.867  14.217  2.4327 -1.9311  0.1865
 4970TIP3   OH236400   0.126   0.237  15.446  0.2765  0.0124  0.1309
 4970TIP3    H136401   0.161   0.309  15.499  0.6942  0.2756 -0.4783
 4970TIP3    H236402   0.124   0.162  15.505 -0.2942  0.5527  0.8158
 4971TIP3   OH236403   6.689   4.332   1.321  0.3172 -0.4848  0.2453
 4971TIP3    H136404   6.701   4.295   1.409  0.6045  0.5957  0.6823
 4971TIP3    H236405   6.607   4.381   1.327  1.2987  1.2086  0.5196
 4972TIP3   OH236406   4.082   0.447  10.958 -0.4434 -0.2186 -0.1677
 4972TIP3    H136407   4.023   0.414  11.026 -0.5207 -1.4620 -0.7978
 4972TIP3    H236408   4.026   0.504  10.904  0.3265  3.4500  2.5320
 4973TIP3   OH236409   4.120   4.421   5.228  0.4246 -0.2711  0.3670
 4973TIP3    H136410   4.128   4.479   5.304 -1.6447  2.6990 -1.4696
 4973TIP3    H236411   4.209   4.412   5.194  0.8782  1.4722  1.0085
 4974TIP3   OH236412   3.642   4.637   2.222 -0.0875 -0.2318  0.8431
 4974TIP3    H136413   3.736   4.622   2.215  0.0613  0.6524  0.7862
 4974TIP3    H236414   3.603   4.550   2.210  0.7275 -0.6559  1.1807
 4975TIP3   OH236415   2.973   0.304   1.107  0.2447 -0.0616 -0.1429
 4975TIP3    H136416   3.004   0.394   1.098 -1.4107  0.6462  0.7914
 4975TIP3    H236417   3.026   0.266   1.176  1.8889 -0.2875 -1.4663
 4976TIP3   OH236418   0.057   6.440   5.427  0.1184  0.0402  0.0094
 4976TIP3    H136419   0.065   6.404   5.338  1.0857 -1.5674  0.6821
 4976TIP3    H236420   0.142   6.480   5.443 -0.2827  0.9038 -0.0138
 4977TIP3   OH236421   2.038   2.148  16.385 -0.1810 -0.3120 -0.4681
 4977TIP3    H136422   2.046   2.059  16.352  0.6777  0.3724 -2.2613
 4977TIP3    H236423   2.104   2.155  16.454  0.4695 -0.7740 -1.0285
 4978TIP3   OH236424   3.218   2.660  14.332 -0.2504 -0.1858  0.7907
 4978TIP3    H136425   3.186   2.717  14.262 -1.5313  0.1529  1.6149
 4978TIP3    H236426   3.138   2.626  14.373  0.3910 -3.6904 -0.4957
 4979TIP3   OH236427   4.230   2.868   4.613  0.0009 -0.2809 -0.4119
 4979TIP3    H136428   4.280   2.886   4.534  0.6845  1.4127  0.3568
 4979TIP3    H236429   4.163   2.806   4.585 -0.3716  0.9788 -2.5464
 4980TIP3   OH236430   3.777   2.859   4.348  0.1462  0.8470 -0.2023
 4980TIP3    H136431   3.808   2.881   4.436  0.1604 -2.1823  0.6610
 4980TIP3    H236432   3.706   2.922   4.332 -1.6222 -0.0488  3.1200
 4981TIP3   OH236433   2.357   1.289   2.291 -0.4565 -0.3493 -0.1806
 4981TIP3    H136434   2.427   1.254   2.347 -0.1596  0.6510  0.0884
 4981TIP3    H236435   2.301   1.339   2.351 -1.8449 -1.7360 -0.2550
 4982TIP3   OH236436   4.444   2.983   0.203  0.7920 -0.3997 -0.0600
 4982TIP3    H136437   4.513   3.006   0.140  0.6660  1.0087  0.2678
 4982TIP3    H236438   4.401   2.907   0.165  2.1219 -0.9188 -0.5818
 4983TIP3   OH236439   4.768   5.366   4.394  0.0949 -0.3242  0.1361
 4983TIP3    H136440   4.775   5.428   4.466  3.5727 -1.5429  1.0071
 4983TIP3    H236441   4.835   5.300   4.411  0.0768 -1.5005 -3.4298
 4984TIP3   OH236442   6.755   6.351  15.043  0.6161 -0.4978 -0.0515
 4984TIP3    H136443   6.814   6.424  15.023  1.2970 -0.7524  0.9504
 4984TIP3    H236444   6.725   6.320  14.957  2.4445 -0.7737 -0.6260
 4985TIP3   OH236445   1.010   3.711  14.115  0.5971 -0.0060  0.1570
 4985TIP3    H136446   1.038   3.777  14.052 -0.6143 -0.1547 -0.5761
 4985TIP3    H236447   0.914   3.718  14.115  0.5365 -0.6209  1.3218
 4986TIP3   OH236448   5.510   2.193   3.570 -0.9081 -0.1216  0.1056
 4986TIP3    H136449   5.503   2.128   3.640 -1.0331 -0.7310 -0.4654
 4986TIP3    H236450   5.444   2.259   3.591  0.3940  0.7696  1.6506
 4987TIP3   OH236451   2.836   6.595   3.551 -0.2219  0.1435  0.2505
 4987TIP3    H136452   2.812   6.505   3.571  0.4138  0.0806  0.7396
 4987TIP3    H236453   2.756   6.645   3.568 -0.7809 -0.4040 -0.6803
 4988TIP3   OH236454   2.933   5.531   4.718  0.6964 -0.4781  0.1127
 4988TIP3    H136455   2.864   5.593   4.697  1.4473  0.1797 -0.4686
 4988TIP3    H236456   2.945   5.481   4.637 -0.8039 -2.3338  0.9372
 4989TIP3   OH236457   2.060   2.241   4.237  0.5285  0.5082  0.1490
 4989TIP3    H136458   2.153   2.234   4.259  0.7688 -1.0341 -1.1808
 4989TIP3    H236459   2.052   2.196   4.153 -1.7820 -1.2775  1.2380
 4990TIP3   OH236460   2.512   3.073   3.333 -0.3968 -0.0343  0.3065
 4990TIP3    H136461   2.576   3.027   3.388 -0.4610 -0.3572  0.1160
 4990TIP3    H236462   2.436   3.085   3.389  1.0009  3.4684  1.7152
 4991TIP3   OH236463   1.222   5.163  17.026 -0.2808  0.0421  0.1624
 4991TIP3    H136464   1.134   5.190  17.051  0.3924  1.5215  1.0702
 4991TIP3    H236465   1.256   5.117  17.102 -0.2880 -0.6207 -0.2257
 4992TIP3   OH236466   1.962   0.858   4.794  0.0039  0.3933 -0.1613
 4992TIP3    H136467   1.909   0.864   4.715  0.2888 -0.3892 -0.4175
 4992TIP3    H236468   2.042   0.907   4.773  0.4862 -0.5979 -0.7110
 4993TIP3   OH236469   3.231   6.722   6.510 -0.3349  0.5841 -0.1447
 4993TIP3    H136470   3.152   6.673   6.533  0.9229 -0.7185  1.6669
 4993TIP3    H236471   3.263   6.759   6.592  1.7299 -0.1627 -0.5376
 4994TIP3   OH236472   5.467   4.129  14.107  0.2685 -0.0762 -0.1859
 4994TIP3    H136473   5.518   4.124  14.188  0.8668 -0.8217 -0.5990
 4994TIP3    H236474   5.438   4.039  14.091 -1.9529  0.4480  0.5088
 4995TIP3   OH236475   2.260   0.395   2.687  0.2711 -0.7816  0.2767
 4995TIP3    H136476   2.269   0.446   2.767  3.1462 -0.6378 -0.0299
 4995TIP3    H236477   2.349   0.389   2.652 -0.6656 -2.0845 -2.1483
 4996TIP3   OH236478   2.485   3.135  13.840  0.3713  0.0970  0.8834
 4996TIP3    H136479   2.520   3.220  13.814  1.2741  0.5733  3.3291
 4996TIP3    H236480   2.480   3.140  13.936  0.4345 -2.5870  1.1020
 4997TIP3   OH236481   2.648   0.106  11.018 -0.7228  0.5693  0.0297
 4997TIP3    H136482   2.632   0.079  10.928 -0.2718 -0.0038  0.1160
 4997TIP3    H236483   2.742   0.120  11.023 -0.6646  0.0217  0.5630
 4998TIP3   OH236484   1.341   5.337   4.654  0.2406  0.1893  0.3417
 4998TIP3    H136485   1.297   5.263   4.612  0.9746 -0.4343  0.6289
 4998TIP3    H236486   1.320   5.327   4.747  0.9114 -0.0842  0.4758
 4999TIP3   OH236487   4.866   0.326  11.987  0.1107 -0.2783 -0.3370
 4999TIP3    H136488   4.885   0.235  12.012 -0.6853 -0.6295 -0.9451
 4999TIP3    H236489   4.951   0.368  11.981  0.5248 -1.1160 -0.5158
 5000TIP3   OH236490   1.227   6.361  15.610 -0.7113 -0.3195 -0.9059
 5000TIP3    H136491   1.205   6.370  15.703 -0.0731  2.1807 -0.9218
 5000TIP3    H236492   1.143   6.347  15.566 -1.1953  0.0404 -0.1084
 5001TIP3   OH236493   3.593   5.674  10.432 -0.0310  0.5508 -0.4207
 5001TIP3    H136494   3.537   5.623  10.490 -0.4126 -0.3429 -1.5575
 5001TIP3    H236495   3.681   5.638  10.446 -0.0898  0.4700 -0.2585
 5002TIP3   OH236496   6.347   3.487  11.912 -0.0451  0.7200  0.3723
 5002TIP3    H136497   6.270   3.504  11.858 -0.5657 -2.0147  0.0940
 5002TIP3    H236498   6.401   3.427  11.859  0.7956  0.2053  1.7426
 5003TIP3   OH236499   5.028   5.309   3.343 -0.1416 -0.1226 -0.0505
 5003TIP3    H136500   5.031   5.402   3.321 -0.9756 -0.2052 -0.5384
 5003TIP3    H236501   5.119   5.280   3.338  0.0619  0.5559 -0.3782
 5004TIP3   OH236502   3.689   2.502  16.314 -0.3126  0.2426 -0.7445
 5004TIP3    H136503   3.622   2.465  16.372 -0.4704 -0.9774 -1.6685
 5004TIP3    H236504   3.674   2.596  16.317 -1.0182  0.1097  0.3343
 5005TIP3   OH236505   0.751   1.644  16.633 -0.2663 -0.2081  0.0256
 5005TIP3    H136506   0.765   1.738  16.642  1.4934 -0.5573  1.8114
 5005TIP3    H236507   0.828   1.613  16.585  0.3107 -0.9860  1.4008
 5006TIP3   OH236508   3.655   2.652  16.886 -0.7502 -0.5162 -0.1799
 5006TIP3    H136509   3.642   2.603  16.805 -2.1892  0.1139 -0.3513
 5006TIP3    H236510   3.744   2.688  16.879 -1.0879  0.0622 -1.7700
 5007TIP3   OH236511   5.210   3.308   0.395 -0.0103 -0.1757  0.2541
 5007TIP3    H136512   5.305   3.311   0.383 -0.1018 -1.4630 -1.1368
 5007TIP3    H236513   5.176   3.375   0.335 -0.0101 -0.0737  0.3675
 5008TIP3   OH236514   4.072   6.462  12.030 -0.9915 -0.2653  0.3090
 5008TIP3    H136515   3.991   6.426  11.995 -0.1395 -1.9560 -0.0572
 5008TIP3    H236516   4.085   6.417  12.113 -0.1816 -0.4133  0.1148
 5009TIP3   OH236517   1.585   5.733   4.800  0.2896 -0.1521  0.5544
 5009TIP3    H136518   1.585   5.808   4.740  0.4076 -0.9356 -0.4672
 5009TIP3    H236519   1.630   5.764   4.878  0.5015  0.7785  0.0762
 5010TIP3   OH236520   0.856   1.604  11.811  0.0270 -0.0326  0.3150
 5010TIP3    H136521   0.844   1.510  11.796  0.4171 -0.3972  2.0422
 5010TIP3    H236522   0.783   1.630  11.867 -1.3491  1.2373 -1.9334
 5011TIP3   OH236523   1.904   0.460  13.507  0.8906  0.0166  0.1761
 5011TIP3    H136524   1.963   0.480  13.579  0.0319  0.9701  0.6468
 5011TIP3    H236525   1.826   0.424  13.549  0.6261 -0.0186 -0.3322
 5012TIP3   OH236526   4.485   6.025  15.160  1.0139  0.1387  0.0192
 5012TIP3    H136527   4.446   5.945  15.197  2.3569 -0.5382  0.0192
 5012TIP3    H236528   4.568   6.034  15.206  2.7804 -0.7370 -2.7699
 5013TIP3   OH236529   6.277   2.950   6.385 -0.2309 -0.1933 -0.6593
 5013TIP3    H136530   6.325   3.010   6.441 -1.0341 -0.2343  0.0927
 5013TIP3    H236531   6.321   2.866   6.397  1.6036  0.4153 -2.5728
 5014TIP3   OH236532   6.621   6.251   4.756  0.0181  0.1028  0.1717
 5014TIP3    H136533   6.646   6.261   4.664  0.1146 -0.3424  0.1485
 5014TIP3    H236534   6.704   6.235   4.801 -0.0813 -0.1197  0.2746
 5015TIP3   OH236535   1.807   3.755   1.602 -0.1499  0.7117 -0.4303
 5015TIP3    H136536   1.777   3.668   1.576  0.8724 -0.0452  0.8084
 5015TIP3    H236537   1.874   3.778   1.537 -2.6550  2.1044 -2.7810
 5016TIP3   OH236538   0.486   1.211   5.604  0.2852  0.1438  0.0405
 5016TIP3    H136539   0.434   1.178   5.530 -1.7286 -0.4115  1.6093
 5016TIP3    H236540   0.431   1.279   5.643  1.1677  0.2256  1.2006
 5017TIP3   OH236541   3.874   4.516  11.889  0.0252  0.0907 -0.3691
 5017TIP3    H136542   3.912   4.604  11.880 -0.7348  0.7106  1.8539
 5017TIP3    H236543   3.898   4.488  11.977 -1.9651 -0.7988 -0.0393
 5018TIP3   OH236544   5.955   4.848  14.298  0.8881 -0.0471 -0.3046
 5018TIP3    H136545   5.945   4.892  14.382  0.1359  0.8897 -0.8656
 5018TIP3    H236546   5.956   4.918  14.233  1.2486 -0.7643 -1.1030
 5019TIP3   OH236547   0.454   2.893  11.212 -0.5565 -0.4175 -0.1169
 5019TIP3    H136548   0.547   2.882  11.234 -1.0257 -0.3516  2.0141
 5019TIP3    H236549   0.448   2.861  11.122  1.8081  0.9767 -0.8793
 5020TIP3   OH236550   2.367   6.253   4.220  0.1100  0.2129 -0.4677
 5020TIP3    H136551   2.396   6.333   4.176  0.5993  0.5133  0.3926
 5020TIP3    H236552   2.296   6.282   4.278  0.1135 -0.0250 -0.3438
 5021TIP3   OH236553   4.146   1.913  15.477  0.0388 -0.0450 -0.1875
 5021TIP3    H136554   4.181   1.984  15.531 -0.3695 -0.0705  0.1074
 5021TIP3    H236555   4.054   1.935  15.464  0.4955  0.8565 -2.2882
 5022TIP3   OH236556   0.921   1.864  13.536  0.1627 -0.2341 -0.3272
 5022TIP3    H136557   0.940   1.866  13.630  1.3585  0.9180 -0.5572
 5022TIP3    H236558   0.921   1.771  13.513 -1.4842 -0.6294  1.0337
 5023TIP3   OH236559   2.083   4.333   4.321 -0.0245  0.2002 -0.2529
 5023TIP3    H136560   2.113   4.410   4.273  0.4321 -0.0155 -0.3262
 5023TIP3    H236561   2.073   4.266   4.253 -1.6921  0.5496 -0.3832
 5024TIP3   OH236562   2.501   5.811   3.937 -0.1960  0.8658  0.2399
 5024TIP3    H136563   2.430   5.749   3.955 -0.9995  1.8560  0.6048
 5024TIP3    H236564   2.581   5.758   3.940 -0.8616 -0.1517  0.4894
 5025TIP3   OH236565   6.423   3.395  16.144 -0.3233  0.2024 -1.2087
 5025TIP3    H136566   6.489   3.328  16.159  0.0687  0.7468 -0.4489
 5025TIP3    H236567   6.418   3.443  16.226 -2.3636 -0.4348 -0.8961
 5026TIP3   OH236568   5.745   4.053   5.968  0.0081 -0.0315  0.1849
 5026TIP3    H136569   5.657   4.058   6.003  0.1599  1.0943  0.4153
 5026TIP3    H236570   5.800   4.032   6.043  0.0476  0.1039  0.1929
 5027TIP3   OH236571   1.104   0.959   1.472  0.7420 -0.6677  0.1157
 5027TIP3    H136572   1.184   0.951   1.420  1.5223 -1.1488  1.3377
 5027TIP3    H236573   1.122   0.909   1.552 -0.6501 -0.4793  0.5781
 5028TIP3   OH236574   4.701   3.255  16.756 -0.1280 -0.3858 -0.1936
 5028TIP3    H136575   4.616   3.224  16.726 -0.3015  0.1171 -0.2254
 5028TIP3    H236576   4.741   3.178  16.798 -1.1510 -0.2832  1.0331
 5029TIP3   OH236577   2.879   6.175   4.915 -0.2569 -0.4866  0.4930
 5029TIP3    H136578   2.810   6.119   4.949 -0.1489 -0.2561  1.1049
 5029TIP3    H236579   2.947   6.174   4.983 -0.1639  0.2085  0.4174
 5030TIP3   OH236580   1.938   6.121  12.440  0.3914 -0.4760  0.1009
 5030TIP3    H136581   1.890   6.140  12.359  2.0658 -1.6880 -1.2554
 5030TIP3    H236582   1.878   6.146  12.510 -1.6201 -0.5575 -1.5058
 5031TIP3   OH236583   0.574   4.823  16.773  0.7342 -0.1540  0.6123
 5031TIP3    H136584   0.519   4.900  16.791  1.2335 -0.1044  2.0839
 5031TIP3    H236585   0.649   4.859  16.726  0.2106 -0.0050 -0.1367
 5032TIP3   OH236586   2.597   0.597   3.511  0.1072  0.5532  0.1638
 5032TIP3    H136587   2.612   0.691   3.525 -0.0552  0.4570  1.0860
 5032TIP3    H236588   2.543   0.571   3.586  1.2965 -0.5611  0.6598
 5033TIP3   OH236589   1.125   4.521  13.072  0.3470 -0.0555  0.2394
 5033TIP3    H136590   1.185   4.526  12.998 -0.0805  0.2775 -0.0924
 5033TIP3    H236591   1.123   4.611  13.106  1.0032 -0.3266  1.0361
 5034TIP3   OH236592   6.157   6.598  13.427 -0.1174  0.1382 -0.4246
 5034TIP3    H136593   6.223   6.576  13.361  2.2606  1.2010  1.4288
 5034TIP3    H236594   6.118   6.680  13.396  2.1032  1.4974  0.1386
 5035TIP3   OH236595   3.130   1.105  10.887 -0.4698  0.2289 -0.7262
 5035TIP3    H136596   3.152   1.126  10.796  0.1192  1.0161 -0.4145
 5035TIP3    H236597   3.043   1.066  10.882  0.3665 -1.6561 -1.8504
 5036TIP3   OH236598   5.555   5.318  10.796  0.4222  0.4920  0.4633
 5036TIP3    H136599   5.522   5.279  10.715  1.9997  0.2861 -0.1100
 5036TIP3    H236600   5.477   5.327  10.851 -0.3635 -1.3705 -0.2445
 5037TIP3   OH236601   0.519   0.846  13.764  0.1523  0.2257  0.3958
 5037TIP3    H136602   0.494   0.861  13.673 -0.0375 -0.2088  0.3699
 5037TIP3    H236603   0.596   0.788  13.759 -0.9379 -1.3101  0.5240
 5038TIP3   OH236604   6.371   2.400  12.517 -0.4037 -0.5195 -0.2356
 5038TIP3    H136605   6.434   2.376  12.585  0.1260  0.7721 -0.2484
 5038TIP3    H236606   6.424   2.418  12.440 -0.2941  3.7694  0.5683
 5039TIP3   OH236607   3.251   1.098  10.583  0.6390 -0.0081 -0.1783
 5039TIP3    H136608   3.263   1.187  10.550  0.2477 -0.0504 -0.4375
 5039TIP3    H236609   3.167   1.070  10.547  0.8419 -0.5468 -0.2360
 5040TIP3   OH236610   0.794   0.848  16.374  0.3928 -0.0277 -0.1499
 5040TIP3    H136611   0.756   0.930  16.407  1.6423  0.6592 -0.3439
 5040TIP3    H236612   0.766   0.843  16.283  1.6479  1.0799 -0.6398
 5041TIP3   OH236613   2.804   6.073  16.993  0.3164 -0.0815  0.1419
 5041TIP3    H136614   2.794   6.163  17.025 -0.2361 -0.1045  0.0428
 5041TIP3    H236615   2.877   6.037  17.045 -0.9146 -0.3074  1.8122
 5042TIP3   OH236616   4.463   0.020  16.072 -0.5975 -0.1295  0.1222
 5042TIP3    H136617   4.451  -0.071  16.101  2.9335 -0.8357 -0.2753
 5042TIP3    H236618   4.502   0.064  16.147 -1.0765  0.7717 -0.1387
 5043TIP3   OH236619   3.301   1.637   1.786  0.5044 -0.0584 -0.9528
 5043TIP3    H136620   3.243   1.710   1.761  1.4157  1.7458  1.7473
 5043TIP3    H236621   3.375   1.643   1.726  0.9272  1.8102 -0.3043
 5044TIP3   OH236622   2.455   0.280   1.500 -0.1946  0.7465  0.2234
 5044TIP3    H136623   2.459   0.190   1.465  1.3826  0.5854  0.7553
 5044TIP3    H236624   2.375   0.281   1.553 -0.3560 -0.2761  0.0370
 5045TIP3   OH236625   1.268   2.715  16.583 -0.2227 -0.0083 -0.7900
 5045TIP3    H136626   1.364   2.717  16.586 -0.2294 -0.2828 -0.1987
 5045TIP3    H236627   1.246   2.758  16.501  0.2313  5.2653  1.4334
 5046TIP3   OH236628   4.143   1.098   6.409 -0.2146 -0.3752  0.1975
 5046TIP3    H136629   4.140   1.019   6.463 -1.8021  0.9932  2.2663
 5046TIP3    H236630   4.183   1.164   6.465  0.2542  0.5438 -1.1653
 5047TIP3   OH236631   5.120   2.150   4.715  0.5058  0.5833  0.7547
 5047TIP3    H136632   5.033   2.110   4.718  0.8104 -0.0844  0.9031
 5047TIP3    H236633   5.181   2.075   4.711  1.0039  1.0012 -1.8144
 5048TIP3   OH236634   4.282   6.315  13.982 -0.5407 -0.2818 -0.0576
 5048TIP3    H136635   4.288   6.398  13.935  1.4686 -0.9490 -1.0770
 5048TIP3    H236636   4.243   6.255  13.919 -0.7960 -0.4273  0.2369
 5049TIP3   OH236637   5.754   5.044   4.557  0.0047 -0.1384 -0.1656
 5049TIP3    H136638   5.699   4.968   4.576 -2.3279  1.3930 -0.3319
 5049TIP3    H236639   5.786   5.028   4.468 -1.6972 -0.2925 -0.8006
 5050TIP3   OH236640   6.447   6.245   1.568  0.1748  0.5306  0.1613
 5050TIP3    H136641   6.369   6.199   1.536 -0.6775  0.3007  2.4184
 5050TIP3    H236642   6.442   6.332   1.528 -1.3592  0.5804  0.4205
 5051TIP3   OH236643   6.151   0.933   2.640 -0.0626  0.3367 -0.1697
 5051TIP3    H136644   6.075   0.876   2.643  0.6117 -0.5877 -0.1949
 5051TIP3    H236645   6.120   1.012   2.596 -1.1111  0.1594  0.2113
 5052TIP3   OH236646   4.107   5.807  16.650  0.6974 -0.2466  0.7583
 5052TIP3    H136647   4.046   5.877  16.673  1.1349  0.1422  0.7589
 5052TIP3    H236648   4.193   5.840  16.678  1.6650  1.2494 -3.1766
 5053TIP3   OH236649   2.578   3.953  12.290  0.0181 -0.2972 -0.4428
 5053TIP3    H136650   2.610   3.868  12.321  0.2785 -0.9906 -2.4406
 5053TIP3    H236651   2.543   3.996  12.369 -0.7057 -2.5085  0.5340
 5054TIP3   OH236652   4.487   2.943  16.751 -0.1726 -0.4403  0.3668
 5054TIP3    H136653   4.582   2.952  16.753 -0.1104  0.7544 -2.9988
 5054TIP3    H236654   4.472   2.849  16.750  0.8808 -0.6579  1.6743
 5055TIP3   OH236655   0.564   6.470  11.760  0.2993  0.0586  0.3596
 5055TIP3    H136656   0.598   6.384  11.787  0.2337 -0.7453 -1.9128
 5055TIP3    H236657   0.576   6.471  11.665 -2.3418  1.4148 -0.0321
 5056TIP3   OH236658   5.495   1.655   2.200  0.1498 -0.2360 -0.1931
 5056TIP3    H136659   5.422   1.697   2.155 -0.8651  1.3091  2.6043
 5056TIP3    H236660   5.463   1.567   2.220 -0.9706  0.3615  0.8416
 5057TIP3   OH236661   2.421   4.190  13.763  0.3167  0.5323 -0.0494
 5057TIP3    H136662   2.498   4.138  13.784  1.0388  1.6874  0.2783
 5057TIP3    H236663   2.381   4.210  13.848 -0.6324 -0.4406 -0.2397
 5058TIP3   OH236664   0.161   5.911  14.585 -0.4869  0.4010 -0.0019
 5058TIP3    H136665   0.100   5.973  14.543  1.6041  1.6490 -1.3682
 5058TIP3    H236666   0.167   5.941  14.675 -0.5331  1.3642 -0.3063
 5059TIP3   OH236667   0.089   2.246   1.684 -0.3633  0.1190  1.1232
 5059TIP3    H136668   0.086   2.193   1.604  0.6672  0.1858  1.0330
 5059TIP3    H236669   0.174   2.290   1.681 -0.0446 -0.3417  2.5491
 5060TIP3   OH236670   3.521   1.168  14.056  0.6461 -0.7796 -0.6494
 5060TIP3    H136671   3.476   1.113  13.992  0.1916 -0.7288 -0.3816
 5060TIP3    H236672   3.550   1.107  14.124  0.2304 -0.7072 -0.4023
 5061TIP3   OH236673   0.579   0.955  15.300 -0.4941  0.0762 -0.0359
 5061TIP3    H136674   0.623   1.000  15.228 -0.5146  0.0210 -0.0829
 5061TIP3    H236675   0.492   0.993  15.304 -0.2825  0.5375  0.3797
 5062TIP3   OH236676   2.240   0.054   4.716  0.3972  0.0519  0.2089
 5062TIP3    H136677   2.260   0.072   4.808  0.5868  1.3861 -0.0590
 5062TIP3    H236678   2.204   0.137   4.683  0.9413 -0.1916 -1.0768
 5063TIP3   OH236679   6.429   3.850  16.450 -0.3777  0.1002  0.3320
 5063TIP3    H136680   6.347   3.860  16.402  0.1330  0.0499 -0.5571
 5063TIP3    H236681   6.441   3.934  16.494 -2.1338 -0.6650  2.4722
 5064TIP3   OH236682   5.190   5.193  13.670 -0.2143 -0.6354 -0.0290
 5064TIP3    H136683   5.121   5.138  13.633 -0.3948  0.0533 -0.7451
 5064TIP3    H236684   5.158   5.215  13.757 -1.2573  0.2603 -0.6089
 5065TIP3   OH236685   0.883   1.554   5.058 -0.2768 -0.1414 -0.3565
 5065TIP3    H136686   0.971   1.538   5.092 -0.1419 -2.2919 -1.5647
 5065TIP3    H236687   0.869   1.648   5.071  2.3893  0.3709 -0.6331
 5066TIP3   OH236688   4.231   0.726   5.752 -0.0563 -0.0437  0.2526
 5066TIP3    H136689   4.322   0.702   5.739 -0.0439 -0.5834  1.2429
 5066TIP3    H236690   4.222   0.738   5.847 -1.2268 -0.9615  0.2918
 5067TIP3   OH236691   1.329   0.234   2.164  0.5072  0.3159  0.1612
 5067TIP3    H136692   1.368   0.294   2.099  0.5764 -0.0534 -0.1402
 5067TIP3    H236693   1.360   0.267   2.248  2.6645 -0.8047 -0.1348
 5068TIP3   OH236694   6.529   1.576  16.798  0.2884 -0.2612  0.4603
 5068TIP3    H136695   6.495   1.654  16.842 -0.5316  0.4464 -1.3354
 5068TIP3    H236696   6.458   1.512  16.806 -0.3637  0.2707 -0.8257
 5069TIP3   OH236697   6.549   1.560  15.331 -0.0703  0.0666 -0.1774
 5069TIP3    H136698   6.521   1.635  15.278 -1.0537 -1.5679 -2.1414
 5069TIP3    H236699   6.478   1.496  15.322  0.1947 -0.7011  2.3905
 5070TIP3   OH236700   1.228   5.292   3.293 -0.2038 -0.2189 -0.5133
 5070TIP3    H136701   1.226   5.213   3.238 -1.5842  0.6299 -1.7500
 5070TIP3    H236702   1.138   5.323   3.294  0.2727  1.2404  0.1165
 5071TIP3   OH236703   3.501   6.060   3.249  0.0373  0.2492  0.3255
 5071TIP3    H136704   3.480   6.004   3.324  1.7776 -2.3233 -0.9425
 5071TIP3    H236705   3.563   6.124   3.284  0.8463 -0.9300  1.1351
 5072TIP3   OH236706   3.500   6.254   0.488  0.2513 -0.1567  0.1881
 5072TIP3    H136707   3.551   6.335   0.477 -0.6801  0.3182 -0.8652
 5072TIP3    H236708   3.495   6.218   0.399 -0.9473 -0.3682  0.3326
 5073TIP3   OH236709   3.572   2.535  17.203  0.6158 -0.2986 -0.5561
 5073TIP3    H136710   3.625   2.459  17.226  0.9676 -0.1555 -0.8873
 5073TIP3    H236711   3.534   2.513  17.118 -0.5876 -0.7780  0.0740
 5074TIP3   OH236712   5.445   5.665  14.616  0.4304  0.1960 -0.1820
 5074TIP3    H136713   5.434   5.623  14.531  0.4572  0.6918 -0.4349
 5074TIP3    H236714   5.537   5.650  14.639  0.0290 -1.3149  0.5093
 5075TIP3   OH236715   4.631   2.481  15.079 -0.7958 -0.3568 -0.4313
 5075TIP3    H136716   4.553   2.450  15.125 -1.1073 -0.2811 -0.9040
 5075TIP3    H236717   4.684   2.403  15.066 -0.0317 -0.1799  1.3049
 5076TIP3   OH236718   1.522   2.141  11.942  0.6133 -0.0117  0.2651
 5076TIP3    H136719   1.529   2.060  11.892  0.8001 -0.3381  0.8182
 5076TIP3    H236720   1.594   2.138  12.005 -0.0055  0.0887  0.9970
 5077TIP3   OH236721   3.862   0.718  13.560  0.0215 -0.1226  0.1222
 5077TIP3    H136722   3.858   0.646  13.622 -0.8592 -0.1560  0.0366
 5077TIP3    H236723   3.909   0.787  13.606  0.2744 -0.5107  0.4481
 5078TIP3   OH236724   1.664   4.417  12.494  0.3123  0.0235 -0.0539
 5078TIP3    H136725   1.744   4.466  12.477  1.0304 -1.5142 -1.4013
 5078TIP3    H236726   1.687   4.360  12.568 -0.1816  0.9170  0.8137
 5079TIP3   OH236727   5.477   5.834   4.539  0.2965 -0.2610 -0.2178
 5079TIP3    H136728   5.409   5.768   4.537  0.4132 -0.3811 -0.2413
 5079TIP3    H236729   5.553   5.792   4.497  0.2716 -0.0029 -0.5285
 5080TIP3   OH236730   5.082   3.725   5.131  0.5196 -0.1170 -0.1403
 5080TIP3    H136731   5.085   3.747   5.038 -0.8539 -1.1899 -0.4799
 5080TIP3    H236732   5.008   3.775   5.165 -1.1774 -2.2438 -0.4319
 5081TIP3   OH236733   0.332   4.706  16.031 -0.1792 -0.4149  0.0294
 5081TIP3    H136734   0.281   4.691  15.952 -1.8782 -1.6639  1.2832
 5081TIP3    H236735   0.359   4.798  16.026 -1.8122  0.0441 -1.1114
 5082TIP3   OH236736   0.861   2.722   3.666  0.0108 -0.2522  0.3766
 5082TIP3    H136737   0.837   2.629   3.663 -2.0543  0.2015  1.0109
 5082TIP3    H236738   0.826   2.758   3.585 -1.0495  0.3418  1.0821
 5083TIP3   OH236739   4.014   3.065   0.430  0.0575 -0.5665  0.5784
 5083TIP3    H136740   4.098   3.027   0.457  1.4879  0.5200 -1.9874
 5083TIP3    H236741   4.037   3.148   0.389 -1.9711 -1.3405 -2.4203
 5084TIP3   OH236742   2.595   4.946   3.428 -0.3893  0.1430  0.1356
 5084TIP3    H136743   2.545   4.941   3.509  0.5385  0.4263  0.7351
 5084TIP3    H236744   2.625   4.856   3.413 -1.4661 -0.1392 -0.5046
 5085TIP3   OH236745   6.225   3.307  12.075  0.1138  0.0055  0.3155
 5085TIP3    H136746   6.251   3.390  12.034 -0.5566 -0.0915 -0.3273
 5085TIP3    H236747   6.308   3.264  12.097  0.4767  1.1852  1.3945
 5086TIP3   OH236748   4.609   3.030   0.013  0.1283 -0.1218  0.4343
 5086TIP3    H136749   4.675   2.960   0.021 -0.2718 -0.5281  0.2097
 5086TIP3    H236750   4.661   3.110   0.006  0.6459 -0.5207 -0.6901
 5087TIP3   OH236751   4.704   4.338   3.116  0.1194  0.3230  0.0490
 5087TIP3    H136752   4.757   4.397   3.062  0.6679 -0.1874  0.0244
 5087TIP3    H236753   4.613   4.361   3.096  0.2590 -0.9721 -2.3774
 5088TIP3   OH236754   4.859   2.719   4.274  0.2611  0.0584  0.9635
 5088TIP3    H136755   4.950   2.690   4.284 -0.0864 -1.5269 -0.0531
 5088TIP3    H236756   4.831   2.680   4.191 -1.0631  1.3410  0.7731
 5089TIP3   OH236757   2.032   2.940  14.030 -0.5378 -0.0288  0.0723
 5089TIP3    H136758   2.004   2.984  13.950 -0.0040  0.7187  0.2909
 5089TIP3    H236759   2.023   2.847  14.010  0.1123  0.1326 -1.0583
 5090TIP3   OH236760   4.242   3.702  12.476 -0.0477 -0.2250  0.0960
 5090TIP3    H136761   4.163   3.653  12.499  1.1883 -3.3641 -1.6142
 5090TIP3    H236762   4.218   3.750  12.397 -0.1050 -1.9060 -0.9707
 5091TIP3   OH236763   3.295   4.580   0.947 -0.4336 -0.1930  0.0847
 5091TIP3    H136764   3.203   4.598   0.926 -1.4835 -3.3619  1.3807
 5091TIP3    H236765   3.336   4.667   0.951 -2.5515  1.2249 -3.6390
 5092TIP3   OH236766   5.904   0.958  14.885  0.0354  0.2506  0.2208
 5092TIP3    H136767   5.903   0.862  14.880 -1.4881  0.1691  1.1742
 5092TIP3    H236768   5.811   0.982  14.889  0.3337  1.8687 -1.2020
 5093TIP3   OH236769   2.008   4.420   1.281  0.3850  0.3079 -0.1928
 5093TIP3    H136770   1.919   4.385   1.284  0.2737  0.6528  1.0827
 5093TIP3    H236771   2.004   4.492   1.218 -0.0501 -0.1541 -0.7049
 5094TIP3   OH236772   6.126   6.119   5.499 -0.1393  0.4144  0.4660
 5094TIP3    H136773   6.161   6.076   5.578  0.8333  1.2890  0.5467
 5094TIP3    H236774   6.168   6.205   5.500 -2.1291  1.4237  0.3900
 5095TIP3   OH236775   0.566   4.522   0.510  0.3735 -0.3622 -0.0040
 5095TIP3    H136776   0.606   4.598   0.468  0.7884 -0.7503 -0.3203
 5095TIP3    H236777   0.516   4.479   0.440  1.7745 -1.5052 -0.3566
 5096TIP3   OH236778   3.373   4.876   6.010  0.4023  0.1834 -0.4231
 5096TIP3    H136779   3.415   4.797   6.045  0.7579  0.5936  0.0979
 5096TIP3    H236780   3.394   4.875   5.917  2.1354  0.7074 -0.0716
 5097TIP3   OH236781   1.153   3.302   2.636 -0.0983 -0.3840 -0.6107
 5097TIP3    H136782   1.237   3.276   2.598  0.5597  0.4869  0.1871
 5097TIP3    H236783   1.102   3.222   2.639  1.4878 -1.3885  0.8538
 5098TIP3   OH236784   5.335   1.956   1.829 -0.1232  0.4219 -0.4073
 5098TIP3    H136785   5.428   1.934   1.821  0.2504  1.5979  0.3415
 5098TIP3    H236786   5.335   2.044   1.866 -1.5602 -0.0621  0.8227
 5099TIP3   OH236787   3.016   3.248  13.441  0.5427 -0.0579  0.1122
 5099TIP3    H136788   3.092   3.205  13.481  1.3013  1.2224  0.1053
 5099TIP3    H236789   2.992   3.190  13.369  0.5596 -1.2461  1.0217
 5100TIP3   OH236790   1.532   0.299   4.150 -0.5387 -0.0270 -0.5204
 5100TIP3    H136791   1.544   0.306   4.056 -0.4798  0.0320 -0.5093
 5100TIP3    H236792   1.620   0.314   4.186 -0.7452  1.0163 -0.4079
 5101TIP3   OH236793   5.807   6.664  14.459  0.2369  0.0038 -0.1030
 5101TIP3    H136794   5.776   6.670  14.368  1.1880 -1.8080 -0.5828
 5101TIP3    H236795   5.763   6.588  14.495  0.6151  0.1330  0.6597
 5102TIP3   OH236796   0.310   4.319   2.589  0.3575  0.4582  0.4661
 5102TIP3    H136797   0.332   4.293   2.500  1.1495  1.0078  0.4939
 5102TIP3    H236798   0.214   4.316   2.592  0.3484 -2.7645  0.5767
 5103TIP3   OH236799   2.388   0.022  16.029 -0.4184 -0.7288  0.5588
 5103TIP3    H136800   2.455   0.084  16.057 -0.5431 -1.5224  2.8316
 5103TIP3    H236801   2.391   0.025  15.934  3.4282 -1.3036  0.4812
 5104TIP3   OH236802   3.531   6.804  10.324  0.3999  0.2510 -0.3068
 5104TIP3    H136803   3.552   6.878  10.381 -1.3182  1.4326 -1.1158
 5104TIP3    H236804   3.616   6.771  10.295  1.2313  1.1193  1.0388
 5105TIP3   OH236805   0.428   3.611   1.431 -0.0075 -0.3514 -0.5137
 5105TIP3    H136806   0.344   3.582   1.468  0.1873  1.5513  1.6397
 5105TIP3    H236807   0.404   3.677   1.366 -0.2157 -1.0592 -1.1713
 5106TIP3   OH236808   5.257   5.394   6.594  0.7202  0.0470 -0.2951
 5106TIP3    H136809   5.214   5.447   6.661  1.8920  0.3819  0.2150
 5106TIP3    H236810   5.187   5.341   6.557 -0.3483  1.4529 -0.3443
 5107TIP3   OH236811   6.341   5.413   5.266  0.0454  0.0676 -0.7752
 5107TIP3    H136812   6.281   5.482   5.238 -1.5573 -0.2432  1.6288
 5107TIP3    H236813   6.283   5.339   5.288  1.4294 -0.7599  0.2216
 5108TIP3   OH236814   1.625   0.860   5.911 -0.4529  0.1982 -0.0528
 5108TIP3    H136815   1.637   0.810   5.830  0.2444  1.4651 -0.7605
 5108TIP3    H236816   1.629   0.952   5.883 -2.4394  0.6904  1.0859
 5109TIP3   OH236817   0.202   5.121   5.410 -0.9497 -0.4247  0.3814
 5109TIP3    H136818   0.247   5.194   5.452 -1.3507 -0.5407  1.0251
 5109TIP3    H236819   0.113   5.153   5.395 -0.7116 -0.2538 -0.7363
 5110TIP3   OH236820   5.173   1.311   1.497  0.0885 -0.0234  0.2350
 5110TIP3    H136821   5.171   1.223   1.534  0.0702 -0.8314 -1.5487
 5110TIP3    H236822   5.261   1.343   1.516  0.3141 -0.6902  0.3486
 5111TIP3   OH236823   1.666   2.324  13.541  0.6499  0.1010 -0.1934
 5111TIP3    H136824   1.591   2.277  13.504 -0.2882  0.9482  0.5361
 5111TIP3    H236825   1.638   2.416  13.539  2.0648  0.5446 -0.7638
 5112TIP3   OH236826   3.749   3.330  16.521 -0.4845 -0.0718  0.1216
 5112TIP3    H136827   3.791   3.373  16.595 -2.0618  0.1832  0.9194
 5112TIP3    H236828   3.811   3.339  16.449  0.7729  0.3114  1.2240
 5113TIP3   OH236829   6.134   0.408   4.383  0.6382  0.1700 -0.2998
 5113TIP3    H136830   6.182   0.335   4.422  2.1109  0.9291 -0.6288
 5113TIP3    H236831   6.048   0.371   4.362  1.3061 -1.4303 -0.3649
 5114TIP3   OH236832   1.783   4.030   3.360 -0.2896 -0.6038  0.2176
 5114TIP3    H136833   1.723   3.988   3.297  0.8127  0.3315 -1.5472
 5114TIP3    H236834   1.838   3.959   3.392 -1.5350 -1.2713  0.9301
 5115TIP3   OH236835   2.129   0.863  14.472  0.4576 -0.6167 -0.2607
 5115TIP3    H136836   2.196   0.921  14.508  0.9888 -1.0333 -0.5461
 5115TIP3    H236837   2.164   0.838  14.386  0.7541 -2.1656  0.2636
 5116TIP3   OH236838   5.163   3.991  13.925  0.7530 -0.3049 -0.1823
 5116TIP3    H136839   5.128   3.986  14.014 -0.0384 -0.9448 -0.5223
 5116TIP3    H236840   5.155   4.084  13.901 -1.9161 -0.6090 -0.7167
 5117TIP3   OH236841   1.646   0.137   1.520 -0.0378  0.3797 -0.3216
 5117TIP3    H136842   1.734   0.166   1.497 -0.3018 -1.0210 -3.7314
 5117TIP3    H236843   1.607   0.211   1.567  2.7794  1.1559  0.9777
 5118TIP3   OH236844   0.273   1.782   3.612 -0.5980  0.3460  0.0800
 5118TIP3    H136845   0.222   1.846   3.661 -0.1968 -0.0312  1.0287
 5118TIP3    H236846   0.241   1.697   3.644  0.0808  0.1031  0.1379
 5119TIP3   OH236847   2.181   4.069   0.064 -0.2318  0.0844  0.1757
 5119TIP3    H136848   2.088   4.076   0.081 -0.0395 -0.9509  1.9061
 5119TIP3    H236849   2.188   4.008  -0.009 -0.8735 -1.0927  1.0658
 5120TIP3   OH236850   6.382   1.175  13.844 -0.2492  0.2079 -0.2974
 5120TIP3    H136851   6.433   1.125  13.908  0.0637 -0.8002 -1.3077
 5120TIP3    H236852   6.350   1.251  13.893 -0.3442 -0.7373  1.1560
 5121TIP3   OH236853   3.288   2.991  16.973 -0.0797 -0.3348  0.2160
 5121TIP3    H136854   3.343   2.912  16.972  0.2946 -0.1042  1.3328
 5121TIP3    H236855   3.290   3.020  17.064 -0.1886  0.9943 -0.1917
 5122TIP3   OH236856   6.806   4.078   2.637 -0.4111  0.2842 -0.0524
 5122TIP3    H136857   6.827   4.172   2.631 -1.0481  0.4686  0.5251
 5122TIP3    H236858   6.809   4.047   2.547  0.1610  0.7779 -0.2140
 5123TIP3   OH236859   0.523   5.616   5.647 -0.0582  0.7312 -0.0908
 5123TIP3    H136860   0.587   5.545   5.650 -1.6781 -0.7728  2.7845
 5123TIP3    H236861   0.570   5.692   5.682  0.5205 -0.0407  0.8472
 5124TIP3   OH236862   6.174   2.834  13.401  0.2087 -0.7455 -0.3347
 5124TIP3    H136863   6.262   2.847  13.436 -0.2787  0.2167  0.5904
 5124TIP3    H236864   6.188   2.788  13.318  1.6918  0.6997 -0.9641
 5125TIP3   OH236865   6.185   3.531   1.332 -0.1136  0.0224  0.0172
 5125TIP3    H136866   6.152   3.490   1.253  0.6838  0.2958 -0.4682
 5125TIP3    H236867   6.140   3.486   1.404  0.6827 -1.6546 -0.4877
 5126TIP3   OH236868   0.734   1.034  15.082  0.1056  0.6634  0.6157
 5126TIP3    H136869   0.704   1.110  15.033 -1.7680 -0.0081  0.6119
 5126TIP3    H236870   0.741   0.964  15.017  0.5279  0.5056  0.8264
 5127TIP3   OH236871   1.071   4.480  16.912  0.3344 -0.0222 -0.0375
 5127TIP3    H136872   1.040   4.421  16.844 -0.0350 -0.8946  0.8539
 5127TIP3    H236873   1.090   4.562  16.867  1.0899 -0.8908 -1.3520
 5128TIP3   OH236874   4.437   0.760  12.871  0.3805  0.1193 -0.6145
 5128TIP3    H136875   4.477   0.846  12.858  1.3157 -0.1263  0.4859
 5128TIP3    H236876   4.491   0.718  12.937 -1.7613 -0.2028  1.0393
 5129TIP3   OH236877   4.713   1.418   2.717 -0.1562  0.4560  0.9724
 5129TIP3    H136878   4.697   1.423   2.811  0.2378  0.7511  1.0279
 5129TIP3    H236879   4.655   1.485   2.680  1.1934  1.7934  1.2092
 5130TIP3   OH236880   2.472   4.835   5.649  0.2827  0.1205  0.4865
 5130TIP3    H136881   2.512   4.749   5.663 -1.2836 -0.6421  0.4679
 5130TIP3    H236882   2.480   4.850   5.554  0.9383  0.2094  0.5501
 5131TIP3   OH236883   0.881   5.530  13.163 -0.4743 -0.2031  0.3869
 5131TIP3    H136884   0.911   5.603  13.108 -1.3301 -1.2862 -1.6165
 5131TIP3    H236885   0.875   5.456  13.104  0.1577 -1.9087  2.3317
 5132TIP3   OH236886   5.722   0.690   3.877  0.2187 -0.0129  0.0635
 5132TIP3    H136887   5.649   0.641   3.915  0.6115 -0.1910  0.6000
 5132TIP3    H236888   5.778   0.624   3.837 -0.3785  0.2059 -1.1776
 5133TIP3   OH236889   4.103   5.776  15.491  0.1829 -0.0598 -0.5356
 5133TIP3    H136890   4.017   5.748  15.523  0.3386 -0.2219 -0.2506
 5133TIP3    H236891   4.162   5.704  15.515  0.3893  0.0296 -0.7728
 5134TIP3   OH236892   1.816   6.402  16.138 -0.1893  0.0206 -0.9168
 5134TIP3    H136893   1.738   6.372  16.090 -0.9219  2.5139 -1.4805
 5134TIP3    H236894   1.798   6.380  16.229 -2.9244  2.7846 -0.6022
 5135TIP3   OH236895   2.249   5.071  11.536 -0.0169 -0.1345  0.0213
 5135TIP3    H136896   2.214   5.127  11.466  1.4607 -0.4664 -1.0241
 5135TIP3    H236897   2.318   5.123  11.577  2.6455 -1.6908 -2.1381
 5136TIP3   OH236898   0.634   5.447   6.254  0.0530  0.0316 -0.2252
 5136TIP3    H136899   0.713   5.486   6.217  1.5701 -0.0714  2.6250
 5136TIP3    H236900   0.569   5.517   6.252  0.1990  0.1849 -2.4073
 5137TIP3   OH236901   6.116   3.428  14.273 -0.0714 -0.5832  0.1482
 5137TIP3    H136902   6.116   3.354  14.335  0.7345 -0.6038  0.1432
 5137TIP3    H236903   6.029   3.465  14.280  0.1684 -0.2367  1.7347
 5138TIP3   OH236904   2.614   5.210  12.714 -0.3231 -0.2558 -0.5300
 5138TIP3    H136905   2.619   5.292  12.763  0.4371 -1.5767  1.7119
 5138TIP3    H236906   2.667   5.225  12.636  2.8266  0.3057  1.5584
 5139TIP3   OH236907   5.796   5.077  11.063  0.4437  0.2128  0.2183
 5139TIP3    H136908   5.748   5.034  11.134 -0.6212 -0.2885 -0.7839
 5139TIP3    H236909   5.778   5.024  10.986 -0.0243  1.8322 -0.8358
 5140TIP3   OH236910   4.702   5.859   0.661  0.7235 -0.7604 -0.0249
 5140TIP3    H136911   4.672   5.768   0.666  0.4384 -0.6519  0.2301
 5140TIP3    H236912   4.763   5.860   0.587 -0.7285 -0.7377 -1.2612
 5141TIP3   OH236913   4.881   4.033  15.911 -0.1566 -0.3132  0.3535
 5141TIP3    H136914   4.886   4.039  16.007  0.8922 -0.2872  0.3014
 5141TIP3    H236915   4.886   4.124  15.881  0.0032 -0.3552  0.2517
 5142TIP3   OH236916   1.960   5.151  15.029 -0.2973  0.3300  0.0188
 5142TIP3    H136917   1.885   5.210  15.019 -0.2359  0.7887  1.9427
 5142TIP3    H236918   1.976   5.118  14.940 -2.8639  0.0760 -0.4336
 5143TIP3   OH236919   5.401   2.318  15.831  0.3508 -0.5748  0.0206
 5143TIP3    H136920   5.313   2.356  15.837 -0.3254 -2.2757  3.2487
 5143TIP3    H236921   5.399   2.266  15.750 -0.6993  1.3660 -1.2737
 5144TIP3   OH236922   4.841   2.969  11.040 -0.3782 -0.9375  0.3030
 5144TIP3    H136923   4.863   3.040  10.979  0.2064 -0.6717  0.8095
 5144TIP3    H236924   4.770   2.921  10.997 -0.0535 -0.6864 -0.5278
 5145TIP3   OH236925   5.317   2.897   3.241  0.3987  0.3428  0.1475
 5145TIP3    H136926   5.277   2.821   3.283  0.5348  0.6717  0.8879
 5145TIP3    H236927   5.409   2.873   3.232  0.1393 -0.2453 -1.1710
 5146TIP3   OH236928   5.814   3.192  13.457  0.8407  0.7225 -0.1753
 5146TIP3    H136929   5.865   3.113  13.476  0.0048  0.2638  0.2622
 5146TIP3    H236930   5.768   3.171  13.375  2.0109  1.4778 -1.0595
 5147TIP3   OH236931   5.126   4.578  11.792  0.1575 -0.0689 -0.0150
 5147TIP3    H136932   5.089   4.490  11.799  0.8229 -0.4049 -0.6457
 5147TIP3    H236933   5.063   4.626  11.738  0.5064 -0.5704 -0.8889
 5148TIP3   OH236934   1.281   1.140  16.000 -0.5294  0.6039  0.5879
 5148TIP3    H136935   1.278   1.062  15.943 -2.2565  1.7780 -1.0251
 5148TIP3    H236936   1.196   1.141  16.043 -0.2897  1.2835  1.0472
 5149TIP3   OH236937   1.854   4.792   2.990 -0.5218  0.2719 -0.0426
 5149TIP3    H136938   1.929   4.846   3.015  0.1001 -0.3804 -0.4390
 5149TIP3    H236939   1.808   4.844   2.924  0.2144  0.2201 -0.6071
 5150TIP3   OH236940   3.314   3.959   1.681  0.3135  0.4422 -0.2664
 5150TIP3    H136941   3.330   4.035   1.737  1.4968  0.1973 -0.2492
 5150TIP3    H236942   3.233   3.920   1.716 -1.0308  2.3851 -1.0639
 5151TIP3   OH236943   4.228   6.576   5.353  0.0261  0.2054  0.4820
 5151TIP3    H136944   4.184   6.502   5.395  0.7136 -0.3889  0.1717
 5151TIP3    H236945   4.270   6.623   5.425  2.3581 -1.5806  0.3862
 5152TIP3   OH236946   1.382   3.049   4.588  0.2156 -0.1770 -0.3170
 5152TIP3    H136947   1.465   3.063   4.635 -0.5458  0.1229  1.0111
 5152TIP3    H236948   1.321   3.110   4.629 -1.2641 -2.0005  0.3841
 5153TIP3   OH236949   2.089   4.315  16.460  0.0556  0.8072  0.5298
 5153TIP3    H136950   2.053   4.399  16.490  0.7045  1.6818 -1.0306
 5153TIP3    H236951   2.080   4.318  16.365 -1.6279 -1.7320  0.5327
 5154TIP3   OH236952   3.682   2.141  13.507 -0.0765 -0.3788  0.2141
 5154TIP3    H136953   3.693   2.188  13.424 -0.9274  0.0205  0.3198
 5154TIP3    H236954   3.696   2.049  13.484 -3.3333 -0.6732 -1.0494
 5155TIP3   OH236955   1.252   4.994   5.778  0.5274  0.0144  0.1195
 5155TIP3    H136956   1.218   5.057   5.842 -0.5330  1.0472 -1.4091
 5155TIP3    H236957   1.216   4.910   5.806 -0.7151  0.6031  0.3352
 5156TIP3   OH236958   0.925   4.462  12.872  0.7116  0.0489  0.2581
 5156TIP3    H136959   1.002   4.414  12.843  0.6344 -0.5334  0.9945
 5156TIP3    H236960   0.957   4.522  12.939  0.7928  0.9798 -0.5948
 5157TIP3   OH236961   3.550   0.844  11.372 -0.1388  0.0494  0.4102
 5157TIP3    H136962   3.510   0.855  11.286  2.3365  0.4607 -0.7543
 5157TIP3    H236963   3.614   0.914  11.379  0.5827 -0.7080  2.0774
 5158TIP3   OH236964   6.741   5.208  12.992 -0.4871 -0.2942  0.1218
 5158TIP3    H136965   6.772   5.287  13.038 -1.7304  0.6164 -0.5213
 5158TIP3    H236966   6.720   5.146  13.062 -3.0580  1.3331  0.9391
 5159TIP3   OH236967   6.548   1.384  11.615 -0.3397  0.3317 -0.2718
 5159TIP3    H136968   6.604   1.435  11.557 -0.1710  1.7581  1.0854
 5159TIP3    H236969   6.602   1.310  11.643  0.9190  1.6715  0.9987
 5160TIP3   OH236970   6.106   2.501  14.758 -0.3632  0.5646 -0.5316
 5160TIP3    H136971   6.052   2.557  14.703  0.9631  0.0501 -2.4360
 5160TIP3    H236972   6.132   2.428  14.702  1.9387  0.5648  0.4003
 5161TIP3   OH236973   3.214   4.270  13.849 -0.4692 -0.0218  0.2976
 5161TIP3    H136974   3.161   4.250  13.772 -0.3997 -1.8430  0.6826
 5161TIP3    H236975   3.237   4.185  13.885 -1.0018  0.7726  2.6861
 5162TIP3   OH236976   4.517   6.290   4.102  0.0936 -0.0998  0.4522
 5162TIP3    H136977   4.452   6.360   4.094 -0.0193 -0.2835 -0.3311
 5162TIP3    H236978   4.597   6.328   4.065  0.2755 -0.0831  0.8531
 5163TIP3   OH236979   5.499   1.695   3.486 -0.1597 -0.4295 -0.0685
 5163TIP3    H136980   5.523   1.739   3.404 -1.4954  0.1026 -0.2049
 5163TIP3    H236981   5.432   1.752   3.524 -1.2546 -1.8820  0.2317
 5164TIP3   OH236982   1.693   4.922  12.187 -0.6649 -0.1912 -0.6359
 5164TIP3    H136983   1.717   4.849  12.131 -1.0466  0.1849 -1.2938
 5164TIP3    H236984   1.721   4.895  12.275  0.9357 -0.3387 -1.1556
 5165TIP3   OH236985   4.915   2.480   5.264 -0.7828 -0.0273  0.0503
 5165TIP3    H136986   4.899   2.399   5.312  0.8877 -0.1708  0.4158
 5165TIP3    H236987   4.872   2.548   5.315 -0.2226 -0.3698  0.9828
 5166TIP3   OH236988   2.091   1.128  16.066  0.1482  0.4850  0.3183
 5166TIP3    H136989   2.044   1.178  16.133 -1.8749  1.9322 -2.0136
 5166TIP3    H236990   2.163   1.185  16.039 -0.2714  0.8180 -0.1269
 5167TIP3   OH236991   2.592   2.518   0.145 -0.5014  0.0353 -0.0850
 5167TIP3    H136992   2.555   2.574   0.077 -0.1597  1.2365  0.6775
 5167TIP3    H236993   2.518   2.467   0.178 -1.0776  0.8919 -0.0053
 5168TIP3   OH236994   3.271   3.878   5.456 -0.5391 -0.4620 -0.2957
 5168TIP3    H136995   3.290   3.796   5.412  1.5103 -0.7457  0.9536
 5168TIP3    H236996   3.243   3.852   5.544  0.1349  0.1679  0.1144
 5169TIP3   OH236997   5.197   1.792  14.661  0.8108  0.0215 -0.1025
 5169TIP3    H136998   5.107   1.777  14.632  0.6399 -0.2452  0.5383
 5169TIP3    H236999   5.217   1.716  14.717  1.7868 -0.4309 -1.0268
 5170TIP3   OH237000   0.522   4.558  16.692 -0.1933 -0.0079 -0.0200
 5170TIP3    H137001   0.561   4.639  16.724  0.6039 -0.6414  0.6555
 5170TIP3    H237002   0.562   4.543  16.606 -0.2621  0.2557 -0.0970
 5171TIP3   OH237003   2.191   3.844   4.339 -0.1561  0.1401  0.0953
 5171TIP3    H137004   2.208   3.799   4.257  1.0773  0.2338  0.2813
 5171TIP3    H237005   2.118   3.902   4.320 -1.1132 -1.1819 -0.4203
 5172TIP3   OH237006   5.059   6.162   2.140 -0.4671 -0.0315  0.2682
 5172TIP3    H137007   5.104   6.133   2.219  0.0501  0.2073  0.0631
 5172TIP3    H237008   4.996   6.092   2.121 -0.6528 -0.0467  0.9360
 5173TIP3   OH237009   5.762   1.880   6.622 -0.1094 -0.2600 -0.1770
 5173TIP3    H137010   5.676   1.896   6.660 -0.0304 -0.8163  0.2525
 5173TIP3    H237011   5.797   1.967   6.604 -0.6558 -0.0236 -0.1149
 5174TIP3   OH237012   5.342   1.269   4.150  0.4064  0.0990 -0.8094
 5174TIP3    H137013   5.333   1.179   4.118  0.7628 -0.3457  0.3142
 5174TIP3    H237014   5.265   1.314   4.116 -0.3607 -0.9100 -0.4648
 5175TIP3   OH237015   3.209   1.865   5.264 -0.1953  0.1370  0.1946
 5175TIP3    H137016   3.263   1.908   5.198 -1.4105  0.1552 -0.8211
 5175TIP3    H237017   3.134   1.830   5.215 -1.0709  0.0479  1.5393
 5176TIP3   OH237018   0.190   0.261  11.373  0.4823 -0.1850  0.2137
 5176TIP3    H137019   0.138   0.223  11.443 -0.7211 -0.4460 -0.7926
 5176TIP3    H237020   0.260   0.197  11.358  0.2973 -0.4941  0.6457
 5177TIP3   OH237021   1.640   2.635   0.821  0.3853  0.5512  0.3686
 5177TIP3    H137022   1.618   2.569   0.755  0.2965  1.2638 -0.3344
 5177TIP3    H237023   1.731   2.618   0.843  0.1998 -0.1634  0.6282
 5178TIP3   OH237024   1.588   0.412  12.135  0.2719  0.1366  0.2250
 5178TIP3    H137025   1.586   0.372  12.048  0.8324 -1.7471  1.0229
 5178TIP3    H237026   1.544   0.496  12.124 -4.2758 -2.0716 -0.8630
 5179TIP3   OH237027   4.105   6.533  15.503 -0.1030  0.4248 -0.0288
 5179TIP3    H137028   4.033   6.504  15.446  2.2996 -1.3618 -2.4610
 5179TIP3    H237029   4.164   6.458  15.505  1.3269  1.5310  2.5425
 5180TIP3   OH237030   6.239   0.062  12.097  0.2621 -0.0586  0.4935
 5180TIP3    H137031   6.259  -0.026  12.129  1.7331  0.1317  0.1869
 5180TIP3    H237032   6.231   0.115  12.176 -1.4710 -0.5900  0.7226
 5181TIP3   OH237033   1.016   2.424   3.878 -0.2469 -0.0619  0.0837
 5181TIP3    H137034   0.931   2.440   3.917 -0.8730  0.5982 -1.4559
 5181TIP3    H237035   1.066   2.504   3.896 -0.9270  0.7394 -1.3773
 5182TIP3   OH237036   3.388   5.471   1.863 -0.1235  0.4079 -0.1086
 5182TIP3    H137037   3.317   5.407   1.862  0.3026 -0.1891  2.2962
 5182TIP3    H237038   3.453   5.436   1.802 -1.8101  0.9582 -2.3326
 5183TIP3   OH237039   2.424   3.171   3.597 -0.2446  0.0383  0.0153
 5183TIP3    H137040   2.334   3.145   3.619 -0.5591  0.8037 -0.3424
 5183TIP3    H237041   2.479   3.121   3.657 -0.9196 -0.3347  0.3278
 5184TIP3   OH237042   6.189   5.534  16.875  0.1216 -0.2983  0.1511
 5184TIP3    H137043   6.197   5.439  16.869 -2.7255 -0.5595 -0.9021
 5184TIP3    H237044   6.230   5.567  16.794  1.2411 -0.5732  0.5885
 5185TIP3   OH237045   6.733   2.641  12.075 -0.1452  0.6789  0.0287
 5185TIP3    H137046   6.639   2.626  12.067  0.1500 -1.4130  0.0959
 5185TIP3    H237047   6.757   2.685  11.993 -1.4566  3.1753  0.8616
 5186TIP3   OH237048   4.191   2.869  13.391  0.3674 -0.1113 -0.2313
 5186TIP3    H137049   4.257   2.879  13.460 -0.0216 -1.7435  0.4152
 5186TIP3    H237050   4.168   2.959  13.367 -0.1820  0.5394  2.4427
 5187TIP3   OH237051   4.795   5.289  14.683  0.0640  0.5043 -0.2517
 5187TIP3    H137052   4.700   5.292  14.696 -0.1060 -1.9035 -0.4303
 5187TIP3    H237053   4.826   5.227  14.749  1.2911  0.0710 -1.1958
 5188TIP3   OH237054   5.992   1.035  11.784  0.0454 -0.3046  0.0298
 5188TIP3    H137055   5.945   0.966  11.830 -0.0241 -0.1802  0.1468
 5188TIP3    H237056   6.078   0.997  11.764  0.3794 -0.0800  0.9918
 5189TIP3   OH237057   6.485   5.205  15.719  0.3294 -0.1664  0.3842
 5189TIP3    H137058   6.567   5.171  15.684  0.2968 -0.5118  0.6398
 5189TIP3    H237059   6.495   5.200  15.814 -0.2585 -0.8683  0.4126
 5190TIP3   OH237060   2.446   0.865   5.325  0.4707 -0.2618  0.3404
 5190TIP3    H137061   2.352   0.845   5.324  0.5363 -0.5795 -0.2605
 5190TIP3    H237062   2.481   0.813   5.397  0.3703 -1.0791 -0.1846
 5191TIP3   OH237063   5.648   3.304   5.509  0.1805  0.3408 -0.4630
 5191TIP3    H137064   5.616   3.266   5.427  0.2411 -2.5422  0.6991
 5191TIP3    H237065   5.735   3.265   5.521 -0.0979  0.1723  1.2412
 5192TIP3   OH237066   4.880   4.626  15.463 -0.3796 -0.0994  0.3621
 5192TIP3    H137067   4.921   4.541  15.480  1.5716  0.8902  0.8409
 5192TIP3    H237068   4.814   4.634  15.531  0.0699 -0.8291  0.9049
 5193TIP3   OH237069   4.456   2.713  11.388  0.0133 -0.9430  0.3192
 5193TIP3    H137070   4.430   2.795  11.346  0.3096 -1.3860 -0.7760
 5193TIP3    H237071   4.378   2.685  11.437 -0.9142 -1.2037 -1.2271
 5194TIP3   OH237072   0.586   3.243   4.125  0.0108 -0.4645 -0.2056
 5194TIP3    H137073   0.525   3.207   4.060 -0.1325 -1.7814  0.6202
 5194TIP3    H237074   0.627   3.317   4.080 -1.5259 -0.0975 -1.0883
 5195TIP3   OH237075   6.705   2.571   2.685 -0.1652 -0.4121  0.4304
 5195TIP3    H137076   6.780   2.517   2.709 -1.6703 -2.0227  1.7695
 5195TIP3    H237077   6.675   2.607   2.769 -0.7202  0.4581 -0.1320
 5196TIP3   OH237078   0.367   3.602  11.668  0.0706 -0.4660  0.1365
 5196TIP3    H137079   0.317   3.546  11.727  0.5956  0.0648  1.1148
 5196TIP3    H237080   0.302   3.636  11.607 -0.3999 -1.4193  0.0860
 5197TIP3   OH237081   0.323   0.069  17.148  0.0949 -0.2730 -0.8381
 5197TIP3    H137082   0.276   0.094  17.069 -0.9603 -0.1574 -0.1921
 5197TIP3    H237083   0.259   0.077  17.218  0.7544 -1.2493 -0.0886
 5198TIP3   OH237084   4.790   2.430  17.075 -0.3318 -0.5244 -0.0255
 5198TIP3    H137085   4.798   2.525  17.063  0.1161 -0.7189 -1.4633
 5198TIP3    H237086   4.829   2.413  17.161 -0.6592  0.6194  0.3647
 5199TIP3   OH237087   2.503   0.783  16.174  0.1186 -0.6628 -0.0625
 5199TIP3    H137088   2.529   0.838  16.248  1.6130 -0.0426 -1.0233
 5199TIP3    H237089   2.414   0.811  16.153 -0.0717 -0.3829  1.0518
 5200TIP3   OH237090   5.279   0.949   3.992  0.1215 -0.2503 -0.8786
 5200TIP3    H137091   5.221   0.993   4.055  1.2187  1.6913 -1.1499
 5200TIP3    H237092   5.312   0.873   4.040  0.0282  0.5374  0.5030
 5201TIP3   OH237093   1.989   4.662  15.775  0.0594 -0.1194 -0.3880
 5201TIP3    H137094   1.900   4.674  15.742 -0.1739  1.2059  0.6130
 5201TIP3    H237095   2.043   4.715  15.717  0.0776 -0.2400 -0.4820
 5202TIP3   OH237096   2.791   6.785   5.540  0.2314  0.3192 -0.5478
 5202TIP3    H137097   2.775   6.865   5.590  0.7550 -0.2800  0.6183
 5202TIP3    H237098   2.798   6.717   5.606  0.7331 -0.5388 -1.4628
 5203TIP3   OH237099   4.625   5.865   6.682  0.2986 -0.2282  0.3267
 5203TIP3    H137100   4.618   5.925   6.607  0.3139 -0.0667  0.4535
 5203TIP3    H237101   4.682   5.911   6.744 -1.5077  0.6479  1.4125
 5204TIP3   OH237102   4.932   4.961  14.628 -0.5842 -0.2295  0.1027
 5204TIP3    H137103   4.854   4.980  14.680  0.3824  0.8349  1.2129
 5204TIP3    H237104   4.990   4.914  14.688 -0.5183 -1.4061 -0.8437
 5205TIP3   OH237105   5.658   3.539   0.335  0.4060 -0.3958  0.6752
 5205TIP3    H137106   5.737   3.521   0.386  1.1212 -0.4562 -0.4253
 5205TIP3    H237107   5.668   3.487   0.256  0.7243  1.8663 -0.8563
 5206TIP3   OH237108   6.459   5.304  14.536  0.4240  0.0300  0.1837
 5206TIP3    H137109   6.480   5.277  14.447  0.4799  1.0076 -0.1153
 5206TIP3    H237110   6.456   5.400  14.531 -1.0093  0.0442  0.9059
 5207TIP3   OH237111   6.670   4.633   5.238 -0.6128  0.6276  0.4307
 5207TIP3    H137112   6.688   4.672   5.323 -0.6602  1.5157  0.0490
 5207TIP3    H237113   6.708   4.545   5.243 -0.6218  0.6697  1.3632
 5208TIP3   OH237114   1.727   0.426  15.579 -0.1000  0.3798 -0.3343
 5208TIP3    H137115   1.685   0.372  15.646 -1.6147  0.8436 -0.8678
 5208TIP3    H237116   1.757   0.364  15.513 -2.6122  0.1647 -1.3772
 5209TIP3   OH237117   0.567   0.563  17.129  0.4195 -0.5159  0.3641
 5209TIP3    H137118   0.569   0.577  17.224 -0.6049 -0.9959  0.4619
 5209TIP3    H237119   0.533   0.475  17.118  1.9379 -1.0470 -0.4262
 5210TIP3   OH237120   1.254   1.606  12.423  0.0505 -0.2519 -0.4531
 5210TIP3    H137121   1.264   1.511  12.437  1.1604 -0.1943 -0.7325
 5210TIP3    H237122   1.268   1.617  12.329 -1.7021  0.0207 -0.7211
 5211TIP3   OH237123   4.418   0.199  11.223  0.6676  0.6610  0.0778
 5211TIP3    H137124   4.423   0.106  11.244  1.8387  0.7854  0.4141
 5211TIP3    H237125   4.478   0.210  11.150  0.4944  1.1479  0.0073
 5212TIP3   OH237126   1.100   3.718   4.456  0.0313 -0.0603  0.2350
 5212TIP3    H137127   1.195   3.718   4.464  0.1040  0.6267 -0.4506
 5212TIP3    H237128   1.078   3.808   4.432 -0.5001 -0.8174 -2.4923
 5213TIP3   OH237129   6.419   5.009  12.901  0.2820 -0.2537 -0.0880
 5213TIP3    H137130   6.420   5.100  12.872 -0.7069 -0.8449 -2.1984
 5213TIP3    H237131   6.369   4.963  12.833 -0.0804 -2.2090  1.4085
 5214TIP3   OH237132   6.593   2.039  10.975  0.0238  0.1265 -0.6149
 5214TIP3    H137133   6.654   2.096  10.928 -0.1789  0.1697 -0.8271
 5214TIP3    H237134   6.591   1.959  10.923  1.2814 -0.5721  0.3621
 5215TIP3   OH237135   0.747   4.613   5.112  0.0375 -0.5061  0.0210
 5215TIP3    H137136   0.683   4.676   5.145 -0.1559 -0.0723 -1.1305
 5215TIP3    H237137   0.747   4.627   5.017  2.2238 -0.1477  0.0348
 5216TIP3   OH237138   0.272   4.020   5.149  0.0744  0.5416 -0.4349
 5216TIP3    H137139   0.198   4.027   5.088 -0.1335 -1.3284 -0.4568
 5216TIP3    H237140   0.344   4.065   5.104 -0.9644  2.2466 -0.4877
 5217TIP3   OH237141   2.642   6.416   0.790 -0.8223  0.7049 -0.6906
 5217TIP3    H137142   2.670   6.432   0.700  0.4044  0.1264 -0.4302
 5217TIP3    H237143   2.548   6.431   0.788 -0.6248  2.0465 -1.7655
 5218TIP3   OH237144   4.177   1.928   1.707  0.5534  0.5890 -0.0522
 5218TIP3    H137145   4.145   1.867   1.773 -1.6957  2.6077  0.8608
 5218TIP3    H237146   4.261   1.959   1.741  0.3797  0.0862  0.8556
 5219TIP3   OH237147   3.831   6.578   5.655 -0.1479 -0.1128  0.5594
 5219TIP3    H137148   3.913   6.581   5.704  0.8153  0.2650 -1.0249
 5219TIP3    H237149   3.847   6.631   5.578 -1.7004 -0.5160 -0.0754
 5220TIP3   OH237150   4.187   5.971   0.106 -0.4171  0.2220  0.2322
 5220TIP3    H137151   4.173   6.040   0.171  1.6131 -1.7055  2.9536
 5220TIP3    H237152   4.129   5.900   0.133 -0.8638 -0.0007 -1.2088
 5221TIP3   OH237153   5.986   5.102   1.818  0.0081 -0.1421  0.6416
 5221TIP3    H137154   6.060   5.080   1.761 -0.5024 -0.8116  0.2188
 5221TIP3    H237155   6.007   5.060   1.901  0.8827  1.0597  1.0556
 5222TIP3   OH237156   6.595   4.566   2.847  0.3626  0.7739 -0.3061
 5222TIP3    H137157   6.574   4.478   2.877  3.7065 -0.1252 -0.1910
 5222TIP3    H237158   6.677   4.587   2.891  0.9681  2.9286 -2.2761
 5223TIP3   OH237159   6.061   0.665  15.733  0.3550 -0.3523  0.4084
 5223TIP3    H137160   5.996   0.669  15.803 -0.4463  0.7805 -0.3714
 5223TIP3    H237161   6.009   0.657  15.652  1.1866  0.3381 -0.2117
 5224TIP3   OH237162   4.057   3.082   3.114  0.4263  0.4555  0.5047
 5224TIP3    H137163   4.017   3.033   3.185  1.7166  0.5149  1.3142
 5224TIP3    H237164   4.031   3.036   3.034 -1.0471  0.3946  1.0025
 5225TIP3   OH237165   4.859   4.075  14.426 -0.7550 -0.1685 -0.2551
 5225TIP3    H137166   4.793   4.136  14.390 -0.2653 -1.0915 -2.9309
 5225TIP3    H237167   4.941   4.104  14.387 -0.5336 -2.5835 -1.7383
 5226TIP3   OH237168   2.009   0.390  15.667 -0.3012 -0.0628 -0.0485
 5226TIP3    H137169   2.035   0.389  15.760  0.2219 -0.1165 -0.1932
 5226TIP3    H237170   1.928   0.441  15.666 -0.4196 -0.2221  0.4648
 5227TIP3   OH237171   1.685   0.533  16.263 -0.2449  0.2184  0.1609
 5227TIP3    H137172   1.696   0.617  16.308  2.7989  0.1794 -0.2982
 5227TIP3    H237173   1.667   0.470  16.333 -2.1286  1.1344  0.5502
 5228TIP3   OH237174   0.450   1.953   5.567  0.2397 -0.3459 -0.6801
 5228TIP3    H137175   0.519   1.940   5.632 -1.3904 -0.6609  1.0638
 5228TIP3    H237176   0.490   2.008   5.500  2.5240 -1.4740 -0.3231
 5229TIP3   OH237177   3.932   2.262  11.313  0.4319  0.3104  0.3482
 5229TIP3    H137178   4.011   2.291  11.267  0.0514 -1.0081 -1.2296
 5229TIP3    H237179   3.947   2.169  11.331 -1.0765 -0.1868 -0.7598
 5230TIP3   OH237180   4.165   2.077  17.013  0.5650 -0.5661 -0.2511
 5230TIP3    H137181   4.129   2.005  17.066  1.6739  0.1483  1.5601
 5230TIP3    H237182   4.259   2.067  17.021  0.7285  0.8136 -0.3507
 5231TIP3   OH237183   2.394   2.687   4.770 -0.2359  0.2186  0.5103
 5231TIP3    H137184   2.373   2.742   4.695 -0.8375 -0.8415 -0.1123
 5231TIP3    H237185   2.475   2.642   4.745  0.0865  0.5726  0.8948
 5232TIP3   OH237186   4.526   0.185   0.460 -0.2150  0.1900  0.0533
 5232TIP3    H137187   4.492   0.226   0.381 -1.1593  2.6267  1.6134
 5232TIP3    H237188   4.451   0.178   0.518  0.6811 -0.3797  1.1836
 5233TIP3   OH237189   5.279   1.325   2.085 -0.2267  0.0281  0.1887
 5233TIP3    H137190   5.209   1.346   2.023 -0.8644 -1.3314  0.4110
 5233TIP3    H237191   5.311   1.239   2.056  0.2236 -0.1095  1.0817
 5234TIP3   OH237192   2.560   5.400   6.180  0.4307  0.1062  0.5282
 5234TIP3    H137193   2.600   5.475   6.222  0.2977  0.5200 -0.0624
 5234TIP3    H237194   2.477   5.434   6.145  0.4864 -0.2527  0.0412
 5235TIP3   OH237195   1.474   6.380   4.895  0.5596  0.2949 -0.7914
 5235TIP3    H137196   1.559   6.387   4.850  0.2603  1.2422 -1.2475
 5235TIP3    H237197   1.413   6.425   4.836  0.3045  2.3896  0.9514
 5236TIP3   OH237198   5.495   2.027  13.889 -0.5693 -0.1226 -1.0868
 5236TIP3    H137199   5.417   2.077  13.865  0.1357  1.2465 -0.6156
 5236TIP3    H237200   5.501   2.035  13.984 -0.8563 -1.7730 -0.8931
 5237TIP3   OH237201   6.331   5.589   2.431 -0.3204  0.8145 -0.2338
 5237TIP3    H137202   6.369   5.640   2.503  1.8442 -0.2438 -0.5541
 5237TIP3    H237203   6.380   5.616   2.353  0.9112 -1.6361 -0.4197
 5238TIP3   OH237204   6.690   2.069  11.581 -0.3197  0.3472 -0.0198
 5238TIP3    H137205   6.708   1.990  11.530  0.4767  0.8319 -0.5157
 5238TIP3    H237206   6.610   2.049  11.630  0.3589 -1.1040  0.5679
 5239TIP3   OH237207   2.245   5.781   3.405 -0.3619 -0.6579 -0.1857
 5239TIP3    H137208   2.167   5.818   3.364  0.5215 -0.4111 -1.7311
 5239TIP3    H237209   2.280   5.720   3.341  1.6543  0.4987 -0.2884
 5240TIP3   OH237210   2.407   6.279   4.545  0.0216  0.0265 -0.0987
 5240TIP3    H137211   2.436   6.248   4.630 -1.4302  0.4255  0.5646
 5240TIP3    H237212   2.392   6.373   4.557 -1.6074 -0.1741 -0.3626
 5241TIP3   OH237213   2.610   5.984  12.258  0.2216 -0.1329  0.8983
 5241TIP3    H137214   2.651   5.905  12.221  0.6203  0.1039  0.8347
 5241TIP3    H237215   2.532   5.951  12.302  0.2567 -0.5380  0.6676
 5242TIP3   OH237216   2.528   4.829  13.712 -0.2549  0.2912 -0.2249
 5242TIP3    H137217   2.565   4.863  13.793 -0.0454 -1.1217  0.3067
 5242TIP3    H237218   2.588   4.759  13.686 -0.7488  0.2000 -1.1689
 5243TIP3   OH237219   3.819   0.112  15.249  0.5137 -0.5143 -0.0043
 5243TIP3    H137220   3.728   0.081  15.246  0.2765  0.0761  0.8401
 5243TIP3    H237221   3.871   0.032  15.251 -0.0987 -0.9278  2.4892
 5244TIP3   OH237222   4.586   2.632   1.786  0.3852 -0.0500 -0.2013
 5244TIP3    H137223   4.656   2.621   1.851  0.1489  0.8922  0.2340
 5244TIP3    H237224   4.506   2.630   1.837  0.1610  0.0866 -0.5470
 5245TIP3   OH237225   3.061   0.458  11.897  0.8215 -0.0284  0.2863
 5245TIP3    H137226   3.095   0.438  11.809 -0.5337 -2.5086  0.2302
 5245TIP3    H237227   3.101   0.392  11.954 -2.1496 -1.7748  0.5493
 5246TIP3   OH237228   0.760   6.577   6.518 -0.1127  0.4979 -0.1671
 5246TIP3    H137229   0.785   6.499   6.469  0.8835  0.1993  0.7845
 5246TIP3    H237230   0.666   6.567   6.532 -0.6601  1.1068 -2.8535
 5247TIP3   OH237231   2.286   5.480   1.612  0.4663 -0.1003  0.0788
 5247TIP3    H137232   2.212   5.447   1.664  0.4701 -0.4674 -0.1403
 5247TIP3    H237233   2.312   5.561   1.655 -0.5301  0.4135 -0.2616
 5248TIP3   OH237234   3.124   3.534   0.713 -0.3176 -0.2966  0.4053
 5248TIP3    H137235   3.201   3.560   0.763 -1.0234  0.3042  1.2064
 5248TIP3    H237236   3.127   3.588   0.634 -0.7175  0.8307  1.1379
 5249TIP3   OH237237   0.192   4.339  17.175 -0.5245 -0.2362  0.6286
 5249TIP3    H137238   0.127   4.375  17.114 -0.2223 -1.4278 -0.4284
 5249TIP3    H237239   0.227   4.416  17.221 -2.9808  0.4147  1.5784
 5250TIP3   OH237240   0.662   2.020  16.030  0.6294  0.6591 -0.2901
 5250TIP3    H137241   0.680   1.985  15.942  1.0419 -0.0099  0.0496
 5250TIP3    H237242   0.748   2.047  16.062  0.5095  0.7025 -0.0049
 5251TIP3   OH237243   2.376   4.911   6.474  0.5268 -0.4453 -0.0725
 5251TIP3    H137244   2.301   4.864   6.438 -1.1364  1.1916  1.0732
 5251TIP3    H237245   2.391   4.872   6.560  1.1718 -0.9288 -0.3948
 5252TIP3   OH237246   1.406   5.157  15.624  0.2689  0.1896 -0.3816
 5252TIP3    H137247   1.478   5.189  15.680  0.5060  0.8553 -1.0516
 5252TIP3    H237248   1.448   5.096  15.563  0.2126  0.3500 -0.5814
 5253TIP3   OH237249   4.601   4.758   5.092  0.1863  0.6230 -0.1761
 5253TIP3    H137250   4.531   4.817   5.063 -0.8048 -1.2160 -1.8314
 5253TIP3    H237251   4.672   4.816   5.117 -2.8661  2.8759  5.0342
 5254TIP3   OH237252   6.084   4.300  11.089 -0.7804  0.4964  0.5089
 5254TIP3    H137253   6.173   4.310  11.053 -0.3538 -1.2301  0.9847
 5254TIP3    H237254   6.076   4.371  11.152 -0.5765  2.0017 -1.0685
 5255TIP3   OH237255   1.652   3.520   4.115 -0.3741 -0.2063 -0.4243
 5255TIP3    H137256   1.641   3.522   4.020 -0.3565 -0.1788 -0.4257
 5255TIP3    H237257   1.567   3.547   4.150 -0.7608 -1.3952 -0.4114
 5256TIP3   OH237258   4.131   2.173  15.670 -0.1412  0.1510  0.1357
 5256TIP3    H137259   4.089   2.259  15.674 -0.9428 -0.2080 -0.3329
 5256TIP3    H237260   4.207   2.185  15.614  0.4794  0.8493  1.1108
 5257TIP3   OH237261   2.942   3.527   0.050 -0.1863  0.0178 -0.5633
 5257TIP3    H137262   2.996   3.558  -0.023  0.1436 -1.6643 -1.0780
 5257TIP3    H237263   2.854   3.557   0.029 -0.1962 -0.8972 -1.9661
 5258TIP3   OH237264   5.133   5.919  11.498 -0.0429  0.7053 -0.0763
 5258TIP3    H137265   5.184   5.851  11.541 -0.6740 -0.0313 -0.4773
 5258TIP3    H237266   5.094   5.969  11.570  1.5371  1.5401  0.2537
 5259TIP3   OH237267   3.813   3.044  15.191  0.2201 -0.0404  0.3559
 5259TIP3    H137268   3.880   2.986  15.154 -0.0737  1.2061 -2.3602
 5259TIP3    H237269   3.753   2.985  15.236  1.7393 -1.4377  0.6683
 5260TIP3   OH237270   1.683   3.740  16.268 -0.3452  0.3128  0.4006
 5260TIP3    H137271   1.727   3.657  16.247 -0.8821  0.3011 -0.7531
 5260TIP3    H237272   1.754   3.804  16.274  0.0891 -0.2243  1.4210
 5261TIP3   OH237273   5.385   4.521  14.602 -0.2386 -0.1597  0.3407
 5261TIP3    H137274   5.346   4.561  14.524 -0.9475  1.2053  1.3396
 5261TIP3    H237275   5.329   4.446  14.620  0.4551 -1.0161 -0.9460
 5262TIP3   OH237276   0.522   3.599  15.260 -0.5718 -0.0770  0.6718
 5262TIP3    H137277   0.596   3.539  15.254  0.6900  1.3947  0.6260
 5262TIP3    H237278   0.536   3.645  15.343 -1.6947 -0.0818  0.8760
 5263TIP3   OH237279   2.114   5.540  12.189 -0.2384 -0.0085 -0.1769
 5263TIP3    H137280   2.172   5.581  12.125 -1.1659  0.9247 -0.4640
 5263TIP3    H237281   2.033   5.524  12.141 -0.8828  0.5168  0.6824
 5264TIP3   OH237282   3.951   2.534  16.604  0.7943 -0.4266 -0.1028
 5264TIP3    H137283   3.945   2.604  16.539 -1.5768 -0.4579  0.0208
 5264TIP3    H237284   3.970   2.579  16.686 -1.0577  0.1530  0.0407
 5265TIP3   OH237285   5.965   6.727  13.799  0.6913 -0.4030 -0.0897
 5265TIP3    H137286   6.014   6.686  13.729 -0.1376  0.4339 -1.2050
 5265TIP3    H237287   5.909   6.791  13.755 -1.0130 -0.9524  1.1685
 5266TIP3   OH237288   5.766   4.850   4.850  0.6194  0.3796 -0.3609
 5266TIP3    H137289   5.684   4.852   4.799  0.9090 -0.0121 -0.8472
 5266TIP3    H237290   5.756   4.777   4.910  1.0155 -0.3030 -1.1115
 5267TIP3   OH237291   4.062   4.655  12.297  0.6173 -0.2856 -0.3852
 5267TIP3    H137292   3.978   4.699  12.309  0.3320 -1.1682  1.1840
 5267TIP3    H237293   4.119   4.695  12.364 -0.1111 -3.2919  2.2368
 5268TIP3   OH237294   0.553   5.560  14.424  0.1454 -0.1981  0.0695
 5268TIP3    H137295   0.465   5.578  14.458  0.4758  0.2574  0.6888
 5268TIP3    H237296   0.554   5.466  14.407 -0.9425  0.0024 -1.3043
 5269TIP3   OH237297   2.799   0.019  14.963  0.1431  0.2408 -0.0959
 5269TIP3    H137298   2.880   0.065  14.943  0.3258 -0.4942 -1.1496
 5269TIP3    H237299   2.790   0.024  15.058  2.4531 -1.3431  0.2833
 5270TIP3   OH237300   4.590   6.606  12.556 -0.4345  0.3718 -0.3239
 5270TIP3    H137301   4.642   6.686  12.552 -1.1312  0.8418 -0.1263
 5270TIP3    H237302   4.510   6.627  12.507  0.1947 -0.8455 -1.9925
 5271TIP3   OH237303   1.983   4.805   3.714  0.1648  0.0596 -0.5989
 5271TIP3    H137304   1.888   4.812   3.725 -0.2154 -0.3703 -3.0087
 5271TIP3    H237305   2.009   4.892   3.683  0.3963 -0.0713 -0.7780
 5272TIP3   OH237306   0.117   2.265  15.860  0.1360  0.3642 -0.3708
 5272TIP3    H137307   0.199   2.304  15.891  0.0826 -0.5792  1.0676
 5272TIP3    H237308   0.104   2.301  15.773  2.8768 -0.6127 -1.2740
 5273TIP3   OH237309   5.387   3.521  16.155  0.4186 -0.5750  0.3537
 5273TIP3    H137310   5.353   3.470  16.229 -0.1252  0.6149  0.9423
 5273TIP3    H237311   5.472   3.552  16.185  2.1261 -3.4153 -1.0618
 5274TIP3   OH237312   4.924   4.980  12.329  0.3383  0.1337  0.5882
 5274TIP3    H137313   4.943   5.043  12.399 -1.4301  1.0719  0.2861
 5274TIP3    H237314   4.977   5.011  12.255  0.2735  0.6615  0.7561
 5275TIP3   OH237315   0.791   3.112   3.333 -0.3103  0.2131 -0.3166
 5275TIP3    H137316   0.755   3.052   3.268  1.0149 -1.2538  0.2323
 5275TIP3    H237317   0.880   3.129   3.303 -0.8870  2.6657 -0.9161
 5276TIP3   OH237318   5.506   4.490  13.358  0.1034 -0.1893  0.7159
 5276TIP3    H137319   5.435   4.513  13.418 -0.3245 -0.4951  0.3257
 5276TIP3    H237320   5.529   4.573  13.316  1.0926  0.2388  2.0128
 5277TIP3   OH237321   3.825   1.487  13.592  0.6032  0.0519 -0.5345
 5277TIP3    H137322   3.912   1.527  13.601  0.5793  0.0819 -0.4403
 5277TIP3    H237323   3.782   1.502  13.676  0.4458  0.1852 -0.6356
 5278TIP3   OH237324   6.104   6.260  11.937  0.3234 -0.5294  0.0535
 5278TIP3    H137325   6.011   6.271  11.914  0.5843 -1.2225 -1.5027
 5278TIP3    H237326   6.128   6.176  11.899  1.3229 -0.8839  1.4106
 5279TIP3   OH237327   3.768   5.436  12.553  0.4547 -0.5291 -0.6278
 5279TIP3    H137328   3.681   5.474  12.540  1.3077  1.3838 -1.1112
 5279TIP3    H237329   3.794   5.465  12.641  0.8785 -0.5273 -0.7503
 5280TIP3   OH237330   2.769   0.051  15.233 -0.8467 -1.2759 -0.9067
 5280TIP3    H137331   2.675   0.040  15.219 -0.9445 -2.0900  0.2276
 5280TIP3    H237332   2.790  -0.008  15.306  0.2511  0.0185 -0.1173
 5281TIP3   OH237333   0.773   1.186   2.252 -0.5804  0.2191  0.1259
 5281TIP3    H137334   0.868   1.192   2.242 -0.4482 -0.4333  0.9192
 5281TIP3    H237335   0.741   1.273   2.230  0.3649  0.9723  1.5992
 5282TIP3   OH237336   2.562   4.803   2.662  0.1451  0.1368  0.0699
 5282TIP3    H137337   2.627   4.851   2.610  0.6443 -0.3750  0.2050
 5282TIP3    H237338   2.601   4.716   2.674 -1.6182 -1.0211 -1.9053
 5283TIP3   OH237339   4.566   0.524  14.111  0.0705 -0.2317 -0.4261
 5283TIP3    H137340   4.519   0.470  14.175  2.4620 -0.4843  1.2800
 5283TIP3    H237341   4.552   0.614  14.142  0.1692 -0.2601 -0.2957
 5284TIP3   OH237342   0.336   4.668   5.659  0.0835 -0.3625  0.5211
 5284TIP3    H137343   0.266   4.655   5.723 -1.0024  0.1478 -0.5205
 5284TIP3    H237344   0.292   4.662   5.574  1.1995  0.5763 -0.1492
 5285TIP3   OH237345   3.487   4.825  15.953 -0.0431 -0.8996  0.0427
 5285TIP3    H137346   3.432   4.791  15.883 -0.3467 -3.0030  1.2227
 5285TIP3    H237347   3.567   4.772  15.949  0.2665 -0.5086  0.7910
 5286TIP3   OH237348   3.884   3.780   2.680  0.5133  0.2100  0.1945
 5286TIP3    H137349   3.793   3.755   2.663  1.0242 -2.6065  0.9535
 5286TIP3    H237350   3.921   3.794   2.593 -0.2172 -0.4725 -0.2494
 5287TIP3   OH237351   4.932   4.841   4.351  0.3612  0.2918 -0.2538
 5287TIP3    H137352   5.001   4.777   4.372  2.3733  2.7038  0.9502
 5287TIP3    H237353   4.867   4.829   4.420  1.4491  0.5092  0.8418
 5288TIP3   OH237354   4.791   4.554   4.211  0.3161  0.2545 -0.1766
 5288TIP3    H137355   4.858   4.497   4.249  0.8113 -0.4560 -1.9944
 5288TIP3    H237356   4.775   4.620   4.278  1.2100 -0.8454  1.1879
 5289TIP3   OH237357   3.859   1.894   3.203 -0.8982  0.0687 -0.3783
 5289TIP3    H137358   3.780   1.853   3.167 -2.4722 -0.3963  3.2360
 5289TIP3    H237359   3.866   1.860   3.292  2.5220  1.3559  0.0050
 5290TIP3   OH237360   4.797   1.789  15.429  0.1141 -0.0621  0.6249
 5290TIP3    H137361   4.769   1.815  15.341  1.3461 -0.8730 -0.0309
 5290TIP3    H237362   4.872   1.731  15.415  3.0487  2.9448  2.2554
 5291TIP3   OH237363   0.875   0.879   4.903 -0.3836  0.1559  0.2480
 5291TIP3    H137364   0.924   0.818   4.849  0.7636  0.4480  0.9111
 5291TIP3    H237365   0.787   0.842   4.909  0.1456 -1.1304  0.2045
 5292TIP3   OH237366   0.277   1.114  13.569 -0.4419  0.4706 -0.1928
 5292TIP3    H137367   0.329   1.162  13.633 -2.0702  0.4011  1.2368
 5292TIP3    H237368   0.197   1.090  13.615 -1.2126 -0.5406 -1.9383
 5293TIP3   OH237369   4.929   2.468   3.858  0.1463 -0.1190  0.1645
 5293TIP3    H137370   5.013   2.504   3.885  0.6378 -0.3266 -1.0513
 5293TIP3    H237371   4.938   2.450   3.765 -1.1239 -0.4953  0.0850
 5294TIP3   OH237372   2.688   1.295   4.053  0.4395  0.2389 -0.1699
 5294TIP3    H137373   2.713   1.325   3.966  1.5588  0.4079  0.1933
 5294TIP3    H237374   2.603   1.336   4.069 -0.1292 -0.3768 -1.4569
 5295TIP3   OH237375   2.873   4.008  15.837  0.5287 -0.5538 -0.2111
 5295TIP3    H137376   2.868   4.005  15.742 -2.9907 -0.3893 -0.1734
 5295TIP3    H237377   2.845   4.097  15.859  3.1412  0.0560  1.0183
 5296TIP3   OH237378   0.761   4.199   4.714  0.2922 -0.0195 -0.0927
 5296TIP3    H137379   0.808   4.279   4.691  1.8712 -1.4393 -2.2208
 5296TIP3    H237380   0.822   4.152   4.772 -0.0962 -0.2366  0.1396
 5297TIP3   OH237381   0.425   5.541   1.439  0.5337  0.7719 -0.3725
 5297TIP3    H137382   0.373   5.503   1.509 -0.6070  1.2092 -0.9460
 5297TIP3    H237383   0.515   5.515   1.457  0.0020 -0.7177  0.1872
 5298TIP3   OH237384   6.187   4.147   5.750 -0.1044  0.0491  0.5155
 5298TIP3    H137385   6.264   4.146   5.693 -0.6448 -0.2171 -0.2351
 5298TIP3    H237386   6.114   4.125   5.691 -0.6689 -0.3060  1.3352
 5299TIP3   OH237387   2.908   5.687   3.444  0.1941  0.2817 -0.0331
 5299TIP3    H137388   2.850   5.612   3.432 -0.8503  1.0125  0.3140
 5299TIP3    H237389   2.996   5.649   3.448 -0.5074 -1.3611  3.5225
 5300TIP3   OH237390   5.103   2.628   2.741 -0.1168  0.2098  0.3567
 5300TIP3    H137391   5.096   2.534   2.757  0.7765  0.2241  0.8842
 5300TIP3    H237392   5.044   2.644   2.667  0.4717 -0.9286 -0.3851
 5301TIP3   OH237393   2.442   6.436  15.019  0.1036  0.2407 -0.0293
 5301TIP3    H137394   2.496   6.470  14.947 -0.5288  0.7441 -0.2689
 5301TIP3    H237395   2.372   6.388  14.975  0.6724 -0.9238  0.2944
 5302TIP3   OH237396   2.038   5.651  11.198 -0.3321  0.6188  0.2347
 5302TIP3    H137397   2.108   5.692  11.147 -0.4579  0.5951  0.0407
 5302TIP3    H237398   1.986   5.604  11.133  0.6359 -1.0646  0.6239
 5303TIP3   OH237399   5.873   6.204   4.184 -0.6672  0.2214 -0.3583
 5303TIP3    H137400   5.913   6.219   4.270 -0.1417 -1.3311 -0.3094
 5303TIP3    H237401   5.826   6.121   4.194  2.3637 -1.9558 -2.5364
 5304TIP3   OH237402   5.983   3.232   5.230  0.2503  0.2966  0.0703
 5304TIP3    H137403   5.976   3.204   5.139 -3.1296 -1.5093  0.7152
 5304TIP3    H237404   6.049   3.173   5.267 -0.2739 -0.7759 -0.6475
 5305TIP3   OH237405   5.547   1.006   5.568  0.1384 -0.2704 -0.7776
 5305TIP3    H137406   5.496   1.082   5.539  0.7894  0.0544 -1.1119
 5305TIP3    H237407   5.623   1.044   5.611  0.7915 -0.7223 -1.5062
 5306TIP3   OH237408   3.739   1.132  16.662 -0.4563 -0.2927 -0.3655
 5306TIP3    H137409   3.751   1.061  16.724  0.9313 -0.8449 -1.2144
 5306TIP3    H237410   3.768   1.096  16.578  0.8510  1.4199 -0.7074
 5307TIP3   OH237411   0.159   1.655   0.993 -0.5546 -0.5963  0.1624
 5307TIP3    H137412   0.179   1.740   1.032  0.6204 -0.8432  0.1276
 5307TIP3    H237413   0.192   1.662   0.904  1.1893 -1.6762  0.6829
 5308TIP3   OH237414   6.460   6.047  11.802  0.4507  0.0599 -0.1530
 5308TIP3    H137415   6.413   5.996  11.867  1.0704  0.7775  0.8824
 5308TIP3    H237416   6.391   6.094  11.755 -0.0501 -1.0225 -0.5218
 5309TIP3   OH237417   1.361   1.148   0.875  0.3583 -0.0022 -0.0750
 5309TIP3    H137418   1.326   1.215   0.933  0.1491  0.6734 -0.9566
 5309TIP3    H237419   1.373   1.193   0.791  2.5073 -0.4215 -0.0647
 5310TIP3   OH237420   6.215   0.017  12.743 -0.3666  0.2456 -0.1147
 5310TIP3    H137421   6.140   0.072  12.721 -0.4949 -0.0280 -0.3566
 5310TIP3    H237422   6.248  -0.013  12.659 -0.9199 -0.8882  0.0628
 5311TIP3   OH237423   2.186   1.459   4.938 -0.2691  0.2228  0.4329
 5311TIP3    H137424   2.132   1.538   4.945  0.2378  0.5537  0.6433
 5311TIP3    H237425   2.276   1.492   4.935 -0.0045 -0.4003  1.4468
 5312TIP3   OH237426   5.055   3.596  13.846  0.0901  0.0643  0.4107
 5312TIP3    H137427   5.110   3.554  13.912  0.8844  2.2764  1.2550
 5312TIP3    H237428   4.991   3.645  13.896 -2.6458 -2.2596 -0.5603
 5313TIP3   OH237429   2.789   0.390   4.224  0.6709 -0.2931 -0.0482
 5313TIP3    H137430   2.846   0.367   4.298  0.2636  0.7826  0.6161
 5313TIP3    H237431   2.846   0.438   4.164  0.5869  0.3511  0.3851
 5314TIP3   OH237432   0.742   3.459  11.537 -0.1532  0.3852 -0.3400
 5314TIP3    H137433   0.655   3.423  11.521 -0.2225  0.5012 -0.2302
 5314TIP3    H237434   0.745   3.471  11.632 -1.8906  4.9610 -0.6071
 5315TIP3   OH237435   0.605   1.415   0.719  0.2349  0.3653 -0.2647
 5315TIP3    H137436   0.614   1.507   0.696  0.5279  0.6253  0.8706
 5315TIP3    H237437   0.510   1.399   0.718  0.0650  1.1409  1.2450
 5316TIP3   OH237438   4.459   6.361  13.046  0.0797 -0.1964  0.3989
 5316TIP3    H137439   4.431   6.359  13.137  1.4978 -0.0241  0.8527
 5316TIP3    H237440   4.382   6.332  12.997 -1.4257  1.8162  1.4520
 5317TIP3   OH237441   4.777   3.062   2.682 -0.5701  0.3011  0.5976
 5317TIP3    H137442   4.840   3.046   2.753  1.5847  3.4724 -0.3535
 5317TIP3    H237443   4.720   3.131   2.717 -2.7026 -1.5370  0.9108
 5318TIP3   OH237444   3.216   1.809  14.074  0.0557 -0.2289 -0.1108
 5318TIP3    H137445   3.258   1.805  14.160 -1.4076 -0.5086  0.6317
 5318TIP3    H237446   3.178   1.722  14.062 -1.7918  0.5070  0.0662
 5319TIP3   OH237447   6.023   1.018   6.067 -0.2063 -0.1120  0.5417
 5319TIP3    H137448   6.091   1.012   6.000 -2.2008 -3.0382 -1.4563
 5319TIP3    H237449   6.048   0.954   6.133  1.0005  1.7530  2.0097
 5320TIP3   OH237450   3.192   4.188  11.827 -0.2633 -0.1474 -0.8644
 5320TIP3    H137451   3.135   4.248  11.779 -0.0251 -0.0010 -0.9653
 5320TIP3    H237452   3.133   4.120  11.860 -0.8159  1.0295  0.7015
 5321TIP3   OH237453   1.044   3.490   4.334  0.2086  0.5861  0.3252
 5321TIP3    H137454   1.081   3.573   4.365  1.7292 -0.1902  0.6748
 5321TIP3    H237455   0.963   3.515   4.290  1.3143  2.4332 -0.8143
 5322TIP3   OH237456   6.407   4.768  15.961  0.2128  0.0868 -0.0207
 5322TIP3    H137457   6.442   4.838  16.017 -0.2182 -0.3646  0.8294
 5322TIP3    H237458   6.484   4.715  15.939  0.5242  0.7459 -0.5700
 5323TIP3   OH237459   1.357   3.323   1.902 -0.5061  0.6115 -0.0595
 5323TIP3    H137460   1.264   3.301   1.905 -0.3909  0.1858  0.8093
 5323TIP3    H237461   1.374   3.370   1.984 -0.0238  0.9943 -0.3650
 5324TIP3   OH237462   3.775   1.792  11.621  0.1341 -0.4341  0.2699
 5324TIP3    H137463   3.802   1.855  11.553  0.9924  0.8362  1.7260
 5324TIP3    H237464   3.810   1.708  11.591  2.0620  0.4112 -0.0118
 5325TIP3   OH237465   3.177   6.026  16.766 -0.5578 -0.0069  0.1325
 5325TIP3    H137466   3.213   6.093  16.709 -2.0532 -0.2381 -1.1341
 5325TIP3    H237467   3.116   5.977  16.711 -1.0177 -1.1228  1.5646
 5326TIP3   OH237468   0.574   3.435  14.301 -0.0852 -0.2697 -0.1714
 5326TIP3    H137469   0.591   3.380  14.226  0.0469 -0.7349  0.1950
 5326TIP3    H237470   0.607   3.385  14.376 -0.0369  0.2657  0.1735
 5327TIP3   OH237471   0.441   2.008  14.479 -0.2848 -0.2482 -0.1968
 5327TIP3    H137472   0.349   2.029  14.466 -0.9308 -2.0819  0.9929
 5327TIP3    H237473   0.441   1.920  14.518  1.8984  0.3217  1.2850
 5328TIP3   OH237474   2.541   1.433  11.973  0.0183 -0.7387  0.6721
 5328TIP3    H137475   2.560   1.526  11.968  2.5295 -1.2137 -0.2948
 5328TIP3    H237476   2.473   1.426  12.041  0.7471  1.6459  1.7741
 5329TIP3   OH237477   3.593   1.441  12.834 -0.5150 -0.4293 -0.3203
 5329TIP3    H137478   3.635   1.440  12.748 -1.0862 -1.3321 -0.5984
 5329TIP3    H237479   3.664   1.457  12.896  0.1271 -1.2503 -0.8351
 5330TIP3   OH237480   2.349   2.238   0.882  0.4789 -0.4104 -0.4595
 5330TIP3    H137481   2.440   2.217   0.861  1.2228 -2.0030  3.4633
 5330TIP3    H237482   2.352   2.327   0.915  1.4088 -1.4699  2.6909
 5331TIP3   OH237483   0.469   2.322  11.485 -0.6672 -0.3155 -0.3783
 5331TIP3    H137484   0.495   2.263  11.414 -1.2418 -1.4978  0.3603
 5331TIP3    H237485   0.386   2.287  11.516 -0.9106  0.7637  0.2380
 5332TIP3   OH237486   3.027   4.406   1.058  0.0846 -0.6037 -0.0554
 5332TIP3    H137487   3.118   4.380   1.076 -0.6161 -2.6313  0.8512
 5332TIP3    H237488   2.978   4.324   1.060 -2.1361  0.6666  1.8538
 5333TIP3   OH237489   2.155   5.740   4.640  0.4347 -0.1906 -0.4526
 5333TIP3    H137490   2.141   5.645   4.639 -0.6937 -0.0476  0.7120
 5333TIP3    H237491   2.186   5.759   4.728  1.5868  0.4203 -0.9672
 5334TIP3   OH237492   3.482   1.881   6.446 -0.2011  0.3771  0.2512
 5334TIP3    H137493   3.459   1.968   6.413 -0.0356 -0.3161 -1.8487
 5334TIP3    H237494   3.398   1.839   6.463 -0.3558  0.2704 -0.7035
 5335TIP3   OH237495   0.172   0.609  17.059  0.1706 -0.3450  0.4315
 5335TIP3    H137496   0.178   0.647  17.146  0.4734 -0.0377  0.2820
 5335TIP3    H237497   0.252   0.637  17.015 -0.7318  0.9430 -0.5055
 5336TIP3   OH237498   3.889   4.141  11.522 -0.6612  0.3242  0.0419
 5336TIP3    H137499   3.838   4.096  11.589 -0.7486 -0.6541 -0.6552
 5336TIP3    H237500   3.915   4.223  11.563 -0.8425 -0.1771  1.2154
 5337TIP3   OH237501   5.236   4.819   3.978 -0.0503  0.7485 -0.2060
 5337TIP3    H137502   5.156   4.772   4.003  1.1565 -0.4395  1.5848
 5337TIP3    H237503   5.226   4.906   4.017 -0.1665  0.3697  0.6263
 5338TIP3   OH237504   0.697   5.432  16.717 -0.3247 -0.3545 -0.3473
 5338TIP3    H137505   0.734   5.496  16.656 -0.4402 -0.6910 -0.7722
 5338TIP3    H237506   0.701   5.476  16.802  1.4598 -0.5379 -0.2906
 5339TIP3   OH237507   3.896   0.446  14.043 -0.4585 -1.1193 -0.4794
 5339TIP3    H137508   3.873   0.527  13.998  0.3759 -1.2183 -1.0951
 5339TIP3    H237509   3.900   0.470  14.135  2.5136  0.2381 -0.8710
 5340TIP3   OH237510   2.088   2.234   0.925  0.4214  0.3217 -0.1470
 5340TIP3    H137511   2.182   2.220   0.918  0.3063 -0.1928 -0.7613
 5340TIP3    H237512   2.051   2.187   0.850 -0.4977 -1.1799  1.1927
 5341TIP3   OH237513   3.842   3.271  11.024  0.0287  0.6461  0.0839
 5341TIP3    H137514   3.930   3.306  11.008  0.4811 -0.7263 -0.5867
 5341TIP3    H237515   3.784   3.347  11.016  1.0961  1.4778  0.0312
 5342TIP3   OH237516   6.434   3.509  12.274 -0.2450  0.0928 -0.0673
 5342TIP3    H137517   6.387   3.437  12.318 -1.8136  0.2396 -1.3994
 5342TIP3    H237518   6.505   3.465  12.227  0.4772 -0.2462  1.3028
 5343TIP3   OH237519   6.468   5.507   3.622  0.4890 -0.4009  0.4287
 5343TIP3    H137520   6.551   5.516   3.577  0.4243 -0.0959  0.3696
 5343TIP3    H237521   6.405   5.487   3.553  0.2807  0.6743  0.3011
 5344TIP3   OH237522   1.281   6.075  16.261  0.1344  0.3593 -0.1100
 5344TIP3    H137523   1.292   6.144  16.326 -0.1813  0.6337 -0.3407
 5344TIP3    H237524   1.213   6.108  16.203 -2.2243 -1.3622  1.4607
 5345TIP3   OH237525   0.316   4.595   1.140 -0.1135  0.5752  0.4314
 5345TIP3    H137526   0.407   4.572   1.159  0.2770 -0.2452 -2.0452
 5345TIP3    H237527   0.317   4.690   1.128  0.5931  0.4919 -0.2572
 5346TIP3   OH237528   5.459   1.648  15.159  0.0540  0.0551  0.5822
 5346TIP3    H137529   5.536   1.657  15.102 -0.1333 -1.7898 -0.0521
 5346TIP3    H237530   5.491   1.668  15.247  1.9346 -2.8589  0.7112
 5347TIP3   OH237531   4.850   1.874  15.687 -0.0376  0.4022  0.0822
 5347TIP3    H137532   4.800   1.854  15.608  0.1081  0.0333  0.0803
 5347TIP3    H237533   4.904   1.796  15.702 -2.4085 -0.9772  2.3702
 5348TIP3   OH237534   6.063   5.600   2.355  0.4602 -0.4129 -0.6555
 5348TIP3    H137535   6.152   5.588   2.390  0.2458  0.5351  0.2691
 5348TIP3    H237536   6.018   5.651   2.422 -1.0664 -1.6400 -0.6907
 5349TIP3   OH237537   3.423   3.402  12.747  0.0521 -0.8334 -1.0217
 5349TIP3    H137538   3.458   3.480  12.790 -1.7142  1.0464 -2.7293
 5349TIP3    H237539   3.483   3.332  12.771  2.4142  1.2685 -0.3167
 5350TIP3   OH237540   1.949   4.917   3.298 -0.4664 -0.5298 -0.1638
 5350TIP3    H137541   2.027   4.956   3.336 -0.5517 -0.4461 -0.0734
 5350TIP3    H237542   1.884   4.987   3.299 -0.4301 -0.4883 -0.5876
 5351TIP3   OH237543   2.955   6.295  14.451 -0.5658  0.1151  0.2326
 5351TIP3    H137544   2.932   6.347  14.529  2.0469  1.7209  0.0601
 5351TIP3    H237545   3.036   6.250  14.475 -2.5157 -3.8285  0.2341
 5352TIP3   OH237546   3.518   3.201  15.511  0.2324  0.4510  0.3530
 5352TIP3    H137547   3.483   3.221  15.424 -1.0913  0.7597  0.9474
 5352TIP3    H237548   3.487   3.113  15.531 -0.8716  1.0106  1.1943
 5353TIP3   OH237549   4.418   4.240   2.546  0.2068 -0.0592  0.2727
 5353TIP3    H137550   4.431   4.335   2.555 -0.4882  0.5583 -3.5268
 5353TIP3    H237551   4.504   4.206   2.520 -0.2277  0.1669 -1.6328
 5354TIP3   OH237552   5.995   2.914   6.365  0.2821  0.2047  0.4415
 5354TIP3    H137553   5.947   2.968   6.303 -0.1590 -1.2934 -0.6050
 5354TIP3    H237554   6.087   2.937   6.351  0.1213  0.4557 -0.2149
 5355TIP3   OH237555   2.804   1.418   0.346 -0.2183 -0.5159  0.3683
 5355TIP3    H137556   2.773   1.344   0.293  1.4356 -1.8333  1.1265
 5355TIP3    H237557   2.841   1.376   0.424 -1.8028  1.3010  2.2116
 5356TIP3   OH237558   2.099   6.641   5.316  0.0487 -0.2450 -0.1527
 5356TIP3    H137559   2.094   6.629   5.221 -1.1111  2.8221 -0.5883
 5356TIP3    H237560   2.183   6.685   5.329 -0.6175  1.0162 -0.0204
 5357TIP3   OH237561   5.953   1.543  15.318 -0.5899  0.9555  0.3174
 5357TIP3    H137562   5.885   1.545  15.251  0.5866  1.9684 -0.9011
 5357TIP3    H237563   5.989   1.454  15.314  0.3127  1.3488 -1.3358
 5358TIP3   OH237564   1.821   4.536  16.241  0.0730  0.1302 -0.2801
 5358TIP3    H137565   1.781   4.607  16.189 -1.8164 -1.1555 -0.7005
 5358TIP3    H237566   1.835   4.575  16.327  0.3054  1.3991 -0.8593
 5359TIP3   OH237567   2.711   2.583   4.980  0.1223 -0.6941  0.1777
 5359TIP3    H137568   2.694   2.557   4.890 -3.8170  0.7601  0.3241
 5359TIP3    H237569   2.774   2.654   4.973 -0.2326 -0.5034 -1.4497
 5360TIP3   OH237570   0.249   4.794   0.824 -0.1859  0.0681  0.5154
 5360TIP3    H137571   0.285   4.864   0.770  0.3443  0.1839  0.9970
 5360TIP3    H237572   0.293   4.805   0.909 -0.3552 -0.6336  0.7004
 5361TIP3   OH237573   2.797   3.031  13.655 -0.1230  1.0122  0.1778
 5361TIP3    H137574   2.722   2.985  13.617 -0.6628  0.7003  1.5436
 5361TIP3    H237575   2.758   3.108  13.697 -0.1794 -0.5500  3.3158
 5362TIP3   OH237576   3.213   2.710  11.379 -0.4286 -0.1549  0.4625
 5362TIP3    H137577   3.284   2.659  11.341  0.4042  1.3408 -0.0653
 5362TIP3    H237578   3.199   2.782  11.317 -2.5888 -0.5348  0.4096
 5363TIP3   OH237579   2.597   3.597   4.773 -0.0781  0.1773 -0.2558
 5363TIP3    H137580   2.541   3.672   4.752 -0.5092 -0.4971 -1.5759
 5363TIP3    H237581   2.548   3.547   4.838  0.7345  1.6283  1.5846
 5364TIP3   OH237582   0.253   4.461  12.998  0.5528 -0.3249  0.1824
 5364TIP3    H137583   0.337   4.490  12.963 -0.0954  1.0656 -0.2801
 5364TIP3    H237584   0.272   4.438  13.089  1.3068  0.6106  0.2781
 5365TIP3   OH237585   5.979   3.096   3.071 -0.1435 -0.2067 -0.0557
 5365TIP3    H137586   5.955   3.165   3.009 -0.9898  1.0288  1.5736
 5365TIP3    H237587   6.015   3.026   3.016 -0.5367  0.9602 -1.8916
 5366TIP3   OH237588   6.112   4.019  10.788  0.0906  0.5713 -0.0214
 5366TIP3    H137589   6.179   3.986  10.847  0.2799  2.0593  0.6245
 5366TIP3    H237590   6.046   3.950  10.787  0.0690  0.4941  1.9614
 5367TIP3   OH237591   2.296   3.103  14.055 -0.1321 -0.0473  0.2680
 5367TIP3    H137592   2.224   3.161  14.032 -0.5315 -0.7958 -0.4186
 5367TIP3    H237593   2.254   3.025  14.093  0.2867 -0.6200 -0.4208
 5368TIP3   OH237594   3.252   2.745  15.323  0.0186  0.0125 -0.5840
 5368TIP3    H137595   3.182   2.696  15.365  0.9825 -0.9823 -0.0638
 5368TIP3    H237596   3.266   2.700  15.240  0.4751 -0.2139 -0.3895
 5369TIP3   OH237597   6.245   2.228   0.869  0.4080 -0.2690 -0.0390
 5369TIP3    H137598   6.189   2.285   0.817 -0.5527 -1.3061 -0.2053
 5369TIP3    H237599   6.243   2.266   0.957 -1.9321 -1.1297  0.3647
 5370TIP3   OH237600   5.508   5.856  12.272 -0.6058  0.6442  0.3423
 5370TIP3    H137601   5.433   5.910  12.251 -0.1471  1.5424  0.9509
 5370TIP3    H237602   5.507   5.848  12.367 -1.3168 -1.3980  0.1981
 5371TIP3   OH237603   2.453   1.712   5.436  0.6136  0.1411  0.1592
 5371TIP3    H137604   2.456   1.641   5.501 -0.8429  0.1586  0.2980
 5371TIP3    H237605   2.460   1.792   5.488  0.6432  0.1259  0.1782
 5372TIP3   OH237606   5.050   5.596  10.866 -0.2240 -0.2527  0.2744
 5372TIP3    H137607   5.104   5.660  10.913 -1.3816  0.0864  1.1925
 5372TIP3    H237608   4.979   5.648  10.828  1.6113 -0.2230 -3.4848
 5373TIP3   OH237609   6.290   3.010  15.397 -0.1747 -0.3994 -0.0229
 5373TIP3    H137610   6.292   2.972  15.310 -2.3246  0.4379 -0.5048
 5373TIP3    H237611   6.299   3.104  15.383  0.0732 -0.3054  0.7095
 5374TIP3   OH237612   0.106   3.170  10.204 -0.0393  0.3756 -0.5239
 5374TIP3    H137613   0.081   3.080  10.224 -0.1242  0.4845 -0.1356
 5374TIP3    H237614   0.186   3.185  10.255 -1.0485  1.1207  0.8720
 5375TIP3   OH237615   1.244   4.750  11.460 -0.3024 -0.5333  0.4182
 5375TIP3    H137616   1.224   4.779  11.371 -0.0326  0.2549  0.6013
 5375TIP3    H237617   1.340   4.748  11.462 -0.3184 -1.4566  0.4154
 5376TIP3   OH237618   4.721   3.902  12.075  0.3453  0.1376 -0.4600
 5376TIP3    H137619   4.787   3.866  12.017 -0.5981  0.5148 -1.8118
 5376TIP3    H237620   4.659   3.830  12.088 -0.3286  0.5562 -1.2987
 5377TIP3   OH237621   3.998   4.759  11.520 -0.1159  0.4549 -0.2177
 5377TIP3    H137622   4.052   4.838  11.516 -0.3225  0.5668 -1.0778
 5377TIP3    H237623   3.983   4.745  11.613  4.5034 -1.7393  0.4522
 5378TIP3   OH237624   1.565   6.351   2.217  0.1637 -0.7277  0.1025
 5378TIP3    H137625   1.561   6.264   2.176 -1.3277 -0.1228 -1.1102
 5378TIP3    H237626   1.636   6.396   2.171 -1.0853 -0.2734 -1.4220
 5379TIP3   OH237627   4.189   2.705   1.105  0.5625 -0.1816  0.1859
 5379TIP3    H137628   4.275   2.692   1.146  0.5499  1.3272  0.7530
 5379TIP3    H237629   4.177   2.800   1.105  0.2491 -0.1488 -2.7091
 5380TIP3   OH237630   1.664   2.234  16.608 -0.9410  0.1321 -0.2066
 5380TIP3    H137631   1.681   2.317  16.563 -1.4977 -0.0342 -0.7551
 5380TIP3    H237632   1.623   2.259  16.690 -0.7631  0.4154 -0.2026
 5381TIP3   OH237633   4.947   4.726  16.645 -0.6609 -0.4224 -0.2208
 5381TIP3    H137634   4.946   4.785  16.569 -0.6792  1.1332  0.9370
 5381TIP3    H237635   4.974   4.641  16.609 -1.8629 -0.0508 -2.1618
 5382TIP3   OH237636   1.469   6.112  11.704 -0.8967 -0.0529 -0.2260
 5382TIP3    H137637   1.550   6.141  11.746 -1.8082  0.0239  1.5730
 5382TIP3    H237638   1.498   6.062  11.628  0.8352 -0.1527  0.4570
 5383TIP3   OH237639   6.696   3.415   4.657 -0.0254  0.0252 -0.0234
 5383TIP3    H137640   6.774   3.383   4.701 -0.0880  0.9689  0.7991
 5383TIP3    H237641   6.707   3.386   4.566  0.3001 -1.5749  0.4842
 5384TIP3   OH237642   0.569   5.920  14.589 -0.3385  0.0694  0.0292
 5384TIP3    H137643   0.620   5.996  14.616 -0.4550 -0.5981  2.3241
 5384TIP3    H237644   0.614   5.846  14.630 -0.6425 -1.0459 -1.5673
 5385TIP3   OH237645   6.386   6.537  10.709  0.4061 -0.8618  0.4539
 5385TIP3    H137646   6.457   6.601  10.714  0.9265 -1.1948 -1.6191
 5385TIP3    H237647   6.307   6.588  10.723  0.8883  0.0231  0.0268
 5386TIP3   OH237648   2.216   1.843   0.862 -0.1820 -0.0829  0.1713
 5386TIP3    H137649   2.260   1.882   0.787  0.5224 -1.6832 -0.2906
 5386TIP3    H237650   2.286   1.831   0.927 -0.8592  1.6821  1.2939
 5387TIP3   OH237651   0.988   6.671  16.386 -0.7919  0.2528  0.4867
 5387TIP3    H137652   1.007   6.751  16.435 -0.9687 -0.2964  1.4726
 5387TIP3    H237653   1.065   6.657  16.330  0.6859 -0.6138  2.6242
 5388TIP3   OH237654   5.179   4.673   4.349 -0.5859  0.4044 -0.0226
 5388TIP3    H137655   5.191   4.628   4.266  2.0664  1.5751 -0.3929
 5388TIP3    H237656   5.210   4.610   4.415 -0.1344  0.4264 -0.2076
 5389TIP3   OH237657   2.595   6.003   2.651 -0.0606  0.6520  0.3128
 5389TIP3    H137658   2.665   5.952   2.609 -0.2363  1.2826 -0.7795
 5389TIP3    H237659   2.560   6.058   2.581 -1.7687  0.2413  0.7797
 5390TIP3   OH237660   2.838   5.576   2.288  0.6564  0.7701 -0.1838
 5390TIP3    H137661   2.856   5.511   2.220  0.5152  1.3733 -0.8098
 5390TIP3    H237662   2.909   5.640   2.280  0.8547  0.6513  0.4989
 5391TIP3   OH237663   6.706   1.495  15.734 -0.2025  0.4707  0.6238
 5391TIP3    H137664   6.621   1.528  15.708 -0.7764 -1.3600  0.0216
 5391TIP3    H237665   6.760   1.503  15.655 -0.5959 -0.7627  0.2058
 5392TIP3   OH237666   0.859   3.285   2.886 -0.3310 -0.2938 -0.2480
 5392TIP3    H137667   0.951   3.281   2.912 -0.1684 -1.1022 -0.9057
 5392TIP3    H237668   0.858   3.345   2.811 -0.6551  1.2786  0.9719
 5393TIP3   OH237669   1.608   4.850   0.326  0.5341 -0.2721  0.2159
 5393TIP3    H137670   1.570   4.860   0.413 -0.6702 -1.7969 -0.0966
 5393TIP3    H237671   1.602   4.938   0.287 -1.6813 -0.1956  0.6020
 5394TIP3   OH237672   3.745   5.537  11.122 -0.4254  0.3905  0.0172
 5394TIP3    H137673   3.752   5.471  11.053  3.7550 -1.9230  2.2555
 5394TIP3    H237674   3.832   5.576  11.128 -1.1008  1.7407  2.7577
 5395TIP3   OH237675   5.378   5.670   4.083 -0.6706  0.1555  0.8154
 5395TIP3    H137676   5.288   5.652   4.054 -0.1061  0.4303 -1.2585
 5395TIP3    H237677   5.398   5.599   4.144 -2.0802 -0.2725  0.8091
 5396TIP3   OH237678   4.008   3.839  17.017  0.4663 -0.5310  0.0256
 5396TIP3    H137679   4.038   3.772  17.079 -0.9096  0.1945  1.5385
 5396TIP3    H237680   4.035   3.922  17.056  0.1123 -0.0761 -0.6689
 5397TIP3   OH237681   4.103   2.524  13.083  0.4168  0.1132  0.2521
 5397TIP3    H137682   4.080   2.506  12.992  1.0979 -1.1032  0.2930
 5397TIP3    H237683   4.199   2.526  13.083  0.4214  0.1671  0.9210
 5398TIP3   OH237684   0.518   4.902  12.112  0.2026 -0.5308 -0.3049
 5398TIP3    H137685   0.461   4.979  12.106  0.8990 -0.1161 -1.8831
 5398TIP3    H237686   0.463   4.830  12.083  0.6525 -0.0039 -2.6844
 5399TIP3   OH237687   3.930   2.003  15.698  0.6336 -0.4055 -0.3026
 5399TIP3    H137688   3.902   1.992  15.607  0.3580 -0.9772 -0.1520
 5399TIP3    H237689   3.994   2.074  15.695 -0.6621  0.7938 -0.6771
 5400TIP3   OH237690   5.122   2.327   1.047  0.5668  0.6354  0.6324
 5400TIP3    H137691   5.066   2.399   1.074 -0.0767 -0.1136  1.3569
 5400TIP3    H237692   5.076   2.248   1.077  0.1260 -0.2428 -2.0613
 5401TIP3   OH237693   4.061   2.407   5.469 -0.1769 -0.0758 -0.0399
 5401TIP3    H137694   4.026   2.494   5.489  1.0037  0.1853  1.0396
 5401TIP3    H237695   3.990   2.347   5.490 -0.6611  0.5675  0.1969
 5402TIP3   OH237696   6.210   4.564  14.712 -0.4016 -0.1282 -0.1792
 5402TIP3    H137697   6.243   4.515  14.788 -0.1225  0.4796  0.0936
 5402TIP3    H237698   6.249   4.519  14.637 -2.2043 -1.9506 -0.1156
 5403TIP3   OH237699   6.279   4.498   3.753 -0.8757  0.0770  0.4357
 5403TIP3    H137700   6.372   4.498   3.728 -0.9419 -0.8335  0.1868
 5403TIP3    H237701   6.247   4.412   3.728 -1.8182  0.4136  0.4498
 5404TIP3   OH237702   6.143   3.186   5.604  0.0956 -0.7022  0.1942
 5404TIP3    H137703   6.208   3.232   5.658 -0.0931 -1.0133  0.6980
 5404TIP3    H237704   6.187   3.105   5.579  0.3826 -0.3089 -0.5880
 5405TIP3   OH237705   6.211   5.663   5.163  0.0732  0.2097  0.0068
 5405TIP3    H137706   6.141   5.662   5.098  0.4191  1.1019 -0.4068
 5405TIP3    H237707   6.292   5.664   5.111  0.3712  0.1254  0.4617
 5406TIP3   OH237708   2.392   2.450  11.670 -0.0521 -0.5000  0.1113
 5406TIP3    H137709   2.386   2.460  11.576  1.2213 -1.6465 -0.1322
 5406TIP3    H237710   2.465   2.507  11.695 -0.2474 -0.3644  0.3819
 5407TIP3   OH237711   6.301   2.153   0.211 -0.2124  0.2437  0.5292
 5407TIP3    H137712   6.221   2.132   0.259  0.0669 -0.5226  0.6867
 5407TIP3    H237713   6.368   2.162   0.280  0.2366 -1.0654  0.3034
 5408TIP3   OH237714   4.094   0.766   1.036 -0.3465 -0.1709 -0.3791
 5408TIP3    H137715   4.024   0.801   1.091 -0.2321 -0.8424  0.1970
 5408TIP3    H237716   4.052   0.750   0.952 -1.3760 -2.3537  0.4904
 5409TIP3   OH237717   5.693   1.118  12.443 -0.6558 -0.4555  0.3050
 5409TIP3    H137718   5.764   1.163  12.489 -0.2402 -1.0213  0.2320
 5409TIP3    H237719   5.613   1.158  12.477 -0.2807  2.2616 -1.6941
 5410TIP3   OH237720   1.411   3.442   2.647 -0.2421  0.0967  0.0612
 5410TIP3    H137721   1.368   3.373   2.698 -0.4984  0.4470  0.3277
 5410TIP3    H237722   1.496   3.454   2.689 -0.5176  0.4994  0.5232
 5411TIP3   OH237723   4.133   4.802  11.969  0.0824  0.5464  0.1600
 5411TIP3    H137724   4.196   4.870  11.944  1.6703 -0.9530 -0.1830
 5411TIP3    H237725   4.170   4.722  11.932 -2.4088 -0.3228 -0.6007
 5412TIP3   OH237726   4.567   6.316  11.170 -0.8680 -0.7482  0.1421
 5412TIP3    H137727   4.612   6.236  11.143 -1.4191 -2.2012  3.0804
 5412TIP3    H237728   4.636   6.373  11.203 -0.7132 -1.0361  0.3148
 5413TIP3   OH237729   1.156   0.195   2.486  0.0992  0.2014 -0.0607
 5413TIP3    H137730   1.158   0.111   2.440  2.0156  0.6406 -0.8379
 5413TIP3    H237731   1.243   0.232   2.473 -0.4548  1.9572  0.9567
 5414TIP3   OH237732   2.812   3.005  14.102  0.6385 -0.8168 -0.4796
 5414TIP3    H137733   2.825   2.931  14.042 -4.0758 -1.4784 -1.0773
 5414TIP3    H237734   2.738   2.978  14.157 -0.5732  3.0317  0.0561
 5415TIP3   OH237735   3.497   4.422   5.422  0.0730 -0.2024 -0.5929
 5415TIP3    H137736   3.585   4.422   5.459 -0.7705  2.5146  1.7618
 5415TIP3    H237737   3.450   4.355   5.473 -0.1849  1.1281  0.9980
 5416TIP3   OH237738   0.507   4.575  12.680 -0.5975 -0.8182 -0.2326
 5416TIP3    H137739   0.595   4.568  12.643 -1.0127  1.8962 -2.0579
 5416TIP3    H237740   0.520   4.599  12.771  0.5415 -1.6884 -0.1596
 5417TIP3   OH237741   0.353   3.870  13.955  0.2769 -0.5950  0.0785
 5417TIP3    H137742   0.385   3.786  13.920  2.6304 -0.1412  0.9146
 5417TIP3    H237743   0.318   3.916  13.880  1.5944 -1.2086 -0.9496
 5418TIP3   OH237744   5.661   5.282  13.521  0.5116 -0.0289 -0.4367
 5418TIP3    H137745   5.724   5.354  13.518 -1.3604  1.7359  0.2168
 5418TIP3    H237746   5.617   5.292  13.605 -0.9935 -0.8742 -1.0843
 5419TIP3   OH237747   0.553   3.155  14.207 -0.1473  0.0836  0.1064
 5419TIP3    H137748   0.543   3.149  14.302  1.1846  0.3772  0.2801
 5419TIP3    H237749   0.567   3.065  14.178  0.0817  0.0657  0.2701
 5420TIP3   OH237750   3.302   3.412   0.056  0.0261  0.1281 -0.0603
 5420TIP3    H137751   3.382   3.358   0.057  0.6030  0.9774  0.1803
 5420TIP3    H237752   3.308   3.461  -0.026  0.1993  0.8528  0.3828
 5421TIP3   OH237753   3.495   6.455  15.306  0.0189 -0.4220  0.5578
 5421TIP3    H137754   3.470   6.362  15.312 -1.4243 -0.0008  1.3649
 5421TIP3    H237755   3.488   6.488  15.395  2.2576  0.0861  0.6157
 5422TIP3   OH237756   2.599   0.623   4.636 -0.5671 -0.0024  0.0015
 5422TIP3    H137757   2.523   0.678   4.614 -0.8398  0.3669  1.7237
 5422TIP3    H237758   2.568   0.567   4.707  0.5927 -0.2826  0.3031
 5423TIP3   OH237759   5.452   5.990  15.113  0.1562 -0.0409  0.1634
 5423TIP3    H137760   5.389   5.941  15.061  0.6707 -2.3850  1.5743
 5423TIP3    H237761   5.526   5.930  15.124  1.3236  1.4861  1.0872
 5424TIP3   OH237762   1.479   4.602   2.327 -0.1464 -0.0860 -0.1214
 5424TIP3    H137763   1.406   4.657   2.301 -1.4146 -0.5989  2.0833
 5424TIP3    H237764   1.536   4.660   2.378  1.3126  0.4299 -2.2064
 5425TIP3   OH237765   3.504   4.168  15.475  0.4009 -0.5403 -0.3110
 5425TIP3    H137766   3.542   4.132  15.394 -0.9038 -0.1999 -1.1041
 5425TIP3    H237767   3.428   4.112  15.492 -0.2272  0.3270 -0.2010
 5426TIP3   OH237768   4.132   0.426  16.997 -0.1617  0.1380  0.0686
 5426TIP3    H137769   4.223   0.402  16.981 -0.2358 -1.0025  1.2248
 5426TIP3    H237770   4.123   0.513  16.959  1.1621 -0.1023 -0.8599
 5427TIP3   OH237771   4.147   1.594  14.900  0.4718  0.0203  0.2897
 5427TIP3    H137772   4.176   1.608  14.990  0.3303 -1.6273  0.6175
 5427TIP3    H237773   4.222   1.620  14.846  0.6333  0.8157  0.8810
 5428TIP3   OH237774   6.565   6.250  16.526 -0.2893 -0.0935  0.3352
 5428TIP3    H137775   6.642   6.283  16.572 -1.0508 -0.1680  1.7001
 5428TIP3    H237776   6.595   6.171  16.481  0.3557 -0.3087  1.1302
 5429TIP3   OH237777   1.538   1.883   4.296 -0.0946  0.3645  0.4631
 5429TIP3    H137778   1.615   1.930   4.264  0.3011 -0.8978 -0.5461
 5429TIP3    H237779   1.557   1.791   4.277 -0.9860 -0.1778  2.0639
 5430TIP3   OH237780   1.544   5.858   5.581 -0.0302  0.3728  0.5556
 5430TIP3    H137781   1.506   5.869   5.668 -0.0616 -0.9111  0.7251
 5430TIP3    H237782   1.469   5.842   5.524 -0.2178  3.1900 -0.1184
 5431TIP3   OH237783   2.873   4.611   0.296  0.1692  0.1022 -0.8122
 5431TIP3    H137784   2.778   4.626   0.295 -0.2378 -2.0616 -3.1865
 5431TIP3    H237785   2.886   4.546   0.365 -0.4040 -1.1439 -1.8483
 5432TIP3   OH237786   0.029   0.733   0.225 -0.2033 -0.1748  0.5037
 5432TIP3    H137787  -0.026   0.785   0.166 -0.4327  0.6906  1.4394
 5432TIP3    H237788  -0.032   0.672   0.267  0.2427 -2.0884 -1.4413
 5433TIP3   OH237789   3.134   5.127  11.004  0.2362  0.0546  0.2050
 5433TIP3    H137790   3.092   5.144  10.920  0.6916 -0.8668 -0.2328
 5433TIP3    H237791   3.209   5.071  10.982  0.8192  0.4432  1.1339
 5434TIP3   OH237792   6.441   3.862   4.239  0.2674  0.1584  0.2706
 5434TIP3    H137793   6.508   3.798   4.216  0.2222 -0.2039  1.1240
 5434TIP3    H237794   6.358   3.815   4.228  0.0001  1.0355 -2.2685
 5435TIP3   OH237795   6.066   5.987  16.821  0.4426 -0.0512  0.4608
 5435TIP3    H137796   6.004   6.010  16.752  1.1841 -0.7539 -0.4686
 5435TIP3    H237797   6.025   6.018  16.902 -0.4186  0.8428 -0.2942
 5436TIP3   OH237798   5.270   5.065  16.012 -0.1220  0.7267  0.1479
 5436TIP3    H137799   5.258   5.058  16.107  1.6329 -0.0282  0.3536
 5436TIP3    H237800   5.233   4.984  15.978  0.6379  0.2696  0.3711
 5437TIP3   OH237801   0.599   1.420   5.076 -0.2064  0.4443  0.2493
 5437TIP3    H137802   0.676   1.471   5.053  0.6157 -0.5400  0.7340
 5437TIP3    H237803   0.580   1.446   5.167  1.7784 -1.9052  1.4370
 5438TIP3   OH237804   2.671   2.296   2.909 -0.4826  0.1556  0.8195
 5438TIP3    H137805   2.605   2.281   2.841 -0.4890 -0.6948  0.9942
 5438TIP3    H237806   2.742   2.235   2.887  0.8753  1.9860 -0.1331
 5439TIP3   OH237807   1.684   2.764  14.731 -0.3475  0.2081 -0.1254
 5439TIP3    H137808   1.766   2.806  14.705 -0.6755  1.1099  0.2675
 5439TIP3    H237809   1.651   2.724  14.650 -0.2522  1.1029 -0.6205
 5440TIP3   OH237810   1.953   6.534   5.667 -0.1221 -0.5015  0.1226
 5440TIP3    H137811   1.888   6.506   5.602  0.3802 -1.8943  0.1922
 5440TIP3    H237812   1.999   6.607   5.625  0.6670 -1.8247 -1.4073
 5441TIP3   OH237813   2.008   3.698  15.866  0.1700  0.3220 -0.5393
 5441TIP3    H137814   1.943   3.763  15.837  0.9369  0.6357 -1.6074
 5441TIP3    H237815   2.025   3.646  15.788 -0.9018 -1.6107  0.4563
 5442TIP3   OH237816   3.805   4.129   3.434  0.4224 -0.2980  0.3608
 5442TIP3    H137817   3.770   4.044   3.408  0.7116 -0.4088  0.3310
 5442TIP3    H237818   3.769   4.143   3.522  0.9009 -0.7586  0.6377
 5443TIP3   OH237819   1.210   5.888  11.589 -0.7319  0.3026  0.8878
 5443TIP3    H137820   1.135   5.829  11.580 -1.3768  1.1670  0.3448
 5443TIP3    H237821   1.278   5.835  11.631 -0.4600 -1.5585 -1.6192
 5444TIP3   OH237822   4.728   0.036   1.437  0.0982 -0.6632  0.2436
 5444TIP3    H137823   4.751  -0.036   1.378  0.0417 -0.0370 -0.5528
 5444TIP3    H237824   4.812   0.065   1.473  0.3866  0.3095 -1.1309
 5445TIP3   OH237825   2.841   3.438  13.761  0.5131 -1.0290 -0.5212
 5445TIP3    H137826   2.757   3.423  13.717  0.3478 -0.5137 -0.3886
 5445TIP3    H237827   2.837   3.384  13.840 -0.5638  0.5387  0.5670
 5446TIP3   OH237828   4.351   1.457   3.517 -0.0455  0.1160  0.3767
 5446TIP3    H137829   4.381   1.503   3.596  0.4322  0.5821 -0.0691
 5446TIP3    H237830   4.386   1.509   3.444 -0.6013 -0.2306 -0.1456
 5447TIP3   OH237831   3.343   5.106  12.689  0.3451 -0.4101  0.8209
 5447TIP3    H137832   3.389   5.112  12.605  0.5783  1.7543  1.0353
 5447TIP3    H237833   3.330   5.012  12.703 -1.0995 -0.8177 -2.3967
 5448TIP3   OH237834   1.214   1.332   2.406  0.6231  0.0424  0.3023
 5448TIP3    H137835   1.196   1.426   2.408 -1.5660 -0.1839 -2.2290
 5448TIP3    H237836   1.290   1.323   2.349 -0.4436  0.2311 -1.2167
 5449TIP3   OH237837   0.476   1.833  12.637 -0.7654 -0.0882  0.5445
 5449TIP3    H137838   0.515   1.796  12.558  0.4116  0.7093  0.7247
 5449TIP3    H237839   0.395   1.784  12.649 -1.2200  0.1164 -1.4256
 5450TIP3   OH237840   3.649   5.460   3.311  1.0179  0.4106  0.0153
 5450TIP3    H137841   3.579   5.415   3.262  3.1905 -1.4337 -1.6132
 5450TIP3    H237842   3.668   5.401   3.384 -0.3663  1.8638  1.6413
 5451TIP3   OH237843   0.727   6.156  11.482 -0.1598  0.4533  0.6609
 5451TIP3    H137844   0.809   6.198  11.510  0.0487  0.7430 -0.3371
 5451TIP3    H237845   0.662   6.226  11.483  0.2555  0.9248 -1.3008
 5452TIP3   OH237846   4.306   1.887   5.272 -0.2513  0.8297 -0.3780
 5452TIP3    H137847   4.393   1.869   5.235 -0.9599  0.6672 -2.0011
 5452TIP3    H237848   4.315   1.975   5.310  0.7560  0.6133 -0.0668
 5453TIP3   OH237849   4.435   5.329  13.550  0.1812  0.1380  0.6013
 5453TIP3    H137850   4.439   5.344  13.645  1.6355  0.4227  0.5224
 5453TIP3    H237851   4.453   5.415  13.512  0.8627 -0.2210  0.0922
 5454TIP3   OH237852   1.980   3.913   6.589  0.0624 -0.1423 -0.1113
 5454TIP3    H137853   2.016   3.833   6.551  2.0544 -0.4385  2.1237
 5454TIP3    H237854   2.050   3.978   6.577 -0.4090  0.4966  0.5329
 5455TIP3   OH237855   2.997   4.780  12.811 -0.0979  0.1120  0.1469
 5455TIP3    H137856   2.962   4.693  12.791  0.7424  0.2542 -2.1306
 5455TIP3    H237857   2.963   4.798  12.899 -3.5904 -0.8354 -0.8175
 5456TIP3   OH237858   2.882   4.722   4.849  0.0649 -0.1658  0.1981
 5456TIP3    H137859   2.962   4.754   4.807  0.8707 -3.4927 -1.1073
 5456TIP3    H237860   2.811   4.761   4.797  0.9801 -0.8225 -1.6168
 5457TIP3   OH237861   2.821   6.516   4.662 -0.0339  0.3224  0.6294
 5457TIP3    H137862   2.782   6.490   4.745 -0.2759 -2.1822 -0.1712
 5457TIP3    H237863   2.892   6.575   4.686 -1.9995  2.1181  2.3683
 5458TIP3   OH237864   1.965   0.423  11.007  0.2567  0.6223 -0.1279
 5458TIP3    H137865   1.926   0.378  10.932  0.0002  1.6383 -0.6255
 5458TIP3    H237866   1.941   0.515  10.995  1.6678  1.0714  0.2775
 5459TIP3   OH237867   3.511   2.211  12.305 -0.0371 -0.8463 -0.1118
 5459TIP3    H137868   3.426   2.172  12.325  0.3359 -1.6692 -0.0985
 5459TIP3    H237869   3.498   2.305  12.318 -0.8618 -0.9928  0.1742
 5460TIP3   OH237870   6.765   6.487   0.379  0.6994  0.1689  0.1306
 5460TIP3    H137871   6.832   6.451   0.438 -0.0192  0.7704  1.3554
 5460TIP3    H237872   6.779   6.440   0.297  1.5926 -0.8788  0.8360
 5461TIP3   OH237873   1.063   5.175  16.380 -0.3111  0.2039  0.0432
 5461TIP3    H137874   1.130   5.115  16.347  0.0287  1.2941 -1.3484
 5461TIP3    H237875   1.088   5.191  16.471  1.8068  1.1923 -0.6473
 5462TIP3   OH237876   3.254   6.127  16.459 -0.4781  0.1736  0.2228
 5462TIP3    H137877   3.314   6.120  16.385 -0.1903  0.3585  0.4367
 5462TIP3    H237878   3.298   6.186  16.520 -1.5816  1.6625 -0.3412
 5463TIP3   OH237879   5.334   5.296  10.966  0.1295 -0.4717 -0.6838
 5463TIP3    H137880   5.322   5.367  11.029 -0.3763 -1.1461 -0.0037
 5463TIP3    H237881   5.276   5.318  10.894 -1.4652 -1.1063  0.3423
 5464TIP3   OH237882   1.129   4.098   5.499  0.2964 -0.4252  0.3406
 5464TIP3    H137883   1.143   4.047   5.579 -2.0159 -2.0564 -0.1879
 5464TIP3    H237884   1.035   4.117   5.499  0.5260  0.9446 -1.2144
 5465TIP3   OH237885   1.818   0.823   1.660  0.2615 -0.4205 -0.1654
 5465TIP3    H137886   1.770   0.904   1.643 -0.0594 -0.5740  0.0035
 5465TIP3    H237887   1.867   0.841   1.741 -0.9286 -0.8718  0.6884
 5466TIP3   OH237888   2.028   6.568  12.238 -0.4246 -0.3152  0.1826
 5466TIP3    H137889   2.109   6.594  12.282  0.4890 -1.5204 -0.7277
 5466TIP3    H237890   1.959   6.610  12.289  0.7903  1.2019  0.6437
 5467TIP3   OH237891   6.714   5.398   0.381 -0.1655 -0.6381 -0.4549
 5467TIP3    H137892   6.778   5.327   0.389  0.8407  0.2270 -0.5983
 5467TIP3    H237893   6.765   5.478   0.389 -1.1879  0.0928 -0.9116
 5468TIP3   OH237894   4.045   5.990  16.370 -0.2112  0.3461 -0.1579
 5468TIP3    H137895   4.079   6.080  16.364 -0.0767  0.3012 -0.0648
 5468TIP3    H237896   4.006   5.985  16.457 -2.5377  1.1310 -1.0562
 5469TIP3   OH237897   3.391   5.754  15.995 -0.7087  0.2691  0.6932
 5469TIP3    H137898   3.313   5.724  16.040 -1.3341 -1.0479 -1.1461
 5469TIP3    H237899   3.409   5.686  15.929  0.2399  1.9668 -0.9052
 5470TIP3   OH237900   2.295   6.028   2.013 -0.6266  0.5909  0.0693
 5470TIP3    H137901   2.279   6.121   1.999 -0.7974  0.5386 -0.0963
 5470TIP3    H237902   2.209   5.987   2.002 -0.8950  0.6070  1.8946
 5471TIP3   OH237903   5.735   2.660  14.082 -0.7408  0.2066  0.1524
 5471TIP3    H137904   5.814   2.641  14.032 -0.4707  0.6111  0.4240
 5471TIP3    H237905   5.681   2.581  14.073 -1.3689  0.8312 -2.0137
 5472TIP3   OH237906   0.794   0.277  16.155 -0.0445 -0.2246  0.1722
 5472TIP3    H137907   0.746   0.355  16.130 -0.7982  0.2272  2.7300
 5472TIP3    H237908   0.881   0.308  16.181 -0.7500  0.0402  2.4334
 5473TIP3   OH237909   1.967   4.021   0.524  0.0052  0.2381 -0.2119
 5473TIP3    H137910   1.994   3.952   0.464 -2.5814 -0.7958 -0.3329
 5473TIP3    H237911   2.040   4.030   0.585  1.6334 -0.4704 -1.9489
 5474TIP3   OH237912   3.387   4.541  12.476  0.1751 -0.3910 -0.5286
 5474TIP3    H137913   3.428   4.455  12.481 -1.5605 -1.2333  0.4445
 5474TIP3    H237914   3.306   4.526  12.428 -0.1289  0.6990 -0.3782
 5475TIP3   OH237915   3.522   3.584   4.349 -0.7525  0.1024 -0.1461
 5475TIP3    H137916   3.450   3.582   4.285 -1.2714 -1.6158  0.4416
 5475TIP3    H237917   3.525   3.496   4.385  1.6970  0.1271 -0.1452
 5476TIP3   OH237918   4.004   2.286  14.259 -0.1377 -0.2273 -0.1767
 5476TIP3    H137919   3.986   2.274  14.166  1.5112 -1.1442 -0.4174
 5476TIP3    H237920   4.100   2.284  14.265 -0.2344 -0.7612  1.6020
 5477TIP3   OH237921   1.211   0.536  14.279  0.4166 -0.2142  0.4377
 5477TIP3    H137922   1.222   0.441  14.275 -0.9481 -0.3876  0.4930
 5477TIP3    H237923   1.231   0.559  14.370  3.8820  0.0319 -0.2200
 5478TIP3   OH237924   4.090   4.040  14.321 -0.4598 -0.1759  0.2465
 5478TIP3    H137925   4.069   3.959  14.367  0.0260 -0.7888 -0.5813
 5478TIP3    H237926   4.136   4.012  14.242  2.1731  1.0046  1.2352
 5479TIP3   OH237927   1.451   3.270   4.759 -0.0895  0.4950 -0.2655
 5479TIP3    H137928   1.424   3.356   4.729  1.9107  0.0985 -3.6724
 5479TIP3    H237929   1.544   3.265   4.740  0.0874 -2.0939  0.7433
 5480TIP3   OH237930   5.641   3.873   1.494  0.6144  0.5352  0.0636
 5480TIP3    H137931   5.651   3.923   1.575 -0.7506 -0.7626  1.0747
 5480TIP3    H237932   5.569   3.916   1.448 -0.8233 -0.6551  1.1160
 5481TIP3   OH237933   1.452   2.754   2.764  0.1589  0.6766 -0.3894
 5481TIP3    H137934   1.379   2.731   2.706 -0.6750 -0.3063  1.0106
 5481TIP3    H237935   1.530   2.733   2.713 -0.5486  0.1427 -1.2853
 5482TIP3   OH237936   5.830   5.233  11.940 -0.1205  0.4963  0.4346
 5482TIP3    H137937   5.916   5.273  11.925  0.0231 -0.0978 -0.3694
 5482TIP3    H237938   5.776   5.267  11.869 -0.5686  0.8678  0.9377
 5483TIP3   OH237939   5.888   6.660  12.821  0.3813 -0.2480  0.5649
 5483TIP3    H137940   5.959   6.696  12.874  1.7437 -1.8018 -0.1361
 5483TIP3    H237941   5.814   6.719  12.837  1.8215  1.4353  1.2920
 5484TIP3   OH237942   4.928   2.120   1.110 -0.2457  0.4898 -0.2049
 5484TIP3    H137943   4.847   2.115   1.060 -1.0487 -0.3184  1.1223
 5484TIP3    H237944   4.981   2.048   1.078 -0.3697  0.5425 -0.5325
 5485TIP3   OH237945   3.107   4.960  16.498 -0.1914 -0.2579  0.3747
 5485TIP3    H137946   3.136   5.015  16.571 -1.9247  1.5749 -0.2231
 5485TIP3    H237947   3.044   4.900  16.538 -1.4931  1.0482  0.3888
 5486TIP3   OH237948   6.050   0.261  12.373  0.2585  0.2149  0.3000
 5486TIP3    H137949   6.028   0.321  12.445  1.1495  1.5662 -0.5165
 5486TIP3    H237950   6.118   0.307  12.324  0.1510 -0.9904 -1.0168
 5487TIP3   OH237951   0.239   1.741   6.130  0.1110  0.3100  0.1260
 5487TIP3    H137952   0.267   1.742   6.221  1.1099 -3.0306 -0.0040
 5487TIP3    H237953   0.144   1.752   6.133  0.1001 -0.0502  1.6246
 5488TIP3   OH237954   3.840   1.812   2.308 -0.3252  0.1488  0.2949
 5488TIP3    H137955   3.814   1.855   2.390  0.1005  0.8530  0.0711
 5488TIP3    H237956   3.850   1.884   2.246 -0.7153 -0.3894 -0.4024
 5489TIP3   OH237957   3.076   4.362  12.829 -0.3763  0.4515  0.9616
 5489TIP3    H137958   3.003   4.422  12.848 -0.4400  1.2577 -1.4454
 5489TIP3    H237959   3.152   4.419  12.820 -0.0943 -0.0136  0.3215
 5490TIP3   OH237960   0.127   4.970   2.529  0.5272 -0.5862  0.3949
 5490TIP3    H137961   0.050   4.914   2.529 -0.1484  0.2739  2.2868
 5490TIP3    H237962   0.200   4.912   2.550  0.1479 -1.1108  0.2710
 5491TIP3   OH237963   0.668   6.266  12.476  0.7038  0.2256 -0.5200
 5491TIP3    H137964   0.600   6.269  12.544  1.3778 -0.4147  0.2167
 5491TIP3    H237965   0.734   6.329  12.505  1.3625 -0.6134 -0.1441
 5492TIP3   OH237966   6.567   2.972   3.447 -0.5255  0.0357  0.8100
 5492TIP3    H137967   6.561   2.966   3.352 -2.0708  0.2960  0.8672
 5492TIP3    H237968   6.647   2.924   3.469  2.2161  3.3026 -0.9110
 5493TIP3   OH237969   4.342   2.096  12.417 -0.3674 -0.3938  0.5700
 5493TIP3    H137970   4.382   2.144  12.345  1.6748 -0.6438  1.4699
 5493TIP3    H237971   4.398   2.019  12.429 -0.2841 -0.0486  2.7902
 5494TIP3   OH237972   0.867   2.135  17.182 -0.1268 -0.2281  0.3021
 5494TIP3    H137973   0.900   2.071  17.245 -0.0571 -0.5256 -0.0333
 5494TIP3    H237974   0.881   2.219  17.224  0.6588 -0.3778  0.3570
 5495TIP3   OH237975   0.503   2.060   3.743 -0.2051 -0.5226 -1.0293
 5495TIP3    H137976   0.439   2.027   3.807 -0.7079  1.1272 -0.6413
 5495TIP3    H237977   0.454   2.067   3.662 -0.0381 -0.8994 -1.1675
 5496TIP3   OH237978   2.175   2.296   5.978  0.1559  0.5749 -0.3438
 5496TIP3    H137979   2.106   2.279   6.042 -0.4831 -0.8384 -1.3558
 5496TIP3    H237980   2.226   2.368   6.016  0.3315 -0.7728  2.1587
 5497TIP3   OH237981   0.883   4.197   2.421 -0.3900 -0.1359  0.5233
 5497TIP3    H137982   0.963   4.238   2.389 -1.2257  0.6204 -0.6773
 5497TIP3    H237983   0.885   4.108   2.387 -0.0274 -0.1441  0.5673
 5498TIP3   OH237984   1.655   4.220   3.150  0.1926  0.0848  0.3744
 5498TIP3    H137985   1.571   4.258   3.127 -1.3318 -1.4486  2.8435
 5498TIP3    H237986   1.711   4.294   3.172 -1.3569  1.0659  1.1467
 5499TIP3   OH237987   0.239   3.383   0.848  0.3406 -0.3733 -0.3708
 5499TIP3    H137988   0.279   3.311   0.898 -0.4244 -0.0474  0.7389
 5499TIP3    H237989   0.303   3.453   0.851 -0.3008  0.1867  1.4992
 5500TIP3   OH237990   2.282   4.146  13.353  0.6481 -0.0471  0.8958
 5500TIP3    H137991   2.291   4.058  13.391  1.6175  0.2533  1.3805
 5500TIP3    H237992   2.369   4.167  13.319 -0.0591 -0.0920 -1.0718
 5501TIP3   OH237993   1.525   2.838  16.771 -0.9838  0.3505  0.0483
 5501TIP3    H137994   1.618   2.817  16.769 -1.1572 -0.6936  1.3971
 5501TIP3    H237995   1.521   2.927  16.807 -0.5850 -0.5220  2.4021
 5502TIP3   OH237996   1.290   6.219   1.893 -0.1788 -0.4374  0.1203
 5502TIP3    H137997   1.317   6.310   1.903 -1.7451  0.2343 -1.2271
 5502TIP3    H237998   1.243   6.217   1.809  2.1021 -3.0809 -1.2530
 5503TIP3   OH237999   4.017   5.366   0.713 -0.6324  0.4054 -0.1064
 5503TIP3    H138000   3.944   5.310   0.688 -0.8607  0.0322  1.3036
 5503TIP3    H238001   4.000   5.388   0.805 -0.2723  2.3658 -0.4617
 5504TIP3   OH238002   3.388   2.698  10.963  0.1166  0.1738 -0.2937
 5504TIP3    H138003   3.413   2.790  10.970 -2.9178  1.2378 -1.4246
 5504TIP3    H238004   3.457   2.658  10.911 -0.1966  2.7187 -2.9143
 5505TIP3   OH238005   3.652   6.198  16.232  0.1967  0.0933  0.5441
 5505TIP3    H138006   3.599   6.118  16.235 -0.9771  0.8610  0.7986
 5505TIP3    H238007   3.693   6.204  16.318  1.3416 -0.9003  0.1029
 5506TIP3   OH238008   1.198   1.658  11.086 -0.3487 -0.7017  0.9831
 5506TIP3    H138009   1.149   1.598  11.029  0.4293  0.0990 -0.5584
 5506TIP3    H238010   1.138   1.731  11.101  0.0728 -0.0566 -0.3290
 5507TIP3   OH238011   5.441   6.568  16.197  0.4411  0.0145 -0.1588
 5507TIP3    H138012   5.483   6.641  16.243  0.0983  0.4302 -0.4968
 5507TIP3    H238013   5.361   6.606  16.159  0.3953 -0.4705 -0.5629
 5508TIP3   OH238014   6.229   6.055   5.751 -0.3015  0.6935  0.3851
 5508TIP3    H138015   6.218   5.969   5.792  2.6442 -0.0572 -0.1645
 5508TIP3    H238016   6.254   6.112   5.824  2.2165 -0.0278  0.1917
 5509TIP3   OH238017   3.626   1.056  13.782 -0.8232  0.2848  0.3350
 5509TIP3    H138018   3.596   0.972  13.747  0.4050  0.0171 -0.1363
 5509TIP3    H238019   3.610   1.118  13.711 -1.0234  0.3148  0.4035
 5510TIP3   OH238020   5.264   1.638   2.786  0.2462 -0.4250  0.0237
 5510TIP3    H138021   5.298   1.659   2.700  0.2846  0.5178  0.2644
 5510TIP3    H238022   5.286   1.545   2.798  0.8553 -0.3812 -0.6816
 5511TIP3   OH238023   4.672   1.011  14.115 -0.0290  0.1850 -0.3329
 5511TIP3    H138024   4.624   1.085  14.154  1.3287  1.4594 -0.9692
 5511TIP3    H238025   4.609   0.972  14.055 -2.0427 -1.5765  2.6454
 5512TIP3   OH238026   3.886   3.890  12.405  0.1980 -0.2109 -0.4154
 5512TIP3    H138027   3.848   3.808  12.374  0.8059 -0.3461 -0.8136
 5512TIP3    H238028   3.929   3.867  12.488 -0.1862 -0.1540 -0.1979
 5513TIP3   OH238029   1.364   6.619   1.111  0.1970 -0.5891  0.5404
 5513TIP3    H138030   1.390   6.591   1.023  2.7346  0.3327  0.8951
 5513TIP3    H238031   1.377   6.714   1.110 -1.5866 -0.3001  1.3829
 5514TIP3   OH238032   3.731   3.444   6.793  0.2408 -0.5871 -0.7022
 5514TIP3    H138033   3.716   3.371   6.852 -1.1933 -0.1635 -0.4919
 5514TIP3    H238034   3.646   3.487   6.786  0.6653  0.0867 -2.1273
 5515TIP3   OH238035   4.927   0.904  13.350 -0.0106 -0.0810  0.2451
 5515TIP3    H138036   5.018   0.892  13.377  0.1261 -0.9198 -0.5639
 5515TIP3    H238037   4.880   0.922  13.432  0.9841  1.1022  0.5884
 5516TIP3   OH238038   0.318   2.609   4.208 -0.4591  0.6148  0.9265
 5516TIP3    H138039   0.314   2.658   4.291  1.4697 -2.4198  3.0060
 5516TIP3    H238040   0.411   2.599   4.190 -0.6626 -3.0131  1.2066
 5517TIP3   OH238041   5.458   5.181  10.554  0.1663  0.1753  0.0438
 5517TIP3    H138042   5.446   5.242  10.481 -1.6159 -0.4012 -0.1893
 5517TIP3    H238043   5.512   5.111  10.518 -0.6977 -0.1077 -0.7481
 5518TIP3   OH238044   2.481   5.224   5.524  0.7510  0.3266 -0.0835
 5518TIP3    H138045   2.466   5.169   5.601  0.4616  0.9409  0.3012
 5518TIP3    H238046   2.407   5.204   5.466  0.5062  0.5024  0.1667
 5519TIP3   OH238047   1.868   5.457   0.567 -0.3522 -0.1666  0.5620
 5519TIP3    H138048   1.842   5.366   0.555 -0.9577 -0.0401  0.8824
 5519TIP3    H238049   1.861   5.472   0.662 -0.9702  0.4231  0.4294
 5520TIP3   OH238050   3.524   2.978   4.462  0.6772 -0.3743 -0.5352
 5520TIP3    H138051   3.519   3.042   4.533  1.2934 -0.3216 -0.5330
 5520TIP3    H238052   3.438   2.981   4.420  0.7872  0.6546 -0.7055
 5521TIP3   OH238053   4.406   0.786  17.215 -0.1156  0.1983  0.1899
 5521TIP3    H138054   4.414   0.847  17.288 -0.4318 -0.9938  1.2759
 5521TIP3    H238055   4.319   0.748  17.225  0.4755 -1.2120  0.2241
 5522TIP3   OH238056   6.009   4.735  11.522  0.2631 -0.4985  0.0615
 5522TIP3    H138057   6.086   4.790  11.539 -0.0922 -0.8641  3.5639
 5522TIP3    H238058   6.044   4.645  11.521  0.0243 -0.6104  0.8883
 5523TIP3   OH238059   5.379   5.644   2.500  0.0084 -0.5287  0.0314
 5523TIP3    H138060   5.402   5.716   2.442 -2.9670  1.8973  1.5621
 5523TIP3    H238061   5.449   5.643   2.566 -0.4749  1.8941  0.6855
 5524TIP3   OH238062   5.184   5.039   1.139  0.0206 -0.2563 -0.2317
 5524TIP3    H138063   5.263   5.095   1.134  0.1785 -0.5102 -0.6057
 5524TIP3    H238064   5.148   5.057   1.226 -0.2857  0.9101 -0.5852
 5525TIP3   OH238065   2.338   5.483   0.572  0.8412  0.0526  0.2270
 5525TIP3    H138066   2.356   5.572   0.602  0.8605  0.4090 -0.8031
 5525TIP3    H238067   2.271   5.493   0.504  1.3464 -0.6306 -0.3970
 5526TIP3   OH238068   1.946   2.492   5.680  0.0578  0.1717 -0.3819
 5526TIP3    H138069   1.914   2.546   5.608 -0.0261  2.0996  1.0412
 5526TIP3    H238070   1.873   2.487   5.742  0.1807 -1.3288 -0.3065
 5527TIP3   OH238071   2.909   3.043   3.745 -0.0087  0.2201 -0.1546
 5527TIP3    H138072   2.964   3.119   3.725  1.9721 -1.1126 -0.0477
 5527TIP3    H238073   2.922   3.028   3.839 -1.2492  0.3761  0.0589
 5528TIP3   OH238074   1.969   0.095   4.985 -0.2585  0.3470  0.3468
 5528TIP3    H138075   1.909   0.081   5.058  1.4494  2.7228  2.3761
 5528TIP3    H238076   2.055   0.107   5.026  0.5517  3.2435 -1.8637
 5529TIP3   OH238077   6.076   1.594  12.913 -0.3647  0.0227 -0.3835
 5529TIP3    H138078   6.053   1.636  12.996  1.2236  0.6054 -0.2055
 5529TIP3    H238079   6.032   1.647  12.846 -1.6594 -0.4514  0.0473
 5530TIP3   OH238080   1.342   0.618  15.644 -0.1675 -0.6493 -0.3888
 5530TIP3    H138081   1.250   0.601  15.626 -0.5367  1.3978 -0.6847
 5530TIP3    H238082   1.345   0.636  15.738  0.0622 -1.3464 -0.2528
 5531TIP3   OH238083   6.409   3.683  11.759 -0.8550 -0.3403 -0.0838
 5531TIP3    H138084   6.434   3.679  11.666 -2.1783 -2.2528 -0.4247
 5531TIP3    H238085   6.422   3.593  11.791  0.3199  0.4518  1.8298
 5532TIP3   OH238086   5.043   5.308   4.114 -0.0413  0.2936  0.5052
 5532TIP3    H138087   5.006   5.282   4.029  0.6366  0.7539  0.0538
 5532TIP3    H238088   5.041   5.404   4.112  1.2323  0.3351  0.4284
 5533TIP3   OH238089   1.257   2.677   2.555 -0.8116  0.4399 -0.2639
 5533TIP3    H138090   1.257   2.744   2.487 -0.5346 -0.5434 -1.2573
 5533TIP3    H238091   1.258   2.594   2.508 -0.4742 -0.2745  0.9455
 5534TIP3   OH238092   4.656   0.290  13.712  0.0805 -0.0837  0.8664
 5534TIP3    H138093   4.684   0.357  13.650  1.4862 -0.6961  0.7984
 5534TIP3    H238094   4.649   0.210  13.660  1.2600 -0.6014  1.4469
 5535TIP3   OH238095   0.462   6.605   6.260  0.1967 -0.3958  0.2330
 5535TIP3    H138096   0.496   6.515   6.266  1.1916 -0.0546 -0.0439
 5535TIP3    H238097   0.438   6.627   6.349  0.9584 -0.5718  0.4940
 5536TIP3   OH238098   1.130   3.316   1.588 -0.4250 -0.2211 -0.1376
 5536TIP3    H138099   1.217   3.356   1.592 -0.6131  0.5353 -2.2383
 5536TIP3    H238100   1.145   3.227   1.557 -0.1214 -1.5055  3.3199
 5537TIP3   OH238101   2.642   3.839   1.049 -0.2224 -0.3822  0.2185
 5537TIP3    H138102   2.737   3.825   1.051 -0.1688  0.0524  1.0001
 5537TIP3    H238103   2.621   3.841   0.955  0.7392  0.7490 -0.0047
 5538TIP3   OH238104   1.927   4.119   0.090 -0.4016 -0.2090 -0.5142
 5538TIP3    H138105   1.865   4.167   0.036 -2.6941 -1.1847  1.1186
 5538TIP3    H238106   1.933   4.171   0.171  1.9949  0.5590 -1.1031
 5539TIP3   OH238107   3.647   4.100   3.082 -0.0208  0.2665 -0.6831
 5539TIP3    H138108   3.661   4.118   2.989  0.8100  2.9868 -0.1121
 5539TIP3    H238109   3.552   4.104   3.092 -0.0849  0.5259 -1.3127
 5540TIP3   OH238110   2.703   0.969   1.805 -0.2854 -0.0709  0.3064
 5540TIP3    H138111   2.703   0.876   1.783  2.3800  0.1799 -1.2421
 5540TIP3    H238112   2.715   1.014   1.722 -3.0952  1.8500  0.7917
 5541TIP3   OH238113   5.821   2.778  11.783 -0.2944 -0.3337  0.3072
 5541TIP3    H138114   5.839   2.831  11.860 -1.2165  1.0753 -0.4041
 5541TIP3    H238115   5.753   2.826  11.736 -0.1717 -1.4528 -1.0909
 5542TIP3   OH238116   6.002   2.242  10.588  0.1715 -0.0288 -0.1987
 5542TIP3    H138117   6.063   2.187  10.639 -1.2556  0.5108  2.2403
 5542TIP3    H238118   5.938   2.180  10.553  0.6368 -0.3003 -0.5935
 5543TIP3   OH238119   5.600   4.040  11.880  0.1501  0.1496 -0.6485
 5543TIP3    H138120   5.570   4.071  11.966  0.0324 -0.2569 -0.5445
 5543TIP3    H238121   5.619   3.948  11.892  1.0566  0.3037 -0.8225
 5544TIP3   OH238122   1.058   1.452  15.746  0.0345 -0.0715  0.0388
 5544TIP3    H138123   0.984   1.435  15.687 -0.3267 -0.0713  0.4861
 5544TIP3    H238124   1.109   1.519  15.701 -0.2592 -0.0371 -0.2543
 5545TIP3   OH238125   3.926   5.660   2.339 -0.0146 -0.8157 -0.1417
 5545TIP3    H138126   3.910   5.745   2.380  0.3930 -0.6981 -0.2248
 5545TIP3    H238127   3.903   5.673   2.247  2.4242 -0.0545 -0.7243
 5546TIP3   OH238128   4.279   0.545   4.307 -0.2086 -0.7008 -1.0521
 5546TIP3    H138129   4.249   0.490   4.235  0.5283 -1.7507 -0.5930
 5546TIP3    H238130   4.356   0.500   4.341 -0.4312 -0.1498  0.2741
 5547TIP3   OH238131   3.899   5.349  12.337 -0.2367 -0.1530 -0.1497
 5547TIP3    H138132   3.892   5.254  12.344  2.0994 -0.2878  2.4508
 5547TIP3    H238133   3.894   5.380  12.428  1.2341  1.9403 -0.6981
 5548TIP3   OH238134   3.256   4.642   3.526  0.2200 -0.1404  0.3531
 5548TIP3    H138135   3.173   4.598   3.543 -0.0069  0.3639  0.5598
 5548TIP3    H238136   3.296   4.590   3.456  0.0583 -0.8007  0.7429
 5549TIP3   OH238137   5.048   4.364  13.270  0.0065 -0.8283 -0.0772
 5549TIP3    H138138   5.009   4.445  13.301  2.9771  0.2634  1.1451
 5549TIP3    H238139   5.082   4.385  13.183 -0.0865 -1.0869 -0.1789
 5550TIP3   OH238140   4.600   0.995   0.263  0.0762  0.0703 -0.4801
 5550TIP3    H138141   4.653   0.930   0.216  1.6583  1.2723 -0.4454
 5550TIP3    H238142   4.513   0.989   0.221 -0.0603 -2.4845 -0.0249
 5551TIP3   OH238143   0.887   0.162   6.025 -0.2983 -0.3621 -0.0633
 5551TIP3    H138144   0.963   0.112   6.056 -0.6993 -0.3807  0.9330
 5551TIP3    H238145   0.921   0.250   6.009  0.1542 -0.6356 -0.6585
 5552TIP3   OH238146   5.746   2.352   1.960  0.1656  0.6143 -0.1993
 5552TIP3    H138147   5.735   2.375   2.052 -0.1388 -0.8930  0.1721
 5552TIP3    H238148   5.668   2.386   1.917 -0.3602  0.1280  0.3526
 5553TIP3   OH238149   1.921   2.543  14.605 -0.1821 -0.2625  0.4783
 5553TIP3    H138150   1.951   2.604  14.672 -0.7278  0.9198 -0.3186
 5553TIP3    H238151   1.881   2.471  14.654 -0.6738  0.6384  1.4233
 5554TIP3   OH238152   4.719   4.496  14.111  0.3682 -0.1049  0.1400
 5554TIP3    H138153   4.651   4.429  14.104  0.9747 -0.5406 -2.3154
 5554TIP3    H238154   4.672   4.579  14.104 -0.0348 -0.3800 -0.4692
 5555TIP3   OH238155   5.033   3.457  15.565  0.3534  0.5336  0.0624
 5555TIP3    H138156   4.955   3.507  15.543  0.7273  0.3887 -1.7303
 5555TIP3    H238157   5.104   3.522  15.567  0.4981  0.3914 -0.2685
 5556TIP3   OH238158   4.299   6.716  12.064  0.1204  0.2498  0.0906
 5556TIP3    H138159   4.265   6.639  12.018 -1.5649  1.8939 -1.6298
 5556TIP3    H238160   4.231   6.737  12.129 -0.5648  1.5414 -0.9941
 5557TIP3   OH238161   4.093   2.193   1.797  0.2355 -0.5060 -0.9261
 5557TIP3    H138162   4.074   2.217   1.706  0.6170  0.2715 -0.8013
 5557TIP3    H238163   4.098   2.097   1.795 -1.1520 -0.5998 -1.4539
 5558TIP3   OH238164   2.073   3.670  12.994  0.3119 -0.5073 -0.1910
 5558TIP3    H138165   2.108   3.607  13.057  0.2316 -0.4032 -0.0406
 5558TIP3    H238166   2.066   3.752  13.043  1.4413 -0.0972 -0.6863
 5559TIP3   OH238167   3.971   0.304   5.876 -0.4892  0.1179 -0.6065
 5559TIP3    H138168   3.891   0.268   5.913 -0.5722  0.8562 -0.0485
 5559TIP3    H238169   3.998   0.240   5.809 -0.3341 -1.2389  0.7016
 5560TIP3   OH238170   4.469   2.186  12.814 -0.4931  0.4679 -0.3531
 5560TIP3    H138171   4.377   2.209  12.806 -0.4096  0.6918 -0.7038
 5560TIP3    H238172   4.515   2.270  12.819 -0.4150  0.3547  1.1739
 5561TIP3   OH238173   3.061   1.638  16.830  0.4817  0.0956  0.2230
 5561TIP3    H138174   3.138   1.597  16.871  0.4902 -1.1430 -0.9461
 5561TIP3    H238175   3.079   1.632  16.736 -1.7609 -1.7721 -0.1769
 5562TIP3   OH238176   1.140   4.903  12.435  0.0981  0.0422  0.1987
 5562TIP3    H138177   1.050   4.916  12.467  0.1464 -0.7471  0.6853
 5562TIP3    H238178   1.135   4.822  12.384  0.5737 -0.0976  0.3760
 5563TIP3   OH238179   5.160   2.399   0.792 -0.5303 -0.0134  0.0210
 5563TIP3    H138180   5.078   2.373   0.834 -0.1797 -1.5324 -0.1908
 5563TIP3    H238181   5.228   2.368   0.850 -0.0728 -0.3042 -0.6558
 5564TIP3   OH238182   0.699   0.175  14.446 -0.2045 -0.1909  0.6810
 5564TIP3    H138183   0.654   0.145  14.367  0.6455 -0.1256  0.1615
 5564TIP3    H238184   0.789   0.145  14.436  0.2005  0.8429  1.0549
 5565TIP3   OH238185   6.525   4.298   0.907  0.1109  0.5590 -0.2998
 5565TIP3    H138186   6.573   4.215   0.899  1.4485  1.2398  0.3960
 5565TIP3    H238187   6.499   4.301   0.999  1.5395  1.6610  0.1054
 5566TIP3   OH238188   3.665   6.740   2.642 -0.0122  0.3065  0.2465
 5566TIP3    H138189   3.591   6.748   2.582 -0.7522  0.6215  1.1784
 5566TIP3    H238190   3.691   6.648   2.636  1.2316  0.7460 -2.0376
 5567TIP3   OH238191   1.733   2.701  14.178  0.3779 -0.0913  0.3458
 5567TIP3    H138192   1.703   2.691  14.088 -0.1660  2.0035  0.2394
 5567TIP3    H238193   1.823   2.670  14.177  0.0985 -0.9151 -0.7058
 5568TIP3   OH238194   2.436   5.861   3.616 -0.0070  0.6072 -0.0545
 5568TIP3    H138195   2.400   5.831   3.533 -0.8578 -1.4354  0.9886
 5568TIP3    H238196   2.431   5.785   3.674  1.0422  1.8130  1.7329
 5569TIP3   OH238197   2.489   3.063   4.144  0.1797 -0.3890 -0.1236
 5569TIP3    H138198   2.426   3.046   4.073  0.5582  0.8893 -0.7884
 5569TIP3    H238199   2.543   2.983   4.147 -0.1040 -0.6297 -1.0022
 5570TIP3   OH238200   4.265   2.622  13.308 -0.3490 -0.1246 -0.2191
 5570TIP3    H138201   4.187   2.610  13.253  0.4776  0.1693 -1.5071
 5570TIP3    H238202   4.269   2.716  13.323 -2.0300 -0.3734  2.6532
 5571TIP3   OH238203   6.033   1.124   2.446 -0.5185  0.4264 -0.4844
 5571TIP3    H138204   5.992   1.042   2.473  1.3370  0.1134  1.7053
 5571TIP3    H238205   6.026   1.125   2.351  1.3016 -3.3752 -0.8202
 5572TIP3   OH238206   5.989   6.140  15.966 -0.4875  0.1831 -0.3659
 5572TIP3    H138207   6.080   6.140  15.937 -0.7476  0.3896 -1.1967
 5572TIP3    H238208   5.986   6.209  16.033  0.2211 -0.6234  0.5418
 5573TIP3   OH238209   4.140   3.703   5.474 -0.3319 -0.1069  0.1351
 5573TIP3    H138210   4.049   3.716   5.499 -0.9148  1.1355 -2.2438
 5573TIP3    H238211   4.141   3.619   5.429 -0.2434 -0.2475  0.3992
 5574TIP3   OH238212   0.721   5.007  17.203  0.5330  0.2185  0.6020
 5574TIP3    H138213   0.752   4.930  17.154  3.2312  0.8607  1.1493
 5574TIP3    H238214   0.674   5.059  17.138  0.8459 -0.6857 -0.3812
 5575TIP3   OH238215   2.070   1.934   3.677 -0.6052 -0.0422 -0.2234
 5575TIP3    H138216   2.066   1.932   3.772  0.1046  2.3486 -0.0765
 5575TIP3    H238217   1.998   1.878   3.648  0.7687 -3.0027  1.6302
 5576TIP3   OH238218   3.303   4.302   1.040  0.2937  0.2076  0.2373
 5576TIP3    H138219   3.389   4.263   1.056  1.2753  1.7686 -0.9025
 5576TIP3    H238220   3.322   4.388   1.001 -1.7819  0.9996  0.8239
 5577TIP3   OH238221   4.224   5.335  15.154  0.4339 -0.3648  0.6946
 5577TIP3    H138222   4.228   5.428  15.174  0.7379 -0.1635 -0.2253
 5577TIP3    H238223   4.154   5.301  15.209  0.1899  0.4475  0.8991
 5578TIP3   OH238224   5.758   2.623   4.753 -0.0592  0.2283  0.0108
 5578TIP3    H138225   5.824   2.609   4.685  0.6815  1.5526  0.4265
 5578TIP3    H238226   5.676   2.596   4.713  0.4274  0.5978 -1.2743
 5579TIP3   OH238227   2.121   4.911  17.220 -0.6837 -0.3961  0.0142
 5579TIP3    H138228   2.210   4.879  17.235 -0.4722  0.0942 -0.1836
 5579TIP3    H238229   2.092   4.943  17.306 -0.3642  0.1964 -0.0969
 5580TIP3   OH238230   6.156   0.915   0.985  0.0556  0.2935  0.0673
 5580TIP3    H138231   6.123   0.843   1.040  0.3212 -0.4708 -0.7407
 5580TIP3    H238232   6.130   0.994   1.032 -1.2767 -0.3068  0.4107
 5581TIP3   OH238233   0.800   6.025  12.586 -0.0955  0.1228 -0.3152
 5581TIP3    H138234   0.766   5.956  12.643  0.2170  0.9390  0.9056
 5581TIP3    H238235   0.722   6.065  12.548 -0.4066  0.4205  0.5918
 5582TIP3   OH238236   1.329   5.009  15.205  0.1713 -0.5542  0.5198
 5582TIP3    H138237   1.283   4.935  15.244 -1.8743  0.0205 -0.6343
 5582TIP3    H238238   1.369   4.974  15.125 -1.5333 -0.3133 -0.4990
 5583TIP3   OH238239   2.518   2.894   0.374 -0.4260  0.0716  0.2365
 5583TIP3    H138240   2.494   2.811   0.415 -1.7206  0.6942  0.7811
 5583TIP3    H238241   2.437   2.923   0.331 -0.7382  2.2454  2.1211
 5584TIP3   OH238242   4.066   4.285  11.855  0.0176  0.7388 -0.7126
 5584TIP3    H138243   4.096   4.347  11.921  1.1232  1.4357 -1.8259
 5584TIP3    H238244   4.016   4.338  11.793 -1.4792 -0.0020 -0.1718
 5585TIP3   OH238245   4.540   3.642  12.503  0.4500 -0.3705 -0.7938
 5585TIP3    H138246   4.597   3.710  12.540  2.3144 -2.0438 -0.3967
 5585TIP3    H238247   4.464   3.689  12.471  1.4469  1.8413 -0.1068
 5586TIP3   OH238248   3.238   3.067  12.763 -0.1412 -0.6498  0.0181
 5586TIP3    H138249   3.328   3.051  12.790 -0.1650 -0.9376 -0.0731
 5586TIP3    H238250   3.238   3.055  12.669 -0.3244 -0.8750  0.0472
 5587TIP3   OH238251   4.850   6.261   1.759 -0.1547  0.0762 -0.0540
 5587TIP3    H138252   4.852   6.338   1.703 -1.2323  1.3780  1.5738
 5587TIP3    H238253   4.887   6.291   1.842 -1.4212 -0.8598  0.8977
 5588TIP3   OH238254   4.092   2.672  11.585 -0.5847 -0.4079 -0.8597
 5588TIP3    H138255   4.145   2.634  11.656 -0.8898 -1.2065 -1.0446
 5588TIP3    H238256   4.113   2.618  11.509 -0.4504  0.2919 -1.3254
 5589TIP3   OH238257   4.712   6.026   1.097  0.7916 -0.3438 -0.5626
 5589TIP3    H138258   4.660   5.947   1.083  2.5050 -1.1375 -2.8990
 5589TIP3    H238259   4.802   5.999   1.082  1.2949  2.3916 -3.4774
 5590TIP3   OH238260   3.615   2.867   5.139  0.6048 -0.6830  0.8602
 5590TIP3    H138261   3.567   2.890   5.060  1.7071 -1.6145 -0.1128
 5590TIP3    H238262   3.662   2.947   5.163 -0.2654 -0.1991  0.9757
 5591TIP3   OH238263   1.216   3.288  12.063  0.0911  0.3054  0.3115
 5591TIP3    H138264   1.262   3.345  12.001  0.0629  0.9653  0.8901
 5591TIP3    H238265   1.256   3.202  12.051  0.7432  0.6418  0.0573
 5592TIP3   OH238266   3.894   0.720  14.950 -0.3324  0.2008  0.4634
 5592TIP3    H138267   3.860   0.713  15.039  0.0589 -0.8641  0.5408
 5592TIP3    H238268   3.822   0.759  14.900 -2.2298 -3.0560  0.3638
 5593TIP3   OH238269   3.978   2.311   6.029 -0.2095  0.4224 -0.9951
 5593TIP3    H138270   3.968   2.254   6.104 -1.0257  0.2675 -1.2129
 5593TIP3    H238271   3.914   2.381   6.043  0.8317  1.3635 -0.6809
 5594TIP3   OH238272   0.228   6.328  11.523  0.2218  0.2366 -0.3820
 5594TIP3    H138273   0.269   6.389  11.462 -2.0645 -0.3812 -2.7158
 5594TIP3    H238274   0.278   6.247  11.513  1.6097  0.9259  0.7348
 5595TIP3   OH238275   6.388   2.173  11.140 -0.1994  0.2135 -0.3985
 5595TIP3    H138276   6.443   2.244  11.174 -0.1232 -0.3681  0.7483
 5595TIP3    H238277   6.448   2.119  11.089  0.3643 -0.4509  0.8978
 5596TIP3   OH238278   5.095   0.034  16.871 -0.0927 -0.5252 -0.2815
 5596TIP3    H138279   5.047  -0.015  16.938 -0.4084  0.0304 -0.0923
 5596TIP3    H238280   5.078  -0.013  16.790 -0.1527 -0.8953 -0.0588
 5597TIP3   OH238281   6.013   1.737   3.604  0.3120 -0.2291 -0.3553
 5597TIP3    H138282   5.972   1.650   3.604 -0.3922  0.0940  0.4039
 5597TIP3    H238283   5.996   1.772   3.691  0.8316  0.5649 -0.5629
 5598TIP3   OH238284   5.573   2.915  11.987 -0.0054  0.3103 -0.7149
 5598TIP3    H138285   5.641   2.941  12.050  0.2354 -0.4549 -0.6406
 5598TIP3    H238286   5.595   2.962  11.907  0.2945  0.4922 -0.5297
 5599TIP3   OH238287   2.382   5.870  13.465  0.1502 -0.1248 -0.0434
 5599TIP3    H138288   2.388   5.841  13.374 -0.6099  0.0184 -0.1426
 5599TIP3    H238289   2.467   5.848  13.503  1.5292  2.2528 -1.4945
 5600TIP3   OH238290   0.934   1.832   1.976 -0.0771 -0.4615 -0.0719
 5600TIP3    H138291   1.003   1.796   1.920  0.8256  0.0756  0.6657
 5600TIP3    H238292   0.866   1.861   1.914  1.4608  1.3514 -1.0134
 5601TIP3   OH238293   6.400   1.226  11.273  0.2025  0.6475 -0.5046
 5601TIP3    H138294   6.456   1.157  11.239 -1.4643  0.1087 -2.3521
 5601TIP3    H238295   6.456   1.304  11.274  0.9847  0.1579 -2.4045
 5602TIP3   OH238296   5.582   6.470   3.660  1.0365  0.4488  0.2570
 5602TIP3    H138297   5.653   6.501   3.716  2.2892 -0.1070 -0.9478
 5602TIP3    H238298   5.568   6.379   3.687 -0.7153  1.1555  1.9110
 5603TIP3   OH238299   5.890   4.350   1.007  0.1031  0.2338  0.7278
 5603TIP3    H138300   5.874   4.438   1.040  0.9414  0.5294  0.3855
 5603TIP3    H238301   5.804   4.318   0.979 -0.0929  1.2488  0.1308
 5604TIP3   OH238302   4.639   5.016  11.869 -0.2523 -0.1079 -0.0643
 5604TIP3    H138303   4.720   4.964  11.864 -0.1379  0.1755 -1.4515
 5604TIP3    H238304   4.621   5.042  11.779 -0.9321  1.3229  0.4530
 5605TIP3   OH238305   1.631   0.075  17.129 -0.1096  0.2921  0.2515
 5605TIP3    H138306   1.693   0.134  17.085 -0.9144  1.2336  0.3450
 5605TIP3    H238307   1.548   0.123  17.130 -1.3368 -1.5926 -1.4205
 5606TIP3   OH238308   4.383   2.355  11.170  0.2122 -0.0352  0.6064
 5606TIP3    H138309   4.389   2.427  11.233 -1.0776  1.9968 -1.4235
 5606TIP3    H238310   4.294   2.321  11.181  1.0007 -1.8119  1.9580
 5607TIP3   OH238311   1.106   2.413  13.954  0.0423  0.2052  0.4473
 5607TIP3    H138312   1.041   2.401  14.023  0.9490  0.3066  1.3441
 5607TIP3    H238313   1.116   2.508  13.947  0.5984  0.1805  0.8164
 5608TIP3   OH238314   4.692   5.194  14.004 -0.7386  0.1821  0.1963
 5608TIP3    H138315   4.729   5.231  14.085 -0.3976 -2.2760  1.2337
 5608TIP3    H238316   4.765   5.195  13.942  0.7125 -2.9088  1.6612
 5609TIP3   OH238317   2.173   6.314   2.005 -0.0398  0.4118 -0.7435
 5609TIP3    H138318   2.128   6.260   2.070  1.1193 -0.2942 -0.4970
 5609TIP3    H238319   2.103   6.354   1.954 -0.9508  0.1737  0.2911
 5610TIP3   OH238320   4.374   5.105  11.514 -0.0206 -0.0858 -0.0860
 5610TIP3    H138321   4.463   5.085  11.544 -0.7267 -1.8605  0.9600
 5610TIP3    H238322   4.350   5.185  11.560  0.6993 -0.1303  0.3783
 5611TIP3   OH238323   6.764   5.594  12.871  0.5122  0.1316 -0.1570
 5611TIP3    H138324   6.691   5.651  12.897  1.0229  0.8527 -0.2663
 5611TIP3    H238325   6.798   5.560  12.953  0.8968  0.8777  0.0117
 5612TIP3   OH238326   2.860   6.655  15.719 -0.1907 -0.2407 -0.4722
 5612TIP3    H138327   2.829   6.728  15.774 -0.9679 -0.8594 -0.0622
 5612TIP3    H238328   2.952   6.644  15.743 -1.2874 -2.8054  3.4717
 5613TIP3   OH238329   0.449   6.479   4.560  0.5109 -0.2725 -0.5295
 5613TIP3    H138330   0.510   6.552   4.548 -0.3868  0.4238 -1.0159
 5613TIP3    H238331   0.492   6.422   4.623  0.8654  1.1405  0.5789
 5614TIP3   OH238332   4.002   3.734   0.669  0.0180  0.5332 -0.2644
 5614TIP3    H138333   3.986   3.790   0.593 -2.7088 -0.8690 -0.8481
 5614TIP3    H238334   4.096   3.714   0.666 -0.1453 -0.2263 -3.8382
 5615TIP3   OH238335   6.290   0.194   4.466 -0.0656  0.4171  0.4530
 5615TIP3    H138336   6.265   0.173   4.557  0.5411  2.2771  1.0924
 5615TIP3    H238337   6.385   0.203   4.469  0.0139 -0.0605 -0.5035
 5616TIP3   OH238338   3.199   0.860   3.046  0.3529  0.6706 -0.3138
 5616TIP3    H138339   3.181   0.847   2.953 -0.3260 -1.5002  0.0701
 5616TIP3    H238340   3.292   0.839   3.056  0.5414  1.3545 -0.5476
 5617TIP3   OH238341   2.862   3.364   0.260  0.4713  0.1238 -0.1068
 5617TIP3    H138342   2.883   3.392   0.349 -0.8035  2.4959 -0.4613
 5617TIP3    H238343   2.886   3.439   0.205  3.1373 -1.9902 -2.1105
 5618TIP3   OH238344   3.198   4.894  13.723  0.0138 -0.0279 -0.2054
 5618TIP3    H138345   3.137   4.826  13.697 -0.6214  1.1957 -2.0948
 5618TIP3    H238346   3.143   4.973  13.732  1.1901  0.9856 -1.4671
 5619TIP3   OH238347   4.709   4.916   1.950 -0.0938 -0.2329  0.0992
 5619TIP3    H138348   4.794   4.937   1.912 -0.0251 -0.0909  0.3340
 5619TIP3    H238349   4.728   4.851   2.018 -0.3373 -1.3104 -0.8301
 5620TIP3   OH238350   5.639   2.816   0.042  0.0558  0.2058 -0.2304
 5620TIP3    H138351   5.676   2.752   0.104 -2.0121  0.4449  1.3422
 5620TIP3    H238352   5.627   2.895   0.094  0.1883  1.0870 -1.5091
 5621TIP3   OH238353   3.473   5.414  13.855  0.2683  0.3110 -0.5934
 5621TIP3    H138354   3.430   5.421  13.940  0.2654 -1.1217 -0.4580
 5621TIP3    H238355   3.512   5.501  13.841 -0.1179  0.7082  0.6460
 5622TIP3   OH238356   5.772   1.244  13.247  0.3950  0.1021  0.4949
 5622TIP3    H138357   5.802   1.282  13.330 -0.5241 -1.0422  1.3930
 5622TIP3    H238358   5.677   1.243  13.254  0.3531 -2.8450  0.8207
 5623TIP3   OH238359   1.622   6.573  13.505  0.2437 -0.1482  0.0110
 5623TIP3    H138360   1.533   6.589  13.537 -0.2698 -1.0216 -0.9134
 5623TIP3    H238361   1.642   6.648  13.449  0.2645  0.2716  0.5831
 5624TIP3   OH238362   4.580   1.609   3.310 -0.6521 -0.2224  0.2867
 5624TIP3    H138363   4.673   1.587   3.316 -0.7722 -1.1032 -0.7694
 5624TIP3    H238364   4.578   1.686   3.254 -0.5086  0.2781  0.9587
 5625TIP3   OH238365   0.225   2.408  14.425 -0.5084  0.9363  0.7054
 5625TIP3    H138366   0.133   2.434  14.431 -0.3811  1.9942 -1.3052
 5625TIP3    H238367   0.262   2.464  14.357  0.7288 -1.9625 -1.1751
 5626TIP3   OH238368   1.468   1.709  13.813  0.2968 -0.0538 -0.5752
 5626TIP3    H138369   1.483   1.715  13.719  1.9139  0.2172 -0.3304
 5626TIP3    H238370   1.521   1.634  13.841 -0.1708 -0.1319  0.1271
 5627TIP3   OH238371   5.384   5.365  14.145  0.1025  0.2627 -0.0511
 5627TIP3    H138372   5.299   5.388  14.108  0.5679  0.6406 -0.9080
 5627TIP3    H238373   5.447   5.391  14.078  0.7422 -2.5840 -0.7011
 5628TIP3   OH238374   5.004   5.332   4.876 -0.1523  0.2534  0.0561
 5628TIP3    H138375   5.073   5.388   4.913 -1.0740  1.1854  0.4319
 5628TIP3    H238376   5.045   5.290   4.801  0.4667  1.7882 -0.5096
 5629TIP3   OH238377   3.513   3.844   0.115  0.0182 -0.1557  0.3037
 5629TIP3    H138378   3.577   3.782   0.080 -0.5181 -1.9885  2.3379
 5629TIP3    H238379   3.457   3.791   0.172 -4.1825  1.0638 -2.2891
 5630TIP3   OH238380   4.408   4.240  13.520  0.3191 -0.0755 -0.0587
 5630TIP3    H138381   4.458   4.158  13.524 -0.8514 -0.7840  0.4733
 5630TIP3    H238382   4.461   4.303  13.568  0.0268 -1.1996  1.8459
 5631TIP3   OH238383   0.588   1.797  17.198  0.5085  0.3750 -1.2149
 5631TIP3    H138384   0.627   1.809  17.111  0.1762  1.6659 -1.2031
 5631TIP3    H238385   0.583   1.702  17.209  0.8270  0.1938 -2.4823
 5632TIP3   OH238386   2.986   0.483   3.898 -0.3354  0.0400 -0.4406
 5632TIP3    H138387   3.064   0.501   3.845  0.5708  1.8840  1.3552
 5632TIP3    H238388   2.968   0.566   3.943 -1.6824 -1.1165  1.3020
 5633TIP3   OH238389   1.741   1.791  16.507  0.1070  0.3132 -0.2209
 5633TIP3    H138390   1.779   1.806  16.420  0.5364 -0.2623 -0.1377
 5633TIP3    H238391   1.662   1.845  16.508 -1.2515 -1.5247 -1.8761
 5634TIP3   OH238392   4.460   3.583   2.957 -0.7122 -0.1127  0.5857
 5634TIP3    H138393   4.468   3.640   2.881 -1.6966 -2.4583 -1.3983
 5634TIP3    H238394   4.382   3.614   3.003 -0.7949  0.6154 -0.0324
 5635TIP3   OH238395   5.095   0.646  11.861 -0.9206 -0.3309 -0.2854
 5635TIP3    H138396   5.092   0.600  11.945  3.3064  1.3725  1.0266
 5635TIP3    H238397   5.184   0.680  11.855 -2.1330  2.8779 -3.7538
 5636TIP3   OH238398   0.936   4.372   4.035 -0.6256  0.5019 -0.9478
 5636TIP3    H138399   0.930   4.413   4.122 -0.3301 -1.4257  0.0229
 5636TIP3    H238400   1.012   4.415   3.995 -1.8765  2.7737 -1.0666
 5637TIP3   OH238401   5.294   5.817   0.590 -0.9174  0.2281 -0.6480
 5637TIP3    H138402   5.201   5.796   0.581 -1.1069  0.1347  1.2696
 5637TIP3    H238403   5.337   5.755   0.530 -1.9614 -1.0524 -0.1344
 5638TIP3   OH238404   2.684   3.050  16.062 -0.0182 -0.0758  0.5510
 5638TIP3    H138405   2.744   3.107  16.013 -1.5563  1.3549  0.2733
 5638TIP3    H238406   2.605   3.102  16.074 -0.7482 -1.4470  2.0688
 5639TIP3   OH238407   0.305   2.423   2.209 -0.7300  0.0957  0.0112
 5639TIP3    H138408   0.304   2.453   2.118 -0.8836 -0.5184 -0.1983
 5639TIP3    H238409   0.268   2.495   2.259 -0.2889  0.5895 -0.3684
 5640TIP3   OH238410   1.531   4.517  11.081 -0.3982 -0.1650 -0.5597
 5640TIP3    H138411   1.597   4.455  11.051 -0.2464 -1.6354  2.4005
 5640TIP3    H238412   1.449   4.484  11.045 -0.0221 -0.7132 -0.9241
 5641TIP3   OH238413   3.746   1.668  14.383  0.3869  1.0361 -0.6698
 5641TIP3    H138414   3.717   1.755  14.409  0.3484  1.2953 -1.5580
 5641TIP3    H238415   3.670   1.611  14.400  0.0698  1.3489 -1.0283
 5642TIP3   OH238416   5.705   3.846  14.549 -0.7475 -0.6850  0.5943
 5642TIP3    H138417   5.778   3.900  14.580 -0.5444  0.0707 -1.0909
 5642TIP3    H238418   5.639   3.853  14.618  0.8304 -1.6337  2.3164
 5643TIP3   OH238419   3.495   4.729   2.769  0.0350  0.2489  0.1775
 5643TIP3    H138420   3.551   4.708   2.844  0.3961 -0.2114 -0.2169
 5643TIP3    H238421   3.534   4.809   2.732  1.2241 -0.7763 -0.8639
 5644TIP3   OH238422   6.170   4.779   0.746  0.0399 -0.4926  0.1065
 5644TIP3    H138423   6.219   4.789   0.664  1.5519 -0.0887  1.0230
 5644TIP3    H238424   6.238   4.770   0.813 -1.0458 -4.3912  0.9588
 5645TIP3   OH238425   3.954   4.746   2.224  0.0538 -0.1676 -0.1716
 5645TIP3    H138426   4.045   4.728   2.203  0.3604  0.6568  0.4136
 5645TIP3    H238427   3.943   4.840   2.210 -0.4420 -0.0797  0.6803
 5646TIP3   OH238428   3.358   5.795  12.081  0.7846  0.8947  0.0551
 5646TIP3    H138429   3.313   5.879  12.081  2.1772  1.6912 -1.3256
 5646TIP3    H238430   3.364   5.771  11.989  0.3689 -0.7632  0.4279
 5647TIP3   OH238431   1.003   1.804   3.420  0.3357 -0.0896  0.2274
 5647TIP3    H138432   1.025   1.896   3.402 -2.0004  0.7313  1.1664
 5647TIP3    H238433   0.983   1.803   3.514 -2.9164 -0.7357 -0.3497
 5648TIP3   OH238434   1.557   0.870  13.080  0.7823  0.2034  0.2652
 5648TIP3    H138435   1.596   0.784  13.071  1.7099  0.8249 -2.4109
 5648TIP3    H238436   1.564   0.910  12.993 -0.6481  2.5528  1.1146
 5649TIP3   OH238437   2.034   0.274   2.650 -0.5416 -0.4911  0.3568
 5649TIP3    H138438   2.013   0.292   2.559 -0.2595 -1.0875  0.1702
 5649TIP3    H238439   2.114   0.324   2.667 -0.9713  0.1665  0.4816
 5650TIP3   OH238440   3.714   6.614  14.613  0.2572  0.1209  0.4800
 5650TIP3    H138441   3.671   6.611  14.699  0.2752 -0.2019  0.4789
 5650TIP3    H238442   3.675   6.689  14.569  1.8800  1.7302  1.6335
 5651TIP3   OH238443   5.026   1.485   3.288  0.8565 -0.3127  0.0468
 5651TIP3    H138444   4.934   1.485   3.314  0.5923 -1.7720 -0.7988
 5651TIP3    H238445   5.070   1.537   3.356 -0.5411  0.1793  0.6090
 5652TIP3   OH238446   6.769   3.271   2.467 -0.2741  0.3683  0.1802
 5652TIP3    H138447   6.769   3.271   2.371  0.3383  2.8230  0.0898
 5652TIP3    H238448   6.813   3.190   2.491 -0.6760 -0.4309 -1.6090
 5653TIP3   OH238449   1.493   0.704  10.726  0.0299 -0.0479  0.0047
 5653TIP3    H138450   1.562   0.640  10.711  0.7301  0.8144 -0.4559
 5653TIP3    H238451   1.418   0.671  10.675  0.4337 -0.4146 -0.3538
 5654TIP3   OH238452   2.768   4.265  15.912  0.4463 -0.1752 -0.0137
 5654TIP3    H138453   2.704   4.252  15.982 -1.2858 -1.1268 -1.6672
 5654TIP3    H238454   2.820   4.340  15.940 -1.8700  1.1194  1.1251
 5655TIP3   OH238455   3.672   6.640   0.018 -0.3060 -0.4135  0.4839
 5655TIP3    H138456   3.614   6.571  -0.014 -0.0709 -0.0197 -0.8514
 5655TIP3    H238457   3.660   6.712  -0.044  2.2263 -0.6023 -0.3009
 5656TIP3   OH238458   5.638   5.226   5.417  0.5589 -0.2445  0.6835
 5656TIP3    H138459   5.626   5.139   5.379  0.2114 -1.0727  2.5976
 5656TIP3    H238460   5.732   5.243   5.406  0.5979 -0.7736  0.1292
 5657TIP3   OH238461   2.898   2.648  16.886  0.2080 -0.1321  0.1526
 5657TIP3    H138462   2.860   2.568  16.850 -1.4513  0.5880  0.2496
 5657TIP3    H238463   2.932   2.694  16.809  0.6085 -0.6301  0.0266
 5658TIP3   OH238464   1.092   2.148   4.258 -0.5701  0.5350  0.0666
 5658TIP3    H138465   1.107   2.207   4.332  1.0975  0.1929  0.0436
 5658TIP3    H238466   1.143   2.186   4.187 -2.3303  0.9856 -1.0110
 5659TIP3   OH238467   1.913   2.899  14.619  0.3373  0.4428  0.3707
 5659TIP3    H138468   1.957   2.967  14.671  1.6203 -1.6056  2.1348
 5659TIP3    H238469   1.983   2.860  14.567 -0.6766  1.4543 -1.8589
 5660TIP3   OH238470   4.363   6.102  15.715 -0.0743 -0.0527 -0.0929
 5660TIP3    H138471   4.416   6.050  15.655  1.9373 -0.1871  1.6522
 5660TIP3    H238472   4.304   6.038  15.756 -0.5978 -0.1726 -1.0190
 5661TIP3   OH238473   3.862   3.478   5.813  0.0166 -0.0988  0.2580
 5661TIP3    H138474   3.808   3.557   5.816  1.0320  0.6177  3.1895
 5661TIP3    H238475   3.951   3.511   5.800  0.5155 -0.6547  2.0074
 5662TIP3   OH238476   5.490   1.820  17.187  0.0104  0.1831 -0.7458
 5662TIP3    H138477   5.547   1.748  17.159 -0.6241 -0.8022  0.4185
 5662TIP3    H238478   5.460   1.795  17.274 -2.3704  0.5618 -1.3823
 5663TIP3   OH238479   4.248   6.664  13.006 -0.2963 -0.0052 -0.2894
 5663TIP3    H138480   4.298   6.647  12.927 -0.5628 -0.0346 -0.4559
 5663TIP3    H238481   4.195   6.585  13.018 -1.6135  0.7117 -1.1207
 5664TIP3   OH238482   5.568   4.157   4.578  0.5661 -0.2991  0.7224
 5664TIP3    H138483   5.507   4.146   4.505  1.3944 -0.9578  0.1156
 5664TIP3    H238484   5.528   4.225   4.632  0.3158  0.7827 -0.7556
 5665TIP3   OH238485   6.782   4.379  14.260  0.0473  0.8475  0.0468
 5665TIP3    H138486   6.724   4.408  14.330 -0.1339 -0.2451  0.3817
 5665TIP3    H238487   6.855   4.441  14.260 -0.1469  1.0801  0.9575
 5666TIP3   OH238488   1.012   5.449  16.062  0.0380  0.5954  0.7894
 5666TIP3    H138489   0.964   5.457  15.979  0.7394 -0.2805  0.2862
 5666TIP3    H238490   1.101   5.427  16.036  0.1583 -0.1456  1.7979
 5667TIP3   OH238491   1.235   6.650   3.874 -0.2232 -0.1980  0.3197
 5667TIP3    H138492   1.165   6.633   3.937  0.4359 -0.7265  0.9210
 5667TIP3    H238493   1.251   6.566   3.832 -2.3584  0.6085 -2.4035
 5668TIP3   OH238494   5.915   0.888  16.508  0.4916  0.3142  0.4732
 5668TIP3    H138495   5.887   0.831  16.580  1.1714  0.9268  1.2366
 5668TIP3    H238496   5.835   0.932  16.481 -0.1534 -1.3305 -0.4571
 5669TIP3   OH238497   0.895   4.359  10.259  0.2431  0.4812 -0.4075
 5669TIP3    H138498   0.950   4.405  10.322  0.7831 -0.6490 -0.0165
 5669TIP3    H238499   0.858   4.428  10.203 -0.9841  1.6166  1.6888
 5670TIP3   OH238500   1.925   3.076   1.027 -0.1718  0.0742 -0.2252
 5670TIP3    H138501   1.995   3.090   0.964 -0.2633 -0.6880 -0.5049
 5670TIP3    H238502   1.868   3.010   0.987 -0.4554 -0.1213  0.4729
 5671TIP3   OH238503   5.904   5.582   3.607  0.1755  0.4309  0.0387
 5671TIP3    H138504   5.867   5.626   3.531  0.6938  0.3714 -0.2531
 5671TIP3    H238505   5.996   5.607   3.607 -0.0934  1.5632  1.4484
 5672TIP3   OH238506   1.111   4.953  15.797  0.2713 -0.2048  0.0049
 5672TIP3    H138507   1.157   5.013  15.856 -2.5396  0.6671  1.4701
 5672TIP3    H238508   1.102   4.872  15.848  0.2843 -0.4089 -0.3158
 5673TIP3   OH238509   0.383   5.936  15.401 -0.5344  0.1451 -0.2329
 5673TIP3    H138510   0.336   5.934  15.484 -0.9275 -3.0639 -0.3843
 5673TIP3    H238511   0.417   6.025  15.393 -0.5738  0.5825  3.2884
 5674TIP3   OH238512   1.620   6.342   0.175 -0.9787  0.8553 -0.6044
 5674TIP3    H138513   1.594   6.254   0.202 -3.0841  1.9564  1.2797
 5674TIP3    H238514   1.589   6.399   0.245 -1.7423  3.3679 -2.8095
 5675TIP3   OH238515   2.591   4.330  13.577  0.0110  0.2013  0.1826
 5675TIP3    H138516   2.509   4.281  13.577 -0.7286  1.2524  2.5188
 5675TIP3    H238517   2.626   4.316  13.665  0.9546  1.9210  0.1192
 5676TIP3   OH238518   2.269   4.612   2.352 -0.9589  0.4525  0.2798
 5676TIP3    H138519   2.186   4.586   2.312 -1.1229  1.1831  0.1329
 5676TIP3    H238520   2.245   4.680   2.416 -0.4102  1.1040 -0.1904
 5677TIP3   OH238521   0.232   5.335   0.948  0.7450  0.5548 -0.2028
 5677TIP3    H138522   0.230   5.418   0.995  0.3428  0.6720 -0.4173
 5677TIP3    H238523   0.202   5.357   0.860  0.5858  0.1750 -0.2460
 5678TIP3   OH238524   1.347   3.416  15.633 -0.1806 -0.1137 -0.0869
 5678TIP3    H138525   1.290   3.363  15.577  0.2195  0.8747 -1.4473
 5678TIP3    H238526   1.419   3.443  15.577  1.6802 -1.3049  1.5813
 5679TIP3   OH238527   0.304   4.471   5.001  0.6523 -0.4041 -0.0597
 5679TIP3    H138528   0.284   4.443   5.090  0.9890 -0.5207 -0.0194
 5679TIP3    H238529   0.250   4.415   4.945  0.4722 -0.3589  0.0681
 5680TIP3   OH238530   5.356   2.947  15.843 -0.0653 -0.1600  0.6430
 5680TIP3    H138531   5.263   2.954  15.826  0.3479  1.3101 -1.3977
 5680TIP3    H238532   5.392   3.031  15.815  1.9975 -1.0514  0.4107
 5681TIP3   OH238533   1.904   3.356  14.515  0.3502  0.2390  0.0493
 5681TIP3    H138534   1.892   3.264  14.490  2.4371  0.1276 -0.7448
 5681TIP3    H238535   1.970   3.353  14.584  0.1947  1.1375  0.2475
 5682TIP3   OH238536   3.007   2.558  15.136  0.0527  0.5915 -0.9632
 5682TIP3    H138537   2.951   2.581  15.210  1.2045  1.7293 -0.4179
 5682TIP3    H238538   3.004   2.462  15.132  0.2066  0.4990  0.7466
 5683TIP3   OH238539   2.669   5.350  13.938 -0.4749 -0.4344 -0.1492
 5683TIP3    H138540   2.676   5.440  13.972 -2.5543  0.2090 -1.2304
 5683TIP3    H238541   2.748   5.338  13.886  0.5800  0.1799  1.2471
 5684TIP3   OH238542   3.115   4.396   0.069 -0.4402  0.5887 -0.3573
 5684TIP3    H138543   3.042   4.350   0.111 -1.3740  1.1434 -1.3177
 5684TIP3    H238544   3.133   4.470   0.127  0.1346 -0.1623  0.4626
 5685TIP3   OH238545   6.090   6.493   4.283 -0.2186 -0.4270 -0.2636
 5685TIP3    H138546   6.016   6.474   4.340 -0.8507  0.1628 -0.8704
 5685TIP3    H238547   6.104   6.587   4.292  0.6048 -0.5661  0.0140
 5686TIP3   OH238548   0.733   2.371   4.244  0.1821 -0.0360  0.0962
 5686TIP3    H138549   0.785   2.358   4.324  0.4105 -0.6765 -0.1486
 5686TIP3    H238550   0.686   2.289   4.232 -2.3692  1.1211  1.3214
 5687TIP3   OH238551   0.714   4.076  13.619 -0.3095 -0.0752 -0.3134
 5687TIP3    H138552   0.710   4.071  13.524  0.2538 -0.3008 -0.3321
 5687TIP3    H238553   0.737   4.167  13.637  0.1157 -0.1571 -0.4210
 5688TIP3   OH238554   6.618   6.077  16.903 -0.6524  0.3013  0.2149
 5688TIP3    H138555   6.576   6.043  16.982 -1.1327  0.4786  0.0436
 5688TIP3    H238556   6.545   6.107  16.849 -0.3766 -0.5092 -0.6252
 5689TIP3   OH238557   5.966   6.289   4.433 -0.0321  0.3118 -0.2831
 5689TIP3    H138558   5.912   6.225   4.480 -0.1452  1.2990  0.9927
 5689TIP3    H238559   6.052   6.282   4.475  0.0694  0.6891 -0.4266
 5690TIP3   OH238560   2.612   2.502   4.732 -0.6783 -0.0921  0.3469
 5690TIP3    H138561   2.649   2.545   4.655 -1.7947  0.8398  0.2985
 5690TIP3    H238562   2.626   2.409   4.717  1.8656  0.2051  0.4798
 5691TIP3   OH238563   5.846   1.160   5.067  0.0575  0.3121  0.3284
 5691TIP3    H138564   5.855   1.215   5.145  0.2631  0.9380 -0.1314
 5691TIP3    H238565   5.817   1.075   5.101 -0.4137  0.7409  1.0347
 5692TIP3   OH238566   0.453   5.825  16.866  0.9398 -0.1733  0.0981
 5692TIP3    H138567   0.396   5.750  16.851  2.0919 -1.6894  2.6148
 5692TIP3    H238568   0.532   5.805  16.816  1.7395 -1.3354  1.7535
 5693TIP3   OH238569   5.676   2.211  13.493 -0.2396  0.0372 -0.1404
 5693TIP3    H138570   5.657   2.153  13.567 -1.3763  0.6861  0.1041
 5693TIP3    H238571   5.734   2.278  13.529 -1.4407  0.8176  0.4057
 5694TIP3   OH238572   3.933   0.976  16.909 -0.4313 -0.3799 -0.4937
 5694TIP3    H138573   3.838   0.963  16.905 -0.2936 -1.4580 -0.6222
 5694TIP3    H238574   3.964   0.904  16.965  0.3982 -0.5516 -1.1606
 5695TIP3   OH238575   2.985   6.398  16.215  0.0358  0.2345  0.2467
 5695TIP3    H138576   2.923   6.339  16.259 -0.5565  0.0170 -0.8308
 5695TIP3    H238577   2.953   6.486  16.236 -0.9943  0.1227 -0.7336
 5696TIP3   OH238578   0.660   4.783   1.995 -0.1599  0.6564  0.2272
 5696TIP3    H138579   0.597   4.818   1.933 -0.4869  1.6264  1.0865
 5696TIP3    H238580   0.675   4.854   2.057 -1.5768 -0.9406  2.5832
 5697TIP3   OH238581   0.686   1.927   1.204 -0.0166 -0.0559  0.3658
 5697TIP3    H138582   0.652   1.859   1.146  1.6268 -0.5924  0.0030
 5697TIP3    H238583   0.619   1.936   1.272  0.5411 -3.3834  1.5047
 5698TIP3   OH238584   4.846   3.142   4.363  0.3604 -0.6689  1.0705
 5698TIP3    H138585   4.874   3.232   4.381  0.3695 -0.2306 -0.9085
 5698TIP3    H238586   4.928   3.093   4.358  0.5457 -0.2635 -0.3140
 5699TIP3   OH238587   4.370   1.533  15.504 -0.0898 -0.1469 -0.9647
 5699TIP3    H138588   4.363   1.478  15.425 -0.6837 -1.6835  0.0950
 5699TIP3    H238589   4.288   1.517  15.551  1.3737 -1.5254  1.3280
 5700TIP3   OH238590   3.613   5.354  11.274 -0.0662 -0.1888  0.1768
 5700TIP3    H138591   3.642   5.359  11.365 -0.8091 -0.7203  0.4563
 5700TIP3    H238592   3.677   5.405  11.225 -0.3387  1.1442  1.1506
 5701TIP3   OH238593   3.871   6.150   5.789 -0.1251  0.1742  0.0535
 5701TIP3    H138594   3.877   6.213   5.861  0.3457  0.7131 -0.4379
 5701TIP3    H238595   3.865   6.065   5.832 -0.9754  0.5651  0.7364
 5702TIP3   OH238596   0.005   3.828  13.662 -0.4777 -0.2920 -0.6597
 5702TIP3    H138597  -0.043   3.853  13.741 -1.3079  0.0106 -1.2386
 5702TIP3    H238598  -0.017   3.897  13.599 -0.9124 -1.2507 -1.5707
 5703TIP3   OH238599   0.065   5.286  14.847 -0.5309  0.1281 -0.1170
 5703TIP3    H138600   0.114   5.366  14.869  0.8037 -0.9193  0.9520
 5703TIP3    H238601   0.097   5.221  14.909 -1.1784 -1.4017 -1.3160
 5704TIP3   OH238602   0.408   5.662   2.661  0.2189 -0.2799 -0.0526
 5704TIP3    H138603   0.405   5.665   2.757  0.1165 -2.5102  0.0858
 5704TIP3    H238604   0.318   5.645   2.635  0.5595 -1.8201 -0.3552
 5705TIP3   OH238605   2.222   2.218   6.469  0.1304 -0.1071 -0.1175
 5705TIP3    H138606   2.136   2.247   6.498  1.1495 -0.3080  3.6739
 5705TIP3    H238607   2.279   2.295   6.481  0.7319 -0.3444 -1.3095
 5706TIP3   OH238608   2.114   5.307   1.932  0.5721 -0.6015 -0.1201
 5706TIP3    H138609   2.036   5.252   1.943 -1.1654  1.3906 -1.6425
 5706TIP3    H238610   2.165   5.262   1.865 -0.7318 -0.5276 -1.2093
 5707TIP3   OH238611   2.032   6.440   3.029 -0.3814 -0.8182 -0.3666
 5707TIP3    H138612   2.011   6.533   3.045  2.7931 -0.3842  2.4777
 5707TIP3    H238613   2.093   6.442   2.956  1.0022 -0.3865  0.7540
 5708TIP3   OH238614   2.086   4.390  13.854 -0.0966  0.2876 -0.6169
 5708TIP3    H138615   2.082   4.399  13.949  0.5285  3.3297 -0.7918
 5708TIP3    H238616   1.994   4.395  13.826 -0.2900 -0.7099 -0.2146
 5709TIP3   OH238617   2.890   0.344  17.180  0.2678 -0.1262  0.1960
 5709TIP3    H138618   2.940   0.424  17.162 -1.3707  1.2934  1.6785
 5709TIP3    H238619   2.800   0.365  17.156 -0.1941 -1.5674  0.5371
 5710TIP3   OH238620   6.505   2.119  12.787  0.8182  0.1922  0.6926
 5710TIP3    H138621   6.575   2.053  12.793  0.6516  0.0747  1.3910
 5710TIP3    H238622   6.552   2.202  12.779  1.0809  0.2627  2.5600
 5711TIP3   OH238623   5.065   1.158   6.549  0.0537  0.3511  0.1843
 5711TIP3    H138624   5.058   1.224   6.480  1.8155 -0.2953 -0.6768
 5711TIP3    H238625   5.154   1.124   6.541  0.5066  0.6061  3.1352
 5712TIP3   OH238626   5.947   1.986  13.982  0.0141 -0.0134 -0.3342
 5712TIP3    H138627   5.943   1.904  14.031 -0.6877  1.3761  2.1425
 5712TIP3    H238628   5.884   1.975  13.911 -0.4918 -1.4228  0.2981
 5713TIP3   OH238629   4.571   4.749  14.217  0.7493  0.1927  0.2510
 5713TIP3    H138630   4.535   4.779  14.300  0.4554  0.0842  0.1635
 5713TIP3    H238631   4.655   4.796  14.209  0.7426  0.2594  0.5688
 5714TIP3   OH238632   5.380   0.157  15.683  0.1451 -0.7928 -0.0699
 5714TIP3    H138633   5.314   0.156  15.614  0.0971 -1.3872 -0.0194
 5714TIP3    H238634   5.373   0.245  15.721  0.8353 -0.1154 -1.4424
 5715TIP3   OH238635   5.230   1.041  11.729  0.3180 -0.0798 -0.2522
 5715TIP3    H138636   5.306   1.031  11.786 -0.9346 -1.7798  1.2495
 5715TIP3    H238637   5.167   0.976  11.761 -0.9043 -0.3350 -2.8946
 5716TIP3   OH238638   1.263   3.439   0.058  0.0173 -0.5637 -0.4817
 5716TIP3    H138639   1.301   3.358   0.092  2.5577  1.6445  2.5799
 5716TIP3    H238640   1.181   3.449   0.106  1.0201 -0.0924  1.2298
 5717TIP3   OH238641   1.640   3.239  16.572  0.1743 -0.1462 -0.5452
 5717TIP3    H138642   1.626   3.307  16.638 -1.1922 -1.8167  0.9977
 5717TIP3    H238643   1.553   3.227  16.533  0.2300 -1.4507 -0.3019
 5718TIP3   OH238644   4.976   5.251   3.848 -0.0117 -0.5584  0.1244
 5718TIP3    H138645   4.942   5.194   3.780 -0.0250 -0.3934 -0.0078
 5718TIP3    H238646   5.065   5.272   3.819 -0.5153  0.6913 -0.5884
 5719TIP3   OH238647   1.520   1.085  13.315 -0.1891  0.3403 -0.3897
 5719TIP3    H138648   1.580   1.135  13.259 -0.4425 -0.3560 -1.3054
 5719TIP3    H238649   1.570   1.008  13.341 -0.5427 -0.0448 -0.8302
 5720TIP3   OH238650   5.885   0.879   3.989  0.2047 -0.3195  0.2625
 5720TIP3    H138651   5.817   0.830   3.943  0.0788  0.4415 -0.3806
 5720TIP3    H238652   5.960   0.877   3.929  0.5770 -0.6784  0.7271
 5721TIP3   OH238653   1.482   0.683   4.887 -0.0967 -0.3647 -0.0078
 5721TIP3    H138654   1.558   0.731   4.854  0.8657 -1.4724  0.5103
 5721TIP3    H238655   1.457   0.625   4.816  0.2877 -0.8302  0.2297
 5722TIP3   OH238656   4.633   6.327   0.477  0.0865  0.2241  0.5975
 5722TIP3    H138657   4.643   6.421   0.462 -0.2105  0.3291  1.0500
 5722TIP3    H238658   4.698   6.307   0.545 -0.0960  0.1708  0.7568
 5723TIP3   OH238659   6.399   5.564  12.560 -0.1269  0.6883 -0.2688
 5723TIP3    H138660   6.331   5.546  12.495  0.7398  0.5626 -1.1629
 5723TIP3    H238661   6.452   5.633  12.522  1.8296 -1.0006 -0.8295
 5724TIP3   OH238662   2.279   1.344  15.974  0.6472 -0.0496  0.0920
 5724TIP3    H138663   2.359   1.393  15.993  1.2437 -1.5799  1.7596
 5724TIP3    H238664   2.303   1.285  15.903  0.7091  0.1675 -0.0680
 5725TIP3   OH238665   4.935   1.814  10.694 -0.5739  0.6399 -0.1652
 5725TIP3    H138666   4.968   1.902  10.708 -0.1893  0.8271 -1.9496
 5725TIP3    H238667   5.010   1.757  10.714 -1.1003  0.6158  1.9085
 5726TIP3   OH238668   0.348   6.508  11.360 -0.0229 -0.0318 -0.4756
 5726TIP3    H138669   0.411   6.567  11.319  0.1649  0.8328  0.9655
 5726TIP3    H238670   0.265   6.557  11.359  0.1359  0.3149  0.7403
 5727TIP3   OH238671   3.011   2.924  15.236  0.3782  0.7757  0.5241
 5727TIP3    H138672   3.002   2.955  15.146  1.2360 -0.0599  0.1429
 5727TIP3    H238673   3.105   2.914  15.249  0.1869 -0.3768  1.0739
 5728TIP3   OH238674   1.406   0.018  14.152 -0.2058  0.0280 -0.0470
 5728TIP3    H138675   1.463  -0.048  14.112  2.0705  0.9345  1.4847
 5728TIP3    H238676   1.402  -0.006  14.244  0.8317  2.0171  0.5940
 5729TIP3   OH238677   4.009   2.199   4.389  0.5148 -0.3630  0.3791
 5729TIP3    H138678   4.012   2.292   4.413 -2.2517  0.0879 -0.6360
 5729TIP3    H238679   4.099   2.168   4.400  1.3636  2.2423  1.4495
 5730TIP3   OH238680   0.722   0.310  11.453 -0.2273 -0.0807 -0.2872
 5730TIP3    H138681   0.731   0.217  11.472  0.2380  0.0005 -0.0858
 5730TIP3    H238682   0.688   0.348  11.534  1.0845  0.1574  0.1789
 5731TIP3   OH238683   1.992   2.874  16.109  0.2955  0.1130 -0.1575
 5731TIP3    H138684   1.950   2.900  16.027  0.4213  0.8169  0.0015
 5731TIP3    H238685   1.930   2.812  16.148  0.0619  0.0619 -0.5999
 5732TIP3   OH238686   5.140   4.322   6.562 -0.9885 -0.4330  0.7333
 5732TIP3    H138687   5.173   4.398   6.609 -0.6146  0.1498 -0.4393
 5732TIP3    H238688   5.202   4.252   6.583 -0.6157 -0.0821  0.8067
 5733TIP3   OH238689   4.456   1.503  14.974 -0.7646 -0.3145  0.3880
 5733TIP3    H138690   4.502   1.538  15.050  0.1493 -0.5488 -0.0456
 5733TIP3    H238691   4.442   1.411  14.995 -1.0737 -0.2378  0.5303
 5734TIP3   OH238692   2.146   0.056  15.329  0.3596 -0.3339 -0.1532
 5734TIP3    H138693   2.119   0.069  15.420  2.8329 -1.5154  0.8284
 5734TIP3    H238694   2.123   0.139  15.285 -0.2241  0.5324  1.6855
 5735TIP3   OH238695   6.148   1.671  11.679  0.0449 -0.0562  0.0041
 5735TIP3    H138696   6.186   1.598  11.631 -0.1037  0.8638 -1.5718
 5735TIP3    H238697   6.179   1.749  11.633 -2.0067  0.7829 -0.0595
 5736TIP3   OH238698   6.134   1.588  13.204  0.3166  0.5275  0.3137
 5736TIP3    H138699   6.213   1.589  13.149 -0.8107 -3.0105 -1.7413
 5736TIP3    H238700   6.141   1.507  13.254 -0.5464  1.8082  2.6723
 5737TIP3   OH238701   5.090   6.225  14.777  0.2514  0.4123 -0.4294
 5737TIP3    H138702   5.112   6.235  14.870  2.2927  0.6642 -0.8915
 5737TIP3    H238703   5.064   6.134  14.769  2.5259 -0.3618  0.0051
 5738TIP3   OH238704   5.940   5.571  15.744 -0.1929  0.4206 -0.1015
 5738TIP3    H138705   5.915   5.504  15.808  0.0461 -0.2000 -0.6406
 5738TIP3    H238706   5.871   5.637  15.750  1.0468  1.6142  2.5063
 5739TIP3   OH238707   3.474   4.798  12.537  0.0585  0.4703 -0.4538
 5739TIP3    H138708   3.436   4.711  12.518 -2.5488  0.6708  2.7943
 5739TIP3    H238709   3.412   4.860  12.498  0.2923  0.8346 -0.2494
 5740TIP3   OH238710   0.904   0.710   3.587 -0.0749  0.5160 -0.2583
 5740TIP3    H138711   0.895   0.615   3.600  0.0509  0.4857 -0.3926
 5740TIP3    H238712   0.947   0.718   3.502  2.1546  0.6357  0.8201
 5741TIP3   OH238713   2.336   1.460  13.851  0.1818 -0.0092  0.3689
 5741TIP3    H138714   2.280   1.494  13.920  0.0426  0.7641 -0.1000
 5741TIP3    H238715   2.292   1.486  13.770 -0.0339 -1.5218 -0.0267
 5742TIP3   OH238716   0.994   5.342   5.468 -0.3540  0.2674 -0.0772
 5742TIP3    H138717   1.065   5.293   5.510  0.3119  0.1306 -1.3284
 5742TIP3    H238718   0.921   5.280   5.466 -0.0323 -0.1190 -0.1358
 5743TIP3   OH238719   1.731   0.455  11.655 -0.2004 -0.4396 -0.0800
 5743TIP3    H138720   1.744   0.402  11.577  2.1999  0.2013 -0.1716
 5743TIP3    H238721   1.720   0.544  11.623  0.1779 -0.2622  0.2726
 5744TIP3   OH238722   2.902   5.965   6.004  0.5691 -0.0727  0.0842
 5744TIP3    H138723   2.963   6.035   6.030 -0.3810  0.8055  0.0276
 5744TIP3    H238724   2.817   6.009   5.997  0.2333 -0.9158 -1.5235
 5745TIP3   OH238725   6.420   3.467   3.131 -0.0616 -0.4117 -0.4246
 5745TIP3    H138726   6.421   3.521   3.210 -0.6962 -2.2610  0.9187
 5745TIP3    H238727   6.508   3.430   3.127 -1.1283 -3.6673  1.9708
 5746TIP3   OH238728   0.265   0.542  12.225 -0.2829  0.7710 -0.0812
 5746TIP3    H138729   0.250   0.517  12.316  1.9109 -0.0112  0.1198
 5746TIP3    H238730   0.179   0.533  12.184 -0.8353 -1.4146  1.3344
 5747TIP3   OH238731   1.214   6.073   1.662  0.3180 -0.0731  0.0527
 5747TIP3    H138732   1.209   6.137   1.591  0.2111  1.2450  1.2004
 5747TIP3    H238733   1.125   6.069   1.697  0.5739  0.0221  0.7275
 5748TIP3   OH238734   6.650   4.842  12.426  0.0042  0.6100 -0.4391
 5748TIP3    H138735   6.702   4.768  12.397  0.7857 -0.2078  2.6270
 5748TIP3    H238736   6.713   4.915  12.431 -0.3232  0.9857 -1.5450
 5749TIP3   OH238737   0.078   0.069   0.062  0.5362  0.1765 -0.6206
 5749TIP3    H138738   0.001   0.067   0.119  1.5195  2.7180  1.0068
 5749TIP3    H238739   0.069   0.150   0.012  0.1266 -1.5839 -3.6236
 5750TIP3   OH238740   5.328   5.200   4.827 -0.3187  0.3055  0.5399
 5750TIP3    H138741   5.422   5.213   4.813 -0.4134  0.2950 -0.1645
 5750TIP3    H238742   5.296   5.286   4.854 -0.0686  0.2555  0.9957
 5751TIP3   OH238743   4.112   1.152   5.879  0.5531 -0.6215 -0.1734
 5751TIP3    H138744   4.031   1.119   5.916  0.3551 -1.5511 -1.3623
 5751TIP3    H238745   4.165   1.178   5.955 -0.5413 -0.7168  0.6423
 5752TIP3   OH238746   2.346   2.378  13.725  0.1030  0.3666 -0.5083
 5752TIP3    H138747   2.427   2.424  13.747 -0.2214  0.8824 -0.3734
 5752TIP3    H238748   2.304   2.434  13.659 -0.0349 -0.0094 -0.7413
 5753TIP3   OH238749   5.187   4.227  14.895 -0.4061  0.2590 -0.3886
 5753TIP3    H138750   5.153   4.195  14.811 -1.1636 -1.5221  0.5434
 5753TIP3    H238751   5.214   4.148  14.942 -0.8581  1.1207  1.4158
 5754TIP3   OH238752   4.928   2.244   5.407 -0.1158  0.3231  0.2878
 5754TIP3    H138753   4.933   2.165   5.460 -0.6081 -0.6139 -1.0077
 5754TIP3    H238754   4.955   2.216   5.319  0.6262  1.8024 -0.0015
 5755TIP3   OH238755   5.223   2.127  16.226 -0.0264 -0.2113  0.1136
 5755TIP3    H138756   5.235   2.219  16.205 -3.1092  0.3205  0.2468
 5755TIP3    H238757   5.278   2.081  16.162 -0.2815  1.6578 -1.5670
 5756TIP3   OH238758   1.432   2.087   0.826  0.0258 -0.3284 -0.1641
 5756TIP3    H138759   1.479   2.161   0.865  0.4274 -0.8669  0.4182
 5756TIP3    H238760   1.466   2.081   0.737 -1.3115  1.2706 -0.8250
 5757TIP3   OH238761   6.452   1.995  11.695  0.0504 -0.0045 -0.8988
 5757TIP3    H138762   6.366   1.983  11.656 -0.4235  1.1546 -0.2496
 5757TIP3    H238763   6.460   1.923  11.759 -0.7862  0.3652 -0.3699
 5758TIP3   OH238764   4.070   1.071   2.082  0.0057  0.3973 -0.5650
 5758TIP3    H138765   4.005   1.020   2.129  1.1202 -0.2181  0.3618
 5758TIP3    H238766   4.061   1.160   2.117  0.8421 -0.0555  0.8917
 5759TIP3   OH238767   2.270   1.589   1.257  0.5977 -0.2847 -0.1317
 5759TIP3    H138768   2.290   1.645   1.333 -0.3499  1.3134 -1.0267
 5759TIP3    H238769   2.345   1.601   1.199  0.6574 -0.4146 -0.0838
 5760TIP3   OH238770   5.512   3.110   4.761  0.0870 -0.0125  0.2705
 5760TIP3    H138771   5.469   3.094   4.845  1.6295  1.6174  1.4219
 5760TIP3    H238772   5.592   3.057   4.764 -1.0002 -1.9081 -1.2741
 5761TIP3   OH238773   2.644   3.525   5.970  0.0357 -0.7535  0.1046
 5761TIP3    H138774   2.734   3.492   5.979 -0.0210 -0.9024  0.1253
 5761TIP3    H238775   2.632   3.535   5.876  0.6152  0.7611  0.1635
 5762TIP3   OH238776   0.110   3.857  15.572 -0.5711 -0.0115 -0.2875
 5762TIP3    H138777   0.203   3.877  15.564  0.2100 -3.0043  0.3266
 5762TIP3    H238778   0.101   3.810  15.654 -1.8895 -3.1071 -2.0142
 5763TIP3   OH238779   3.445   2.620   5.151  0.0182  0.0862  0.5610
 5763TIP3    H138780   3.441   2.587   5.241  1.0554 -0.8608  0.2823
 5763TIP3    H238781   3.508   2.692   5.155  2.3004 -1.7673  0.1184
 5764TIP3   OH238782   3.146   2.419  16.498 -0.1283  0.3927  0.2784
 5764TIP3    H138783   3.174   2.510  16.505 -0.8475  0.6716 -0.3361
 5764TIP3    H238784   3.051   2.424  16.490 -0.1809 -0.4216  0.3687
 5765TIP3   OH238785   1.665   4.495   1.569  0.2319 -0.2480 -0.6081
 5765TIP3    H138786   1.635   4.564   1.628 -0.4647 -0.4307 -0.7465
 5765TIP3    H238787   1.682   4.540   1.486  0.2244 -0.1663 -0.5656
 5766TIP3   OH238788   5.865   4.003  15.951  0.7351  0.1055 -0.0969
 5766TIP3    H138789   5.786   4.056  15.960  0.1699 -0.7369 -0.0225
 5766TIP3    H238790   5.835   3.922  15.911  2.0521  1.0004 -3.2450
 5767TIP3   OH238791   0.366   0.025  12.033  0.5289 -0.4331  0.2357
 5767TIP3    H138792   0.381  -0.040  12.101  1.8288 -0.5031 -0.0902
 5767TIP3    H238793   0.288  -0.006  11.987 -0.8508  0.0383  2.1542
 5768TIP3   OH238794   4.575   2.702  10.989  0.1980  0.1612  0.0937
 5768TIP3    H138795   4.490   2.746  10.991 -0.4796 -1.1305  0.4375
 5768TIP3    H238796   4.555   2.610  10.975  1.3992 -0.5121  2.3381
 5769TIP3   OH238797   0.103   2.090  13.821  0.3517  0.0522 -0.5734
 5769TIP3    H138798   0.077   2.127  13.904  0.3708  1.7300 -1.2858
 5769TIP3    H238799   0.196   2.069  13.831  0.8145  1.9273 -0.7264
 5770TIP3   OH238800   3.614   6.383  13.270 -0.0623 -0.4070 -0.1412
 5770TIP3    H138801   3.568   6.426  13.343  0.8789  0.2160  0.0975
 5770TIP3    H238802   3.552   6.386  13.198 -0.0645  1.2868 -0.0992
 5771TIP3   OH238803   0.427   0.667   2.723  0.3316 -0.1694  0.0750
 5771TIP3    H138804   0.348   0.617   2.705  0.2420 -0.0753  0.1987
 5771TIP3    H238805   0.473   0.616   2.790  0.2354 -0.0810  0.2081
 5772TIP3   OH238806   3.691   6.174   2.930 -0.4312 -0.2847  0.2096
 5772TIP3    H138807   3.612   6.166   2.982 -0.9329  1.5001 -0.2099
 5772TIP3    H238808   3.703   6.269   2.918  1.0539 -0.5561 -0.8040
 5773TIP3   OH238809   2.775   3.202  15.655 -0.2853  0.0065 -0.6579
 5773TIP3    H138810   2.817   3.258  15.720 -2.6247  1.2473 -0.0740
 5773TIP3    H238811   2.785   3.113  15.689 -0.6087  0.5405  0.9322
 5774TIP3   OH238812   4.985   5.937  13.418 -0.3506 -0.1489  0.0084
 5774TIP3    H138813   4.998   6.031  13.431  0.9570  0.0265 -2.1161
 5774TIP3    H238814   4.945   5.931  13.331  0.6297 -1.6103 -0.3658
 5775TIP3   OH238815   0.640   0.276  14.106 -0.0446  0.1552  0.1826
 5775TIP3    H138816   0.733   0.256  14.096 -0.0900  0.3626 -0.7249
 5775TIP3    H238817   0.637   0.359  14.154  0.1827 -0.9204  2.1641
 5776TIP3   OH238818   1.310   4.672  12.672  0.1670  0.0583 -0.4256
 5776TIP3    H138819   1.268   4.751  12.707  1.4119  0.0860  1.0875
 5776TIP3    H238820   1.239   4.608  12.667 -0.7073  1.0256 -0.9672
 5777TIP3   OH238821   0.287   5.811   0.073 -0.2552 -0.3089 -0.0377
 5777TIP3    H138822   0.368   5.802   0.124  0.3417  2.3760 -0.3349
 5777TIP3    H238823   0.217   5.800   0.137  0.4368  0.2835  0.8646
 5778TIP3   OH238824   2.142   5.458   4.347 -0.2734 -0.7433  0.0712
 5778TIP3    H138825   2.224   5.430   4.306  0.1918 -0.8154  1.0122
 5778TIP3    H238826   2.109   5.527   4.291 -1.4863 -3.1301 -2.3758
 5779TIP3   OH238827   6.460   3.064  14.043 -0.8104  0.0002 -0.0677
 5779TIP3    H138828   6.390   3.065  13.978  0.0917 -0.9503 -1.0895
 5779TIP3    H238829   6.424   3.113  14.117 -2.2391  0.2401 -0.8766
 5780TIP3   OH238830   6.509   1.062   3.819 -0.2844  0.1896  0.3590
 5780TIP3    H138831   6.535   1.154   3.807  0.7651 -0.2020 -0.5952
 5780TIP3    H238832   6.557   1.034   3.897  0.9889 -0.0643 -0.4671
 5781TIP3   OH238833   1.298   6.761  14.410  0.2661 -0.2565  0.0422
 5781TIP3    H138834   1.224   6.708  14.382 -0.3856 -0.0498  1.3062
 5781TIP3    H238835   1.362   6.698  14.443  0.6615 -0.4325 -1.0188
 5782TIP3   OH238836   5.123   0.023   0.969 -0.2661  0.7770  0.0593
 5782TIP3    H138837   5.079   0.035   0.885 -0.0177 -0.9839 -0.3672
 5782TIP3    H238838   5.081  -0.055   1.006  0.1322  1.1120  1.2387
 5783TIP3   OH238839   2.124   5.424  14.166  0.1687  0.1122  0.4226
 5783TIP3    H138840   2.036   5.396  14.191  0.2143  0.2065  0.6951
 5783TIP3    H238841   2.176   5.343  14.170 -0.2249 -0.2582 -1.2710
 5784TIP3   OH238842   1.312   3.193  16.613  0.0495 -0.4418  0.0951
 5784TIP3    H138843   1.320   3.122  16.676  2.0480  0.2466  0.7048
 5784TIP3    H238844   1.310   3.272  16.667 -0.3034  0.0529 -0.6350
 5785TIP3   OH238845   6.298   4.439   4.150 -0.0614  0.0626 -0.2098
 5785TIP3    H138846   6.325   4.525   4.118  0.7200 -0.4624 -0.9846
 5785TIP3    H238847   6.202   4.442   4.147 -0.0376  0.0692 -2.5854
 5786TIP3   OH238848   6.133   5.211   0.521  0.0562 -0.2908 -0.9165
 5786TIP3    H138849   6.218   5.169   0.538  0.6803  1.5574  0.9817
 5786TIP3    H238850   6.085   5.146   0.470  1.9407 -2.1531 -0.5216
 5787TIP3   OH238851   1.645   6.493  12.627 -0.0180  0.1013 -0.3161
 5787TIP3    H138852   1.573   6.434  12.650 -1.0104  1.2470 -0.3604
 5787TIP3    H238853   1.646   6.494  12.532 -1.8475  2.2256 -0.3872
 5788TIP3   OH238854   2.618   5.154  16.950 -0.3150 -0.2910 -0.6713
 5788TIP3    H138855   2.663   5.095  16.889  0.6813 -0.7521  0.4812
 5788TIP3    H238856   2.630   5.241  16.912 -1.4249 -0.7402 -2.1692
 5789TIP3   OH238857   0.658   0.048  13.817 -0.1741  0.0561 -0.3461
 5789TIP3    H138858   0.627   0.078  13.732 -0.0067  1.7778  0.1519
 5789TIP3    H238859   0.609   0.101  13.881 -0.3771 -1.2703  0.6403
 5790TIP3   OH238860   4.528   1.973  16.434  0.3603 -0.3250 -0.0309
 5790TIP3    H138861   4.442   2.013  16.443 -0.0231 -1.3804  1.4682
 5790TIP3    H238862   4.523   1.894  16.488  1.4635 -1.7684 -1.9161
 5791TIP3   OH238863   2.093   0.023   0.362 -0.9025 -0.4512 -0.9817
 5791TIP3    H138864   2.137   0.101   0.328 -3.7777  1.7360 -0.0817
 5791TIP3    H238865   2.158  -0.018   0.419  0.2871  2.1754 -0.2829
 5792TIP3   OH238866   5.564   1.865   5.356  0.3523  0.2405 -0.0062
 5792TIP3    H138867   5.470   1.848   5.366  0.6210 -1.2104  0.3178
 5792TIP3    H238868   5.605   1.782   5.380  1.6995  0.7074 -0.6422
 5793TIP3   OH238869   6.733   5.662   3.056 -0.2795 -0.0550  0.2478
 5793TIP3    H138870   6.711   5.594   3.120  0.6837 -0.0605  0.5891
 5793TIP3    H238871   6.751   5.614   2.975  0.9962 -0.2846  0.6438
 5794TIP3   OH238872   0.303   6.557   1.834  0.4296  0.2114 -0.4368
 5794TIP3    H138873   0.273   6.484   1.888 -0.4317  0.8756  0.0169
 5794TIP3    H238874   0.222   6.605   1.813  0.8132  0.2681 -1.8709
 5795TIP3   OH238875   3.463   6.773  12.060 -0.0586  0.1221  0.2059
 5795TIP3    H138876   3.377   6.808  12.084  0.5285  0.9239  1.2670
 5795TIP3    H238877   3.492   6.829  11.989 -0.6520 -0.5282 -0.5658
 5796TIP3   OH238878   3.158   4.334   2.856 -0.1575 -0.1067 -0.0607
 5796TIP3    H138879   3.230   4.396   2.865 -1.7566  1.6117  2.0470
 5796TIP3    H238880   3.094   4.381   2.802 -1.4213  0.2023  1.6214
 5797TIP3   OH238881   0.300   5.623   2.255  0.1677  0.4645 -0.0613
 5797TIP3    H138882   0.280   5.711   2.222  3.2366  0.2347 -3.1870
 5797TIP3    H238883   0.396   5.622   2.262  0.3938 -3.0185 -1.6269
 5798TIP3   OH238884   5.633   3.869  16.775 -0.2568  0.0071  0.2009
 5798TIP3    H138885   5.664   3.930  16.708  0.2653 -1.0540 -0.5418
 5798TIP3    H238886   5.572   3.921  16.828  0.7893  1.3997  0.0942
 5799TIP3   OH238887   5.604   0.493   4.018  0.2554  0.1218  0.1299
 5799TIP3    H138888   5.674   0.427   4.026  0.2014 -0.0386 -0.6409
 5799TIP3    H238889   5.538   0.464   4.081  1.1083  0.5863  1.2785
 5800TIP3   OH238890   1.064   1.620   1.859 -0.3555 -0.1637 -0.0324
 5800TIP3    H138891   0.978   1.616   1.818 -0.7966  0.0233  0.8619
 5800TIP3    H238892   1.058   1.561   1.934  0.6173 -0.9243 -0.5290
 5801TIP3   OH238893   0.694   1.766   4.209 -0.3286 -0.2473 -0.5670
 5801TIP3    H138894   0.636   1.821   4.156 -0.0529 -0.5557 -1.1950
 5801TIP3    H238895   0.740   1.828   4.266  0.4622  0.2611 -1.7214
 5802TIP3   OH238896   4.864   5.483   1.577 -0.5594 -0.0285  0.4392
 5802TIP3    H138897   4.832   5.564   1.617 -1.1946 -1.8957  4.2197
 5802TIP3    H238898   4.836   5.414   1.637  2.8893 -2.7429 -0.6894
 5803TIP3   OH238899   5.183   1.746  13.024 -0.9618  0.5086  0.0799
 5803TIP3    H138900   5.185   1.650  13.018 -1.6606  0.5187 -0.5169
 5803TIP3    H238901   5.265   1.774  12.982 -1.1359  0.1928 -0.4896
 5804TIP3   OH238902   2.685   4.427   3.632 -0.3750 -0.0691  1.1561
 5804TIP3    H138903   2.691   4.408   3.538 -1.3742  2.2151  0.5739
 5804TIP3    H238904   2.747   4.499   3.646  1.2061 -1.6144  2.6975
 5805TIP3   OH238905   3.907   5.347   0.298  0.0778 -0.6264  0.3902
 5805TIP3    H138906   3.886   5.255   0.313  0.1790 -0.7978 -0.4726
 5805TIP3    H238907   3.823   5.389   0.282  0.1182 -0.7500 -0.1487
 5806TIP3   OH238908   3.884   6.612  16.586 -0.5234 -0.2508  0.3445
 5806TIP3    H138909   3.841   6.622  16.671  1.0259  0.6975  1.0512
 5806TIP3    H238910   3.977   6.622  16.604 -0.0938 -0.7727 -1.3654
 5807TIP3   OH238911   5.092   4.745  14.089  0.1989 -0.4308 -0.9213
 5807TIP3    H138912   5.125   4.692  14.161 -0.2120  2.2031  1.3858
 5807TIP3    H238913   5.162   4.806  14.069  0.0434 -0.6698 -2.3519
 5808TIP3   OH238914   0.087   6.104   0.047 -0.2658 -0.0587  0.7501
 5808TIP3    H138915   0.174   6.137   0.028 -0.1877 -0.1604  0.9298
 5808TIP3    H238916   0.061   6.056  -0.033 -0.6308  0.9443  0.2475
 5809TIP3   OH238917   0.471   6.528   1.614  0.4509 -0.2038 -0.5395
 5809TIP3    H138918   0.551   6.504   1.660  1.0413  0.2811 -1.2838
 5809TIP3    H238919   0.404   6.531   1.682  0.7236 -2.1052 -0.1198
 5810TIP3   OH238920   1.532   3.783   3.542  0.3680  0.1531  0.0692
 5810TIP3    H138921   1.609   3.726   3.535  1.2403  1.4717 -2.9746
 5810TIP3    H238922   1.457   3.724   3.541  1.2581 -1.0888 -2.6253
 5811TIP3   OH238923   1.614   5.287   1.878 -0.1983 -0.8591 -0.4585
 5811TIP3    H138924   1.587   5.226   1.809  1.7855 -1.5587 -0.6707
 5811TIP3    H238925   1.627   5.233   1.955  0.6404 -0.5783 -0.3918
 5812TIP3   OH238926   4.023   1.145   5.408 -0.0306 -0.1889 -0.0712
 5812TIP3    H138927   4.056   1.085   5.340  1.0662 -0.4453  0.6564
 5812TIP3    H238928   4.024   1.231   5.366  0.4686 -0.3697 -0.4434
 5813TIP3   OH238929   4.592   6.068   1.538  0.1357  0.1011 -0.0568
 5813TIP3    H138930   4.528   6.133   1.508 -0.4108 -0.8846 -1.0736
 5813TIP3    H238931   4.587   6.073   1.634 -3.5563 -1.8397  0.0484
 5814TIP3   OH238932   0.574   0.112   2.063 -0.3234  0.0574 -0.0777
 5814TIP3    H138933   0.645   0.130   2.001 -1.8748  1.9770 -1.4202
 5814TIP3    H238934   0.611   0.136   2.148  2.1298 -3.4306  0.0618
 5815TIP3   OH238935   3.631   0.087  15.533 -0.9245 -0.0399  0.0600
 5815TIP3    H138936   3.612   0.145  15.459  1.4516 -0.8342 -1.2902
 5815TIP3    H238937   3.546   0.051  15.558 -1.7626 -0.1529 -2.6529
 5816TIP3   OH238938   2.589   2.475   2.566 -0.1092 -0.8397  0.2562
 5816TIP3    H138939   2.682   2.478   2.588 -0.0706 -2.5513  0.4264
 5816TIP3    H238940   2.578   2.393   2.517 -1.5010 -0.5922  0.1145
 5817TIP3   OH238941   6.248   1.939   2.214  0.0573  0.1506  0.0984
 5817TIP3    H138942   6.183   1.909   2.278  1.4977  2.2016  2.7139
 5817TIP3    H238943   6.196   1.975   2.143 -1.6532 -0.0684  1.1683
 5818TIP3   OH238944   6.016   1.804   2.354  0.8009  0.1417 -0.4287
 5818TIP3    H138945   6.002   1.719   2.313  0.9088  0.6923 -1.6353
 5818TIP3    H238946   5.945   1.859   2.321  0.5180  0.4390  0.6238
 5819TIP3   OH238947   4.232   5.486  16.364 -1.0178 -0.0110  0.7650
 5819TIP3    H138948   4.259   5.396  16.382 -0.4153  0.2048  0.9601
 5819TIP3    H238949   4.313   5.531  16.338 -1.5509  0.1249 -0.7633
 5820TIP3   OH238950   0.410   5.295   6.494 -0.6218  0.2929  0.4460
 5820TIP3    H138951   0.459   5.369   6.531  0.0920  0.5270 -0.8851
 5820TIP3    H238952   0.322   5.330   6.480 -0.5275  0.6187  0.6424
 5821TIP3   OH238953   0.234   6.243  17.042 -0.3830 -0.1421 -0.4973
 5821TIP3    H138954   0.243   6.155  17.079  2.2096  0.8529  1.6292
 5821TIP3    H238955   0.307   6.250  16.980  1.3380  1.3922  1.5654
 5822TIP3   OH238956   0.362   5.865  16.245 -0.3817 -0.1978  0.3302
 5822TIP3    H138957   0.394   5.850  16.334  0.8520  0.7533  0.0723
 5822TIP3    H238958   0.292   5.800  16.234  0.5669 -1.4703  1.3892
 5823TIP3   OH238959   3.655   0.539  15.655 -0.2295  0.8238 -0.3034
 5823TIP3    H138960   3.574   0.490  15.655  0.1368  0.1940  0.4324
 5823TIP3    H238961   3.673   0.557  15.563 -0.7869  0.2786 -0.5218
 5824TIP3   OH238962   2.877   0.853  10.756 -0.4215  0.1796  0.1598
 5824TIP3    H138963   2.856   0.943  10.732 -0.5738 -0.0968 -0.7802
 5824TIP3    H238964   2.882   0.806  10.673  1.7720 -0.2295  0.4547
 5825TIP3   OH238965   2.388   1.139   1.038 -0.0865  0.3458 -0.1686
 5825TIP3    H138966   2.392   1.193   1.116  0.7305 -0.2956  0.2561
 5825TIP3    H238967   2.299   1.150   1.005 -0.5035  0.4754  0.9612
 5826TIP3   OH238968   2.247   2.084   4.359 -0.2300  0.6581 -0.1388
 5826TIP3    H138969   2.227   2.123   4.444  1.8001 -0.8387  1.0983
 5826TIP3    H238970   2.240   1.990   4.373  0.0077  0.3795 -1.6917
 5827TIP3   OH238971   4.600   5.560  16.200 -0.2001  0.4675 -0.4527
 5827TIP3    H138972   4.542   5.484  16.205  1.8607 -1.2118 -0.8294
 5827TIP3    H238973   4.684   5.525  16.170  0.8298  2.9149 -0.6837
 5828TIP3   OH238974   6.249   0.238  11.584 -0.1840  0.1176 -0.3222
 5828TIP3    H138975   6.204   0.166  11.539 -1.7758  1.0424 -0.2715
 5828TIP3    H238976   6.226   0.227  11.676  0.8415 -0.1895 -0.0941
 5829TIP3   OH238977   3.548   4.161   2.038 -0.0162 -0.0775  0.1725
 5829TIP3    H138978   3.506   4.127   2.118 -0.0654  1.0411  0.6333
 5829TIP3    H238979   3.484   4.143   1.969  0.8860 -2.9894 -0.0624
 5830TIP3   OH238980   4.224   3.948  16.802  0.1642 -0.1162  0.0232
 5830TIP3    H138981   4.261   3.860  16.799  0.2061 -0.0809 -0.6609
 5830TIP3    H238982   4.132   3.934  16.825 -0.5873 -0.6140 -2.8653
 5831TIP3   OH238983   2.407   3.309   2.250 -0.5560 -0.3509 -0.2930
 5831TIP3    H138984   2.340   3.353   2.198 -1.3693 -0.3424  0.7390
 5831TIP3    H238985   2.487   3.359   2.233 -1.3070  1.0807  0.2690
 5832TIP3   OH238986   1.272   3.165  12.409 -0.2337  0.2308  0.1529
 5832TIP3    H138987   1.307   3.254  12.405 -1.5090  0.7551  0.0092
 5832TIP3    H238988   1.177   3.177  12.400 -0.3947 -1.1708 -0.1984
 5833TIP3   OH238989   4.519   5.907  11.871 -0.0228 -0.1848  0.3120
 5833TIP3    H138990   4.502   5.813  11.883 -2.3447  0.0404 -0.6879
 5833TIP3    H238991   4.452   5.951  11.923  0.4573  0.9053  0.0375
 5834TIP3   OH238992   1.540   6.749   4.800  0.1105  0.3703 -0.2232
 5834TIP3    H138993   1.557   6.738   4.893  0.4765  0.3244 -0.2962
 5834TIP3    H238994   1.446   6.732   4.791 -0.0436  0.9570  0.2215
 5835TIP3   OH238995   3.612   2.546  14.713  0.8068  0.0967  0.2456
 5835TIP3    H138996   3.675   2.491  14.665 -0.3852 -0.7485 -0.4121
 5835TIP3    H238997   3.647   2.635  14.705  0.5717  0.0350 -2.4351
 5836TIP3   OH238998   0.956   1.486   3.425  0.0698 -0.1607 -0.5512
 5836TIP3    H138999   1.019   1.554   3.402  0.1927 -0.2939 -0.6141
 5836TIP3    H239000   0.952   1.430   3.347  1.6310 -1.4948  0.2475
 5837TIP3   OH239001   3.288   1.215   5.614  0.0850 -0.5499 -0.2968
 5837TIP3    H139002   3.326   1.282   5.671  0.0866 -1.3277  0.6439
 5837TIP3    H239003   3.358   1.151   5.603  0.6967  0.4301 -2.6538
 5838TIP3   OH239004   0.322   4.614   4.602  0.4616 -0.4558  0.5940
 5838TIP3    H139005   0.379   4.539   4.618  1.0837  0.0436  0.7607
 5838TIP3    H239006   0.259   4.583   4.537  1.7854 -0.6096 -0.6702
 5839TIP3   OH239007   2.303   1.962  11.863 -0.3871  0.3564  0.4813
 5839TIP3    H139008   2.270   1.961  11.953 -0.4489 -0.9166  0.4658
 5839TIP3    H239009   2.317   2.055  11.843 -2.1252  0.8022  1.1564
 5840TIP3   OH239010   6.378   4.924  17.009  0.2500  0.1210 -0.6723
 5840TIP3    H139011   6.368   4.943  16.916  2.8649  0.3626 -0.9759
 5840TIP3    H239012   6.471   4.904  17.019 -0.4464 -2.6487  1.4181
 5841TIP3   OH239013   1.370   0.087  15.288  0.4612  0.5419 -0.0835
 5841TIP3    H139014   1.353   0.048  15.373  2.4365 -0.7726 -0.2264
 5841TIP3    H239015   1.346   0.179  15.299 -0.7792  0.0974  1.3887
 5842TIP3   OH239016   0.243   3.364   0.556 -0.1436  0.3976 -0.2724
 5842TIP3    H139017   0.239   3.362   0.652 -0.1911 -0.2676 -0.2833
 5842TIP3    H239018   0.332   3.392   0.536 -0.2348  0.8595 -0.0322
 5843TIP3   OH239019   3.110   1.552   6.116  0.2375  0.2310 -0.2044
 5843TIP3    H139020   3.162   1.513   6.046  0.3430 -1.5132  0.7613
 5843TIP3    H239021   3.173   1.570   6.186  0.3853  3.3736 -1.0362
 5844TIP3   OH239022   4.832   1.482  16.183 -0.7101 -0.2881 -0.0737
 5844TIP3    H139023   4.770   1.554  16.195 -1.0225 -0.6107  0.2427
 5844TIP3    H239024   4.829   1.463  16.089 -2.5839 -1.6294  0.2127
 5845TIP3   OH239025   4.455   0.715   0.695 -0.1780  0.2995 -0.2374
 5845TIP3    H139026   4.533   0.747   0.648  2.0442 -1.1905  2.1770
 5845TIP3    H239027   4.464   0.751   0.783 -0.3506 -2.6425  1.0739
 5846TIP3   OH239028   5.460   4.743  13.743 -0.1077  0.3434  0.0484
 5846TIP3    H139029   5.412   4.818  13.779 -2.5699 -1.3262  0.5410
 5846TIP3    H239030   5.552   4.769  13.745 -0.9338  4.0517 -1.5551
 5847TIP3   OH239031   5.274   5.535   2.220 -0.2273 -0.2531 -0.3313
 5847TIP3    H139032   5.193   5.551   2.269 -0.1865  0.1834 -0.4005
 5847TIP3    H239033   5.330   5.487   2.280  0.2576  1.2541  0.4726
 5848TIP3   OH239034   4.710   1.068   4.312 -0.4474  0.2282  0.2014
 5848TIP3    H139035   4.690   1.136   4.248  1.1021  1.2110  0.7209
 5848TIP3    H239036   4.628   1.020   4.321 -1.4095  1.6323 -0.6402
 5849TIP3   OH239037   2.763   3.120  12.964  1.0733  0.3149 -0.0941
 5849TIP3    H139038   2.735   3.211  12.958  0.5459  0.2203  0.7172
 5849TIP3    H239039   2.685   3.069  12.942  1.4317  0.0546 -0.7911
 5850TIP3   OH239040   6.041   4.716  16.032 -0.0849  0.0893 -0.0659
 5850TIP3    H139041   6.068   4.649  15.970 -1.0397  0.8184 -1.3143
 5850TIP3    H239042   6.113   4.720  16.095  0.6485 -1.0783 -0.7861
 5851TIP3   OH239043   3.593   1.048  10.851  0.3033 -0.6879 -0.4525
 5851TIP3    H139044   3.500   1.026  10.840  0.8617 -3.9543  0.1017
 5851TIP3    H239045   3.621   1.076  10.764 -1.0117 -0.5467 -0.8580
 5852TIP3   OH239046   1.031   5.076  12.883 -0.7299 -0.2386 -0.3291
 5852TIP3    H139047   1.096   5.092  12.815 -0.0045  0.4018  0.4998
 5852TIP3    H239048   0.947   5.099  12.842 -0.4895 -1.3142 -1.4911
 5853TIP3   OH239049   1.855   1.627   0.580  0.0887 -0.2451 -0.3512
 5853TIP3    H139050   1.787   1.617   0.514 -0.3621  1.6504 -0.2581
 5853TIP3    H239051   1.834   1.563   0.647 -1.3061 -0.0692 -0.5947
 5854TIP3   OH239052   3.982   4.289  15.380 -0.3038  0.1317 -0.6369
 5854TIP3    H139053   3.974   4.307  15.286  2.4452  2.0501 -0.6272
 5854TIP3    H239054   4.069   4.322  15.403 -0.7615 -0.5814  2.5493
 5855TIP3   OH239055   2.857   6.164  11.852 -0.7056  0.0731 -0.0919
 5855TIP3    H139056   2.950   6.170  11.871 -0.6768  0.5615 -0.3798
 5855TIP3    H239057   2.841   6.070  11.839 -0.0699  0.0822 -1.0059
 5856TIP3   OH239058   1.611   3.726  14.560 -0.2298  0.8919 -0.5685
 5856TIP3    H139059   1.522   3.704  14.532 -0.8901  1.3074  1.0720
 5856TIP3    H239060   1.623   3.678  14.642  0.5970  1.7959 -0.1374
 5857TIP3   OH239061   5.361   1.580   3.780 -0.4873  0.4905 -0.8603
 5857TIP3    H139062   5.313   1.529   3.846  0.8955 -0.5513 -0.6136
 5857TIP3    H239063   5.323   1.668   3.786 -1.6465 -0.0420  0.0304
 5858TIP3   OH239064   3.452   0.438   2.133 -0.0573 -0.4510 -0.0698
 5858TIP3    H139065   3.507   0.361   2.123 -0.8075 -1.0887  0.5899
 5858TIP3    H239066   3.510   0.512   2.114  0.6929 -1.1663 -0.6056
 5859TIP3   OH239067   2.121   0.738   3.558  0.7429  0.6923  0.7256
 5859TIP3    H139068   2.169   0.818   3.539  0.5655  0.9161  1.2138
 5859TIP3    H239069   2.063   0.726   3.483  0.9784  0.8569  0.5151
 5860TIP3   OH239070   1.709   0.759   4.100 -0.1666  0.0096  0.1697
 5860TIP3    H139071   1.682   0.726   4.186 -0.3382 -1.4446 -0.4176
 5860TIP3    H239072   1.699   0.684   4.042  0.4721  0.8299 -1.0205
 5861TIP3   OH239073   5.683   5.424  12.132 -0.6549 -0.2472 -0.3575
 5861TIP3    H139074   5.736   5.381  12.065 -1.6657 -1.2388 -0.5600
 5861TIP3    H239075   5.681   5.361  12.205  0.9344  1.0706  0.8935
 5862TIP3   OH239076   3.664   0.767   4.179 -0.2139 -0.5649  0.3750
 5862TIP3    H139077   3.714   0.847   4.161  0.2644 -0.8718  0.3212
 5862TIP3    H239078   3.692   0.740   4.266  0.8252 -1.5417 -0.2352
 5863TIP3   OH239079   6.156   1.339   4.340  0.2225  0.1209  0.3819
 5863TIP3    H139080   6.066   1.313   4.322 -0.0447 -0.6989  2.6162
 5863TIP3    H239081   6.189   1.373   4.256 -0.8506 -3.2270 -1.5734
 5864TIP3   OH239082   5.263   3.875   5.320  0.0435  0.0711  0.2948
 5864TIP3    H139083   5.220   3.817   5.257  0.5575 -1.6220  1.4326
 5864TIP3    H239084   5.285   3.953   5.270 -0.0473 -0.9908 -1.4753
 5865TIP3   OH239085   4.792   6.616  15.934 -0.0050  0.6621 -0.3486
 5865TIP3    H139086   4.741   6.664  15.869  2.2880  1.0924 -1.9444
 5865TIP3    H239087   4.869   6.585  15.886  0.0095 -2.2128  1.2989
 5866TIP3   OH239088   5.320   3.571  13.699 -0.0436 -0.4190 -0.2758
 5866TIP3    H139089   5.247   3.587  13.639  0.0046 -0.8564 -0.4607
 5866TIP3    H239090   5.280   3.570  13.786 -0.0633  0.5381 -0.2637
 5867TIP3   OH239091   6.636   2.903  16.063  0.0152 -0.5441  0.1228
 5867TIP3    H139092   6.563   2.891  16.003 -0.4465  0.3489  0.4915
 5867TIP3    H239093   6.604   2.869  16.147  1.1318 -3.0938 -0.3855
 5868TIP3   OH239094   4.630   5.555  16.468 -0.2688  0.1147  0.1083
 5868TIP3    H139095   4.559   5.598  16.517  0.8166  2.1396  0.0124
 5868TIP3    H239096   4.613   5.580  16.376 -0.8827 -1.5977 -0.2826
 5869TIP3   OH239097   4.034   6.438   2.964  0.0507 -0.1188 -0.0318
 5869TIP3    H139098   4.076   6.453   2.880 -0.3042  1.2860  0.0142
 5869TIP3    H239099   4.079   6.362   3.001  0.5292 -0.4547 -1.2719
 5870TIP3   OH239100   5.282   0.261   4.953  0.4321  0.6595 -0.3326
 5870TIP3    H139101   5.262   0.173   4.984  0.9789  0.2634 -1.0916
 5870TIP3    H239102   5.229   0.272   4.875 -0.6883  1.5380  0.5074
 5871TIP3   OH239103   0.822   5.318  12.970  0.6458  0.6830  0.4369
 5871TIP3    H139104   0.794   5.248  13.030  0.0868  2.0189  1.8033
 5871TIP3    H239105   0.756   5.320  12.901 -0.9661  1.7070  1.9323
 5872TIP3   OH239106   5.589   3.778   6.332 -0.3284 -0.3432 -0.3481
 5872TIP3    H139107   5.626   3.693   6.356  0.2713 -0.5810 -2.0208
 5872TIP3    H239108   5.497   3.759   6.314 -0.4670 -0.4090  0.3860
 5873TIP3   OH239109   1.882   5.465  16.628  0.1069  0.3731 -0.2432
 5873TIP3    H139110   1.908   5.551  16.596  1.3631 -0.2279 -0.8883
 5873TIP3    H239111   1.895   5.471  16.723  1.4602  0.4996 -0.4138
 5874TIP3   OH239112   0.896   1.722  15.424  0.5371  0.2343  0.3994
 5874TIP3    H139113   0.964   1.729  15.490  1.1122  2.1260 -0.3425
 5874TIP3    H239114   0.917   1.641  15.377  0.6490 -0.6447  1.8811
 5875TIP3   OH239115   5.628   3.086   2.446  0.4693  0.3965 -0.8011
 5875TIP3    H139116   5.630   3.051   2.536  0.6101 -0.9965 -1.3193
 5875TIP3    H239117   5.638   3.180   2.457 -1.8482  0.5532  0.8206
 5876TIP3   OH239118   0.084   5.416   0.717 -0.8260  0.1945 -0.3832
 5876TIP3    H139119   0.058   5.434   0.626 -0.0492  2.0855 -0.2878
 5876TIP3    H239120   0.001   5.414   0.765 -1.3981 -2.5316 -1.3285
 5877TIP3   OH239121   1.088   1.690   6.517  0.1874 -0.0019  0.1412
 5877TIP3    H139122   1.009   1.740   6.497 -1.0461 -1.8532  0.1065
 5877TIP3    H239123   1.059   1.598   6.516  2.4933 -0.7905 -0.6015
 5878TIP3   OH239124   0.094   1.756  15.084 -0.3413 -0.2748 -0.2819
 5878TIP3    H139125   0.056   1.805  15.157  0.8118  0.2376 -0.0003
 5878TIP3    H239126   0.132   1.824  15.028  0.4768 -0.7922 -0.3588
 5879TIP3   OH239127   0.163   2.034  10.884 -0.2208 -0.1866  0.7302
 5879TIP3    H139128   0.140   1.987  10.964  1.0893 -0.6795  0.8349
 5879TIP3    H239129   0.087   2.089  10.866 -1.1104 -1.1167  1.5250
 5880TIP3   OH239130   3.054   0.509   4.504 -0.1119 -0.2343  0.0368
 5880TIP3    H139131   3.133   0.561   4.519  0.5679 -0.8883 -1.1108
 5880TIP3    H239132   2.998   0.528   4.579  0.0669  2.1901 -0.3798
 5881TIP3   OH239133   2.380   3.578  16.013  0.7544 -0.0026  0.0891
 5881TIP3    H139134   2.407   3.572  15.921  3.6842  1.1516  0.7390
 5881TIP3    H239135   2.430   3.510  16.057 -1.5333 -1.3535  0.7434
 5882TIP3   OH239136   3.196   1.325   3.309 -0.5352 -0.6546  0.3687
 5882TIP3    H139137   3.185   1.313   3.403 -1.1474 -1.3765  0.2229
 5882TIP3    H239138   3.188   1.236   3.273  1.5825 -0.6526 -0.1968
 5883TIP3   OH239139   4.671   6.753   0.636  0.2516  0.1012 -0.4149
 5883TIP3    H139140   4.642   6.662   0.647 -0.3293  0.3475  0.1706
 5883TIP3    H239141   4.595   6.798   0.600  1.1525 -0.0268 -2.6475
 5884TIP3   OH239142   5.315   0.914   5.043  0.2650  0.3537 -0.1771
 5884TIP3    H139143   5.238   0.934   4.990 -0.2571  1.5330  0.9582
 5884TIP3    H239144   5.333   0.822   5.026 -2.8685 -0.6829  1.2944
 5885TIP3   OH239145   5.356   0.905  15.209 -0.0524  0.1721  0.3388
 5885TIP3    H139146   5.301   0.972  15.249 -0.1055 -0.2853  1.0468
 5885TIP3    H239147   5.297   0.855  15.152 -0.3487 -0.2519  1.0139
 5886TIP3   OH239148   0.565   3.746  14.575  0.5136  0.0288 -0.5467
 5886TIP3    H139149   0.538   3.762  14.485 -0.0094  1.0043 -0.2355
 5886TIP3    H239150   0.649   3.791  14.583  0.9335 -0.7096 -0.7573
 5887TIP3   OH239151   1.681   6.547   3.982  0.1375  0.0334 -0.5704
 5887TIP3    H139152   1.621   6.619   4.001 -0.0301 -0.4279  0.7041
 5887TIP3    H239153   1.762   6.590   3.955 -0.5240  0.6679 -1.6257
 5888TIP3   OH239154   4.858   3.394  15.941  0.6052 -0.3690 -0.0710
 5888TIP3    H139155   4.778   3.373  15.893  0.1132  0.5758  0.3324
 5888TIP3    H239156   4.924   3.336  15.902  0.4929  1.1256 -2.6890
 5889TIP3   OH239157   4.156   2.821  12.423  0.1580  0.1700  0.4821
 5889TIP3    H139158   4.179   2.914  12.432 -2.6020  0.8903  1.1530
 5889TIP3    H239159   4.114   2.815  12.337 -0.2618 -0.3115  0.7157
 5890TIP3   OH239160   5.361   5.414  15.398 -0.4527  0.1620 -0.2071
 5890TIP3    H139161   5.455   5.432  15.395 -0.4447  0.0466 -0.7960
 5890TIP3    H239162   5.354   5.321  15.374 -0.8037  0.4923 -1.4963
 5891TIP3   OH239163   2.765   0.582  15.925 -0.2715  0.3357  0.4089
 5891TIP3    H139164   2.801   0.583  16.014  0.7880  1.0647 -0.0118
 5891TIP3    H239165   2.685   0.635  15.931  0.3800  1.3165  0.7069
 5892TIP3   OH239166   2.280   2.828   1.549 -0.1944 -0.4942  0.2282
 5892TIP3    H139167   2.186   2.818   1.560 -0.2329 -0.7690 -0.3321
 5892TIP3    H239168   2.293   2.922   1.539 -0.2865 -0.3463  1.3777
 5893TIP3   OH239169   1.737   5.203  11.974  0.6326  0.1338 -0.5017
 5893TIP3    H139170   1.648   5.183  12.001  0.6548  0.9239  0.1663
 5893TIP3    H239171   1.792   5.158  12.038  0.8006 -2.1696 -2.1155
 5894TIP3   OH239172   2.574   0.717  16.929 -0.0040  0.6099  0.9983
 5894TIP3    H139173   2.481   0.694  16.933  0.0716  0.0751 -0.0182
 5894TIP3    H239174   2.575   0.802  16.885  0.1060 -0.4921 -1.2658
 5895TIP3   OH239175   4.164   2.496  11.405  0.2169  0.4091 -0.2236
 5895TIP3    H139176   4.246   2.459  11.437 -0.2667  0.8650  1.6677
 5895TIP3    H239177   4.133   2.434  11.338  1.8144 -0.0296 -0.5945
 5896TIP3   OH239178   6.048   3.757   3.242  0.8689  0.1191 -0.2128
 5896TIP3    H139179   6.087   3.684   3.292  0.3747 -1.0654 -1.4971
 5896TIP3    H239180   6.024   3.821   3.309  3.0785 -0.0221  0.8081
 5897TIP3   OH239181   4.407   2.586  11.984 -0.2720 -0.1796  0.0464
 5897TIP3    H139182   4.369   2.615  12.068 -0.2874 -2.1479  0.7648
 5897TIP3    H239183   4.493   2.628  11.981 -0.0213 -0.5490  1.3540
 5898TIP3   OH239184   1.435   0.661  15.032  0.3545 -0.0852 -0.5223
 5898TIP3    H139185   1.478   0.650  15.117 -1.3300 -0.2514  0.3579
 5898TIP3    H239186   1.470   0.591  14.978  0.8399 -0.4870  0.2921
 5899TIP3   OH239187   2.164   3.706  16.549  0.1690 -0.0341 -0.0622
 5899TIP3    H139188   2.092   3.748  16.594 -0.2634 -0.7836 -0.0264
 5899TIP3    H239189   2.123   3.634  16.500  0.4728  1.2938 -2.4026
 5900TIP3   OH239190   2.377   3.810   2.532 -0.5199  0.0501 -0.6956
 5900TIP3    H139191   2.298   3.796   2.584 -1.0989  0.7714 -1.3466
 5900TIP3    H239192   2.388   3.730   2.481  0.0148 -0.6380  0.4505
 5901TIP3   OH239193   0.877   5.006   4.310  0.4419 -0.1332 -0.2629
 5901TIP3    H139194   0.914   4.977   4.226  2.0970  0.6045  0.1724
 5901TIP3    H239195   0.840   5.092   4.292  0.5556 -0.0921 -0.3023
 5902TIP3   OH239196   4.931   0.576  15.811 -0.1789 -0.4221 -0.0804
 5902TIP3    H139197   4.929   0.651  15.871 -2.0698 -1.2483  1.0009
 5902TIP3    H239198   5.020   0.543  15.817  1.6294  3.2181 -2.6592
 5903TIP3   OH239199   5.021   1.922   0.450 -0.1552 -0.3979 -0.3156
 5903TIP3    H139200   5.031   1.954   0.360 -0.6313 -1.5091 -0.7719
 5903TIP3    H239201   4.937   1.877   0.451 -1.1173  1.2709  1.2073
 5904TIP3   OH239202   3.778   5.035  13.537  0.4580 -0.9061  0.0053
 5904TIP3    H139203   3.722   5.095  13.585 -1.7575 -1.5666 -1.6041
 5904TIP3    H239204   3.853   5.088  13.511  0.0535  0.3199  1.2497
 5905TIP3   OH239205   1.521   3.484  15.444 -0.1656 -0.6191  0.1195
 5905TIP3    H139206   1.604   3.437  15.433 -0.8571 -1.8097 -0.2292
 5905TIP3    H239207   1.545   3.565  15.488  1.3538 -0.3720 -1.0632
 5906TIP3   OH239208   6.777   5.189  14.411 -0.1610 -0.0659  0.0588
 5906TIP3    H139209   6.704   5.231  14.367 -0.6238  0.4935  1.3215
 5906TIP3    H239210   6.801   5.116  14.353 -0.2576  1.0642 -1.4589
 5907TIP3   OH239211   1.990   6.413  10.524  0.3607  0.4946 -0.2001
 5907TIP3    H139212   1.935   6.336  10.510 -0.5776  0.5510  2.5706
 5907TIP3    H239213   2.049   6.415  10.449  0.6489 -3.1218 -0.2282
 5908TIP3   OH239214   4.326   0.367  12.425  0.3767  0.3812 -0.1129
 5908TIP3    H139215   4.337   0.277  12.394  0.1194  1.1198 -2.4588
 5908TIP3    H239216   4.295   0.416  12.350  0.5331  2.4786  1.0998
 5909TIP3   OH239217   0.844   1.612  11.138  0.4631 -0.2026  0.0096
 5909TIP3    H139218   0.766   1.604  11.192  0.2033 -1.2626 -0.4798
 5909TIP3    H239219   0.909   1.557  11.182  0.4953 -0.4269 -0.3103
 5910TIP3   OH239220   4.080   5.347   4.001 -0.1813  0.6545 -0.3094
 5910TIP3    H139221   4.102   5.375   3.912  1.1912 -2.5142 -1.1091
 5910TIP3    H239222   4.154   5.291   4.027 -1.3364  0.1572  2.1891
 5911TIP3   OH239223   4.374   1.622   0.847 -0.6242 -0.1318  0.6037
 5911TIP3    H139224   4.394   1.557   0.779  1.7242  0.7822  0.3437
 5911TIP3    H239225   4.312   1.577   0.905  1.3544 -2.8827  0.7968
 5912TIP3   OH239226   1.473   6.529   3.496 -0.2518  0.0764  0.5390
 5912TIP3    H139227   1.540   6.503   3.560 -0.4269  1.5224  1.3459
 5912TIP3    H239228   1.424   6.599   3.539 -1.1970  0.2183 -0.7059
 5913TIP3   OH239229   2.380   3.260  16.677 -0.1745 -0.6008  0.4631
 5913TIP3    H139230   2.311   3.222  16.623  0.2598 -0.2870 -0.3264
 5913TIP3    H239231   2.410   3.336  16.628 -0.7314  0.5269  1.8141
 5914TIP3   OH239232   2.405   1.021  12.866  0.1147 -0.7219 -0.1625
 5914TIP3    H139233   2.390   1.037  12.773 -1.5661 -0.2609  0.1632
 5914TIP3    H239234   2.430   0.928  12.870  2.4742 -0.2052 -1.2652
 5915TIP3   OH239235   5.698   0.071   2.474 -0.2194  0.1275 -0.4061
 5915TIP3    H139236   5.684  -0.020   2.446 -0.6773 -0.0232  0.2715
 5915TIP3    H239237   5.761   0.064   2.546  1.6309  0.5905 -1.8973
 5916TIP3   OH239238   4.677   6.793   4.362  0.1088  0.3516 -0.1695
 5916TIP3    H139239   4.715   6.750   4.439  1.5530  0.1031 -0.9771
 5916TIP3    H239240   4.588   6.759   4.357  0.2893 -0.3158  0.8759
 5917TIP3   OH239241   5.055   4.587   0.061  0.0627  0.1943 -0.3044
 5917TIP3    H139242   5.136   4.553   0.100 -1.0636 -1.9870  0.2797
 5917TIP3    H239243   5.017   4.642   0.130 -0.3619 -1.1213  0.5473
 5918TIP3   OH239244   1.889   2.934   2.012  0.4495 -0.3725 -0.6614
 5918TIP3    H139245   1.913   2.869   1.946  0.9110 -0.6427 -0.2342
 5918TIP3    H239246   1.953   2.922   2.082  0.1867  0.1561 -0.3228
 5919TIP3   OH239247   3.224   6.724   0.131  0.1652  0.1956 -0.1842
 5919TIP3    H139248   3.280   6.672   0.074  0.7645  1.4541 -0.7857
 5919TIP3    H239249   3.157   6.760   0.072 -1.1243 -1.0321  0.4707
 5920TIP3   OH239250   5.369   3.218   2.569  0.1643  0.4274  0.8360
 5920TIP3    H139251   5.316   3.218   2.489 -2.0956  0.5427  2.2533
 5920TIP3    H239252   5.457   3.195   2.539 -0.9501 -1.2657 -1.4683
 5921TIP3   OH239253   3.430   2.115   3.993 -0.4649  0.6818  0.4827
 5921TIP3    H139254   3.461   2.190   3.942  1.0061 -0.6452 -0.6615
 5921TIP3    H239255   3.454   2.135   4.083 -0.3519  1.7060  0.2356
 5922TIP3   OH239256   6.164   0.052  14.881  0.4012 -0.1002 -0.5502
 5922TIP3    H139257   6.254   0.036  14.853  0.1003 -1.6142 -0.7036
 5922TIP3    H239258   6.111   0.033  14.804 -0.1596 -0.7438 -0.0147
 5923TIP3   OH239259   0.514   6.135   0.998 -0.1391  0.2031 -0.4602
 5923TIP3    H139260   0.552   6.047   0.992  1.2131  0.8407 -3.2751
 5923TIP3    H239261   0.428   6.128   0.956  0.8633  0.5491 -2.7439
 5924TIP3   OH239262   0.864   2.409   0.732 -0.2374 -0.4663  0.0094
 5924TIP3    H139263   0.827   2.494   0.754  1.2198  0.2720 -0.3109
 5924TIP3    H239264   0.893   2.417   0.642  0.1710 -1.2114  0.0635
 5925TIP3   OH239265   2.436   1.613  16.045  0.2364  0.2930  0.6564
 5925TIP3    H139266   2.527   1.627  16.069 -0.1217 -0.7280  2.8710
 5925TIP3    H239267   2.431   1.636  15.952  2.6794  0.5511  0.5414
 5926TIP3   OH239268   3.665   5.599   5.729 -0.1140  0.5366 -0.0638
 5926TIP3    H139269   3.708   5.683   5.719 -0.0284  0.6631  1.1854
 5926TIP3    H239270   3.736   5.537   5.747 -0.3991  0.8000  2.3113
 5927TIP3   OH239271   2.900   3.838  14.489 -0.2735  0.4356 -0.0909
 5927TIP3    H139272   2.899   3.929  14.459 -0.8915  0.7139  0.7169
 5927TIP3    H239273   2.808   3.819  14.508 -0.3008 -0.7091 -1.2240
 5928TIP3   OH239274   3.853   1.119   5.605  0.0841  0.0027 -0.6774
 5928TIP3    H139275   3.904   1.132   5.685  1.3180  0.9317 -1.5584
 5928TIP3    H239276   3.917   1.131   5.534 -1.1329  0.0214 -1.8184
 5929TIP3   OH239277   0.482   3.571   2.929  0.3633 -0.6187 -0.0178
 5929TIP3    H139278   0.416   3.632   2.963  0.4769  0.7243 -2.0885
 5929TIP3    H239279   0.431   3.495   2.900  0.0698 -0.8876  1.1358
 5930TIP3   OH239280   6.355   2.434   4.977  0.1345 -0.0412 -0.1749
 5930TIP3    H139281   6.337   2.441   4.883  1.4587  0.1946 -0.4354
 5930TIP3    H239282   6.410   2.357   4.985 -0.9819 -0.7850  0.5905
 5931TIP3   OH239283   4.226   2.565  13.821 -0.0334 -0.4983 -0.8209
 5931TIP3    H139284   4.151   2.613  13.783  0.8840  0.8624 -0.9761
 5931TIP3    H239285   4.299   2.587  13.764  0.9868  0.0656  0.6752
 5932TIP3   OH239286   6.646   5.161  12.752 -0.0480 -0.0491  0.3061
 5932TIP3    H139287   6.588   5.236  12.737  0.0226  0.3686  1.9217
 5932TIP3    H239288   6.681   5.175  12.840 -0.5381 -2.3143  0.9192
 5933TIP3   OH239289   6.654   5.656  17.050 -0.7362 -0.5423 -0.0345
 5933TIP3    H139290   6.603   5.699  17.119 -0.9851 -0.7880 -0.0626
 5933TIP3    H239291   6.745   5.666  17.077 -0.6265  1.6540 -0.9575
 5934TIP3   OH239292   1.205   5.511   1.231  0.0903  0.0298 -0.7028
 5934TIP3    H139293   1.192   5.423   1.194  0.8623 -1.7832  2.9263
 5934TIP3    H239294   1.132   5.562   1.196 -0.9043 -2.2721 -2.2397
 5935TIP3   OH239295   1.809   1.779  13.117 -0.2448  0.5180  0.1781
 5935TIP3    H139296   1.742   1.710  13.115 -0.3275  0.5797 -2.2820
 5935TIP3    H239297   1.760   1.859  13.101  0.3213  0.6195 -1.1609
 5936TIP3   OH239298   0.753   4.772  14.375 -0.0141  0.2542 -0.0147
 5936TIP3    H139299   0.774   4.700  14.316 -1.6778 -1.4109  1.2839
 5936TIP3    H239300   0.834   4.823  14.382  1.1407 -1.3457 -1.1729
 5937TIP3   OH239301   2.733   5.085   4.884  0.7487  0.7132 -0.1026
 5937TIP3    H139302   2.649   5.046   4.859  1.3209 -1.1623  0.7067
 5937TIP3    H239303   2.789   5.073   4.807  1.1564 -0.8764  0.4069
 5938TIP3   OH239304   5.071   4.946   5.899  0.4155 -0.5522 -0.1995
 5938TIP3    H139305   5.059   4.864   5.947  1.3980 -0.8800 -0.4925
 5938TIP3    H239306   4.985   4.964   5.861 -0.4937 -0.0913  1.9233
 5939TIP3   OH239307   4.060   0.141   5.663 -0.6394 -0.0482 -0.3068
 5939TIP3    H139308   4.145   0.159   5.622 -1.1294 -0.5458 -1.5661
 5939TIP3    H239309   4.056   0.045   5.668 -0.6877 -0.0059  0.7248
 5940TIP3   OH239310   4.628   3.660   4.661 -0.5766  0.3227 -0.1941
 5940TIP3    H139311   4.558   3.600   4.634  0.7357 -1.2302 -0.2691
 5940TIP3    H239312   4.708   3.609   4.654  0.2924  1.0380  2.8801
 5941TIP3   OH239313   6.023   5.272  10.357 -0.1154  0.4069 -0.3925
 5941TIP3    H139314   6.056   5.354  10.396  0.4839  0.4113 -0.8977
 5941TIP3    H239315   6.087   5.206  10.383 -0.4502  0.1432 -0.2215
 5942TIP3   OH239316   1.815   0.579   5.545  0.3540  0.2933 -0.6652
 5942TIP3    H139317   1.851   0.523   5.475  1.1718  0.7202 -0.6014
 5942TIP3    H239318   1.839   0.534   5.626 -0.6026 -0.2058 -0.6432
 5943TIP3   OH239319   4.190   1.156   4.976 -0.0276 -0.0719 -0.1427
 5943TIP3    H139320   4.157   1.181   4.890  1.3298  1.6100 -0.2286
 5943TIP3    H239321   4.112   1.147   5.030 -0.8290  4.9052 -0.0193
 5944TIP3   OH239322   0.142   6.636   2.684 -0.0394 -0.3259 -0.4681
 5944TIP3    H139323   0.125   6.591   2.601  0.1921 -0.2720 -0.5479
 5944TIP3    H239324   0.152   6.565   2.748 -2.6085 -0.3267  0.0128
 5945TIP3   OH239325   1.758   2.209   2.940 -0.1303  0.0494  0.1006
 5945TIP3    H139326   1.711   2.128   2.926  0.7636 -0.0778 -2.7576
 5945TIP3    H239327   1.691   2.273   2.962 -0.9273 -1.2547  1.6169
 5946TIP3   OH239328   1.340   5.313   1.722  0.2706  0.8375  0.1409
 5946TIP3    H139329   1.321   5.377   1.653 -0.5514  0.3337 -0.1122
 5946TIP3    H239330   1.389   5.363   1.788 -0.5556  1.7835  0.0643
 5947TIP3   OH239331   4.007   1.810   4.001  0.2400 -0.1614  0.5411
 5947TIP3    H139332   4.001   1.905   4.010 -0.1680 -0.0860 -0.3599
 5947TIP3    H239333   3.994   1.795   3.907 -2.2302 -1.2652  0.9696
 5948TIP3   OH239334   3.210   0.507   0.353 -0.1359  0.2308  0.0326
 5948TIP3    H139335   3.290   0.548   0.385  0.1842 -0.3672  0.0170
 5948TIP3    H239336   3.155   0.497   0.430 -0.2745  0.8090  0.0132
 5949TIP3   OH239337   3.362   3.026   2.477 -0.4236 -0.4201  0.9857
 5949TIP3    H139338   3.282   3.027   2.425 -0.1801  1.1057  0.6055
 5949TIP3    H239339   3.388   3.117   2.483  2.1587 -0.9667 -0.2617
 5950TIP3   OH239340   6.744   3.959  13.183 -0.0980 -0.1020  0.0228
 5950TIP3    H139341   6.721   3.941  13.092  0.9900 -0.0360 -0.2811
 5950TIP3    H239342   6.705   4.044  13.201  0.9782  0.6122 -0.8913
 5951TIP3   OH239343   0.630   5.239  14.072 -0.0231 -0.1296 -0.1631
 5951TIP3    H139344   0.562   5.306  14.067  0.4488  0.2973 -1.8145
 5951TIP3    H239345   0.599   5.169  14.015 -0.5349 -1.3904  1.5939
 5952TIP3   OH239346   1.084   1.984   4.965  1.0355 -0.1126  0.1994
 5952TIP3    H139347   1.151   2.017   4.906  1.5430 -1.5576 -0.0755
 5952TIP3    H239348   1.127   1.985   5.051  1.1648 -0.3520  0.1393
 5953TIP3   OH239349   4.941   5.921   1.279 -0.6030 -0.4587  0.8422
 5953TIP3    H139350   5.026   5.899   1.317 -1.3850 -1.9332  1.8625
 5953TIP3    H239351   4.953   5.906   1.185  1.1876  2.6750  0.4246
 5954TIP3   OH239352   2.489   4.940  14.254  0.2584 -0.6170  0.0405
 5954TIP3    H139353   2.453   4.950  14.342  0.5625  1.8028 -0.0291
 5954TIP3    H239354   2.559   4.875  14.263  0.2071 -0.4814  1.5539
 5955TIP3   OH239355   3.873   5.566  15.551  0.2214 -0.4802 -0.4504
 5955TIP3    H139356   3.885   5.607  15.637 -0.0681  0.2355 -0.7453
 5955TIP3    H239357   3.939   5.497  15.548  1.1902  0.4122 -0.2220
 5956TIP3   OH239358   6.662   2.967  16.411 -0.0310 -0.2315  0.7262
 5956TIP3    H139359   6.676   2.875  16.390 -0.3006 -0.0706 -0.2007
 5956TIP3    H239360   6.677   2.972  16.505  0.9557 -1.0331  0.6307
 5957TIP3   OH239361   6.160   3.841  14.848  0.4353 -0.0772 -0.2942
 5957TIP3    H139362   6.159   3.835  14.752 -0.4155 -1.0634 -0.2425
 5957TIP3    H239363   6.252   3.859  14.870  1.1232 -2.1071 -1.2004
 5958TIP3   OH239364   1.859   4.492  12.293 -0.1225  0.0969 -0.2566
 5958TIP3    H139365   1.906   4.430  12.348 -0.4219 -0.3615 -0.5073
 5958TIP3    H239366   1.914   4.503  12.216  0.4421  0.9726  0.2580
 5959TIP3   OH239367   5.543   2.998  13.343 -0.3335  0.0325 -0.2212
 5959TIP3    H139368   5.587   3.037  13.267 -1.4991  1.2907 -0.2789
 5959TIP3    H239369   5.495   3.070  13.383  0.6747 -0.4681  2.0659
 5960TIP3   OH239370   5.870   1.645   6.084  0.5807  0.4216 -0.1877
 5960TIP3    H139371   5.819   1.720   6.055  0.8741  0.8149  0.2849
 5960TIP3    H239372   5.830   1.619   6.167 -0.0841 -0.5214 -0.7951
 5961TIP3   OH239373   6.021   0.153   2.420  0.8295  0.1474  0.0556
 5961TIP3    H139374   5.995   0.062   2.407 -1.1901  0.9553 -2.4074
 5961TIP3    H239375   5.953   0.190   2.477 -0.1264  0.7928 -1.4428
 5962TIP3   OH239376   3.863   0.888  16.498  0.3417  0.0934 -0.1560
 5962TIP3    H139377   3.952   0.904  16.530  0.7486 -2.9635  0.6050
 5962TIP3    H239378   3.876   0.854  16.409 -0.1290  0.2675 -0.2895
 5963TIP3   OH239379   1.432   3.853   3.808  0.0056  0.2406 -0.0775
 5963TIP3    H139380   1.487   3.860   3.730 -0.5491  1.2285 -0.3888
 5963TIP3    H239381   1.349   3.893   3.783 -0.2138  0.4822  0.9863
 5964TIP3   OH239382   4.991   0.237  15.370 -0.0052  0.6277 -0.0652
 5964TIP3    H139383   5.004   0.317  15.318  2.3890 -0.1822 -0.8360
 5964TIP3    H239384   4.967   0.170  15.306  1.3498 -0.0062  0.0635
 5965TIP3   OH239385   1.926   5.254  11.438 -0.5351  0.0190  0.2693
 5965TIP3    H139386   1.908   5.269  11.531 -1.7732  0.5156 -0.0456
 5965TIP3    H239387   2.010   5.299  11.423 -0.1365 -0.3728  1.2129
 5966TIP3   OH239388   2.625   6.122  10.652  0.4534  0.0504 -0.2685
 5966TIP3    H139389   2.556   6.070  10.693 -0.4420  0.0135 -1.7260
 5966TIP3    H239390   2.656   6.180  10.721  0.8012 -1.7116  1.1448
 5967TIP3   OH239391   2.197   2.289   2.336 -0.0541 -0.5881 -0.0052
 5967TIP3    H139392   2.286   2.285   2.373  0.1063 -2.0014 -0.4901
 5967TIP3    H239393   2.159   2.368   2.374  0.7108 -1.0308  1.8196
 5968TIP3   OH239394   5.568   4.609  14.139 -0.2772 -0.7422 -0.5583
 5968TIP3    H139395   5.640   4.563  14.095  1.9478 -0.6198  2.5979
 5968TIP3    H239396   5.503   4.541  14.158  1.6497 -2.1778  1.4622
 5969TIP3   OH239397   5.852   3.087   4.123  0.0633  0.3179 -0.1713
 5969TIP3    H139398   5.943   3.068   4.145 -0.2507 -0.0576  0.8673
 5969TIP3    H239399   5.812   3.111   4.206 -1.7971 -3.5253  0.2363
 5970TIP3   OH239400   2.736   0.044   0.948  0.5697  0.3737 -0.1628
 5970TIP3    H139401   2.773   0.131   0.958  0.6629  0.3887 -0.6092
 5970TIP3    H239402   2.809  -0.011   0.920  1.2767 -0.5480  3.0674
 5971TIP3   OH239403   4.532   2.452   3.082 -0.2465 -0.5722  0.2750
 5971TIP3    H139404   4.575   2.520   3.031 -0.3676 -0.3303  0.4914
 5971TIP3    H239405   4.592   2.433   3.154  0.6293 -1.9877 -0.7596
 5972TIP3   OH239406   6.108   5.711   3.403 -0.5353  0.2153  0.3268
 5972TIP3    H139407   6.061   5.794   3.397 -0.6342  0.0711 -1.2560
 5972TIP3    H239408   6.192   5.734   3.441 -1.1515  0.7814  1.3843
 5973TIP3   OH239409   6.654   6.706   4.509 -0.6477 -0.0114  0.4644
 5973TIP3    H139410   6.560   6.690   4.517 -0.9589  0.0030 -2.1628
 5973TIP3    H239411   6.689   6.625   4.473  0.6786 -0.5666  2.7936
 5974TIP3   OH239412   6.686   2.944  14.717 -0.1170  0.1020  0.1858
 5974TIP3    H139413   6.608   2.940  14.662  0.9099  1.8619 -1.5509
 5974TIP3    H239414   6.747   2.999  14.667  1.6813  0.0074  2.1540
 5975TIP3   OH239415   3.172   2.890  12.268  0.3860  0.1750 -0.1013
 5975TIP3    H139416   3.133   2.868  12.183 -1.0441 -1.9245  1.0206
 5975TIP3    H239417   3.097   2.906  12.326  1.2589 -0.6400  1.3049
 5976TIP3   OH239418   5.188   3.590  15.045 -0.5073 -0.2480  0.6794
 5976TIP3    H139419   5.172   3.682  15.067 -0.7512  0.0686 -0.7587
 5976TIP3    H239420   5.213   3.550  15.129 -2.4340  0.6477  1.7608
 5977TIP3   OH239421   3.450   6.053  15.460 -0.1596 -0.0453  0.4746
 5977TIP3    H139422   3.388   6.088  15.524 -1.1755  1.0778 -1.0672
 5977TIP3    H239423   3.434   6.104  15.381  1.5983 -0.8739 -0.4621
 5978TIP3   OH239424   5.603   4.096  15.935  0.6855  0.0665 -0.1453
 5978TIP3    H139425   5.542   4.029  15.904  1.1830 -0.3353 -0.2679
 5978TIP3    H239426   5.553   4.177  15.930 -0.1253 -0.3622  0.5586
 5979TIP3   OH239427   3.075   0.055   4.720 -0.0022 -0.4141  0.4339
 5979TIP3    H139428   3.106   0.015   4.801  0.4517  0.1321  0.5467
 5979TIP3    H239429   2.980   0.048   4.723  0.0965 -2.8574 -0.2928
 5980TIP3   OH239430   0.886   5.553  13.702 -0.0314  0.4528 -0.4957
 5980TIP3    H139431   0.859   5.602  13.779  0.1450  1.6149 -1.1425
 5980TIP3    H239432   0.804   5.538  13.653  0.0370  0.9755 -0.7780
 5981TIP3   OH239433   2.396   1.024   4.227 -0.3822  0.0550  0.2569
 5981TIP3    H139434   2.326   1.007   4.289 -0.6704  2.1493  0.5937
 5981TIP3    H239435   2.357   1.084   4.163  0.7368  0.2441 -0.2784
 5982TIP3   OH239436   0.339   6.395  16.164  0.1930  0.2959  0.5682
 5982TIP3    H139437   0.305   6.308  16.182  0.1797  0.1419 -0.1789
 5982TIP3    H239438   0.362   6.430  16.250 -0.3953 -0.1944  0.9297
 5983TIP3   OH239439   0.124   0.910  13.678 -0.4956  0.2237 -0.0443
 5983TIP3    H139440   0.195   0.862  13.635 -0.9060  0.1901 -0.6971
 5983TIP3    H239441   0.044   0.873  13.641 -0.8446  0.6154  0.3054
 5984TIP3   OH239442   0.109   4.126   4.198 -0.0986  0.0013  0.1309
 5984TIP3    H139443   0.021   4.119   4.235  0.4040 -0.7366  1.2601
 5984TIP3    H239444   0.166   4.094   4.268  0.9493 -0.8787 -1.0839
 5985TIP3   OH239445   2.812   2.675   1.706 -0.2786  0.0076  0.5926
 5985TIP3    H139446   2.734   2.710   1.749  0.0035  1.2368  0.1403
 5985TIP3    H239447   2.778   2.609   1.646 -0.6200 -2.5466  3.3520
 5986TIP3   OH239448   0.566   5.107  10.716 -0.2846  0.5638  0.0804
 5986TIP3    H139449   0.505   5.092  10.788  1.6963  0.2482  1.8137
 5986TIP3    H239450   0.565   5.025  10.666  0.1875 -0.2175  1.3010
 5987TIP3   OH239451   6.598   0.358  10.846 -0.1705 -0.3974  0.0037
 5987TIP3    H139452   6.643   0.275  10.866 -0.0611 -0.4704 -0.5256
 5987TIP3    H239453   6.516   0.331  10.805 -0.2902 -0.2464  0.1423
 5988TIP3   OH239454   6.457   1.792  13.916  0.4110  0.2889  0.1996
 5988TIP3    H139455   6.448   1.856  13.845 -1.4941  0.6612  0.7083
 5988TIP3    H239456   6.457   1.845  13.996  3.2211 -0.0728  0.5205
 5989TIP3   OH239457   3.222   4.005  13.982 -0.6777 -0.5560  0.5682
 5989TIP3    H139458   3.187   3.961  13.904  0.7391  0.9603 -0.9960
 5989TIP3    H239459   3.255   3.934  14.037 -2.8281 -1.7504  0.4196
 5990TIP3   OH239460   3.977   1.194  15.379  0.1589 -0.3112  0.0646
 5990TIP3    H139461   3.921   1.222  15.451  1.4271 -0.2104  1.0689
 5990TIP3    H239462   3.919   1.148  15.319 -1.0512  0.1401  0.8593
 5991TIP3   OH239463   6.803   4.249  13.653 -0.1395  0.1593 -0.1331
 5991TIP3    H139464   6.733   4.276  13.713 -1.6692 -1.6018 -1.0336
 5991TIP3    H239465   6.781   4.290  13.569  0.4573  0.3621 -0.2015
 5992TIP3   OH239466   0.421   2.986  12.095  0.2419 -0.1842  0.4308
 5992TIP3    H139467   0.514   3.009  12.086  0.5272 -1.9101 -3.0566
 5992TIP3    H239468   0.422   2.893  12.119 -0.5461 -0.3570 -0.1704
 5993TIP3   OH239469   3.410   2.118  12.716  0.3712  0.1349  0.0130
 5993TIP3    H139470   3.354   2.164  12.653  1.6820  0.2637 -1.1122
 5993TIP3    H239471   3.490   2.099  12.667  1.2380 -0.2224  1.5066
 5994TIP3   OH239472   1.806   5.694   4.328  0.1355  0.6314 -0.0693
 5994TIP3    H139473   1.736   5.757   4.345 -1.0662 -0.3749 -1.0985
 5994TIP3    H239474   1.848   5.727   4.248  1.1271  1.4554  0.7716
 5995TIP3   OH239475   6.491   1.830   2.233  0.1802  0.3088 -0.2365
 5995TIP3    H139476   6.535   1.861   2.312 -0.4401 -0.9587  0.6555
 5995TIP3    H239477   6.398   1.831   2.256 -0.0137  0.0193 -0.9906
 5996TIP3   OH239478   2.001   2.371  16.135 -0.4501  0.2981 -0.1161
 5996TIP3    H139479   2.043   2.340  16.216 -0.0785 -0.6947 -0.6749
 5996TIP3    H239480   2.033   2.461  16.124  0.8379 -0.1303 -0.0607
 5997TIP3   OH239481   2.437   1.490   6.046  0.0402 -0.6889 -0.0970
 5997TIP3    H139482   2.411   1.420   5.987 -1.1567  1.8886 -2.9072
 5997TIP3    H239483   2.357   1.515   6.092 -0.1026  0.2623 -0.8194
 5998TIP3   OH239484   5.021   1.976  11.231  0.5048 -1.0574 -0.1735
 5998TIP3    H139485   5.071   2.051  11.197 -0.1499 -0.5957 -0.1257
 5998TIP3    H239486   5.026   1.911  11.161 -0.6090 -0.2078 -1.0788
 5999TIP3   OH239487   0.336   3.129   2.469 -0.8958  0.4212 -0.0054
 5999TIP3    H139488   0.368   3.190   2.402  3.2235 -2.0928 -0.6475
 5999TIP3    H239489   0.355   3.171   2.552 -0.9243  1.2404 -0.4057
 6000TIP3   OH239490   6.022   0.765   0.776 -0.0069  0.1906  0.0383
 6000TIP3    H139491   6.053   0.678   0.800  0.2372 -0.5332 -2.5670
 6000TIP3    H239492   6.088   0.824   0.811  1.9418 -1.0048 -1.3774
 6001TIP3   OH239493   1.821   1.880   2.598 -0.1021 -0.1176  0.6815
 6001TIP3    H139494   1.848   1.789   2.606  0.3705  0.0299  0.7833
 6001TIP3    H239495   1.789   1.903   2.685  1.0524  0.2148  1.0326
 6002TIP3   OH239496   5.340   0.806   1.469 -0.0941  0.6472  0.3857
 6002TIP3    H139497   5.407   0.739   1.454  1.1267  1.8617  0.1905
 6002TIP3    H239498   5.285   0.770   1.538  0.6490 -0.4765  0.4126
 6003TIP3   OH239499   1.891   5.587  16.018  0.0018 -0.1360  0.8196
 6003TIP3    H139500   1.986   5.570  16.016 -0.1031 -0.9655  1.8350
 6003TIP3    H239501   1.884   5.682  16.028  0.7306 -0.0675  0.7419
 6004TIP3   OH239502   0.206   5.054   0.738 -0.3315  0.5169 -0.0575
 6004TIP3    H139503   0.120   5.012   0.745 -0.7557  1.3308 -0.1522
 6004TIP3    H239504   0.188   5.136   0.692  0.4219  0.9391  0.3788
 6005TIP3   OH239505   5.291   0.137  12.231 -0.4625 -0.1548 -0.3456
 6005TIP3    H139506   5.363   0.100  12.181 -1.1411 -0.3260 -1.2205
 6005TIP3    H239507   5.234   0.062  12.250  0.8470 -0.5330  2.6286
 6006TIP3   OH239508   1.162   3.568   2.631  0.1723 -0.0313 -0.0515
 6006TIP3    H139509   1.189   3.592   2.719  3.3625 -0.3210 -0.8463
 6006TIP3    H239510   1.177   3.473   2.627  0.0709 -0.0138 -0.9251
 6007TIP3   OH239511   2.389   3.272  15.302 -0.0522 -0.4597  0.6372
 6007TIP3    H139512   2.330   3.201  15.328 -1.4991 -0.0266 -1.2431
 6007TIP3    H239513   2.449   3.282  15.376 -0.9027 -2.4583  1.6622
 6008TIP3   OH239514   0.494   1.349   5.988  0.0995  0.1915  0.5785
 6008TIP3    H139515   0.570   1.334   6.044 -0.7859  1.5344  2.2516
 6008TIP3    H239516   0.437   1.273   6.005 -0.3651  0.8016  1.9359
 6009TIP3   OH239517   4.733   6.112  15.234 -0.2953  0.3862 -0.5409
 6009TIP3    H139518   4.761   6.179  15.172  1.5469  0.8760  0.7374
 6009TIP3    H239519   4.814   6.074  15.268 -1.2664 -1.1973  0.1692
 6010TIP3   OH239520   2.602   1.756   0.473  0.1654  0.0734 -0.5327
 6010TIP3    H139521   2.581   1.843   0.506  1.0893  0.2119 -0.2715
 6010TIP3    H239522   2.694   1.763   0.444  1.0717 -1.4260  1.7069
 6011TIP3   OH239523   5.749   2.918  17.048 -0.3142 -0.5079  0.2389
 6011TIP3    H139524   5.806   2.842  17.045 -1.0629 -1.0623 -0.1998
 6011TIP3    H239525   5.687   2.898  17.119  0.6502  0.5467  1.4244
 6012TIP3   OH239526   1.447   1.277   5.704  0.7904  0.1592 -0.0417
 6012TIP3    H139527   1.529   1.321   5.728  0.8108  0.2450 -0.2650
 6012TIP3    H239528   1.434   1.300   5.612  1.0755 -0.7302 -0.3158
 6013TIP3   OH239529   5.503   4.218  15.125 -0.4530  0.1214  0.1297
 6013TIP3    H139530   5.492   4.294  15.069 -1.5660 -1.2621 -1.6455
 6013TIP3    H239531   5.495   4.252  15.214  0.7223  2.2795 -0.5358
 6014TIP3   OH239532   6.794   2.725   4.953  0.0198  0.4692 -0.0613
 6014TIP3    H139533   6.709   2.768   4.964  0.2117  0.7237  0.4198
 6014TIP3    H239534   6.852   2.794   4.921  0.6407  0.9051  1.8947
 6015TIP3   OH239535   2.560   1.224   2.458 -0.6835  0.1069 -0.0444
 6015TIP3    H139536   2.634   1.185   2.412 -0.8935  0.7494 -0.9682
 6015TIP3    H239537   2.598   1.262   2.537  0.0570  0.7484 -0.6841
 6016TIP3   OH239538   5.795   6.597   3.129  0.6563  0.0885 -0.1790
 6016TIP3    H139539   5.889   6.599   3.146  0.7266  1.6740 -0.6717
 6016TIP3    H239540   5.781   6.514   3.084  1.8518 -0.0618 -0.3080
 6017TIP3   OH239541   2.236   1.783  11.088  0.0174  0.3366 -0.6488
 6017TIP3    H139542   2.184   1.787  11.008 -0.1529 -1.2718 -0.6497
 6017TIP3    H239543   2.236   1.691  11.112  1.3592  0.5706  0.3641
 6018TIP3   OH239544   3.488   6.097   1.658 -0.8235  0.6350 -0.0274
 6018TIP3    H139545   3.498   6.021   1.602  0.9992  0.7251  0.1182
 6018TIP3    H239546   3.571   6.103   1.706 -2.1954  0.6892  2.5248
 6019TIP3   OH239547   5.196   1.118  12.397 -0.3164  0.0771 -0.1145
 6019TIP3    H139548   5.143   1.193  12.369  1.0393  0.7786 -0.9234
 6019TIP3    H239549   5.271   1.157  12.441 -1.1255 -0.9454  2.3274
 6020TIP3   OH239550   2.513   6.053  11.659 -0.3020  0.0711  0.3597
 6020TIP3    H139551   2.437   6.077  11.606  1.1109  1.5657 -1.1476
 6020TIP3    H239552   2.487   5.975  11.706 -2.1698 -0.4837 -1.4609
 6021TIP3   OH239553   2.102   3.585  15.643 -0.3310  0.5775  0.2322
 6021TIP3    H139554   2.039   3.535  15.590 -0.1163 -0.1864  0.6926
 6021TIP3    H239555   2.153   3.634  15.578  0.3709 -0.8504 -0.3403
 6022TIP3   OH239556   6.180   2.117  15.336 -0.1058 -0.4311  0.4074
 6022TIP3    H139557   6.089   2.118  15.365 -0.3839 -2.2824 -0.2829
 6022TIP3    H239558   6.220   2.044  15.384  0.4816 -0.9116 -0.7833
 6023TIP3   OH239559   6.038   0.717   2.257 -0.6268  0.0805  0.2624
 6023TIP3    H139560   6.032   0.634   2.303  1.2571 -1.2439 -1.7038
 6023TIP3    H239561   6.068   0.694   2.169 -0.1439  2.8217 -0.3879
 6024TIP3   OH239562   1.359   4.485   0.369  0.0794 -0.3764  0.0715
 6024TIP3    H139563   1.316   4.570   0.361 -0.0996 -0.4204  0.5574
 6024TIP3    H239564   1.449   4.501   0.340 -0.0371 -0.0940 -0.1356
 6025TIP3   OH239565   2.866   5.121   0.695 -0.4173  0.0483 -0.7811
 6025TIP3    H139566   2.892   5.208   0.725  0.4360 -0.0066 -1.3099
 6025TIP3    H239567   2.805   5.089   0.761  1.6431 -0.2182  1.1208
 6026TIP3   OH239568   0.722   6.116  13.013 -0.2922  0.2530  0.2386
 6026TIP3    H139569   0.695   6.024  13.006  2.0669 -0.4828  0.2064
 6026TIP3    H239570   0.689   6.156  12.932 -3.0104 -0.0346  1.0923
 6027TIP3   OH239571   1.057   1.082   5.734  0.0069  0.1445 -0.2777
 6027TIP3    H139572   1.051   1.175   5.756  1.2634  0.2465 -0.2826
 6027TIP3    H239573   1.009   1.038   5.804 -0.8330  0.8023 -0.4205
 6028TIP3   OH239574   2.028   1.888   3.214 -0.3655  0.3855  0.6103
 6028TIP3    H139575   1.934   1.901   3.231  0.1860  2.3696  2.5940
 6028TIP3    H239576   2.041   1.925   3.127 -1.1931  1.5592  0.9506
 6029TIP3   OH239577   0.950   0.097  13.745  0.9409  0.7095 -0.0459
 6029TIP3    H139578   0.861   0.079  13.714  0.2142  1.8277  1.2831
 6029TIP3    H239579   0.982   0.013  13.777  1.1496 -0.1527 -2.2940
 6030TIP3   OH239580   2.642   4.683   0.443 -0.3593 -0.0996  0.3859
 6030TIP3    H139581   2.692   4.749   0.395 -1.6174  0.6785  0.0738
 6030TIP3    H239582   2.638   4.717   0.533 -3.1053  1.6400 -0.2725
 6031TIP3   OH239583   5.841   3.941   1.726 -0.1829  0.5965  0.2760
 6031TIP3    H139584   5.889   3.883   1.666  1.0695  0.5897  1.2537
 6031TIP3    H239585   5.873   4.029   1.705 -0.2110  0.6626  0.5122
 6032TIP3   OH239586   2.737   3.238  17.044 -0.3006 -0.9590  0.4287
 6032TIP3    H139587   2.761   3.244  17.137  0.3662  0.7976  0.1798
 6032TIP3    H239588   2.642   3.241  17.044 -0.2914 -0.1535  1.0373
 6033TIP3   OH239589   1.762   4.460  13.450 -0.4881 -0.1841 -0.0214
 6033TIP3    H139590   1.752   4.416  13.366  0.7574  1.7166 -1.2712
 6033TIP3    H239591   1.850   4.499  13.445 -0.4451  0.0777  2.1247
 6034TIP3   OH239592   6.769   5.881  14.324 -0.5669 -0.3679  0.1931
 6034TIP3    H139593   6.751   5.802  14.375  0.9140 -0.4337  0.6399
 6034TIP3    H239594   6.851   5.863  14.279 -1.0023  0.3309 -0.9369
 6035TIP3   OH239595   1.928   1.204   1.161 -0.2019  0.4059  0.0762
 6035TIP3    H139596   1.841   1.196   1.200 -0.5614  1.2284 -0.5165
 6035TIP3    H239597   1.959   1.290   1.190  0.0788  0.4523 -0.3612
 6036TIP3   OH239598   2.665   2.009  15.931  0.1979  0.0892 -0.1959
 6036TIP3    H139599   2.629   2.097  15.945  0.2407 -0.1261  1.4397
 6036TIP3    H239600   2.759   2.019  15.945  0.0305 -0.4806  1.5661
 6037TIP3   OH239601   4.786   5.710  13.313 -0.1394  0.6597 -0.2461
 6037TIP3    H139602   4.767   5.794  13.272 -1.3953 -0.8448 -3.0225
 6037TIP3    H239603   4.709   5.693  13.368 -1.6421 -0.1971 -2.4777
 6038TIP3   OH239604   3.768   1.103  12.143 -0.3833  0.4649  0.0703
 6038TIP3    H139605   3.684   1.103  12.097  0.0629 -0.8950 -0.8250
 6038TIP3    H239606   3.753   1.051  12.222 -0.7595  1.5082  0.6968
 6039TIP3   OH239607   0.526   2.839  14.777  0.5416  0.1101 -0.2548
 6039TIP3    H139608   0.583   2.791  14.837  0.6787  0.3007 -0.2317
 6039TIP3    H239609   0.565   2.927  14.772  0.9610 -0.1187 -1.2040
 6040TIP3   OH239610   2.307   4.871  11.184 -0.3427  0.1129 -0.0936
 6040TIP3    H139611   2.242   4.937  11.208 -1.7366 -1.5064  0.8070
 6040TIP3    H239612   2.255   4.795  11.159  1.1968 -1.2464  0.6844
 6041TIP3   OH239613   4.520   1.069  15.851  0.8638 -0.0678 -0.5124
 6041TIP3    H139614   4.545   1.149  15.804  0.7041 -0.4007 -1.1752
 6041TIP3    H239615   4.503   1.005  15.782  1.4536 -0.8155  0.0251
 6042TIP3   OH239616   5.365   6.451  12.597 -0.5149 -0.5356  0.0253
 6042TIP3    H139617   5.460   6.468  12.600 -0.5669  0.0357 -0.9621
 6042TIP3    H239618   5.343   6.425  12.686  0.0381  2.2886  1.1137
 6043TIP3   OH239619   1.916   6.545   0.730 -0.0357 -0.2517  0.0153
 6043TIP3    H139620   1.860   6.621   0.714  0.0713 -0.4990 -1.7231
 6043TIP3    H239621   1.983   6.577   0.791 -0.8008  0.6497  0.4007
 6044TIP3   OH239622   2.410   4.865   0.020  0.3894  0.3750  0.3085
 6044TIP3    H139623   2.485   4.835   0.071 -0.3947 -0.8291  0.7992
 6044TIP3    H239624   2.434   4.849  -0.071  0.2515 -1.2268  0.5242
 6045TIP3   OH239625   4.137   6.395  14.939 -0.3968  0.2864  0.6006
 6045TIP3    H139626   4.116   6.306  14.965  4.6188 -1.4472 -0.1375
 6045TIP3    H239627   4.199   6.425  15.005  0.1902  2.1141 -0.7110
 6046TIP3   OH239628   5.904   0.529   4.095 -0.4629  0.4798 -0.0072
 6046TIP3    H139629   5.867   0.455   4.046 -0.7915  1.3591 -1.1230
 6046TIP3    H239630   5.970   0.565   4.036 -0.6106  1.3373  0.3462
 6047TIP3   OH239631   0.974   2.953   5.894  0.2285 -0.1822 -0.3814
 6047TIP3    H139632   1.023   3.035   5.880  0.8668  0.0159  2.2949
 6047TIP3    H239633   0.916   2.946   5.819 -1.6382  4.0591  0.3332
 6048TIP3   OH239634   6.011   2.716   6.063 -0.0649 -0.1917  0.2014
 6048TIP3    H139635   6.091   2.769   6.061 -0.4182  0.3313 -2.2024
 6048TIP3    H239636   6.042   2.628   6.084  1.2384 -0.1084 -1.2427
 6049TIP3   OH239637   3.474   5.752   5.869 -0.5483 -0.0234  0.1484
 6049TIP3    H139638   3.509   5.733   5.956  1.3293 -1.3882 -0.8310
 6049TIP3    H239639   3.529   5.701   5.810 -1.8177  0.8196 -1.8482
 6050TIP3   OH239640   4.069   4.437   1.316  0.0288  0.2919  0.0833
 6050TIP3    H139641   3.982   4.407   1.290  0.3167  0.2432 -0.8588
 6050TIP3    H239642   4.103   4.484   1.240  0.3874  1.3044  0.8286
 6051TIP3   OH239643   0.772   4.983   5.189 -0.0398 -0.6748  0.4912
 6051TIP3    H139644   0.747   4.892   5.207  0.5131 -1.3824 -2.0040
 6051TIP3    H239645   0.732   5.003   5.105  1.1285  0.8835  0.2717
 6052TIP3   OH239646   0.442   1.140   1.666 -0.1950 -0.1507  0.4075
 6052TIP3    H139647   0.501   1.105   1.732 -2.8734 -0.0115  3.0937
 6052TIP3    H239648   0.418   1.227   1.699 -1.5978 -0.0498 -0.7509
 6053TIP3   OH239649   2.727   5.474  15.835  0.0653 -0.1274  0.7093
 6053TIP3    H139650   2.781   5.526  15.775 -2.1706  1.8469  0.2671
 6053TIP3    H239651   2.642   5.518  15.835 -1.4071 -2.7492  1.8147
 6054TIP3   OH239652   3.526   1.130  14.849  0.0677  0.2362 -0.1291
 6054TIP3    H139653   3.595   1.188  14.817  0.1650 -0.1491 -0.6252
 6054TIP3    H239654   3.570   1.073  14.912 -0.0652  0.8127  0.4922
 6055TIP3   OH239655   5.986   2.431  16.879 -0.0449  0.5231 -0.4909
 6055TIP3    H139656   5.900   2.448  16.841  0.1161 -0.0930 -1.1317
 6055TIP3    H239657   6.048   2.454  16.810  0.2653 -0.0793 -0.4187
 6056TIP3   OH239658   2.780   6.812  16.811 -0.6507 -0.3768  0.0486
 6056TIP3    H139659   2.823   6.897  16.822  2.2511 -1.9355  2.0969
 6056TIP3    H239660   2.696   6.822  16.855 -1.6071  2.1208 -2.0798
 6057TIP3   OH239661   1.870   0.141   3.043 -0.2925  0.3769 -0.1213
 6057TIP3    H139662   1.891   0.110   2.955  2.8183 -0.6595  0.8492
 6057TIP3    H239663   1.932   0.211   3.060  0.7377 -0.9246  1.9775
 6058TIP3   OH239664   1.178   0.326  15.264  0.3968  0.0552  0.7765
 6058TIP3    H139665   1.100   0.363  15.221  0.6684  1.0428  1.0926
 6058TIP3    H239666   1.199   0.390  15.333  1.5623 -0.1349  0.6080
 6059TIP3   OH239667   0.309   1.369   5.203 -0.5199 -0.4923  0.7255
 6059TIP3    H139668   0.351   1.429   5.142 -3.0134  1.3307  0.6281
 6059TIP3    H239669   0.367   1.368   5.279  0.7055  0.2518 -0.1588
 6060TIP3   OH239670   1.407   6.764   2.051 -0.1738  0.5763  0.1571
 6060TIP3    H139671   1.404   6.858   2.034  0.2344  0.9839  2.1607
 6060TIP3    H239672   1.398   6.756   2.145  3.5819 -1.1625  0.5326
 6061TIP3   OH239673   6.016   3.711   5.438 -0.1816 -0.5744 -0.1476
 6061TIP3    H139674   6.024   3.633   5.382  0.5720 -0.3380 -0.3802
 6061TIP3    H239675   6.105   3.729   5.467 -0.6928 -1.4666  2.2189
 6062TIP3   OH239676   1.486   5.330  11.642 -0.2700 -0.1195 -0.3240
 6062TIP3    H139677   1.466   5.281  11.722 -2.3230 -0.3557 -0.9286
 6062TIP3    H239678   1.535   5.268  11.588  0.7895 -0.0896  0.5578
 6063TIP3   OH239679   6.762   6.074   6.510 -0.6664  0.2991 -0.0633
 6063TIP3    H139680   6.714   5.995   6.535 -0.4224  0.2002  0.0844
 6063TIP3    H239681   6.718   6.144   6.559  0.6801 -0.0684  1.7576
 6064TIP3   OH239682   4.778   1.711  14.929  0.1082  0.3692  0.3965
 6064TIP3    H139683   4.821   1.630  14.901  0.5271  0.3755  0.9995
 6064TIP3    H239684   4.706   1.681  14.985 -0.2442  0.3884 -0.0364
 6065TIP3   OH239685   6.223   4.413   5.812  0.5407 -0.1786  0.2128
 6065TIP3    H139686   6.204   4.320   5.800  1.3267 -0.2877 -0.2119
 6065TIP3    H239687   6.141   4.458   5.788 -0.0891 -0.7918  1.1583
 6066TIP3   OH239688   2.914   3.835  15.561 -0.4751 -0.2440  0.4062
 6066TIP3    H139689   2.868   3.794  15.488 -1.1532  0.4262  0.4522
 6066TIP3    H239690   2.989   3.778  15.577  0.2923  0.1593 -1.5148
 6067TIP3   OH239691   6.157   5.084  16.561  0.6125 -0.1302  0.8874
 6067TIP3    H139692   6.136   5.106  16.470  1.0779 -0.7872  0.6146
 6067TIP3    H239693   6.076   5.103  16.610  0.9659  2.1225  0.6826
 6068TIP3   OH239694   0.682   2.203  15.358  0.6361 -0.2509  0.0799
 6068TIP3    H139695   0.609   2.186  15.417  1.5094 -1.4261  0.8860
 6068TIP3    H239696   0.735   2.269  15.403  0.5693 -0.1052 -0.0546
 6069TIP3   OH239697   2.056   1.609  15.435  0.0000  0.2959 -0.5689
 6069TIP3    H139698   1.999   1.537  15.409  0.3322  0.0755 -0.6882
 6069TIP3    H239699   2.006   1.688  15.412  0.3352  0.1177 -2.0107
 6070TIP3   OH239700   6.804   0.208   4.605 -0.4820  0.2663  0.0620
 6070TIP3    H139701   6.837   0.124   4.635  1.5534  1.3944  1.2523
 6070TIP3    H239702   6.848   0.272   4.662  1.0968  2.3641 -3.2020
 6071TIP3   OH239703   5.548   0.555  15.749 -0.4772  0.1242  0.0659
 6071TIP3    H139704   5.569   0.525  15.837  0.2442  1.0341  0.2131
 6071TIP3    H239705   5.631   0.582  15.711 -0.6052 -1.2634 -1.3119
 6072TIP3   OH239706   5.345   1.541  11.608  0.0151  0.4897 -0.1570
 6072TIP3    H139707   5.405   1.478  11.648 -1.5451  0.0332  1.5785
 6072TIP3    H239708   5.402   1.603  11.562  1.6902 -0.9777 -0.1552
 6073TIP3   OH239709   3.451   5.463   2.968 -0.2283 -0.1431  0.4085
 6073TIP3    H139710   3.468   5.384   2.916 -2.2300  0.3329 -1.1028
 6073TIP3    H239711   3.440   5.431   3.057 -1.3098 -1.6580 -0.2208
 6074TIP3   OH239712   0.448   5.654  12.083  0.8250  0.1231 -0.5316
 6074TIP3    H139713   0.446   5.729  12.143  1.5637  1.2896 -1.9158
 6074TIP3    H239714   0.451   5.577  12.141  1.7951  1.2155  0.9281
 6075TIP3   OH239715   2.072   4.522   4.600  0.4729 -0.1202  0.6143
 6075TIP3    H139716   2.090   4.477   4.517  1.7616  0.3872  0.6038
 6075TIP3    H239717   2.050   4.452   4.661 -2.9172 -0.3707 -0.6843
 6076TIP3   OH239718   6.627   5.643  13.170 -0.3786 -0.1333  0.0237
 6076TIP3    H139719   6.713   5.602  13.175 -0.7625 -1.2334 -1.6709
 6076TIP3    H239720   6.645   5.732  13.138  0.2439  0.3194  1.4976
 6077TIP3   OH239721   5.198   1.251   0.079  0.1428 -0.2133  0.2295
 6077TIP3    H139722   5.104   1.244   0.099  0.1960 -1.3614  0.1256
 6077TIP3    H239723   5.224   1.335   0.116 -0.6849 -0.3881  1.2606
 6078TIP3   OH239724   3.027   3.187   6.454 -0.0441  0.4308  0.7225
 6078TIP3    H139725   3.102   3.245   6.463 -0.5050  0.9894  1.0030
 6078TIP3    H239726   3.061   3.101   6.479  0.0312  1.0185  2.9070
 6079TIP3   OH239727   4.032   0.609  16.670  0.4617  0.5286 -0.1448
 6079TIP3    H139728   4.004   0.664  16.743  3.0465 -0.6137  1.8745
 6079TIP3    H239729   4.102   0.657  16.628  0.8614  0.0054 -0.0948
 6080TIP3   OH239730   6.054   5.170  12.978 -0.4134 -0.2152  0.8521
 6080TIP3    H139731   6.000   5.171  13.057 -0.2523 -0.8250  0.9782
 6080TIP3    H239732   6.144   5.163  13.010 -0.2823  0.4121  0.6322
 6081TIP3   OH239733   3.140   4.056  15.929 -0.0472 -0.1081 -0.1354
 6081TIP3    H139734   3.069   3.994  15.913  0.2535 -0.8823  1.3571
 6081TIP3    H239735   3.202   4.008  15.984  0.3797  1.3940  0.7510
 6082TIP3   OH239736   1.008   2.632  14.378  0.3383  0.0913 -0.6154
 6082TIP3    H139737   1.063   2.709  14.365  0.3715 -0.0070 -1.0884
 6082TIP3    H239738   0.991   2.630  14.472 -1.1011  1.6567 -0.7964
 6083TIP3   OH239739   1.426   0.377  13.953 -0.5661  0.0612  0.1986
 6083TIP3    H139740   1.420   0.465  13.991 -0.4516 -0.2246  0.8794
 6083TIP3    H239741   1.519   0.360  13.946 -0.4889  1.0791 -2.5042
 6084TIP3   OH239742   4.609   5.068  10.403  0.4186 -0.3084  0.3769
 6084TIP3    H139743   4.624   5.161  10.419 -0.4646  0.2619 -1.7558
 6084TIP3    H239744   4.550   5.041  10.473 -1.1111  1.3210 -0.2129
 6085TIP3   OH239745   3.444   6.555  11.832 -0.5417 -0.6563 -0.6734
 6085TIP3    H139746   3.443   6.636  11.883 -0.7531 -1.0266 -0.0777
 6085TIP3    H239747   3.496   6.576  11.754  0.1499 -0.1947 -0.1033
 6086TIP3   OH239748   1.769   5.126   3.284 -0.8568  0.1157 -0.0756
 6086TIP3    H139749   1.677   5.132   3.257 -0.7336  0.2463 -0.4851
 6086TIP3    H239750   1.778   5.189   3.355 -0.7313  1.2444 -1.0559
 6087TIP3   OH239751   4.087   4.340  13.642  0.1442  0.7020  0.3388
 6087TIP3    H139752   4.163   4.398  13.647  0.0692  0.6770  2.1324
 6087TIP3    H239753   4.028   4.371  13.710  0.1134 -1.4944  1.3872
 6088TIP3   OH239754   0.412   1.634   4.078  0.4282 -0.1655  0.9255
 6088TIP3    H139755   0.462   1.552   4.081 -0.5245 -0.7668  0.9602
 6088TIP3    H239756   0.387   1.644   3.986  0.7196  0.1963  0.8858
 6089TIP3   OH239757   4.326   3.103  14.037  0.4771 -0.4735  0.5209
 6089TIP3    H139758   4.373   3.035  14.085  1.0980  0.8264  1.8452
 6089TIP3    H239759   4.374   3.184  14.057 -0.0811  0.3294 -1.2068
 6090TIP3   OH239760   5.056   0.327  11.366  0.6339 -0.3428 -0.6368
 6090TIP3    H139761   5.141   0.312  11.407  0.0764  2.6265  1.9845
 6090TIP3    H239762   5.076   0.359  11.278  2.0404 -2.5408 -1.1908
 6091TIP3   OH239763   1.578   5.221   4.153 -0.3010 -0.1474  0.5439
 6091TIP3    H139764   1.520   5.285   4.111 -0.8287 -0.2601  1.1009
 6091TIP3    H239765   1.612   5.267   4.230  1.7782  0.5795 -0.6963
 6092TIP3   OH239766   5.097   2.661   0.063 -0.0870 -0.6009  0.6736
 6092TIP3    H139767   5.106   2.751   0.033 -1.9968 -0.3470  0.7517
 6092TIP3    H239768   5.131   2.661   0.153  0.7087 -0.1780  0.3831
 6093TIP3   OH239769   5.395   3.689  16.919 -0.3130 -0.4493  0.6687
 6093TIP3    H139770   5.481   3.666  16.886 -0.8635 -1.6086 -0.0405
 6093TIP3    H239771   5.396   3.784  16.926  0.7098 -0.3766 -0.2300
 6094TIP3   OH239772   4.839   4.667  15.197 -0.1383  0.5747  0.4615
 6094TIP3    H139773   4.860   4.644  15.288 -0.1186  0.8290  0.5234
 6094TIP3    H239774   4.774   4.603  15.170  0.0980  0.2984  0.5492
 6095TIP3   OH239775   0.500   5.230   5.935  0.4027 -0.7165 -0.3903
 6095TIP3    H139776   0.541   5.148   5.909  0.5017 -1.7338  2.7071
 6095TIP3    H239777   0.479   5.220   6.027 -1.6250  1.9415 -0.4253
 6096TIP3   OH239778   3.336   6.310   1.365  0.4949  0.4693  0.5156
 6096TIP3    H139779   3.314   6.399   1.338 -0.4044  0.2315  0.4440
 6096TIP3    H239780   3.329   6.311   1.460  0.6982  0.5290  0.5304
 6097TIP3   OH239781   6.576   1.778   1.612 -0.0086  1.0496 -0.1578
 6097TIP3    H139782   6.521   1.837   1.561 -2.3796  0.5791  1.6978
 6097TIP3    H239783   6.607   1.713   1.548 -0.8857  1.8324 -1.4228
 6098TIP3   OH239784   4.791   2.160  15.857  0.1716 -0.2251 -0.3555
 6098TIP3    H139785   4.826   2.208  15.932 -0.1137 -0.9560  0.2535
 6098TIP3    H239786   4.748   2.227  15.804 -1.9740 -0.0404  1.4870
 6099TIP3   OH239787   6.710   1.547   0.620  0.3411 -0.0459  0.7180
 6099TIP3    H139788   6.706   1.546   0.716 -3.2315 -1.1048  0.6881
 6099TIP3    H239789   6.719   1.640   0.598  0.1587  0.3194  2.0657
 6100TIP3   OH239790   4.284   3.617  11.588  0.4223 -0.4449  0.6156
 6100TIP3    H139791   4.220   3.664  11.641  0.1580  0.3318 -0.3509
 6100TIP3    H239792   4.322   3.552  11.647 -0.9753 -0.6621  1.3067
 6101TIP3   OH239793   0.234   0.778   5.291 -0.3671  0.1671  0.3390
 6101TIP3    H139794   0.307   0.716   5.289 -0.0971  0.4293  1.4640
 6101TIP3    H239795   0.172   0.739   5.353 -0.4327  0.7727  0.6527
 6102TIP3   OH239796   0.904   3.203  11.756 -0.0770 -0.2425  0.3608
 6102TIP3    H139797   0.987   3.161  11.737  0.3339  1.8403 -3.3156
 6102TIP3    H239798   0.848   3.180  11.682 -1.0000  2.5823  0.0754
 6103TIP3   OH239799   5.339   1.228   3.850  0.2923 -0.3603  0.4349
 6103TIP3    H139800   5.355   1.134   3.853 -0.9835 -0.6317 -0.5159
 6103TIP3    H239801   5.353   1.252   3.758 -0.3797  0.1915  0.4732
 6104TIP3   OH239802   4.918   6.533   1.748  0.1831  0.6273  0.5484
 6104TIP3    H139803   4.900   6.458   1.804  0.8276 -0.0661 -0.1472
 6104TIP3    H239804   4.832   6.560   1.715 -0.1413  0.7227  1.4475
 6105TIP3   OH239805   4.084   6.612   1.753  0.6011  0.1435 -0.2602
 6105TIP3    H139806   4.077   6.536   1.695  0.1622  1.2396 -1.6881
 6105TIP3    H239807   4.144   6.672   1.708 -0.4710  1.4138 -0.0565
 6106TIP3   OH239808   2.157   4.357  12.588  0.1878  0.3591  0.5425
 6106TIP3    H139809   2.211   4.370  12.667 -2.6322 -2.9594  3.3554
 6106TIP3    H239810   2.083   4.416  12.601  0.1869  0.5182 -0.1684
 6107TIP3   OH239811   2.073   5.286   4.907  0.3464  0.4913 -0.2214
 6107TIP3    H139812   2.151   5.237   4.932  1.8061  3.1281  0.7718
 6107TIP3    H239813   2.041   5.242   4.828  1.7046 -1.7712  0.3920
 6108TIP3   OH239814   6.561   5.322  14.288  0.4652 -0.5008 -0.0199
 6108TIP3    H139815   6.497   5.323  14.217  1.3217  0.0590 -0.8065
 6108TIP3    H239816   6.552   5.408  14.329  1.0003 -0.2608 -0.4005
 6109TIP3   OH239817   4.291   3.758   4.847  0.3196  0.0877  0.5580
 6109TIP3    H139818   4.351   3.818   4.891 -2.0559  2.0083  1.4329
 6109TIP3    H239819   4.309   3.769   4.754  1.5905  0.2980  0.8148
 6110TIP3   OH239820   5.467   3.964   5.807 -0.4878 -0.4822 -0.0037
 6110TIP3    H139821   5.451   3.988   5.898 -1.0647  0.8067 -0.4156
 6110TIP3    H239822   5.381   3.940   5.773 -0.0044 -2.7253  0.2409
 6111TIP3   OH239823   1.666   4.098  14.155 -0.0945  0.2295  0.2637
 6111TIP3    H139824   1.609   4.165  14.192 -0.0458  0.1345  0.5146
 6111TIP3    H239825   1.713   4.141  14.084 -0.2203  0.4021  0.2867
 6112TIP3   OH239826   5.693   0.917   3.690 -0.4590 -0.4161  0.4110
 6112TIP3    H139827   5.607   0.944   3.657 -0.1242  0.3518  0.1380
 6112TIP3    H239828   5.676   0.835   3.736 -1.4600  0.0461  0.9142
 6113TIP3   OH239829   2.385   0.602   3.694  0.3743 -0.5289 -0.6889
 6113TIP3    H139830   2.344   0.536   3.751  1.7272 -0.7329  0.0960
 6113TIP3    H239831   2.312   0.654   3.661 -0.5458 -1.1364  0.3156
 6114TIP3   OH239832   5.406   0.368   2.678 -0.8765  0.3005 -0.0913
 6114TIP3    H139833   5.323   0.412   2.693 -0.7462  0.4879  0.0989
 6114TIP3    H239834   5.426   0.325   2.761 -0.7306  0.3487 -0.1010
 6115TIP3   OH239835   2.664   1.576  14.362  0.4965  0.6779  0.1358
 6115TIP3    H139836   2.610   1.584  14.440 -0.7608  0.1776 -0.6460
 6115TIP3    H239837   2.635   1.648  14.305  0.5033  0.2919 -0.3637
 6116TIP3   OH239838   5.624   2.002   0.581 -0.0569 -0.5668 -0.4328
 6116TIP3    H139839   5.669   2.024   0.499  0.8680 -0.7667  0.0119
 6116TIP3    H239840   5.686   1.946   0.628 -0.3319  0.0464  0.6763
 6117TIP3   OH239841   4.922   6.037   6.726  0.0213  0.4494 -0.1518
 6117TIP3    H139842   4.873   6.073   6.800 -1.2356  0.4720 -0.9698
 6117TIP3    H239843   4.935   6.112   6.668  0.0336  0.2075 -0.4608
 6118TIP3   OH239844   5.425   1.026   1.624 -0.2106  0.3196  0.0122
 6118TIP3    H139845   5.501   0.997   1.675 -0.7413  1.1360  1.3197
 6118TIP3    H239846   5.387   0.945   1.589 -0.1421 -0.3348  1.4040
 6119TIP3   OH239847   6.139   6.691  15.733 -0.1571 -0.0843  0.6752
 6119TIP3    H139848   6.111   6.780  15.757 -2.0816 -0.0283 -1.4985
 6119TIP3    H239849   6.191   6.703  15.654  1.1199 -0.7826  1.3737
 6120TIP3   OH239850   2.335   0.758   4.109  0.4887  0.1839 -0.0749
 6120TIP3    H139851   2.352   0.664   4.106  1.0712  0.3088 -0.7770
 6120TIP3    H239852   2.244   0.767   4.078 -0.3135 -0.3135  1.9769
 6121TIP3   OH239853   5.366   6.095  15.356  0.2673 -0.2903 -0.3999
 6121TIP3    H139854   5.403   6.087  15.269  0.5741  0.1410 -0.3133
 6121TIP3    H239855   5.346   6.188  15.365  3.6738  0.4311  1.3441
 6122TIP3   OH239856   0.777   2.413  13.232 -0.1615  0.1765 -0.1786
 6122TIP3    H139857   0.777   2.324  13.267  1.7662  0.4319  0.6013
 6122TIP3    H239858   0.775   2.401  13.137  1.0542 -0.7650 -0.1115
 6123TIP3   OH239859   2.016   4.799  12.928 -0.4542 -0.1364  0.0846
 6123TIP3    H139860   2.021   4.716  12.880 -0.0473  0.3495 -0.7394
 6123TIP3    H239861   1.977   4.776  13.012 -1.1004 -1.0339 -0.4403
 6124TIP3   OH239862   6.560   5.552   5.779 -0.5194  0.4692 -0.5267
 6124TIP3    H139863   6.481   5.535   5.831 -2.4485 -0.3785 -3.5083
 6124TIP3    H239864   6.546   5.640   5.743 -0.8640 -0.2541 -2.2392
 6125TIP3   OH239865   5.136   6.677   0.673 -0.0088  0.2605  0.1666
 6125TIP3    H139866   5.134   6.772   0.682 -0.3853  0.2136  0.6454
 6125TIP3    H239867   5.078   6.645   0.742 -1.7355 -0.2217 -1.4121
 6126TIP3   OH239868   1.720   6.571   2.425 -0.1280  0.3263 -0.1884
 6126TIP3    H139869   1.772   6.597   2.349  0.8801  1.3853  0.8173
 6126TIP3    H239870   1.652   6.638   2.431  0.2946  0.7195  0.3069
 6127TIP3   OH239871   3.077   2.017   0.225  0.6637 -0.3813 -0.3826
 6127TIP3    H139872   3.086   2.051   0.315  1.4560 -0.1177 -0.5519
 6127TIP3    H239873   3.122   2.082   0.171  0.8092 -0.9066 -0.8924
 6128TIP3   OH239874   1.708   1.445  10.776 -0.3148  1.0745  0.4991
 6128TIP3    H139875   1.785   1.493  10.807 -0.0679  0.1994  1.2840
 6128TIP3    H239876   1.742   1.360  10.749 -1.0252  0.6178  1.0109
 6129TIP3   OH239877   5.870   2.974  14.813 -0.3195  0.2820  0.5556
 6129TIP3    H139878   5.943   2.935  14.862 -0.3686 -0.8282 -0.2230
 6129TIP3    H239879   5.815   2.900  14.788 -0.5994  0.8890 -0.6919
 6130TIP3   OH239880   3.303   6.789   0.588  0.1644  0.2985 -0.2260
 6130TIP3    H139881   3.308   6.879   0.618  0.6725 -0.0389  0.7417
 6130TIP3    H239882   3.369   6.742   0.640 -2.4979 -1.3453  1.9052
 6131TIP3   OH239883   3.934   3.696  11.894 -0.2547  0.4674  0.6011
 6131TIP3    H139884   3.965   3.625  11.838  0.3022  0.8219  0.4531
 6131TIP3    H239885   3.847   3.668  11.922 -0.0615 -0.2536  0.5068
 6132TIP3   OH239886   4.635   4.806  16.707 -0.2964  0.2852  0.2858
 6132TIP3    H139887   4.727   4.782  16.724 -0.4046  0.5808  1.3755
 6132TIP3    H239888   4.592   4.722  16.690  0.0593  0.0825  0.3670
 6133TIP3   OH239889   3.914   0.072  13.791  0.3398  0.2720 -0.6248
 6133TIP3    H139890   3.878   0.134  13.855  1.9906  1.6943 -1.0038
 6133TIP3    H239891   3.890  -0.014  13.825 -1.7944  1.0709  0.0709
 6134TIP3   OH239892   1.893   3.951  15.833 -0.1022  0.1892 -0.2313
 6134TIP3    H139893   1.943   4.031  15.851  0.0835 -0.1521  0.8301
 6134TIP3    H239894   1.834   3.975  15.762  0.9875  0.8425 -0.9365
 6135TIP3   OH239895   3.931   3.960   0.265  0.3990 -0.5714  0.0928
 6135TIP3    H139896   3.857   3.936   0.208 -0.4112 -3.1339  1.9960
 6135TIP3    H239897   3.897   3.950   0.354  2.1755  1.3695  1.0807
 6136TIP3   OH239898   5.634   4.232   4.998 -0.0205 -0.3278  0.3385
 6136TIP3    H139899   5.657   4.169   4.930 -0.7039 -0.2306  0.0085
 6136TIP3    H239900   5.717   4.250   5.043  0.1312 -1.7207  0.6668
 6137TIP3   OH239901   2.119   0.590   2.402 -0.1583  0.1259 -0.0976
 6137TIP3    H139902   2.075   0.506   2.416  1.1258 -0.7432 -1.0572
 6137TIP3    H239903   2.179   0.574   2.329 -0.1786  2.0038 -0.5708
 6138TIP3   OH239904   5.406   0.004  13.604  0.4021  0.0082  0.1762
 6138TIP3    H139905   5.498  -0.016  13.621  0.5731  0.6080 -0.0073
 6138TIP3    H239906   5.381  -0.053  13.531  1.0004  0.7555 -0.6263
 6139TIP3   OH239907   1.562   1.841  13.277  0.0752 -0.2548  0.8697
 6139TIP3    H139908   1.580   1.881  13.362  1.7653  0.4767  0.2082
 6139TIP3    H239909   1.594   1.751  13.286 -0.1789 -0.3202  1.1446
 6140TIP3   OH239910   1.943   2.417   3.497  0.2405  0.3327 -0.0502
 6140TIP3    H139911   1.970   2.503   3.464  1.8955  0.4338  1.4289
 6140TIP3    H239912   1.929   2.431   3.591  1.9604 -1.2921  0.4898
 6141TIP3   OH239913   3.403   5.433   3.767  0.3633 -0.7728 -0.3876
 6141TIP3    H139914   3.498   5.445   3.774  0.1686 -0.0230  1.3205
 6141TIP3    H239915   3.380   5.377   3.841 -0.7527  0.5742  0.3279
 6142TIP3   OH239916   4.472   4.993  16.781  0.1163  0.2417  0.7952
 6142TIP3    H139917   4.383   4.958  16.773 -0.2708  1.5088 -1.1675
 6142TIP3    H239918   4.528   4.922  16.749 -0.2024 -0.4204  1.6695
 6143TIP3   OH239919   5.120   1.096  14.896 -0.3159 -0.1872 -0.8800
 6143TIP3    H139920   5.184   1.096  14.825 -0.8755 -1.8107 -1.4234
 6143TIP3    H239921   5.036   1.106  14.852 -0.4969  1.6073 -0.1981
 6144TIP3   OH239922   0.505   3.027   4.555  0.2561 -0.3674 -0.4110
 6144TIP3    H139923   0.511   3.086   4.480  0.5348  0.3365  0.1631
 6144TIP3    H239924   0.561   3.067   4.622 -0.9423 -0.3614  0.6075
 6145TIP3   OH239925   2.588   3.063  16.712 -0.2233 -0.0209 -0.1396
 6145TIP3    H139926   2.568   3.037  16.802  1.3185  0.9834  0.5290
 6145TIP3    H239927   2.520   3.127  16.689 -1.5311 -1.3996 -0.2879
 6146TIP3   OH239928   0.854   5.529   3.800 -0.1714 -0.5767 -0.8585
 6146TIP3    H139929   0.822   5.444   3.771  1.2233 -1.1715 -0.7079
 6146TIP3    H239930   0.844   5.586   3.723  1.6347 -1.6379 -1.9422
 6147TIP3   OH239931   6.654   1.589   5.490  0.1595 -0.5585 -0.3240
 6147TIP3    H139932   6.578   1.531   5.491  0.6799 -1.2553 -0.1326
 6147TIP3    H239933   6.617   1.677   5.494 -0.6067 -0.9106  1.4877
 6148TIP3   OH239934   5.140   4.123  12.266 -0.0303 -0.7657  0.2285
 6148TIP3    H139935   5.169   4.067  12.194  0.8188 -0.2013  0.1133
 6148TIP3    H239936   5.147   4.212  12.231  2.4184 -0.3136  1.6231
 6149TIP3   OH239937   6.139   3.168  16.642 -0.2211  0.0337  0.4572
 6149TIP3    H139938   6.201   3.166  16.568  0.0606 -0.6477  0.7062
 6149TIP3    H239939   6.062   3.121  16.610 -0.5741  0.7590  0.2005
 6150TIP3   OH239940   3.410   5.663   4.573 -0.4600 -0.5232 -0.5527
 6150TIP3    H139941   3.492   5.641   4.617 -0.2227 -1.2275 -1.3255
 6150TIP3    H239942   3.435   5.687   4.484 -0.9922  0.3307 -0.4919
 6151TIP3   OH239943   2.848   6.506  15.311 -0.0848  0.0774 -1.0274
 6151TIP3    H139944   2.772   6.459  15.277 -0.8955 -0.1689  0.9716
 6151TIP3    H239945   2.898   6.440  15.359 -0.3176  0.8481  0.3424
 6152TIP3   OH239946   6.046   1.985   0.164  0.2180 -0.4221  0.5827
 6152TIP3    H139947   6.012   1.964   0.251 -1.7909  0.8719  0.1956
 6152TIP3    H239948   6.002   1.924   0.105  1.5403 -1.2670  0.4274
 6153TIP3   OH239949   3.708   6.359  12.837  0.2595 -1.1653 -0.6492
 6153TIP3    H139950   3.800   6.365  12.862  0.2877 -0.9959 -0.8008
 6153TIP3    H239951   3.677   6.280  12.881  0.1906 -0.6185  0.3141
 6154TIP3   OH239952   0.733   1.645  11.526  0.3262  0.3086  0.4912
 6154TIP3    H139953   0.768   1.569  11.573  0.0137 -0.1271  0.0369
 6154TIP3    H239954   0.699   1.702  11.595  1.1589  0.3496  0.8782
 6155TIP3   OH239955   5.409   6.409   3.374  0.5456  0.4826  0.7807
 6155TIP3    H139956   5.468   6.409   3.298 -1.8485  2.4678 -1.2510
 6155TIP3    H239957   5.383   6.500   3.384 -2.6883 -0.3514  1.0662
 6156TIP3   OH239958   4.315   5.576  13.051 -0.7550 -0.0739 -0.6179
 6156TIP3    H139959   4.291   5.490  13.085 -0.8667  0.0546 -0.3682
 6156TIP3    H239960   4.276   5.579  12.964  0.1039 -0.6692 -1.0396
 6157TIP3   OH239961   4.443   5.302   0.988 -0.2135  0.3083 -0.4915
 6157TIP3    H139962   4.465   5.253   0.908 -0.8389  0.4144 -0.7330
 6157TIP3    H239963   4.465   5.393   0.967  2.4811 -0.0011  0.5002
 6158TIP3   OH239964   3.428   3.949   2.349  0.7461  0.2363 -0.3680
 6158TIP3    H139965   3.513   3.979   2.382  0.6275  0.0340  0.1371
 6158TIP3    H239966   3.418   3.861   2.386  0.6185 -0.0163 -0.9769
 6159TIP3   OH239967   6.026   0.598   1.792 -0.3906 -0.4678 -0.4083
 6159TIP3    H139968   6.096   0.551   1.745  0.3392  0.3102 -0.1270
 6159TIP3    H239969   6.036   0.689   1.765 -1.2241 -0.3283 -0.2621
 6160TIP3   OH239970   3.240   1.842   4.620 -1.0955  0.5281  0.2472
 6160TIP3    H139971   3.276   1.913   4.568 -0.1739 -0.5893 -0.6858
 6160TIP3    H239972   3.276   1.856   4.708  0.3528  0.3599 -0.2902
 6161TIP3   OH239973   1.254   6.304   5.552  0.8232  0.1954  0.0647
 6161TIP3    H139974   1.314   6.374   5.529  1.1706  0.5684  1.9187
 6161TIP3    H239975   1.176   6.349   5.585  1.6884 -0.1636  2.9096
 6162TIP3   OH239976   4.425   4.840  13.790 -0.2602 -0.3852 -0.4447
 6162TIP3    H139977   4.409   4.816  13.881 -1.3462  1.6897 -0.0386
 6162TIP3    H239978   4.411   4.759  13.741 -0.4529 -1.3471  1.1368
 6163TIP3   OH239979   3.440   0.016  17.104 -0.5187 -0.0579 -0.5176
 6163TIP3    H139980   3.436  -0.078  17.124  1.0675 -0.1958 -0.6938
 6163TIP3    H239981   3.359   0.034  17.056 -1.6944 -0.9305  1.0404
 6164TIP3   OH239982   5.342   5.402   0.584  0.1189 -0.0119  0.0039
 6164TIP3    H139983   5.263   5.360   0.550 -0.2393  0.3303  0.4051
 6164TIP3    H239984   5.367   5.464   0.517 -0.5599  0.6274  0.3338
 6165TIP3   OH239985   6.452   6.647  11.498 -0.2426 -0.0290 -0.1736
 6165TIP3    H139986   6.371   6.681  11.460 -0.7712  0.7339  1.5369
 6165TIP3    H239987   6.426   6.609  11.581  1.1924  0.4420  0.5255
 6166TIP3   OH239988   4.083   1.559  13.578  0.6067 -0.6344 -0.3760
 6166TIP3    H139989   4.137   1.625  13.535 -0.6219  1.5140  1.1843
 6166TIP3    H239990   4.143   1.515  13.639  0.8509  1.1137  0.7044
 6167TIP3   OH239991   2.659   0.054  12.443  0.1732  0.2278  0.3978
 6167TIP3    H139992   2.705   0.132  12.410 -1.3713  1.3255  0.7070
 6167TIP3    H239993   2.682  -0.015  12.382  1.5034  0.9429  0.0439
 6168TIP3   OH239994   3.242   4.147  11.234 -0.6272  0.0552  0.1636
 6168TIP3    H139995   3.227   4.241  11.248 -2.1846  0.0765 -1.2122
 6168TIP3    H239996   3.263   4.141  11.140  1.5547 -0.7825  0.6633
 6169TIP3   OH239997   0.338   1.641   4.562  0.0235  0.2671 -0.2223
 6169TIP3    H139998   0.410   1.669   4.619  0.7402 -1.5741 -0.1656
 6169TIP3    H239999   0.371   1.655   4.473  0.9759 -1.6540 -0.2208
 6170TIP3   OH240000   0.003   5.634   5.078 -0.2244 -0.2164  0.3982
 6170TIP3    H140001   0.046   5.549   5.090  0.6154  0.1918  0.3172
 6170TIP3    H240002  -0.052   5.643   5.155 -2.0965 -1.8518 -0.6474
 6171TIP3   OH240003   5.880   6.278   5.460  0.2744 -0.0846  0.0627
 6171TIP3    H140004   5.876   6.273   5.556 -1.4791 -1.4572 -0.0067
 6171TIP3    H240005   5.972   6.290   5.440  0.8090 -0.7261  1.9141
 6172TIP3   OH240006   1.517   2.383   1.806  0.1797 -0.1971  0.1665
 6172TIP3    H140007   1.557   2.421   1.884 -0.9338 -0.1918  0.7512
 6172TIP3    H240008   1.451   2.448   1.779  0.4006 -0.2974 -0.6592
 6173TIP3   OH240009   5.834   6.156  15.727 -0.0959  0.0917  0.8282
 6173TIP3    H140010   5.914   6.127  15.772  0.6547  0.5757 -0.1471
 6173TIP3    H240011   5.781   6.076  15.719  0.9674 -0.5846  0.1437
 6174TIP3   OH240012   1.826   4.991  14.084 -0.0857 -0.6389 -0.7984
 6174TIP3    H140013   1.861   4.952  14.164 -2.3371 -2.3962 -0.5626
 6174TIP3    H240014   1.901   5.031  14.041  1.7151 -2.2016  0.7512
 6175TIP3   OH240015   6.758   3.335   5.360  0.6306  0.1119 -0.1802
 6175TIP3    H140016   6.690   3.291   5.410  0.0059  2.1663  0.8778
 6175TIP3    H240017   6.731   3.324   5.268 -1.6395  1.5524  0.2294
 6176TIP3   OH240018   5.445   1.217  17.174 -0.0483  0.7725 -0.0741
 6176TIP3    H140019   5.483   1.300  17.146 -0.4346  0.3410 -2.0760
 6176TIP3    H240020   5.363   1.242  17.217  0.4278  1.4730  0.4516
 6177TIP3   OH240021   0.473   2.412   3.175  0.7642 -0.3609 -0.0002
 6177TIP3    H140022   0.383   2.438   3.155  0.7941 -0.4006 -0.1823
 6177TIP3    H240023   0.465   2.358   3.254  0.7767  0.7821  0.8076
 6178TIP3   OH240024   4.090   2.762  11.944 -0.1331  0.0439  0.4992
 6178TIP3    H140025   4.002   2.790  11.967 -0.3241  0.6737 -0.8824
 6178TIP3    H240026   4.088   2.667  11.950 -1.0380  0.0262  0.0766
 6179TIP3   OH240027   4.669   4.457   2.048  0.1488  0.1285 -0.0989
 6179TIP3    H140028   4.712   4.536   2.017 -0.5531 -0.0424 -1.5990
 6179TIP3    H240029   4.620   4.485   2.125  0.5425  0.9703 -0.1471
 6180TIP3   OH240030   3.073   0.019  17.190  0.2243 -0.2491  0.7276
 6180TIP3    H140031   3.125   0.038  17.112  0.4069 -1.7099  0.4761
 6180TIP3    H240032   2.994   0.071  17.179  0.2489 -0.4351 -0.4279
 6181TIP3   OH240033   4.605   2.786  13.443  0.2891  0.3037 -0.4526
 6181TIP3    H140034   4.641   2.770  13.530 -0.5561  0.1895 -0.1077
 6181TIP3    H240035   4.584   2.699  13.409 -0.0978  0.3916 -0.4469
 6182TIP3   OH240036   3.755   1.008   2.048 -0.1036 -0.2309 -0.0172
 6182TIP3    H140037   3.758   0.912   2.042 -0.4346 -0.1743 -1.3017
 6182TIP3    H240038   3.666   1.031   2.021 -0.5131  0.3769  1.6814
 6183TIP3   OH240039   0.377   1.524  14.888 -0.1181 -0.3400  0.2173
 6183TIP3    H140040   0.411   1.614  14.891 -1.2932  0.1211  0.3988
 6183TIP3    H240041   0.360   1.508  14.795 -1.4445  0.2648  0.3204
 6184TIP3   OH240042   2.295   1.244  12.381  0.2141 -0.7735 -0.3427
 6184TIP3    H140043   2.373   1.293  12.408 -0.5480  0.4454 -0.2484
 6184TIP3    H240044   2.287   1.174  12.446  0.6860 -0.3338  0.2037
 6185TIP3   OH240045   2.557   6.506  12.673  0.6965 -0.4911 -0.7259
 6185TIP3    H140046   2.550   6.425  12.622  0.4973 -0.4109 -0.8281
 6185TIP3    H240047   2.651   6.519  12.686  0.7008 -1.2466  0.0994
 6186TIP3   OH240048   1.992   5.180   5.375  0.5083 -0.1385  0.2170
 6186TIP3    H140049   1.919   5.213   5.321  0.8844  0.9809  0.3765
 6186TIP3    H240050   1.967   5.202   5.465  0.3809 -1.0673  0.4289
 6187TIP3   OH240051   5.390   6.724  13.985 -0.5046  0.0371 -0.2953
 6187TIP3    H140052   5.395   6.760  14.074  0.9871  0.0754 -0.3681
 6187TIP3    H240053   5.481   6.717  13.957 -0.9574  0.0168 -1.8346
 6188TIP3   OH240054   0.935   3.688   0.044 -0.0127 -0.2989 -0.4210
 6188TIP3    H140055   0.979   3.700  -0.040  1.2814  2.4895  0.5391
 6188TIP3    H240056   0.844   3.712   0.027  0.1100 -0.3085 -1.1333
 6189TIP3   OH240057   0.330   4.364   3.638 -0.3453 -0.0569 -0.4045
 6189TIP3    H140058   0.238   4.348   3.614  0.1878 -2.9330 -0.9397
 6189TIP3    H240059   0.380   4.326   3.567  1.2515 -1.6701  1.4735
 6190TIP3   OH240060   2.575   2.050   0.234  0.0706  0.7213 -0.3082
 6190TIP3    H140061   2.605   1.982   0.294  1.4866  0.2297 -1.5064
 6190TIP3    H240062   2.650   2.109   0.227 -0.1292  0.8562 -1.4443
 6191TIP3   OH240063   2.378   0.830   2.774 -0.0768  0.0558 -0.6461
 6191TIP3    H140064   2.423   0.914   2.783  2.1868 -0.8909 -2.1280
 6191TIP3    H240065   2.320   0.842   2.698  0.2955  0.2469 -0.9016
 6192TIP3   OH240066   4.827   5.574  14.947  0.7354  0.4120 -0.7275
 6192TIP3    H140067   4.855   5.616  14.866  0.0396 -0.2514 -1.3240
 6192TIP3    H240068   4.856   5.634  15.016  2.7251  0.2576 -1.3545
 6193TIP3   OH240069   1.524   1.301  15.018 -0.2606 -0.0089 -0.3768
 6193TIP3    H140070   1.435   1.280  15.049  0.3776  0.3158  1.8568
 6193TIP3    H240071   1.541   1.237  14.949 -2.2491 -0.0270 -0.9162
 6194TIP3   OH240072   4.802   5.402   0.359  0.2576 -0.2815 -0.1332
 6194TIP3    H140073   4.859   5.327   0.343 -0.4356 -0.2787 -3.2485
 6194TIP3    H240074   4.728   5.389   0.299 -0.7101  2.0781  0.4422
 6195TIP3   OH240075   3.726   6.162  16.999 -0.2536  0.1266 -0.3506
 6195TIP3    H140076   3.643   6.137  16.958  0.1535 -0.7131 -0.6690
 6195TIP3    H240077   3.779   6.083  16.997  0.2946  0.4547  0.5325
 6196TIP3   OH240078   5.043   0.152  12.059  0.0974 -0.0254  0.8963
 6196TIP3    H140079   5.130   0.183  12.035  0.0956 -0.2622  0.5821
 6196TIP3    H240080   5.060   0.083  12.123  0.2012 -0.9287 -0.0794
 6197TIP3   OH240081   6.505   4.007  16.144  0.1738  0.1686  0.5971
 6197TIP3    H140082   6.419   4.027  16.181 -0.4219 -0.7329 -0.2633
 6197TIP3    H240083   6.496   3.919  16.108  2.1733 -0.9743  2.6475
 6198TIP3   OH240084   0.950   0.922  13.367 -0.1226  0.0011  0.0206
 6198TIP3    H140085   0.998   1.003  13.387  1.0533 -0.9740  1.2755
 6198TIP3    H240086   1.009   0.873  13.311 -0.3089 -0.5479  0.3044
 6199TIP3   OH240087   5.241   2.067   6.337 -0.4194  0.2587  0.4086
 6199TIP3    H140088   5.277   1.980   6.319  0.4680  0.6449  0.2914
 6199TIP3    H240089   5.188   2.055   6.416 -0.1201 -0.3448  0.5263
 6200TIP3   OH240090   1.321   0.567  12.135 -0.2630  0.3987 -0.0313
 6200TIP3    H140091   1.256   0.606  12.077 -0.8439 -0.7917 -0.2202
 6200TIP3    H240092   1.298   0.474  12.138  1.5006 -0.0777 -0.1859
 6201TIP3   OH240093   6.657   3.692   4.147  0.4714 -0.2713 -0.0435
 6201TIP3    H140094   6.684   3.610   4.107 -1.6869  0.2158 -2.7624
 6201TIP3    H240095   6.686   3.760   4.086 -0.0225  0.7829  0.8536
 6202TIP3   OH240096   4.191   1.528   1.044 -0.7690 -0.2988  0.7672
 6202TIP3    H140097   4.209   1.585   1.119 -0.2007 -2.0773  2.0661
 6202TIP3    H240098   4.191   1.440   1.081 -2.2258 -1.1219 -1.0451
 6203TIP3   OH240099   6.271   1.193  14.398 -0.2329 -0.0612 -0.3793
 6203TIP3    H140100   6.339   1.239  14.448 -0.4707  0.8702 -0.8853
 6203TIP3    H240101   6.312   1.175  14.313  0.2010 -1.7163  0.1426
 6204TIP3   OH240102   5.563   0.395  13.518  0.2076  0.2312  0.3585
 6204TIP3    H140103   5.584   0.369  13.607  1.0031  0.5528  0.2835
 6204TIP3    H240104   5.474   0.429  13.522 -0.4403 -1.4433  0.6626
 6205TIP3   OH240105   0.844   0.800  13.960 -0.0034  0.4718  0.1698
 6205TIP3    H140106   0.790   0.745  14.016  0.7314 -0.5380 -0.0751
 6205TIP3    H240107   0.934   0.776  13.982  0.3185  1.0234 -0.4953
 6206TIP3   OH240108   0.739   5.117  14.513  0.0073 -0.1622 -0.0666
 6206TIP3    H140109   0.741   5.030  14.473  2.3564 -0.1566 -0.1227
 6206TIP3    H240110   0.708   5.175  14.443  1.5986 -0.5178 -1.1242
 6207TIP3   OH240111   2.202   5.013  10.891  0.1995  0.4972 -0.0814
 6207TIP3    H140112   2.135   4.951  10.861 -0.0027  0.8687 -0.4016
 6207TIP3    H240113   2.285   4.967  10.880  0.1681  0.7735 -1.5922
 6208TIP3   OH240114   5.359   0.712   2.632 -0.0489 -0.0838  0.1560
 6208TIP3    H140115   5.347   0.800   2.595  0.8937 -0.8440 -2.0989
 6208TIP3    H240116   5.442   0.681   2.595 -0.4660 -2.0271  0.7302
 6209TIP3   OH240117   1.443   0.179  16.674  0.5510  0.1151 -0.0834
 6209TIP3    H140118   1.390   0.113  16.628 -0.5038 -0.3186  1.6609
 6209TIP3    H240119   1.474   0.133  16.752  0.6845  1.3971  0.6283
 6210TIP3   OH240120   0.352   1.768   6.391  0.2614  0.7883 -0.3430
 6210TIP3    H140121   0.436   1.723   6.383  0.7724  1.6338  0.1558
 6210TIP3    H240122   0.312   1.729   6.469  1.0326  1.6734  0.5352
 6211TIP3   OH240123   1.998   1.341  17.038 -0.2276  0.0488 -0.1438
 6211TIP3    H140124   2.068   1.361  17.100  0.9202  0.5852 -1.5573
 6211TIP3    H240125   2.005   1.410  16.972 -1.5846 -0.3644 -0.7419
 6212TIP3   OH240126   2.685   5.545   3.307 -0.1444 -0.2725  0.2023
 6212TIP3    H140127   2.767   5.495   3.306  0.0107 -0.0961  1.8517
 6212TIP3    H240128   2.635   5.510   3.233 -0.0504 -2.9160  1.2646
 6213TIP3   OH240129   6.500   2.766  13.649  0.1287 -0.2577 -0.0274
 6213TIP3    H140130   6.471   2.786  13.738 -0.5758  1.4796 -0.6172
 6213TIP3    H240131   6.479   2.844  13.598 -1.2038 -1.8711 -2.1354
 6214TIP3   OH240132   5.635   3.300  11.691 -0.1668 -0.0766 -0.1798
 6214TIP3    H140133   5.556   3.281  11.641  1.1630 -1.1663 -2.0065
 6214TIP3    H240134   5.677   3.214  11.702  0.5293  0.4168  1.1936
 6215TIP3   OH240135   6.548   6.365  11.524  0.8360 -0.6931  0.2292
 6215TIP3    H140136   6.593   6.447  11.547  1.4048 -0.9936  0.1946
 6215TIP3    H240137   6.458   6.392  11.504  1.2262  0.0311 -0.5697
 6216TIP3   OH240138   2.147   1.274   3.194  0.4741 -0.1274  0.5991
 6216TIP3    H140139   2.218   1.302   3.251  2.2171 -2.0865 -0.4409
 6216TIP3    H240140   2.067   1.291   3.244  1.7293  1.0141  2.3217
 6217TIP3   OH240141   4.020   3.893  13.911  0.7491  0.4018  0.4628
 6217TIP3    H140142   4.026   3.985  13.936 -1.3590  0.2010  1.9978
 6217TIP3    H240143   3.927   3.872  13.917  0.8378 -1.2803 -2.1024
 6218TIP3   OH240144   5.182   6.221   0.514  0.7690  0.3752 -0.4976
 6218TIP3    H140145   5.251   6.279   0.482  0.3958  1.0168 -0.1775
 6218TIP3    H240146   5.110   6.280   0.536  1.2177  0.0791  2.1385
 6219TIP3   OH240147   5.796   5.449  16.994  0.2490 -0.1735  0.4922
 6219TIP3    H140148   5.874   5.449  17.048  0.8763  0.9406 -0.3734
 6219TIP3    H240149   5.827   5.471  16.906 -1.2531  2.4698  0.5222
 6220TIP3   OH240150   5.362   4.439  14.149  0.4830 -1.1534  0.1513
 6220TIP3    H140151   5.278   4.416  14.108 -0.4924  1.0162  0.8054
 6220TIP3    H240152   5.345   4.436  14.243  0.8618  0.1560  0.2814
 6221TIP3   OH240153   2.786   0.776   1.540 -0.2845 -0.2781  0.1229
 6221TIP3    H140154   2.791   0.684   1.566  0.5137 -0.7387 -1.5425
 6221TIP3    H240155   2.701   0.783   1.496  0.0865 -0.4939 -0.6526
 6222TIP3   OH240156   2.287   6.054  16.547 -0.0551  0.9855 -0.4362
 6222TIP3    H140157   2.345   6.083  16.618  0.8707 -0.4133 -0.5973
 6222TIP3    H240158   2.212   6.113  16.553 -0.9021 -0.1781  2.9354
 6223TIP3   OH240159   4.233   6.159   1.706  0.1172 -0.2604 -0.0647
 6223TIP3    H140160   4.262   6.242   1.742  0.0703 -0.3559  0.1965
 6223TIP3    H240161   4.280   6.150   1.623  1.1067 -0.5826  0.5214
 6224TIP3   OH240162   6.497   0.929  12.471 -0.0528 -0.2283  0.7990
 6224TIP3    H140163   6.549   0.857  12.435 -2.2897 -1.1687 -0.8077
 6224TIP3    H240164   6.437   0.887  12.532 -0.7972  0.3794  0.5044
 6225TIP3   OH240165   6.318   4.754  12.764 -0.2506 -0.6050  0.0856
 6225TIP3    H140166   6.286   4.837  12.730  2.3007  0.6184  0.4738
 6225TIP3    H240167   6.410   4.750  12.738 -0.2454 -3.2539  0.2191
 6226TIP3   OH240168   3.624   0.051  14.776  0.6845 -0.6039  0.8590
 6226TIP3    H140169   3.584   0.055  14.689 -0.4116  0.6071  1.3796
 6226TIP3    H240170   3.551   0.038  14.836  1.1978  0.3091  1.7314
 6227TIP3   OH240171   5.909   1.571   2.744 -0.0790 -0.3451 -0.8630
 6227TIP3    H140172   5.940   1.650   2.701  4.2097 -0.5832  1.2397
 6227TIP3    H240173   5.907   1.505   2.674  1.8776  0.3665 -1.6486
 6228TIP3   OH240174   1.359   0.801  14.713 -0.1139  0.4926  0.0990
 6228TIP3    H140175   1.449   0.778  14.738  0.3157  1.4261 -0.5153
 6228TIP3    H240176   1.323   0.845  14.790 -0.5854 -1.1722  0.8971
 6229TIP3   OH240177   0.658   3.471   3.937 -0.0670  0.5463 -0.0125
 6229TIP3    H140178   0.737   3.511   3.900  0.7626 -0.9829  0.0054
 6229TIP3    H240179   0.626   3.414   3.867  0.8781 -1.5137  1.1120
 6230TIP3   OH240180   5.484   1.802  12.365  0.2782  0.4634 -0.1088
 6230TIP3    H140181   5.521   1.889  12.351  0.2177  0.5947  0.5314
 6230TIP3    H240182   5.488   1.761  12.279 -1.0923  1.6292 -0.7799
 6231TIP3   OH240183   4.415   5.228   3.716 -0.5064  0.2477 -0.2989
 6231TIP3    H140184   4.455   5.307   3.754  0.5987 -0.2969 -0.3065
 6231TIP3    H240185   4.466   5.210   3.638 -0.4908 -0.7239 -0.0686
 6232TIP3   OH240186   3.953   0.891   4.626  0.6708  0.6299 -0.2883
 6232TIP3    H140187   3.992   0.968   4.584  0.6305  1.1564  0.5939
 6232TIP3    H240188   3.886   0.928   4.685 -0.7081 -0.2164 -1.2812
 6233TIP3   OH240189   5.585   1.511   5.219  0.1527 -0.3565  0.5020
 6233TIP3    H140190   5.630   1.519   5.135  0.4808  0.1988  0.7319
 6233TIP3    H240191   5.578   1.416   5.232 -0.0962 -0.4557 -0.2524
 6234TIP3   OH240192   2.343   3.023  11.852  0.1119  0.2877 -0.3025
 6234TIP3    H140193   2.370   2.934  11.876 -1.4669 -0.4097 -0.9167
 6234TIP3    H240194   2.375   3.034  11.762  0.5700  0.4512 -0.1168
 6235TIP3   OH240195   1.577   1.583   4.445  0.3874 -0.2320 -0.3450
 6235TIP3    H140196   1.565   1.678   4.439  1.3488 -0.1168 -0.7642
 6235TIP3    H240197   1.615   1.569   4.532 -2.9751 -0.6534  1.2102
 6236TIP3   OH240198   4.431   5.508   3.822 -0.1843 -0.2288  0.5611
 6236TIP3    H140199   4.368   5.560   3.873  0.3770 -0.3847  1.4262
 6236TIP3    H240200   4.517   5.540   3.849  0.1984 -1.9562  1.5122
 6237TIP3   OH240201   1.349   4.095   0.567 -0.1851 -0.5407  0.2935
 6237TIP3    H140202   1.270   4.055   0.602 -1.5212 -0.0865 -2.0057
 6237TIP3    H240203   1.333   4.189   0.572  1.2310 -0.3354  1.9206
 6238TIP3   OH240204   1.001   6.198  12.648 -0.1758  0.0596  0.5897
 6238TIP3    H140205   0.941   6.131  12.615  0.4972 -0.7067  0.8864
 6238TIP3    H240206   0.984   6.275  12.593  0.7557 -1.1022 -1.4636
 6239TIP3   OH240207   3.199   1.388  14.232 -0.0749 -0.3481  0.3161
 6239TIP3    H140208   3.246   1.308  14.210 -0.8595 -0.4926 -0.9359
 6239TIP3    H240209   3.254   1.459  14.198  0.2805 -0.3877  0.8011
 6240TIP3   OH240210   1.333   0.814  13.235 -0.1512  0.2879 -0.5327
 6240TIP3    H140211   1.415   0.847  13.197  0.0913 -0.8606 -1.0377
 6240TIP3    H240212   1.302   0.749  13.173 -0.1118 -1.1277  0.8787
 6241TIP3   OH240213   5.661   5.511   2.961  0.0214 -0.4255  0.6205
 6241TIP3    H140214   5.747   5.535   2.995 -0.7308  1.1828  1.4800
 6241TIP3    H240215   5.600   5.531   3.032 -1.0496 -1.9379  0.1900
 6242TIP3   OH240216   5.767   4.910   5.549 -0.4551 -0.4238  0.0438
 6242TIP3    H140217   5.687   4.857   5.541 -2.8830  2.8471  0.5289
 6242TIP3    H240218   5.804   4.884   5.634 -1.0057 -1.9460 -0.1509
 6243TIP3   OH240219   2.290   0.159  12.673 -0.5814  0.4464  0.1984
 6243TIP3    H140220   2.247   0.073  12.677 -0.6522  0.5005  0.7802
 6243TIP3    H240221   2.262   0.203  12.753  1.3245  0.1125  1.1141
 6244TIP3   OH240222   5.348   6.185   0.915  0.2802  0.1633 -0.0015
 6244TIP3    H140223   5.346   6.099   0.956 -0.0883  0.2573  0.1793
 6244TIP3    H240224   5.286   6.179   0.842 -1.2023  0.8401  1.1568
 6245TIP3   OH240225   5.773   2.223  13.879  0.6418  0.0787  0.1789
 6245TIP3    H140226   5.740   2.309  13.856  1.6479  0.1102 -1.2799
 6245TIP3    H240227   5.707   2.162  13.844 -0.4439  0.2269  1.8545
 6246TIP3   OH240228   5.902   2.232  11.487  0.1479 -0.6267 -0.0486
 6246TIP3    H140229   5.818   2.253  11.446  0.1660  0.7685  0.5676
 6246TIP3    H240230   5.963   2.296  11.452  1.2009 -2.1240 -1.1086
 6247TIP3   OH240231   2.167   2.879  11.299 -0.0634  0.2835 -0.1799
 6247TIP3    H140232   2.192   2.956  11.248 -1.3504  0.9559  0.1644
 6247TIP3    H240233   2.094   2.909  11.353 -0.2718 -1.0548  0.3083
 6248TIP3   OH240234   6.535   1.830  14.184 -0.3122  0.1599 -0.2604
 6248TIP3    H140235   6.445   1.846  14.213 -0.2161  0.8805 -0.3371
 6248TIP3    H240236   6.585   1.825  14.265 -0.6900 -2.1301 -0.1154
 6249TIP3   OH240237   6.730   0.517  14.051  0.6239 -0.9349  0.1791
 6249TIP3    H140238   6.715   0.556  13.965  1.2910 -0.4518  0.2793
 6249TIP3    H240239   6.762   0.429  14.032  1.5169 -0.5626 -0.0851
 6250TIP3   OH240240   0.974   3.284   5.223  0.4896 -0.1293  0.1324
 6250TIP3    H140241   0.901   3.344   5.209  0.1420  0.3773  3.3122
 6250TIP3    H240242   1.036   3.303   5.153 -2.0067  0.0079 -2.1831
 6251TIP3   OH240243   1.474   2.004   2.389  0.1931 -0.4602  0.1228
 6251TIP3    H140244   1.466   1.915   2.354 -2.5135 -0.6162  0.8795
 6251TIP3    H240245   1.387   2.024   2.423  0.9675  2.1628  0.8074
 6252TIP3   OH240246   2.661   6.374  12.918 -0.2387 -0.2306  0.4945
 6252TIP3    H140247   2.671   6.459  12.875 -0.2286 -0.7783 -0.6045
 6252TIP3    H240248   2.568   6.354  12.913 -0.5498  0.5159  2.3588
 6253TIP3   OH240249   3.264   4.565  12.768  0.1904  0.4418  0.7401
 6253TIP3    H140250   3.347   4.577  12.722 -0.7612 -2.0493 -1.9043
 6253TIP3    H240251   3.197   4.574  12.700 -1.3914 -2.1365  1.8168
 6254TIP3   OH240252   5.582   3.423  15.695 -0.0102  0.5188  0.8157
 6254TIP3    H140253   5.561   3.480  15.622 -1.4200  0.8207  1.4126
 6254TIP3    H240254   5.640   3.474  15.751  0.2356  0.6658  0.4261
 6255TIP3   OH240255   6.463   0.555  15.701  0.4865 -0.7284  0.4587
 6255TIP3    H140256   6.381   0.518  15.733 -0.0103 -1.2891 -1.3061
 6255TIP3    H240257   6.439   0.601  15.621  1.6786  0.3792  0.6966
 6256TIP3   OH240258   1.689   1.186   4.386 -0.0855  0.3661 -0.3894
 6256TIP3    H140259   1.610   1.238   4.378 -0.5224 -0.2256 -0.0285
 6256TIP3    H240260   1.679   1.115   4.323  0.8786  1.1585 -1.4673
 6257TIP3   OH240261   4.781   3.186  14.700 -0.1159  0.2202  0.5569
 6257TIP3    H140262   4.827   3.265  14.731 -0.3371  0.4621  0.2642
 6257TIP3    H240263   4.710   3.219  14.646 -0.3248 -0.1778  0.5880
 6258TIP3   OH240264   1.582   3.181   1.968 -0.1678 -0.3917  0.5273
 6258TIP3    H140265   1.555   3.199   2.059  0.2795  0.8574  0.4318
 6258TIP3    H240266   1.517   3.226   1.915 -1.7663 -2.9668  0.1166
 6259TIP3   OH240267   6.788   4.453  13.154 -0.1837 -0.4003  0.0156
 6259TIP3    H140268   6.796   4.442  13.059  0.9014  2.1341 -0.2675
 6259TIP3    H240269   6.707   4.503  13.165 -1.3425 -2.2868  0.6651
 6260TIP3   OH240270   2.964   4.141   3.733  0.1558 -0.5005  0.4570
 6260TIP3    H140271   2.908   4.069   3.702  1.8418 -1.9820  0.7029
 6260TIP3    H240272   3.011   4.170   3.655 -0.7032  0.5519  0.3067
 6261TIP3   OH240273   3.586   5.464   2.174  1.0513  0.2244 -1.1821
 6261TIP3    H140274   3.613   5.409   2.247 -1.7566  1.2248  0.8168
 6261TIP3    H240275   3.643   5.439   2.101  2.7946 -2.1000  0.8410
 6262TIP3   OH240276   6.123   4.161  16.546 -0.1169 -0.3473  0.0414
 6262TIP3    H140277   6.030   4.176  16.530  0.1468  1.7029  0.2022
 6262TIP3    H240278   6.126   4.131  16.637 -0.5991 -0.2262  0.1036
 6263TIP3   OH240279   0.566   6.181   4.424  0.2642  0.3003 -0.1103
 6263TIP3    H140280   0.641   6.177   4.366  0.5236 -2.9402  0.2572
 6263TIP3    H240281   0.603   6.198   4.511  0.9010 -2.5496  0.2993
 6264TIP3   OH240282   0.491   6.673  15.572  0.0407 -0.0551  0.5743
 6264TIP3    H140283   0.454   6.735  15.634  2.3686 -0.2397  2.2735
 6264TIP3    H240284   0.510   6.725  15.494 -1.0748  0.6040  0.7234
 6265TIP3   OH240285   3.290   3.161  13.530 -0.3522  0.2592 -0.8697
 6265TIP3    H140286   3.331   3.217  13.465  1.8840  0.1541  0.3230
 6265TIP3    H240287   3.293   3.211  13.611 -1.2965 -0.3485 -0.4332
 6266TIP3   OH240288   2.607   3.249   6.109 -0.8152  0.4438  0.4347
 6266TIP3    H140289   2.643   3.335   6.089  0.6422 -0.2372 -0.0978
 6266TIP3    H240290   2.635   3.232   6.199  2.5731 -1.0825 -0.7109
 6267TIP3   OH240291   1.797   2.353  14.740 -0.2124 -0.1518 -0.0886
 6267TIP3    H140292   1.798   2.258  14.731 -1.7805 -0.2231  0.1806
 6267TIP3    H240293   1.732   2.371  14.807  0.0164  1.1247 -0.1679
 6268TIP3   OH240294   1.082   4.005   4.449 -0.2292 -0.8347 -0.4816
 6268TIP3    H140295   1.125   4.058   4.382  2.0083 -1.6570  0.2065
 6268TIP3    H240296   1.123   4.033   4.531 -2.4227 -0.3277  0.5274
 6269TIP3   OH240297   1.670   2.766  12.433  0.4432 -0.7433  0.1378
 6269TIP3    H140298   1.683   2.854  12.397  0.2464 -1.1781 -1.0308
 6269TIP3    H240299   1.591   2.773  12.486 -0.3806 -0.5382 -1.0991
 6270TIP3   OH240300   4.027   0.006   4.956 -0.2718  0.0697  0.3455
 6270TIP3    H140301   4.007   0.095   4.985 -0.5267  0.4924 -1.0548
 6270TIP3    H240302   4.111  -0.014   4.998  0.2536  1.3341 -0.0589
 6271TIP3   OH240303   5.360   3.587   4.749 -0.3396  0.7875  0.1376
 6271TIP3    H140304   5.408   3.526   4.805 -0.7181 -0.4962 -0.9057
 6271TIP3    H240305   5.378   3.673   4.788  1.8922  0.2456  0.4461
 6272TIP3   OH240306   1.391   1.883  16.040 -0.3311  0.6455 -0.4102
 6272TIP3    H140307   1.396   1.975  16.066 -0.3903  0.9122 -1.2898
 6272TIP3    H240308   1.483   1.856  16.033 -0.3005  0.8262 -0.7567
 6273TIP3   OH240309   5.911   0.691  14.870 -0.5821  0.3332  0.3802
 6273TIP3    H140310   5.846   0.630  14.905 -1.0774  0.6889  0.0843
 6273TIP3    H240311   5.941   0.649  14.789 -1.0309  0.5436  0.0991
 6274TIP3   OH240312   6.497   4.840   1.899 -0.7834  0.1282 -0.0962
 6274TIP3    H140313   6.443   4.869   1.974 -0.1219  1.3099 -0.0580
 6274TIP3    H240314   6.569   4.791   1.939 -0.7717  0.2217 -0.0013
 6275TIP3   OH240315   5.566   3.755  14.094  0.1579 -0.0261  0.1493
 6275TIP3    H140316   5.637   3.691  14.093  0.3189  0.1384  0.8168
 6275TIP3    H240317   5.524   3.743  14.180 -1.6828 -1.2883 -0.8331
 6276TIP3   OH240318   6.114   1.426  14.361 -0.3790  0.1397 -0.2699
 6276TIP3    H140319   6.171   1.359  14.398 -0.2376  0.2429 -0.3011
 6276TIP3    H240320   6.105   1.401  14.269 -2.3623 -1.2815  0.2296
 6277TIP3   OH240321   4.132   3.227  16.671 -0.3478  0.6876  0.2366
 6277TIP3    H140322   4.140   3.313  16.628 -0.2283  0.4340 -0.2567
 6277TIP3    H240323   4.179   3.167  16.613  1.1590  0.5952  1.4870
 6278TIP3   OH240324   4.830   0.567  14.225 -0.1641  0.3771  0.8648
 6278TIP3    H140325   4.742   0.554  14.192 -0.1026 -0.7174  1.0888
 6278TIP3    H240326   4.851   0.659  14.205 -1.1619  0.5063  0.3938
 6279TIP3   OH240327   0.987   1.944  15.879 -0.4773  0.1817  0.0709
 6279TIP3    H140328   1.004   1.992  15.799  0.8116 -0.4779 -0.0879
 6279TIP3    H240329   0.989   2.010  15.948  1.6154  0.3502 -0.0972
 6280TIP3   OH240330   6.392   5.791   2.999 -0.1684  0.4153  1.2002
 6280TIP3    H140331   6.477   5.751   2.982 -1.0815 -0.7943 -1.0858
 6280TIP3    H240332   6.339   5.719   3.035 -1.2112  0.0177 -0.9311
 6281TIP3   OH240333   5.695   2.231   4.193 -0.2617 -0.3626 -0.2490
 6281TIP3    H140334   5.696   2.294   4.120  0.0570 -1.0336 -0.8340
 6281TIP3    H240335   5.683   2.146   4.151  0.0358 -0.7722  0.4791
 6282TIP3   OH240336   1.954   3.904  11.795 -0.4108 -0.4595  0.3971
 6282TIP3    H140337   1.883   3.866  11.743  0.0625 -1.0841  0.1963
 6282TIP3    H240338   1.940   3.871  11.884 -1.4513  0.9251  0.7823
 6283TIP3   OH240339   6.816   3.585  12.500 -0.0512  0.0235 -0.8247
 6283TIP3    H140340   6.723   3.598  12.486  0.1686 -0.2900 -2.9214
 6283TIP3    H240341   6.823   3.500  12.544 -0.7799  0.5333  0.3016
 6284TIP3   OH240342   2.705   6.609  13.332  0.3083  0.2288  0.4527
 6284TIP3    H140343   2.678   6.664  13.406 -0.4823  0.1672  0.2145
 6284TIP3    H240344   2.630   6.610  13.273 -0.2738 -2.2086  1.0642
 6285TIP3   OH240345   0.909   1.714  17.093 -0.0809 -0.0368  0.0898
 6285TIP3    H140346   0.825   1.749  17.065 -0.0396  2.7218  2.8310
 6285TIP3    H240347   0.973   1.760  17.038 -0.2585 -0.5331 -0.5422
 6286TIP3   OH240348   4.994   4.767  16.112 -0.3120 -0.1675  0.5185
 6286TIP3    H140349   5.047   4.782  16.189 -0.6909 -2.1931  1.2356
 6286TIP3    H240350   4.909   4.741  16.146 -0.9671  0.4134 -0.6077
 6287TIP3   OH240351   6.106   2.250  14.610 -0.1203 -0.6719  0.1108
 6287TIP3    H140352   6.093   2.215  14.522 -0.7646 -1.2120  0.4071
 6287TIP3    H240353   6.094   2.175  14.667 -0.5099 -0.1696  0.7047
 6288TIP3   OH240354   6.357   1.320   2.246  0.3260 -0.1704  0.0988
 6288TIP3    H140355   6.336   1.304   2.338  0.0574  1.2523  0.3023
 6288TIP3    H240356   6.411   1.398   2.246  1.0395 -0.6391 -0.9020
 6289TIP3   OH240357   2.942   5.412   0.214  0.2494 -1.1193  0.0224
 6289TIP3    H140358   2.881   5.473   0.172 -1.3075 -3.2964 -1.0798
 6289TIP3    H240359   3.012   5.468   0.247 -0.9700  1.2330 -1.0776
 6290TIP3   OH240360   3.949   4.599   5.923 -0.1518 -0.0020 -0.1208
 6290TIP3    H140361   3.982   4.511   5.939 -0.7679 -0.4633 -1.2676
 6290TIP3    H240362   3.956   4.643   6.008 -1.2999 -1.6378  0.8837
 6291TIP3   OH240363   6.671   4.466   3.385  0.3447  0.6176 -0.2420
 6291TIP3    H140364   6.713   4.548   3.358  1.7105 -0.2004 -0.6900
 6291TIP3    H240365   6.740   4.400   3.376 -1.2083 -0.8863 -1.5707
 6292TIP3   OH240366   3.347   5.553  10.515 -0.0091 -0.0441 -0.5818
 6292TIP3    H140367   3.278   5.543  10.450 -0.6541  0.2283  0.0401
 6292TIP3    H240368   3.322   5.494  10.586 -0.7628  1.5770  0.5818
 6293TIP3   OH240369   0.898   2.089   1.584  0.3442 -0.4141  0.1989
 6293TIP3    H140370   0.908   1.995   1.599  0.4999 -0.5746 -0.8479
 6293TIP3    H240371   0.815   2.111   1.624 -0.5384 -1.3526 -1.0388
 6294TIP3   OH240372   0.137   4.063   0.429 -0.3704  0.2456  0.0666
 6294TIP3    H140373   0.190   4.074   0.507 -0.3954  1.2262 -0.0390
 6294TIP3    H240374   0.070   4.132   0.435 -0.3114  0.4062 -0.8618
 6295TIP3   OH240375   3.453   4.322  13.629 -0.5465 -0.5971  0.8532
 6295TIP3    H140376   3.487   4.372  13.554  0.2908 -0.1284  1.5205
 6295TIP3    H240377   3.360   4.342  13.631 -0.3911  0.1948  0.5294
 6296TIP3   OH240378   4.908   3.795   2.053  0.3540  0.3145 -0.6162
 6296TIP3    H140379   4.976   3.790   1.985 -1.2138 -1.0058 -2.1672
 6296TIP3    H240380   4.886   3.704   2.072 -1.0096  0.7181 -0.1513
 6297TIP3   OH240381   0.207   0.274  16.194  0.1140  0.5117  0.9499
 6297TIP3    H140382   0.158   0.202  16.232  2.2165 -1.1054  0.8016
 6297TIP3    H240383   0.286   0.280  16.248  1.7030  0.2314 -1.2299
 6298TIP3   OH240384   5.865   0.352  13.155  0.0079  0.0652 -0.3597
 6298TIP3    H140385   5.876   0.386  13.066 -0.9320 -2.5216 -1.5461
 6298TIP3    H240386   5.817   0.421  13.201  2.3985  2.4197 -1.1236
 6299TIP3   OH240387   2.041   5.564   0.146 -0.2546 -0.4890  0.0071
 6299TIP3    H140388   2.053   5.612   0.064  1.0548  0.0517  0.4781
 6299TIP3    H240389   1.973   5.612   0.193  2.4925  2.3906  1.4373
 6300TIP3   OH240390   4.211   0.411   4.087 -0.3166 -0.1055 -0.2308
 6300TIP3    H140391   4.238   0.403   3.996  1.2612 -1.4770  0.2846
 6300TIP3    H240392   4.244   0.331   4.128 -1.9922 -0.0530  1.3128
 6301TIP3   OH240393   0.319   6.725  13.821  0.3034 -0.4779  0.3135
 6301TIP3    H140394   0.385   6.670  13.864  1.5246  0.9682  0.3745
 6301TIP3    H240395   0.328   6.810  13.864  0.0443  0.4093 -1.3049
 6302TIP3   OH240396   2.050   1.118  11.398 -0.3408 -0.1085  0.1784
 6302TIP3    H140397   2.039   1.145  11.489 -0.9597 -0.0931  0.1025
 6302TIP3    H240398   2.144   1.100  11.389 -0.2669 -0.0384  0.7965
 6303TIP3   OH240399   2.060   2.458  15.499  0.0142 -0.3014  0.4166
 6303TIP3    H140400   2.033   2.468  15.407 -2.0329  1.7667  1.1328
 6303TIP3    H240401   2.155   2.469  15.498 -0.1562  1.5323 -1.2859
 6304TIP3   OH240402   4.565   4.699  11.002 -0.3186  0.3902 -0.2446
 6304TIP3    H140403   4.497   4.645  10.961 -0.7190  1.1848 -0.6473
 6304TIP3    H240404   4.624   4.636  11.042 -1.3293 -0.3245  0.1729
 6305TIP3   OH240405   4.469   3.364  15.264  0.0418  0.1603  0.2396
 6305TIP3    H140406   4.483   3.291  15.325 -0.9149 -1.0625 -0.9406
 6305TIP3    H240407   4.557   3.392  15.239  0.4333 -1.0555  0.1987
 6306TIP3   OH240408   2.023   4.179  13.421  0.9951 -0.0980  0.5201
 6306TIP3    H140409   2.022   4.105  13.481  1.1162 -0.2866  0.2874
 6306TIP3    H240410   2.109   4.176  13.379  0.8117 -0.1233  0.1421
 6307TIP3   OH240411   0.783   3.467  15.228  0.0314  0.8720  0.3993
 6307TIP3    H140412   0.829   3.519  15.295  2.6630 -0.8184  0.0389
 6307TIP3    H240413   0.851   3.441  15.167 -2.0490  1.0514 -2.1483
 6308TIP3   OH240414   4.000   5.154   2.631 -0.3342  0.3963  0.0227
 6308TIP3    H140415   4.013   5.140   2.537 -1.6085  2.6668 -0.5561
 6308TIP3    H240416   3.974   5.245   2.639 -1.0615  0.0545  2.5353
 6309TIP3   OH240417   4.638   2.983  16.370  0.0325  0.6913 -0.0143
 6309TIP3    H140418   4.733   2.994  16.362  0.1741  0.1814  0.8567
 6309TIP3    H240419   4.624   2.889  16.357 -0.2068  0.5560  1.1511
 6310TIP3   OH240420   5.058   4.742   6.204 -0.0598 -0.2945 -0.2393
 6310TIP3    H140421   5.087   4.678   6.269  0.0232  0.0869  0.1043
 6310TIP3    H240422   5.111   4.724   6.126 -1.4788 -1.9963 -0.8657
 6311TIP3   OH240423   6.311   1.426   4.117  0.4520  0.0897 -0.1485
 6311TIP3    H140424   6.394   1.470   4.132  0.8143 -0.7012  0.2033
 6311TIP3    H240425   6.335   1.337   4.091 -0.2847 -0.1996  0.1415
 6312TIP3   OH240426   5.683   1.428  14.864  0.4402 -0.0931 -0.3136
 6312TIP3    H140427   5.719   1.492  14.925 -0.7700  0.8841 -0.5854
 6312TIP3    H240428   5.663   1.352  14.918  0.6481  0.2577  0.2708
 6313TIP3   OH240429   1.455   2.663   6.608  0.1773 -0.4300 -1.1107
 6313TIP3    H140430   1.526   2.660   6.672  0.0143 -2.0283 -0.9508
 6313TIP3    H240431   1.424   2.753   6.611  0.6869 -0.2665  0.5056
 6314TIP3   OH240432   3.178   2.805  14.067 -0.0046  0.3213 -0.1989
 6314TIP3    H140433   3.146   2.895  14.077  0.0403  0.4409 -1.0227
 6314TIP3    H240434   3.241   2.810  13.995  0.5534 -0.2376  0.2428
 6315TIP3   OH240435   3.045   1.573  14.091  0.1817  0.3729 -0.1196
 6315TIP3    H140436   3.019   1.584  14.183 -0.9859  1.0881 -0.5098
 6315TIP3    H240437   3.084   1.486  14.088 -0.9118 -0.1881  0.8177
 6316TIP3   OH240438   3.187   1.690  15.867  0.0302 -0.0380  0.0537
 6316TIP3    H140439   3.191   1.594  15.866  1.7100 -0.0283  1.5306
 6316TIP3    H240440   3.252   1.717  15.802 -1.9411  0.1524 -1.9394
 6317TIP3   OH240441   4.983   2.028   5.546  0.0787 -0.5543 -0.2969
 6317TIP3    H140442   4.952   1.939   5.535 -1.3922 -0.1567  0.3955
 6317TIP3    H240443   5.014   2.031   5.637  1.1796 -0.6541 -0.6582
 6318TIP3   OH240444   1.585   1.973   3.313 -0.5481  1.0009  0.3439
 6318TIP3    H140445   1.496   1.957   3.345 -1.0510  0.3799 -1.2741
 6318TIP3    H240446   1.633   2.004   3.390 -1.7692 -0.1056  1.6013
 6319TIP3   OH240447   4.018   1.025   3.616  0.0925 -0.0938  0.3718
 6319TIP3    H140448   3.939   1.002   3.665 -0.2723  0.0404 -0.1531
 6319TIP3    H240449   4.078   1.058   3.683 -1.5846  3.3742  0.4240
 6320TIP3   OH240450   4.914   2.093  16.597 -0.0721  0.1045  0.2936
 6320TIP3    H140451   4.953   2.095  16.509 -1.3480 -1.5877 -0.3729
 6320TIP3    H240452   4.936   2.006  16.631  0.2412  0.6718  1.5968
 6321TIP3   OH240453   6.221   0.194  13.777  0.4930  0.0961 -0.2289
 6321TIP3    H140454   6.260   0.107  13.765  2.1593  0.3956  2.1773
 6321TIP3    H240455   6.223   0.208  13.872  0.5494  2.8621 -0.5467
 6322TIP3   OH240456   0.688   6.725  16.264  0.0806 -0.0484 -0.1756
 6322TIP3    H140457   0.714   6.809  16.300 -0.2072 -0.8705  2.1422
 6322TIP3    H240458   0.766   6.670  16.273  0.1235 -0.1721 -1.2260
 6323TIP3   OH240459   2.065   5.995  14.166 -0.1100  0.2208  0.4490
 6323TIP3    H140460   2.145   6.041  14.189  0.2283  1.0612 -2.0195
 6323TIP3    H240461   2.026   6.049  14.096 -0.9972 -1.9585 -0.8440
 6324TIP3   OH240462   6.645   0.710   0.796  0.0575 -0.5097  0.1691
 6324TIP3    H140463   6.566   0.759   0.773  0.0114 -0.8801 -0.4981
 6324TIP3    H240464   6.692   0.767   0.857 -1.4254 -0.8871  1.7425
 6325TIP3   OH240465   6.281   1.173   1.301 -0.4975 -0.0489  0.3064
 6325TIP3    H140466   6.305   1.245   1.360  0.2723 -0.0682  0.0305
 6325TIP3    H240467   6.293   1.094   1.354 -1.6661  0.0290  0.7151
 6326TIP3   OH240468   4.325   1.065   0.755 -0.4011 -0.0693 -0.2081
 6326TIP3    H140469   4.255   1.124   0.725  0.3820  0.1871 -1.6031
 6326TIP3    H240470   4.354   1.020   0.675 -1.6042 -3.1183  0.8960
 6327TIP3   OH240471   1.200   0.929   3.858  0.6474 -0.2500 -0.1370
 6327TIP3    H140472   1.126   0.938   3.798  0.0089  1.6122  0.8160
 6327TIP3    H240473   1.175   0.857   3.916  0.6371 -1.1382 -1.2278
 6328TIP3   OH240474   4.100   4.832  12.951 -0.2698 -0.1490  0.4423
 6328TIP3    H140475   4.032   4.850  13.015 -1.1292 -2.2215  0.1863
 6328TIP3    H240476   4.055   4.787  12.880  0.6201  2.1714 -1.7745
 6329TIP3   OH240477   3.279   2.251   5.749 -0.6496  0.3088  0.2707
 6329TIP3    H140478   3.296   2.289   5.835 -0.0171 -1.2363  0.8714
 6329TIP3    H240479   3.328   2.168   5.750 -1.5228 -0.2511 -1.1556
 6330TIP3   OH240480   6.617   3.459  13.188  0.6336 -0.4653  0.4670
 6330TIP3    H140481   6.599   3.507  13.108 -1.0000 -0.7696  0.6284
 6330TIP3    H240482   6.567   3.505  13.256 -0.2239 -1.8218  0.7902
 6331TIP3   OH240483   6.269   4.733  16.188 -0.1791 -0.0238 -0.3228
 6331TIP3    H140484   6.341   4.728  16.251  0.1436 -0.2407 -0.7084
 6331TIP3    H240485   6.308   4.708  16.105 -0.8348 -0.7461 -0.4204
 6332TIP3   OH240486   3.640   0.720  16.640 -0.4310 -0.2510  0.2829
 6332TIP3    H140487   3.679   0.708  16.726  1.0513 -1.8304 -0.5355
 6332TIP3    H240488   3.704   0.773  16.592  0.6023 -2.4467 -0.9207
 6333TIP3   OH240489   1.034   1.606  16.650  0.3037 -0.8423 -0.0067
 6333TIP3    H140490   1.072   1.523  16.621  1.4269 -1.0956  2.0017
 6333TIP3    H240491   1.108   1.666  16.657 -0.3104 -0.0353 -0.1690
 6334TIP3   OH240492   5.087   0.788  11.568  0.2750  0.1843 -0.1287
 6334TIP3    H140493   5.174   0.802  11.531  0.8895  0.0226  1.1989
 6334TIP3    H240494   5.043   0.872  11.560  1.0713  0.6707  0.4803
 6335TIP3   OH240495   3.797   6.041   2.547 -0.4464  0.3246  0.6656
 6335TIP3    H140496   3.831   6.054   2.459 -0.5458  0.5823  0.6658
 6335TIP3    H240497   3.784   6.129   2.581 -0.3497  0.2269  0.9605
 6336TIP3   OH240498   1.014   5.029  11.348 -0.5086  0.2319 -0.4211
 6336TIP3    H140499   0.967   4.992  11.423 -0.5696  0.8885 -0.1359
 6336TIP3    H240500   0.973   4.987  11.272 -1.1783  0.3693 -0.1478
 6337TIP3   OH240501   5.067   5.762   0.430 -0.4022  0.1732  0.3077
 6337TIP3    H140502   5.015   5.716   0.496  1.2001 -1.1585  0.7033
 6337TIP3    H240503   5.020   5.844   0.415 -2.0734 -0.5463  1.3358
 6338TIP3   OH240504   0.728   2.294   5.066  0.6996 -0.1981  0.2060
 6338TIP3    H140505   0.751   2.386   5.081 -0.1820  0.1194 -0.3174
 6338TIP3    H240506   0.746   2.279   4.974 -0.1330 -0.2417  0.0361
 6339TIP3   OH240507   1.162   4.295   4.880  0.1606 -0.5357 -0.4946
 6339TIP3    H140508   1.111   4.300   4.961  0.2989  1.6019 -0.4928
 6339TIP3    H240509   1.110   4.238   4.823  0.4137 -2.6935  1.2843
 6340TIP3   OH240510   6.104   4.321   1.173  0.1491 -0.3309  0.2497
 6340TIP3    H140511   6.038   4.326   1.104 -0.0068 -1.4137  0.2907
 6340TIP3    H240512   6.060   4.357   1.250  0.2286  0.6182 -0.1357
 6341TIP3   OH240513   2.414   2.786  16.714  0.2951 -0.9656 -0.1511
 6341TIP3    H140514   2.418   2.713  16.776  1.6520 -2.5573 -1.9943
 6341TIP3    H240515   2.491   2.774  16.658 -0.4877  0.8208 -1.7084
 6342TIP3   OH240516   6.296   3.478  17.044 -0.1252  0.0219 -0.0065
 6342TIP3    H140517   6.265   3.393  17.013  1.9803 -0.5993 -0.5810
 6342TIP3    H240518   6.252   3.541  16.988 -1.7836 -0.6605  0.4877
 6343TIP3   OH240519   5.581   2.621  15.584  0.0118  0.1659  0.0754
 6343TIP3    H140520   5.640   2.559  15.627 -0.2769  0.1413  0.4322
 6343TIP3    H240521   5.640   2.676  15.531  0.5535  1.1897  1.6704
 6344TIP3   OH240522   3.343   4.404  16.562 -0.4349 -0.3011  0.0670
 6344TIP3    H140523   3.331   4.401  16.657 -0.4518 -1.5786  0.0518
 6344TIP3    H240524   3.412   4.468  16.548  0.1083 -0.6501  1.0120
 6345TIP3   OH240525   3.929   0.915  13.748 -0.1343 -0.6112  0.5295
 6345TIP3    H140526   3.921   1.004  13.715 -2.3210 -0.7574  0.5406
 6345TIP3    H240527   3.909   0.921  13.841  0.8198 -0.9810  0.7780
 6346TIP3   OH240528   0.887   5.995   5.110 -0.2742 -0.2857  0.1561
 6346TIP3    H140529   0.883   5.901   5.127  0.0749 -0.7224 -1.8742
 6346TIP3    H240530   0.856   6.004   5.020  0.7385  1.4067 -0.0632
 6347TIP3   OH240531   3.541   0.411   4.911  0.2169 -0.2399  0.3381
 6347TIP3    H140532   3.466   0.391   4.968 -0.6024 -0.2157 -0.7102
 6347TIP3    H240533   3.507   0.474   4.848  1.3092  0.2769  0.2406
 6348TIP3   OH240534   1.458   6.157   5.318  0.8172  0.7330  1.0328
 6348TIP3    H140535   1.415   6.212   5.252  0.8277  0.0196  0.4274
 6348TIP3    H240536   1.422   6.188   5.401 -0.9380  0.1169  0.5436
 6349TIP3   OH240537   6.597   5.449   0.903 -0.2310  0.7130 -0.3140
 6349TIP3    H140538   6.619   5.460   0.996  2.4743 -0.0532 -0.7595
 6349TIP3    H240539   6.502   5.438   0.902 -0.2784  0.0017  2.4485
 6350TIP3   OH240540   6.399   3.080  12.842 -0.7047 -0.0248  0.2211
 6350TIP3    H140541   6.468   3.096  12.907 -0.7363  1.0648  0.0032
 6350TIP3    H240542   6.319   3.110  12.885 -0.5915  1.6373 -0.6490
 6351TIP3   OH240543   3.442   3.030  14.443  0.1618 -0.6063 -0.0480
 6351TIP3    H140544   3.364   3.005  14.491 -0.0996 -3.7520 -1.8384
 6351TIP3    H240545   3.410   3.084  14.371 -0.0955 -0.2208  0.3548
 6352TIP3   OH240546   5.645   2.655  14.525  0.2308  0.1202 -0.7312
 6352TIP3    H140547   5.713   2.648  14.457  2.4570  0.4339  1.3248
 6352TIP3    H240548   5.603   2.569  14.526  1.8351 -0.7026 -0.8826
 6353TIP3   OH240549   0.650   2.588   3.334 -0.1180  0.6138 -0.0703
 6353TIP3    H140550   0.642   2.528   3.260 -1.8274 -0.3636  0.8451
 6353TIP3    H240551   0.716   2.547   3.391  0.4602  0.8539 -0.5538
 6354TIP3   OH240552   6.451   6.527   2.283 -0.0173 -0.8324 -0.2133
 6354TIP3    H140553   6.382   6.532   2.217  0.0633 -0.1036 -0.2592
 6354TIP3    H240554   6.404   6.520   2.366 -0.1112 -2.4572 -0.3756
 6355TIP3   OH240555   3.535   1.470   5.137  0.5773 -0.1581 -0.3718
 6355TIP3    H140556   3.504   1.540   5.080 -0.3183  0.4798  0.8497
 6355TIP3    H240557   3.581   1.410   5.078  1.5321  1.5228 -1.4207
 6356TIP3   OH240558   1.497   6.206   4.462 -0.5743  0.0603  0.3050
 6356TIP3    H140559   1.592   6.190   4.462 -0.8610 -1.9059  0.0473
 6356TIP3    H240560   1.489   6.301   4.468  1.4377  0.4438 -1.5981
 6357TIP3   OH240561   1.361   2.887   5.226 -0.4850 -0.0147  0.8115
 6357TIP3    H140562   1.315   2.946   5.165  0.6375 -0.1524 -0.2043
 6357TIP3    H240563   1.363   2.935   5.309 -0.0075  1.1943  0.1333
 6358TIP3   OH240564   3.850   1.436  13.338 -0.2951  0.1843 -0.4755
 6358TIP3    H140565   3.930   1.476  13.305 -0.8783  0.9005 -1.0481
 6358TIP3    H240566   3.859   1.439  13.434 -0.2280  1.4611 -0.5142
 6359TIP3   OH240567   4.307   3.213  13.504 -0.0393 -0.0274  0.7301
 6359TIP3    H140568   4.230   3.183  13.554 -0.5057 -0.6208 -0.3148
 6359TIP3    H240569   4.316   3.149  13.434  0.9082  0.5178  0.3461
 6360TIP3   OH240570   2.114   1.978  15.861 -0.6155 -0.1872 -0.6790
 6360TIP3    H140571   2.026   2.011  15.842 -0.3791  0.0026 -1.4577
 6360TIP3    H240572   2.164   2.055  15.887 -0.6174 -0.2606 -0.4543
 6361TIP3   OH240573   1.189   3.954  12.928 -0.6141 -0.1639 -0.5007
 6361TIP3    H140574   1.122   3.948  12.860 -0.3595  1.3347 -0.9041
 6361TIP3    H240575   1.190   3.866  12.968 -2.0813 -0.5144 -1.1640
 6362TIP3   OH240576   1.719   4.520  10.802  0.0116  0.1701  0.4316
 6362TIP3    H140577   1.711   4.601  10.752  0.7969 -1.3094 -2.2745
 6362TIP3    H240578   1.630   4.485  10.806  0.0394 -0.0740 -0.6891
 6363TIP3   OH240579   5.871   1.952   4.379  0.3311 -0.0846  0.0250
 6363TIP3    H140580   5.963   1.975   4.365  0.1184  0.0528 -1.2958
 6363TIP3    H240581   5.826   1.988   4.303 -0.6127 -1.4174 -0.0773
 6364TIP3   OH240582   1.531   4.334  15.656 -0.0463  0.1006 -0.1208
 6364TIP3    H140583   1.460   4.274  15.680 -0.9164  1.4977  0.8977
 6364TIP3    H240584   1.488   4.403  15.605  0.1490  2.0402  2.1809
 6365TIP3   OH240585   5.123   1.585  13.883 -0.2702 -0.3656  0.1880
 6365TIP3    H140586   5.094   1.661  13.832 -0.1361 -0.1259  0.4706
 6365TIP3    H240587   5.144   1.519  13.817  2.7642  0.8949 -0.2562
 6366TIP3   OH240588   2.108   4.069   5.203 -0.0706  0.1624 -0.5674
 6366TIP3    H140589   2.109   4.127   5.127  0.5195 -0.2772 -0.9049
 6366TIP3    H240590   2.140   3.985   5.170  2.5682  0.5767  0.6194
 6367TIP3   OH240591   5.216   5.550   1.274  0.2912  0.3884 -0.4160
 6367TIP3    H140592   5.263   5.554   1.358  0.5202  0.3786 -0.5420
 6367TIP3    H240593   5.163   5.471   1.280  0.4432  0.2894 -0.3492
 6368TIP3   OH240594   1.838   5.367  14.519 -0.4421 -0.0054  0.0687
 6368TIP3    H140595   1.899   5.420  14.571 -0.1029  1.0682 -1.3660
 6368TIP3    H240596   1.762   5.355  14.576  0.2088  0.5193  1.0810
 6369TIP3   OH240597   5.742   5.392   5.111  0.1737 -0.2006 -0.0140
 6369TIP3    H140598   5.760   5.477   5.152  0.3653  0.3355 -1.1783
 6369TIP3    H240599   5.648   5.395   5.091  0.2446 -0.1257 -0.3458
 6370TIP3   OH240600   3.244   5.832  10.922  0.4507  0.0486  0.0321
 6370TIP3    H140601   3.297   5.757  10.950  1.8144  1.7815  2.4967
 6370TIP3    H240602   3.306   5.888  10.875  0.3970  1.2439  1.3312
 6371TIP3   OH240603   4.356   5.923   5.900 -0.5747  0.6127  0.0816
 6371TIP3    H140604   4.388   5.918   5.991 -0.8193  1.2168  0.2053
 6371TIP3    H240605   4.353   5.832   5.871 -0.8070  0.3877  0.7893
 6372TIP3   OH240606   6.633   4.214  15.990 -0.6008  0.0062  0.1957
 6372TIP3    H140607   6.610   4.168  16.071 -2.9043  2.0299  0.8413
 6372TIP3    H240608   6.667   4.299  16.019 -0.2809  0.2928 -0.9480
 6373TIP3   OH240609   3.064   1.997   3.281 -0.0775 -0.0182 -0.1191
 6373TIP3    H140610   2.973   2.002   3.251  0.1373 -0.7289 -0.9299
 6373TIP3    H240611   3.116   2.018   3.203  0.4835 -1.3578 -0.1237
 6374TIP3   OH240612   4.268   0.238  15.933 -0.1205  0.2147  0.0741
 6374TIP3    H140613   4.341   0.187  15.898 -1.2060 -0.4317 -1.3636
 6374TIP3    H240614   4.247   0.301  15.864  0.0835  1.4807  1.1219
 6375TIP3   OH240615   6.508   1.756   4.602  0.2323 -0.0212  0.9671
 6375TIP3    H140616   6.500   1.666   4.570 -2.9524  0.4132  0.2026
 6375TIP3    H240617   6.549   1.748   4.688  0.5951 -2.1280  0.6492
 6376TIP3   OH240618   3.774   4.028  17.220  0.2609 -0.3620 -0.5594
 6376TIP3    H140619   3.728   4.111  17.209 -0.6431 -0.5261  1.6510
 6376TIP3    H240620   3.705   3.963  17.233  1.0140 -1.0481  0.1351
 6377TIP3   OH240621   1.349   5.386   4.041 -0.1483  0.3212  0.1499
 6377TIP3    H140622   1.389   5.472   4.051  1.7804 -0.6471  1.4580
 6377TIP3    H240623   1.263   5.394   4.082 -0.5713  1.9547 -0.9847
 6378TIP3   OH240624   2.477   5.485  16.655 -0.4124 -0.5893 -0.0066
 6378TIP3    H140625   2.561   5.441  16.645 -0.8609 -1.6313  0.6659
 6378TIP3    H240626   2.412   5.418  16.635 -1.0878  0.1975 -0.5004
 6379TIP3   OH240627   6.673   2.942  14.991 -0.0699 -0.2733  0.1689
 6379TIP3    H140628   6.759   2.909  15.018 -0.1106 -0.4632  0.0686
 6379TIP3    H240629   6.688   2.975  14.902 -0.2635 -0.9638 -0.1226
 6380TIP3   OH240630   6.291   4.125   2.133 -0.4327  0.3632 -0.4625
 6380TIP3    H140631   6.244   4.078   2.064  0.0944 -0.3573 -0.3373
 6380TIP3    H240632   6.225   4.142   2.199 -0.8789  0.7980 -1.0084
 6381TIP3   OH240633   3.000   4.186   5.554 -0.3817  0.2445  0.5627
 6381TIP3    H140634   2.916   4.173   5.510 -0.0673 -0.4028  0.1481
 6381TIP3    H240635   3.036   4.098   5.564  0.0358  0.4763  1.1691
 6382TIP3   OH240636   2.782   1.361   3.143 -0.2318 -0.2740 -0.4244
 6382TIP3    H140637   2.839   1.437   3.130 -0.4205 -0.0088  0.3024
 6382TIP3    H240638   2.787   1.343   3.237 -0.7308 -0.7366 -0.4871
 6383TIP3   OH240639   5.846   2.419   1.142  0.4597  0.1327 -0.3035
 6383TIP3    H140640   5.777   2.468   1.097 -0.0102 -0.5921 -0.3767
 6383TIP3    H240641   5.927   2.450   1.101  0.2826  1.7606  0.4918
 6384TIP3   OH240642   4.945   6.617   5.273 -0.3492 -0.0910 -0.3153
 6384TIP3    H140643   5.004   6.552   5.234  1.3533  0.4395  1.2485
 6384TIP3    H240644   4.947   6.690   5.211 -1.3533 -1.0190 -1.4990
 6385TIP3   OH240645   5.790   2.965  11.142  0.2490  0.3691 -0.3123
 6385TIP3    H140646   5.875   2.924  11.126  0.1374 -1.1714  2.4424
 6385TIP3    H240647   5.727   2.907  11.100  0.3612 -0.3000  0.4199
 6386TIP3   OH240648   2.355   4.670   0.967 -0.1115  0.1424 -0.1593
 6386TIP3    H140649   2.336   4.760   0.940 -2.9256 -0.8398 -1.8567
 6386TIP3    H240650   2.442   4.675   1.008 -1.4820  4.1967  2.9661
 6387TIP3   OH240651   2.535   3.749  10.909  0.2591 -0.3768  0.2200
 6387TIP3    H140652   2.501   3.785  10.827 -0.9634 -0.4425  0.6919
 6387TIP3    H240653   2.630   3.751  10.897  0.1128 -0.1822 -1.1108
 6388TIP3   OH240654   3.327   1.067  13.435 -0.1456  0.4169 -0.1926
 6388TIP3    H140655   3.258   1.094  13.375 -0.1352  2.1000  0.5056
 6388TIP3    H240656   3.290   1.078  13.522  0.3122 -0.6669  0.1650
 6389TIP3   OH240657   4.962   1.266   1.005 -0.2106 -0.1326 -0.4369
 6389TIP3    H140658   4.920   1.346   1.035 -0.4438 -0.6997  0.8106
 6389TIP3    H240659   4.906   1.234   0.934  0.0138  0.9062 -1.1104
 6390TIP3   OH240660   0.002   0.607   2.319 -0.4666 -0.2212 -0.4261
 6390TIP3    H140661  -0.087   0.641   2.323 -1.6744 -3.1196 -1.0163
 6390TIP3    H240662  -0.007   0.513   2.327  2.5247 -0.6544 -0.9962
 6391TIP3   OH240663   2.328   1.493  14.833 -0.7148 -0.4273 -0.3736
 6391TIP3    H140664   2.411   1.499  14.880  0.9842  1.5850 -3.2647
 6391TIP3    H240665   2.277   1.569  14.863 -0.8331 -0.7288  0.2008
 6392TIP3   OH240666   2.302   4.504  11.796  0.6814  0.3498 -0.3820
 6392TIP3    H140667   2.329   4.454  11.873 -0.1521  0.0854 -0.2452
 6392TIP3    H240668   2.248   4.575  11.831 -0.9969 -0.6667 -0.8019
 6393TIP3   OH240669   4.744   3.164   0.844  0.5947  0.0145 -0.2240
 6393TIP3    H140670   4.666   3.128   0.885  1.1851 -1.0787 -0.0416
 6393TIP3    H240671   4.807   3.093   0.844  1.1380  0.4557 -1.6149
 6394TIP3   OH240672   2.949   5.543  16.030 -0.1095  0.5377 -0.0495
 6394TIP3    H140673   2.978   5.492  16.107 -1.2908 -1.6405 -0.9552
 6394TIP3    H240674   2.858   5.517  16.017 -0.7271  2.8264 -0.7079
 6395TIP3   OH240675   6.134   5.438  14.133  0.0870  0.1634  0.3239
 6395TIP3    H140676   6.041   5.460  14.145 -1.0809 -3.5590 -0.3951
 6395TIP3    H240677   6.156   5.385  14.209  0.7242 -1.3295 -0.8545
 6396TIP3   OH240678   0.716   6.236  11.762 -0.1354 -0.2092  0.6947
 6396TIP3    H140679   0.696   6.184  11.839  1.0738 -0.3511  0.9379
 6396TIP3    H240680   0.763   6.176  11.704 -0.3737  0.1030  0.1690
 6397TIP3   OH240681   0.611   5.661   4.285  0.1901 -0.3956 -0.0788
 6397TIP3    H140682   0.627   5.690   4.196 -0.6499 -0.2724 -0.1993
 6397TIP3    H240683   0.588   5.741   4.332  1.1518 -0.3723  0.3869
 6398TIP3   OH240684   4.075   3.727  16.366 -0.2452  0.7744 -0.2812
 6398TIP3    H140685   4.160   3.766  16.385 -0.0357 -0.0251  0.4818
 6398TIP3    H240686   4.047   3.687  16.449  0.1663 -1.8179 -1.2822
 6399TIP3   OH240687   5.452   2.451   0.937  0.2271 -0.0875 -0.1782
 6399TIP3    H140688   5.426   2.519   0.999 -1.2765 -0.1632 -0.6978
 6399TIP3    H240689   5.444   2.369   0.986 -1.0972 -0.1596 -0.4861
 6400TIP3   OH240690   1.343   5.525  14.374 -0.0303 -0.1718  0.1644
 6400TIP3    H140691   1.270   5.577  14.408 -0.8555 -0.3253 -1.3012
 6400TIP3    H240692   1.315   5.434  14.387 -0.5571 -0.2368 -1.2617
 6401TIP3   OH240693   3.488   3.755  12.728 -0.1177 -0.4978 -0.1142
 6401TIP3    H140694   3.503   3.724  12.639 -0.1647 -2.9027  0.6465
 6401TIP3    H240695   3.560   3.815  12.746 -0.4392  0.4995 -1.9351
 6402TIP3   OH240696   5.321   0.331  10.823 -0.0640  0.1676 -0.4682
 6402TIP3    H140697   5.312   0.418  10.862 -2.3225  0.9074 -2.3489
 6402TIP3    H240698   5.412   0.327  10.792  0.8968  0.6880  2.0838
 6403TIP3   OH240699   1.647   0.512   3.462  0.3531  0.0102 -0.0933
 6403TIP3    H140700   1.680   0.544   3.378 -0.5243  0.6806 -0.1890
 6403TIP3    H240701   1.562   0.475   3.442 -0.0532  0.5704  0.5660
 6404TIP3   OH240702   4.581   5.734  14.184  0.0080 -0.3644 -0.5569
 6404TIP3    H140703   4.581   5.830  14.183  1.6324 -0.2845 -3.4872
 6404TIP3    H240704   4.550   5.709  14.097 -0.9535 -2.5477  0.3543
 6405TIP3   OH240705   6.746   3.888   3.935  0.1737 -0.5777  0.8431
 6405TIP3    H140706   6.812   3.943   3.894 -0.0998  0.5080  1.8201
 6405TIP3    H240707   6.713   3.833   3.864  1.8552 -0.8987  0.2647
 6406TIP3   OH240708   1.031   3.036  11.371  0.5041  0.4124  0.2603
 6406TIP3    H140709   0.981   2.967  11.414  0.2885  0.6834  0.4484
 6406TIP3    H240710   0.978   3.115  11.383  0.5151  0.5185 -0.3677
 6407TIP3   OH240711   6.799   6.307  13.402  0.5760  0.0183 -0.2668
 6407TIP3    H140712   6.858   6.302  13.477  1.5564  1.5756 -0.8896
 6407TIP3    H240713   6.848   6.357  13.336 -1.9684  2.8973 -0.2276
 6408TIP3   OH240714   2.232   1.588  12.388  0.1354  0.6561 -0.1626
 6408TIP3    H140715   2.154   1.619  12.435  0.8008  1.3422  0.5355
 6408TIP3    H240716   2.302   1.593  12.454  0.9034  0.7372 -0.9752
 6409TIP3   OH240717   2.780   5.135   2.323  0.2941 -0.2177 -0.1504
 6409TIP3    H140718   2.720   5.187   2.270  0.7883 -0.1194 -0.6213
 6409TIP3    H240719   2.835   5.089   2.260  2.5303  1.7888  0.2022
 6410TIP3   OH240720   6.216   0.444  12.244 -0.3767 -0.3623 -0.0592
 6410TIP3    H140721   6.299   0.434  12.196 -0.0662  0.6812  0.2320
 6410TIP3    H240722   6.243   0.469  12.332 -0.9941 -0.4641  0.1571
 6411TIP3   OH240723   5.488   1.482  13.119  0.4889  0.2186  0.0539
 6411TIP3    H140724   5.450   1.478  13.031  1.5056 -1.0354 -0.3624
 6411TIP3    H240725   5.575   1.521  13.105  0.5230  0.3269  0.5561
 6412TIP3   OH240726   5.942   4.824   3.724  0.2079  0.2541 -0.3036
 6412TIP3    H140727   6.030   4.821   3.686  0.3805 -2.4592  0.1058
 6412TIP3    H240728   5.927   4.735   3.756 -3.6467 -0.0986 -2.5499
 6413TIP3   OH240729   0.134   4.286   4.880 -0.0366 -0.4371  0.0650
 6413TIP3    H140730   0.097   4.276   4.793 -2.7094  1.0543  0.9257
 6413TIP3    H240731   0.123   4.200   4.921 -1.8384 -0.2782 -0.0176
 6414TIP3   OH240732   4.618   4.466   0.360 -0.4627  0.0383 -0.3561
 6414TIP3    H140733   4.607   4.561   0.349  0.2482  0.1291 -0.3663
 6414TIP3    H240734   4.702   4.447   0.318 -0.2283 -0.4691  0.3237
 6415TIP3   OH240735   2.672   3.633   5.126 -0.2350  0.0694  0.1124
 6415TIP3    H140736   2.666   3.727   5.140  0.1444 -0.1307  1.8328
 6415TIP3    H240737   2.739   3.623   5.058 -2.9405  1.1576 -2.9909
 6416TIP3   OH240738   5.219   6.754   0.115  0.0561  0.0159 -0.2888
 6416TIP3    H140739   5.254   6.799   0.192 -1.1036  2.5411 -1.1365
 6416TIP3    H240740   5.253   6.803   0.041 -0.2740 -1.2967 -1.3352
 6417TIP3   OH240741   5.410   4.972  13.273  0.6080  0.2766  0.6249
 6417TIP3    H140742   5.425   4.951  13.365  1.8969 -1.1158  0.1347
 6417TIP3    H240743   5.315   4.984  13.266  0.1843 -1.9765  1.6865
 6418TIP3   OH240744   0.082   1.199  14.517  0.0131  0.3559  0.4489
 6418TIP3    H140745   0.123   1.206  14.603  0.2124 -0.4337  0.4241
 6418TIP3    H240746   0.153   1.217  14.455 -0.4122  2.2419  0.4492
 6419TIP3   OH240747   3.897   5.375   5.062  0.2323  0.4082 -0.7281
 6419TIP3    H140748   3.902   5.363   5.157  1.0233  0.1690 -0.7952
 6419TIP3    H240749   3.873   5.289   5.028 -1.2456  0.7672 -0.6695
 6420TIP3   OH240750   2.222   5.128  15.464  0.1552  0.6016 -0.1630
 6420TIP3    H140751   2.309   5.095  15.486 -0.6601 -1.4389  0.1895
 6420TIP3    H240752   2.206   5.198  15.527  0.8355 -0.2026  0.9342
 6421TIP3   OH240753   3.525   4.001  12.482  0.3383  0.2038 -0.1311
 6421TIP3    H140754   3.443   4.018  12.528  0.8798  1.4229  0.4080
 6421TIP3    H240755   3.522   3.907  12.462 -0.3234 -0.1606  1.5569
 6422TIP3   OH240756   1.537   1.334  12.477  0.0717 -0.1065 -0.1001
 6422TIP3    H140757   1.456   1.300  12.514  0.9397 -2.3921 -0.1107
 6422TIP3    H240758   1.520   1.338  12.383  0.3986 -2.0764 -0.2903
 6423TIP3   OH240759   4.463   0.733  11.475  0.3843  0.3400 -0.3975
 6423TIP3    H140760   4.442   0.661  11.416 -0.8151  0.5968 -0.3215
 6423TIP3    H240761   4.542   0.772  11.438  0.3205 -0.2286 -1.1600
 6424TIP3   OH240762   0.417   4.768   0.177 -0.4168  0.0370 -0.2085
 6424TIP3    H140763   0.417   4.798   0.268  0.1394 -0.8903  0.0965
 6424TIP3    H240764   0.509   4.751   0.157 -0.6379 -0.6646 -0.6448
 6425TIP3   OH240765   0.827   1.945   4.849  0.2499  0.1809  0.1149
 6425TIP3    H140766   0.909   1.988   4.877  0.4866 -0.0446 -0.2281
 6425TIP3    H240767   0.852   1.893   4.773 -0.3704  0.7105 -0.4630
 6426TIP3   OH240768   0.045   3.710  14.038 -0.0363 -0.2114 -0.3459
 6426TIP3    H140769  -0.020   3.681  14.101 -0.3385 -0.4534 -0.7626
 6426TIP3    H240770   0.073   3.796  14.069  0.7594 -0.8752  0.8202
 6427TIP3   OH240771   4.432   4.479   5.384  0.6546  0.1367  0.3759
 6427TIP3    H140772   4.478   4.563   5.383  1.8791 -0.4913  0.9919
 6427TIP3    H240773   4.348   4.497   5.427 -0.0603  1.4716 -1.4810
 6428TIP3   OH240774   4.200   1.489   3.044 -0.2161 -0.5205  0.4524
 6428TIP3    H140775   4.224   1.416   2.987 -2.2204 -0.1072 -1.0183
 6428TIP3    H240776   4.186   1.563   2.985  2.1328  1.2565  1.9298
 6429TIP3   OH240777   3.812   3.080   6.747 -0.0493  0.4033 -0.5854
 6429TIP3    H140778   3.754   3.144   6.788 -0.6597  0.3485 -1.3433
 6429TIP3    H240779   3.765   2.997   6.752  0.1255  0.2824 -0.8648
 6430TIP3   OH240780   0.933   0.436   2.032  0.2150  0.3378  0.2972
 6430TIP3    H140781   0.998   0.415   1.964 -1.8580  0.3247 -1.8026
 6430TIP3    H240782   0.875   0.499   1.991 -1.1128  0.3530  2.0988
 6431TIP3   OH240783   1.683   6.578   5.562 -0.5189 -0.4514  0.0760
 6431TIP3    H140784   1.675   6.497   5.612 -0.4657 -1.7188 -1.8515
 6431TIP3    H240785   1.748   6.557   5.494  0.0088  1.4421 -0.0650
 6432TIP3   OH240786   1.264   4.696  15.047 -0.2715 -0.1236 -0.1971
 6432TIP3    H140787   1.322   4.745  14.988 -1.1050 -0.7497 -1.5841
 6432TIP3    H240788   1.219   4.764  15.098  0.0222  0.4645 -0.7101
 6433TIP3   OH240789   1.970   1.363   0.390  0.0735  0.7700  0.4233
 6433TIP3    H140790   1.931   1.414   0.319 -1.1870 -0.4291  0.2164
 6433TIP3    H240791   2.061   1.395   0.395  0.4772  0.2914 -2.3160
 6434TIP3   OH240792   5.982   1.705   1.539  0.1856 -0.4378  1.3884
 6434TIP3    H140793   5.915   1.665   1.595 -0.9234 -3.5521 -1.7826
 6434TIP3    H240794   6.062   1.700   1.591 -0.5424 -4.1717  2.5086
 6435TIP3   OH240795   6.713   1.044  16.238 -0.4978  0.3701 -0.5028
 6435TIP3    H140796   6.678   1.057  16.150  0.1039 -1.0164 -0.9703
 6435TIP3    H240797   6.792   1.097  16.241  0.4238 -0.8911 -1.4221
 6436TIP3   OH240798   3.099   6.561  15.802 -0.5725  0.0561 -0.4648
 6436TIP3    H140799   3.159   6.488  15.786  0.1231  0.6402 -0.5692
 6436TIP3    H240800   3.150   6.622  15.856 -1.3748  0.1588  0.1982
 6437TIP3   OH240801   4.725   4.499  15.670 -0.1795 -0.6912 -0.0536
 6437TIP3    H140802   4.645   4.480  15.718  0.8213 -0.4695  1.7967
 6437TIP3    H240803   4.715   4.454  15.587 -3.6818  2.0249 -1.3539
 6438TIP3   OH240804   1.612   5.561   2.887 -0.1944  0.3378 -0.4282
 6438TIP3    H140805   1.687   5.618   2.868  1.4797 -1.7624 -0.5256
 6438TIP3    H240806   1.553   5.616   2.939  0.4103  2.7087 -2.0673
 6439TIP3   OH240807   0.056   3.974  12.818 -0.2863  0.4302  0.3069
 6439TIP3    H140808  -0.018   3.923  12.851  0.7387 -0.3141  1.5544
 6439TIP3    H240809   0.095   3.920  12.750  0.2825 -0.1020  1.0348
 6440TIP3   OH240810   4.769   2.100  12.222  0.5498  0.1774 -0.2387
 6440TIP3    H140811   4.736   2.146  12.300  1.8667 -2.2736  1.9309
 6440TIP3    H240812   4.690   2.076  12.173 -0.2090  4.3127 -1.4065
 6441TIP3   OH240813   0.833   4.319   1.302 -0.1625  0.2903  0.1904
 6441TIP3    H140814   0.910   4.301   1.357  0.2704 -3.4414 -1.2795
 6441TIP3    H240815   0.759   4.294   1.357  0.0442 -0.4969  0.1254
 6442TIP3   OH240816   3.926   1.764  12.561 -0.0727  0.1474 -0.6419
 6442TIP3    H140817   3.943   1.671  12.577 -1.7299 -0.0424  0.1980
 6442TIP3    H240818   4.013   1.805  12.568  0.3619 -0.9848  1.7041
 6443TIP3   OH240819   0.072   4.885   1.045 -0.0403 -0.1257 -0.0746
 6443TIP3    H140820   0.156   4.890   0.998  1.0586  0.7401  1.8525
 6443TIP3    H240821   0.043   4.976   1.052 -1.6573 -0.4717 -1.4694
 6444TIP3   OH240822   6.680   5.473   4.827 -0.5360 -0.5903  0.1386
 6444TIP3    H140823   6.738   5.406   4.792 -1.0249 -1.1950  0.4656
 6444TIP3    H240824   6.722   5.556   4.804 -0.5488 -0.9727 -1.3584
 6445TIP3   OH240825   6.758   2.529  10.516  0.5038 -0.5683  0.1486
 6445TIP3    H140826   6.815   2.510  10.591 -0.0777  0.3340  0.8330
 6445TIP3    H240827   6.695   2.592  10.549 -1.5861 -2.3013 -0.2968
 6446TIP3   OH240828   2.252   5.905   0.882 -0.2087  0.3049  0.0138
 6446TIP3    H140829   2.297   5.988   0.901  2.0241 -1.4055  3.0217
 6446TIP3    H240830   2.245   5.903   0.787  1.4823  3.0009 -0.2824
 6447TIP3   OH240831   0.700   3.890  11.943 -0.2801  0.3601  0.1246
 6447TIP3    H140832   0.619   3.867  11.898 -0.5440 -0.1065  0.8166
 6447TIP3    H240833   0.767   3.885  11.876 -0.8350  0.8378 -0.4811
 6448TIP3   OH240834   6.706   3.493  15.895 -0.0911 -0.4212 -0.0779
 6448TIP3    H140835   6.780   3.545  15.862  0.3502  0.3639  1.9496
 6448TIP3    H240836   6.698   3.421  15.834  0.7740  0.8020 -1.7239
 6449TIP3   OH240837   5.865   1.484   4.440 -0.2864  0.2504 -0.1347
 6449TIP3    H140838   5.930   1.507   4.507 -0.7483  0.9290  0.0879
 6449TIP3    H240839   5.814   1.413   4.479 -1.1256  1.2444  0.5941
 6450TIP3   OH240840   0.037   3.751  12.285  0.4451 -0.3118  0.1401
 6450TIP3    H140841   0.021   3.684  12.352 -0.1596 -0.1733  0.1451
 6450TIP3    H240842  -0.051   3.775  12.255  0.6215  0.8799  0.5249
 6451TIP3   OH240843   2.642   3.671  15.803  0.4905 -0.3507  0.6416
 6451TIP3    H140844   2.587   3.748  15.785 -0.2194 -0.6238  1.5742
 6451TIP3    H240845   2.595   3.598  15.762  0.6300 -0.4467  0.6520
 6452TIP3   OH240846   0.964   1.850   0.148  0.3465 -0.8894  0.3282
 6452TIP3    H140847   1.035   1.894   0.101 -0.2875 -0.0371  0.1319
 6452TIP3    H240848   0.911   1.810   0.080  0.3305 -1.0502  0.4345
 6453TIP3   OH240849   5.260   5.403  14.716  0.2808  0.6476  0.0157
 6453TIP3    H140850   5.195   5.381  14.783  1.3843 -1.1564  0.5369
 6453TIP3    H240851   5.254   5.498  14.708 -3.2004  0.4943 -0.7642
 6454TIP3   OH240852   6.019   2.449  11.338 -0.7574 -0.1002  0.1978
 6454TIP3    H140853   6.012   2.535  11.296 -2.7955 -0.3703 -0.1069
 6454TIP3    H240854   6.052   2.392  11.269 -0.5873  0.1863  0.0386
 6455TIP3   OH240855   3.118   3.428   3.048 -0.0637  0.2175 -0.1754
 6455TIP3    H140856   3.085   3.400   2.963  0.7905 -0.1787 -0.3937
 6455TIP3    H240857   3.049   3.405   3.110 -0.3260 -0.3051 -0.6543
 6456TIP3   OH240858   2.098   6.496  15.166  0.7436 -0.3839  0.2067
 6456TIP3    H140859   2.022   6.542  15.130  1.3830 -1.0663 -2.2141
 6456TIP3    H240860   2.064   6.452  15.245 -1.3223 -0.4947 -0.6692
 6457TIP3   OH240861   2.934   0.071   2.349  0.0145 -0.6446 -0.0368
 6457TIP3    H140862   2.934  -0.016   2.308  3.5642 -0.4882 -0.7540
 6457TIP3    H240863   3.008   0.069   2.409 -0.3984  1.5931  0.6479
 6458TIP3   OH240864   2.027   3.493  10.334  0.1041 -0.1759  0.2881
 6458TIP3    H140865   2.048   3.407  10.298  1.2091  0.0961  0.2472
 6458TIP3    H240866   1.960   3.476  10.400 -0.2058 -0.9706 -0.2125
 6459TIP3   OH240867   5.628   4.249   1.492  0.4280  0.3756 -0.3818
 6459TIP3    H140868   5.558   4.295   1.538  1.0800 -0.9190  2.0793
 6459TIP3    H240869   5.586   4.172   1.455  0.0210  1.1221 -1.5499
 6460TIP3   OH240870   0.676   4.585   4.441 -0.0417 -0.3948 -0.3043
 6460TIP3    H140871   0.658   4.676   4.465 -0.5776 -0.1020 -1.6944
 6460TIP3    H240872   0.740   4.555   4.505 -0.5576  0.6676  0.7400
 6461TIP3   OH240873   1.130   6.769   2.695 -0.3255 -0.2231 -0.0239
 6461TIP3    H140874   1.051   6.778   2.642 -2.4119 -0.4936  2.7999
 6461TIP3    H240875   1.141   6.674   2.706 -0.7354 -0.1618  1.0633
 6462TIP3   OH240876   6.553   6.375  10.821 -0.8730 -0.3923  0.1278
 6462TIP3    H140877   6.599   6.350  10.741 -0.2072 -1.6126  0.8588
 6462TIP3    H240878   6.481   6.431  10.792 -1.7189 -2.2315 -1.5124
 6463TIP3   OH240879   3.601   2.013  15.589 -0.2476  0.0521  0.0131
 6463TIP3    H140880   3.642   2.064  15.658 -0.0589 -1.5088  1.1098
 6463TIP3    H240881   3.665   2.012  15.518 -0.3823  1.5435 -0.1588
 6464TIP3   OH240882   1.951   5.006  12.439  0.2146  0.3469 -0.5457
 6464TIP3    H140883   1.967   4.915  12.461  2.2003  0.7909  0.0297
 6464TIP3    H240884   1.944   5.051  12.523  1.3667  1.0433 -0.8038
 6465TIP3   OH240885   4.547   5.915  10.827  0.6030 -0.2024  0.2434
 6465TIP3    H140886   4.544   5.865  10.908  0.7467 -1.5069 -0.5326
 6465TIP3    H240887   4.465   5.964  10.826  0.2550 -0.7652  0.8145
 6466TIP3   OH240888   2.957   5.584  12.353  0.2387  0.1225  0.0652
 6466TIP3    H140889   3.049   5.610  12.351  0.9156 -1.9139  1.5501
 6466TIP3    H240890   2.932   5.587  12.445 -0.8167 -0.5382 -0.1751
 6467TIP3   OH240891   0.035   3.675  16.926  0.3943  0.2261  0.0755
 6467TIP3    H140892  -0.058   3.683  16.947  0.4705  1.1599  0.0943
 6467TIP3    H240893   0.075   3.639  17.005 -0.1546 -1.5825 -0.4296
 6468TIP3   OH240894   4.723   4.412  12.774 -0.0069 -0.0649  0.2363
 6468TIP3    H140895   4.788   4.442  12.837 -0.7402  1.5165  0.2826
 6468TIP3    H240896   4.693   4.491  12.730 -1.8185 -0.7548  0.1194
 6469TIP3   OH240897   1.717   4.192  11.217 -0.2633 -0.4638  0.4100
 6469TIP3    H140898   1.708   4.252  11.291 -1.7095  0.4006 -0.4250
 6469TIP3    H240899   1.634   4.144  11.213 -0.7609  0.4378 -1.4065
 6470TIP3   OH240900   4.266   1.436   3.888  0.2304  0.0924 -0.2218
 6470TIP3    H140901   4.297   1.352   3.853  2.3165  1.2373 -1.3745
 6470TIP3    H240902   4.205   1.468   3.821  0.8164  0.2609 -0.6959
 6471TIP3   OH240903   0.847   1.157  15.697 -0.3633  0.8265  0.2412
 6471TIP3    H140904   0.825   1.249  15.683  0.1482  1.2718  2.0917
 6471TIP3    H240905   0.864   1.123  15.609 -0.3736  2.5495 -0.4672
 6472TIP3   OH240906   4.716   0.913   1.813 -0.1881 -0.0627  0.4753
 6472TIP3    H140907   4.717   1.004   1.783  0.0745 -0.3195 -0.3265
 6472TIP3    H240908   4.771   0.914   1.891 -1.2119  0.6985  1.2196
 6473TIP3   OH240909   2.818   4.867  14.733  0.2371 -0.1317  0.1284
 6473TIP3    H140910   2.750   4.863  14.800  0.2885  1.2101  0.2847
 6473TIP3    H240911   2.769   4.871  14.650  0.1755 -2.1092  0.0188
 6474TIP3   OH240912   2.718   5.527  16.340 -0.5081  0.2380  0.2585
 6474TIP3    H140913   2.625   5.547  16.336 -0.7633 -1.0144 -0.2598
 6474TIP3    H240914   2.733   5.464  16.270  0.0280 -2.2499  2.4532
 6475TIP3   OH240915   0.028   2.237   6.421  0.4948  0.0508  0.2858
 6475TIP3    H140916   0.120   2.263   6.419  0.5620 -0.2080 -0.0126
 6475TIP3    H240917   0.029   2.142   6.422  0.2489  0.0489  1.6305
 6476TIP3   OH240918   6.169   5.783  14.290  0.4719 -0.2985  0.6443
 6476TIP3    H140919   6.087   5.797  14.241  0.9603  1.2854  0.2246
 6476TIP3    H240920   6.177   5.861  14.345  0.6213 -1.4419  2.3173
 6477TIP3   OH240921   3.840   3.007   6.049 -0.2762 -0.6245  0.1410
 6477TIP3    H140922   3.925   2.997   6.090  0.4073 -0.4396 -1.1866
 6477TIP3    H240923   3.823   3.101   6.052  1.0102 -0.2268 -2.2807
 6478TIP3   OH240924   3.938   1.972   1.530  0.2737 -0.0354  0.0293
 6478TIP3    H140925   4.013   1.947   1.583  0.7703  3.0631  1.0110
 6478TIP3    H240926   3.975   2.027   1.461 -0.8415 -0.5481 -1.0167
 6479TIP3   OH240927   4.545   3.523  14.296  0.2482  0.3971  0.2882
 6479TIP3    H140928   4.589   3.591  14.347 -0.8658  0.6023  1.0201
 6479TIP3    H240929   4.598   3.513  14.217  1.3762  0.8961  0.9565
 6480TIP3   OH240930   5.486   4.593  12.835  0.2719 -0.4660 -0.4332
 6480TIP3    H140931   5.485   4.682  12.870  0.6304 -0.8489  0.6045
 6480TIP3    H240932   5.536   4.543  12.899 -1.4385 -1.7921 -0.0559
 6481TIP3   OH240933   2.309   6.333   0.629  0.3161 -0.0681  0.5703
 6481TIP3    H140934   2.298   6.363   0.719 -0.4320 -0.0284  0.4728
 6481TIP3    H240935   2.248   6.386   0.578  0.5127 -0.2970  0.0842
 6482TIP3   OH240936   6.139   3.235  11.807  0.1799 -0.1219 -0.2750
 6482TIP3    H140937   6.171   3.312  11.761 -0.1680  0.0633 -0.2136
 6482TIP3    H240938   6.182   3.237  11.892  0.7228 -0.3911 -0.5418
 6483TIP3   OH240939   3.344   2.403   1.969 -0.2793 -0.1532 -0.0566
 6483TIP3    H140940   3.394   2.353   1.904 -1.5030 -0.8665 -0.4847
 6483TIP3    H240941   3.379   2.492   1.963  0.5712 -0.5151 -0.7049
 6484TIP3   OH240942   0.132   5.725   1.324 -0.1502  0.6692 -0.1611
 6484TIP3    H140943   0.221   5.755   1.346  0.7229 -2.6766  1.5489
 6484TIP3    H240944   0.078   5.804   1.333  2.6114  2.9672 -1.7523
 6485TIP3   OH240945   2.979   5.088   1.601 -0.2321  0.2109  0.3757
 6485TIP3    H140946   3.000   5.093   1.508  0.1846  1.0414  0.5063
 6485TIP3    H240947   2.923   5.165   1.617 -1.3644 -0.6247  0.5498
 6486TIP3   OH240948   4.883   4.442   0.280  0.6204  0.4802  0.2396
 6486TIP3    H140949   4.864   4.415   0.190 -0.4988 -1.2302  0.9350
 6486TIP3    H240950   4.970   4.407   0.298  1.0383  1.2089 -0.2946
 6487TIP3   OH240951   2.438   2.823   4.533  0.3811  0.2671  0.4998
 6487TIP3    H140952   2.467   2.896   4.478 -0.2882  0.2093  0.0580
 6487TIP3    H240953   2.449   2.746   4.478 -0.3661  0.2169  0.3987
 6488TIP3   OH240954   6.096   3.673   2.839  0.0212 -0.0604  0.2157
 6488TIP3    H140955   6.147   3.600   2.806 -1.0974 -0.0403 -1.6780
 6488TIP3    H240956   6.048   3.637   2.914  0.0443 -1.0617 -0.2453
 6489TIP3   OH240957   2.610   2.764   1.864 -0.2874  0.4139 -0.0532
 6489TIP3    H140958   2.630   2.806   1.948 -1.3691  0.3709  0.2346
 6489TIP3    H240959   2.542   2.819   1.825 -0.8680 -0.4091 -0.2183
 6490TIP3   OH240960   2.688   1.307   2.670 -0.2274  0.2988  0.1860
 6490TIP3    H140961   2.736   1.278   2.748 -3.4594  0.9880  2.6704
 6490TIP3    H240962   2.704   1.401   2.666 -0.6734  0.3914  0.5117
 6491TIP3   OH240963   5.456   1.334   0.799 -0.1873 -0.4999 -0.1483
 6491TIP3    H140964   5.473   1.324   0.893  0.0755  0.6973 -0.0580
 6491TIP3    H240965   5.464   1.245   0.764 -1.8033 -1.2279  1.1875
 6492TIP3   OH240966   0.379   1.765   1.400  0.2021  0.0645  0.7396
 6492TIP3    H140967   0.376   1.858   1.379 -2.8835  0.7851  3.4693
 6492TIP3    H240968   0.300   1.728   1.361  0.3953 -0.9750  1.2745
 6493TIP3   OH240969   4.321   4.278   3.775  0.1074 -0.0600 -0.3903
 6493TIP3    H140970   4.355   4.190   3.794  1.7696  0.6555  0.1017
 6493TIP3    H240971   4.350   4.296   3.686  1.8310  0.8957  0.3340
 6494TIP3   OH240972   6.081   2.894   0.598 -0.1161  0.1026 -0.5533
 6494TIP3    H140973   6.170   2.873   0.626 -0.0498 -0.0832 -0.8916
 6494TIP3    H240974   6.045   2.949   0.668 -0.4823 -1.5695  0.6458
 6495TIP3   OH240975   5.971   1.645  16.232  0.2454 -0.4898  0.4116
 6495TIP3    H140976   6.014   1.588  16.296  0.9728 -0.4078  0.0037
 6495TIP3    H240977   5.904   1.691  16.282 -0.8048 -2.1560  0.6415
 6496TIP3   OH240978   1.283   0.714   1.202 -0.0990  0.6076 -0.0489
 6496TIP3    H140979   1.195   0.720   1.163 -0.6344  1.2097  1.1889
 6496TIP3    H240980   1.293   0.796   1.250  0.7234  0.0946  0.6790
 6497TIP3   OH240981   4.077   6.354   5.470 -0.5851  0.1126 -0.0148
 6497TIP3    H140982   4.012   6.295   5.432 -0.3136 -0.6868  0.7545
 6497TIP3    H240983   4.141   6.297   5.511 -0.2806  0.9370  0.6925
 6498TIP3   OH240984   4.783   5.330   2.050  0.0634  0.3119 -0.2106
 6498TIP3    H140985   4.766   5.303   2.141 -1.1951  2.4429  0.2348
 6498TIP3    H240986   4.702   5.370   2.021  1.1322  1.5932 -1.5602
 6499TIP3   OH240987   3.724   0.946   5.400 -0.2006  0.6649 -0.2066
 6499TIP3    H140988   3.775   0.976   5.475  0.3695 -0.0739 -0.2852
 6499TIP3    H240989   3.778   0.878   5.359 -2.1036 -1.7397  0.9835
 6500TIP3   OH240990   0.008   2.960   4.171  0.2301 -0.6852  0.2447
 6500TIP3    H140991   0.040   2.878   4.134 -0.7192 -0.5936 -0.8220
 6500TIP3    H240992  -0.038   2.933   4.250 -2.4746 -1.5831 -1.4836
 6501TIP3   OH240993   2.766   0.082   4.440 -0.1897  0.3181 -0.5905
 6501TIP3    H140994   2.791   0.168   4.406 -0.6464  1.3188  1.4740
 6501TIP3    H240995   2.843   0.051   4.486 -0.2684 -0.0490 -0.7079
 6502TIP3   OH240996   5.179   3.361  12.465  0.4507 -0.2705  0.2130
 6502TIP3    H140997   5.086   3.385  12.458  1.0872  2.0463 -1.5452
 6502TIP3    H240998   5.212   3.414  12.538  0.6189 -0.2664  0.1338
 6503TIP3   OH240999   3.087   5.233   2.984 -0.0732 -0.4692 -0.4009
 6503TIP3    H141000   3.086   5.328   2.978  1.4478 -0.4075 -0.0363
 6503TIP3    H241001   3.015   5.205   2.928 -1.1536  0.9166  0.2270
 6504TIP3   OH241002   4.571   6.128   2.822  0.3143 -0.0850 -0.0158
 6504TIP3    H141003   4.576   6.053   2.762 -0.6329  0.1443 -0.3895
 6504TIP3    H241004   4.588   6.090   2.908 -0.6787 -0.8401 -0.1306
 6505TIP3   OH241005   5.036   1.395   4.588 -0.3268  0.1340  0.0763
 6505TIP3    H141006   5.045   1.470   4.529 -0.1394 -0.0867 -0.1764
 6505TIP3    H241007   5.104   1.334   4.560 -1.2698 -0.6640 -0.5214
 6506TIP3   OH241008   3.732   3.999   0.876  0.0098  0.3049  0.4343
 6506TIP3    H141009   3.764   3.912   0.901 -0.6656 -0.0569  0.0855
 6506TIP3    H241010   3.771   4.058   0.940  0.9099 -0.1824  0.3568
 6507TIP3   OH241011   1.222   6.442  11.459 -0.3425  0.4970 -0.7954
 6507TIP3    H141012   1.294   6.401  11.507 -1.1509 -0.5288 -0.4366
 6507TIP3    H241013   1.223   6.533  11.490  1.5111  0.8135 -1.6571
 6508TIP3   OH241014   0.277   4.252   5.510 -0.2152 -0.6991 -0.0567
 6508TIP3    H141015   0.326   4.172   5.529 -0.8811 -1.1807 -0.3401
 6508TIP3    H241016   0.218   4.262   5.585  0.5314  0.0665  0.4498
 6509TIP3   OH241017   2.497   0.579   2.832 -0.1545  0.3723  0.0576
 6509TIP3    H141018   2.438   0.647   2.798 -0.9195 -0.3202 -0.0181
 6509TIP3    H241019   2.580   0.625   2.845 -0.7265  1.3984  0.2583
 6510TIP3   OH241020   3.757   0.536   3.308 -0.3826  0.3676  0.6100
 6510TIP3    H141021   3.801   0.462   3.265  0.7853  0.2083  2.0050
 6510TIP3    H241022   3.664   0.511   3.309  0.1093 -1.6584  2.0695
 6511TIP3   OH241023   0.615   2.635  12.112  0.0891 -0.3893  0.0431
 6511TIP3    H141024   0.528   2.633  12.152  0.4063  0.7437  0.8454
 6511TIP3    H241025   0.601   2.608  12.021 -0.8813 -1.5375  0.5231
 6512TIP3   OH241026   1.597   4.951  16.915  0.5399  0.3775  0.1333
 6512TIP3    H141027   1.634   5.010  16.981  1.0696 -0.1312  0.3048
 6512TIP3    H241028   1.531   5.003  16.869 -0.6957  0.3867  1.8500
 6513TIP3   OH241029   5.279   0.971   6.757 -0.4719  0.6913  0.3270
 6513TIP3    H141030   5.254   1.056   6.795  0.3038  1.5383 -0.9857
 6513TIP3    H241031   5.311   0.992   6.670 -1.1687 -1.0829 -0.4154
 6514TIP3   OH241032   1.527   6.141  13.169 -0.1492  0.1954  0.0347
 6514TIP3    H141033   1.435   6.114  13.173  0.1706 -1.0381 -0.4237
 6514TIP3    H241034   1.525   6.237  13.175 -1.6333  0.3805 -2.1948
 6515TIP3   OH241035   0.445   2.400   4.480 -0.0864 -0.1712 -0.4888
 6515TIP3    H141036   0.508   2.467   4.456  0.5945 -0.4857  0.3537
 6515TIP3    H241037   0.456   2.390   4.575 -0.7174 -0.9249 -0.4846
 6516TIP3   OH241038   5.146   2.940  11.311  0.0453  0.2998  0.5813
 6516TIP3    H141039   5.152   2.881  11.386 -0.6826 -0.0670  0.3644
 6516TIP3    H241040   5.224   2.922  11.259 -0.7519 -1.3576 -0.1012
 6517TIP3   OH241041   3.682   1.842  17.039 -0.1861 -0.1401 -0.0813
 6517TIP3    H141042   3.681   1.761  17.090 -1.1407  0.1445  0.3717
 6517TIP3    H241043   3.607   1.835  16.981  0.0644  0.1714 -0.4495
 6518TIP3   OH241044   3.743   4.110  14.628  0.2567 -0.0245 -0.2186
 6518TIP3    H141045   3.659   4.088  14.670 -0.0086  0.1113 -0.6749
 6518TIP3    H241046   3.744   4.056  14.549  0.3610  0.3733 -0.4872
 6519TIP3   OH241047   2.433   0.781   0.991 -0.0074  0.1741 -0.3417
 6519TIP3    H141048   2.363   0.819   1.043  1.1648  2.1605 -0.1100
 6519TIP3    H241049   2.392   0.758   0.908 -0.8647  1.6820 -0.3639
 6520TIP3   OH241050   5.179   4.368  12.065  0.4004 -0.6696 -0.8768
 6520TIP3    H141051   5.168   4.288  12.014 -1.1024 -0.4417 -0.9578
 6520TIP3    H241052   5.273   4.389  12.057  0.6797 -2.0332 -1.4049
 6521TIP3   OH241053   0.321   1.097   1.400 -0.2917 -0.1167  0.3496
 6521TIP3    H141054   0.308   1.184   1.438 -1.8158 -0.7007  1.2792
 6521TIP3    H241055   0.284   1.103   1.312  1.0021  0.5611 -0.1797
 6522TIP3   OH241056   0.958   6.330   3.178 -0.4679  0.3816  0.0706
 6522TIP3    H141057   0.880   6.276   3.169 -0.9470  1.0839 -0.0246
 6522TIP3    H241058   0.926   6.420   3.178  0.4761  0.8184 -2.2901
 6523TIP3   OH241059   4.901   3.975   0.881  0.0822 -0.5960  0.6541
 6523TIP3    H141060   4.844   3.902   0.855  1.2710 -1.3107 -0.0891
 6523TIP3    H241061   4.959   3.938   0.947 -0.0829  0.0198  1.1485
 6524TIP3   OH241062   4.190   4.075   5.186  0.4278  0.0632 -1.0748
 6524TIP3    H141063   4.110   4.088   5.237 -0.4819 -1.9848 -1.8515
 6524TIP3    H241064   4.218   3.986   5.208  2.5001  0.7264 -0.8579
 6525TIP3   OH241065   6.767   6.124   3.115 -0.1817  0.7181  0.4566
 6525TIP3    H141066   6.858   6.137   3.143  0.3005 -1.8922  0.3305
 6525TIP3    H241067   6.771   6.126   3.019  0.3515 -2.3763  0.3380
 6526TIP3   OH241068   6.791   0.543   1.401 -0.2910  0.2846  0.2206
 6526TIP3    H141069   6.760   0.459   1.433  0.7496 -0.0775  0.3324
 6526TIP3    H241070   6.729   0.607   1.436  0.1876 -0.2055  2.0998
 6527TIP3   OH241071   5.298   0.759   1.042  1.2795  0.4702 -0.4493
 6527TIP3    H141072   5.233   0.728   0.978  0.2713  0.2877  0.6292
 6527TIP3    H241073   5.253   0.828   1.090  1.0984 -1.0850  1.7346
 6528TIP3   OH241074   3.510   0.052  11.144  0.1699 -0.3595  0.0056
 6528TIP3    H141075   3.484   0.129  11.093 -1.4479 -1.0635 -0.2886
 6528TIP3    H241076   3.562  -0.000  11.082 -1.5501 -1.0766 -0.8944
 6529TIP3   OH241077   0.686   3.863   1.265 -0.8940 -0.0086 -0.2731
 6529TIP3    H141078   0.711   3.773   1.285 -1.2697  0.2096  1.2586
 6529TIP3    H241079   0.769   3.910   1.256 -0.7071 -0.2609  0.1235
 6530TIP3   OH241080   1.771   4.982   4.364 -0.0020 -0.0381 -0.0160
 6530TIP3    H141081   1.760   4.890   4.388  0.7502 -0.4605 -1.1955
 6530TIP3    H241082   1.683   5.019   4.367 -0.1859 -0.5541  1.3743
 6531TIP3   OH241083   0.137   1.379  11.481  0.3012 -0.3511  0.4345
 6531TIP3    H141084   0.175   1.300  11.443  1.3851 -0.4255  1.5857
 6531TIP3    H241085   0.107   1.430  11.406 -0.9268 -2.0664 -0.3036
 6532TIP3   OH241086   0.986   1.906   2.478  0.0604  0.4620 -0.0629
 6532TIP3    H141087   0.959   1.846   2.548  0.1571 -0.1769 -0.5613
 6532TIP3    H241088   0.909   1.960   2.463  0.4988  1.5777  1.5128
 6533TIP3   OH241089   6.521   1.850  11.946  0.0400 -0.6204  0.2774
 6533TIP3    H141090   6.604   1.870  11.990  0.2114 -2.1487  0.7127
 6533TIP3    H241091   6.477   1.935  11.938  2.2311  0.4910 -1.2350
 6534TIP3   OH241092   6.136   6.169   1.318  0.6262  0.1643 -0.3088
 6534TIP3    H141093   6.159   6.124   1.400 -3.0930 -1.0086  0.2786
 6534TIP3    H241094   6.041   6.171   1.318  0.5122  3.8004 -2.7405
 6535TIP3   OH241095   1.555   1.589  15.102 -0.1132  0.2137  0.0582
 6535TIP3    H141096   1.554   1.497  15.077  0.0500 -0.2473  1.6495
 6535TIP3    H241097   1.580   1.636  15.022  3.1975 -1.3823  0.0225
 6536TIP3   OH241098   4.913   4.571   1.807  0.3817 -0.0337  0.1755
 6536TIP3    H141099   4.952   4.633   1.746  1.1787  0.1126  0.8140
 6536TIP3    H241100   4.915   4.487   1.760 -0.5343  0.3707 -0.6177
 6537TIP3   OH241101   5.082   2.402  10.886  0.1409 -0.3222  0.3112
 6537TIP3    H141102   5.038   2.452  10.817 -0.1328 -0.9132  0.0497
 6537TIP3    H241103   5.168   2.444  10.895  0.6857 -0.9950 -1.2889
 6538TIP3   OH241104   5.311   0.090  11.415 -0.2683  0.4909 -0.3031
 6538TIP3    H141105   5.342   0.058  11.330  1.5017  0.2259  0.4088
 6538TIP3    H241106   5.261   0.017  11.451  0.6219 -0.1163 -0.2838
 6539TIP3   OH241107   6.413   3.974  14.550 -0.1075  0.0956  0.5098
 6539TIP3    H141108   6.320   3.960  14.534  0.0895 -2.1002  0.9285
 6539TIP3    H241109   6.455   3.952  14.466  0.0408  1.4992  0.1884
 6540TIP3   OH241110   5.968   1.446  12.069  0.5397  0.1063 -0.3318
 6540TIP3    H141111   5.970   1.541  12.067 -0.4642  0.1779  0.8598
 6540TIP3    H241112   6.034   1.419  12.006  0.5135  1.5851 -1.0239
 6541TIP3   OH241113   1.769   3.040   1.795 -0.2589 -0.0436 -0.0825
 6541TIP3    H141114   1.839   3.016   1.856  0.1876  0.3298 -0.4435
 6541TIP3    H241115   1.697   3.068   1.851  0.1155  0.2114  0.2804
 6542TIP3   OH241116   6.261   1.913   3.668 -0.1629 -0.4708  0.0265
 6542TIP3    H141117   6.287   1.832   3.713 -1.3608 -0.4105  0.8803
 6542TIP3    H241118   6.179   1.892   3.625  0.1956 -0.0741 -0.8870
 6543TIP3   OH241119   0.620   1.427   2.189 -0.0677  0.0187  0.2216
 6543TIP3    H141120   0.671   1.507   2.182 -0.3181  0.3134  1.4446
 6543TIP3    H241121   0.601   1.401   2.099 -0.8044  1.8507 -0.1846
 6544TIP3   OH241122   3.322   2.909   5.874  0.6602 -0.0511  1.0191
 6544TIP3    H141123   3.266   2.924   5.950  1.9014 -1.0884  2.2196
 6544TIP3    H241124   3.411   2.910   5.910  1.3178 -0.0057 -0.5307
 6545TIP3   OH241125   6.305   1.462  16.464 -0.0462 -0.0193 -0.3917
 6545TIP3    H141126   6.344   1.377  16.443 -0.3895 -0.5197  0.9307
 6545TIP3    H241127   6.363   1.526  16.421  1.3225 -0.8216  0.1849
 6546TIP3   OH241128   3.108   4.026   2.166 -1.2601 -0.4040 -0.2354
 6546TIP3    H141129   3.021   4.066   2.166 -1.1914 -0.0624 -2.9218
 6546TIP3    H241130   3.110   3.972   2.086  1.1280 -0.0165 -0.5277
 6547TIP3   OH241131   1.806   3.693   0.414 -1.1502 -0.7457  0.1256
 6547TIP3    H141132   1.887   3.678   0.464 -0.8034  0.6501  0.0228
 6547TIP3    H241133   1.833   3.750   0.342 -1.1818 -4.2735 -2.9606
 6548TIP3   OH241134   4.025   2.555   1.779  0.5040 -0.7272  0.0996
 6548TIP3    H141135   3.947   2.535   1.728 -0.0330  1.4248 -0.0517
 6548TIP3    H241136   4.082   2.603   1.718  0.5931  0.3615  0.9960
 6549TIP3   OH241137   5.000   0.113  17.233  0.0269  0.0863 -0.0256
 6549TIP3    H141138   5.076   0.057  17.250  0.8228  1.3809  0.9667
 6549TIP3    H241139   4.939   0.058  17.185  1.1442 -1.3323  0.1124
 6550TIP3   OH241140   6.250   5.391   0.367 -0.3116 -0.0778  0.2040
 6550TIP3    H141141   6.194   5.362   0.439 -2.7798  2.2924 -0.5789
 6550TIP3    H241142   6.211   5.351   0.289 -1.4390  2.0734 -0.4184
 6551TIP3   OH241143   3.284   2.694  11.668 -0.3950  0.0297  0.6936
 6551TIP3    H141144   3.287   2.716  11.575  1.7200  1.3451  1.0208
 6551TIP3    H241145   3.256   2.602  11.669 -1.7496  0.3591 -1.1346
 6552TIP3   OH241146   0.229   2.660   5.703 -0.2414 -0.1915  0.1786
 6552TIP3    H141147   0.224   2.619   5.790  2.8334 -0.2073  0.4840
 6552TIP3    H241148   0.320   2.690   5.697 -0.9820  1.8495 -2.1661
 6553TIP3   OH241149   3.773   3.016   0.243 -0.2471 -0.6019 -0.0243
 6553TIP3    H141150   3.750   2.985   0.331  0.2357 -1.4379 -0.1830
 6553TIP3    H241151   3.865   3.042   0.250 -0.9226  1.8647  0.3776
 6554TIP3   OH241152   6.514   5.398   1.769  0.0006 -0.2726  0.1354
 6554TIP3    H141153   6.449   5.412   1.699 -0.9267  0.3107  1.0818
 6554TIP3    H241154   6.491   5.312   1.805  0.0359 -0.2633  0.1790
 6555TIP3   OH241155   0.928   3.401   1.724  0.0561  0.1406 -0.0128
 6555TIP3    H141156   0.865   3.330   1.733  0.9226 -0.4790  1.7939
 6555TIP3    H241157   1.002   3.363   1.678  0.1192  0.1436  0.0844
 6556TIP3   OH241158   2.437   5.648   5.205  0.1349 -0.0357  0.2905
 6556TIP3    H141159   2.521   5.654   5.249 -0.0776 -1.5398  0.9766
 6556TIP3    H241160   2.456   5.601   5.123  0.2440  1.2446 -0.4465
 6557TIP3   OH241161   4.415   6.139   0.655 -0.1084  0.4673 -0.2471
 6557TIP3    H141162   4.407   6.085   0.577  1.8960  0.3022 -0.3973
 6557TIP3    H241163   4.392   6.228   0.627  2.0114  0.6979 -1.4627
 6558TIP3   OH241164   1.291   0.710   4.119 -0.3060 -0.0318 -1.0106
 6558TIP3    H141165   1.345   0.748   4.051 -0.6945 -0.4656 -1.5689
 6558TIP3    H241166   1.298   0.615   4.106  0.1158 -0.1405 -0.0550
 6559TIP3   OH241167   3.354   3.090  12.028 -0.2930 -0.1386 -0.3768
 6559TIP3    H141168   3.308   3.169  12.000 -0.5474 -0.2175 -0.1854
 6559TIP3    H241169   3.433   3.088  11.974 -1.2341 -0.8059 -1.7985
 6560TIP3   OH241170   4.404   0.963   3.891 -0.2506  0.3770  0.1700
 6560TIP3    H141171   4.400   0.903   3.817 -2.9662  1.7213 -0.9030
 6560TIP3    H241172   4.386   0.909   3.968 -3.1920 -0.1967 -0.8154
 6561TIP3   OH241173   0.964   6.224   3.535  0.5186 -0.0763  0.2046
 6561TIP3    H141174   0.886   6.262   3.575  0.2363 -0.0497 -0.3644
 6561TIP3    H241175   0.972   6.269   3.451  0.3190 -1.0861 -0.3726
 6562TIP3   OH241176   0.571   4.830  11.665  1.0378 -0.5324  0.2957
 6562TIP3    H141177   0.540   4.899  11.724  2.0089  1.3701 -1.2973
 6562TIP3    H241178   0.497   4.815  11.605  1.7359  1.2364 -1.1065
 6563TIP3   OH241179   2.888   1.411  11.065 -0.2150  0.0163 -0.0155
 6563TIP3    H141180   2.805   1.430  11.108  0.0580  0.7132  0.2176
 6563TIP3    H241181   2.952   1.408  11.137 -0.0160 -0.3749 -0.2061
 6564TIP3   OH241182   5.213   2.278   5.702  0.3561 -0.0934  0.1051
 6564TIP3    H141183   5.236   2.195   5.660  0.1267 -0.3993  0.5679
 6564TIP3    H241184   5.161   2.252   5.778  0.5479  0.4647  0.4294
 6565TIP3   OH241185   0.864   0.436   3.941 -0.0917 -0.0311 -0.1415
 6565TIP3    H141186   0.826   0.449   4.028  0.1203 -0.4740  0.0228
 6565TIP3    H241187   0.802   0.377   3.897  0.8716 -1.5564  0.4708
 6566TIP3   OH241188   5.998   0.964  15.600  0.1790 -0.2183 -0.2721
 6566TIP3    H141189   6.092   0.944  15.603 -0.2096 -2.1163  1.2335
 6566TIP3    H241190   5.960   0.889  15.555 -0.7197  0.1265 -0.0947
 6567TIP3   OH241191   1.640   0.095  16.059  0.3287  0.6099 -0.3749
 6567TIP3    H141192   1.553   0.130  16.081  0.0137 -1.3498  1.9303
 6567TIP3    H241193   1.623   0.030  15.991 -0.2853 -0.7879  1.0555
 6568TIP3   OH241194   3.380   6.204   4.981 -0.4825 -0.2411  0.0542
 6568TIP3    H141195   3.432   6.283   4.998 -1.1507 -0.3963  3.5331
 6568TIP3    H241196   3.300   6.237   4.940  0.3033  0.5496 -0.9000
 6569TIP3   OH241197   5.089   1.203   5.527  0.0604 -0.3327 -0.2037
 6569TIP3    H141198   5.065   1.148   5.601 -2.7776 -0.5836 -1.1679
 6569TIP3    H241199   5.031   1.174   5.456 -1.0966  3.3597 -0.9730
 6570TIP3   OH241200   3.854   3.808   5.450  0.5928 -0.3548  0.1358
 6570TIP3    H141201   3.806   3.730   5.479  0.1920 -0.6631 -1.2570
 6570TIP3    H241202   3.874   3.790   5.358  1.2936  0.8112  0.0468
 6571TIP3   OH241203   3.599   0.962  16.886 -0.1838 -0.1791  0.7369
 6571TIP3    H141204   3.578   0.885  16.939 -0.3324  0.9170  2.3588
 6571TIP3    H241205   3.527   0.969  16.824 -1.2135 -0.2576  1.8702
 6572TIP3   OH241206   1.249   4.716   0.265 -0.0608 -0.0272 -0.3478
 6572TIP3    H141207   1.215   4.805   0.278 -0.2199 -0.2059  0.5603
 6572TIP3    H241208   1.280   4.715   0.175  3.0988  2.0055  0.5401
 6573TIP3   OH241209   6.352   2.482  14.371  0.8126  0.1315  0.2059
 6573TIP3    H141210   6.407   2.404  14.364 -0.3207 -0.6406 -0.3963
 6573TIP3    H241211   6.264   2.450  14.353  0.2618  1.4701  0.4644
 6574TIP3   OH241212   1.779   1.641   2.143 -0.0834  0.5360 -0.1777
 6574TIP3    H141213   1.736   1.724   2.123 -1.8837 -0.7429 -1.9763
 6574TIP3    H241214   1.832   1.622   2.066 -1.3085 -0.9300 -0.7101
 6575TIP3   OH241215   4.463   3.619  12.959 -0.7579 -0.5615  0.8223
 6575TIP3    H141216   4.388   3.578  12.916  0.2036 -0.8706 -0.6234
 6575TIP3    H241217   4.425   3.689  13.012 -2.0362 -0.3781 -0.2811
 6576TIP3   OH241218   0.081   3.010  11.293  0.5539  0.1566 -0.2900
 6576TIP3    H141219   0.109   3.051  11.211  0.5110  1.7503  0.4457
 6576TIP3    H241220   0.027   3.077  11.335  0.0286 -0.8872  0.7477
 6577TIP3   OH241221   6.762   4.788  10.904  0.1379  0.2634 -0.2053
 6577TIP3    H141222   6.830   4.846  10.938 -0.1045  0.7092 -0.4705
 6577TIP3    H241223   6.794   4.700  10.921  1.6122  0.4200 -1.9038
 6578TIP3   OH241224   2.316   2.701   5.531  0.0439 -0.3685 -0.4373
 6578TIP3    H141225   2.256   2.773   5.549 -2.2165 -2.0224 -0.9807
 6578TIP3    H241226   2.394   2.722   5.582 -1.7774  0.8122  2.0757
 6579TIP3   OH241227   1.023   1.412  16.135  0.5072 -0.2072 -0.2869
 6579TIP3    H141228   0.987   1.500  16.141  3.0134  1.0362 -1.6421
 6579TIP3    H241229   0.983   1.375  16.056  0.1696  0.0791 -0.2511
 6580TIP3   OH241230   1.054   2.208  16.939  0.5551  0.5780  0.5442
 6580TIP3    H141231   1.005   2.137  16.980 -0.2907  0.6021 -0.3928
 6580TIP3    H241232   0.988   2.260  16.893  1.5065  0.1490 -1.4259
 6581TIP3   OH241233   6.402   6.212  12.980  0.4601 -0.3365 -0.5033
 6581TIP3    H141234   6.472   6.151  13.005 -0.1515 -1.7105 -1.9780
 6581TIP3    H241235   6.344   6.214  13.056  1.3983 -0.2296  0.2247
 6582TIP3   OH241236   2.121   4.125   5.773 -1.1055 -0.1653 -0.4397
 6582TIP3    H141237   2.076   4.173   5.843  0.7362  0.2865  0.5035
 6582TIP3    H241238   2.138   4.191   5.706  3.8080  1.5393  1.9511
 6583TIP3   OH241239   5.914   1.260   5.315 -0.0055 -0.1721 -0.1006
 6583TIP3    H141240   5.948   1.348   5.329  2.2274 -0.7408 -1.4684
 6583TIP3    H241241   5.939   1.213   5.395  0.5796 -0.0328 -0.1916
 6584TIP3   OH241242   3.695   5.539   0.272 -0.0093  1.0718  0.2066
 6584TIP3    H141243   3.608   5.517   0.305 -0.4050  2.4073  0.0834
 6584TIP3    H241244   3.694   5.509   0.180 -0.0592  0.4011  0.4178
 6585TIP3   OH241245   5.848   2.518  15.615 -0.2296  0.0473 -0.4602
 6585TIP3    H141246   5.841   2.439  15.669  0.1070 -0.3009 -0.9155
 6585TIP3    H241247   5.883   2.486  15.531 -1.8016  0.4025 -1.2819
 6586TIP3   OH241248   1.501   4.650   5.706 -0.5734  0.3156 -0.1992
 6586TIP3    H141249   1.477   4.560   5.727 -0.0342  0.8408  3.0813
 6586TIP3    H241250   1.592   4.658   5.735 -0.4518  1.8313 -0.8849
 6587TIP3   OH241251   5.494   1.641  16.904 -0.1753 -0.1442  0.4950
 6587TIP3    H141252   5.497   1.736  16.893  0.6540 -0.1104  0.9217
 6587TIP3    H241253   5.579   1.610  16.872 -0.7787 -0.8492 -0.4847
 6588TIP3   OH241254   1.270   2.209   2.102  0.1118 -0.6658 -0.0465
 6588TIP3    H141255   1.206   2.143   2.129  0.7107 -0.7314  1.2561
 6588TIP3    H241256   1.219   2.290   2.092 -0.4177 -1.0484 -0.4965
 6589TIP3   OH241257   1.203   1.572   5.514  0.2447  0.3245  0.4819
 6589TIP3    H141258   1.295   1.549   5.528  0.3175 -0.2146 -0.7867
 6589TIP3    H241259   1.200   1.611   5.427 -0.8590 -0.5065  0.1186
 6590TIP3   OH241260   0.688   6.464  16.966  0.1346 -0.6956  0.4055
 6590TIP3    H141261   0.643   6.460  16.882 -0.5775  0.4790  0.7087
 6590TIP3    H241262   0.618   6.470  17.031  0.6242  2.4513  0.8106
 6591TIP3   OH241263   1.988   2.424  11.335 -0.2064 -0.1435 -0.6685
 6591TIP3    H141264   1.928   2.480  11.385 -1.1810 -1.4318 -0.3594
 6591TIP3    H241265   2.065   2.479  11.322 -0.1930  0.5228  1.6319
 6592TIP3   OH241266   5.529   4.505  11.618  0.3567 -0.4601 -0.4142
 6592TIP3    H141267   5.571   4.487  11.534 -1.8864  0.7167 -1.9227
 6592TIP3    H241268   5.572   4.584  11.650  3.1085 -2.3874  1.0470
 6593TIP3   OH241269   3.402   3.979  11.971  0.1647  0.4018  0.4993
 6593TIP3    H141270   3.474   3.965  12.033 -0.1521  0.6780  0.9358
 6593TIP3    H241271   3.446   4.002  11.889  0.6393 -1.4681  0.1889
 6594TIP3   OH241272   6.253   2.835   6.130  0.3044 -0.1175  0.1801
 6594TIP3    H141273   6.304   2.756   6.111 -0.1545 -0.4712  0.3779
 6594TIP3    H241274   6.263   2.847   6.224 -2.8659 -2.3392  1.0100
 6595TIP3   OH241275   5.042   0.491   5.834  0.2131  0.4998  0.7260
 6595TIP3    H141276   5.014   0.575   5.797  0.2222  0.4101  0.5106
 6595TIP3    H241277   5.129   0.508   5.871  0.5171  0.4219  0.0651
 6596TIP3   OH241278   4.170   1.081   1.776 -0.5064 -0.2137  0.4353
 6596TIP3    H141279   4.108   1.019   1.738  0.7107 -0.6404 -0.9667
 6596TIP3    H241280   4.169   1.156   1.716 -1.6552  0.9932  1.8868
 6597TIP3   OH241281   3.428   4.250  11.735  0.2509 -0.0190  0.2917
 6597TIP3    H141282   3.345   4.227  11.777 -0.4951 -1.9864 -2.0559
 6597TIP3    H241283   3.469   4.166  11.713  1.5632  0.9076 -1.0440
 6598TIP3   OH241284   5.263   0.288  14.031 -0.2263  0.1936  0.0799
 6598TIP3    H141285   5.338   0.237  14.064 -0.0767  0.0078 -0.5307
 6598TIP3    H241286   5.284   0.304  13.939 -1.2157 -0.3840 -0.2607
 6599TIP3   OH241287   5.025   4.616   5.827 -0.9163  0.6839  0.2064
 6599TIP3    H141288   5.112   4.607   5.865  0.0555 -0.7791 -2.1720
 6599TIP3    H241289   4.986   4.691   5.873  1.9385  1.9945  0.6720
 6600TIP3   OH241290   5.948   0.859   5.710 -0.0589  0.1693  0.0255
 6600TIP3    H141291   5.886   0.873   5.781 -0.9344  0.4398 -0.7591
 6600TIP3    H241292   5.974   0.767   5.716  0.3884  0.3554  1.0746
 6601TIP3   OH241293   4.897   2.451  12.098 -0.1462  0.8460  0.1957
 6601TIP3    H141294   4.814   2.494  12.076 -1.1980 -1.2350 -0.1494
 6601TIP3    H241295   4.945   2.446  12.016 -1.0541 -0.6901 -0.2774
 6602TIP3   OH241296   4.883   4.426   1.252 -0.0034  0.2857  0.5873
 6602TIP3    H141297   4.845   4.353   1.202 -0.5106  1.1209 -0.2766
 6602TIP3    H241298   4.858   4.504   1.203  3.8727  0.8984 -0.7779
 6603TIP3   OH241299   3.774   0.805  12.735  0.1368 -0.5691 -0.2051
 6603TIP3    H141300   3.763   0.736  12.800  0.5810 -0.5439 -0.1014
 6603TIP3    H241301   3.730   0.881  12.774  0.8129 -0.4204  0.2833
 6604TIP3   OH241302   5.176   6.275  11.017 -0.1550 -0.8518  0.5041
 6604TIP3    H141303   5.244   6.209  11.032  1.8337  0.1600 -2.9187
 6604TIP3    H241304   5.225   6.355  10.997 -2.3740  0.2435 -0.8857
 6605TIP3   OH241305   0.091   1.982   2.530 -0.0616 -0.2060  0.1460
 6605TIP3    H141306   0.085   1.956   2.438  2.4333  0.5475 -0.2961
 6605TIP3    H241307   0.166   1.933   2.563  1.2028  2.0759  0.8163
 6606TIP3   OH241308   3.597   4.058  15.709 -0.0638 -0.5345  0.1345
 6606TIP3    H141309   3.615   3.971  15.674  2.1129  0.3803 -1.2452
 6606TIP3    H241310   3.616   4.118  15.637 -3.7134  1.0806  0.2486
 6607TIP3   OH241311   5.895   1.925  13.194  0.3927  0.1836  0.6589
 6607TIP3    H141312   5.802   1.944  13.192  0.1436 -0.6915  2.4012
 6607TIP3    H241313   5.907   1.857  13.128 -0.2674  0.0415  0.6804
 6608TIP3   OH241314   0.969   3.401   0.641 -0.3599 -0.0459 -0.0633
 6608TIP3    H141315   0.924   3.426   0.560  1.5604 -1.7434 -1.7610
 6608TIP3    H241316   0.977   3.483   0.690 -1.2460  1.0987 -1.7417
 6609TIP3   OH241317   5.898   5.218  13.189  0.6483 -0.0187  0.1683
 6609TIP3    H141318   5.817   5.166  13.186  0.6429  0.0180 -1.4720
 6609TIP3    H241319   5.898   5.258  13.276 -1.3241  0.3104  0.0712
 6610TIP3   OH241320   2.412   2.969  12.331 -0.1017 -0.4273  0.6968
 6610TIP3    H141321   2.487   3.008  12.287 -0.2156 -0.0886  0.7994
 6610TIP3    H241322   2.338   3.025  12.309 -0.1253 -0.1430  1.4638
 6611TIP3   OH241323   4.925   6.497  16.511 -0.6031 -0.3030 -0.2325
 6611TIP3    H141324   4.959   6.511  16.423  3.0204  0.6192  1.1264
 6611TIP3    H241325   4.933   6.403  16.525 -1.5406 -0.5044 -0.9820
 6612TIP3   OH241326   5.480   3.965  16.980  0.1989 -0.0788 -0.1422
 6612TIP3    H141327   5.470   3.966  17.075  1.6476 -0.6950  0.0327
 6612TIP3    H241328   5.451   4.052  16.953  0.2513  0.2882  0.9119
 6613TIP3   OH241329   6.251   1.217  12.457 -0.5820  0.0214 -0.6920
 6613TIP3    H141330   6.217   1.128  12.458 -0.3061 -0.0911  0.3840
 6613TIP3    H241331   6.237   1.249  12.546 -0.1357  0.8395 -0.9030
 6614TIP3   OH241332   3.399   2.099  13.553 -0.4232  0.2280  0.2371
 6614TIP3    H141333   3.466   2.112  13.486  1.1502 -0.1574  1.6643
 6614TIP3    H241334   3.335   2.169  13.537  0.8680  1.2841 -0.5117
 6615TIP3   OH241335   5.059   3.204  12.852  0.1071  0.4151  0.2867
 6615TIP3    H141336   5.054   3.277  12.789 -2.6161 -0.1082 -0.2477
 6615TIP3    H241337   5.045   3.244  12.937  1.3109  0.8078  0.3216
 6616TIP3   OH241338   3.191   6.691  13.654 -0.1301  0.0876 -0.4268
 6616TIP3    H141339   3.184   6.677  13.560  0.8929 -0.1381 -0.4780
 6616TIP3    H241340   3.119   6.641  13.691  0.1399 -0.7491 -1.0121
 6617TIP3   OH241341   4.342   4.742  14.036 -0.0553 -0.6274 -0.3221
 6617TIP3    H141342   4.321   4.651  14.016  0.1278 -1.3791  2.4822
 6617TIP3    H241343   4.358   4.743  14.130  0.1193  2.2933 -0.2807
 6618TIP3   OH241344   1.323   4.118  13.840 -0.5423  0.2170  0.1740
 6618TIP3    H141345   1.338   4.073  13.923 -0.5444 -0.4439 -0.1808
 6618TIP3    H241346   1.410   4.147  13.813 -0.6892  1.5518  1.0188
 6619TIP3   OH241347   4.690   5.193   5.580  0.1023 -0.4504 -0.0385
 6619TIP3    H141348   4.688   5.207   5.675 -0.5304  1.8723 -0.3285
 6619TIP3    H241349   4.626   5.123   5.565 -1.2401  0.4771  1.1059
 6620TIP3   OH241350   1.411   5.407   2.715  0.1778 -0.2229 -0.6598
 6620TIP3    H141351   1.335   5.445   2.672 -0.2617  0.1887  0.4398
 6620TIP3    H241352   1.449   5.479   2.766  2.2079 -0.0160 -2.3365
 6621TIP3   OH241353   2.370   2.037  11.147  0.6012 -1.0205  1.3828
 6621TIP3    H141354   2.352   2.051  11.240 -0.7673 -1.1715  1.1673
 6621TIP3    H241355   2.310   1.967  11.121  0.4978 -0.5394  0.2350
 6622TIP3   OH241356   3.953   0.157  12.836 -0.1023  0.4118  0.0686
 6622TIP3    H141357   3.981   0.179  12.748 -1.6245 -0.4256 -0.6753
 6622TIP3    H241358   3.901   0.232  12.865  1.0950  1.0497  0.6062
 6623TIP3   OH241359   5.345   1.179  12.760 -0.1779 -0.2347  0.2085
 6623TIP3    H141360   5.313   1.250  12.816 -1.8648 -0.6714 -0.1287
 6623TIP3    H241361   5.437   1.169  12.783 -0.5139  0.4392  1.9753
 6624TIP3   OH241362   0.334   6.131   5.733 -0.2312  0.0980  0.2555
 6624TIP3    H141363   0.342   6.036   5.739  0.0941  0.1161  0.1356
 6624TIP3    H241364   0.241   6.146   5.719 -0.3873 -0.1637  0.9576
 6625TIP3   OH241365   3.691   5.980  11.499  0.0311  0.7164  0.0340
 6625TIP3    H141366   3.668   5.908  11.559 -0.0429 -0.2712 -1.1475
 6625TIP3    H241367   3.644   6.056  11.534 -2.6333 -0.5351 -0.5446
 6626TIP3   OH241368   2.961   2.221  15.259 -0.2126 -0.3247 -0.0157
 6626TIP3    H141369   2.984   2.259  15.174 -0.6289  0.1000  0.0557
 6626TIP3    H241370   2.876   2.260  15.280  1.3589  2.2744  2.1817
 6627TIP3   OH241371   0.573   3.698   1.732 -0.4558  0.0136 -0.0586
 6627TIP3    H141372   0.548   3.619   1.685 -0.5354  0.7504 -1.2871
 6627TIP3    H241373   0.668   3.695   1.736 -0.4725 -0.2675  0.1140
 6628TIP3   OH241374   6.774   6.716  13.691 -0.1271 -0.6987 -0.3071
 6628TIP3    H141375   6.856   6.671  13.670 -0.8820 -1.3736 -1.9586
 6628TIP3    H241376   6.766   6.783  13.623 -0.7408 -0.3734  0.0787
 6629TIP3   OH241377   0.230   2.005   6.411  0.3353  0.3132 -0.2155
 6629TIP3    H141378   0.141   1.970   6.411 -0.3376  1.8520 -1.9860
 6629TIP3    H241379   0.286   1.928   6.399 -0.7709 -0.6078  0.3577
 6630TIP3   OH241380   1.245   5.042   2.462  0.0037 -0.9279 -0.0802
 6630TIP3    H141381   1.181   5.096   2.508  0.9386 -0.0586  0.2370
 6630TIP3    H241382   1.218   5.046   2.370 -0.3121 -0.4397  0.0274
 6631TIP3   OH241383   5.176   0.157   1.445 -0.1897  0.1213  0.0054
 6631TIP3    H141384   5.174   0.167   1.541 -0.6414  3.1643 -0.2259
 6631TIP3    H241385   5.269   0.143   1.425  0.1302  0.8965  0.8329
 6632TIP3   OH241386   0.459   5.693  12.775 -0.9506 -0.2979  0.1652
 6632TIP3    H141387   0.501   5.617  12.736 -0.5128 -0.5519  1.0917
 6632TIP3    H241388   0.367   5.668  12.783 -0.5631 -1.3648  1.8591
 6633TIP3   OH241389   4.851   4.731   3.743  0.1757 -0.1840 -1.3126
 6633TIP3    H141390   4.788   4.723   3.814 -0.7711  0.8563 -2.0009
 6633TIP3    H241391   4.810   4.688   3.668  1.1982 -1.3444 -1.2546
 6634TIP3   OH241392   6.606   6.330  12.222  0.5767 -0.2393 -0.4094
 6634TIP3    H141393   6.590   6.310  12.130  3.9220 -1.6370 -0.8166
 6634TIP3    H241394   6.701   6.339  12.229  0.3866  0.5453  2.7911
 6635TIP3   OH241395   5.073   1.333   1.913  0.0639 -0.5333  0.3444
 6635TIP3    H141396   4.983   1.357   1.936  0.7488  1.5211  1.0261
 6635TIP3    H241397   5.102   1.401   1.853  0.7998 -1.8165 -0.7964
 6636TIP3   OH241398   2.614   5.868   6.050 -0.3195  0.4579 -0.5691
 6636TIP3    H141399   2.519   5.875   6.058 -0.3954  0.4610 -1.4160
 6636TIP3    H241400   2.644   5.958   6.042 -0.1383  0.5284  0.7044
 6637TIP3   OH241401   0.789   3.785  11.172  0.2206  0.2518  0.0885
 6637TIP3    H141402   0.713   3.739  11.206  0.5415 -0.6083 -0.3404
 6637TIP3    H241403   0.753   3.862  11.127 -0.4778 -0.7381 -1.0810
 6638TIP3   OH241404   5.068   3.811   1.822 -0.7085  0.0997 -0.5403
 6638TIP3    H141405   5.067   3.846   1.733 -0.7692  1.2515 -0.0964
 6638TIP3    H241406   5.154   3.833   1.855 -1.3610  1.3939  0.3459
 6639TIP3   OH241407   0.885   0.809   2.009  0.2669  0.0198  0.1353
 6639TIP3    H141408   0.962   0.781   2.058  1.4328  0.2261 -1.4977
 6639TIP3    H241409   0.919   0.872   1.945 -1.4678  1.0711  0.1852
 6640TIP3   OH241410   0.550   0.085   0.284 -0.8970  0.5454  0.9512
 6640TIP3    H141411   0.524   0.177   0.279  0.4916  0.9995  1.5863
 6640TIP3    H241412   0.551   0.066   0.378  0.1675  0.3118  0.9053
 6641TIP3   OH241413   0.816   5.606   2.938  0.2503  0.5992 -0.2718
 6641TIP3    H141414   0.806   5.545   2.865  1.0379  1.4758 -1.1368
 6641TIP3    H241415   0.906   5.638   2.931  1.5627 -1.7403  3.0243
 6642TIP3   OH241416   1.706   6.149   1.814 -0.1637 -0.0220 -0.0032
 6642TIP3    H141417   1.653   6.115   1.742 -0.2739  1.5750 -0.7141
 6642TIP3    H241418   1.643   6.195   1.869  0.3122  0.9459 -0.2630
 6643TIP3   OH241419   0.359   0.667   0.968  0.1107 -0.3342 -0.0841
 6643TIP3    H141420   0.385   0.579   0.995  0.6599  0.2016  1.2075
 6643TIP3    H241421   0.424   0.693   0.902  0.9654 -0.2439  0.7849
 6644TIP3   OH241422   4.371   4.500   3.301 -0.0555 -0.3047  0.2782
 6644TIP3    H141423   4.286   4.510   3.257  0.8516  0.3289 -1.4514
 6644TIP3    H241424   4.359   4.425   3.359 -1.6713 -0.5068 -0.2508
 6645TIP3   OH241425   6.412   2.678   1.322  0.3320 -0.0181  0.0591
 6645TIP3    H141426   6.350   2.692   1.251  0.1922  0.2157  0.2263
 6645TIP3    H241427   6.361   2.690   1.402 -0.0878 -2.5733  0.2702
 6646TIP3   OH241428   3.939   4.545   4.051 -0.0241 -0.3180  0.2080
 6646TIP3    H141429   3.904   4.614   3.993  1.0601  0.2672  0.2237
 6646TIP3    H241430   4.025   4.525   4.015  0.0024 -1.1053  0.6893
 6647TIP3   OH241431   1.131   4.262  12.501 -0.0995 -0.7320 -0.5223
 6647TIP3    H141432   1.042   4.260  12.537 -0.1989  2.1148 -0.3646
 6647TIP3    H241433   1.132   4.193  12.435 -3.0156  0.2240 -1.7324
 6648TIP3   OH241434   1.457   1.358  12.219 -0.3397 -0.2982 -0.0541
 6648TIP3    H141435   1.537   1.392  12.180  1.0218 -0.9915  2.0065
 6648TIP3    H241436   1.388   1.416  12.186  1.0771  0.7221 -1.3452
 6649TIP3   OH241437   1.478   5.947  13.805 -0.2953 -0.4201 -0.1681
 6649TIP3    H141438   1.389   5.915  13.799 -0.3941  0.0848 -2.6201
 6649TIP3    H241439   1.500   5.941  13.898 -3.6980  1.6888  0.9507
 6650TIP3   OH241440   4.527   2.377  16.712  0.1017  0.8182  0.0910
 6650TIP3    H141441   4.603   2.331  16.678 -1.5279 -0.3578 -2.2645
 6650TIP3    H241442   4.454   2.318  16.696 -1.4170  2.1220  1.7359
 6651TIP3   OH241443   0.424   3.212  16.067  0.0529 -0.7721 -0.0745
 6651TIP3    H141444   0.357   3.147  16.048 -1.5853  0.9116 -0.3750
 6651TIP3    H241445   0.450   3.245  15.981 -2.4523  2.0695  0.0813
 6652TIP3   OH241446   5.343   0.398  12.202  0.5329 -0.1281 -0.0558
 6652TIP3    H141447   5.294   0.316  12.208 -0.5813  0.4628 -0.7584
 6652TIP3    H241448   5.404   0.384  12.130 -1.4643  0.4996 -2.0103
 6653TIP3   OH241449   1.444   4.673   1.129 -0.2202 -0.1822 -0.7053
 6653TIP3    H141450   1.365   4.697   1.080 -0.3551  2.6537  0.7095
 6653TIP3    H241451   1.467   4.752   1.178  1.3445 -2.0808  1.8621
 6654TIP3   OH241452   1.627   2.719  13.254  0.0124  0.1311 -0.0348
 6654TIP3    H141453   1.558   2.661  13.287 -0.5395  0.3821 -0.7271
 6654TIP3    H241454   1.636   2.695  13.161 -0.1091  1.0347 -0.2908
 6655TIP3   OH241455   3.065   1.528  10.877 -0.1695  0.0040  0.6030
 6655TIP3    H141456   2.985   1.486  10.907  0.9202 -2.8029 -0.1161
 6655TIP3    H241457   3.047   1.549  10.785 -0.4740  0.5855  0.7833
 6656TIP3   OH241458   6.718   3.761   2.887 -0.3350 -0.3850  0.3452
 6656TIP3    H141459   6.664   3.835   2.862 -1.5006 -1.1553  0.5231
 6656TIP3    H241460   6.797   3.769   2.833 -1.3910 -0.2279 -1.2317
 6657TIP3   OH241461   3.544   1.909   4.209 -0.1487 -0.5235 -0.2993
 6657TIP3    H141462   3.579   1.934   4.124 -1.0446  0.9321 -0.2724
 6657TIP3    H241463   3.452   1.936   4.206 -0.8609 -2.6863  0.2425
 6658TIP3   OH241464   1.517   4.370  14.110  1.2283  0.0912  0.3240
 6658TIP3    H141465   1.517   4.426  14.188  2.0117  0.0631  0.3471
 6658TIP3    H241466   1.557   4.423  14.042  0.2055  0.2492 -0.1730
 6659TIP3   OH241467   6.012   1.022   0.667 -0.0003 -0.7686  0.2506
 6659TIP3    H141468   6.036   0.930   0.680 -1.1221 -1.0203  0.6625
 6659TIP3    H241469   6.096   1.069   0.669  0.5261 -1.6952  0.7733
 6660TIP3   OH241470   4.228   1.674  12.373 -0.1808 -0.3410  0.3154
 6660TIP3    H141471   4.256   1.681  12.282  0.1686 -0.3319  0.4237
 6660TIP3    H241472   4.134   1.689  12.370 -0.2558 -0.8491 -0.1105
 6661TIP3   OH241473   3.077   5.527   5.252  0.1837  0.1263  0.3841
 6661TIP3    H141474   3.113   5.614   5.233 -0.2215  0.1648 -0.2283
 6661TIP3    H241475   3.046   5.495   5.167 -0.4315 -0.2694  0.7544
 6662TIP3   OH241476   1.601   3.677   2.523  0.8207 -0.3573 -0.6185
 6662TIP3    H141477   1.615   3.643   2.612 -0.2952  1.2261  0.2189
 6662TIP3    H241478   1.682   3.725   2.504  0.3713  0.8218  0.3177
 6663TIP3   OH241479   0.760   1.979  13.270 -0.1551 -0.9853 -0.5927
 6663TIP3    H141480   0.681   1.926  13.279  0.7075 -2.0371  1.5818
 6663TIP3    H241481   0.739   2.062  13.313 -0.3424 -0.9430 -0.7675
 6664TIP3   OH241482   6.088   2.810   3.014  0.2459  0.8281 -0.6875
 6664TIP3    H141483   6.130   2.740   2.964  0.2681  0.7890 -0.6142
 6664TIP3    H241484   6.003   2.823   2.971  0.1060  0.5313 -0.5007
 6665TIP3   OH241485   3.639   0.838  14.865  0.0740 -0.0167  0.5834
 6665TIP3    H141486   3.576   0.870  14.800  0.6478 -1.1436 -0.5719
 6665TIP3    H241487   3.593   0.767  14.909  0.7584 -1.3491 -0.7839
 6666TIP3   OH241488   6.143   2.888   0.102  0.1364  0.1975  0.8609
 6666TIP3    H141489   6.093   2.844   0.171 -1.0597  1.3999  0.8221
 6666TIP3    H241490   6.167   2.818   0.041 -0.5612 -0.5893  1.4608
 6667TIP3   OH241491   5.116   2.591   0.511  0.6189  0.4493  0.0114
 6667TIP3    H141492   5.032   2.560   0.476  1.6540 -1.3093 -1.1089
 6667TIP3    H241493   5.149   2.650   0.444  0.8337  0.1311 -0.1693
 6668TIP3   OH241494   0.521   2.162  11.256 -0.0329  0.1455 -0.8555
 6668TIP3    H141495   0.453   2.128  11.197 -1.6269  1.1344  0.3333
 6668TIP3    H241496   0.594   2.102  11.245 -1.6460 -1.9057 -1.0387
 6669TIP3   OH241497   2.595   0.506   1.223 -0.3332  0.4145  0.2255
 6669TIP3    H141498   2.629   0.517   1.312  1.1439 -1.3097 -0.0897
 6669TIP3    H241499   2.627   0.583   1.175 -0.5082  0.9692  0.9806
 6670TIP3   OH241500   2.169   5.464  15.440  0.0096 -0.1099  0.2763
 6670TIP3    H141501   2.205   5.508  15.517  0.8543 -0.0855 -0.1259
 6670TIP3    H241502   2.159   5.534  15.375 -2.6658  0.2991  0.9871
 6671TIP3   OH241503   0.849   2.175   5.751  0.2195 -0.3033 -0.1031
 6671TIP3    H141504   0.845   2.262   5.789 -0.4461 -0.9294  1.3375
 6671TIP3    H241505   0.941   2.163   5.728  0.3713  0.6529 -0.0107
 6672TIP3   OH241506   5.502   2.691  16.879 -0.4795  0.3187 -0.2250
 6672TIP3    H141507   5.536   2.766  16.831  0.3578 -0.3039 -0.6466
 6672TIP3    H241508   5.566   2.621  16.862 -1.2027 -0.4678  0.1988
 6673TIP3   OH241509   6.107   0.268   5.670  0.2216 -0.1065  0.5261
 6673TIP3    H141510   6.018   0.284   5.638 -0.8854 -1.5845  2.5999
 6673TIP3    H241511   6.140   0.198   5.615 -0.3952 -0.3937  0.5131
 6674TIP3   OH241512   0.514   3.163  13.003  0.4322 -0.6372 -0.3383
 6674TIP3    H141513   0.427   3.196  13.026  0.8053 -0.3977  0.8182
 6674TIP3    H241514   0.558   3.237  12.962  0.3138 -0.5474 -0.3040
 6675TIP3   OH241515   5.195   3.455   5.191  0.3513 -0.7353  0.3984
 6675TIP3    H141516   5.177   3.455   5.285  0.5561 -0.9756  0.4410
 6675TIP3    H241517   5.171   3.543   5.161  2.7264  0.2684  1.1627
 6676TIP3   OH241518   4.916   4.483  17.090 -0.2102  0.5850  0.0910
 6676TIP3    H141519   4.933   4.537  17.167 -1.0563 -2.3880  2.5980
 6676TIP3    H241520   4.864   4.410  17.124 -1.8863 -0.1675 -3.6376
 6677TIP3   OH241521   1.440   0.285   5.533  0.1300 -0.0996 -0.0171
 6677TIP3    H141522   1.424   0.377   5.553  1.2788 -0.2463  1.9068
 6677TIP3    H241523   1.353   0.247   5.524 -0.3675  1.0881 -0.4093
 6678TIP3   OH241524   4.414   2.829   3.416 -0.1215  0.2061  0.0418
 6678TIP3    H141525   4.501   2.845   3.377  0.3816  0.1407  1.0990
 6678TIP3    H241526   4.372   2.915   3.415 -0.3816  0.0913 -1.2152
 6679TIP3   OH241527   4.299   3.485   4.510  0.2156  0.1659 -0.2415
 6679TIP3    H141528   4.221   3.522   4.469  0.3417  0.1159 -0.5311
 6679TIP3    H241529   4.341   3.435   4.440  1.4051  1.5654 -0.5785
 6680TIP3   OH241530   5.549   0.581   1.762  0.1174 -0.2399 -0.1433
 6680TIP3    H141531   5.596   0.509   1.805 -0.3593 -0.4316  0.0560
 6680TIP3    H241532   5.461   0.579   1.799  0.2948  0.8839  0.3653
 6681TIP3   OH241533   5.886   6.620  12.013  0.0782  0.1236  0.0093
 6681TIP3    H141534   5.829   6.622  12.090 -0.3935 -0.6529 -0.3106
 6681TIP3    H241535   5.911   6.711  12.000 -1.2218  0.5169  0.0622
 6682TIP3   OH241536   1.447   1.590  14.198  0.2000 -0.1344  0.4295
 6682TIP3    H141537   1.528   1.539  14.190  0.9905  0.9075  1.3302
 6682TIP3    H241538   1.478   1.680  14.214 -1.1043  0.8836 -2.2287
 6683TIP3   OH241539   1.578   5.650  15.017  0.1438  0.3687 -0.0099
 6683TIP3    H141540   1.537   5.673  14.934  2.2381 -0.2486 -1.2775
 6683TIP3    H241541   1.663   5.614  14.993  0.3364 -0.9657  2.3375
 6684TIP3   OH241542   1.255   5.398  12.170  0.0829  0.4914  0.5371
 6684TIP3    H141543   1.188   5.331  12.182 -0.4019  0.7501 -0.6217
 6684TIP3    H241544   1.336   5.357  12.199  0.1065 -1.2452 -1.7461
 6685TIP3   OH241545   4.222   6.204  14.345 -0.1350 -0.2590  0.7096
 6685TIP3    H141546   4.233   6.138  14.413 -0.6702  0.9700  2.0534
 6685TIP3    H241547   4.230   6.288  14.391  0.4850  0.6447 -0.9193
 6686TIP3   OH241548   0.999   0.085  14.403 -0.3940  0.8866  0.3635
 6686TIP3    H141549   1.014   0.007  14.350 -0.4922 -0.4572  2.1976
 6686TIP3    H241550   1.080   0.136  14.395  0.7022 -0.6556  1.0868
 6687TIP3   OH241551   3.651   6.804   1.740 -0.4001 -0.2225 -0.4008
 6687TIP3    H141552   3.563   6.768   1.749 -0.0874 -0.6523  1.4110
 6687TIP3    H241553   3.638   6.897   1.723 -1.1939 -0.4471 -1.0675
 6688TIP3   OH241554   6.811   3.148  11.689  0.1567  0.2751 -0.5087
 6688TIP3    H141555   6.893   3.102  11.705 -0.1064  0.0682  0.3176
 6688TIP3    H241556   6.792   3.192  11.771 -0.6723  0.1389 -0.6182
 6689TIP3   OH241557   4.097   4.938  14.760  0.2872 -0.0394  0.3112
 6689TIP3    H141558   4.125   5.001  14.694 -2.9179 -0.7162 -1.9253
 6689TIP3    H241559   4.002   4.932  14.749  0.0895 -3.0593  2.4182
 6690TIP3   OH241560   2.472   1.630   0.818 -0.1640  0.4174 -0.9129
 6690TIP3    H141561   2.385   1.606   0.788 -0.3237  0.5214 -0.5406
 6690TIP3    H241562   2.526   1.553   0.798 -0.7411 -0.4129  0.5553
 6691TIP3   OH241563   3.092   6.141   0.800  1.0002  0.7942  0.1326
 6691TIP3    H141564   3.176   6.182   0.822 -0.0369  2.7407  0.7656
 6691TIP3    H241565   3.026   6.202   0.835 -0.6880 -0.0837 -1.3418
 6692TIP3   OH241566   4.843   6.152  14.038 -0.4595  0.1763 -0.2299
 6692TIP3    H141567   4.906   6.204  14.087 -0.2512 -1.2751  1.1588
 6692TIP3    H241568   4.791   6.215  13.990 -0.0017  1.6306  1.1047
 6693TIP3   OH241569   3.891   6.244   0.334  0.2771 -0.0278 -0.2672
 6693TIP3    H141570   3.920   6.322   0.381 -0.7405 -0.2079  0.6935
 6693TIP3    H241571   3.854   6.278   0.252  1.2355  0.3573 -0.5537
 6694TIP3   OH241572   0.887   4.470   4.839 -0.8539 -1.0493  0.3563
 6694TIP3    H141573   0.949   4.470   4.911 -1.8578 -1.1448  1.2509
 6694TIP3    H241574   0.855   4.560   4.835  1.3388 -0.2826 -1.9213
 6695TIP3   OH241575   1.821   0.945   0.775  0.2913  0.5038  0.1486
 6695TIP3    H141576   1.764   0.967   0.702  0.1490 -1.6423 -0.4395
 6695TIP3    H241577   1.909   0.944   0.738  0.1039 -1.8761 -0.4016
 6696TIP3   OH241578   1.894   4.152   3.091  0.0731  0.3798  0.2035
 6696TIP3    H141579   1.799   4.139   3.101  0.2477 -0.7243  0.5893
 6696TIP3    H241580   1.916   4.217   3.157 -0.2335 -0.2305  0.9161
 6697TIP3   OH241581   3.230   5.329   1.592 -0.2011 -0.1322  0.2352
 6697TIP3    H141582   3.256   5.420   1.574 -0.3282 -0.3729 -1.3265
 6697TIP3    H241583   3.180   5.335   1.674  2.5646  0.6784  2.0048
 6698TIP3   OH241584   3.976   6.664  17.052  0.3587  0.4462  0.4107
 6698TIP3    H141585   4.057   6.620  17.025  0.3450  0.6965 -0.0549
 6698TIP3    H241586   3.961   6.634  17.141  0.7960  0.1504  0.3893
 6699TIP3   OH241587   1.933   5.896  15.009 -0.3297 -0.2448 -0.0478
 6699TIP3    H141588   1.929   5.815  15.059 -0.3314 -0.3544 -0.2283
 6699TIP3    H241589   1.986   5.875  14.932  0.8470  0.2734  0.5833
 6700TIP3   OH241590   6.575   1.539  13.250 -0.0142 -0.8860 -0.5516
 6700TIP3    H141591   6.591   1.468  13.313  0.0799  0.4019  0.9253
 6700TIP3    H241592   6.565   1.617  13.304 -1.5101  0.0167 -2.0469
 6701TIP3   OH241593   4.396   4.800   0.555  0.3760  0.2236  0.0577
 6701TIP3    H141594   4.364   4.824   0.642  0.1291  1.0322 -0.2530
 6701TIP3    H241595   4.485   4.767   0.570  0.1769 -0.0333  0.6658
 6702TIP3   OH241596   0.782   4.785  15.059  0.2256  0.3009  0.2556
 6702TIP3    H141597   0.726   4.832  14.997  1.2525  0.5867 -0.4768
 6702TIP3    H241598   0.771   4.832  15.141 -1.0851 -0.0307  0.2888
 6703TIP3   OH241599   5.934   1.224   3.911  0.0180 -0.2836 -0.3473
 6703TIP3    H141600   5.852   1.271   3.924  0.3295 -0.1285  1.2202
 6703TIP3    H241601   5.997   1.292   3.886  1.0165  0.7100  4.0595
 6704TIP3   OH241602   3.723   1.833   2.543 -0.2098  0.3794  0.2292
 6704TIP3    H141603   3.643   1.781   2.544 -0.0711  0.1588  1.3601
 6704TIP3    H241604   3.776   1.797   2.614  2.4912 -1.8530 -2.6385
 6705TIP3   OH241605   5.519   2.765   2.046 -0.4257 -0.0720 -0.2065
 6705TIP3    H141606   5.473   2.725   2.120  0.9955 -1.4940 -0.0476
 6705TIP3    H241607   5.499   2.858   2.053 -4.1974 -0.6500 -0.7993
 6706TIP3   OH241608   6.158   1.788   4.584 -0.0607  0.2184  0.5887
 6706TIP3    H141609   6.247   1.754   4.591  0.0637  0.5679  0.7192
 6706TIP3    H241610   6.151   1.819   4.493  0.8896  2.7286  1.2690
 6707TIP3   OH241611   4.660   1.395   4.981 -0.7007  0.9312 -0.0899
 6707TIP3    H141612   4.598   1.330   4.950 -1.6583  2.3163 -1.1691
 6707TIP3    H241613   4.679   1.449   4.905  0.0601  1.9282  0.7746
 6708TIP3   OH241614   6.341   5.586  12.031  0.3177 -0.0815 -0.1340
 6708TIP3    H141615   6.340   5.632  12.114  0.8256  1.7248 -1.0758
 6708TIP3    H241616   6.249   5.584  12.003  0.3787  1.2458 -0.5091
 6709TIP3   OH241617   2.236   2.599   5.300 -0.4189  0.1582  0.4326
 6709TIP3    H141618   2.268   2.633   5.383 -1.6713  0.4176  0.8325
 6709TIP3    H241619   2.314   2.590   5.246  0.3533  0.4334  1.4764
 6710TIP3   OH241620   6.801   0.251  12.507  0.2080  0.0691 -0.0679
 6710TIP3    H141621   6.884   0.296  12.492 -0.4870  2.7474  3.0405
 6710TIP3    H241622   6.736   0.306  12.464 -0.3635  0.6156  1.4263
 6711TIP3   OH241623   1.007   3.976  14.917  0.6551  0.3937 -0.8015
 6711TIP3    H141624   1.090   4.024  14.923  0.4955  1.0168 -2.7153
 6711TIP3    H241625   0.947   4.039  14.876 -1.1386  0.3660  1.5877
 6712TIP3   OH241626   4.437   1.204  15.057 -0.0280 -0.1582 -0.1625
 6712TIP3    H141627   4.506   1.161  15.007  0.3750 -0.1696  0.3940
 6712TIP3    H241628   4.371   1.135  15.069 -1.0009  0.3228 -2.2226
 6713TIP3   OH241629   3.250   5.935  14.975 -0.3587  0.6223 -0.1455
 6713TIP3    H141630   3.312   5.898  15.037 -1.5853  2.5627  2.4659
 6713TIP3    H241631   3.302   5.994  14.921  0.6135 -0.5213 -0.4949
 6714TIP3   OH241632   5.694   5.969   4.259 -0.0877  0.3994  0.1132
 6714TIP3    H141633   5.671   5.912   4.186  0.3424  0.6410 -0.2212
 6714TIP3    H241634   5.709   5.910   4.333  2.9276 -0.2188 -0.8532
 6715TIP3   OH241635   0.315   0.278  12.698  0.2416  0.1743  0.2551
 6715TIP3    H141636   0.371   0.217  12.746  0.3289 -0.5675 -0.7677
 6715TIP3    H241637   0.266   0.324  12.766 -1.0212 -2.1742  1.0298
 6716TIP3   OH241638   0.333   3.284   3.939  0.8516 -0.0065  0.3225
 6716TIP3    H141639   0.267   3.215   3.949 -1.2630  2.0377  1.4977
 6716TIP3    H241640   0.344   3.293   3.844 -1.1241  0.0454  0.0612
 6717TIP3   OH241641   4.653   3.645  12.147  0.8658 -0.5238 -0.3186
 6717TIP3    H141642   4.720   3.652  12.214 -1.1867  0.3992  1.7761
 6717TIP3    H241643   4.581   3.597  12.189 -0.5649  0.2308 -1.7785
 6718TIP3   OH241644   1.364   1.199  11.509 -0.1508 -0.2666 -0.2150
 6718TIP3    H141645   1.453   1.224  11.483  0.1973 -1.2563 -0.0617
 6718TIP3    H241646   1.327   1.159  11.431 -0.4573  0.1314 -0.2725
 6719TIP3   OH241647   3.688   2.225  15.701  0.1778 -0.6143  0.3358
 6719TIP3    H141648   3.773   2.266  15.715 -0.3290  0.0801  1.5283
 6719TIP3    H241649   3.640   2.288  15.646  0.4089 -0.9960 -0.3185
 6720TIP3   OH241650   0.557   2.439   1.995 -0.1481 -0.1496  0.5063
 6720TIP3    H141651   0.464   2.457   1.980 -0.0040  1.7047  1.4499
 6720TIP3    H241652   0.598   2.452   1.910 -0.5172  1.0793  0.4870
 6721TIP3   OH241653   1.325   6.431  16.731 -0.2059 -0.5891  0.2828
 6721TIP3    H141654   1.372   6.418  16.813  1.3856 -1.5360 -0.7284
 6721TIP3    H241655   1.372   6.503  16.688 -0.1732 -1.0050 -0.3866
 6722TIP3   OH241656   2.505   3.722   3.895 -0.4641  0.5532  0.2280
 6722TIP3    H141657   2.584   3.668   3.895 -0.3686  0.6637  1.4300
 6722TIP3    H241658   2.536   3.810   3.876 -0.7604  0.0789 -2.9764
 6723TIP3   OH241659   1.484   1.557  16.577  0.1680 -0.7204  0.1991
 6723TIP3    H141660   1.392   1.582  16.580  0.3989  0.1042  1.4223
 6723TIP3    H241661   1.520   1.605  16.502 -0.4627 -1.3430 -0.5112
 6724TIP3   OH241662   2.264   3.386   1.660  0.1045  0.2454  0.0252
 6724TIP3    H141663   2.226   3.299   1.671 -0.9012  0.4693 -1.3929
 6724TIP3    H241664   2.203   3.445   1.704  0.3073  0.3323  0.1945
 6725TIP3   OH241665   5.260   5.562  12.642 -0.4064  0.5932 -0.1553
 6725TIP3    H141666   5.257   5.645  12.690  2.6763  1.2411 -0.8181
 6725TIP3    H241667   5.325   5.510  12.689 -2.0256 -1.3640  0.0263
 6726TIP3   OH241668   1.363   1.905  11.342  0.1270  1.0685  0.1231
 6726TIP3    H141669   1.283   1.870  11.382  0.5642  0.6971  0.6834
 6726TIP3    H241670   1.412   1.943  11.415  0.3068  1.6122 -0.2680
 6727TIP3   OH241671   0.695   1.558   4.735 -0.0342 -0.1843 -0.2210
 6727TIP3    H141672   0.782   1.520   4.750  0.4167  0.7533 -0.4389
 6727TIP3    H241673   0.705   1.613   4.658 -1.6423 -2.6881 -2.4034
 6728TIP3   OH241674   3.079   2.685  13.669  0.0332  0.2512  0.3908
 6728TIP3    H141675   3.131   2.664  13.747 -1.2142 -1.3897  0.8700
 6728TIP3    H241676   3.086   2.780  13.659  3.2481  0.0782  0.2584
 6729TIP3   OH241677   0.708   4.661  16.470  0.4340  0.2586 -0.0900
 6729TIP3    H141678   0.658   4.682  16.391 -0.1888  0.6176  0.3861
 6729TIP3    H241679   0.798   4.683  16.448  0.0350  2.0327 -0.1425
 6730TIP3   OH241680   1.678   5.240  16.746 -0.5731  0.1886  0.3728
 6730TIP3    H141681   1.746   5.177  16.721 -1.8007 -0.8964 -0.3592
 6730TIP3    H241682   1.724   5.304  16.801  0.7906 -1.1719  0.8982
 6731TIP3   OH241683   4.522   0.362  14.769  0.2457  0.5101 -0.0467
 6731TIP3    H141684   4.428   0.378  14.769 -0.6749 -3.6878 -0.6128
 6731TIP3    H241685   4.550   0.383  14.679 -0.7047 -0.4705 -0.5960
 6732TIP3   OH241686   5.076   3.521   1.810 -0.1732  0.2590 -0.1103
 6732TIP3    H141687   5.081   3.490   1.719  0.5927 -0.6993  0.2451
 6732TIP3    H241688   5.100   3.614   1.804 -0.8560  0.3916 -0.9762
 6733TIP3   OH241689   1.933   3.319   1.383 -0.1972  0.0165  0.0854
 6733TIP3    H141690   1.910   3.381   1.452  0.0653  0.8501 -0.5581
 6733TIP3    H241691   1.877   3.344   1.310 -0.2033 -0.6156 -0.1251
 6734TIP3   OH241692   4.758   5.521  16.784 -0.7759 -0.1466  0.2499
 6734TIP3    H141693   4.688   5.468  16.822  0.5698 -1.6634  0.7135
 6734TIP3    H241694   4.712   5.591  16.737 -2.5511  0.0216  2.1022
 6735TIP3   OH241695   0.088   6.562  14.978 -0.7026 -0.0573  0.1001
 6735TIP3    H141696   0.146   6.540  15.051 -0.5529  1.7499  0.5630
 6735TIP3    H241697   0.146   6.594  14.909 -1.0902  1.2563  0.3711
 6736TIP3   OH241698   4.547   5.451   1.424  1.0922 -0.0402  0.3882
 6736TIP3    H141699   4.509   5.529   1.384 -0.2783 -0.6826  0.3560
 6736TIP3    H241700   4.579   5.480   1.510 -0.0891  0.4147  0.6910
 6737TIP3   OH241701   0.206   5.982   3.420  0.0352 -0.1273 -0.1726
 6737TIP3    H141702   0.251   5.909   3.463  0.0134  0.5739  1.0840
 6737TIP3    H241703   0.221   6.057   3.478  0.1592  0.9009 -1.5065
 6738TIP3   OH241704   1.892   3.774   2.255  0.0274  0.3247  0.4517
 6738TIP3    H141705   1.848   3.835   2.195 -1.1026 -1.0905 -0.2253
 6738TIP3    H241706   1.869   3.805   2.342 -1.9034 -0.0169  0.1175
 6739TIP3   OH241707   6.427   1.468  17.055  0.2441  0.1627 -0.3621
 6739TIP3    H141708   6.396   1.517  17.131  1.6402 -1.2678  1.1974
 6739TIP3    H241709   6.505   1.516  17.026 -1.1202  1.5779 -1.9219
 6740TIP3   OH241710   3.922   2.353   0.306  0.5372  0.1648  0.1644
 6740TIP3    H141711   3.907   2.448   0.302  2.6091  0.5211 -0.2845
 6740TIP3    H241712   4.017   2.344   0.314  0.2234 -1.8344  2.8466
 6741TIP3   OH241713   4.573   1.397  13.944 -0.3027  0.2050  0.2468
 6741TIP3    H141714   4.652   1.346  13.961  0.9390  2.1543  0.6796
 6741TIP3    H241715   4.508   1.333  13.915  0.5867 -1.8461  2.4644
 6742TIP3   OH241716   3.523   5.315   2.618 -0.0879 -0.3127 -0.4659
 6742TIP3    H141717   3.586   5.305   2.690 -0.2676  1.2960 -0.0410
 6742TIP3    H241718   3.513   5.410   2.609 -0.8682 -0.5181 -1.9318
 6743TIP3   OH241719   4.998   1.528   1.507 -0.1052 -0.2510 -0.1715
 6743TIP3    H141720   5.057   1.455   1.527 -1.4459 -0.9212  1.5836
 6743TIP3    H241721   4.947   1.497   1.432  0.7362 -0.2611 -0.7511
 6744TIP3   OH241722   4.118   5.688  12.206  0.2337 -0.7133  0.2673
 6744TIP3    H141723   4.140   5.751  12.137 -4.3669 -0.1725 -1.0982
 6744TIP3    H241724   4.090   5.610  12.158  0.3694 -1.6652  1.6878
 6745TIP3   OH241725   4.385   6.488   1.465 -0.1718 -0.0751  0.2439
 6745TIP3    H141726   4.298   6.525   1.478 -0.1570  0.0077  0.1082
 6745TIP3    H241727   4.443   6.565   1.463 -0.2708 -0.0248 -1.1678
 6746TIP3   OH241728   0.329   2.353  11.791 -0.2574  0.0079 -0.5607
 6746TIP3    H141729   0.283   2.306  11.861 -0.4375  0.4611 -0.3703
 6746TIP3    H241730   0.287   2.322  11.710 -0.7896  0.2955 -0.3967
 6747TIP3   OH241731   2.726   5.043   1.021  0.5037  0.6511  0.5989
 6747TIP3    H141732   2.764   5.103   1.085 -0.2298  0.1948  1.4959
 6747TIP3    H241733   2.638   5.024   1.055  0.9671 -1.5059  0.7708
 6748TIP3   OH241734   1.553   3.690  11.897 -0.4328 -0.0497 -0.1372
 6748TIP3    H141735   1.567   3.784  11.886 -2.0661  0.0632 -1.7571
 6748TIP3    H241736   1.638   3.656  11.923  0.4221  1.7441 -0.4407
 6749TIP3   OH241737   0.461   6.807  13.247 -0.2529  0.0516  0.4568
 6749TIP3    H141738   0.369   6.805  13.219  0.1897 -0.6175 -1.0863
 6749TIP3    H241739   0.509   6.776  13.170  1.3225  0.9821  1.0316
 6750TIP3   OH241740   1.312   4.201  14.237 -0.4332  0.3047 -0.0796
 6750TIP3    H141741   1.336   4.269  14.173  0.7772  0.5411  0.5827
 6750TIP3    H241742   1.384   4.202  14.301 -1.1867 -0.5103  0.8194
 6751TIP3   OH241743   1.459   6.031   4.845  0.3517 -0.0328  0.2400
 6751TIP3    H141744   1.462   6.120   4.811 -0.2691 -0.3509 -0.6835
 6751TIP3    H241745   1.531   6.027   4.908 -0.3420  1.4591  1.1559
 6752TIP3   OH241746   4.720   2.664  11.430  0.2135 -0.4013  0.4258
 6752TIP3    H141747   4.750   2.667  11.339  0.0274  0.2229  0.3827
 6752TIP3    H241748   4.629   2.693  11.426  0.5625  0.8147  0.9558
 6753TIP3   OH241749   2.808   0.750   4.466 -0.3540  0.3447 -0.1484
 6753TIP3    H141750   2.753   0.699   4.525 -1.1472 -0.1039 -1.2483
 6753TIP3    H241751   2.785   0.841   4.484 -0.3809  0.2307  0.4227
 6754TIP3   OH241752   3.907   6.730   4.055 -0.0253  0.0516 -0.3360
 6754TIP3    H141753   3.967   6.657   4.068 -0.5575 -0.3089  0.1455
 6754TIP3    H241754   3.914   6.781   4.136 -0.4926 -0.0867 -0.2065
 6755TIP3   OH241755   3.917   2.407  12.564 -0.0092  0.0716  0.0882
 6755TIP3    H141756   3.829   2.436  12.587  0.6432  1.1764  1.3980
 6755TIP3    H241757   3.967   2.489  12.554  0.8066 -0.5214 -0.9141
 6756TIP3   OH241758   3.836   4.614   3.107  0.6317  0.6420  0.1202
 6756TIP3    H141759   3.859   4.575   3.191 -0.2134  1.1005  0.5782
 6756TIP3    H241760   3.900   4.579   3.046  0.5113 -0.6530  0.7185
 6757TIP3   OH241761   4.827   4.741  14.016 -0.2558 -0.3733  0.4006
 6757TIP3    H141762   4.823   4.794  14.096  0.0589 -4.2679  3.2688
 6757TIP3    H241763   4.916   4.708  14.013 -0.0761  0.1290 -2.0219
 6758TIP3   OH241764   6.794   5.732   0.680 -0.2824  0.0186 -0.1417
 6758TIP3    H141765   6.844   5.720   0.761 -1.9519  0.1293  0.9558
 6758TIP3    H241766   6.705   5.751   0.710 -1.2745 -1.4019 -2.0241
 6759TIP3   OH241767   0.056   4.559   1.477 -0.2016 -0.3991  0.6364
 6759TIP3    H141768   0.020   4.496   1.540 -1.3504 -0.7424 -0.3175
 6759TIP3    H241769  -0.015   4.572   1.414  0.6565  0.5025 -0.1691
 6760TIP3   OH241770   4.556   4.943  10.878 -0.8453 -0.7317 -0.4704
 6760TIP3    H141771   4.565   4.854  10.910 -1.2249 -0.3410  0.7455
 6760TIP3    H241772   4.643   4.982  10.890 -1.4095 -0.0442  1.8336
 6761TIP3   OH241773   5.136   2.031  12.820  1.0838  0.0816  0.2004
 6761TIP3    H141774   5.094   2.060  12.739  0.8888 -0.1367  0.2212
 6761TIP3    H241775   5.227   2.018  12.796  0.5018 -2.9423 -0.7969
 6762TIP3   OH241776   5.460   4.304   4.115 -0.3703  0.6061 -0.1865
 6762TIP3    H141777   5.456   4.377   4.176  0.8583  0.9224 -0.4553
 6762TIP3    H241778   5.501   4.340   4.037 -0.6085 -0.1488 -0.6742
 6763TIP3   OH241779   1.606   4.498   0.258  0.1560 -0.1728  0.1680
 6763TIP3    H141780   1.609   4.570   0.195 -0.4311  1.0064  1.4244
 6763TIP3    H241781   1.678   4.515   0.318  0.3722 -0.9793  0.1561
 6764TIP3   OH241782   0.185   4.650  12.799  0.0372 -0.8056 -0.3054
 6764TIP3    H141783   0.169   4.569  12.847  0.2203  0.5384  2.1975
 6764TIP3    H241784   0.190   4.717  12.867 -2.2804  1.6830 -2.3603
 6765TIP3   OH241785   6.008   2.361   0.744 -0.1111 -0.0090 -0.8531
 6765TIP3    H141786   6.041   2.419   0.676 -1.3162 -0.5353 -1.9158
 6765TIP3    H241787   5.915   2.383   0.752  0.1761  0.6767  1.2903
 6766TIP3   OH241788   5.924   5.650   3.940 -0.3327 -0.0258  0.2810
 6766TIP3    H141789   6.014   5.683   3.934 -0.0420 -0.6464  1.0616
 6766TIP3    H241790   5.905   5.618   3.852 -0.2472  1.2321 -0.2176
 6767TIP3   OH241791   4.200   3.791   1.768  0.1775 -0.7334  0.4851
 6767TIP3    H141792   4.293   3.814   1.779  0.1569 -0.9233  1.0469
 6767TIP3    H241793   4.192   3.772   1.674  0.5244  0.0793  0.2722
 6768TIP3   OH241794   4.877   1.901  16.101  0.1052  0.1217  0.1509
 6768TIP3    H141795   4.839   1.930  16.183 -2.4241 -1.7347 -0.2226
 6768TIP3    H241796   4.929   1.824  16.124 -0.2127 -0.1124  0.0992
 6769TIP3   OH241797   1.261   1.470   1.627 -0.3334 -0.0499  0.2651
 6769TIP3    H141798   1.332   1.531   1.649  0.1764 -0.1809 -0.9690
 6769TIP3    H241799   1.186   1.527   1.612 -0.0130  0.2430 -0.2762
 6770TIP3   OH241800   6.045   2.386  10.899  0.5286 -0.5496  0.3014
 6770TIP3    H141801   6.115   2.387  10.833  1.0381  0.1309  0.8311
 6770TIP3    H241802   5.994   2.465  10.881 -1.1413 -1.9086 -1.1354
 6771TIP3   OH241803   2.484   1.964  13.972 -0.4098  0.0841  0.2601
 6771TIP3    H141804   2.443   2.007  13.897 -1.9988 -1.5028  0.1796
 6771TIP3    H241805   2.561   1.920  13.935 -0.0867  0.8819 -0.0604
 6772TIP3   OH241806   1.826   4.259   4.388  0.4106 -0.1246  0.7658
 6772TIP3    H141807   1.913   4.298   4.374  0.8305 -1.4695 -0.6847
 6772TIP3    H241808   1.769   4.307   4.328  0.6898 -0.9147 -0.1545
 6773TIP3   OH241809   0.479   2.485  13.457  0.2745  0.0749 -0.0301
 6773TIP3    H141810   0.463   2.397  13.423 -3.2329  0.6155 -0.2074
 6773TIP3    H241811   0.422   2.493  13.534  1.6131  1.7286  0.8763
 6774TIP3   OH241812   2.406   5.982   4.917 -0.0333 -0.5779  0.4298
 6774TIP3    H141813   2.336   5.997   4.982  1.0550 -0.3255  1.5812
 6774TIP3    H241814   2.481   5.953   4.969  0.7791 -0.6865 -0.7674
 6775TIP3   OH241815   5.853   2.855   2.553 -0.7447  0.4504 -0.4738
 6775TIP3    H141816   5.760   2.877   2.545 -1.0489 -1.2745 -2.5191
 6775TIP3    H241817   5.897   2.917   2.495 -1.0142 -0.6896 -1.9634
 6776TIP3   OH241818   6.282   4.785  13.677 -0.4833  0.2365  0.0878
 6776TIP3    H141819   6.310   4.877  13.684 -0.6619  0.2554  0.5328
 6776TIP3    H241820   6.192   4.785  13.708 -0.2145 -0.2326  0.8865
 6777TIP3   OH241821   3.676   1.978   0.218 -0.0392  0.0365  0.3064
 6777TIP3    H141822   3.589   1.953   0.189  0.2980  2.4034 -3.3118
 6777TIP3    H241823   3.729   1.899   0.204 -0.6900 -0.0389 -2.2685
 6778TIP3   OH241824   1.014   1.242  17.028 -0.1684  0.3513  0.0307
 6778TIP3    H141825   0.996   1.306  16.958 -0.5119 -0.6249 -0.7919
 6778TIP3    H241826   0.942   1.255  17.090 -1.7932 -1.0214 -1.4520
 6779TIP3   OH241827   3.883   2.516  13.507 -0.0413  0.4756 -0.5651
 6779TIP3    H141828   3.942   2.591  13.513  1.5681 -0.7971  0.2620
 6779TIP3    H241829   3.805   2.542  13.556  0.6773  1.4366  0.0882
 6780TIP3   OH241830   1.047   2.874  12.269  0.0802 -0.3354  0.7955
 6780TIP3    H141831   1.024   2.966  12.281 -0.0942 -0.1316 -0.8424
 6780TIP3    H241832   0.983   2.841  12.207  1.6564 -0.8477 -0.6484
 6781TIP3   OH241833   2.669   0.684  12.330  0.3952  0.4715  0.4510
 6781TIP3    H141834   2.706   0.771  12.314 -0.7818  0.7861 -0.7659
 6781TIP3    H241835   2.578   0.702  12.355 -0.0874 -0.4301 -0.5968
 6782TIP3   OH241836   3.664   3.019   3.451 -0.0348 -0.0177  0.2034
 6782TIP3    H141837   3.676   3.087   3.385 -0.5197 -0.7499 -0.6756
 6782TIP3    H241838   3.618   3.062   3.522 -0.0661  0.6424 -0.2087
 6783TIP3   OH241839   2.232   0.359  13.897  0.1922 -0.1657 -0.0700
 6783TIP3    H141840   2.199   0.357  13.807  0.5613  1.1645 -0.2633
 6783TIP3    H241841   2.307   0.419  13.893 -0.6064  0.9718  1.3955
 6784TIP3   OH241842   0.396   3.770  14.967  0.5456  0.2487  0.1700
 6784TIP3    H141843   0.433   3.697  14.918 -0.0904  0.3029 -0.4092
 6784TIP3    H241844   0.368   3.833  14.900 -0.3037  0.3339  0.5860
 6785TIP3   OH241845   0.039   1.872  15.320 -0.4587 -0.5657 -0.0946
 6785TIP3    H141846   0.117   1.847  15.371  0.2955  0.1808 -0.8421
 6785TIP3    H241847  -0.001   1.943  15.371  0.0623 -0.1021 -0.3174
 6786TIP3   OH241848   4.843   1.401  15.912  0.4756  0.2996 -0.2551
 6786TIP3    H141849   4.767   1.370  15.863  1.1663  1.5100 -2.1804
 6786TIP3    H241850   4.901   1.325  15.917 -0.2568 -0.2540  0.0587
 6787TIP3   OH241851   0.120   1.966   3.779  0.4865 -0.7619 -0.6604
 6787TIP3    H141852   0.093   2.057   3.794  1.9555 -0.5049  0.6357
 6787TIP3    H241853   0.104   1.923   3.863  0.5248 -1.5240 -1.0372
 6788TIP3   OH241854   0.835   5.211  16.552 -0.9481 -0.2989 -0.1668
 6788TIP3    H141855   0.774   5.203  16.479 -0.8494  0.3110 -0.3259
 6788TIP3    H241856   0.919   5.235  16.511 -1.3625  2.2313  0.2528
 6789TIP3   OH241857   0.737   0.612   4.849  0.0367  0.3844  0.2974
 6789TIP3    H141858   0.732   0.561   4.768  0.8684  0.6846  0.0433
 6789TIP3    H241859   0.685   0.690   4.832 -1.3910 -0.4450  0.7525
 6790TIP3   OH241860   3.675   3.798  17.102 -1.1448 -0.2852  0.1728
 6790TIP3    H141861   3.619   3.830  17.031 -0.4508  0.1969 -0.1675
 6790TIP3    H241862   3.764   3.807  17.068 -0.8608 -1.2854  0.6047
 6791TIP3   OH241863   5.442   0.791  11.625 -0.0741  0.4179  0.1330
 6791TIP3    H141864   5.409   0.759  11.709  0.8521  1.7692  1.0603
 6791TIP3    H241865   5.529   0.825  11.645  1.1663 -1.3112 -1.8595
 6792TIP3   OH241866   6.817   1.827   5.300 -0.1975  0.0178 -0.1398
 6792TIP3    H141867   6.885   1.865   5.356  0.1131 -2.7094  1.5432
 6792TIP3    H241868   6.737   1.831   5.354 -0.6640  0.3643 -0.8483
 6793TIP3   OH241869   0.580   1.167  12.487 -0.5076 -0.0234 -0.1468
 6793TIP3    H141870   0.569   1.179  12.582  1.0105 -0.1937  0.0775
 6793TIP3    H241871   0.537   1.083  12.469  0.1155 -0.5192  0.5990
 6794TIP3   OH241872   0.070   1.134   4.650 -0.3352  0.4093 -0.5082
 6794TIP3    H141873   0.110   1.218   4.673 -0.3863  0.4953 -0.7295
 6794TIP3    H241874   0.123   1.069   4.695  1.0331  0.4071 -2.0619
 6795TIP3   OH241875   6.596   1.537  11.903  0.1360 -0.1828  0.3353
 6795TIP3    H141876   6.518   1.564  11.855  1.2178  2.0283 -0.3203
 6795TIP3    H241877   6.669   1.574  11.854  1.3332  1.9148  3.3968
 6796TIP3   OH241878   6.020   3.347  14.607 -0.0998 -0.7784  0.1077
 6796TIP3    H141879   6.108   3.370  14.638  0.6163 -1.5658 -1.2814
 6796TIP3    H241880   6.034   3.279  14.542 -1.7957 -1.3206  0.2645
 6797TIP3   OH241881   3.981   5.890  15.282  0.4700 -0.5430  0.1462
 6797TIP3    H141882   3.965   5.973  15.328  1.2919 -0.3410  0.0823
 6797TIP3    H241883   4.028   5.836  15.345 -1.9313 -1.8215  0.9823
 6798TIP3   OH241884   5.696   2.366   2.542  0.3246 -0.5066 -0.3975
 6798TIP3    H141885   5.643   2.319   2.606  0.0308 -1.1325 -1.0853
 6798TIP3    H241886   5.639   2.376   2.465  1.2695 -1.4361 -1.2555
 6799TIP3   OH241887   0.153   3.143   1.997 -0.8653 -0.1603  0.2705
 6799TIP3    H141888   0.066   3.158   1.959 -0.2440  2.1959 -0.4200
 6799TIP3    H241889   0.174   3.226   2.041  1.4809 -0.2268 -0.5718
 6800TIP3   OH241890   3.965   0.334  16.572  0.4626 -0.4008  0.1438
 6800TIP3    H141891   3.998   0.417  16.606 -0.8530  0.3543 -0.3678
 6800TIP3    H241892   3.959   0.278  16.649 -0.0722  0.4796  0.7659
 6801TIP3   OH241893   3.500   1.279   3.348  0.3391  0.3237  0.0818
 6801TIP3    H141894   3.537   1.214   3.408 -1.7665  0.6123  1.8324
 6801TIP3    H241895   3.407   1.255   3.343  0.4485  0.2074 -3.2931
 6802TIP3   OH241896   1.934   3.189   4.164  0.0216  0.4091  0.2418
 6802TIP3    H141897   2.017   3.221   4.199  0.2870 -2.0379  2.1320
 6802TIP3    H241898   1.867   3.236   4.214  0.2801  1.3171 -0.2516
 6803TIP3   OH241899   3.353   1.809  12.700 -0.3762  0.2162  0.0389
 6803TIP3    H141900   3.397   1.823  12.616  0.8009  0.4605  0.6839
 6803TIP3    H241901   3.274   1.862  12.695  0.1264  0.9116 -0.5810
 6804TIP3   OH241902   3.352   3.232  13.832 -0.8189 -0.3585  0.0112
 6804TIP3    H141903   3.266   3.261  13.863 -0.8566 -1.1306  0.6603
 6804TIP3    H241904   3.382   3.303  13.775 -1.2016  0.6184  0.9965
 6805TIP3   OH241905   6.239   1.494  12.723  0.1635  0.1296 -0.1501
 6805TIP3    H141906   6.209   1.539  12.802  0.9553 -0.1074  0.3017
 6805TIP3    H241907   6.170   1.431  12.703 -0.3661  0.6749 -0.0552
 6806TIP3   OH241908   3.450   6.613  13.765  0.9244 -0.4652  0.2046
 6806TIP3    H141909   3.380   6.629  13.703  0.3653 -1.0504  0.6614
 6806TIP3    H241910   3.530   6.631  13.717  0.5061 -1.0330 -0.7227
 6807TIP3   OH241911   2.950   1.623  14.350 -0.1438  0.5454 -0.2086
 6807TIP3    H141912   2.974   1.590  14.437 -0.3616  1.1858  0.1029
 6807TIP3    H241913   2.855   1.636  14.355 -0.2255  0.1514 -0.6954
 6808TIP3   OH241914   2.619   0.496   1.510  0.1075  0.2562 -0.2500
 6808TIP3    H141915   2.555   0.428   1.493  0.8283 -0.4652 -0.1186
 6808TIP3    H241916   2.596   0.529   1.597  1.3994 -1.7463  0.9341
 6809TIP3   OH241917   2.927   1.808  14.014  0.0231 -0.5219  0.7996
 6809TIP3    H141918   2.970   1.726  14.036  0.5139 -0.4122  0.2501
 6809TIP3    H241919   2.998   1.867  13.991 -0.4831 -1.0380 -2.5441
 6810TIP3   OH241920   2.317   6.765   1.050 -0.0237 -0.0616 -0.5162
 6810TIP3    H141921   2.350   6.854   1.050 -0.4510  0.0977 -0.1744
 6810TIP3    H241922   2.324   6.736   1.141 -0.4527 -0.1623 -0.5128
 6811TIP3   OH241923   3.266   3.713  17.172  0.2378  0.2649  0.2135
 6811TIP3    H141924   3.269   3.682  17.262 -1.7914  0.4714  0.3998
 6811TIP3    H241925   3.187   3.672  17.135 -0.0483  1.6922 -0.8709
 6812TIP3   OH241926   3.955   2.149   0.008  0.6572 -0.0271  0.4395
 6812TIP3    H141927   4.007   2.069   0.008 -0.1101 -0.5512 -0.6284
 6812TIP3    H241928   3.873   2.124  -0.035  0.3030  1.2598  0.3358
 6813TIP3   OH241929   4.097   0.185   3.092  0.3477 -0.2512  0.2613
 6813TIP3    H141930   4.125   0.138   3.171 -1.0387  1.0091  1.5724
 6813TIP3    H241931   4.054   0.119   3.039  1.4615 -1.1645  0.4664
 6814TIP3   OH241932   0.355   5.054  10.894 -0.3334 -0.3102 -0.4996
 6814TIP3    H141933   0.310   5.041  10.978  0.2489 -0.6425 -0.2329
 6814TIP3    H241934   0.385   4.966  10.870 -2.7501 -0.7186 -2.3687
 6815TIP3   OH241935   0.157   3.303   0.136 -0.1671  0.2507  0.2423
 6815TIP3    H141936   0.205   3.353   0.070  1.5802 -1.4842  0.1375
 6815TIP3    H241937   0.085   3.262   0.088 -0.7507  1.4185  0.0606
 6816TIP3   OH241938   4.663   3.571  14.929  0.2980 -0.5708 -0.9783
 6816TIP3    H141939   4.703   3.641  14.877  1.1110  0.3225  0.7824
 6816TIP3    H241940   4.570   3.575  14.907  0.2929  1.2339 -0.7225
 6817TIP3   OH241941   3.529   6.794   2.399 -0.0877 -0.2983  0.0992
 6817TIP3    H141942   3.616   6.788   2.360  0.5428  0.5681  1.3225
 6817TIP3    H241943   3.514   6.887   2.411 -1.9553 -0.2862 -1.6936
 6818TIP3   OH241944   0.421   2.374  12.851 -0.2713 -0.3688 -0.4742
 6818TIP3    H141945   0.446   2.462  12.825 -0.7277 -0.6242 -1.9108
 6818TIP3    H241946   0.353   2.386  12.918  0.3273  0.3436  0.0129
 6819TIP3   OH241947   3.905   6.816  16.138 -0.2811 -0.2961 -0.4498
 6819TIP3    H141948   3.902   6.720  16.135 -1.7360 -0.2720 -3.8927
 6819TIP3    H241949   3.992   6.838  16.103 -1.0052 -0.4069 -2.4231
 6820TIP3   OH241950   1.979   2.531   5.261  0.6272 -0.3358  0.4292
 6820TIP3    H141951   2.071   2.515   5.281  0.6633 -1.0561 -0.2325
 6820TIP3    H241952   1.943   2.573   5.339  1.4492 -0.3144  0.7989
 6821TIP3   OH241953   4.915   6.167   4.961 -0.4573  0.2900  0.5134
 6821TIP3    H141954   4.970   6.150   4.885 -2.3669 -0.8481 -0.6835
 6821TIP3    H241955   4.959   6.239   5.007  1.1439  0.4841 -1.2260
 6822TIP3   OH241956   6.148   5.557   1.350 -0.0214  0.0671 -0.3498
 6822TIP3    H141957   6.155   5.464   1.326  0.2754 -0.8364  2.7951
 6822TIP3    H241958   6.056   5.568   1.375 -0.0700  0.6435 -0.7722
 6823TIP3   OH241959   2.179   5.515   5.031 -0.1376  0.8433  0.6844
 6823TIP3    H141960   2.265   5.479   5.051  0.7536  1.5891 -1.4542
 6823TIP3    H241961   2.129   5.441   4.996  0.6957  0.9803 -0.9013
 6824TIP3   OH241962   4.235   2.652   5.056  0.2333  0.0958 -0.2953
 6824TIP3    H141963   4.197   2.575   5.099 -2.5190  0.6224 -1.6057
 6824TIP3    H241964   4.239   2.628   4.964  1.9067  0.6081 -0.3960
 6825TIP3   OH241965   4.747   1.920  14.333 -0.4852  0.0219 -0.3623
 6825TIP3    H141966   4.780   1.968  14.256 -0.3439 -0.0855 -0.3698
 6825TIP3    H241967   4.824   1.912  14.390 -0.4252 -0.4895 -0.5105
 6826TIP3   OH241968   3.219   1.274  16.054  0.4516  0.2442 -0.0341
 6826TIP3    H141969   3.255   1.316  16.133  2.5515 -0.4725 -0.5468
 6826TIP3    H241970   3.267   1.315  15.982 -0.3650 -0.1970 -0.8445
 6827TIP3   OH241971   5.889   2.032   3.449 -0.3705 -0.9180 -0.0424
 6827TIP3    H141972   5.862   1.980   3.525 -1.0811 -2.7541 -1.4727
 6827TIP3    H241973   5.926   1.968   3.388  0.6721  0.5811 -1.0590
 6828TIP3   OH241974   1.867   2.896   0.639 -0.4820 -0.4145 -0.1214
 6828TIP3    H141975   1.786   2.881   0.590 -0.4125  0.2065 -0.4337
 6828TIP3    H241976   1.906   2.809   0.647 -0.8537 -0.6268 -0.5386
 6829TIP3   OH241977   2.160   6.796  11.484  0.5152  0.0274  0.5362
 6829TIP3    H141978   2.078   6.771  11.442  1.1670  1.8448 -2.0702
 6829TIP3    H241979   2.134   6.852  11.557 -0.5818 -1.5135  1.3983
 6830TIP3   OH241980   3.731   2.332  12.004  0.3024 -0.0978 -0.6591
 6830TIP3    H141981   3.792   2.366  11.938 -0.6507  1.8994 -0.6033
 6830TIP3    H241982   3.785   2.278  12.062  1.9661  1.3480 -0.7794
 6831TIP3   OH241983   2.318   5.736  15.046  0.5524  0.6239 -0.5728
 6831TIP3    H141984   2.414   5.735  15.041  0.6336 -1.2776  0.4546
 6831TIP3    H241985   2.291   5.780  14.966  2.2730  0.9596 -1.0242
 6832TIP3   OH241986   0.707   0.797   1.136  0.2421  0.2156  0.2206
 6832TIP3    H141987   0.648   0.872   1.133  1.3620  1.1570  0.5770
 6832TIP3    H241988   0.666   0.731   1.080 -2.4295 -0.1837  2.4501
 6833TIP3   OH241989   4.811   4.129  15.558  0.1686 -0.4515 -0.7990
 6833TIP3    H141990   4.817   4.110  15.652  2.3306 -1.1866 -1.0285
 6833TIP3    H241991   4.866   4.207  15.546  1.7973 -1.6855 -1.7392
 6834TIP3   OH241992   5.768   1.749  16.388 -0.2039 -0.0253 -0.6077
 6834TIP3    H141993   5.748   1.752  16.481  1.8471  0.2197 -0.1198
 6834TIP3    H241994   5.684   1.763  16.344 -1.5463 -2.0735  1.1576
 6835TIP3   OH241995   6.395   4.335  15.755 -1.0101  0.1314 -0.2680
 6835TIP3    H141996   6.443   4.253  15.742 -1.0826  0.1482 -0.6320
 6835TIP3    H241997   6.388   4.342  15.850  0.6498  0.6626 -0.1453
 6836TIP3   OH241998   6.152   1.764   5.240  0.2663  0.1854  0.2471
 6836TIP3    H141999   6.161   1.848   5.285 -2.1832 -0.2425  1.7542
 6836TIP3    H242000   6.150   1.787   5.147  0.1074  1.7521  0.6032
 6837TIP3   OH242001   6.141   3.935  12.741 -0.2388 -0.6961  0.4825
 6837TIP3    H142002   6.199   4.006  12.771 -0.4189 -0.7145  0.8859
 6837TIP3    H242003   6.179   3.906  12.658 -0.2732  0.0077  0.2099
 6838TIP3   OH242004   2.686   5.516   1.868  0.3635 -0.4261  0.5009
 6838TIP3    H142005   2.630   5.589   1.895  0.7083 -0.6563  1.9148
 6838TIP3    H242006   2.707   5.471   1.950  1.9857 -0.7958 -0.0938
 6839TIP3   OH242007   1.002   0.997   4.323 -0.3046  0.0406  0.2763
 6839TIP3    H142008   0.929   0.965   4.271 -0.2229  1.4894 -0.7876
 6839TIP3    H242009   1.057   0.919   4.338 -0.2515 -0.4119 -1.9607
 6840TIP3   OH242010   6.459   3.714   4.598  0.1060 -0.5565 -0.1668
 6840TIP3    H142011   6.494   3.632   4.562 -1.5479 -1.6143  0.5308
 6840TIP3    H242012   6.371   3.721   4.563 -0.4318 -0.0198  1.2147
 6841TIP3   OH242013   4.621   4.131  14.727 -0.4352  0.3209 -0.0062
 6841TIP3    H142014   4.702   4.129  14.777 -0.5539  1.1773  0.2351
 6841TIP3    H242015   4.614   4.222  14.697 -0.4731 -0.1140 -1.3984
 6842TIP3   OH242016   1.828   1.068   3.054  0.2327  0.2171  0.1729
 6842TIP3    H142017   1.821   1.135   3.122 -0.7431 -1.2584  1.6035
 6842TIP3    H242018   1.911   1.087   3.011 -0.2415  2.6310  0.1571
 6843TIP3   OH242019   1.407   0.553   2.256 -0.1577 -0.1556  0.1944
 6843TIP3    H142020   1.486   0.587   2.214 -0.4654  0.2194 -0.0846
 6843TIP3    H242021   1.353   0.521   2.184 -1.0529  1.2477  0.2029
 6844TIP3   OH242022   5.040   0.476   4.268  0.3412  0.4947 -0.1964
 6844TIP3    H142023   5.030   0.553   4.324 -0.5384 -0.6162  1.2675
 6844TIP3    H242024   5.072   0.407   4.327 -1.9588 -1.1057 -0.6521
 6845TIP3   OH242025   6.117   5.908  15.521 -0.3156 -0.5670  0.0625
 6845TIP3    H142026   6.212   5.915  15.512 -0.1533  1.0848  2.2375
 6845TIP3    H242027   6.082   5.954  15.445  0.5813 -1.0152 -0.6534
 6846TIP3   OH242028   6.209   6.080   1.588  0.2403  0.2218 -0.0787
 6846TIP3    H142029   6.146   6.129   1.640  1.6809 -0.6218  2.6566
 6846TIP3    H242030   6.182   5.988   1.597 -0.3466  0.1383 -2.1552
 6847TIP3   OH242031   0.283   0.038  11.180  0.5133  0.3477  0.2368
 6847TIP3    H142032   0.189   0.039  11.163  0.2261 -1.1884  1.4778
 6847TIP3    H242033   0.317  -0.029  11.121  0.4873 -0.4855  1.1324
 6848TIP3   OH242034   1.110   0.456   5.104 -0.4731  0.3679 -0.0123
 6848TIP3    H142035   1.092   0.547   5.078 -0.0550  0.5867  0.4481
 6848TIP3    H242036   1.197   0.460   5.144 -1.1108  0.0521  1.4564
 6849TIP3   OH242037   4.028   6.451   1.554  0.2949  0.1993  0.1664
 6849TIP3    H142038   3.935   6.456   1.532  0.0642 -1.5166  0.6125
 6849TIP3    H242039   4.071   6.506   1.489 -0.8562 -0.5689 -1.3024
 6850TIP3   OH242040   3.700   4.933   6.264  0.3979  0.3353  0.6338
 6850TIP3    H142041   3.612   4.900   6.283  0.4464  0.2034  0.6310
 6850TIP3    H242042   3.685   5.016   6.219  0.2881  0.8573  1.6048
 6851TIP3   OH242043   2.036   1.459   1.164 -0.0383 -0.3888  0.0412
 6851TIP3    H142044   2.060   1.435   1.074  1.8258 -1.4861  0.7571
 6851TIP3    H242045   2.118   1.489   1.203 -1.1458  1.6059  0.9474
 6852TIP3   OH242046   3.573   4.198  16.695  0.3559 -0.0653 -0.2591
 6852TIP3    H142047   3.490   4.183  16.741  0.4394  0.5026  0.0839
 6852TIP3    H242048   3.636   4.217  16.765  0.6710 -0.0254 -0.5515
 6853TIP3   OH242049   3.587   6.748   4.599 -0.0674  0.0324  0.0783
 6853TIP3    H142050   3.653   6.706   4.655 -0.7067  0.0903  0.9054
 6853TIP3    H242051   3.584   6.838   4.631  0.4641  0.4108 -0.9108
 6854TIP3   OH242052   6.384   2.381   2.434  0.2356  0.0034  0.6472
 6854TIP3    H142053   6.389   2.375   2.530  0.6964 -0.3495  0.6096
 6854TIP3    H242054   6.305   2.334   2.410 -1.3268  2.3008  1.0245
 6855TIP3   OH242055   6.810   1.534  13.943  0.0705  0.5115  0.1524
 6855TIP3    H142056   6.840   1.472  14.009  1.5135  0.3938 -0.5799
 6855TIP3    H242057   6.882   1.597  13.934 -0.3044  0.8073 -0.9596
 6856TIP3   OH242058   3.353   4.412  16.047 -0.1478  0.5897  0.2160
 6856TIP3    H142059   3.310   4.376  15.969 -1.0452 -0.8328  1.3027
 6856TIP3    H242060   3.420   4.471  16.012 -1.5116  1.1661 -1.5879
 6857TIP3   OH242061   6.573   3.286  16.987 -0.2488  0.3969  0.3221
 6857TIP3    H142062   6.658   3.266  16.947 -1.0242 -2.0027 -0.3330
 6857TIP3    H242063   6.529   3.342  16.924  1.0596  2.2363  0.9774
 6858TIP3   OH242064   1.763   0.953   5.256  1.1250 -0.1501  0.1211
 6858TIP3    H142065   1.785   0.862   5.237  2.5860  0.3210 -0.5693
 6858TIP3    H242066   1.673   0.950   5.290  1.0745 -1.8083 -0.1128
 6859TIP3   OH242067   3.658   4.911   0.818 -0.8581 -0.4387  0.2238
 6859TIP3    H142068   3.736   4.863   0.791 -1.4691 -1.9904  1.0880
 6859TIP3    H242069   3.685   4.960   0.896 -0.4693 -0.0878 -0.1266
 6860TIP3   OH242070   1.146   1.648  11.539  0.3228 -0.0294 -0.0887
 6860TIP3    H142071   1.161   1.562  11.577  1.2879  0.4965  0.7733
 6860TIP3    H242072   1.181   1.709  11.603  1.8112  0.8989 -1.6794
 6861TIP3   OH242073   6.205   4.894  15.727 -0.1721  0.1607 -0.0040
 6861TIP3    H142074   6.285   4.914  15.678  0.5118 -0.5669  0.7794
 6861TIP3    H242075   6.221   4.808  15.765 -1.4173 -0.0822  0.0078
 6862TIP3   OH242076   3.492   2.206  11.920 -0.4849 -0.1668  0.7801
 6862TIP3    H142077   3.424   2.269  11.942  0.6048  2.5780 -2.7831
 6862TIP3    H242078   3.573   2.248  11.948  0.2760  0.2654 -1.7797
 6863TIP3   OH242079   0.679   2.848   3.469  0.2496  0.2035 -0.3254
 6863TIP3    H142080   0.675   2.768   3.416  0.9633 -0.3428  0.4263
 6863TIP3    H242081   0.618   2.908   3.425 -0.7476 -0.9405 -0.5766
 6864TIP3   OH242082   4.729   2.613   5.957  0.7031  0.7376 -0.7309
 6864TIP3    H142083   4.722   2.709   5.958  1.0509  0.7633 -0.5884
 6864TIP3    H242084   4.676   2.587   5.881 -1.2934  0.8606  0.5600
 6865TIP3   OH242085   0.823   3.835   6.163  0.0686 -0.3222 -0.6555
 6865TIP3    H142086   0.878   3.772   6.117  0.3959  0.6136 -1.5987
 6865TIP3    H242087   0.880   3.910   6.177 -0.9069  0.6144 -1.5150
 6866TIP3   OH242088   5.803   3.166  14.482  0.3109  0.4628  0.2225
 6866TIP3    H142089   5.775   3.164  14.390  0.6156  2.4799  0.0425
 6866TIP3    H242090   5.897   3.148  14.479  0.2720  0.2739  0.1600
 6867TIP3   OH242091   1.178   1.864   5.562  0.2538  0.2601  0.6753
 6867TIP3    H142092   1.270   1.841   5.551 -0.3055 -2.1391  0.2665
 6867TIP3    H242093   1.153   1.823   5.646 -0.7255 -0.2965  0.1355
 6868TIP3   OH242094   3.405   3.975  13.101 -0.4315  0.3199  0.3257
 6868TIP3    H142095   3.384   3.896  13.151 -0.9206  1.2155  1.5871
 6868TIP3    H242096   3.498   3.989  13.115 -0.5365  0.4806  0.8734
 6869TIP3   OH242097   5.040   1.121  11.306  0.5413  0.3249 -0.5899
 6869TIP3    H142098   5.075   1.032  11.294  0.7229  0.2153  0.6028
 6869TIP3    H242099   5.052   1.163  11.221 -1.0705 -1.2937 -1.6968
 6870TIP3   OH242100   3.090   2.248   2.527  0.3502 -0.3402  0.6643
 6870TIP3    H142101   3.069   2.268   2.436  0.7246  0.2681  0.7080
 6870TIP3    H242102   3.094   2.152   2.530 -3.0572 -0.5908  0.8141
 6871TIP3   OH242103   5.814   6.128  13.447 -0.2165  0.3830 -0.2444
 6871TIP3    H142104   5.880   6.098  13.384  0.8765  0.8433  0.6445
 6871TIP3    H242105   5.849   6.210  13.481 -1.0806  0.4464  0.5186
 6872TIP3   OH242106   1.288   5.234   1.388 -0.4518 -0.1909  0.5596
 6872TIP3    H142107   1.206   5.227   1.339 -0.4192 -1.6049  0.6715
 6872TIP3    H242108   1.277   5.313   1.440 -1.2361  0.3319 -0.3569
 6873TIP3   OH242109   6.617   6.258   2.263  0.2690 -0.2654  0.2127
 6873TIP3    H142110   6.639   6.190   2.327  0.5746  0.1997  0.6080
 6873TIP3    H242111   6.635   6.340   2.308  0.0429  0.0794 -0.3145
 6874TIP3   OH242112   2.867   5.900   1.549 -0.2210 -0.3674 -0.4967
 6874TIP3    H142113   2.794   5.845   1.520  0.0620 -0.5361 -0.9100
 6874TIP3    H242114   2.944   5.843   1.543  0.1907  0.2712 -1.6402
 6875TIP3   OH242115   5.672   2.938   2.951 -0.0624  0.2952 -0.3797
 6875TIP3    H142116   5.763   2.925   2.923 -0.1102 -1.8863  0.2810
 6875TIP3    H242117   5.672   3.023   2.995  1.7941  0.0577  0.1440
 6876TIP3   OH242118   1.547   2.493  14.074 -0.0754 -0.0897 -0.0762
 6876TIP3    H142119   1.546   2.557  14.003  0.3672 -0.4414 -0.4069
 6876TIP3    H242120   1.489   2.423  14.045  2.5045 -1.8002 -1.6115
 6877TIP3   OH242121   4.786   4.927   5.192  0.2168 -0.0603  0.3100
 6877TIP3    H142122   4.842   4.862   5.234 -0.2907 -0.4087  0.4608
 6877TIP3    H242123   4.846   4.987   5.148  0.7586  0.2039  1.3754
 6878TIP3   OH242124   0.426   1.762  14.600  0.1268  0.2762 -0.4716
 6878TIP3    H142125   0.488   1.750  14.672 -0.6403 -1.9472 -0.0961
 6878TIP3    H242126   0.346   1.720  14.631 -1.2629  2.1071 -1.3836
 6879TIP3   OH242127   3.382   0.548  10.632 -0.7790 -0.2206 -0.2045
 6879TIP3    H142128   3.360   0.456  10.645 -0.4495 -0.1765  0.7223
 6879TIP3    H242129   3.452   0.566  10.694 -0.0820  0.3846 -1.1183
 6880TIP3   OH242130   6.463   1.798  15.231 -0.7385 -0.2731 -0.6487
 6880TIP3    H142131   6.392   1.833  15.176 -0.8436 -0.6761 -0.7746
 6880TIP3    H242132   6.525   1.870  15.238 -0.9520 -0.0599 -0.9056
 6881TIP3   OH242133   4.136   1.639  11.438  0.5606  0.2801  1.5681
 6881TIP3    H142134   4.089   1.686  11.369 -0.0405  1.4863  2.7393
 6881TIP3    H242135   4.091   1.555  11.444  0.6712  0.1335  0.4463
 6882TIP3   OH242136   3.922   2.433  12.278  0.0084  0.2904 -0.5320
 6882TIP3    H142137   3.850   2.491  12.252  1.1890  1.6907 -0.8242
 6882TIP3    H242138   3.934   2.452  12.371 -0.8216 -0.9027 -0.1602
 6883TIP3   OH242139   0.821   1.374   4.047 -0.3869 -0.0497  0.0545
 6883TIP3    H142140   0.899   1.328   4.079 -1.0060 -1.9891 -1.0175
 6883TIP3    H242141   0.813   1.450   4.104  1.7670 -0.2761  0.7641
 6884TIP3   OH242142   3.053   4.570   1.407  0.0272 -0.8799 -0.5991
 6884TIP3    H142143   3.037   4.477   1.393 -1.1733 -0.7192 -0.4455
 6884TIP3    H242144   2.967   4.611   1.395  0.7338  0.3384 -1.6995
 6885TIP3   OH242145   4.294   1.243   0.473 -0.3220 -0.4629 -0.3726
 6885TIP3    H142146   4.220   1.228   0.531 -0.7592  1.5896 -0.3245
 6885TIP3    H242147   4.254   1.262   0.388  0.2666 -1.9925 -1.0229
 6886TIP3   OH242148   4.763   5.765   5.229  0.2973 -0.3592 -0.0486
 6886TIP3    H142149   4.700   5.694   5.216  0.3010 -0.6970  1.6009
 6886TIP3    H242150   4.839   5.724   5.269  1.1211  0.2539 -0.9368
 6887TIP3   OH242151   4.494   1.277  13.633  0.7412 -0.1783  0.1862
 6887TIP3    H142152   4.418   1.313  13.679 -0.3093 -2.0467  0.0123
 6887TIP3    H242153   4.482   1.304  13.542 -0.3760 -1.3924 -0.0641
 6888TIP3   OH242154   0.125   5.967   1.030 -0.0123 -0.1015  0.0292
 6888TIP3    H142155   0.085   6.025   0.966 -0.6369 -1.3237 -0.7251
 6888TIP3    H242156   0.153   6.025   1.101  0.6454  1.2796 -1.3038
 6889TIP3   OH242157   3.454   4.803   2.101 -0.2160 -0.2372  0.1214
 6889TIP3    H142158   3.543   4.782   2.130  0.6639  1.0315 -1.5040
 6889TIP3    H242159   3.438   4.891   2.135  0.5129  0.9314 -2.3645
 6890TIP3   OH242160   2.713   2.712   2.474  0.6351 -0.2744 -0.1522
 6890TIP3    H142161   2.666   2.635   2.505  0.7675 -1.1524 -2.0104
 6890TIP3    H242162   2.647   2.781   2.471  0.2643 -0.5921  0.5013
 6891TIP3   OH242163   4.836   2.709   5.383  0.4740  0.6751  0.1361
 6891TIP3    H142164   4.867   2.750   5.302  1.3833  0.5464  0.3996
 6891TIP3    H242165   4.902   2.733   5.448 -0.9742  1.9686  1.2023
 6892TIP3   OH242166   4.143   5.365  17.086 -0.5281  0.1366  0.4580
 6892TIP3    H142167   4.198   5.301  17.041 -1.9373 -1.4442  0.8985
 6892TIP3    H242168   4.095   5.409  17.015 -2.9993 -2.5815  0.2952
 6893TIP3   OH242169   3.256   6.612  14.799 -0.6415  0.2217 -0.3658
 6893TIP3    H142170   3.231   6.576  14.884  1.1663  1.6280  0.8415
 6893TIP3    H242171   3.336   6.564  14.776 -1.0363 -0.0431 -1.2119
 6894TIP3   OH242172   3.093   1.105   0.829 -0.1162  0.2820  0.0120
 6894TIP3    H142173   3.006   1.146   0.828  0.1444  0.8610  0.3199
 6894TIP3    H242174   3.141   1.154   0.896  1.3513  1.8313 -2.0716
 6895TIP3   OH242175   1.048   0.486   3.462 -0.1503  0.2017  0.3306
 6895TIP3    H142176   1.093   0.569   3.481  0.9803  0.1151 -1.6803
 6895TIP3    H242177   1.069   0.468   3.370 -2.6442 -0.9164 -0.1142
 6896TIP3   OH242178   2.763   5.894  11.385  0.2009  0.8071 -0.1344
 6896TIP3    H142179   2.726   5.976  11.417  0.7288  0.5268  1.2714
 6896TIP3    H242180   2.722   5.827  11.440  0.6898  0.2464 -0.4470
 6897TIP3   OH242181   2.460   6.077   0.912  1.2952 -0.9950 -0.1316
 6897TIP3    H142182   2.482   6.157   0.960  0.3994 -1.7121  1.5440
 6897TIP3    H242183   2.504   6.007   0.960 -0.3841 -1.8441  0.2400
 6898TIP3   OH242184   1.167   1.167  12.245 -0.1526  0.4611  0.0871
 6898TIP3    H142185   1.115   1.243  12.271  0.1652  1.1895 -1.3473
 6898TIP3    H242186   1.255   1.185  12.278 -0.8650 -1.1677  3.2943
 6899TIP3   OH242187   1.737   4.165  12.701 -0.6025 -0.3891 -0.1484
 6899TIP3    H142188   1.822   4.175  12.657 -0.0736  1.9756  1.2120
 6899TIP3    H242189   1.706   4.079  12.675  1.6799 -0.8427 -1.6296
 6900TIP3   OH242190   4.087   0.863  12.761  0.2343  0.1350 -0.8098
 6900TIP3    H142191   4.106   0.810  12.684  0.9219  0.0830 -0.6099
 6900TIP3    H242192   3.991   0.865  12.766  0.0740 -3.2900  0.6679
 6901TIP3   OH242193   0.340   2.668  17.137 -0.6577  0.0896 -0.2058
 6901TIP3    H142194   0.360   2.612  17.062 -0.7508  1.5586 -1.3860
 6901TIP3    H242195   0.394   2.633  17.208  0.5395 -0.4881 -1.3478
 6902TIP3   OH242196   3.860   3.741  15.698  0.2598  0.5843  0.4860
 6902TIP3    H142197   3.915   3.762  15.774  0.5942  0.7971  0.1880
 6902TIP3    H242198   3.901   3.787  15.625 -0.4717  0.9655  0.3062
 6903TIP3   OH242199   0.316   3.401  15.171  0.3412  0.7467  0.1527
 6903TIP3    H142200   0.333   3.489  15.205 -1.6093  1.6502 -1.0613
 6903TIP3    H242201   0.289   3.415  15.081 -1.4789 -0.9638  0.3702
 6904TIP3   OH242202   4.781   3.759  15.938 -0.4424 -0.3033  0.1336
 6904TIP3    H142203   4.700   3.754  15.887  1.1121 -1.3602 -2.4388
 6904TIP3    H242204   4.811   3.849  15.929  0.2148 -0.6637 -1.5904
 6905TIP3   OH242205   1.076   6.283  11.897  0.2526 -0.4848  0.2094
 6905TIP3    H142206   1.130   6.222  11.846 -0.7574 -0.7973 -0.5298
 6905TIP3    H242207   1.014   6.227  11.943 -0.4202 -0.0577 -0.1514
 6906TIP3   OH242208   4.589   0.843   4.250 -0.1744  0.3523 -0.0219
 6906TIP3    H142209   4.558   0.808   4.333 -0.8795 -0.4566 -0.6185
 6906TIP3    H242210   4.587   0.769   4.189  2.4363  0.3720 -0.2494
 6907TIP3   OH242211   5.432   0.555   0.804  0.0969  0.0693 -0.0298
 6907TIP3    H142212   5.470   0.546   0.891  0.7198  0.2763 -0.2772
 6907TIP3    H242213   5.338   0.567   0.820  0.0236 -1.1443  0.5541
 6908TIP3   OH242214   2.390   6.075   5.577 -0.8068  0.1779  0.6846
 6908TIP3    H142215   2.326   6.097   5.645 -1.1189  2.1527 -0.1863
 6908TIP3    H242216   2.449   6.149   5.575  1.5630 -1.5556  1.3982
 6909TIP3   OH242217   1.679   5.180  15.413  0.2094 -0.0030 -0.5923
 6909TIP3    H142218   1.775   5.188  15.409  0.0543  2.1107 -1.1334
 6909TIP3    H242219   1.652   5.174  15.322 -0.2846  1.3185 -0.5458
 6910TIP3   OH242220   3.774   3.840   4.568 -0.0864  0.0502 -0.4597
 6910TIP3    H142221   3.858   3.804   4.596  0.0910 -0.2338 -1.3504
 6910TIP3    H242222   3.715   3.822   4.641  0.5172 -0.1328 -0.0081
 6911TIP3   OH242223   5.487   4.337  16.591 -0.8486  0.0635 -0.0761
 6911TIP3    H142224   5.466   4.384  16.511 -1.3969  0.3513  0.2340
 6911TIP3    H242225   5.503   4.405  16.656 -0.4545 -0.1686  0.0711
 6912TIP3   OH242226   5.516   2.597   0.687  0.1322 -0.0737  0.2939
 6912TIP3    H142227   5.480   2.681   0.659 -2.0176 -0.5347  1.5041
 6912TIP3    H242228   5.478   2.582   0.773  1.7309 -1.5644  0.7946
 6913TIP3   OH242229   6.604   4.984   4.463 -0.2178 -0.1037 -0.2043
 6913TIP3    H142230   6.513   4.998   4.437 -0.8998 -0.6048  1.7587
 6913TIP3    H242231   6.600   4.914   4.527  1.4032  0.6818  0.8175
 6914TIP3   OH242232   4.825   0.528   2.799  0.3118 -0.0736  0.3828
 6914TIP3    H142233   4.906   0.549   2.752  1.1559 -0.2905  1.6942
 6914TIP3    H242234   4.800   0.610   2.841 -0.7985  0.2892 -0.9123
 6915TIP3   OH242235   1.020   1.858  14.415 -0.3712 -0.1436 -0.0952
 6915TIP3    H142236   0.986   1.834  14.329  1.3391  1.1057 -1.1968
 6915TIP3    H242237   0.943   1.883  14.466 -1.3249  0.2525 -1.6662
 6916TIP3   OH242238   6.498   3.216   2.895 -0.2550 -0.5963 -0.3769
 6916TIP3    H142239   6.414   3.172   2.883 -0.4921 -0.1120 -0.5243
 6916TIP3    H242240   6.561   3.145   2.902 -0.7972 -1.0110  0.7642
 6917TIP3   OH242241   5.527   1.927   3.297 -0.2076 -0.4648  0.4377
 6917TIP3    H142242   5.582   2.003   3.277  0.7789 -0.5906  2.4306
 6917TIP3    H242243   5.552   1.861   3.232  1.5661 -0.3037  0.9273
 6918TIP3   OH242244   4.075   0.892  12.316 -0.4114 -0.6407 -0.2067
 6918TIP3    H142245   4.049   0.817  12.263 -2.1385 -0.0397 -0.2595
 6918TIP3    H242246   4.125   0.854  12.388  0.2720 -1.6502 -1.1803
 6919TIP3   OH242247   3.107   3.831   2.395 -0.1228 -0.3047  1.0039
 6919TIP3    H142248   3.126   3.906   2.338 -1.5850 -1.3286 -0.9556
 6919TIP3    H242249   3.185   3.776   2.389 -0.9234 -1.2915 -1.6089
 6920TIP3   OH242250   1.695   3.705   5.334 -0.5437 -0.1988 -0.1855
 6920TIP3    H142251   1.748   3.638   5.378 -0.0393  1.4189  1.8702
 6920TIP3    H242252   1.760   3.763   5.293 -0.7005  1.0869  1.2786
 6921TIP3   OH242253   4.962   3.057  13.207  0.2254  0.2324 -0.9031
 6921TIP3    H142254   4.944   3.094  13.293 -0.3700 -1.4955 -0.2343
 6921TIP3    H242255   4.986   3.132  13.152 -1.0361  1.5820  0.3239
 6922TIP3   OH242256   1.938   6.691  12.909  0.3559 -0.7824  0.0656
 6922TIP3    H142257   1.970   6.613  12.954  0.5379  0.1210  1.5665
 6922TIP3    H242258   1.857   6.713  12.955  0.8037  0.4519  0.2787
 6923TIP3   OH242259   2.131   4.360   2.197 -0.2873 -0.1667  0.0451
 6923TIP3    H142260   2.100   4.276   2.231 -1.4714 -0.9922 -2.7475
 6923TIP3    H242261   2.052   4.414   2.192  0.3837  1.0015  1.3343
 6924TIP3   OH242262   5.764   1.412   1.086 -0.2002 -0.1621  0.2980
 6924TIP3    H142263   5.804   1.329   1.110 -2.8332 -0.8860  2.7431
 6924TIP3    H242264   5.763   1.463   1.167 -0.6539  1.3663 -0.6262
 6925TIP3   OH242265   4.660   0.206  16.150  0.1670  0.3952  0.6074
 6925TIP3    H142266   4.618   0.287  16.120 -1.1827 -0.5229 -0.0890
 6925TIP3    H242267   4.624   0.193  16.238  1.4967  1.2798  1.3150
 6926TIP3   OH242268   3.524   5.902   2.662  0.0363  0.8504  0.5975
 6926TIP3    H142269   3.473   5.825   2.636 -0.6497  1.2878  0.6356
 6926TIP3    H242270   3.493   5.923   2.750  1.1647  0.3877  1.1359
 6927TIP3   OH242271   5.211   3.053  10.980 -0.2013  0.1528 -0.3873
 6927TIP3    H142272   5.262   2.976  11.007 -0.4881 -0.1599 -0.7263
 6927TIP3    H242273   5.120   3.026  10.988 -0.3434  0.9892  0.9982
 6928TIP3   OH242274   4.580   0.613   3.065  0.3216  0.0715  0.6281
 6928TIP3    H142275   4.501   0.601   3.013  1.4471 -1.8872 -0.7422
 6928TIP3    H242276   4.617   0.696   3.033 -1.4023  1.3227  1.6981
 6929TIP3   OH242277   2.532   6.292   5.546  0.1055  0.5621  0.2432
 6929TIP3    H142278   2.532   6.363   5.482 -2.0569 -0.0232 -0.4897
 6929TIP3    H242279   2.623   6.262   5.548  0.7902  2.4256 -0.4460
 6930TIP3   OH242280   3.295   3.316   3.989  0.3864 -0.5281  0.3303
 6930TIP3    H142281   3.281   3.229   4.029  1.1794 -0.4559  0.7751
 6930TIP3    H242282   3.242   3.314   3.910  0.8020 -1.6211  0.0574
 6931TIP3   OH242283   1.539   2.419  14.363 -1.0012  0.0309 -0.0813
 6931TIP3    H142284   1.517   2.434  14.271  0.9616  1.1864 -0.4032
 6931TIP3    H242285   1.601   2.488  14.385  2.3004 -2.9300  0.7207
 6932TIP3   OH242286   5.800   5.129  10.366  0.7036  0.5634 -0.1681
 6932TIP3    H142287   5.874   5.188  10.351  0.9221  0.8227  1.6400
 6932TIP3    H242288   5.811   5.100  10.457 -0.3132 -0.9803 -0.4994
 6933TIP3   OH242289   4.504   6.569   2.729  1.2376 -0.4516 -0.7211
 6933TIP3    H142290   4.585   6.527   2.699  2.3198  1.7416 -1.1106
 6933TIP3    H242291   4.533   6.636   2.791 -0.3350 -0.0017 -0.4276
 6934TIP3   OH242292   1.073   0.332  16.226 -0.2172  0.2637 -0.4650
 6934TIP3    H142293   1.040   0.421  16.213 -1.2261  0.1396  1.0917
 6934TIP3    H242294   1.137   0.321  16.155 -0.9396  1.7818 -1.4220
 6935TIP3   OH242295   5.861   5.736  12.845 -0.1053 -0.2837  0.3393
 6935TIP3    H142296   5.894   5.712  12.931  2.5204  4.4469  0.9653
 6935TIP3    H242297   5.936   5.721  12.786 -0.1486  1.1661 -0.1204
 6936TIP3   OH242298   5.417   6.317  14.827  0.8109  0.2718  0.0368
 6936TIP3    H142299   5.393   6.272  14.746  0.5227 -2.5669  1.5637
 6936TIP3    H242300   5.335   6.324  14.876  1.3939 -0.5535  1.1913
 6937TIP3   OH242301   5.689   2.930   1.408 -0.1904 -0.3325 -0.1625
 6937TIP3    H142302   5.752   2.976   1.353 -1.2171  0.5100 -0.6582
 6937TIP3    H242303   5.604   2.958   1.376 -0.8380 -1.9487  0.0857
 6938TIP3   OH242304   6.063   1.159  14.980  0.0150  0.0914 -0.3891
 6938TIP3    H142305   5.996   1.104  14.940 -0.2774  0.3030 -0.1942
 6938TIP3    H242306   6.080   1.119  15.065 -0.2390  0.3324 -0.2236
 6939TIP3   OH242307   3.402   4.893  13.942  0.2860  0.1374 -0.4216
 6939TIP3    H142308   3.379   4.895  13.849  0.1973 -1.8820 -0.4879
 6939TIP3    H242309   3.383   4.803  13.970  1.9645  0.1934  1.1303
 6940TIP3   OH242310   1.834   4.376   1.941  0.5638  0.1296 -0.6956
 6940TIP3    H142311   1.771   4.445   1.962 -1.1341 -2.0841  2.1875
 6940TIP3    H242312   1.912   4.400   1.991 -0.3067 -0.3887  0.9842
 6941TIP3   OH242313   4.817   2.134   6.036  0.3021 -0.2195  0.1600
 6941TIP3    H142314   4.755   2.170   5.973  0.5334  1.1479  0.6864
 6941TIP3    H242315   4.768   2.130   6.118  0.5553 -0.2602  0.3102
 6942TIP3   OH242316   6.063   3.223   2.049  0.0662 -0.8815  0.2059
 6942TIP3    H142317   6.010   3.303   2.044 -0.6340 -1.3996 -1.8279
 6942TIP3    H242318   6.085   3.204   1.958  2.7375 -1.4056  0.8796
 6943TIP3   OH242319   3.065   2.105  13.076  0.4147  0.4930  0.4288
 6943TIP3    H142320   3.142   2.056  13.049  0.4915  2.0260 -2.5538
 6943TIP3    H242321   2.999   2.038  13.095  2.0339 -0.8008  1.7561
 6944TIP3   OH242322   1.715   5.095  14.773 -0.1229  0.1917 -0.2611
 6944TIP3    H142323   1.664   5.050  14.841  1.7767  0.0193  1.1058
 6944TIP3    H242324   1.683   5.185  14.775 -0.8735 -0.0699  0.0548
 6945TIP3   OH242325   3.761   0.072   3.557  0.4493  0.3963  0.0131
 6945TIP3    H142326   3.821   0.051   3.484 -0.2511  0.9125 -0.7255
 6945TIP3    H242327   3.809   0.045   3.635  0.7200 -1.3328 -0.7087
 6946TIP3   OH242328   6.714   0.203   0.852  0.0432  0.0018 -0.0821
 6946TIP3    H142329   6.699   0.111   0.829 -0.0921 -0.0019  0.0167
 6946TIP3    H242330   6.673   0.252   0.780  0.7191 -0.0185 -0.4886
 6947TIP3   OH242331   1.148   0.361  16.620  0.1746 -0.4030 -0.2397
 6947TIP3    H142332   1.237   0.388  16.596 -0.2807  0.7624 -0.7059
 6947TIP3    H242333   1.133   0.403  16.704 -0.2162  0.0600 -0.5382
 6948TIP3   OH242334   6.038   2.186   5.345 -0.3043  0.2272  0.4510
 6948TIP3    H142335   6.127   2.158   5.369 -0.0100  1.1118  0.4244
 6948TIP3    H242336   6.039   2.187   5.249  0.4343  2.5417  0.4259
 6949TIP3   OH242337   2.630   4.997  10.596 -0.3848 -0.5349 -0.3869
 6949TIP3    H142338   2.637   4.931  10.528  0.9445 -0.2572 -0.5460
 6949TIP3    H242339   2.707   4.984  10.651  0.1121  1.0893 -0.6354
 6950TIP3   OH242340   2.801   6.089   3.530 -0.4106 -0.2907  0.6217
 6950TIP3    H142341   2.877   6.146   3.519 -1.0094  0.5065  0.4945
 6950TIP3    H242342   2.789   6.048   3.444 -0.5655  0.1529  0.4279
 6951TIP3   OH242343   3.100   1.267   6.602  0.0799 -0.2346  0.1865
 6951TIP3    H142344   3.159   1.256   6.677  0.1043  1.0595  0.3916
 6951TIP3    H242345   3.135   1.344   6.556 -2.1867  1.4265  1.0715
 6952TIP3   OH242346   0.638   6.789   0.996 -0.2624  0.4643 -0.2000
 6952TIP3    H142347   0.651   6.819   0.906 -0.6607  2.6007  0.3819
 6952TIP3    H242348   0.576   6.852   1.033  0.3922  0.0353  1.7486
 6953TIP3   OH242349   1.193   1.309  14.977  0.9798 -0.1240  0.7295
 6953TIP3    H142350   1.193   1.399  15.010  2.2001 -0.2650  1.1762
 6953TIP3    H242351   1.103   1.280  14.986  0.1921  1.5475 -0.8426
 6954TIP3   OH242352   0.762   1.460   2.876 -0.3615 -0.5264 -0.5402
 6954TIP3    H142353   0.680   1.507   2.889 -0.2701  0.8295 -3.8341
 6954TIP3    H242354   0.830   1.524   2.898 -0.2016 -0.7212 -0.4675
 6955TIP3   OH242355   1.539   2.721  11.094 -0.2351  0.1875 -0.5062
 6955TIP3    H142356   1.527   2.700  11.001 -0.2416 -2.0512 -0.0560
 6955TIP3    H242357   1.582   2.806  11.094  1.8882 -0.7620 -2.6358
 6956TIP3   OH242358   2.079   1.884  16.319 -0.0489  0.3981 -0.1716
 6956TIP3    H142359   2.124   1.822  16.261 -0.3496  1.6425 -1.8280
 6956TIP3    H242360   2.036   1.830  16.384  1.4531 -0.9893 -0.2715
 6957TIP3   OH242361   6.542   4.193  15.460 -0.2838  0.1129 -0.0448
 6957TIP3    H142362   6.610   4.245  15.503  0.4684  0.4965 -1.6171
 6957TIP3    H242363   6.495   4.150  15.532  0.6058  1.0833  1.1605
 6958TIP3   OH242364   1.019   0.447   5.539  0.4888  0.0107 -0.3806
 6958TIP3    H142365   0.967   0.514   5.494  1.2540  0.8514 -0.0485
 6958TIP3    H242366   1.074   0.496   5.600  1.7053 -0.8474 -0.7542
 6959TIP3   OH242367   4.722   1.110   2.081  0.4468  0.4992  0.0345
 6959TIP3    H142368   4.803   1.083   2.037  0.3414  1.2239 -0.6285
 6959TIP3    H242369   4.752   1.161   2.157  0.6188  1.4686 -0.6666
 6960TIP3   OH242370   2.920   4.516  12.136 -0.3220 -0.4779 -0.0199
 6960TIP3    H142371   2.944   4.429  12.168  0.2036 -0.4485 -0.3308
 6960TIP3    H242372   2.999   4.550  12.096 -1.4206 -1.3579 -3.2651
 6961TIP3   OH242373   5.339   5.168   3.259  0.5129  0.1002  0.0034
 6961TIP3    H142374   5.339   5.134   3.169  1.1130 -0.0036  0.0379
 6961TIP3    H242375   5.431   5.167   3.285  0.2213 -1.1082  1.0836
 6962TIP3   OH242376   2.553   0.601  10.465 -0.5795  0.4405  0.0729
 6962TIP3    H142377   2.616   0.546  10.418 -1.9373 -1.9949  0.8846
 6962TIP3    H242378   2.541   0.677  10.409  1.8749  0.2511 -0.8389
 6963TIP3   OH242379   4.410   2.474  12.777 -0.3814  0.1961  0.4201
 6963TIP3    H142380   4.487   2.506  12.730 -1.4023 -0.8733 -2.1505
 6963TIP3    H242381   4.346   2.457  12.709 -2.7839  0.6185  2.4356
 6964TIP3   OH242382   2.135   0.330   5.583 -0.1695  0.3464 -0.3852
 6964TIP3    H142383   2.129   0.414   5.539 -0.6180 -0.4273 -1.8628
 6964TIP3    H242384   2.043   0.303   5.595 -0.0255 -0.0757 -0.2150
 6965TIP3   OH242385   0.289   2.824   2.499 -0.3239  0.4642  0.0450
 6965TIP3    H142386   0.351   2.883   2.541  3.5028 -2.2370 -1.2986
 6965TIP3    H242387   0.277   2.752   2.561  0.7848 -0.7314 -1.0676
 6966TIP3   OH242388   4.456   6.498  13.837 -0.5000  0.4101 -0.4462
 6966TIP3    H142389   4.545   6.474  13.813 -1.1322  1.1161 -4.2656
 6966TIP3    H242390   4.465   6.549  13.918  2.3429 -0.6808  0.0420
 6967TIP3   OH242391   0.542   2.206  15.707 -0.0560 -0.3711  0.2326
 6967TIP3    H142392   0.603   2.279  15.717 -1.9610  1.2712  0.6013
 6967TIP3    H242393   0.596   2.127  15.715  2.0955  0.9757 -0.2913
 6968TIP3   OH242394   1.951   6.241   3.386 -0.1349 -0.4578 -0.5791
 6968TIP3    H142395   1.914   6.317   3.340 -0.4631  0.0301  0.4535
 6968TIP3    H242396   1.895   6.231   3.463  0.9402 -0.7053  0.1794
 6969TIP3   OH242397   4.057   5.687   4.180  0.5406  0.0558  0.5328
 6969TIP3    H142398   3.996   5.760   4.167  1.8016  0.6630 -3.2631
 6969TIP3    H242399   4.130   5.725   4.228  1.8322  1.8732 -2.5931
 6970TIP3   OH242400   6.703   2.744   5.701 -0.4802 -0.0435 -0.1689
 6970TIP3    H142401   6.773   2.742   5.766  0.8226 -0.1643 -1.5186
 6970TIP3    H242402   6.643   2.675   5.729 -0.0971  0.0894  1.0411
 6971TIP3   OH242403   6.394   4.614  10.915  0.1844  0.6292  0.5156
 6971TIP3    H142404   6.457   4.578  10.977  1.4394  0.8041 -0.6241
 6971TIP3    H242405   6.324   4.548  10.912  0.7527 -0.0184  1.0900
 6972TIP3   OH242406   2.032   1.038  16.431  0.1431  0.3198 -0.8353
 6972TIP3    H142407   2.034   1.116  16.376  0.3925  1.5941  0.8851
 6972TIP3    H242408   1.982   1.065  16.509 -0.3959 -1.4672 -0.5231
 6973TIP3   OH242409   3.786   0.688  16.868 -0.1455 -0.1560 -0.3388
 6973TIP3    H142410   3.752   0.717  16.953 -0.5932  0.0332 -0.5831
 6973TIP3    H242411   3.792   0.593  16.876  0.9259 -0.0625  0.3165
 6974TIP3   OH242412   0.929   2.304  12.982  0.1727  0.0933  0.3619
 6974TIP3    H142413   0.967   2.358  12.912  1.5568  0.5790  1.4344
 6974TIP3    H242414   0.856   2.259  12.940  0.5089  0.9179 -1.2105
 6975TIP3   OH242415   5.687   4.815  13.397 -0.2587  0.0083 -0.0143
 6975TIP3    H142416   5.768   4.779  13.433 -0.2474  0.3524  0.3087
 6975TIP3    H242417   5.697   4.910  13.406  0.5700  0.2644 -2.6568
 6976TIP3   OH242418   3.645   3.454   5.183 -0.2515 -0.4381 -0.1849
 6976TIP3    H142419   3.550   3.455   5.172 -0.1026 -1.2692 -2.0320
 6976TIP3    H242420   3.677   3.525   5.127  0.2597 -0.8437 -0.4205
 6977TIP3   OH242421   3.006   2.509  14.010 -0.3717 -0.4061  0.0510
 6977TIP3    H142422   3.030   2.417  14.006 -0.9476 -0.5248 -0.9964
 6977TIP3    H242423   3.089   2.556  14.015 -0.0292 -0.9280 -0.6770
 6978TIP3   OH242424   3.189   4.075   2.893 -0.4002 -0.6952 -0.0341
 6978TIP3    H142425   3.154   4.035   2.813 -0.8002  0.1498 -0.2946
 6978TIP3    H242426   3.193   4.168   2.873 -2.0896 -0.2390  1.4918
 6979TIP3   OH242427   3.837   5.896   5.588 -0.0588  0.6594 -0.8837
 6979TIP3    H142428   3.906   5.896   5.654 -1.4968 -0.3953  0.6876
 6979TIP3    H242429   3.866   5.960   5.523  2.5307  0.0170 -0.4613
 6980TIP3   OH242430   1.040   4.489  14.114  0.0902 -0.1902  0.4886
 6980TIP3    H142431   1.033   4.419  14.049  1.0964  0.0931  0.0449
 6980TIP3    H242432   0.956   4.489  14.159 -0.1134 -1.3274  0.1359
 6981TIP3   OH242433   5.693   2.394  14.860  0.2438 -0.2725  0.3497
 6981TIP3    H142434   5.645   2.332  14.804 -0.0745  1.1450 -1.0217
 6981TIP3    H242435   5.643   2.475  14.852  0.6120  0.1652  2.1734
 6982TIP3   OH242436   0.315   2.365  14.675 -0.5847 -0.6799 -0.7911
 6982TIP3    H142437   0.371   2.442  14.661 -3.4395  1.9648  0.9989
 6982TIP3    H242438   0.239   2.381  14.619 -2.9225 -0.1602  2.2929
 6983TIP3   OH242439   5.010   5.655   3.849 -0.1605  0.3321 -0.1561
 6983TIP3    H142440   5.028   5.609   3.767  1.8281 -0.5360  0.6845
 6983TIP3    H242441   4.968   5.737   3.823  1.2956  0.5228 -2.1333
 6984TIP3   OH242442   3.023   6.470  16.999 -0.2323  0.2935  0.7266
 6984TIP3    H142443   2.967   6.479  16.922  0.1189  0.3628  0.4778
 6984TIP3    H242444   3.112   6.470  16.964 -0.1003 -1.7984  0.8917
 6985TIP3   OH242445   4.905   0.373   4.919  0.5636 -0.0474  0.4428
 6985TIP3    H142446   4.833   0.318   4.951  0.6847  0.3145  1.3784
 6985TIP3    H242447   4.938   0.416   4.998  1.5032  0.1481 -0.0506
 6986TIP3   OH242448   5.424   4.761   3.155  0.3815 -0.0913 -0.0643
 6986TIP3    H142449   5.520   4.766   3.152  0.4320 -0.9132  0.0126
 6986TIP3    H242450   5.404   4.670   3.131 -0.4201  0.3017 -0.9331
 6987TIP3   OH242451   2.593   4.782  12.779  0.4249  0.7515 -0.3847
 6987TIP3    H142452   2.568   4.873  12.787 -0.2997  0.5695 -0.5141
 6987TIP3    H242453   2.555   4.739  12.856  0.7463  0.5569 -0.3319
 6988TIP3   OH242454   6.301   1.588  14.160  0.4839 -0.0403  0.2706
 6988TIP3    H142455   6.337   1.540  14.086 -1.6072 -1.8420  0.3205
 6988TIP3    H242456   6.320   1.533  14.236  0.1996  0.4192  0.6860
 6989TIP3   OH242457   2.947   0.676  12.975 -0.3763 -0.1250  0.2407
 6989TIP3    H142458   2.984   0.604  13.027 -0.8674  0.4412  1.4075
 6989TIP3    H242459   3.007   0.685  12.901  1.0144 -0.1932  1.3229
 6990TIP3   OH242460   1.288   6.261   0.968  0.6476 -0.1283 -0.1189
 6990TIP3    H142461   1.348   6.265   1.043 -0.1093 -1.1897  0.5855
 6990TIP3    H242462   1.217   6.322   0.991  0.4768 -0.3618 -0.0193
 6991TIP3   OH242463   4.218   0.561   2.256  0.7319  0.3743 -0.1187
 6991TIP3    H142464   4.137   0.559   2.206  0.9890  0.3460 -0.5434
 6991TIP3    H242465   4.287   0.550   2.190  1.0069 -1.7486  0.4585
 6992TIP3   OH242466   4.940   3.609  13.262 -0.1941 -0.2326  0.2578
 6992TIP3    H142467   4.996   3.539  13.295  2.1331  0.7529 -1.3074
 6992TIP3    H242468   4.881   3.566  13.200  0.5643 -0.9634  0.0321
 6993TIP3   OH242469   2.662   5.693  10.945 -0.3361 -0.1601  0.1470
 6993TIP3    H142470   2.747   5.733  10.965 -1.4293  2.1423  0.5295
 6993TIP3    H242471   2.662   5.683  10.850  0.2738  0.0446  0.1213
 6994TIP3   OH242472   4.299   1.283  14.155  0.6495 -0.0500 -0.2943
 6994TIP3    H142473   4.354   1.231  14.213 -0.4126  1.1931  1.9823
 6994TIP3    H242474   4.335   1.371  14.159 -1.0304  0.6473  0.7263
 6995TIP3   OH242475   0.077   1.743   4.548  0.6120 -0.6731 -0.1199
 6995TIP3    H142476   0.168   1.720   4.530 -0.1417 -1.7269 -3.0419
 6995TIP3    H242477   0.026   1.680   4.498 -1.7405  0.4448  0.7519
 6996TIP3   OH242478   1.102   5.285  16.625  0.0806 -0.4009 -0.2185
 6996TIP3    H142479   1.195   5.287  16.604  0.0935  0.1074 -0.1305
 6996TIP3    H242480   1.089   5.360  16.683 -0.7661  0.7295 -1.8032
 6997TIP3   OH242481   0.783   3.666  12.099 -0.1531  0.4650 -0.5574
 6997TIP3    H142482   0.737   3.716  12.032  0.1542 -1.7801 -2.5609
 6997TIP3    H242483   0.875   3.685  12.085 -0.1249  0.5505 -0.2713
 6998TIP3   OH242484   2.458   6.170  17.003  0.0266 -0.4780 -0.3146
 6998TIP3    H142485   2.417   6.192  17.087 -1.2261 -0.6097 -0.8671
 6998TIP3    H242486   2.552   6.185  17.018 -0.3655  1.7386  0.4346
 6999TIP3   OH242487   1.696   2.688   1.858  0.7015  0.7048 -0.2952
 6999TIP3    H142488   1.689   2.685   1.953 -0.3796  1.1731 -0.3513
 6999TIP3    H242489   1.672   2.600   1.829  2.2750  0.1691 -0.0911
 7000TIP3   OH242490   5.215   6.434   2.235  0.1485 -0.1997 -0.1662
 7000TIP3    H142491   5.128   6.470   2.220 -1.0641 -2.7383  0.3037
 7000TIP3    H242492   5.267   6.465   2.160 -0.2966  3.5882  0.9088
 7001TIP3   OH242493   3.558   2.263   3.452  0.0188  0.2984  0.1849
 7001TIP3    H142494   3.531   2.351   3.477  1.1121  0.2690  1.5736
 7001TIP3    H242495   3.538   2.209   3.528 -0.9453 -0.7453 -0.7685
 7002TIP3   OH242496   2.175   6.316   5.389  0.0132 -0.0332 -0.8028
 7002TIP3    H142497   2.098   6.353   5.347 -1.0311 -0.6373  0.4961
 7002TIP3    H242498   2.202   6.383   5.452  0.2911 -0.0050 -0.9490
 7003TIP3   OH242499   6.488   1.244  14.569  0.2355  0.2739 -1.2465
 7003TIP3    H142500   6.534   1.323  14.595  0.0765 -0.1539  0.4144
 7003TIP3    H242501   6.552   1.174  14.581 -1.1290 -0.5612  2.6453
 7004TIP3   OH242502   3.562   1.077   4.593  0.5483  0.3511  0.6092
 7004TIP3    H142503   3.488   1.056   4.651  0.0452  0.1565 -0.0938
 7004TIP3    H242504   3.633   1.020   4.624  0.5519  0.8458  1.5675
 7005TIP3   OH242505   6.502   3.188   1.660  0.1514  0.1922  0.0044
 7005TIP3    H142506   6.482   3.100   1.628  0.8527  0.9005 -2.6635
 7005TIP3    H242507   6.426   3.212   1.714 -1.6193 -0.8312 -1.8878
 7006TIP3   OH242508   6.553   3.779   6.210  0.2904 -0.2458 -0.2536
 7006TIP3    H142509   6.561   3.793   6.304 -2.4045 -0.1917  0.0529
 7006TIP3    H242510   6.591   3.692   6.195 -1.0843 -1.1585  1.2699
 7007TIP3   OH242511   4.056   4.074  16.031  0.0225 -0.2945 -0.2841
 7007TIP3    H142512   4.048   4.141  15.963  0.7299 -2.2185 -2.4248
 7007TIP3    H242513   4.111   4.113  16.098  0.0044  1.4134 -1.2100
 7008TIP3   OH242514   4.058   1.485   3.629 -0.3800  0.5991 -0.3577
 7008TIP3    H142515   3.979   1.436   3.605 -1.2675  1.3559  0.9177
 7008TIP3    H242516   4.128   1.442   3.580 -1.0370 -2.2386  0.9740
 7009TIP3   OH242517   0.866   0.548   2.992  0.3883  0.3764  0.1981
 7009TIP3    H142518   0.951   0.525   2.956  0.5372 -1.1163  1.4247
 7009TIP3    H242519   0.862   0.644   2.984  0.9899  0.2659 -2.3724
 7010TIP3   OH242520   1.296   2.057   4.793 -0.1118 -0.0438 -0.3620
 7010TIP3    H142521   1.377   2.039   4.744  0.0236  1.7978 -0.9187
 7010TIP3    H242522   1.309   2.146   4.828 -2.1877  0.6073 -1.1043
 7011TIP3   OH242523   4.242   4.340  14.304 -0.0775  0.4351 -0.1652
 7011TIP3    H142524   4.199   4.374  14.383 -0.2870 -1.2796  0.5075
 7011TIP3    H242525   4.276   4.254  14.331 -1.0230 -0.6394 -2.2061
 7012TIP3   OH242526   0.870   3.674   4.606  0.1714  0.0861 -0.5401
 7012TIP3    H142527   0.832   3.761   4.590  1.6038  1.0289  0.8406
 7012TIP3    H242528   0.955   3.677   4.563  1.1446  0.2018  1.2630
 7013TIP3   OH242529   2.440   2.256   5.168 -0.2992 -0.4002  0.0416
 7013TIP3    H142530   2.478   2.180   5.125  1.5787 -0.1129  1.0842
 7013TIP3    H242531   2.418   2.224   5.256 -1.7964 -0.3363 -0.2745
 7014TIP3   OH242532   5.383   4.270  11.613 -0.6895 -0.8504 -0.5688
 7014TIP3    H142533   5.410   4.361  11.612 -0.6140 -0.8386  0.6594
 7014TIP3    H242534   5.425   4.231  11.537 -0.9805  0.2065 -1.2800
 7015TIP3   OH242535   6.342   2.637   1.830  0.6181  0.2638  0.2388
 7015TIP3    H142536   6.303   2.651   1.916 -0.4884 -0.8669 -0.0490
 7015TIP3    H242537   6.348   2.542   1.821 -0.9925  0.2770 -1.6428
 7016TIP3   OH242538   2.612   6.197  11.368  0.5878  0.1269 -0.2270
 7016TIP3    H142539   2.531   6.150  11.383  0.3690  0.3686 -0.6259
 7016TIP3    H242540   2.600   6.240  11.283  1.1290  0.1677 -0.2907
 7017TIP3   OH242541   4.234   6.155   3.388 -0.1353  0.2171 -0.7124
 7017TIP3    H142542   4.294   6.094   3.346 -0.0123 -0.2546  0.1307
 7017TIP3    H242543   4.246   6.140   3.482 -0.6804  0.9807 -0.5086
 7018TIP3   OH242544   5.558   1.912  16.783  0.1130 -0.9015  0.2259
 7018TIP3    H142545   5.466   1.897  16.759 -0.1783 -1.3949  1.5806
 7018TIP3    H242546   5.606   1.846  16.733 -0.3415 -1.0623 -0.0119
 7019TIP3   OH242547   4.623   0.635   1.165  0.7836 -0.4972  0.2263
 7019TIP3    H142548   4.625   0.541   1.187  0.9561 -0.2795  1.2066
 7019TIP3    H242549   4.552   0.670   1.219  1.0626  0.0299  0.2485
 7020TIP3   OH242550   4.182   6.289  13.617  0.7035  0.6979  0.5256
 7020TIP3    H142551   4.210   6.378  13.639  3.1336  0.0130  0.5510
 7020TIP3    H242552   4.260   6.236  13.634 -0.3916 -1.2951 -0.4360
 7021TIP3   OH242553   5.978   3.247   1.777 -0.0682 -0.5868  0.1038
 7021TIP3    H142554   5.959   3.339   1.763  1.9188 -0.1105  0.2422
 7021TIP3    H242555   5.915   3.200   1.723 -0.2656  0.8899 -0.9856
 7022TIP3   OH242556   4.677   4.101  16.397 -0.2772  0.3662 -0.6486
 7022TIP3    H142557   4.625   4.126  16.474  1.5385  1.2871  0.3482
 7022TIP3    H242558   4.641   4.154  16.326 -0.6367  1.0878  0.0499
 7023TIP3   OH242559   6.244   0.932   4.707 -0.1908  0.3324  0.4004
 7023TIP3    H142560   6.262   0.993   4.778 -0.0123  0.5458  0.1735
 7023TIP3    H242561   6.217   0.851   4.751  1.4203 -0.0382  0.7692
 7024TIP3   OH242562   0.904   3.748  16.186  0.1533 -0.1830 -0.1246
 7024TIP3    H142563   0.844   3.676  16.201 -0.0654  0.0602  0.1825
 7024TIP3    H242564   0.848   3.825  16.178  0.4906  0.8546  4.5536
 7025TIP3   OH242565   6.782   4.438  17.062 -0.0604 -0.1161 -0.7380
 7025TIP3    H142566   6.738   4.491  17.128  2.4266 -1.0724  1.8989
 7025TIP3    H242567   6.824   4.501  17.004  1.2420  0.8939  1.1946
 7026TIP3   OH242568   4.841   6.014   3.835 -0.1567  0.2416 -0.0269
 7026TIP3    H142569   4.753   6.011   3.797 -1.0268  0.4586  1.8416
 7026TIP3    H242570   4.863   6.107   3.837  0.0818  0.1948 -0.4063
 7027TIP3   OH242571   0.079   6.631  11.393  0.0010 -0.1024 -0.2638
 7027TIP3    H142572   0.033   6.582  11.324  0.4190 -0.3827 -0.3436
 7027TIP3    H242573   0.008   6.668  11.446 -0.3281 -0.9672 -0.0785
 7028TIP3   OH242574   2.089   2.281   0.439 -0.2645  0.6643  0.3909
 7028TIP3    H142575   2.161   2.255   0.381 -1.2944  2.2823 -1.7812
 7028TIP3    H242576   2.132   2.310   0.519  1.2114 -2.0519  0.7123
 7029TIP3   OH242577   1.732   0.094  13.522 -0.7189 -0.2118 -0.0403
 7029TIP3    H142578   1.731   0.178  13.569  0.9569  0.4586 -1.0985
 7029TIP3    H242579   1.673   0.107  13.448 -0.2328  0.1643 -0.3705
 7030TIP3   OH242580   4.093   3.606  14.163 -0.3414  0.0385  0.2336
 7030TIP3    H142581   4.120   3.519  14.190  0.1871  0.7185  2.0115
 7030TIP3    H242582   3.998   3.602  14.159 -0.3745 -0.3688  1.2609
 7031TIP3   OH242583   5.283   3.638  15.902 -0.7072 -0.1787 -0.0872
 7031TIP3    H142584   5.195   3.662  15.929 -0.1180  1.6302  0.3916
 7031TIP3    H242585   5.321   3.595  15.979 -0.5674  0.7294  0.3573
 7032TIP3   OH242586   2.262   4.704  15.876 -0.3059 -0.5392 -0.1439
 7032TIP3    H142587   2.267   4.654  15.958 -1.8430 -0.0914  0.2583
 7032TIP3    H242588   2.169   4.703  15.853 -0.1844  1.0449 -0.8155
 7033TIP3   OH242589   4.836   3.911  12.339  0.4970  0.8203  0.5121
 7033TIP3    H142590   4.767   3.919  12.273 -1.7718 -0.8213  2.4798
 7033TIP3    H242591   4.866   3.820  12.331  0.0455  0.5321  1.7830
 7034TIP3   OH242592   3.193   3.835   6.263 -0.2056  0.3069  0.2281
 7034TIP3    H142593   3.236   3.812   6.346  0.0697  0.7841  0.2229
 7034TIP3    H242594   3.139   3.759   6.242 -0.4366  0.2567  0.9512
 7035TIP3   OH242595   1.576   5.139   3.800  0.1488 -0.0488 -0.1523
 7035TIP3    H142596   1.569   5.100   3.887 -0.2475  0.3442 -0.0007
 7035TIP3    H242597   1.497   5.192   3.791  0.3006  0.1039 -0.6596
 7036TIP3   OH242598   6.774   5.177  13.537  0.1162 -0.5236  0.5878
 7036TIP3    H142599   6.847   5.116  13.529  1.1124  0.1834  3.2842
 7036TIP3    H242600   6.807   5.258  13.498  0.2935 -0.5741  0.6312
 7037TIP3   OH242601   3.651   1.213  17.043 -0.0468  0.1214 -0.2465
 7037TIP3    H142602   3.646   1.137  16.985  1.2477  0.0272 -0.2643
 7037TIP3    H242603   3.562   1.223  17.077 -0.2325 -1.4252 -0.2038
 7038TIP3   OH242604   5.544   1.729   4.092  0.1196 -0.3042  0.1433
 7038TIP3    H142605   5.606   1.718   4.020  0.0637  3.0926 -0.6313
 7038TIP3    H242606   5.575   1.670   4.161  0.3743 -3.4529 -2.4242
 7039TIP3   OH242607   5.039   2.400  11.875 -0.0179 -0.9514  0.0397
 7039TIP3    H142608   5.099   2.474  11.874 -0.8055 -0.2958  0.2267
 7039TIP3    H242609   5.083   2.333  11.822  0.7806 -0.4231  0.0135
 7040TIP3   OH242610   6.258   2.364  15.017 -0.1168 -0.0927 -0.0592
 7040TIP3    H142611   6.217   2.403  14.940  3.5600 -1.4425 -3.0250
 7040TIP3    H242612   6.260   2.270  14.999  2.4986 -0.2539  0.6487
 7041TIP3   OH242613   0.420   2.068  11.006  0.2140  0.0916 -0.2423
 7041TIP3    H142614   0.348   2.106  10.956 -0.0981 -0.0098  0.1205
 7041TIP3    H242615   0.434   1.981  10.967  1.0964  0.6659 -1.2344
 7042TIP3   OH242616   5.068   5.731  16.651  0.6208 -0.2521 -0.1984
 7042TIP3    H142617   5.127   5.797  16.614  0.6018  1.3499  2.3387
 7042TIP3    H242618   5.116   5.697  16.727 -1.1122  0.0543  1.0882
 7043TIP3   OH242619   1.150   4.067   3.981 -0.5971  0.6758  0.4922
 7043TIP3    H142620   1.072   4.079   4.035  0.3349  1.6614  1.6725
 7043TIP3    H242621   1.194   3.991   4.019  0.0857  1.4000  1.1811
 7044TIP3   OH242622   5.938   5.465   5.604  0.1005  0.7956  0.1517
 7044TIP3    H142623   5.951   5.524   5.530 -1.5356  1.2996  0.2242
 7044TIP3    H242624   5.925   5.524   5.679 -1.0487  0.3550  0.3183
 7045TIP3   OH242625   1.124   0.666  16.461  0.4946 -0.2951 -0.1146
 7045TIP3    H142626   1.110   0.734  16.395 -1.8113 -0.2617  0.3328
 7045TIP3    H242627   1.187   0.607  16.420  0.8274  0.9033 -1.4281
 7046TIP3   OH242628   1.667   1.681   4.151 -0.0204  0.1846 -0.8208
 7046TIP3    H142629   1.650   1.591   4.124 -1.5097 -0.1612  1.0819
 7046TIP3    H242630   1.759   1.696   4.130 -0.0743 -1.3549 -2.2801
 7047TIP3   OH242631   2.596   3.309   0.391  0.3274  0.2693  0.0955
 7047TIP3    H142632   2.676   3.339   0.348 -1.0921  2.2658 -1.3368
 7047TIP3    H242633   2.572   3.381   0.448 -1.6472  0.7228 -1.2331
 7048TIP3   OH242634   0.423   2.065  15.469  0.7907 -0.7105  0.1989
 7048TIP3    H142635   0.451   2.113  15.547 -3.6691  1.4656  0.7636
 7048TIP3    H242636   0.373   1.991  15.503 -1.4485  0.4230 -0.4634
 7049TIP3   OH242637   5.438   6.202   6.407  0.1719  0.3569 -0.3004
 7049TIP3    H142638   5.350   6.240   6.404  0.1435  0.3543  0.3104
 7049TIP3    H242639   5.441   6.154   6.490  0.0602 -1.3638 -1.2612
 7050TIP3   OH242640   1.204   3.696  14.973 -0.3766 -0.4557  0.1127
 7050TIP3    H142641   1.256   3.751  14.914 -0.3286 -0.5944  0.0262
 7050TIP3    H242642   1.212   3.738  15.059 -3.1371  1.7044 -0.5215
 7051TIP3   OH242643   6.432   2.748  14.348 -0.4270 -0.1231  0.1061
 7051TIP3    H142644   6.393   2.671  14.390  0.8808 -0.5924  0.5171
 7051TIP3    H242645   6.517   2.717  14.316  0.6027  1.3940  1.2291
 7052TIP3   OH242646   3.830   1.090   2.564 -0.5063 -0.2842  0.3545
 7052TIP3    H142647   3.814   1.031   2.490 -0.1500  1.6616 -1.4030
 7052TIP3    H242648   3.795   1.174   2.535  3.2279  1.5953  0.6339
 7053TIP3   OH242649   2.483   1.597   1.110 -0.4170  0.4461 -0.6417
 7053TIP3    H142650   2.469   1.566   1.021 -0.3459  0.1201 -0.5432
 7053TIP3    H242651   2.562   1.651   1.105 -1.2020  1.5846 -1.0373
 7054TIP3   OH242652   6.108   5.778   2.581 -1.1519  0.9664 -0.7583
 7054TIP3    H142653   6.047   5.818   2.643 -0.9822 -0.9817  0.7686
 7054TIP3    H242654   6.187   5.760   2.632  0.2277  2.1398 -2.3542
 7055TIP3   OH242655   2.279   6.381   1.498 -0.1534  0.3711  0.4335
 7055TIP3    H142656   2.210   6.314   1.498 -1.0991  1.3100  1.4175
 7055TIP3    H242657   2.317   6.375   1.411 -2.5993  0.9384 -0.7804
 7056TIP3   OH242658   6.619   4.752  16.250  0.4679 -0.1280  0.0010
 7056TIP3    H142659   6.685   4.732  16.183  0.6378 -0.5391  0.2847
 7056TIP3    H242660   6.637   4.843  16.275  0.1300  0.1724 -0.8114
 7057TIP3   OH242661   1.083   5.215  15.316  0.0862  0.2295 -0.3838
 7057TIP3    H142662   1.041   5.222  15.230 -1.5759  1.7106  0.4825
 7057TIP3    H242663   1.015   5.178  15.373  1.1089 -0.5706  0.3460
 7058TIP3   OH242664   6.277   0.721  12.506 -0.0525  0.2119  0.6512
 7058TIP3    H142665   6.235   0.731  12.420  1.2127 -0.6941 -0.1077
 7058TIP3    H242666   6.311   0.631  12.505 -1.7648 -0.5627  2.9241
 7059TIP3   OH242667   4.305   6.593   4.828  0.3516  0.4382 -0.2485
 7059TIP3    H142668   4.350   6.641   4.898 -1.0321  1.6697 -0.1503
 7059TIP3    H242669   4.374   6.542   4.786  1.0960 -1.2166  2.6504
 7060TIP3   OH242670   4.336   6.564   0.019 -0.2430 -0.0020 -0.0732
 7060TIP3    H142671   4.297   6.644   0.054 -0.2968  0.5665 -1.3878
 7060TIP3    H242672   4.425   6.588  -0.004 -0.2677 -0.3111 -0.5073
 7061TIP3   OH242673   5.660   6.388  17.199 -0.1564 -0.4401 -0.3640
 7061TIP3    H142674   5.648   6.309  17.146 -0.4569 -1.5505  1.2538
 7061TIP3    H242675   5.740   6.428  17.166 -1.4482  0.1595 -3.0641
 7062TIP3   OH242676   3.315   5.776   4.084  0.5870 -0.0605 -0.5749
 7062TIP3    H142677   3.337   5.848   4.143 -1.1411 -1.5114  2.0210
 7062TIP3    H242678   3.390   5.717   4.089  0.1801 -0.4944  0.7699
 7063TIP3   OH242679   5.405   5.741  13.963 -0.8550 -0.4979 -0.1256
 7063TIP3    H142680   5.363   5.826  13.951 -1.0688 -0.5508  0.2462
 7063TIP3    H242681   5.424   5.736  14.057  0.2325 -0.3551 -0.3211
 7064TIP3   OH242682   1.035   3.191  12.664 -0.5204 -0.0591  0.4197
 7064TIP3    H142683   1.018   3.110  12.711 -0.0036 -0.6589 -0.4036
 7064TIP3    H242684   1.105   3.234  12.713  0.1445 -0.7688  0.1094
 7065TIP3   OH242685   2.901   3.017  16.933  0.0044 -0.6093 -0.3294
 7065TIP3    H142686   2.831   2.952  16.934  0.1048 -0.7530 -1.2662
 7065TIP3    H242687   2.866   3.093  16.979 -0.6025 -0.8448 -0.4031
 7066TIP3   OH242688   3.383   0.924   4.221  0.3084 -0.6068  0.7719
 7066TIP3    H142689   3.408   0.864   4.151 -1.5475 -1.2563  0.6087
 7066TIP3    H242690   3.452   0.991   4.222  0.7406 -0.9789 -1.1801
 7067TIP3   OH242691   5.510   1.161  13.136  0.1786  0.4250  0.0177
 7067TIP3    H142692   5.486   1.254  13.144 -2.4954 -0.0098 -1.5857
 7067TIP3    H242693   5.436   1.114  13.175  0.4755 -1.0372 -1.0996
 7068TIP3   OH242694   5.227   5.450   0.081 -0.5960  0.1449  0.2535
 7068TIP3    H142695   5.207   5.543   0.070  0.0857  0.2502 -0.1573
 7068TIP3    H242696   5.229   5.416  -0.008  0.0445 -0.0673  0.3446
 7069TIP3   OH242697   6.106   5.353   2.884  0.3718 -0.0774 -0.3294
 7069TIP3    H142698   6.112   5.259   2.904 -0.4857 -0.4322 -1.5878
 7069TIP3    H242699   6.163   5.364   2.808  0.9543  0.5691  0.1864
 7070TIP3   OH242700   6.719   2.430  11.115 -0.6807 -0.2309 -0.6465
 7070TIP3    H142701   6.733   2.504  11.175 -0.1050 -0.2880 -0.7138
 7070TIP3    H242702   6.770   2.452  11.037 -0.6085 -0.6416 -0.7137
 7071TIP3   OH242703   6.254   2.855  14.789 -0.3457 -0.8523  0.4605
 7071TIP3    H142704   6.203   2.877  14.867  1.2476  1.3169  0.9645
 7071TIP3    H242705   6.339   2.827  14.822  0.8517  1.4512 -0.4225
 7072TIP3   OH242706   4.011   1.735   3.727 -0.1070 -0.1788  0.7089
 7072TIP3    H142707   3.919   1.712   3.732 -0.1364 -0.2121  0.1663
 7072TIP3    H242708   4.053   1.657   3.691  0.1457 -0.1986  1.0468
 7073TIP3   OH242709   0.166   1.051   0.001  0.4626 -0.3368 -0.0439
 7073TIP3    H142710   0.105   0.979  -0.018 -0.1877 -0.0630  0.9146
 7073TIP3    H242711   0.250   1.022  -0.034 -0.6165  0.1579 -3.3268
 7074TIP3   OH242712   4.970   2.121  16.326 -0.1454  0.3267 -0.0395
 7074TIP3    H142713   5.016   2.117  16.242 -0.9537 -0.1859 -0.4770
 7074TIP3    H242714   4.879   2.099  16.304  0.0816 -2.3684  1.3270
 7075TIP3   OH242715   6.472   4.472   0.137  0.4551 -0.0338  0.2247
 7075TIP3    H142716   6.500   4.554   0.097 -0.1226 -0.3692 -0.9037
 7075TIP3    H242717   6.537   4.408   0.110 -1.0834 -0.7503 -2.1590
 7076TIP3   OH242718   1.309   0.388   1.016 -0.6427  0.0788 -0.2548
 7076TIP3    H142719   1.342   0.331   0.947 -1.3078 -2.0181  1.0533
 7076TIP3    H242720   1.387   0.429   1.053  0.0301 -1.1198 -0.3076
 7077TIP3   OH242721   0.570   6.386   0.902  0.0698 -0.2085  0.2428
 7077TIP3    H142722   0.533   6.298   0.889  1.8722 -0.9746  0.1040
 7077TIP3    H242723   0.527   6.418   0.982 -0.3288 -1.3728  0.5194
 7078TIP3   OH242724   1.366   0.539  15.374 -0.2446 -0.2984 -0.3874
 7078TIP3    H142725   1.384   0.554  15.467  1.3425 -0.9253 -0.5676
 7078TIP3    H242726   1.302   0.606  15.351 -0.6956 -0.1618  1.1623
 7079TIP3   OH242727   4.465   0.438   0.875  0.1711 -0.2066 -0.1205
 7079TIP3    H142728   4.470   0.502   0.804 -0.4820 -0.4147 -0.3623
 7079TIP3    H242729   4.555   0.409   0.888  0.3775  0.2734 -0.4579
 7080TIP3   OH242730   2.882   2.196   0.544  0.4606 -0.3591 -0.3007
 7080TIP3    H142731   2.881   2.209   0.639 -0.0892  0.5488 -0.4172
 7080TIP3    H242732   2.843   2.109   0.532 -0.2395 -0.1364  0.2638
 7081TIP3   OH242733   2.310   2.088   3.051  0.1221 -0.3062 -0.0195
 7081TIP3    H142734   2.281   2.023   2.988 -0.1407 -1.0637  0.8652
 7081TIP3    H242735   2.231   2.138   3.072 -0.2378 -1.3240  1.1669
 7082TIP3   OH242736   3.126   4.428  11.472  0.4431 -0.4679  0.4854
 7082TIP3    H142737   3.161   4.501  11.523 -0.0451 -0.1489  0.3643
 7082TIP3    H242738   3.194   4.410  11.407 -0.5283  1.6362 -1.2190
 7083TIP3   OH242739   3.434   1.898  16.434 -0.1195  0.7626 -0.2505
 7083TIP3    H142740   3.357   1.924  16.383 -0.6958 -3.0215 -1.6419
 7083TIP3    H242741   3.469   1.823  16.386  1.9910 -0.2215  2.6009
 7084TIP3   OH242742   5.225   1.757  14.075  0.2958 -0.3666 -0.2184
 7084TIP3    H142743   5.210   1.712  13.992  0.0035 -0.9675  0.1551
 7084TIP3    H242744   5.150   1.815  14.085  0.3666 -0.2423 -0.4070
 7085TIP3   OH242745   4.484   1.822   4.448  0.1937 -0.7205  0.0208
 7085TIP3    H142746   4.489   1.727   4.441 -0.3335 -0.8527  1.1824
 7085TIP3    H242747   4.391   1.842   4.439  0.4489 -0.1510 -1.7402
 7086TIP3   OH242748   1.241   6.615  13.408  0.4288  0.2334  0.2235
 7086TIP3    H142749   1.151   6.637  13.433  0.5438 -0.3086  1.1312
 7086TIP3    H242750   1.293   6.691  13.435  0.1579  0.8878 -1.0005
 7087TIP3   OH242751   5.306   1.809   2.050  0.4444 -0.0021 -0.0800
 7087TIP3    H142752   5.340   1.890   2.086  1.7599 -0.7278  0.3862
 7087TIP3    H242753   5.302   1.825   1.955 -0.3658  0.9618  0.1046
 7088TIP3   OH242754   5.593   1.454  12.536  0.0028  0.2400 -0.3839
 7088TIP3    H142755   5.662   1.409  12.488 -1.5336 -0.6070 -1.9016
 7088TIP3    H242756   5.593   1.543  12.499 -0.4565 -0.0921 -1.2033
 7089TIP3   OH242757   6.128   3.531   0.689  0.3636 -0.1343 -0.1434
 7089TIP3    H142758   6.059   3.477   0.728  1.3178  0.1693  2.1551
 7089TIP3    H242759   6.158   3.587   0.761  2.7194  0.0410 -1.1743
 7090TIP3   OH242760   0.379   3.534   4.018  0.2983 -0.7121  0.1702
 7090TIP3    H142761   0.340   3.449   3.999  0.6690 -0.8532  0.0267
 7090TIP3    H242762   0.470   3.526   3.989  0.6480 -0.6558  1.2043
 7091TIP3   OH242763   3.969   4.786  11.155 -0.1992  0.4675  0.3470
 7091TIP3    H142764   3.943   4.734  11.078 -0.9601  0.1559  0.7960
 7091TIP3    H242765   4.027   4.728  11.204  0.4133  0.7253 -0.0696
 7092TIP3   OH242766   6.071   6.113   0.448 -0.3730 -0.4730  0.2503
 7092TIP3    H142767   5.980   6.129   0.474 -0.0754  0.8730  0.5187
 7092TIP3    H242768   6.109   6.066   0.522 -0.3182  0.7653  1.0265
 7093TIP3   OH242769   6.090   3.095   3.367 -0.3357  0.1955  0.0736
 7093TIP3    H142770   6.182   3.094   3.390 -0.5800  0.4061  1.0850
 7093TIP3    H242771   6.089   3.101   3.271  0.6895 -0.0159  0.0467
 7094TIP3   OH242772   2.178   5.832  16.026 -0.2535 -0.4143 -0.7317
 7094TIP3    H142773   2.215   5.917  16.050  0.1776 -0.5749 -0.8292
 7094TIP3    H242774   2.150   5.794  16.109  1.5241 -1.1065 -0.4083
 7095TIP3   OH242775   0.570   4.913  13.737  0.2337  0.1777 -0.0146
 7095TIP3    H142776   0.587   4.832  13.786 -1.8175 -1.2584 -1.4491
 7095TIP3    H242777   0.522   4.883  13.659 -2.6829  2.9647  0.4918
 7096TIP3   OH242778   4.911   5.751  11.121  0.1005  0.0687 -0.0633
 7096TIP3    H142779   4.899   5.755  11.026  1.5582  1.4268 -0.2119
 7096TIP3    H242780   4.951   5.834  11.144 -0.7447 -0.0132  1.8440
 7097TIP3   OH242781   4.598   4.608  13.839  0.1152  0.0296  0.6219
 7097TIP3    H142782   4.648   4.619  13.758 -0.3472  1.3150  0.4807
 7097TIP3    H242783   4.620   4.686  13.891 -0.3832 -0.2734  1.3015
 7098TIP3   OH242784   1.919   5.564  11.984  0.3574  0.2216  0.3479
 7098TIP3    H142785   1.830   5.532  11.993 -0.7846  2.8009 -0.9849
 7098TIP3    H242786   1.961   5.503  11.923 -0.5358 -0.8628  0.7869
 7099TIP3   OH242787   0.360   4.358   2.245  0.2477  0.3103  0.0547
 7099TIP3    H142788   0.318   4.420   2.186 -0.6605 -0.1515  0.1926
 7099TIP3    H242789   0.453   4.368   2.228  0.0109  0.1493 -1.4927
 7100TIP3   OH242790   3.471   5.609  15.683  0.6464 -0.4978  0.0382
 7100TIP3    H142791   3.537   5.630  15.749  0.2658 -1.1071  0.6346
 7100TIP3    H242792   3.512   5.630  15.600  1.1973  0.1411  0.4595
 7101TIP3   OH242793   1.244   4.135  14.984  0.0375  0.0951 -0.7090
 7101TIP3    H142794   1.337   4.154  14.971 -0.1120  1.3486 -0.0754
 7101TIP3    H242795   1.198   4.210  14.947 -0.6817 -0.0004 -0.0454
 7102TIP3   OH242796   2.402   4.992  12.169  0.5168  0.6717  0.2296
 7102TIP3    H142797   2.353   4.995  12.252  0.3584  1.3317  0.1206
 7102TIP3    H242798   2.335   4.973  12.103  0.4959  1.0031  0.1516
 7103TIP3   OH242799   4.764   4.898   5.492 -0.6377  0.1157  0.1550
 7103TIP3    H142800   4.689   4.944   5.455 -0.9679 -1.1645 -0.8637
 7103TIP3    H242801   4.736   4.872   5.579 -1.3374 -0.2041 -0.1547
 7104TIP3   OH242802   2.392   5.230   4.521 -0.0896  0.7305 -0.3025
 7104TIP3    H142803   2.397   5.275   4.436  0.9709 -0.2148 -0.7664
 7104TIP3    H242804   2.323   5.164   4.508  0.9838 -0.3110 -0.9016
 7105TIP3   OH242805   4.728   6.121   0.306 -0.9243 -0.8795 -0.0553
 7105TIP3    H142806   4.680   6.172   0.371 -0.7030 -0.2350 -0.3894
 7105TIP3    H242807   4.682   6.136   0.224  1.3653  2.0039 -0.9587
 7106TIP3   OH242808   4.884   3.057   3.987 -0.0049 -0.0128  0.0526
 7106TIP3    H142809   4.961   3.020   4.031  1.7246  2.0825 -1.0597
 7106TIP3    H242810   4.850   2.984   3.935  2.4883 -0.5219 -1.0268
 7107TIP3   OH242811   4.642   4.426  14.657  0.0665 -0.0981  0.6845
 7107TIP3    H142812   4.618   4.471  14.576  0.3019 -1.9597 -0.4992
 7107TIP3    H242813   4.731   4.455  14.676 -0.2156  0.8163  0.6313
 7108TIP3   OH242814   3.203   5.149   0.086 -0.6865 -0.7421 -0.5688
 7108TIP3    H142815   3.234   5.066   0.048  2.3894  0.8704 -1.9246
 7108TIP3    H242816   3.283   5.198   0.106 -2.2325  0.5435  3.6856
 7109TIP3   OH242817   4.738   0.055   5.744  0.1287  0.4089 -0.7362
 7109TIP3    H142818   4.801   0.126   5.755 -1.2033  1.5587 -0.2620
 7109TIP3    H242819   4.711   0.061   5.652 -0.5541  1.0501 -0.5093
 7110TIP3   OH242820   2.435   3.431   1.018 -0.1517 -0.4935  0.0227
 7110TIP3    H142821   2.469   3.406   0.932  0.8783 -1.6149  0.7148
 7110TIP3    H242822   2.349   3.390   1.022 -0.2484 -0.3533 -0.5041
 7111TIP3   OH242823   1.289   0.470   1.478  0.0582  0.0357 -0.0572
 7111TIP3    H142824   1.346   0.528   1.427 -1.0627  0.7715 -0.5273
 7111TIP3    H242825   1.211   0.459   1.422  0.4939 -2.4805 -0.2884
 7112TIP3   OH242826   3.902   1.684  15.986  0.0838 -0.0043  0.3806
 7112TIP3    H142827   3.966   1.616  15.961 -0.1201  0.1085 -0.4834
 7112TIP3    H242828   3.880   1.663  16.076  0.5443 -0.6842  0.3494
 7113TIP3   OH242829   5.827   5.469   2.530  0.4025  0.0066 -0.0722
 7113TIP3    H142830   5.887   5.400   2.501 -0.3720 -0.0204 -1.6683
 7113TIP3    H242831   5.863   5.497   2.615  0.7124 -2.3577  0.6429
 7114TIP3   OH242832   4.884   3.455   5.027 -0.2571  0.6525  0.3170
 7114TIP3    H142833   4.834   3.408   4.960 -0.5073 -1.7415  2.0410
 7114TIP3    H242834   4.973   3.460   4.991 -0.1380 -1.5290  0.1472
 7115TIP3   OH242835   4.548   3.927   6.066  0.8629 -0.1313  0.2783
 7115TIP3    H142836   4.548   3.832   6.055 -2.5435 -0.2297 -0.1904
 7115TIP3    H242837   4.540   3.962   5.977  0.0315  0.4624  0.5671
 7116TIP3   OH242838   2.956   3.073  16.087 -0.5165 -0.6166  0.1746
 7116TIP3    H142839   3.031   3.027  16.051 -0.1301  1.1095 -1.4006
 7116TIP3    H242840   2.950   3.044  16.178  2.7820  0.0919  0.7126
 7117TIP3   OH242841   4.099   1.699   5.963  0.4147  0.1842  0.2132
 7117TIP3    H142842   4.086   1.680   5.870  1.4337 -2.2476  0.4805
 7117TIP3    H242843   4.114   1.793   5.966  0.4604  0.3218 -2.0866
 7118TIP3   OH242844   0.670   2.781   1.304 -0.2613  0.0230 -0.3252
 7118TIP3    H142845   0.684   2.687   1.313 -1.1584 -0.1523 -0.6456
 7118TIP3    H242846   0.645   2.811   1.392  0.5818  0.0647 -0.0993
 7119TIP3   OH242847   4.771   1.406  11.081 -0.0810 -0.1175 -0.3754
 7119TIP3    H142848   4.698   1.386  11.023 -2.3154 -0.6393  2.3762
 7119TIP3    H242849   4.740   1.480  11.134  1.1253 -0.7145  1.2475
 7120TIP3   OH242850   2.419   1.962   5.622  0.0857  0.1080  0.5016
 7120TIP3    H142851   2.329   1.932   5.617  0.5907 -1.3465 -0.3714
 7120TIP3    H242852   2.413   2.052   5.655 -1.7311  0.3612 -0.4383
 7121TIP3   OH242853   1.796   0.851  16.043 -0.5237 -0.4116  0.2062
 7121TIP3    H142854   1.796   0.945  16.060  1.0366 -0.3404 -0.0573
 7121TIP3    H242855   1.882   0.821  16.073 -0.1336 -1.3594 -1.7035
 7122TIP3   OH242856   2.185   4.089   2.645  0.5658 -0.0772  0.0225
 7122TIP3    H142857   2.119   4.082   2.576  1.2831 -1.5354 -0.5723
 7122TIP3    H242858   2.140   4.063   2.725  0.3396 -0.7846 -0.3307
 7123TIP3   OH242859   1.582   4.486   2.958 -0.4203 -0.1077 -0.7565
 7123TIP3    H142860   1.675   4.488   2.934 -0.4599  1.4356 -0.8589
 7123TIP3    H242861   1.555   4.578   2.955 -1.4869 -0.3292  1.1312
 7124TIP3   OH242862   3.165   5.792   5.231 -0.1847 -0.1474 -0.1997
 7124TIP3    H142863   3.215   5.873   5.220  1.8674 -1.4822 -1.4214
 7124TIP3    H242864   3.073   5.819   5.224  0.4465  2.0245 -0.8714
 7125TIP3   OH242865   2.739   4.281  17.045 -0.1290  0.0521  0.1014
 7125TIP3    H142866   2.671   4.343  17.069  0.4574  1.8528 -2.4022
 7125TIP3    H242867   2.803   4.287  17.116 -0.1528  2.2856  0.0118
 7126TIP3   OH242868   6.684   6.030  13.389  0.2266 -0.9039 -0.7269
 7126TIP3    H142869   6.721   6.118  13.402 -2.3819  0.0517  1.0065
 7126TIP3    H242870   6.730   5.976  13.453  0.2003 -0.2538 -0.1465
 7127TIP3   OH242871   6.155   4.094   1.906  0.3917 -0.4325 -0.2655
 7127TIP3    H142872   6.062   4.082   1.925  0.4338 -1.3089 -0.5595
 7127TIP3    H242873   6.158   4.114   1.813  0.4834 -0.2768 -0.2286
 7128TIP3   OH242874   3.008   5.176  10.715  0.5881 -0.0086 -0.1976
 7128TIP3    H142875   2.977   5.086  10.708  2.4098 -0.6876 -0.1246
 7128TIP3    H242876   2.929   5.229  10.714 -0.4942 -1.5582 -0.9961
 7129TIP3   OH242877   6.180   3.197  13.327 -0.2324 -0.4782 -0.4143
 7129TIP3    H142878   6.128   3.127  13.289  4.1390 -3.4017 -1.7086
 7129TIP3    H242879   6.168   3.187  13.422 -2.6397 -0.3389 -0.6381
 7130TIP3   OH242880   1.984   4.041   4.325 -0.0591  0.2268 -0.1921
 7130TIP3    H142881   1.943   4.023   4.241  0.4491  0.5858 -0.5268
 7130TIP3    H242882   1.921   4.094   4.372 -0.0874  0.5623 -0.6001
 7131TIP3   OH242883   5.137   3.147   0.607  0.6234  0.3545  0.4678
 7131TIP3    H142884   5.147   3.178   0.697 -2.3145  0.8549  0.7124
 7131TIP3    H242885   5.171   3.219   0.554 -2.2979  2.4313  1.1427
 7132TIP3   OH242886   2.747   0.658  16.193  0.0387 -0.7422 -0.0514
 7132TIP3    H142887   2.653   0.668  16.211  0.2312 -1.6008  1.6742
 7132TIP3    H242888   2.790   0.699  16.268  1.0350 -1.2070 -0.3477
 7133TIP3   OH242889   2.355   3.390   6.369 -0.3999 -0.0384 -0.9799
 7133TIP3    H142890   2.289   3.366   6.303 -0.0478  2.0693 -2.1812
 7133TIP3    H242891   2.322   3.472   6.406  0.7735  0.2179 -0.4926
 7134TIP3   OH242892   1.200   2.092  15.388  0.1920 -0.6285 -0.1230
 7134TIP3    H142893   1.116   2.049  15.378 -0.7784  0.4575  2.3842
 7134TIP3    H242894   1.181   2.185  15.378  0.9511 -0.3267  0.9678
 7135TIP3   OH242895   3.806   0.384   2.074 -0.5328 -0.1513  0.4802
 7135TIP3    H142896   3.835   0.335   1.997 -1.0267  1.2451 -0.6284
 7135TIP3    H242897   3.728   0.338   2.104 -0.6001 -0.4499 -0.1309
 7136TIP3   OH242898   5.087   3.420   2.599  0.0637 -0.2391 -0.0684
 7136TIP3    H142899   5.152   3.384   2.539  0.1790 -0.0478 -0.0589
 7136TIP3    H242900   5.012   3.442   2.543 -0.9308 -2.6292  0.2249
 7137TIP3   OH242901   2.843   4.559  12.422  0.3797  0.5400  0.2528
 7137TIP3    H142902   2.854   4.532  12.331  1.2828  0.7453  0.2896
 7137TIP3    H242903   2.792   4.489  12.463  0.3382  0.2443 -0.3035
 7138TIP3   OH242904   2.434   2.419  15.274  0.0468 -0.1333  0.1394
 7138TIP3    H142905   2.499   2.439  15.207 -1.2200  0.7175 -0.8658
 7138TIP3    H242906   2.417   2.502  15.317 -0.4180 -0.3476  0.3754
 7139TIP3   OH242907   0.972   5.226   4.140  0.4181  0.2957 -0.4867
 7139TIP3    H142908   0.914   5.267   4.205 -0.3046  1.7712 -1.9724
 7139TIP3    H242909   0.957   5.276   4.060  2.0436 -0.7978 -1.5419
 7140TIP3   OH242910   3.177   3.220  12.279 -0.2695 -0.1901 -0.3035
 7140TIP3    H142911   3.160   3.155  12.348 -1.3506 -1.3715 -1.6222
 7140TIP3    H242912   3.267   3.202  12.252 -0.7928 -1.6799 -1.1532
 7141TIP3   OH242913   1.077   0.286  15.588  0.0520  0.3461 -0.1336
 7141TIP3    H142914   1.011   0.275  15.520  0.2863  0.2684 -0.3510
 7141TIP3    H242915   1.116   0.199  15.597  1.1156  0.7089 -1.0258
 7142TIP3   OH242916   0.607   5.802   4.990  0.2062  0.5082  0.0078
 7142TIP3    H142917   0.674   5.734   4.998 -1.0851 -0.6902  1.3642
 7142TIP3    H242918   0.610   5.849   5.074 -0.6248  0.4243  0.0999
 7143TIP3   OH242919   2.276   0.975  15.601 -0.3785  0.0883 -0.1171
 7143TIP3    H142920   2.181   0.983  15.609 -0.3726  0.1488 -0.1049
 7143TIP3    H242921   2.297   0.890  15.640 -0.2722  0.6685  1.1569
 7144TIP3   OH242922   2.476   5.038  15.493  0.6682  0.3506  1.1350
 7144TIP3    H142923   2.512   5.080  15.415  1.1342 -1.5333  0.2885
 7144TIP3    H242924   2.541   4.974  15.519 -0.5215 -0.6932  1.6649
 7145TIP3   OH242925   6.625   0.506  16.033  0.4430  0.2525 -0.4209
 7145TIP3    H142926   6.565   0.581  16.033 -0.3333 -0.3363 -1.6246
 7145TIP3    H242927   6.705   0.539  16.073 -0.5182  1.1993  0.8069
 7146TIP3   OH242928   2.695   4.091   2.915  0.3751 -0.7793 -0.4991
 7146TIP3    H142929   2.611   4.066   2.876 -0.0473  0.4723 -0.4449
 7146TIP3    H242930   2.690   4.186   2.923  2.8866 -0.2609 -3.1274
 7147TIP3   OH242931   4.174   6.071  13.891 -0.5026  0.3040 -0.2178
 7147TIP3    H142932   4.222   6.059  13.973  0.3158  0.6934 -0.6281
 7147TIP3    H242933   4.084   6.089  13.918 -0.2304  0.4645  0.5967
 7148TIP3   OH242934   1.445   0.334   1.661  0.1060  0.2385  0.3365
 7148TIP3    H142935   1.376   0.374   1.608  0.8583  1.1290  0.0024
 7148TIP3    H242936   1.522   0.387   1.643 -0.2082  2.4525  4.5136
 7149TIP3   OH242937   4.867   2.365  11.639 -0.0623 -0.4372 -0.2375
 7149TIP3    H142938   4.862   2.365  11.543  0.1136  1.8979 -0.2907
 7149TIP3    H242939   4.958   2.341  11.658  0.3792  0.7650 -0.7381
 7150TIP3   OH242940   0.622   2.397   1.727  0.0201  0.2219 -0.2413
 7150TIP3    H142941   0.668   2.446   1.659  1.3247 -0.2448  0.2768
 7150TIP3    H242942   0.644   2.305   1.710  0.7352  0.1214  1.0346
 7151TIP3   OH242943   2.862   0.566   5.321 -0.5591  0.4166 -0.2289
 7151TIP3    H142944   2.816   0.531   5.245  1.3610  0.8930 -1.6993
 7151TIP3    H242945   2.883   0.657   5.297  3.6655 -0.5587 -1.0448
 7152TIP3   OH242946   4.883   3.884   1.421 -0.0167  0.0281  0.2054
 7152TIP3    H142947   4.966   3.932   1.426  0.5601 -0.9882  0.8459
 7152TIP3    H242948   4.853   3.897   1.331  0.7006  0.6323  0.0429
 7153TIP3   OH242949   6.452   2.506  16.377 -0.3609  0.4160  0.2790
 7153TIP3    H142950   6.415   2.517  16.289  1.7143  0.7051 -0.6256
 7153TIP3    H242951   6.497   2.422  16.374 -1.4750 -0.2659  1.5674
 7154TIP3   OH242952   5.231   1.945  12.551 -0.3406 -0.0019  0.4741
 7154TIP3    H142953   5.250   1.974  12.462  0.3069 -1.7862 -0.0049
 7154TIP3    H242954   5.310   1.968  12.601  0.4596 -1.4892 -0.0573
 7155TIP3   OH242955   2.765   6.305   2.574  0.1832  0.2843  0.1562
 7155TIP3    H142956   2.809   6.390   2.580  0.8830 -0.0758  0.2405
 7155TIP3    H242957   2.724   6.305   2.488 -1.2337  1.3686  0.7836
 7156TIP3   OH242958   6.416   6.042   2.912  0.3788  0.0449  0.2995
 7156TIP3    H142959   6.365   6.107   2.960 -0.6169  0.8975 -1.7774
 7156TIP3    H242960   6.397   5.960   2.956 -0.2588  0.8088  1.5181
 7157TIP3   OH242961   6.087   6.711  15.332 -0.3000  0.4130  0.3954
 7157TIP3    H142962   6.072   6.725  15.238  0.2036 -2.4312 -0.1929
 7157TIP3    H242963   6.014   6.657  15.360  0.5471 -0.3419  1.1884
 7158TIP3   OH242964   4.258   5.980  13.286 -0.3125  0.7792  0.1775
 7158TIP3    H142965   4.281   5.982  13.193 -1.4757  0.7808 -0.1179
 7158TIP3    H242966   4.235   5.889  13.303  1.1396  0.4989  0.7967
 7159TIP3   OH242967   3.176   2.355   1.547 -0.2463 -0.2029 -0.2394
 7159TIP3    H142968   3.196   2.423   1.611  2.0317  0.2987 -1.3890
 7159TIP3    H242969   3.081   2.362   1.534 -0.4967  0.8495  1.7067
 7160TIP3   OH242970   1.931   5.663  10.600 -0.3714 -0.0480 -0.0143
 7160TIP3    H142971   1.959   5.571  10.592 -1.4789 -0.5144  1.0956
 7160TIP3    H242972   1.975   5.694  10.680  0.0689  0.4191 -0.4365
 7161TIP3   OH242973   3.725   4.286   5.618 -0.6461  0.4688  0.3044
 7161TIP3    H142974   3.797   4.234   5.654  0.1202  2.2561  1.4893
 7161TIP3    H242975   3.765   4.337   5.548 -1.1110  0.3922 -0.0243
 7162TIP3   OH242976   2.769   6.414   0.228  0.1537 -0.3312  0.4032
 7162TIP3    H142977   2.790   6.323   0.249 -0.2425 -0.7173 -0.8142
 7162TIP3    H242978   2.817   6.432   0.147  1.3211  0.9871  1.3435
 7163TIP3   OH242979   5.363   5.463  13.057 -0.2946  0.0838  0.0555
 7163TIP3    H142980   5.425   5.404  13.100 -0.3944 -0.2543 -0.2620
 7163TIP3    H242981   5.305   5.491  13.127  0.0501  0.1907  0.3036
 7164TIP3   OH242982   4.774   4.955  10.635  0.1762 -0.7318  0.1988
 7164TIP3    H142983   4.710   4.895  10.595  0.0765 -1.5193  1.4752
 7164TIP3    H242984   4.769   4.935  10.729  1.1480  0.3314  0.4877
 7165TIP3   OH242985   6.239   5.222  13.466  0.0024 -0.3931  0.0204
 7165TIP3    H142986   6.257   5.281  13.393  2.9152 -1.5159 -0.2902
 7165TIP3    H242987   6.210   5.280  13.537  0.4896  1.1287 -0.9702
 7166TIP3   OH242988   6.062   0.171  16.261 -0.5303  0.1422 -0.0771
 7166TIP3    H142989   6.139   0.214  16.297  0.3872 -0.4027 -1.3127
 7166TIP3    H242990   6.008   0.243  16.228 -0.1279  0.4853  0.0026
 7167TIP3   OH242991   3.733   6.298  15.010  0.0162 -0.2075  0.0145
 7167TIP3    H142992   3.661   6.243  14.979  1.0111 -1.8945  0.5269
 7167TIP3    H242993   3.795   6.235  15.047  1.3404  1.2790  0.3787
 7168TIP3   OH242994   1.944   5.538   1.938  0.6442 -0.0834 -0.6952
 7168TIP3    H142995   1.995   5.465   1.905 -0.0256 -0.6611 -0.4757
 7168TIP3    H242996   1.924   5.515   2.029  0.8740  0.6187 -0.4574
 7169TIP3   OH242997   6.705   5.536   3.483  0.0838 -0.2548  0.0350
 7169TIP3    H142998   6.783   5.493   3.519  0.7043  0.4947 -0.3752
 7169TIP3    H242999   6.702   5.508   3.392 -1.1181 -1.6386  0.4713
 7170TIP3   OH243000   5.378   5.941   2.694 -0.7349 -0.3125 -0.2840
 7170TIP3    H143001   5.320   5.877   2.654  0.9998 -0.6270 -2.4563
 7170TIP3    H243002   5.378   5.919   2.787 -1.1416 -2.6747 -0.7945
 7171TIP3   OH243003   5.697   6.722  13.935 -0.2776 -0.3039  0.3932
 7171TIP3    H143004   5.738   6.665  13.870 -2.4643 -1.5824  0.0107
 7171TIP3    H243005   5.698   6.809  13.895  0.1936 -0.6929 -0.4793
 7172TIP3   OH243006   3.055   6.178  11.006 -0.5093 -0.4171  0.0395
 7172TIP3    H143007   2.987   6.140  10.950 -0.6059  0.0976 -0.1970
 7172TIP3    H243008   3.007   6.230  11.071 -0.3196  0.6409 -0.6429
 7173TIP3   OH243009   4.212   0.240   2.260  0.5579  0.1761  0.3139
 7173TIP3    H143010   4.174   0.191   2.187 -0.9343  1.1888  0.3934
 7173TIP3    H243011   4.305   0.250   2.236  0.4225 -0.8243 -0.6966
 7174TIP3   OH243012   2.406   3.226   1.252  0.1725  0.0599 -0.7284
 7174TIP3    H143013   2.410   3.281   1.174  2.0426  0.3017 -0.5000
 7174TIP3    H243014   2.425   3.285   1.324 -0.6804 -0.3346 -0.1691
 7175TIP3   OH243015   2.747   6.414   4.897  0.0888 -0.1575  0.2586
 7175TIP3    H143016   2.694   6.398   4.975  0.0629 -0.3326  0.2056
 7175TIP3    H243017   2.803   6.337   4.889 -0.4651 -0.5105 -0.3468
 7176TIP3   OH243018   2.709   2.838   5.259  1.1524  0.0890  0.3378
 7176TIP3    H143019   2.715   2.744   5.273 -0.3359 -0.0924  0.0263
 7176TIP3    H243020   2.632   2.848   5.202  0.0999  1.6077  1.9096
 7177TIP3   OH243021   1.564   3.856  14.113 -0.3882 -0.3025 -0.5371
 7177TIP3    H143022   1.609   3.938  14.131 -0.7337 -0.4951  1.5084
 7177TIP3    H243023   1.614   3.790  14.162 -2.1914 -0.6930  0.8956
 7178TIP3   OH243024   5.157   3.681  14.386  0.0605  0.3974  0.4336
 7178TIP3    H143025   5.105   3.611  14.424  0.6524 -0.0186  0.4890
 7178TIP3    H243026   5.111   3.705  14.306  1.1123 -1.7076 -0.8721
 7179TIP3   OH243027   1.578   3.053   4.297  0.0671  0.1374 -0.4577
 7179TIP3    H143028   1.672   3.072   4.306  0.3216 -1.6331  1.2735
 7179TIP3    H243029   1.569   3.026   4.205  1.2531  0.3028 -0.6488
 7180TIP3   OH243030   5.654   4.438   5.256  0.1553 -0.0770 -0.2513
 7180TIP3    H143031   5.696   4.354   5.276 -0.3923 -0.4459 -0.6086
 7180TIP3    H243032   5.560   4.417   5.252 -0.4459  1.1854  3.2147
 7181TIP3   OH243033   6.478   1.688  11.661 -0.0786  0.9753  0.3597
 7181TIP3    H143034   6.556   1.736  11.689 -1.0823  2.8705  0.0702
 7181TIP3    H243035   6.512   1.618  11.605  1.4765  0.9715  1.2401
 7182TIP3   OH243036   6.527   6.462  11.192 -0.0132 -0.5222  0.2417
 7182TIP3    H143037   6.492   6.409  11.264 -1.2994 -0.0606 -0.0059
 7182TIP3    H243038   6.452   6.513  11.162  1.2585  1.7519  0.7129
 7183TIP3   OH243039   6.710   2.956  12.830 -0.0353  0.3168 -0.3152
 7183TIP3    H143040   6.630   2.960  12.778 -0.4730  3.0893  0.4375
 7183TIP3    H243041   6.776   2.923  12.769 -1.0710  0.9506 -1.8568
 7184TIP3   OH243042   3.223   4.520   2.372 -0.2221 -0.1974 -0.0153
 7184TIP3    H143043   3.314   4.511   2.343  0.2440  0.3828  1.2201
 7184TIP3    H243044   3.171   4.509   2.292  0.9945  0.9656 -0.9929
 7185TIP3   OH243045   0.829   6.439   2.425 -0.2911  0.2915 -0.3509
 7185TIP3    H143046   0.807   6.411   2.337 -0.4953  0.2904 -0.2999
 7185TIP3    H243047   0.841   6.358   2.475 -0.1222  0.2920 -0.3915
 7186TIP3   OH243048   5.507   3.667   2.712 -0.0626 -0.2833  0.2963
 7186TIP3    H143049   5.438   3.611   2.746  0.1579 -0.1379  1.0111
 7186TIP3    H243050   5.489   3.753   2.751  1.0096 -0.4459  1.2283
 7187TIP3   OH243051   5.395   1.283  15.226  0.3327  0.0103 -0.5889
 7187TIP3    H143052   5.478   1.308  15.268  0.8360 -1.4099 -0.6915
 7187TIP3    H243053   5.373   1.199  15.266 -1.4667  0.7032 -0.0245
 7188TIP3   OH243054   6.460   3.905  11.915  0.0347 -0.1890  0.3449
 7188TIP3    H143055   6.518   3.970  11.875  0.0877  0.0851  0.8615
 7188TIP3    H243056   6.467   3.828  11.858  0.2168  0.1442 -0.0923
 7189TIP3   OH243057   1.400   0.934  16.978 -0.4555  0.0843  0.6793
 7189TIP3    H143058   1.402   0.844  17.012 -0.4123 -0.4797 -0.7481
 7189TIP3    H243059   1.447   0.985  17.044 -0.3650 -0.9570  1.4539
 7190TIP3   OH243060   4.013   0.019   6.108  0.0895  0.1642 -0.0898
 7190TIP3    H143061   3.993  -0.012   6.196  1.2280 -2.8205 -0.7769
 7190TIP3    H243062   4.105   0.042   6.111 -0.2209  1.5302 -0.1759
 7191TIP3   OH243063   0.938   1.241   5.469  0.5650  0.3982  0.0139
 7191TIP3    H143064   0.982   1.284   5.543  0.3491  1.5256 -0.4926
 7191TIP3    H243065   0.862   1.197   5.509  1.6120 -0.7945  0.7556
 7192TIP3   OH243066   2.155   1.604   2.315 -0.2511 -0.4681 -0.3994
 7192TIP3    H143067   2.102   1.682   2.332  0.5346  0.1364 -0.6600
 7192TIP3    H243068   2.158   1.597   2.220  1.7708  0.7085 -0.5007
 7193TIP3   OH243069   0.124   1.875  12.432 -0.8973 -0.1720  0.4213
 7193TIP3    H143070   0.078   1.796  12.402  0.6824 -0.6033 -1.0408
 7193TIP3    H243071   0.171   1.847  12.510 -3.5882  0.4808  2.4433
 7194TIP3   OH243072   4.405   6.693  11.243 -0.1162  0.0515  0.1574
 7194TIP3    H143073   4.424   6.680  11.150 -0.3382 -0.1180  0.1361
 7194TIP3    H243074   4.408   6.606  11.281  1.4711  0.2705  0.6035
 7195TIP3   OH243075   4.390   3.495   1.656 -0.4364  0.2591  0.2534
 7195TIP3    H143076   4.321   3.495   1.722  1.2538 -0.5092  2.1292
 7195TIP3    H243077   4.467   3.464   1.702  1.3076  1.5221 -1.6342
 7196TIP3   OH243078   1.915   6.737  11.336  0.2600  0.0197 -0.1639
 7196TIP3    H143079   1.941   6.821  11.299 -0.2874  1.4531  2.4580
 7196TIP3    H243080   1.828   6.753  11.374 -0.1273 -1.9150 -0.1390
 7197TIP3   OH243081   0.480   5.765   5.914  0.5088 -0.3912 -0.4006
 7197TIP3    H143082   0.494   5.681   5.869 -0.7799 -0.0130 -1.6016
 7197TIP3    H243083   0.496   5.746   6.006  2.0966 -1.4905 -0.8584
 7198TIP3   OH243084   4.297   0.990   1.051 -0.6477 -0.1731 -0.6661
 7198TIP3    H143085   4.227   0.925   1.061 -0.3378 -0.2979  0.9944
 7198TIP3    H243086   4.309   0.998   0.956 -0.6321 -2.6122 -0.9392
 7199TIP3   OH243087   2.856   6.497   5.984  0.0981  0.5268  0.0069
 7199TIP3    H143088   2.821   6.572   6.032 -2.3443 -0.0453 -0.7380
 7199TIP3    H243089   2.834   6.422   6.039  2.4319  0.2863  0.6975
 7200TIP3   OH243090   5.556   4.061   3.094 -0.0386 -0.1455 -0.2215
 7200TIP3    H143091   5.508   4.028   3.169  0.0358 -0.8516 -0.4790
 7200TIP3    H243092   5.609   3.987   3.064  0.7757  0.4529 -0.2910
 7201TIP3   OH243093   0.265   5.731   2.888 -0.1404 -0.0766  0.4687
 7201TIP3    H143094   0.300   5.752   2.975 -2.0337 -2.4590  1.9410
 7201TIP3    H243095   0.196   5.796   2.874 -0.0820  0.0883  0.9267
 7202TIP3   OH243096   2.845   2.850   1.050 -0.7092 -0.8491 -0.4948
 7202TIP3    H143097   2.787   2.879   0.979 -1.1700  0.1616  0.2621
 7202TIP3    H243098   2.793   2.787   1.099 -0.3371 -1.6592 -1.1342
 7203TIP3   OH243099   4.446   5.820  14.779  1.0366  0.0080  0.2187
 7203TIP3    H143100   4.364   5.822  14.730  1.9235  0.4134 -1.3314
 7203TIP3    H243101   4.495   5.748  14.739  2.5494  1.5642 -0.8429
 7204TIP3   OH243102   4.992   4.370  11.301  0.2560 -0.2783  0.7683
 7204TIP3    H143103   4.974   4.285  11.261 -0.4527 -0.9111  2.3350
 7204TIP3    H243104   5.042   4.418  11.235  2.1439 -2.5133  0.4573
 7205TIP3   OH243105   2.677   4.869   1.644  0.1854 -0.0448  0.7587
 7205TIP3    H143106   2.587   4.875   1.677 -0.1373 -2.4730  0.5002
 7205TIP3    H243107   2.727   4.829   1.715  1.3673  2.2024  1.2893
 7206TIP3   OH243108   0.573   5.307   5.435  0.0301  0.2390 -0.5041
 7206TIP3    H143109   0.597   5.394   5.404  0.7182  0.2755  0.1047
 7206TIP3    H243110   0.556   5.256   5.355 -1.8551  1.3133 -0.8520
 7207TIP3   OH243111   1.510   4.785  11.516 -0.0496 -0.7015 -0.0775
 7207TIP3    H143112   1.540   4.783  11.607 -0.2909  1.7424  0.1114
 7207TIP3    H243113   1.590   4.793  11.464  0.0570 -1.6908 -0.0991
 7208TIP3   OH243114   6.282   0.329  16.378  0.0401 -0.5554  0.1927
 7208TIP3    H143115   6.355   0.310  16.437  0.0415 -0.8844  0.0897
 7208TIP3    H243116   6.268   0.423  16.386  1.8179 -0.1000 -1.3149
 7209TIP3   OH243117   3.904   4.577   3.383  0.0236 -0.0778  0.2658
 7209TIP3    H143118   3.846   4.579   3.459 -0.7243  0.7771 -0.3012
 7209TIP3    H243119   3.980   4.527   3.412 -0.8883 -1.0320  1.1146
 7210TIP3   OH243120   1.832   0.124   2.709  0.2857 -0.0395 -0.2658
 7210TIP3    H143121   1.912   0.172   2.691  0.2222 -0.3038 -1.2947
 7210TIP3    H243122   1.861   0.034   2.726  0.2661  0.0224  0.1109
 7211TIP3   OH243123   1.640   3.669  12.590  0.2066 -0.1418 -0.4382
 7211TIP3    H143124   1.611   3.743  12.536  0.7224  1.4219  1.3170
 7211TIP3    H243125   1.733   3.685  12.603  0.2781 -1.0134  0.1362
 7212TIP3   OH243126   3.202   5.728  11.516  0.4542 -0.5671 -0.4101
 7212TIP3    H143127   3.238   5.814  11.494 -0.3130  0.0765  0.7879
 7212TIP3    H243128   3.181   5.689  11.431  0.1213  0.7292 -0.9401
 7213TIP3   OH243129   0.143   4.738  15.828  0.0786 -0.6099  0.1727
 7213TIP3    H143130   0.179   4.826  15.816 -0.4322 -0.4963 -0.6644
 7213TIP3    H243131   0.178   4.688  15.754 -0.5577 -0.7985 -0.0038
 7214TIP3   OH243132   2.052   5.615   0.874 -0.1101 -0.0162 -0.0580
 7214TIP3    H143133   1.994   5.556   0.922  2.0937 -1.5245  0.8835
 7214TIP3    H243134   2.122   5.635   0.935  1.8650 -0.5772 -2.0199
 7215TIP3   OH243135   6.574   2.716  17.169 -0.2197 -0.1138 -0.2993
 7215TIP3    H143136   6.650   2.774  17.177  0.2330 -0.8006  0.6158
 7215TIP3    H243137   6.504   2.772  17.135 -0.0008  1.1607  1.2336
 7216TIP3   OH243138   2.411   4.440  16.694  0.4812 -0.2575  0.4986
 7216TIP3    H143139   2.428   4.392  16.613  0.8066  1.6250 -0.5874
 7216TIP3    H243140   2.494   4.436  16.742  0.3939 -1.0665  0.5989
 7217TIP3   OH243141   0.353   2.073  13.911  0.0185 -0.0289 -0.6277
 7217TIP3    H143142   0.386   2.159  13.937  1.4181 -1.1398  1.6748
 7217TIP3    H243143   0.342   2.026  13.994 -1.1329 -1.9309 -1.7853
 7218TIP3   OH243144   5.827   4.316   3.755  0.6247  0.1215 -0.0380
 7218TIP3    H143145   5.844   4.397   3.804 -1.1017  0.4539  0.0575
 7218TIP3    H243146   5.738   4.292   3.778  0.4419 -0.7780 -1.5449
 7219TIP3   OH243147   5.369   3.033  16.622 -0.0429 -0.2167  0.4446
 7219TIP3    H143148   5.358   2.958  16.564  2.5476 -0.0528 -0.3619
 7219TIP3    H243149   5.279   3.060  16.642 -1.0832 -0.8684 -2.7175
 7220TIP3   OH243150   2.965   5.195  16.065 -0.3689 -0.0613 -0.1149
 7220TIP3    H143151   2.982   5.101  16.070 -0.1200 -0.0768 -1.0178
 7220TIP3    H243152   3.028   5.235  16.125  1.6483 -0.2604 -1.9710
 7221TIP3   OH243153   5.827   5.647  13.427  0.1840  0.3051  0.2407
 7221TIP3    H143154   5.917   5.619  13.443  0.1863 -0.3803 -0.8574
 7221TIP3    H243155   5.779   5.617  13.504  0.5769 -0.9537  0.0323
 7222TIP3   OH243156   3.899   1.946   0.612  0.4166  0.5612 -0.6754
 7222TIP3    H143157   3.869   1.985   0.529  0.5304  0.4701 -0.7595
 7222TIP3    H243158   3.837   1.978   0.677  1.6312  2.4578 -0.4022
 7223TIP3   OH243159   2.902   3.292  15.913 -0.2195  0.2903  0.2579
 7223TIP3    H143160   2.953   3.212  15.924  0.2592  0.5751  0.1483
 7223TIP3    H243161   2.965   3.363  15.927 -0.2265  0.6641 -1.4726
 7224TIP3   OH243162   3.062   1.341  17.023 -0.0246 -0.0075  0.0669
 7224TIP3    H143163   3.050   1.246  17.018 -0.6098 -0.2339  3.3882
 7224TIP3    H243164   3.146   1.352  17.066 -0.4305  0.9204  0.6539
 7225TIP3   OH243165   3.895   5.083   0.020 -0.3460  0.0324  0.1255
 7225TIP3    H143166   3.927   5.171   0.002 -0.1893 -0.0149  0.1694
 7225TIP3    H243167   3.948   5.053   0.094 -2.3597  1.0038  2.0579
 7226TIP3   OH243168   4.850   1.403   3.820 -0.4535  0.5392  0.2861
 7226TIP3    H143169   4.934   1.444   3.801 -0.7895  0.6116 -1.1702
 7226TIP3    H243170   4.848   1.395   3.916  1.2103  0.5042  0.3465
 7227TIP3   OH243171   1.939   4.513  12.564  0.4795 -0.4038  0.1107
 7227TIP3    H143172   1.981   4.588  12.522  0.7543 -0.8419 -0.4089
 7227TIP3    H243173   1.945   4.532  12.658 -0.9948  1.0351 -0.0409
 7228TIP3   OH243174   4.886   1.399  16.470 -0.5719 -0.1317 -1.1227
 7228TIP3    H143175   4.819   1.467  16.463 -0.3028  0.4038  0.9588
 7228TIP3    H243176   4.966   1.441  16.437 -0.5146  0.4087 -0.3083
 7229TIP3   OH243177   4.823   2.031   3.506  0.1138  0.5225  0.2322
 7229TIP3    H143178   4.861   1.980   3.577  0.3620  1.0532  0.4890
 7229TIP3    H243179   4.897   2.058   3.453  0.3184  2.7316  1.5025
 7230TIP3   OH243180   2.187   3.797  15.501  0.1771  0.7397 -0.0783
 7230TIP3    H143181   2.132   3.853  15.446 -0.2588  0.8294  0.4405
 7230TIP3    H243182   2.236   3.858  15.556 -0.5762  0.6159  0.7508
 7231TIP3   OH243183   3.527   0.067  14.541  0.4127  0.1354 -0.2837
 7231TIP3    H143184   3.541   0.149  14.492  3.5003 -0.6845 -1.0313
 7231TIP3    H243185   3.529  -0.001  14.474  1.4498 -0.7679  0.6159
 7232TIP3   OH243186   0.131   2.265   2.338  0.4842  0.3088 -0.4162
 7232TIP3    H143187   0.213   2.301   2.305  1.1725  0.6817  1.5365
 7232TIP3    H243188   0.127   2.176   2.303  2.3381 -0.1289  0.3717
 7233TIP3   OH243189   0.224   4.019   1.135  0.0733 -0.2317 -0.2490
 7233TIP3    H143190   0.206   4.072   1.058 -1.9701  2.6146  1.9450
 7233TIP3    H243191   0.229   4.082   1.207 -0.3768 -2.8492  2.2916
 7234TIP3   OH243192   0.624   0.442   1.764 -0.4052  0.5693 -0.0363
 7234TIP3    H143193   0.565   0.493   1.708 -1.6483  0.2556  0.9348
 7234TIP3    H243194   0.683   0.507   1.803 -3.3290  1.7398  2.8750
 7235TIP3   OH243195   1.442   2.152  17.210  0.2548 -0.5311  0.4484
 7235TIP3    H143196   1.383   2.220  17.180 -0.2197 -1.1880 -0.1153
 7235TIP3    H243197   1.477   2.186  17.293  0.4540  0.6359 -0.0930
 7236TIP3   OH243198   0.185   0.137  13.541 -0.4191  0.1411 -0.4786
 7236TIP3    H143199   0.154   0.090  13.464 -2.0723  1.5568 -0.7507
 7236TIP3    H243200   0.219   0.220  13.506 -1.3881  0.8872  0.3086
 7237TIP3   OH243201   0.022   3.479   2.626  0.5316  0.7494 -0.0446
 7237TIP3    H143202   0.009   3.406   2.565  0.7787 -0.4429  1.2685
 7237TIP3    H243203  -0.039   3.461   2.698  1.4675  1.1645  0.8790
 7238TIP3   OH243204   4.986   2.076   2.470  0.4532  0.3847  0.0477
 7238TIP3    H143205   5.004   2.168   2.450 -1.3094  0.7265 -0.1234
 7238TIP3    H243206   4.949   2.077   2.559 -0.9332  0.0418 -0.5007
 7239TIP3   OH243207   3.739   6.096   3.743 -0.7479 -0.0540 -0.1035
 7239TIP3    H143208   3.677   6.159   3.707 -0.6712  0.8910  1.3433
 7239TIP3    H243209   3.691   6.013   3.745 -1.5676  0.4104 -0.0852
 7240TIP3   OH243210   4.969   6.368   1.992  0.1038  0.1804 -0.3301
 7240TIP3    H143211   4.953   6.442   2.051  2.7305  0.8709 -0.4044
 7240TIP3    H243212   4.992   6.296   2.051 -0.8584 -0.1720 -0.3586
 7241TIP3   OH243213   1.154   5.253  11.707  0.2968  0.0124 -0.4878
 7241TIP3    H143214   1.182   5.209  11.626  1.9755  0.0289  0.0495
 7241TIP3    H243215   1.059   5.239  11.710 -0.0236  1.0623 -3.0847
 7242TIP3   OH243216   5.485   5.949  14.532 -0.0670 -0.8135 -0.3164
 7242TIP3    H143217   5.423   5.997  14.587 -0.7367 -0.5398 -1.2837
 7242TIP3    H243218   5.491   5.862  14.573 -1.9695 -1.2366 -0.8119
 7243TIP3   OH243219   2.833   1.849   5.399  0.4624  0.3175  1.3046
 7243TIP3    H143220   2.923   1.861   5.430 -0.0423  1.4312  2.3849
 7243TIP3    H243221   2.784   1.823   5.476 -0.0024 -1.2481  0.5392
 7244TIP3   OH243222   6.387   2.078  11.953 -0.4315  0.0419  0.1378
 7244TIP3    H143223   6.328   2.075  12.028 -1.5269  0.3266 -0.6890
 7244TIP3    H243224   6.415   2.170  11.949  0.0099 -0.0720  0.4668
 7245TIP3   OH243225   5.630   0.341   1.916 -0.2603 -0.4728 -0.0660
 7245TIP3    H143226   5.644   0.353   2.010  1.3143  1.0613 -0.4540
 7245TIP3    H243227   5.632   0.246   1.903 -1.7694 -0.7903  1.5928
 7246TIP3   OH243228   0.581   4.887  10.533 -0.0493 -0.1148 -0.1297
 7246TIP3    H143229   0.516   4.821  10.511  0.7756 -0.5461 -1.3523
 7246TIP3    H243230   0.664   4.840  10.533  0.7786  1.1836 -2.6825
 7247TIP3   OH243231   0.764   0.522   6.059 -0.0255  0.2113 -0.9983
 7247TIP3    H143232   0.794   0.496   6.146  0.8465  2.4218 -0.5634
 7247TIP3    H243233   0.706   0.451   6.031  2.2557 -2.1870 -0.0479
 7248TIP3   OH243234   6.771   2.646   5.322 -0.1476  0.2975  0.3076
 7248TIP3    H143235   6.832   2.660   5.250 -0.1590 -0.1990  0.1959
 7248TIP3    H243236   6.812   2.578   5.376 -0.1406  0.6662  0.7698
 7249TIP3   OH243237   3.430   0.555  16.778 -0.4813 -0.3221 -0.0528
 7249TIP3    H143238   3.401   0.514  16.697  0.5358  1.3925 -1.3298
 7249TIP3    H243239   3.482   0.631  16.751  0.5584 -0.1316  2.1812
 7250TIP3   OH243240   0.639   4.886   4.704  0.2554 -0.8018 -0.2266
 7250TIP3    H143241   0.548   4.870   4.731 -0.8181  2.4367 -1.4533
 7250TIP3    H243242   0.639   4.866   4.610  0.6711 -0.2955 -0.3350
 7251TIP3   OH243243   0.156   1.495   2.363 -0.1849  0.0509  0.0391
 7251TIP3    H143244   0.210   1.417   2.345  2.3477  1.3814  1.3321
 7251TIP3    H243245   0.204   1.567   2.323 -2.2687  1.0595 -0.7667
 7252TIP3   OH243246   5.249   4.878  15.807  0.7914  0.5576  0.0442
 7252TIP3    H143247   5.222   4.946  15.746 -1.2301  0.7913  1.1374
 7252TIP3    H243248   5.340   4.858  15.781  0.5384  1.7413 -1.9867
 7253TIP3   OH243249   2.623   0.912   5.698  0.1176  0.2510 -0.5874
 7253TIP3    H143250   2.620   0.833   5.643 -0.1181  0.3454 -0.7095
 7253TIP3    H243251   2.609   0.984   5.637 -2.9839  0.2186 -0.0577
 7254TIP3   OH243252   5.112   2.626   4.277  0.6286  0.1265 -0.3952
 7254TIP3    H143253   5.099   2.536   4.307 -1.9022  0.4968 -0.1470
 7254TIP3    H243254   5.195   2.623   4.228  1.5328 -1.9002  1.1004
 7255TIP3   OH243255   5.088   4.017   2.644 -0.4411 -0.3076 -0.3953
 7255TIP3    H143256   5.116   3.930   2.674 -0.9768 -0.4183 -0.2118
 7255TIP3    H243257   5.088   4.010   2.549 -1.3254 -0.7812 -0.3680
 7256TIP3   OH243258   0.741   5.833  12.772  0.2586  0.0813 -0.4735
 7256TIP3    H143259   0.695   5.850  12.854  1.6165 -0.0848  0.3527
 7256TIP3    H243260   0.716   5.744  12.748 -0.3302  0.2161 -0.3786
 7257TIP3   OH243261   1.989   2.274  15.697 -0.3780  0.4574  0.2076
 7257TIP3    H143262   2.042   2.256  15.775 -0.6781  0.9158  0.5265
 7257TIP3    H243263   2.019   2.361  15.668  1.8919 -0.9202 -1.9892
 7258TIP3   OH243264   4.611   6.005  14.175 -0.8210 -0.4179  0.5770
 7258TIP3    H143265   4.598   6.089  14.218  0.6862 -0.5786  1.4054
 7258TIP3    H243266   4.687   6.018  14.118 -0.8962 -1.0786  0.3110
 7259TIP3   OH243267   5.090   1.998   0.204  0.1435 -0.0279 -0.2895
 7259TIP3    H143268   5.092   2.093   0.194  0.7512 -0.0107 -0.0672
 7259TIP3    H243269   5.106   1.964   0.115  0.0740  0.0767 -0.3419
 7260TIP3   OH243270   1.269   2.878   0.779 -0.0030  0.1285 -0.4785
 7260TIP3    H143271   1.197   2.819   0.753  0.3905 -2.2039  3.0928
 7260TIP3    H243272   1.346   2.822   0.783  1.1248  1.6458 -0.0335
 7261TIP3   OH243273   0.631   5.447   2.211  0.5949 -0.2299  0.2180
 7261TIP3    H143274   0.596   5.520   2.262 -1.1384  0.8083 -2.2695
 7261TIP3    H243275   0.558   5.385   2.205  0.2816  0.2507 -1.9283
 7262TIP3   OH243276   2.484   6.143  14.045 -0.3151  0.2469 -0.3480
 7262TIP3    H143277   2.415   6.120  14.107 -1.4470 -0.3840 -1.7787
 7262TIP3    H243278   2.451   6.220  13.999 -0.3764 -0.4488 -1.4972
 7263TIP3   OH243279   3.982   1.492   3.197  0.0413  0.4302 -0.4973
 7263TIP3    H143280   4.052   1.480   3.133 -0.2029 -0.7201 -0.5709
 7263TIP3    H243281   4.022   1.542   3.268  1.6367 -2.0092  0.4850
 7264TIP3   OH243282   3.200   3.437   1.423 -0.7993 -0.3094  0.2957
 7264TIP3    H143283   3.274   3.376   1.422  0.1219  0.7351  1.1449
 7264TIP3    H243284   3.125   3.384   1.450  0.0139 -1.0267  1.2342
 7265TIP3   OH243285   2.202   0.800   1.139 -0.9252 -0.1250  0.3848
 7265TIP3    H143286   2.193   0.730   1.204 -2.8013 -0.5733 -0.2910
 7265TIP3    H243287   2.175   0.879   1.186  0.3116  0.0232  0.8848
 7266TIP3   OH243288   6.718   1.143   3.631 -0.4913  0.0348  0.8502
 7266TIP3    H143289   6.690   1.080   3.698 -0.8050 -0.8177 -0.0593
 7266TIP3    H243290   6.637   1.187   3.604 -0.2338  1.0433  1.6793
 7267TIP3   OH243291   0.653   2.232   0.650  0.5596  0.4290 -0.0573
 7267TIP3    H143292   0.729   2.288   0.665 -0.0977  1.0939  0.8982
 7267TIP3    H243293   0.578   2.291   0.657 -0.0476 -0.2055 -1.0376
 7268TIP3   OH243294   3.365   4.038  16.812  0.1942 -0.3440  0.1640
 7268TIP3    H143295   3.380   3.948  16.782  1.0698 -0.1178 -0.1093
 7268TIP3    H243296   3.295   4.070  16.756 -0.9008 -1.2018  0.9893
 7269TIP3   OH243297   6.590   1.891   0.140  0.7078  0.5146 -0.5403
 7269TIP3    H143298   6.605   1.798   0.157  0.0454  0.4680 -0.1802
 7269TIP3    H243299   6.500   1.895   0.109  0.3761  1.1667  0.4842
 7270TIP3   OH243300   3.777   4.442   0.538 -0.5668  0.2767 -0.1459
 7270TIP3    H143301   3.782   4.370   0.601  0.3259  0.1386 -0.3601
 7270TIP3    H243302   3.868   4.467   0.523 -0.8368  1.0459 -0.5389
 7271TIP3   OH243303   6.064   0.755  15.127 -0.4346 -0.5026  0.3547
 7271TIP3    H143304   6.013   0.800  15.194  0.0329  1.4578 -0.5240
 7271TIP3    H243305   6.009   0.758  15.049  1.0971  2.1358 -0.7570
 7272TIP3   OH243306   6.339   2.851   0.728 -0.0072 -0.0820  0.3863
 7272TIP3    H143307   6.395   2.926   0.706 -0.7959 -0.0473 -1.7009
 7272TIP3    H243308   6.399   2.776   0.729  0.1443 -0.0652 -1.9355
 7273TIP3   OH243309   4.307   6.027  14.550 -0.4610  0.1278  0.3634
 7273TIP3    H143310   4.300   6.091  14.621  0.4929  0.7709 -0.1067
 7273TIP3    H243311   4.401   6.008  14.543 -0.5142  0.2329 -0.8603
 7274TIP3   OH243312   2.941   2.773   3.136  0.0185 -0.2915 -0.5545
 7274TIP3    H143313   2.976   2.847   3.087  3.1459 -0.5940  0.9619
 7274TIP3    H243314   2.935   2.702   3.071 -1.0829  0.6936 -1.5763
 7275TIP3   OH243315   4.362   4.860  15.267 -0.8763 -0.3035  0.1270
 7275TIP3    H143316   4.304   4.832  15.339 -1.0266 -0.6973 -0.1464
 7275TIP3    H243317   4.303   4.874  15.193 -0.4966 -1.9188 -0.5153
 7276TIP3   OH243318   3.541   1.051   3.096  0.1721 -0.0387 -0.8698
 7276TIP3    H143319   3.547   0.956   3.107  0.2489 -0.2789 -2.6448
 7276TIP3    H243320   3.623   1.085   3.131  0.8395 -0.8045 -1.6415
 7277TIP3   OH243321   4.878   0.683  17.045  0.1612 -0.0271 -0.4110
 7277TIP3    H143322   4.882   0.705  16.952  0.6147 -0.9964 -0.6310
 7277TIP3    H243323   4.789   0.651  17.059 -0.6075  2.0732 -0.0276
 7278TIP3   OH243324   1.088   4.270  10.857  0.8515 -0.1042  0.3709
 7278TIP3    H143325   1.078   4.279  10.762 -1.7997 -1.3785  0.4506
 7278TIP3    H243326   1.166   4.323  10.878  1.4201  0.3223 -2.4583
 7279TIP3   OH243327   3.708   1.402  16.667 -0.4448  0.1674 -0.3641
 7279TIP3    H143328   3.728   1.314  16.637 -1.1226 -0.0880 -0.0621
 7279TIP3    H243329   3.630   1.393  16.721  0.9815  0.5446  1.8804
 7280TIP3   OH243330   1.834   0.131   5.239 -0.2231  0.4088 -0.3798
 7280TIP3    H143331   1.888   0.168   5.309 -1.0788  2.4000 -0.6931
 7280TIP3    H243332   1.756   0.097   5.282  0.1280 -0.1650 -0.1866
 7281TIP3   OH243333   3.319   5.714  10.242  0.1576 -0.4751  0.1388
 7281TIP3    H143334   3.397   5.727  10.296 -0.1448  1.5749  0.1860
 7281TIP3    H243335   3.252   5.684  10.303  0.5552 -0.9080  0.3626
 7282TIP3   OH243336   5.834   3.225   3.346  0.2879 -0.0921 -0.0178
 7282TIP3    H143337   5.914   3.184   3.312  1.4806  1.8028  0.3607
 7282TIP3    H243338   5.825   3.306   3.297  0.1970  1.0953  1.8382
 7283TIP3   OH243339   5.648   1.560  13.774  0.0300  0.0108 -0.3337
 7283TIP3    H143340   5.662   1.568  13.869 -0.5682  0.6987 -0.2905
 7283TIP3    H243341   5.564   1.604  13.759  1.0162  1.5889 -1.4510
 7284TIP3   OH243342   4.174   5.284   4.884 -0.4512  0.1122  0.0461
 7284TIP3    H143343   4.136   5.234   4.956 -0.4558 -0.1791 -0.1520
 7284TIP3    H243344   4.165   5.226   4.808 -1.2552  0.7583 -0.3756
 7285TIP3   OH243345   2.781   5.922  11.742 -0.0644  1.0336 -0.1106
 7285TIP3    H143346   2.740   5.849  11.789  0.6613  0.1198 -0.8426
 7285TIP3    H243347   2.708   5.970  11.703 -0.5180  0.1862 -0.3248
 7286TIP3   OH243348   6.250   6.410   4.892 -0.0164 -0.7228 -0.3956
 7286TIP3    H143349   6.340   6.428   4.919 -0.3126 -0.5698  0.5289
 7286TIP3    H243350   6.214   6.497   4.874 -0.8279 -0.4710  2.0640
 7287TIP3   OH243351   4.569   5.190   5.072 -0.5664  0.0935 -0.3073
 7287TIP3    H143352   4.549   5.127   5.003 -2.4336  0.5751 -0.2775
 7287TIP3    H243353   4.501   5.175   5.138 -1.3483  2.3968 -0.5092
 7288TIP3   OH243354   3.894   5.005   4.724  0.1886 -0.7787  0.1883
 7288TIP3    H143355   3.862   5.055   4.799 -1.2017  0.7159 -1.3212
 7288TIP3    H243356   3.988   5.025   4.720 -0.4278  2.6102 -0.8738
 7289TIP3   OH243357   4.026   1.916  10.860 -0.3637 -0.0292 -0.0774
 7289TIP3    H143358   3.994   1.906  10.770 -1.7326  1.9582  0.1208
 7289TIP3    H243359   3.977   1.851  10.910  0.0149 -0.7794 -0.6494
 7290TIP3   OH243360   2.822   0.326   5.496  0.2541  0.6228  0.2771
 7290TIP3    H143361   2.818   0.412   5.454 -0.0877  0.6271  0.3149
 7290TIP3    H243362   2.898   0.331   5.553 -0.1095  1.1105  0.7306
 7291TIP3   OH243363   5.819   1.709  15.587 -0.2143 -0.0137  0.1098
 7291TIP3    H143364   5.759   1.641  15.557  1.1938 -1.0125 -0.5426
 7291TIP3    H243365   5.829   1.693  15.681  2.3251 -2.6127 -0.4871
 7292TIP3   OH243366   0.151   0.614   1.763 -0.3410  0.2195 -0.1256
 7292TIP3    H143367   0.146   0.530   1.808  1.5133  0.8931  1.4837
 7292TIP3    H243368   0.068   0.657   1.782  0.6135  0.7997  3.4929
 7293TIP3   OH243369   6.296   1.755  13.404  0.1106  0.0430 -0.5706
 7293TIP3    H143370   6.374   1.702  13.419 -0.1895 -0.2935 -0.1876
 7293TIP3    H243371   6.326   1.845  13.412  0.9789  0.0198 -2.8581
 7294TIP3   OH243372   2.572   0.294  13.272 -0.7500  0.1518 -0.3577
 7294TIP3    H143373   2.659   0.332  13.280 -0.0120 -1.4287 -0.5468
 7294TIP3    H243374   2.529   0.347  13.205 -0.3891  1.6933  0.5683
 7295TIP3   OH243375   4.833   2.900  10.400  0.2029  0.1585  0.4102
 7295TIP3    H143376   4.899   2.912  10.468  0.3442 -0.9489  0.4758
 7295TIP3    H243377   4.822   2.805  10.393  1.3291  0.1380 -2.2182
 7296TIP3   OH243378   5.954   4.759   6.177  0.2666 -0.1482 -0.0274
 7296TIP3    H143379   5.861   4.779   6.168  0.5450  1.0459 -0.5098
 7296TIP3    H243380   5.998   4.842   6.158  1.4676 -0.9002 -0.6405
 7297TIP3   OH243381   3.610   2.730   2.712  0.1898 -0.2472  0.0845
 7297TIP3    H143382   3.610   2.824   2.695  0.0584 -0.4826 -1.2887
 7297TIP3    H243383   3.669   2.720   2.787  1.1182  0.7980 -0.4767
 7298TIP3   OH243384   6.513   0.861   5.991 -0.0933  0.3730  0.1594
 7298TIP3    H143385   6.523   0.857   6.087 -1.2027  1.8000  0.3546
 7298TIP3    H243386   6.594   0.902   5.960  0.5429 -0.6414  0.3889
 7299TIP3   OH243387   6.562   1.503   1.770  0.2450  0.2876 -0.6015
 7299TIP3    H143388   6.573   1.591   1.735 -1.0521  0.8992  0.4182
 7299TIP3    H243389   6.621   1.448   1.718  1.9550  1.9295 -0.4803
 7300TIP3   OH243390   1.464   6.276  12.642 -0.8710 -0.0024 -0.0986
 7300TIP3    H143391   1.420   6.301  12.723 -0.2655 -2.0862  0.9500
 7300TIP3    H243392   1.396   6.280  12.575 -1.6846  0.5689  0.7428
 7301TIP3   OH243393   4.544   0.506   5.131 -0.9321 -0.0436  0.3691
 7301TIP3    H143394   4.519   0.519   5.222 -0.7246  1.5280  0.2216
 7301TIP3    H243395   4.632   0.469   5.134 -1.2835 -0.8629  0.8048
 7302TIP3   OH243396   4.172   4.527   5.472 -0.1934  0.1234  0.9868
 7302TIP3    H143397   4.141   4.479   5.548  0.9227  0.1071  1.4571
 7302TIP3    H243398   4.124   4.610   5.474  0.0424  0.2484  1.8953
 7303TIP3   OH243399   3.790   3.476   4.669  0.5417  0.3074 -0.1263
 7303TIP3    H143400   3.812   3.445   4.756 -0.3354 -2.1762 -0.6974
 7303TIP3    H243401   3.705   3.518   4.680  0.0828 -0.6520  0.1341
 7304TIP3   OH243402   4.826   2.893  11.875  0.0334  0.1710  0.0110
 7304TIP3    H143403   4.919   2.889  11.896  0.0475  1.7054  0.3647
 7304TIP3    H243404   4.800   2.982  11.899 -1.0737  0.4272 -1.9054
 7305TIP3   OH243405   3.765   5.305  13.612  0.3458  0.2487 -0.1648
 7305TIP3    H143406   3.806   5.296  13.698  0.1665 -0.5516 -0.1512
 7305TIP3    H243407   3.808   5.381  13.573  1.0706  0.0760  0.2705
 7306TIP3   OH243408   6.140   0.612   0.508 -0.5574 -0.1916  0.2211
 7306TIP3    H143409   6.183   0.696   0.498 -0.8062 -0.0050  0.6955
 7306TIP3    H243410   6.050   0.626   0.477  0.1506 -1.0334 -2.4962
 7307TIP3   OH243411   3.004   3.752   0.279 -0.2592 -1.3663  0.3136
 7307TIP3    H143412   2.912   3.735   0.299 -0.1519  0.1121  2.3803
 7307TIP3    H243413   3.051   3.726   0.358  0.7766  0.4035  0.3329
 7308TIP3   OH243414   6.038   0.603  13.999 -0.0213 -0.1926  0.7369
 7308TIP3    H143415   6.130   0.590  14.024  0.2376 -0.6237 -0.3737
 7308TIP3    H243416   6.012   0.519  13.960 -0.1295  0.6703 -1.1769
 7309TIP3   OH243417   0.355   3.191   4.914  0.3124  0.1401 -0.1442
 7309TIP3    H143418   0.352   3.266   4.974 -0.2977 -0.2277  0.3034
 7309TIP3    H243419   0.347   3.115   4.972  2.7139 -0.3800 -0.4018
 7310TIP3   OH243420   3.620   0.483  14.440  0.0105 -0.1043 -0.3906
 7310TIP3    H143421   3.640   0.474  14.533  0.1343  1.1261 -0.2928
 7310TIP3    H243422   3.636   0.395  14.404  2.1497 -0.0614  0.3285
 7311TIP3   OH243423   5.686   1.337   2.253  0.5294 -0.6126  0.0670
 7311TIP3    H143424   5.680   1.259   2.309  0.9947 -0.0258  0.9763
 7311TIP3    H243425   5.601   1.379   2.261 -0.2359 -1.7588 -1.5853
 7312TIP3   OH243426   2.713   2.333   4.376 -0.2743 -0.2310  0.3587
 7312TIP3    H143427   2.660   2.296   4.447  0.6543 -0.3401  1.0161
 7312TIP3    H243428   2.754   2.258   4.334 -0.9327 -0.1766 -0.4024
 7313TIP3   OH243429   6.734   4.661  13.926 -0.0702  0.3312 -0.1607
 7313TIP3    H143430   6.731   4.757  13.933 -0.2225  0.5995 -2.7640
 7313TIP3    H243431   6.644   4.635  13.910  0.1305 -0.0802 -0.6761
 7314TIP3   OH243432   3.375   0.906  10.786  0.2402 -0.3669  0.4016
 7314TIP3    H143433   3.325   0.973  10.740  0.8052  0.1325  0.5007
 7314TIP3    H243434   3.311   0.863  10.843 -0.1852 -0.1040  0.1277
 7315TIP3   OH243435   0.707   3.885   4.905 -0.8979 -1.1918  0.3834
 7315TIP3    H143436   0.673   3.825   4.972 -1.2969 -1.5331 -0.1191
 7315TIP3    H243437   0.660   3.862   4.825  0.1609 -1.3415 -0.2171
 7316TIP3   OH243438   6.419   5.389  13.734  0.0470 -0.0707 -0.7245
 7316TIP3    H143439   6.395   5.428  13.818 -0.7385 -0.9604 -0.5141
 7316TIP3    H243440   6.487   5.326  13.755  0.7210  0.5688 -0.9441
 7317TIP3   OH243441   4.924   6.370   1.497  0.1504  0.2100  0.4225
 7317TIP3    H143442   4.938   6.317   1.418  0.1274  2.4616 -1.1575
 7317TIP3    H243443   4.829   6.375   1.506  0.0436  2.3942 -1.2165
 7318TIP3   OH243444   1.282   5.024  14.288 -0.0192 -0.4622 -0.2879
 7318TIP3    H143445   1.260   4.947  14.341 -1.6595 -0.2547 -0.5910
 7318TIP3    H243446   1.245   5.004  14.201 -0.1819  0.5212 -0.4546
 7319TIP3   OH243447   3.674   5.773   0.799 -0.3111  0.2464  0.3032
 7319TIP3    H143448   3.758   5.762   0.754 -1.0674 -3.1098 -0.6008
 7319TIP3    H243449   3.610   5.770   0.728 -1.3315 -1.3551  1.2288
 7320TIP3   OH243450   1.486   3.790   5.126  0.7142  0.2211  0.7218
 7320TIP3    H143451   1.484   3.881   5.155 -0.8874  0.9425 -1.3568
 7320TIP3    H243452   1.577   3.763   5.137  1.4814  2.4633  0.3171
 7321TIP3   OH243453   0.163   6.382  11.023 -0.1023  0.7786  0.3716
 7321TIP3    H143454   0.101   6.376  11.095 -1.2029  2.6554 -0.3404
 7321TIP3    H243455   0.244   6.346  11.058  0.0633  3.6090  3.3295
 7322TIP3   OH243456   4.752   6.341   6.580  0.3538 -0.1287  0.6751
 7322TIP3    H143457   4.707   6.279   6.637  1.6122 -1.5196  0.2227
 7322TIP3    H243458   4.844   6.318   6.589  0.6450  0.1095 -1.3327
 7323TIP3   OH243459   3.899   6.414  13.570  0.4512 -0.7680 -0.4176
 7323TIP3    H143460   3.988   6.379  13.577  1.4479  1.8413  2.9486
 7323TIP3    H243461   3.853   6.375  13.644  0.6683  2.2526  1.4528
 7324TIP3   OH243462   5.143   5.683  16.916  0.2136  0.3751  0.4915
 7324TIP3    H143463   5.052   5.676  16.947  0.1814  1.2183  0.5972
 7324TIP3    H243464   5.187   5.736  16.982  0.7822 -0.0084  0.4224
 7325TIP3   OH243465   3.800   1.865  13.883 -0.4136 -0.2425  0.0766
 7325TIP3    H143466   3.835   1.849  13.796 -1.0472  0.8297 -0.3998
 7325TIP3    H243467   3.862   1.823  13.942  0.3381 -0.4911 -0.8634
 7326TIP3   OH243468   0.343   0.488   0.070  0.2181 -0.0620 -0.3279
 7326TIP3    H143469   0.282   0.438   0.125  1.9532 -1.0952  0.7533
 7326TIP3    H243470   0.389   0.422   0.019 -0.1167  0.7706 -1.7526
 7327TIP3   OH243471   0.342   5.122  12.175 -0.1887 -0.4559  0.3030
 7327TIP3    H143472   0.348   5.210  12.137  0.4402 -0.5268  0.2376
 7327TIP3    H243473   0.324   5.138  12.268 -3.6746 -0.2742 -0.2507
 7328TIP3   OH243474   4.795   2.656   2.153  0.3117  0.1343 -0.0198
 7328TIP3    H143475   4.771   2.729   2.096  0.2543  0.0716 -0.0757
 7328TIP3    H243476   4.890   2.662   2.161  0.2104  0.8358  0.8103
 7329TIP3   OH243477   2.318   3.097  14.505  0.6222 -0.2976  0.4793
 7329TIP3    H143478   2.339   3.182  14.542  0.3140 -0.6899  1.5895
 7329TIP3    H243479   2.339   3.106  14.412  1.4269  0.7084  0.7323
 7330TIP3   OH243480   5.322   3.471   2.205 -0.2457 -0.1491  0.0375
 7330TIP3    H143481   5.359   3.384   2.215 -0.4594 -0.5788 -2.2276
 7330TIP3    H243482   5.382   3.529   2.252 -0.1513 -1.4899  1.6624
 7331TIP3   OH243483   1.686   1.505  13.823  0.3689 -0.2919 -0.1233
 7331TIP3    H143484   1.751   1.537  13.886 -0.2136 -1.6411  1.2338
 7331TIP3    H243485   1.646   1.429  13.866 -0.7267 -0.6941 -1.7465
 7332TIP3   OH243486   6.017   2.628   4.221 -0.0753  0.2910  0.3956
 7332TIP3    H143487   6.033   2.674   4.139 -0.1199 -0.3101  0.0428
 7332TIP3    H243488   5.947   2.677   4.263 -0.3318  0.3661 -0.1176
 7333TIP3   OH243489   4.141   0.431  12.025  0.1244  0.0647  0.9934
 7333TIP3    H143490   4.098   0.429  11.939 -0.0238  3.2981  0.8582
 7333TIP3    H243491   4.182   0.345  12.033 -2.7370 -1.6344 -0.7448
 7334TIP3   OH243492   5.336   5.016  13.828  0.0918  0.7102 -0.0821
 7334TIP3    H143493   5.275   5.086  13.851  0.2722  1.0640 -0.6420
 7334TIP3    H243494   5.284   4.954  13.777  0.2258  1.0883 -0.6913
 7335TIP3   OH243495   0.080   0.852  15.273  0.1072  0.2997 -0.1734
 7335TIP3    H143496   0.142   0.910  15.230 -0.2811 -0.0129 -1.1915
 7335TIP3    H243497   0.004   0.907  15.292  0.4377  0.5340  0.5057
 7336TIP3   OH243498   4.253   1.667   4.542  0.2387 -0.1022 -0.0519
 7336TIP3    H143499   4.187   1.711   4.596  0.7040 -2.0851  2.3252
 7336TIP3    H243500   4.212   1.583   4.519  2.0018 -1.6119  1.9405
 7337TIP3   OH243501   3.794   0.673   4.933  0.3489  0.0291 -0.2948
 7337TIP3    H143502   3.878   0.628   4.921  0.9807  0.8504  0.8089
 7337TIP3    H243503   3.729   0.613   4.897  1.4160 -0.5936 -1.2451
 7338TIP3   OH243504   4.203   6.182   3.946  0.4193  0.1863 -0.5600
 7338TIP3    H143505   4.154   6.157   4.024  1.4794  0.0830  0.0883
 7338TIP3    H243506   4.147   6.248   3.903  0.9193  2.2050  1.6455
 7339TIP3   OH243507   4.108   5.524   5.902 -0.1441  0.3290 -0.2267
 7339TIP3    H143508   4.189   5.568   5.929 -0.5533  0.9024  0.0794
 7339TIP3    H243509   4.133   5.474   5.825  0.6277  0.0870  0.1663
 7340TIP3   OH243510   6.607   1.188  13.665  0.1732 -0.1236  0.0836
 7340TIP3    H143511   6.535   1.192  13.729  0.3469  0.4681  0.2480
 7340TIP3    H243512   6.678   1.238  13.705  0.0752  0.7887 -0.8283
 7341TIP3   OH243513   1.102   5.165   0.564 -0.2813 -0.5851 -0.5556
 7341TIP3    H143514   1.050   5.167   0.645  0.8055 -0.9787  0.1620
 7341TIP3    H243515   1.050   5.216   0.502  0.1657  2.1726  1.1738
 7342TIP3   OH243516   4.680   1.229  16.212 -0.0828 -0.2948 -0.1916
 7342TIP3    H143517   4.688   1.162  16.144  2.2423 -2.6334  2.1163
 7342TIP3    H243518   4.749   1.292  16.191  1.1941 -1.4491  0.3033
 7343TIP3   OH243519   2.494   2.679  13.582 -0.1783 -0.4285 -0.3780
 7343TIP3    H143520   2.504   2.633  13.666  1.0545  0.4172 -0.0438
 7343TIP3    H243521   2.492   2.772  13.605 -0.3288 -0.2042 -1.2525
 7344TIP3   OH243522   4.583   3.575  14.612  0.0481  0.8610 -0.0229
 7344TIP3    H143523   4.531   3.642  14.567  0.6516  0.3886 -1.4688
 7344TIP3    H243524   4.673   3.607  14.606  0.0445  1.4157  2.0108
 7345TIP3   OH243525   1.017   1.495   3.846 -0.0205 -0.4181  0.0181
 7345TIP3    H143526   1.025   1.448   3.764 -0.8064 -2.5622  1.0987
 7345TIP3    H243527   0.963   1.439   3.901 -0.0462  1.2376  1.7977
 7346TIP3   OH243528   5.190   3.087  15.408  0.4295 -0.1780  0.0215
 7346TIP3    H143529   5.256   3.020  15.391  0.7314  0.2616 -0.5513
 7346TIP3    H243530   5.235   3.152  15.462 -0.3359 -1.2416  2.0811
 7347TIP3   OH243531   5.968   1.866  12.885  0.3452 -0.5773  0.6929
 7347TIP3    H143532   5.946   1.816  12.807 -1.6411  0.2168  0.6955
 7347TIP3    H243533   5.888   1.912  12.908  1.0905 -0.2086  2.7865
 7348TIP3   OH243534   3.079   3.244  12.909  0.1052  0.3094 -0.1121
 7348TIP3    H143535   3.142   3.304  12.949 -0.7041 -0.6573  2.8317
 7348TIP3    H243536   3.133   3.185  12.856  1.0184  2.7986 -2.1553
 7349TIP3   OH243537   0.829   6.435  15.960  0.1838  0.1174  0.3173
 7349TIP3    H143538   0.837   6.410  16.052  1.7476  0.6537  0.3491
 7349TIP3    H243539   0.746   6.483  15.956  0.1602  0.2016  1.4677
 7350TIP3   OH243540   1.742   5.337   0.806 -0.4750 -0.4224 -0.2605
 7350TIP3    H143541   1.788   5.253   0.807 -1.0665 -0.7611  0.9381
 7350TIP3    H243542   1.776   5.384   0.882 -0.5664  0.1934 -0.5951
 7351TIP3   OH243543   6.588   5.828  12.707  0.5073  0.0957  0.4531
 7351TIP3    H143544   6.621   5.800  12.622  2.1430 -2.2935  1.7617
 7351TIP3    H243545   6.497   5.852  12.691 -0.0694 -2.9345 -1.5314
 7352TIP3   OH243546   5.105   4.165   0.070 -0.5892  0.9088  0.1904
 7352TIP3    H143547   5.039   4.099   0.048 -0.0605  0.2467  0.5583
 7352TIP3    H243548   5.057   4.230   0.121 -0.6551 -0.3745  1.8471
 7353TIP3   OH243549   1.204   1.900   5.892 -0.5618 -0.4777  0.1234
 7353TIP3    H143550   1.287   1.872   5.932  0.0447 -0.5795 -1.1395
 7353TIP3    H243551   1.205   1.995   5.898  0.6399 -0.3120 -1.6364
 7354TIP3   OH243552   3.744   2.231  10.436 -0.6874  0.0788  0.3061
 7354TIP3    H143553   3.798   2.251  10.512 -0.8937  1.6965  0.0779
 7354TIP3    H243554   3.787   2.276  10.364 -0.9653 -0.7197 -0.3660
 7355TIP3   OH243555   4.424   0.370  14.299  0.2097  0.1207 -0.7357
 7355TIP3    H143556   4.401   0.277  14.302 -2.7489  0.7456 -1.2376
 7355TIP3    H243557   4.488   0.381  14.370 -1.3366 -1.8268  1.0881
 7356TIP3   OH243558   5.419   5.360  12.804  0.1135 -0.3360  0.0742
 7356TIP3    H143559   5.377   5.388  12.885 -2.2041  0.0334 -1.1596
 7356TIP3    H243560   5.512   5.356  12.825 -0.1095  2.2957  2.0513
 7357TIP3   OH243561   2.158   3.328   0.644  0.1779  0.4382  0.0464
 7357TIP3    H143562   2.223   3.304   0.578 -2.3925 -2.0434 -1.8201
 7357TIP3    H243563   2.118   3.408   0.610 -1.3802 -1.0239 -1.7195
 7358TIP3   OH243564   5.688   1.716  16.649 -0.0653  0.1012 -0.2289
 7358TIP3    H143565   5.643   1.632  16.663  2.2407 -1.7038 -2.5776
 7358TIP3    H243566   5.772   1.706  16.695  1.0920  0.2039 -2.1815
 7359TIP3   OH243567   5.970   3.463  15.842  0.9645 -0.2012 -0.2573
 7359TIP3    H143568   5.959   3.409  15.764 -0.0739  0.8969 -0.9165
 7359TIP3    H243569   6.056   3.439  15.876  0.5075 -2.3041 -0.4579
 7360TIP3   OH243570   0.387   5.602   1.804 -0.3543  0.6175  0.1550
 7360TIP3    H143571   0.415   5.677   1.858 -0.8891 -2.0881  4.7097
 7360TIP3    H243572   0.468   5.553   1.788 -0.1489  1.5317 -2.0702
 7361TIP3   OH243573   4.846   3.416   4.725 -0.0588  0.0984  0.2318
 7361TIP3    H143574   4.787   3.413   4.650 -0.1419 -0.0539  0.3050
 7361TIP3    H243575   4.879   3.327   4.734 -0.3244  0.0378  0.6011
 7362TIP3   OH243576   4.969   6.433  12.443 -0.1642 -0.6329 -0.0201
 7362TIP3    H143577   4.966   6.398  12.532  0.1180 -2.2594 -0.6202
 7362TIP3    H243578   4.878   6.441  12.417 -0.3055 -3.4964 -0.7811
 7363TIP3   OH243579   3.612   0.425  13.194 -0.0369 -0.0838  0.3957
 7363TIP3    H143580   3.679   0.494  13.195 -1.1669  1.0295  0.8628
 7363TIP3    H243581   3.530   0.471  13.209 -1.0344 -1.3228 -0.9898
 7364TIP3   OH243582   1.132   3.223  11.057 -0.4362  0.2078  0.0286
 7364TIP3    H143583   1.153   3.239  10.965 -0.8891 -0.0872 -0.1316
 7364TIP3    H243584   1.137   3.128  11.066 -1.6020  0.1219 -0.0066
 7365TIP3   OH243585   3.355   1.459  13.734  0.1559  0.4434  0.0939
 7365TIP3    H143586   3.403   1.534  13.699 -0.5541  0.9067  0.0924
 7365TIP3    H243587   3.305   1.425  13.660 -0.0437  0.3803  0.2557
 7366TIP3   OH243588   2.681   5.635   1.123 -0.2898 -0.0187 -0.1243
 7366TIP3    H143589   2.621   5.663   1.192 -1.4814  1.2233 -1.5884
 7366TIP3    H243590   2.722   5.555   1.158 -0.8177  0.5720  1.9873
 7367TIP3   OH243591   0.147   3.373  14.659  0.2957 -0.2469  0.2380
 7367TIP3    H143592   0.223   3.362  14.601 -1.1185 -2.3619 -1.3302
 7367TIP3    H243593   0.110   3.458  14.633  0.8566 -0.2238 -0.5324
 7368TIP3   OH243594   2.339   2.053  13.334  0.4239 -0.0101  0.6673
 7368TIP3    H143595   2.295   2.128  13.373  0.3136  0.9737 -1.2335
 7368TIP3    H243596   2.322   2.061  13.241  1.2896 -1.8422  0.3087
 7369TIP3   OH243597   0.474   2.987   3.682 -0.2092  0.3130 -0.1313
 7369TIP3    H143598   0.412   2.921   3.652  0.0062  0.3017 -0.5567
 7369TIP3    H243599   0.546   2.983   3.619  0.1598  0.4195  0.2814
 7370TIP3   OH243600   1.891   1.836  11.494 -0.5537  0.2604 -0.0559
 7370TIP3    H143601   1.861   1.754  11.455  0.7466 -0.4432  0.3650
 7370TIP3    H243602   1.868   1.828  11.587 -0.6018  0.4629 -0.0500
 7371TIP3   OH243603   3.658   5.593   5.267 -0.6501  0.1961  0.1758
 7371TIP3    H143604   3.733   5.535   5.276  0.0985  1.1064 -0.0021
 7371TIP3    H243605   3.582   5.536   5.276  0.0482 -0.5738  1.5230
 7372TIP3   OH243606   5.817   3.618  13.635 -0.0469 -0.1199 -0.1966
 7372TIP3    H143607   5.782   3.605  13.723 -1.0311  1.9174 -0.2203
 7372TIP3    H243608   5.754   3.576  13.577  0.5219 -1.3282  0.0441
 7373TIP3   OH243609   0.146   3.385  12.230  0.2014  0.0881  0.5504
 7373TIP3    H143610   0.223   3.328  12.231  0.5352  0.4775 -0.9479
 7373TIP3    H243611   0.177   3.467  12.191 -0.6258  0.7795  1.3089
 7374TIP3   OH243612   1.801   2.914   0.288  0.3587  0.2150  0.4953
 7374TIP3    H143613   1.886   2.943   0.322  0.5494 -0.6959  0.8227
 7374TIP3    H243614   1.737   2.950   0.349  0.3622  2.2694 -0.6370
 7375TIP3   OH243615   1.712   6.345   4.754 -0.2993 -0.0690  0.3073
 7375TIP3    H143616   1.681   6.421   4.705  0.4849  0.6474  0.8923
 7375TIP3    H243617   1.805   6.339   4.731 -0.6698 -1.8382 -0.9938
 7376TIP3   OH243618   4.265   2.627  16.003 -0.0018 -0.2729  0.5038
 7376TIP3    H143619   4.246   2.709  16.048 -0.3477 -0.4057  0.6006
 7376TIP3    H243620   4.295   2.568  16.072  0.9274 -0.0229  0.3328
 7377TIP3   OH243621   4.332   0.733  13.692  0.2054  0.3225 -0.1086
 7377TIP3    H143622   4.248   0.707  13.729  0.9521 -0.6570  0.9766
 7377TIP3    H243623   4.397   0.685  13.744  1.3415 -0.6872 -2.3109
 7378TIP3   OH243624   2.378   4.354  16.433 -0.5463  0.8069  0.3544
 7378TIP3    H143625   2.435   4.421  16.395  0.9527  0.6009  2.1374
 7378TIP3    H243626   2.290   4.392  16.428  0.1310  2.4556  0.3680
 7379TIP3   OH243627   3.358   4.922   4.754  0.1532  0.6655 -0.0382
 7379TIP3    H143628   3.397   4.946   4.670 -0.8242  1.9279 -0.1688
 7379TIP3    H243629   3.416   4.960   4.819  0.9807 -0.4215 -0.1194
 7380TIP3   OH243630   6.231   0.793  13.649  0.1525  0.3327  0.4688
 7380TIP3    H143631   6.260   0.884  13.656 -2.3463  1.2677 -0.3138
 7380TIP3    H243632   6.135   0.798  13.646 -0.0482 -2.2891 -0.1030
 7381TIP3   OH243633   4.388   3.865   5.474 -0.1515  0.2924 -0.1787
 7381TIP3    H143634   4.299   3.831   5.487 -0.8325  1.7140 -0.8913
 7381TIP3    H243635   4.444   3.789   5.486 -1.1496 -0.0232  3.8255
 7382TIP3   OH243636   4.310   5.295   1.646 -0.2254  0.4848 -0.1369
 7382TIP3    H143637   4.396   5.257   1.628 -0.7676 -0.2414 -1.3184
 7382TIP3    H243638   4.279   5.248   1.724  0.1041  0.1705 -0.1911
 7383TIP3   OH243639   4.929   3.978  14.065 -0.5699  0.8819  0.1626
 7383TIP3    H143640   4.845   4.022  14.049 -0.9860  0.3139  0.7138
 7383TIP3    H243641   4.967   4.025  14.139 -0.5705  0.9249  0.1350
 7384TIP3   OH243642   2.261   2.344  13.372  0.1311  0.0825  0.4300
 7384TIP3    H143643   2.169   2.357  13.350  0.0759  0.1878  0.7156
 7384TIP3    H243644   2.271   2.382  13.459  0.0226 -1.5376  1.1839
 7385TIP3   OH243645   2.286   6.560  11.585 -1.2278  0.3753  0.4165
 7385TIP3    H143646   2.307   6.599  11.670  0.2436 -0.8969  0.7012
 7385TIP3    H243647   2.293   6.632  11.523  1.5937  0.6060  0.8814
 7386TIP3   OH243648   3.622   4.176   4.278  0.0061 -0.3009 -0.1029
 7386TIP3    H143649   3.627   4.139   4.190 -0.3082  0.2544 -0.3601
 7386TIP3    H243650   3.638   4.270   4.266 -1.4665  0.0135  0.2394
 7387TIP3   OH243651   2.583   6.361   6.276 -0.4583  0.5801  0.4948
 7387TIP3    H143652   2.583   6.452   6.249 -1.0306  0.4623  0.0601
 7387TIP3    H243653   2.655   6.321   6.228 -0.1582  0.8205  0.7467
 7388TIP3   OH243654   3.758   3.804   1.271  0.3771 -0.3240  0.1158
 7388TIP3    H143655   3.719   3.719   1.293  2.8694 -1.2188  1.5380
 7388TIP3    H243656   3.843   3.782   1.232 -0.0275  1.5280 -2.0294
 7389TIP3   OH243657   3.893   0.053   2.020  0.0550 -0.6138  0.0358
 7389TIP3    H143658   3.922   0.054   1.929  0.1332 -0.1840  0.0624
 7389TIP3    H243659   3.971   0.075   2.071 -0.3253  0.6836  0.0963
 7390TIP3   OH243660   0.715   3.114   2.615 -0.1822  0.0253  0.2399
 7390TIP3    H143661   0.640   3.091   2.560  0.5985  1.3515 -1.4712
 7390TIP3    H243662   0.683   3.185   2.671 -0.4100  0.0576  0.0715
 7391TIP3   OH243663   1.445   3.935  11.047  0.3733  0.2347  0.4927
 7391TIP3    H143664   1.374   3.883  11.009  0.4758 -0.4214  1.1792
 7391TIP3    H243665   1.495   3.965  10.971  0.4234 -0.8336  0.0784
 7392TIP3   OH243666   1.566   6.294  13.512  0.4071  0.7646  0.2909
 7392TIP3    H143667   1.616   6.213  13.522  0.4982  0.5244 -1.7726
 7392TIP3    H243668   1.630   6.357  13.479  0.0912  1.4093  0.8839
 7393TIP3   OH243669   3.962   4.863   5.707  0.0830 -0.2695  0.3545
 7393TIP3    H143670   4.043   4.823   5.741  0.5103  0.3048  0.0387
 7393TIP3    H243671   3.915   4.892   5.785  0.5713  0.1229  0.5086
 7394TIP3   OH243672   3.764   1.289   2.120  0.0314 -0.2463  0.3258
 7394TIP3    H143673   3.728   1.263   2.205  0.1174 -0.7787  0.1985
 7394TIP3    H243674   3.795   1.208   2.081  2.6840  0.3329  1.0407
 7395TIP3   OH243675   3.566   0.868  13.066 -0.3175 -0.3921 -0.1456
 7395TIP3    H143676   3.598   0.887  13.155 -3.2797  0.9497  0.7639
 7395TIP3    H243677   3.477   0.904  13.065 -0.3958 -0.3828 -3.6861
 7396TIP3   OH243678   4.005   5.310   2.034  0.0420 -0.6675 -0.3489
 7396TIP3    H143679   4.047   5.236   2.078 -0.1434 -0.1110  0.8022
 7396TIP3    H243680   4.039   5.387   2.079 -3.0299 -0.2012  1.5170
 7397TIP3   OH243681   2.141   3.110   2.508 -0.1871  0.6099  0.8404
 7397TIP3    H143682   2.105   3.054   2.576  0.6367  0.8519  1.4783
 7397TIP3    H243683   2.223   3.068   2.482  0.1922  1.2494  0.9784
 7398TIP3   OH243684   5.047   2.740  14.984 -0.2429  0.1271  0.2268
 7398TIP3    H143685   5.085   2.691  15.057  0.8181  0.8503  0.1837
 7398TIP3    H243686   5.102   2.718  14.909 -1.4371 -0.7508 -0.4150
 7399TIP3   OH243687   5.700   3.196   3.917 -0.6180 -0.2571 -0.1083
 7399TIP3    H143688   5.739   3.182   4.003  1.0364  2.4878 -0.3207
 7399TIP3    H243689   5.770   3.175   3.855 -0.6715  1.0250 -0.6332
 7400TIP3   OH243690   6.415   2.074  14.565 -0.6400 -0.1477 -0.2859
 7400TIP3    H143691   6.386   1.985  14.546 -0.7814 -0.9980  3.1671
 7400TIP3    H243692   6.339   2.129  14.545 -1.2829 -1.0878 -0.4849
 7401TIP3   OH243693   2.052   0.412   0.314  0.1874  0.4157  0.0744
 7401TIP3    H143694   2.124   0.355   0.340 -0.6284  0.2426  2.1406
 7401TIP3    H243695   2.093   0.495   0.289  1.1779 -0.1339 -0.1378
 7402TIP3   OH243696   4.914   0.714   5.730  0.3780 -0.4377 -0.4544
 7402TIP3    H143697   4.985   0.753   5.678  0.6871 -0.5523 -0.1260
 7402TIP3    H243698   4.839   0.771   5.715  1.3438  1.5878  1.7042
 7403TIP3   OH243699   5.031   5.435  16.608  0.1790  0.5457 -0.1609
 7403TIP3    H143700   4.990   5.396  16.686  1.3908 -0.4033  0.0180
 7403TIP3    H243701   5.019   5.529  16.620 -0.2218  0.3804  0.8489
 7404TIP3   OH243702   6.440   0.068  12.934  0.3107 -0.1531 -0.1336
 7404TIP3    H143703   6.368   0.063  12.871  0.0161 -0.4406  0.2173
 7404TIP3    H243704   6.427  -0.008  12.991  0.2534  0.4000  0.6073
 7405TIP3   OH243705   5.849   0.568   5.419  0.0713  0.3652 -0.1793
 7405TIP3    H143706   5.890   0.651   5.397  0.4664  0.3005  0.3005
 7405TIP3    H243707   5.833   0.526   5.335 -1.5785  1.6021 -0.5302
 7406TIP3   OH243708   5.877   4.495  13.974  0.7318 -0.1333  0.2445
 7406TIP3    H143709   5.946   4.428  13.969  0.1960 -0.6541 -0.4021
 7406TIP3    H243710   5.924   4.577  13.983  1.4218 -0.5457  0.4885
 7407TIP3   OH243711   2.532   3.290   4.537  0.2206 -0.4195 -0.0632
 7407TIP3    H143712   2.594   3.275   4.608  0.7488 -0.1946 -0.4698
 7407TIP3    H243713   2.482   3.367   4.565 -0.0769 -0.7708  0.3936
 7408TIP3   OH243714   2.836   4.757   5.503  0.0294 -0.4699  0.1771
 7408TIP3    H143715   2.804   4.675   5.541  0.9993 -1.2272 -0.5752
 7408TIP3    H243716   2.776   4.774   5.430  0.7270 -1.3995 -0.6599
 7409TIP3   OH243717   2.647   1.982   3.010  0.1375  0.8690 -0.3314
 7409TIP3    H143718   2.637   2.009   2.919 -1.3999 -1.1395 -0.8347
 7409TIP3    H243719   2.727   1.930   3.012 -1.2854 -1.5610 -1.2953
 7410TIP3   OH243720   0.516   2.727  13.754  0.0969  0.3340  0.4797
 7410TIP3    H143721   0.560   2.809  13.774  0.5763  0.0826  0.4605
 7410TIP3    H243722   0.534   2.712  13.662 -0.6788  0.6201  0.2745
 7411TIP3   OH243723   4.037   4.839   1.420  0.3077 -0.4841 -0.2338
 7411TIP3    H143724   4.030   4.934   1.425 -3.5029 -0.6335 -0.1985
 7411TIP3    H243725   4.063   4.812   1.508  0.1897  0.4437  0.0926
 7412TIP3   OH243726   0.310   2.300   4.237 -0.2748  0.0438  0.3300
 7412TIP3    H143727   0.369   2.348   4.296  4.1306 -2.6962 -1.3688
 7412TIP3    H243728   0.275   2.367   4.178  2.5162  1.7569  0.4482
 7413TIP3   OH243729   1.862   1.432  16.052  0.1074  0.2097  0.2599
 7413TIP3    H143730   1.935   1.445  15.992  1.9656 -0.9882  2.1378
 7413TIP3    H243731   1.866   1.339  16.076 -2.7978 -0.2159 -0.4405
 7414TIP3   OH243732   0.811   5.551   5.733  0.6581  0.4188  0.8328
 7414TIP3    H143733   0.827   5.458   5.721 -1.6982 -0.0674  1.0043
 7414TIP3    H243734   0.768   5.558   5.819 -0.1361  1.5028  0.3841
 7415TIP3   OH243735   4.504   1.805  10.618  0.2285  0.3716  0.6148
 7415TIP3    H143736   4.545   1.889  10.598 -1.8036  1.3089  0.2133
 7415TIP3    H243737   4.411   1.818  10.600  0.0070 -2.3473 -0.6711
 7416TIP3   OH243738   0.275   3.083   5.383  0.3104 -0.5754 -0.6138
 7416TIP3    H143739   0.364   3.082   5.419  0.2298  0.9477 -0.3239
 7416TIP3    H243740   0.226   3.022   5.439  1.1279 -1.3455 -0.7066
 7417TIP3   OH243741   5.572   2.031   2.512  0.0165  0.7610  0.2387
 7417TIP3    H143742   5.551   1.993   2.597  0.9642 -0.1293  0.0863
 7417TIP3    H243743   5.506   2.100   2.500 -0.6235  0.3588  1.3183
 7418TIP3   OH243744   4.626   6.356  12.643 -0.2336 -0.1581  0.7791
 7418TIP3    H143745   4.555   6.303  12.607  0.0517  1.2365 -2.0866
 7418TIP3    H243746   4.602   6.446  12.623  1.3694  0.4821  1.5670
 7419TIP3   OH243747   4.000   1.408  11.269  0.3449 -0.1393 -0.1322
 7419TIP3    H143748   3.957   1.424  11.185 -0.6808 -0.8200  0.2536
 7419TIP3    H243749   4.009   1.313  11.274 -2.2671 -0.3910  1.7951
 7420TIP3   OH243750   1.512   1.711  11.690 -0.0635  0.4295  0.0839
 7420TIP3    H143751   1.422   1.738  11.711  0.1152 -0.5225  2.3607
 7420TIP3    H243752   1.503   1.659  11.610 -2.1012 -2.3313  1.9227
 7421TIP3   OH243753   1.069   3.689   4.090  0.2227 -0.3079 -0.0165
 7421TIP3    H143754   1.146   3.745   4.098  1.0065 -1.6062  3.3896
 7421TIP3    H243755   0.997   3.743   4.123  0.4144 -0.3234  0.4363
 7422TIP3   OH243756   3.182   6.324   1.663 -0.1390 -0.1056 -0.0351
 7422TIP3    H143757   3.266   6.314   1.708 -0.8447 -2.1172  0.9509
 7422TIP3    H243758   3.159   6.235   1.635 -1.6377  0.5031 -0.8449
 7423TIP3   OH243759   4.675   1.255  15.486 -0.0429 -0.3135  0.8053
 7423TIP3    H143760   4.597   1.200  15.484  0.3350 -0.8915 -1.7665
 7423TIP3    H243761   4.748   1.194  15.493  0.2641  0.0661  0.9812
 7424TIP3   OH243762   5.087   2.751   0.752  0.0375 -0.1402  0.3084
 7424TIP3    H143763   5.116   2.710   0.671 -0.0622  0.9213 -0.2852
 7424TIP3    H243764   5.022   2.691   0.788  0.0289 -0.5829 -0.4459
 7425TIP3   OH243765   3.721   2.341   0.069  0.4079  0.4561  0.3573
 7425TIP3    H143766   3.790   2.279   0.046  0.8342  0.9436  0.3154
 7425TIP3    H243767   3.720   2.340   0.165 -0.4380 -0.5425  0.3634
 7426TIP3   OH243768   2.360   0.817  14.089  0.3789  0.9228  0.2230
 7426TIP3    H143769   2.366   0.761  14.166 -1.7953 -2.0454 -1.5488
 7426TIP3    H243770   2.275   0.861  14.098 -0.1248  0.1651 -0.6696
 7427TIP3   OH243771   1.770   3.260   4.416  0.1832  0.2702  0.4677
 7427TIP3    H143772   1.817   3.213   4.486  0.0400  2.0051  1.7915
 7427TIP3    H243773   1.755   3.347   4.452 -2.8168  0.2412 -0.4675
 7428TIP3   OH243774   3.173   4.801  12.395  0.3688  0.7319 -0.4170
 7428TIP3    H143775   3.227   4.752  12.333 -0.5819 -0.2452 -0.4988
 7428TIP3    H243776   3.114   4.852  12.341  1.5717  2.2749 -0.3360
 7429TIP3   OH243777   3.140   5.977  12.779  0.1678 -0.3950 -0.2493
 7429TIP3    H143778   3.044   5.972  12.770  0.0889 -0.7012  0.6810
 7429TIP3    H243779   3.156   6.060  12.823  0.4555  0.4245 -1.8313
 7430TIP3   OH243780   2.191   6.616   4.737 -0.3755  0.6126  0.4678
 7430TIP3    H143781   2.281   6.598   4.765 -0.7672 -1.0165  0.8277
 7430TIP3    H243782   2.189   6.710   4.722  2.1182  0.3693 -2.2205
 7431TIP3   OH243783   4.753   2.709   0.660  0.4077  0.0527 -0.6461
 7431TIP3    H143784   4.668   2.673   0.686 -0.6571  2.1928 -0.9525
 7431TIP3    H243785   4.802   2.715   0.741 -0.7142  1.1964 -0.0179
 7432TIP3   OH243786   6.721   1.752  16.162  0.0680  0.6893  0.4696
 7432TIP3    H143787   6.770   1.834  16.171  0.9495  0.2576 -0.2853
 7432TIP3    H243788   6.670   1.746  16.243 -1.4368  2.8904 -0.1972
 7433TIP3   OH243789   1.331   2.229   4.513 -0.4465  0.0985  0.0533
 7433TIP3    H143790   1.304   2.277   4.591  0.6455  0.7878  0.0191
 7433TIP3    H243791   1.281   2.147   4.517 -0.1004 -0.0605  1.6863
 7434TIP3   OH243792   1.573   3.610   3.852 -0.1536  0.2457 -0.3592
 7434TIP3    H143793   1.506   3.545   3.830 -1.7032  2.4514 -2.7780
 7434TIP3    H243794   1.524   3.691   3.864  1.8397  1.3061  1.2229
 7435TIP3   OH243795   4.429   4.012   1.627 -0.1466 -0.3138 -0.5890
 7435TIP3    H143796   4.446   3.920   1.606 -0.3305 -0.1413 -1.5414
 7435TIP3    H243797   4.336   4.024   1.606  0.1840  0.4077 -1.6730
 7436TIP3   OH243798   4.067   3.600   5.197 -0.0414 -0.3193 -0.1024
 7436TIP3    H143799   4.005   3.527   5.194  0.3829 -0.6494 -2.6096
 7436TIP3    H243800   4.013   3.677   5.179 -0.0393 -0.3688 -0.3252
 7437TIP3   OH243801   1.183   3.180   0.773 -0.0330  0.1652 -0.1479
 7437TIP3    H143802   1.262   3.216   0.733 -0.9474  0.7900 -1.4482
 7437TIP3    H243803   1.122   3.254   0.778 -0.2477 -0.0915  1.6729
 7438TIP3   OH243804   5.493   2.486   1.742  0.0796 -0.1361  0.1151
 7438TIP3    H143805   5.414   2.457   1.697  1.1653  0.1950 -2.1467
 7438TIP3    H243806   5.509   2.574   1.708  1.6476 -0.3654  0.1789
 7439TIP3   OH243807   0.784   1.704  10.874 -0.5775  0.0710  0.4013
 7439TIP3    H143808   0.840   1.705  10.952 -0.4768 -0.6676  0.3470
 7439TIP3    H243809   0.835   1.749  10.807 -0.8322  1.0871  0.8597
 7440TIP3   OH243810   3.486   0.200  13.087 -0.8216  0.0083 -0.0592
 7440TIP3    H143811   3.550   0.132  13.110 -0.6567  0.5884  1.2659
 7440TIP3    H243812   3.517   0.279  13.131 -1.9533  0.5234 -0.1363
 7441TIP3   OH243813   1.063   5.503  17.139 -0.1627 -0.1898 -0.3736
 7441TIP3    H143814   1.054   5.598  17.142 -1.1109 -0.2927  0.9032
 7441TIP3    H243815   1.147   5.488  17.094 -0.3919  1.2095 -1.3320
 7442TIP3   OH243816   1.467   0.087  14.767 -0.0814  0.1019  0.0111
 7442TIP3    H143817   1.553   0.059  14.799 -0.1342  0.4958  0.5117
 7442TIP3    H243818   1.419   0.114  14.846 -0.9613 -0.9017 -0.1555
 7443TIP3   OH243819   1.639   6.719  13.270  0.0051 -0.0679 -0.6357
 7443TIP3    H143820   1.555   6.731  13.227 -1.1399  0.1336  1.5146
 7443TIP3    H243821   1.703   6.756  13.209 -1.7271  2.1060 -1.2609
 7444TIP3   OH243822   2.024   5.692  11.492 -0.3947  0.0316  0.1054
 7444TIP3    H143823   1.996   5.744  11.568  0.1069  0.5958 -0.0927
 7444TIP3    H243824   2.021   5.753  11.419 -1.3364 -0.6290 -0.4335
 7445TIP3   OH243825   1.259   3.669  15.702 -0.5605 -0.0903  0.4535
 7445TIP3    H143826   1.277   3.577  15.682 -1.3173 -0.0183 -0.6654
 7445TIP3    H243827   1.239   3.671  15.795 -1.3962 -1.2026  0.3091
 7446TIP3   OH243828   0.462   3.083   6.384  0.0654 -0.5746 -0.5499
 7446TIP3    H143829   0.430   3.041   6.463 -0.6644 -0.4057 -0.7417
 7446TIP3    H243830   0.444   3.176   6.398  0.1351 -0.5207 -0.8156
 7447TIP3   OH243831   5.308   3.982   0.823  0.3780 -0.0858 -0.5131
 7447TIP3    H143832   5.215   3.975   0.804  0.4925 -0.3619 -0.9866
 7447TIP3    H243833   5.321   4.075   0.845 -0.2789 -0.3246  1.0879
 7448TIP3   OH243834   6.622   4.866   3.044  0.1995  0.2044  0.1376
 7448TIP3    H143835   6.579   4.842   2.963  0.4558  1.6345 -0.4532
 7448TIP3    H243836   6.577   4.945   3.073  1.8646  1.2734 -0.0658
 7449TIP3   OH243837   5.991   2.166  13.243 -0.2300 -0.2499 -0.2558
 7449TIP3    H143838   5.968   2.074  13.230  0.5884 -0.4137 -0.5870
 7449TIP3    H243839   6.058   2.165  13.311 -0.7534  0.1739  0.2765
 7450TIP3   OH243840   6.004   4.186  12.498  0.4249  0.2987 -0.1430
 7450TIP3    H143841   6.046   4.222  12.420  0.0400  0.6873 -0.1743
 7450TIP3    H243842   5.912   4.175  12.473 -0.0545  2.0021  0.7766
 7451TIP3   OH243843   2.008   5.487   5.251  0.5349 -0.2980 -0.0635
 7451TIP3    H143844   2.055   5.512   5.171 -0.4322  2.3438  0.0926
 7451TIP3    H243845   2.073   5.498   5.321  0.3172  1.3302 -0.0781
 7452TIP3   OH243846   6.602   5.790   3.474  0.4563 -0.3112  0.0375
 7452TIP3    H143847   6.660   5.714   3.477 -0.8243 -1.5704 -2.8413
 7452TIP3    H243848   6.636   5.844   3.403 -0.1518  0.4826  0.3311
 7453TIP3   OH243849   2.370   2.110  12.467  0.0610  0.2302  0.0098
 7453TIP3    H143850   2.371   2.199  12.431 -0.8690  0.5194  0.6680
 7453TIP3    H243851   2.282   2.100  12.503  0.1156 -1.0154 -0.1776
 7454TIP3   OH243852   4.845   4.929   2.735  0.6591  0.0038 -0.3257
 7454TIP3    H143853   4.869   4.934   2.827  0.7602 -0.0704 -0.3472
 7454TIP3    H243854   4.767   4.984   2.727  1.3624  1.0239 -0.4302
 7455TIP3   OH243855   4.530   3.087   0.676  0.6482 -0.1362 -0.8556
 7455TIP3    H143856   4.538   3.023   0.747 -1.9858 -3.3399 -3.1771
 7455TIP3    H243857   4.620   3.114   0.659  1.7310 -2.0185  1.2608
 7456TIP3   OH243858   1.648   2.752   2.428 -0.0925 -0.5883  0.3251
 7456TIP3    H143859   1.563   2.797   2.438  0.3189 -0.0593  1.7945
 7456TIP3    H243860   1.659   2.743   2.334 -2.0702 -1.2244  0.1017
 7457TIP3   OH243861   2.465   5.775  13.230 -0.1272  0.4466 -0.0291
 7457TIP3    H143862   2.394   5.786  13.167  1.4054  1.5267 -1.6548
 7457TIP3    H243863   2.529   5.841  13.205  0.6708  0.7348  2.5355
 7458TIP3   OH243864   5.423   6.150   2.461 -0.5077 -0.0831  0.4357
 7458TIP3    H143865   5.394   6.109   2.543 -0.9319 -0.2275  0.2147
 7458TIP3    H243866   5.375   6.104   2.393  0.9053 -0.9311 -0.0168
 7459TIP3   OH243867   1.384   0.647   3.261  0.1094  0.4814 -0.6815
 7459TIP3    H143868   1.449   0.602   3.207 -0.3421  0.5335 -1.2781
 7459TIP3    H243869   1.390   0.738   3.235  1.6194  0.9651  1.1272
 7460TIP3   OH243870   2.314   5.087  16.899  0.6810  0.1963 -0.0516
 7460TIP3    H143871   2.240   5.098  16.959 -0.5341  0.4790 -1.5436
 7460TIP3    H243872   2.388   5.070  16.956 -0.5273 -0.0994  1.5032
 7461TIP3   OH243873   0.990   4.068   3.363 -0.2567  0.1338  0.4207
 7461TIP3    H143874   0.913   4.124   3.351  0.1714  0.4939 -0.7864
 7461TIP3    H243875   1.050   4.122   3.415 -0.9194 -0.2686  1.6441
 7462TIP3   OH243876   5.550   6.452  15.554  0.2390 -0.0934 -0.6609
 7462TIP3    H143877   5.625   6.395  15.574  0.4475 -0.8173 -3.1193
 7462TIP3    H243878   5.591   6.534  15.526 -0.0015  0.4787  0.6059
 7463TIP3   OH243879   6.313   3.535  12.560  0.5201  0.0661 -0.6218
 7463TIP3    H143880   6.325   3.612  12.504  1.7124  0.4919  0.1703
 7463TIP3    H243881   6.297   3.463  12.500 -3.4263  1.3213 -1.3419
 7464TIP3   OH243882   3.045   0.613   2.249  0.4453 -0.6847 -0.0391
 7464TIP3    H143883   3.005   0.528   2.270 -3.7409  1.1443  0.4618
 7464TIP3    H243884   3.011   0.635   2.162 -0.3606  1.3312  0.7183
 7465TIP3   OH243885   5.415   2.626  13.889  0.4686 -0.2905 -0.1554
 7465TIP3    H143886   5.342   2.683  13.913  1.7138  2.3264 -1.9863
 7465TIP3    H243887   5.377   2.564  13.826 -0.4831 -0.0728  0.1822
 7466TIP3   OH243888   4.124   4.478  15.136  0.4863  0.0662 -0.6918
 7466TIP3    H143889   4.078   4.526  15.067  0.8732 -0.6757 -1.4894
 7466TIP3    H243890   4.093   4.517  15.218 -0.8117  0.2232 -1.2438
 7467TIP3   OH243891   6.129   5.150  15.120 -0.1557 -0.2167 -0.3727
 7467TIP3    H143892   6.175   5.178  15.041  0.9345  1.5652  0.8230
 7467TIP3    H243893   6.139   5.055  15.122 -0.6569 -0.3762 -2.6117
 7468TIP3   OH243894   4.283   2.746   5.753  0.3053 -1.0426  0.4586
 7468TIP3    H143895   4.248   2.808   5.690  1.4838 -1.1348 -0.3201
 7468TIP3    H243896   4.216   2.739   5.820 -0.8889 -0.7721 -0.6722
 7469TIP3   OH243897   1.728   6.356  17.149  0.3988  0.7884  0.2435
 7469TIP3    H143898   1.733   6.449  17.129  0.1531  0.7010 -0.2397
 7469TIP3    H243899   1.692   6.352  17.238 -0.8891  1.1268 -0.2395
 7470TIP3   OH243900   0.728   2.761   5.765 -0.1533 -0.2371  0.3096
 7470TIP3    H143901   0.727   2.853   5.740 -0.5091 -0.4816 -0.5809
 7470TIP3    H243902   0.680   2.758   5.848  1.2467  0.6078  1.1985
 7471TIP3   OH243903   3.851   0.304   5.561 -0.4772 -0.3440  0.4673
 7471TIP3    H143904   3.812   0.265   5.483  0.5076 -0.2458 -0.0942
 7471TIP3    H243905   3.924   0.246   5.583  0.7430  0.8914 -0.1279
 7472TIP3   OH243906   3.349   0.236   1.226  0.1101  0.0537 -0.1435
 7472TIP3    H143907   3.315   0.321   1.252 -1.2604 -0.1551 -1.1757
 7472TIP3    H243908   3.407   0.211   1.299  0.4253  1.7685  0.2447
 7473TIP3   OH243909   0.818   1.749   0.858 -0.0742 -0.2299  0.5054
 7473TIP3    H143910   0.817   1.833   0.812 -0.4681 -1.2836 -1.5165
 7473TIP3    H243911   0.731   1.741   0.897 -1.3800 -1.1706 -2.2880
 7474TIP3   OH243912   3.817   2.009  16.846  1.0098 -0.2377 -0.0644
 7474TIP3    H143913   3.839   2.100  16.865 -0.3561  0.6613 -2.3851
 7474TIP3    H243914   3.775   1.976  16.926  1.1654  1.2775  0.6645
 7475TIP3   OH243915   4.961   4.972  15.132 -0.2174 -0.0293  0.2918
 7475TIP3    H143916   5.010   5.005  15.207  1.8454 -0.1696 -0.9336
 7475TIP3    H243917   4.938   4.882  15.155  0.4090 -0.0738  0.7412
 7476TIP3   OH243918   3.377   5.014  10.819  0.4845 -0.4485 -0.1851
 7476TIP3    H143919   3.398   4.966  10.899 -0.4047 -0.4288  0.0712
 7476TIP3    H243920   3.397   4.953  10.748  0.7715 -0.6519  0.0673
 7477TIP3   OH243921   4.147   0.102   4.460 -0.3276  0.2803 -0.6352
 7477TIP3    H143922   4.201   0.110   4.381 -2.0026  0.5987 -1.8130
 7477TIP3    H243923   4.125   0.193   4.483 -1.7108  0.1319 -1.2152
 7478TIP3   OH243924   0.128   1.196   4.168 -0.2760  0.0397 -0.2393
 7478TIP3    H143925   0.156   1.284   4.142  0.2877  0.1103  0.5721
 7478TIP3    H243926   0.033   1.199   4.166 -0.3101  1.1812  1.3781
 7479TIP3   OH243927   4.369   4.252   2.883  0.4537 -0.0962  0.5879
 7479TIP3    H143928   4.428   4.211   2.820 -0.3866  1.3636 -1.2356
 7479TIP3    H243929   4.411   4.335   2.905  0.3231 -0.2127  1.3011
 7480TIP3   OH243930   6.450   2.685  13.206 -0.0537  0.9520  0.3190
 7480TIP3    H143931   6.507   2.757  13.180  0.2591  0.9600  1.0000
 7480TIP3    H243932   6.489   2.651  13.286 -0.9076  0.8599  0.7160
 7481TIP3   OH243933   3.988   3.510  11.663 -0.2121 -0.0004 -0.1640
 7481TIP3    H143934   3.992   3.426  11.618 -0.0726 -0.3535  0.4974
 7481TIP3    H243935   3.952   3.570  11.597 -2.1697 -0.9771 -0.0671
 7482TIP3   OH243936   6.414   0.193  12.397 -0.0251  0.0525  0.1077
 7482TIP3    H143937   6.486   0.137  12.368 -0.0865 -0.2891  0.6027
 7482TIP3    H243938   6.350   0.133  12.436 -0.6907  0.3251 -0.5349
 7483TIP3   OH243939   2.963   3.540   3.273  0.0584 -0.1199 -0.3845
 7483TIP3    H143940   3.012   3.607   3.320  0.3130 -0.6041  0.0519
 7483TIP3    H243941   2.932   3.481   3.342 -0.4119 -0.2891 -0.7369
 7484TIP3   OH243942   5.524   6.574   6.080 -0.5640  0.2978  0.4038
 7484TIP3    H143943   5.439   6.618   6.083 -0.6031  0.1830  1.0836
 7484TIP3    H243944   5.554   6.574   6.171 -0.4323 -0.8420  0.3689
 7485TIP3   OH243945   0.685   4.233   5.357  0.2814  0.3978 -0.3463
 7485TIP3    H143946   0.705   4.195   5.271  1.6155  0.7823 -0.2295
 7485TIP3    H243947   0.675   4.327   5.340 -1.4578  0.2296 -0.3852
 7486TIP3   OH243948   0.030   5.770  16.295  0.0486  0.0215  0.0369
 7486TIP3    H143949  -0.002   5.856  16.266 -2.5443 -1.3418 -1.4208
 7486TIP3    H243950  -0.036   5.738  16.356  0.1887 -1.5471 -0.5869
 7487TIP3   OH243951   1.231   2.049   2.523 -0.0899 -0.0280 -0.0741
 7487TIP3    H143952   1.170   1.991   2.479 -1.4712  0.9995  0.4239
 7487TIP3    H243953   1.227   2.022   2.615 -0.9495  1.0024  0.2071
 7488TIP3   OH243954   1.900   2.575   0.346  0.1858  0.5333 -0.2315
 7488TIP3    H143955   1.926   2.576   0.438 -1.4894 -0.3956  0.2801
 7488TIP3    H243956   1.805   2.573   0.347  0.1288  0.3809 -1.9986
 7489TIP3   OH243957   2.598   4.277   0.180  0.4368  0.0656  0.1337
 7489TIP3    H143958   2.515   4.319   0.155  0.0701 -0.5888  0.2405
 7489TIP3    H243959   2.574   4.217   0.251  0.8481 -0.7976 -0.4498
 7490TIP3   OH243960   6.497   5.164  14.796  0.3144 -0.0981 -0.4919
 7490TIP3    H143961   6.413   5.172  14.840  1.0747  2.1506  0.7845
 7490TIP3    H243962   6.491   5.224  14.722  0.4859 -0.6226 -0.9321
 7491TIP3   OH243963   0.914   6.624  17.011 -0.0992  0.4637 -0.8021
 7491TIP3    H143964   0.949   6.582  17.090 -0.2567  1.4398 -0.1972
 7491TIP3    H243965   0.839   6.570  16.987 -2.8448  2.5321  2.3247
 7492TIP3   OH243966   0.370   5.635  14.023  0.2915 -0.2283  0.0678
 7492TIP3    H143967   0.409   5.693  14.088  1.4242  0.2753 -1.0241
 7492TIP3    H243968   0.287   5.676  14.000  1.7605  1.8724 -1.8324
 7493TIP3   OH243969   3.254   3.897  11.332 -0.1145 -0.2004 -0.3276
 7493TIP3    H143970   3.272   3.831  11.265 -0.5513  0.5846 -1.2516
 7493TIP3    H243971   3.279   3.980  11.290  0.9563  0.1834  0.9969
 7494TIP3   OH243972   5.028   6.042  16.347  0.0286 -0.2976  0.4538
 7494TIP3    H143973   4.964   5.997  16.292  0.1482 -0.6534  0.6037
 7494TIP3    H243974   5.112   6.001  16.324 -0.0112 -0.9219  1.3903
 7495TIP3   OH243975   0.062   4.121   0.876  0.2300 -0.2072  0.6051
 7495TIP3    H143976   0.056   4.148   0.967 -0.9071  3.5779 -0.4262
 7495TIP3    H243977  -0.002   4.050   0.867 -0.2827 -0.0385  2.5339
 7496TIP3   OH243978   0.783   3.151  11.196 -0.0583  0.1612  0.3813
 7496TIP3    H143979   0.754   3.155  11.287  1.4901  1.5893  0.8752
 7496TIP3    H243980   0.781   3.242  11.167 -0.0055 -0.2132 -0.8307
 7497TIP3   OH243981   2.975   4.520   1.720  0.4451 -0.9241 -0.4511
 7497TIP3    H143982   2.944   4.543   1.807  1.0323 -1.6708 -0.0225
 7497TIP3    H243983   2.896   4.516   1.666  0.3279  2.6594 -0.7745
 7498TIP3   OH243984   6.192   0.742  12.256  0.5313 -0.0792  0.0358
 7498TIP3    H143985   6.187   0.696  12.172  1.2393 -1.3222  0.6408
 7498TIP3    H243986   6.209   0.833  12.233  2.1201 -0.6329 -1.1367
 7499TIP3   OH243987   6.777   5.954  15.941  0.2194  0.0261  0.7538
 7499TIP3    H143988   6.761   5.981  16.032 -1.3580  1.1143  0.1938
 7499TIP3    H243989   6.865   5.987  15.922  1.5742 -2.2195  2.5475
 7500TIP3   OH243990   1.247   5.371   5.171  0.2245 -0.1467  0.3027
 7500TIP3    H143991   1.239   5.278   5.194 -1.4171 -0.2219 -0.4562
 7500TIP3    H243992   1.310   5.406   5.234 -0.3768 -1.4213  1.6601
 7501TIP3   OH243993   5.464   3.900   4.312  0.7137 -0.2559 -0.5330
 7501TIP3    H143994   5.497   3.849   4.386 -0.2492  0.5254  0.4687
 7501TIP3    H243995   5.539   3.949   4.280  1.1873 -0.7811 -0.2290
 7502TIP3   OH243996   5.729   2.408   1.650  0.0010  0.0678  0.0269
 7502TIP3    H143997   5.638   2.407   1.681  0.0733 -1.8459  0.3453
 7502TIP3    H243998   5.722   2.392   1.556 -0.0184  0.2856 -0.0072
 7503TIP3   OH243999   0.175   3.340   3.696  0.9091 -0.3575 -0.3446
 7503TIP3    H144000   0.175   3.430   3.663  3.7438  0.7185  2.1623
 7503TIP3    H244001   0.088   3.329   3.735  0.0219  0.7504 -1.9167
 7504TIP3   OH244002   5.431   2.514   5.297 -0.3581 -0.4609  0.5695
 7504TIP3    H144003   5.472   2.429   5.281  0.5743  0.2947 -1.3739
 7504TIP3    H244004   5.348   2.509   5.251 -0.5309 -0.4846  0.8816
 7505TIP3   OH244005   0.816   5.036   2.430  0.4305 -0.5335  0.2530
 7505TIP3    H144006   0.782   4.956   2.469  0.7497 -0.4372  0.7364
 7505TIP3    H244007   0.879   5.007   2.364 -0.4033 -0.7072 -0.4813
 7506TIP3   OH244008   1.928   2.299  10.900 -0.6308 -0.4663  0.7547
 7506TIP3    H144009   1.959   2.226  10.846  1.3653  1.0065 -0.2155
 7506TIP3    H244010   1.900   2.365  10.837  1.2825  1.1009  1.4698
 7507TIP3   OH244011   5.219   2.413  12.403 -1.2017  0.3542 -0.6466
 7507TIP3    H144012   5.228   2.376  12.491  1.7690 -2.4728 -1.9046
 7507TIP3    H244013   5.136   2.378  12.371 -0.9201 -1.0859  0.0842
 7508TIP3   OH244014   6.049   6.447   2.970  0.2895  0.0775  0.3291
 7508TIP3    H144015   6.083   6.535   2.986  1.6527 -0.4222  0.3319
 7508TIP3    H244016   6.117   6.404   2.917 -0.1465 -1.0991  0.6847
 7509TIP3   OH244017   5.225   6.479   1.730 -0.7097 -0.5700 -0.5373
 7509TIP3    H144018   5.213   6.460   1.637  0.5894  3.7628 -1.8528
 7509TIP3    H244019   5.146   6.526   1.756  0.1540  0.8683 -0.3925
 7510TIP3   OH244020   3.709   3.267   5.486  0.4377 -0.0229  0.2977
 7510TIP3    H144021   3.644   3.336   5.496  2.2850  1.8170  0.4409
 7510TIP3    H244022   3.711   3.223   5.571 -0.4567  0.0337  0.3507
 7511TIP3   OH244023   1.658   1.460   2.527 -0.4582 -0.6123  0.3840
 7511TIP3    H144024   1.737   1.473   2.475 -1.1375 -0.3361 -0.6251
 7511TIP3    H244025   1.634   1.368   2.511 -0.5043 -0.6096  0.4376
 7512TIP3   OH244026   4.502   3.201  15.528  0.1021 -0.5015 -0.3351
 7512TIP3    H144027   4.445   3.180  15.603 -1.3079 -1.5823 -1.6362
 7512TIP3    H244028   4.587   3.221  15.567 -0.9054  0.2400  1.6387
 7513TIP3   OH244029   2.917   4.026   4.343 -0.5493  0.1049  0.0059
 7513TIP3    H144030   2.919   4.063   4.432  0.0293  0.7876 -0.2778
 7513TIP3    H244031   2.843   3.966   4.344 -1.3751  1.0944  0.5648
 7514TIP3   OH244032   1.914   1.202   5.602 -0.1371  0.0153  0.1461
 7514TIP3    H144033   1.878   1.113   5.600 -0.5035  0.1741 -0.4832
 7514TIP3    H244034   1.984   1.202   5.537  1.1499 -0.3335  1.4762
 7515TIP3   OH244035   0.962   0.435  14.736 -0.2988  0.3664  0.3860
 7515TIP3    H144036   1.056   0.427  14.749 -0.2952  0.4743  0.4339
 7515TIP3    H244037   0.936   0.507  14.794 -0.5820 -0.3630  1.1786
 7516TIP3   OH244038   5.022   2.383   3.604  0.0973  0.2364  0.2324
 7516TIP3    H144039   5.031   2.343   3.517 -0.7349  0.7299 -0.0873
 7516TIP3    H244040   5.036   2.476   3.589 -0.8778  0.4281  0.4893
 7517TIP3   OH244041   0.307   4.378  13.265  0.1818 -1.0931  0.0410
 7517TIP3    H144042   0.348   4.309  13.213 -0.2362 -1.5712  0.3386
 7517TIP3    H244043   0.253   4.331  13.328  0.0112 -0.4933  0.3427
 7518TIP3   OH244044   5.652   3.193   3.047 -0.2017  0.2621  0.1233
 7518TIP3    H144045   5.615   3.272   3.087 -1.4213 -0.0140 -0.4045
 7518TIP3    H244046   5.742   3.216   3.026 -0.2177  1.1507  0.9559
 7519TIP3   OH244047   6.044   2.461   5.462 -0.6373  0.1858  0.4092
 7519TIP3    H144048   6.060   2.393   5.396 -1.8331  0.1484  0.1301
 7519TIP3    H244049   6.012   2.413   5.539 -0.5588  0.3491  0.5454
 7520TIP3   OH244050   3.027   5.727  12.706  0.7623  0.0053  0.0474
 7520TIP3    H144051   3.095   5.661  12.716  0.7217 -0.4886 -2.3345
 7520TIP3    H244052   3.075   5.809  12.693  0.8284  0.1752  1.2374
 7521TIP3   OH244053   4.368   6.733   5.662  0.5628  0.1661  0.5177
 7521TIP3    H144054   4.343   6.809   5.610  1.1089  0.9138  1.3194
 7521TIP3    H244055   4.286   6.700   5.697  0.1194 -0.6778 -1.2240
 7522TIP3   OH244056   1.323   5.475  15.741  0.1173  0.5676 -0.2590
 7522TIP3    H144057   1.312   5.416  15.815  0.9874  3.0611  1.9830
 7522TIP3    H244058   1.241   5.466  15.692 -1.7397  0.8626  2.5685
 7523TIP3   OH244059   3.843   6.293  16.054  0.6287  0.4414  0.4372
 7523TIP3    H144060   3.881   6.206  16.042 -0.7600  0.0245 -1.5817
 7523TIP3    H244061   3.770   6.280  16.115  1.2426  0.4718  1.1902
 7524TIP3   OH244062   3.253   1.970   2.000  0.0106  0.4504  0.3955
 7524TIP3    H144063   3.315   2.039   2.024  0.7957 -0.5514  1.3538
 7524TIP3    H244064   3.268   1.900   2.064 -1.6135 -0.1296  0.1988
 7525TIP3   OH244065   5.132   0.252   4.441  0.0161 -0.1908  0.2431
 7525TIP3    H144066   5.137   0.161   4.411 -3.1693 -0.0219 -1.2220
 7525TIP3    H244067   5.123   0.246   4.536  0.5144 -1.3546  0.2312
 7526TIP3   OH244068   5.248   1.328  14.985  0.1183 -0.3043 -0.1143
 7526TIP3    H144069   5.300   1.310  15.063  0.0758 -0.2111 -0.0639
 7526TIP3    H244070   5.206   1.244  14.965  2.0183 -0.9803 -1.4786
 7527TIP3   OH244071   4.349   3.149  15.082  0.0370  0.5295  0.0708
 7527TIP3    H144072   4.409   3.142  15.156 -1.0889 -2.0452  0.8363
 7527TIP3    H244073   4.267   3.178  15.122  0.2336  2.2821 -0.7065
 7528TIP3   OH244074   1.399   6.818  13.150 -0.1058 -0.2426  0.4534
 7528TIP3    H144075   1.333   6.834  13.217 -0.6751 -2.0127  0.3926
 7528TIP3    H244076   1.350   6.783  13.076  0.6890  0.1971 -0.2997
 7529TIP3   OH244077   1.182   0.336  15.950  0.0905  0.0234  0.4505
 7529TIP3    H144078   1.182   0.432  15.945  1.3994 -0.0347 -1.8730
 7529TIP3    H244079   1.102   0.310  15.906  0.4537  0.0376 -0.2317
 7530TIP3   OH244080   6.060   4.761   1.497  0.4176 -0.3330  0.5293
 7530TIP3    H144081   6.004   4.839   1.503  0.6716 -0.1125  0.0721
 7530TIP3    H244082   6.004   4.690   1.529  0.5587  0.2045  2.0430
 7531TIP3   OH244083   0.964   2.196   6.115 -0.2901 -0.5097  0.0341
 7531TIP3    H144084   0.984   2.189   6.209 -0.5094 -0.1365  0.1120
 7531TIP3    H244085   0.921   2.281   6.107 -0.3196 -0.5672 -0.3989
 7532TIP3   OH244086   4.812   6.711  12.228 -0.2211  0.9996 -0.2341
 7532TIP3    H144087   4.833   6.735  12.318 -0.4862 -2.1435  0.7915
 7532TIP3    H244088   4.721   6.680  12.233  0.1526 -0.3424 -1.2855
 7533TIP3   OH244089   5.612   5.801   3.321 -0.2124 -0.1801 -0.4488
 7533TIP3    H144090   5.603   5.767   3.410 -0.7148  1.2133  0.0674
 7533TIP3    H244091   5.681   5.867   3.327  0.1751 -0.5096 -1.2281
 7534TIP3   OH244092   2.111   0.891  14.095  0.3909 -0.1040 -0.6267
 7534TIP3    H144093   2.087   0.895  14.002  0.1848  0.0622 -0.5672
 7534TIP3    H244094   2.054   0.955  14.137  1.2472  0.6141 -0.5435
 7535TIP3   OH244095   2.701   5.288   5.394  0.1836 -0.1646  0.3089
 7535TIP3    H144096   2.727   5.373   5.430 -1.4114  0.3948  0.2184
 7535TIP3    H244097   2.635   5.255   5.455  0.0104 -0.8527 -0.2318
 7536TIP3   OH244098   4.672   2.571  12.638  0.3173  0.5848  0.8053
 7536TIP3    H144099   4.704   2.645  12.690  0.6108  0.0452  1.4037
 7536TIP3    H244100   4.706   2.587  12.550 -1.2072  2.1581  0.4438
 7537TIP3   OH244101   1.400   5.912  17.207  1.3185  0.2445 -0.0907
 7537TIP3    H144102   1.433   5.821  17.205 -0.2711 -0.4313  1.6173
 7537TIP3    H244103   1.365   5.922  17.295  0.7409  2.2926 -0.5166
 7538TIP3   OH244104   3.998   0.408   2.411 -0.2297  0.0985  0.4150
 7538TIP3    H144105   4.079   0.459   2.402  1.2292 -1.9263  1.2405
 7538TIP3    H244106   4.015   0.328   2.361 -0.9351 -1.2004  2.1566
 7539TIP3   OH244107   1.333   2.242  13.191 -0.3266 -0.2315 -0.3607
 7539TIP3    H144108   1.247   2.202  13.201 -0.4674 -0.5210 -2.2864
 7539TIP3    H244109   1.319   2.312  13.126  1.1193 -1.2249 -1.8360
 7540TIP3   OH244110   5.349   6.747   2.524 -0.3657 -0.5658  0.7303
 7540TIP3    H144111   5.284   6.810   2.494 -0.7662 -0.1923  2.2775
 7540TIP3    H244112   5.300   6.686   2.579  0.5774 -0.2573  1.9587
 7541TIP3   OH244113   3.148   0.573   6.949  0.1699  0.6368 -0.2159
 7541TIP3    H144114   3.218   0.575   6.884  2.0323  3.4823  1.6217
 7541TIP3    H244115   3.077   0.623   6.908  0.4167  0.4229 -0.9216
 7542TIP3   OH244116   6.422   2.253   3.540 -0.3304 -0.3593 -0.3248
 7542TIP3    H144117   6.351   2.205   3.583 -0.3183 -0.6357 -0.6154
 7542TIP3    H244118   6.401   2.345   3.556  0.7748 -0.4407  2.1259
 7543TIP3   OH244119   6.248   5.744   4.305  0.0535 -0.2835 -0.5659
 7543TIP3    H144120   6.325   5.799   4.316 -0.4074  0.7797 -2.1700
 7543TIP3    H244121   6.280   5.666   4.259  0.7069 -1.4372  1.7138
 7544TIP3   OH244122   4.230   0.723  11.215  0.1071 -0.2611 -0.8076
 7544TIP3    H144123   4.275   0.792  11.262 -0.1999 -0.2418 -0.5352
 7544TIP3    H244124   4.223   0.754  11.125 -0.7447  0.4284 -0.5197
 7545TIP3   OH244125   5.662   3.574   2.215  0.4247  0.3958  0.5005
 7545TIP3    H144126   5.615   3.583   2.298  1.3969 -1.3273  1.2981
 7545TIP3    H244127   5.735   3.635   2.222  0.3925  0.3967  0.8549
 7546TIP3   OH244128   2.123   0.938   4.276 -0.1008 -0.5382 -0.1156
 7546TIP3    H144129   2.083   0.918   4.361 -0.8430  1.4699  0.0663
 7546TIP3    H244130   2.090   0.870   4.218 -1.6802 -0.4749  0.6417
 7547TIP3   OH244131   3.789   4.147  16.259 -0.2549 -0.2159  0.1846
 7547TIP3    H144132   3.724   4.100  16.312 -0.0743 -0.5245  0.1362
 7547TIP3    H244133   3.863   4.087  16.255  0.0489  0.1547  0.2704
 7548TIP3   OH244134   4.699   3.483  15.699  0.1546  0.3711 -0.4065
 7548TIP3    H144135   4.697   3.537  15.620  0.8207  1.6438  0.4032
 7548TIP3    H244136   4.700   3.547  15.771 -3.3953 -0.6573  0.7937
 7549TIP3   OH244137   5.300   1.421   4.926 -0.2173  0.1857  0.1992
 7549TIP3    H144138   5.346   1.337   4.917  0.2386  0.4279  0.2217
 7549TIP3    H244139   5.357   1.484   4.883 -0.7617  0.4184 -0.1866
 7550TIP3   OH244140   3.089   2.886   1.339  0.0135 -0.3775 -0.9011
 7550TIP3    H144141   3.006   2.916   1.303  1.2920  1.7721 -2.2635
 7550TIP3    H244142   3.154   2.949   1.308  1.9433 -1.0003  1.4821
 7551TIP3   OH244143   6.139   4.512  11.274  1.0190  0.9241 -0.0989
 7551TIP3    H144144   6.187   4.498  11.356  1.7958  0.0652 -0.6815
 7551TIP3    H244145   6.158   4.603  11.251 -0.7834  1.8278  1.6418
 7552TIP3   OH244146   3.401   3.207   5.288 -0.8041  0.4563  0.0881
 7552TIP3    H144147   3.306   3.213   5.274 -0.7040 -0.4771 -1.1161
 7552TIP3    H244148   3.419   3.113   5.283  0.2260  0.6517  0.0955
 7553TIP3   OH244149   3.666   6.101   6.768  0.2509 -0.0516  0.3252
 7553TIP3    H144150   3.571   6.108   6.769  0.3160  1.2301  1.6753
 7553TIP3    H244151   3.686   6.049   6.690 -1.4954  0.5530 -0.5746
 7554TIP3   OH244152   3.246   2.669   0.736 -0.2781 -0.4340 -0.3906
 7554TIP3    H144153   3.273   2.588   0.780 -0.6088 -0.5068 -0.3183
 7554TIP3    H244154   3.247   2.735   0.806  0.9422 -0.1587 -0.6519
 7555TIP3   OH244155   1.678   3.165   6.053 -0.5897  0.1937  0.3997
 7555TIP3    H144156   1.744   3.234   6.066  0.0589 -0.6735  2.1021
 7555TIP3    H244157   1.597   3.212   6.034  0.0452  1.3860  0.5536
 7556TIP3   OH244158   5.319   3.371  16.452  0.6730 -0.4358  0.2458
 7556TIP3    H144159   5.243   3.314  16.458  0.5231 -0.1065  2.8335
 7556TIP3    H244160   5.303   3.439  16.518  0.6467  2.9305 -2.9132
 7557TIP3   OH244161   4.905   2.501  10.678  0.3148 -0.3920 -1.2848
 7557TIP3    H144162   4.890   2.437  10.607 -0.7147  0.1768 -1.6010
 7557TIP3    H244163   4.829   2.559  10.674  0.0407 -0.5713  0.5492
 7558TIP3   OH244164   1.916   1.193   1.762 -0.0159 -0.8115  0.3087
 7558TIP3    H144165   2.009   1.202   1.785 -0.0561  0.4608 -0.0018
 7558TIP3    H244166   1.870   1.254   1.820 -0.6255 -1.1473  0.1890
 7559TIP3   OH244167   3.028   3.604  17.051 -0.4605 -0.8018 -0.2151
 7559TIP3    H144168   2.988   3.677  17.002  2.7828 -0.0336 -1.9898
 7559TIP3    H244169   2.996   3.526  17.006  0.4730 -0.1927 -2.0401
 7560TIP3   OH244170   4.019   5.694  16.028 -0.1881 -0.1573  0.6299
 7560TIP3    H144171   4.084   5.624  16.024  0.1152  0.1686 -2.4107
 7560TIP3    H244172   4.070   5.774  16.032 -0.3729  0.0564 -0.7927
 7561TIP3   OH244173   5.597   1.002  17.066  0.8359 -0.5218  0.0595
 7561TIP3    H144174   5.634   0.960  17.143  0.7704 -1.1774 -0.2562
 7561TIP3    H244175   5.536   1.067  17.101  1.3713 -0.2879  0.5634
 7562TIP3   OH244176   4.334   2.706  10.730 -0.2258  0.6394  0.0748
 7562TIP3    H144177   4.354   2.631  10.674 -2.7370 -0.0804 -0.0116
 7562TIP3    H244178   4.403   2.769  10.712  1.0727 -1.0039 -1.0756
 7563TIP3   OH244179   4.696   6.683   3.980  0.2745  0.1244 -0.1409
 7563TIP3    H144180   4.652   6.661   3.897  0.4903  0.0125 -0.2277
 7563TIP3    H244181   4.721   6.775   3.970  0.6540 -0.0009 -0.3618
 7564TIP3   OH244182   4.968   2.326   4.922  0.0899  0.1361  0.0335
 7564TIP3    H144183   4.919   2.306   4.843 -0.6574  2.1597 -0.0587
 7564TIP3    H244184   4.983   2.420   4.919  1.8617 -0.0403  1.2912
 7565TIP3   OH244185   0.487   3.915   0.095 -0.3729  0.8078  0.6166
 7565TIP3    H144186   0.462   3.869   0.175  0.7039 -2.2564 -0.6370
 7565TIP3    H244187   0.405   3.954   0.063 -1.2686  0.1876  2.0391
 7566TIP3   OH244188   1.482   1.727   2.284  0.7837  0.1039 -0.0588
 7566TIP3    H144189   1.471   1.632   2.279 -0.2075  0.1300  1.0681
 7566TIP3    H244190   1.422   1.762   2.219 -1.0676  0.0170  1.5146
 7567TIP3   OH244191   6.238   0.481   1.455  0.3972 -0.5594  0.0211
 7567TIP3    H144192   6.250   0.476   1.549  1.6793  0.0658 -0.0916
 7567TIP3    H244193   6.224   0.574   1.437 -1.9866 -0.8879 -0.2048
 7568TIP3   OH244194   3.508   0.453   3.252 -0.5090  0.0732 -0.1906
 7568TIP3    H144195   3.426   0.503   3.253 -1.0433 -0.7832  0.1062
 7568TIP3    H244196   3.480   0.362   3.259  0.5384 -0.1493  1.6068
 7569TIP3   OH244197   4.511   2.178  14.965  0.0607 -0.1340  0.4135
 7569TIP3    H144198   4.525   2.087  14.939 -0.6678  0.1901 -1.2577
 7569TIP3    H244199   4.593   2.203  15.008 -0.4036 -2.1062  2.7114
 7570TIP3   OH244200   2.892   6.223   1.845  0.4139 -0.2088  0.3732
 7570TIP3    H144201   2.861   6.134   1.828 -1.9832  0.4972  0.6513
 7570TIP3    H244202   2.948   6.215   1.922  0.4379 -1.5044  0.2458
 7571TIP3   OH244203   3.089   1.401   2.604 -0.0765 -0.9332 -0.0969
 7571TIP3    H144204   3.060   1.482   2.646  0.5284 -0.8601  0.2022
 7571TIP3    H244205   3.114   1.426   2.515  0.4177 -0.7169  0.0950
 7572TIP3   OH244206   6.373   4.400  13.319 -0.0809 -0.4378 -0.1478
 7572TIP3    H144207   6.324   4.418  13.238 -0.8033  0.0564  0.3909
 7572TIP3    H244208   6.455   4.448  13.308  1.3733 -3.0736 -2.0642
 7573TIP3   OH244209   4.720   0.874   2.727 -0.3424 -0.1984 -0.0925
 7573TIP3    H144210   4.633   0.860   2.690 -1.0802 -0.3031  1.5922
 7573TIP3    H244211   4.746   0.961   2.697 -1.0228 -0.1727 -0.6175
 7574TIP3   OH244212   3.412   0.248  14.912  0.6930  0.2873  0.6137
 7574TIP3    H144213   3.366   0.265  14.994  0.7016 -0.7358  0.8383
 7574TIP3    H244214   3.379   0.163  14.883  0.7149  0.6242 -0.4298
 7575TIP3   OH244215   3.878   2.215   3.617 -0.5200 -0.0891 -0.6130
 7575TIP3    H144216   3.804   2.160   3.591 -0.4691 -0.7091  0.4924
 7575TIP3    H244217   3.952   2.155   3.622 -0.4125  0.1174  0.3791
 7576TIP3   OH244218   6.104   1.970   1.166 -0.3235 -0.0504  0.2613
 7576TIP3    H144219   6.141   2.046   1.211  1.1998  0.9283 -2.3937
 7576TIP3    H244220   6.174   1.905   1.167 -0.3882 -0.1401 -0.3237
 7577TIP3   OH244221   2.975   6.436   1.389 -0.0569 -0.0427 -0.4245
 7577TIP3    H144222   2.956   6.522   1.428 -0.0778 -0.7349  1.1473
 7577TIP3    H244223   2.914   6.376   1.432 -0.7687 -0.7187 -2.2546
 7578TIP3   OH244224   4.285   1.817   4.016  0.1686 -0.0018  0.0629
 7578TIP3    H144225   4.299   1.899   4.063 -1.6251  1.7300 -2.1913
 7578TIP3    H244226   4.194   1.793   4.036 -0.0763 -0.1284 -1.1459
 7579TIP3   OH244227   1.175   1.261  13.781  0.2187  0.0195  0.3608
 7579TIP3    H144228   1.199   1.189  13.840  2.7651  1.2691  0.9750
 7579TIP3    H244229   1.224   1.243  13.701 -1.2981 -0.3431 -0.5269
 7580TIP3   OH244230   5.151   1.482  14.401  0.5870 -0.2085  0.0466
 7580TIP3    H144231   5.099   1.502  14.323 -0.3473 -1.7424  0.2217
 7580TIP3    H244232   5.238   1.459  14.367 -0.1448 -2.0508 -0.7073
 7581TIP3   OH244233   2.461   5.577  16.259 -0.2846  0.1493 -0.0280
 7581TIP3    H144234   2.367   5.560  16.270  0.1187 -1.3402  1.4797
 7581TIP3    H244235   2.480   5.650  16.318 -0.5845  0.8859 -0.8140
 7582TIP3   OH244236   0.054   0.714   6.534  0.1571 -0.1791  0.3125
 7582TIP3    H144237   0.144   0.687   6.518 -0.3628 -2.1077  0.4493
 7582TIP3    H244238   0.018   0.732   6.447  0.3614 -0.4429  0.1720
 7583TIP3   OH244239   3.088   5.489   3.806 -0.5687  0.1494 -0.2908
 7583TIP3    H144240   3.025   5.419   3.788  0.5471 -0.8069 -0.5861
 7583TIP3    H244241   3.139   5.496   3.725  0.2929  0.2745  0.2528
 7584TIP3   OH244242   1.539   1.891  15.065  0.0530 -0.2433  0.1073
 7584TIP3    H144243   1.460   1.945  15.076 -0.0974 -0.6597  1.1613
 7584TIP3    H244244   1.574   1.881  15.153  0.0736 -1.8789 -0.0582
 7585TIP3   OH244245   6.519   6.059  15.817 -0.6625 -0.5640 -0.4126
 7585TIP3    H144246   6.532   6.153  15.831 -0.1344 -0.0591 -3.5561
 7585TIP3    H244247   6.606   6.021  15.824 -0.8776 -0.8568  0.8685
 7586TIP3   OH244248   3.248   3.907   0.707 -0.3430 -0.1474 -0.5135
 7586TIP3    H144249   3.236   3.868   0.794  1.7547  0.5558  0.1651
 7586TIP3    H244250   3.249   4.002   0.724  1.2783 -0.0328 -1.0935
 7587TIP3   OH244251   6.818   0.723  12.875 -0.2502  0.4389 -0.2822
 7587TIP3    H144252   6.774   0.641  12.894 -0.7472  0.3439 -1.7202
 7587TIP3    H244253   6.868   0.743  12.955  0.6242 -1.7070 -0.2391
 7588TIP3   OH244254   1.873   3.362  17.137  0.0817 -0.1980 -0.3404
 7588TIP3    H144255   1.809   3.366  17.066  1.1564 -1.5666 -1.4414
 7588TIP3    H244256   1.946   3.311  17.101  0.4821 -1.3337  1.8857
 7589TIP3   OH244257   1.870   6.504   5.385 -0.2094  0.5943 -0.2721
 7589TIP3    H144258   1.954   6.543   5.361  0.3469 -0.1473  0.3935
 7589TIP3    H244259   1.835   6.471   5.302  0.3949  0.4733 -0.4915
 7590TIP3   OH244260   0.995   4.437   3.103  0.2728  0.0115 -0.3304
 7590TIP3    H144261   0.998   4.458   3.196  1.0389  0.3468 -0.4148
 7590TIP3    H244262   0.903   4.419   3.085  0.4152 -2.3619  0.9796
 7591TIP3   OH244263   3.836   5.951   5.179 -0.0677  0.4300 -0.0286
 7591TIP3    H144264   3.855   5.864   5.142  0.4509  1.4991 -2.4484
 7591TIP3    H244265   3.884   6.012   5.124 -0.7896  2.3307  1.3328
 7592TIP3   OH244266   0.889   2.775  17.144  0.7358 -0.1277 -0.2519
 7592TIP3    H144267   0.857   2.864  17.155  1.4062  0.5250 -2.8383
 7592TIP3    H244268   0.810   2.720  17.147  0.2634  0.5897  0.8214
 7593TIP3   OH244269   6.218   6.781  16.180 -0.1485  0.1533  0.6031
 7593TIP3    H144270   6.174   6.864  16.198 -1.0322  0.0739 -1.0523
 7593TIP3    H244271   6.238   6.783  16.087  1.0933 -0.9164  0.8084
 7594TIP3   OH244272   6.648   5.572   2.399 -0.2080  0.3015  0.1371
 7594TIP3    H144273   6.699   5.646   2.367 -1.0036  0.6287 -0.4115
 7594TIP3    H244274   6.651   5.509   2.326  0.3331 -0.1502  0.5397
 7595TIP3   OH244275   3.178   1.455   4.209 -0.4681  0.4732  0.1549
 7595TIP3    H144276   3.098   1.507   4.219 -0.8054  0.0964 -0.4995
 7595TIP3    H244277   3.240   1.516   4.168 -1.0914  0.1856 -1.2940
 7596TIP3   OH244278   3.861   2.909   4.588 -0.2008  0.3414  0.3171
 7596TIP3    H144279   3.883   2.874   4.674 -0.2863  0.6096  0.4494
 7596TIP3    H244280   3.876   3.003   4.596  1.6365  0.1737 -0.5177
 7597TIP3   OH244281   1.293   2.294  17.048 -0.0611  0.4113  0.3187
 7597TIP3    H144282   1.211   2.260  17.011 -0.2408  1.9946 -0.9042
 7597TIP3    H244283   1.362   2.252  16.997 -0.0910 -0.7457  1.1939
 7598TIP3   OH244284   4.775   0.464  14.871  0.4185  0.4696  0.5439
 7598TIP3    H144285   4.806   0.502  14.788  1.4884  0.0039  0.7095
 7598TIP3    H244286   4.683   0.443  14.855  1.2035 -2.0437 -1.4959
 7599TIP3   OH244287   4.117   3.194   2.020 -0.0276 -0.4022 -0.2830
 7599TIP3    H144288   4.052   3.159   1.959 -0.9046  0.3108  0.2095
 7599TIP3    H244289   4.126   3.125   2.087 -0.0217 -0.6440 -0.5303
 7600TIP3   OH244290   4.250   2.202  14.171  0.3140  0.2281 -0.6969
 7600TIP3    H144291   4.322   2.234  14.225  1.1716  0.9863 -2.2351
 7600TIP3    H244292   4.289   2.134  14.116 -0.6384 -0.8246 -0.1233
 7601TIP3   OH244293   0.905   2.610  16.234 -0.1201 -0.1344 -0.1624
 7601TIP3    H144294   0.993   2.634  16.205 -0.1620  1.5946  1.0504
 7601TIP3    H244295   0.919   2.566  16.318 -0.3420 -1.1888 -0.6499
 7602TIP3   OH244296   3.997   1.239   2.305 -0.2571  0.2185 -0.1369
 7602TIP3    H144297   3.902   1.245   2.307 -0.5638 -3.1728  1.4753
 7602TIP3    H244298   4.026   1.288   2.382 -0.9740 -1.1907  1.0718
 7603TIP3   OH244299   2.072   1.106   5.841 -0.8276  0.1146 -0.1223
 7603TIP3    H144300   2.114   1.185   5.876  0.1813  0.2912 -1.6011
 7603TIP3    H244301   2.023   1.137   5.765 -1.2013 -0.5485 -0.1583
 7604TIP3   OH244302   0.412   1.577  12.211  0.2264  0.0214  0.1187
 7604TIP3    H144303   0.365   1.557  12.292 -0.7258 -3.4233 -1.0703
 7604TIP3    H244304   0.502   1.549  12.228 -0.0325 -0.9533 -0.0278
 7605TIP3   OH244305   4.454   1.931  11.681  0.4255 -0.0611 -0.3802
 7605TIP3    H144306   4.541   1.937  11.719  0.2700  3.2057 -0.2680
 7605TIP3    H244307   4.394   1.934  11.756  0.0904 -3.3095 -0.3705
 7606TIP3   OH244308   6.463   4.865  11.254 -0.0249  0.2165  0.1351
 7606TIP3    H144309   6.406   4.920  11.308  1.0189 -1.2226  2.9064
 7606TIP3    H244310   6.524   4.927  11.213  0.4064  1.3158  2.2641
 7607TIP3   OH244311   6.704   0.114  10.933 -0.0790 -0.0263 -0.2261
 7607TIP3    H144312   6.633   0.052  10.948  0.7688 -1.3704 -1.4151
 7607TIP3    H244313   6.752   0.116  11.016 -0.6010 -0.3067  0.0899
 7608TIP3   OH244314   5.568   3.865   4.003  0.6457  0.0685 -0.7509
 7608TIP3    H144315   5.622   3.882   3.926  0.9400  1.3782 -0.2822
 7608TIP3    H244316   5.619   3.900   4.076  0.1619 -0.7329 -0.0129
 7609TIP3   OH244317   5.593   0.875  12.398  0.2642 -0.2341  0.0459
 7609TIP3    H144318   5.661   0.939  12.377 -1.5401  1.5555 -0.6713
 7609TIP3    H244319   5.513   0.912  12.361 -0.7597 -3.3746 -1.2120
 7610TIP3   OH244320   0.798   0.245   4.836  0.2176  0.0435 -0.0677
 7610TIP3    H144321   0.874   0.234   4.894  1.5537 -2.9971 -2.1340
 7610TIP3    H244322   0.726   0.268   4.895  2.7084  3.7106  1.9359
 7611TIP3   OH244323   6.530   2.738   1.010  0.2411 -0.2255  0.6887
 7611TIP3    H144324   6.570   2.674   1.069 -0.5173  0.7139  2.2766
 7611TIP3    H244325   6.437   2.716   1.010  0.3290 -0.7429 -0.8867
 7612TIP3   OH244326   0.424   1.907  16.119  0.1954  0.3954 -0.3331
 7612TIP3    H144327   0.384   1.956  16.047 -0.4126  0.5132  0.0810
 7612TIP3    H244328   0.517   1.929  16.115 -0.2936  3.0395  0.9654
 7613TIP3   OH244329   6.761   2.698  15.960  0.0447 -0.1153 -0.4252
 7613TIP3    H144330   6.732   2.778  16.004 -1.3301 -0.4087 -0.7422
 7613TIP3    H244331   6.830   2.727  15.901 -0.9413  0.9826 -1.0867
 7614TIP3   OH244332   3.105   3.160  15.560 -0.2227  1.1329 -0.2760
 7614TIP3    H144333   3.139   3.237  15.606 -0.1849  1.2258 -0.4584
 7614TIP3    H244334   3.126   3.087  15.617 -1.5821  1.3996  0.6239
 7615TIP3   OH244335   2.531   4.251   4.038  0.1866 -0.1060  0.2245
 7615TIP3    H144336   2.625   4.239   4.052  0.0898 -1.1295  0.0807
 7615TIP3    H244337   2.524   4.283   3.948  0.3343 -1.5070 -0.3203
 7616TIP3   OH244338   4.065   2.877   1.684  0.3468 -0.2976 -0.1781
 7616TIP3    H144339   4.156   2.846   1.688  0.8823  0.4593 -3.5692
 7616TIP3    H244340   4.012   2.797   1.684  1.0741 -0.7958  0.3341
 7617TIP3   OH244341   6.176   5.034  12.491  0.3689  0.2379  0.2955
 7617TIP3    H144342   6.266   5.055  12.516 -0.3965  3.5136  0.7815
 7617TIP3    H244343   6.126   5.040  12.573 -0.2059 -2.8965  0.3025
 7618TIP3   OH244344   4.610   4.929  11.563 -0.6081 -0.4597  0.1797
 7618TIP3    H144345   4.594   4.841  11.530  2.1983 -0.5655 -1.1528
 7618TIP3    H244346   4.695   4.924  11.606 -0.4427  1.5667  0.1998
 7619TIP3   OH244347   1.556   4.841  12.523 -0.5407 -0.3574  0.7943
 7619TIP3    H144348   1.635   4.812  12.477 -1.2462  0.7519 -1.1998
 7619TIP3    H244349   1.567   4.806  12.612  1.0822 -2.1868 -0.0529
 7620TIP3   OH244350   4.659   5.939  12.843  0.4783 -0.6676  0.1431
 7620TIP3    H144351   4.693   5.868  12.898  0.7797 -0.9750 -0.4237
 7620TIP3    H244352   4.709   6.016  12.869 -0.2331 -0.5252  1.1519
 7621TIP3   OH244353   5.403   1.746  13.439  0.0454  0.7424 -0.3000
 7621TIP3    H144354   5.328   1.739  13.380 -0.2387 -1.0394  0.2076
 7621TIP3    H244355   5.376   1.810  13.504 -0.4550  1.1879 -0.9307
 7622TIP3   OH244356   3.421   0.373   5.276 -0.0742  0.2226 -0.2995
 7622TIP3    H144357   3.472   0.308   5.324 -0.8863 -0.4726 -0.3363
 7622TIP3    H244358   3.382   0.323   5.203 -0.7542  0.7343 -0.2992
 7623TIP3   OH244359   4.129   2.736  14.333 -0.5661 -0.2884 -0.0989
 7623TIP3    H144360   4.181   2.755  14.255  0.3133  0.8629  0.7315
 7623TIP3    H244361   4.039   2.745  14.304 -0.2489  2.2477 -0.5404
 7624TIP3   OH244362   3.908   4.005   2.830  0.1960 -0.0649 -0.2912
 7624TIP3    H144363   3.840   4.052   2.783 -0.0545 -0.9596 -0.8569
 7624TIP3    H244364   3.910   3.918   2.789  1.7925 -0.0068 -0.4082
 7625TIP3   OH244365   4.454   6.117   1.239  0.5015 -0.5370 -0.4476
 7625TIP3    H144366   4.477   6.042   1.185 -3.0094  0.1810 -3.3300
 7625TIP3    H244367   4.499   6.191   1.198  2.0723 -0.6385  0.9748
 7626TIP3   OH244368   6.453   4.732   5.125 -0.3351  0.0765 -0.7133
 7626TIP3    H144369   6.409   4.671   5.065  0.0905 -0.5154 -0.4360
 7626TIP3    H244370   6.539   4.692   5.140 -0.2911  0.4297 -0.0289
 7627TIP3   OH244371   6.793   3.154   5.013 -0.2268 -0.3666  0.0551
 7627TIP3    H144372   6.854   3.133   4.942 -1.2210 -0.1907 -0.8855
 7627TIP3    H244373   6.815   3.092   5.083  1.4597  0.1393  0.0209
 7628TIP3   OH244374   5.542   2.727  15.826  0.1380  0.8534 -0.0539
 7628TIP3    H144375   5.512   2.818  15.823 -0.3661  0.6849 -0.2721
 7628TIP3    H244376   5.534   2.696  15.736 -1.3058  0.1028  0.2866
 7629TIP3   OH244377   1.688   0.566   1.918  0.0270 -0.1606  0.2132
 7629TIP3    H144378   1.713   0.481   1.954 -3.1761 -1.4237 -0.1777
 7629TIP3    H244379   1.678   0.550   1.824 -1.4020  0.3519  0.2418
 7630TIP3   OH244380   2.913   6.268  11.215  0.1785 -0.3278 -0.1994
 7630TIP3    H144381   2.913   6.364  11.218  0.4225 -0.3656  1.8245
 7630TIP3    H244382   2.820   6.244  11.218  0.1254 -0.1755 -0.5205
 7631TIP3   OH244383   1.791   6.624   6.220  0.0359  0.4779  0.0550
 7631TIP3    H144384   1.834   6.607   6.136 -0.5384 -1.3326  0.0843
 7631TIP3    H244385   1.748   6.541   6.242  2.9331 -0.2971  3.8072
 7632TIP3   OH244386   2.255   3.057  13.000  0.3873  0.5446  0.3556
 7632TIP3    H144387   2.166   3.023  12.996  1.0191 -1.1293 -0.0586
 7632TIP3    H244388   2.252   3.137  12.947 -0.3615 -0.7058 -1.5639
 7633TIP3   OH244389   0.473   3.410  15.863 -0.2362 -0.1141  0.2732
 7633TIP3    H144390   0.564   3.434  15.877 -0.4585  0.1485  1.4221
 7633TIP3    H244391   0.461   3.413  15.768  0.4715  1.6774  0.1942
 7634TIP3   OH244392   4.997   0.701   4.407 -0.3085 -0.4005 -0.0026
 7634TIP3    H144393   4.919   0.683   4.460 -0.2513 -0.5815  0.0234
 7634TIP3    H244394   5.054   0.752   4.464  0.3891 -1.8523  0.6502
 7635TIP3   OH244395   2.802   2.718   0.717 -0.1547  0.3132  0.0649
 7635TIP3    H144396   2.767   2.787   0.773 -1.8817  0.6179 -1.2955
 7635TIP3    H244397   2.865   2.671   0.773 -0.1880  1.9157  1.5346
 7636TIP3   OH244398   5.185   3.860   5.772 -0.1369 -0.0621 -0.2220
 7636TIP3    H144399   5.208   3.778   5.815 -5.0040 -2.1349 -0.8608
 7636TIP3    H244400   5.182   3.839   5.679  1.8766  1.9218 -0.8094
 7637TIP3   OH244401   3.416   6.781  15.634 -0.2384 -0.7076 -0.0787
 7637TIP3    H144402   3.451   6.728  15.705  2.1084 -2.1050 -2.1033
 7637TIP3    H244403   3.370   6.719  15.577 -2.5195  0.4624  0.3776
 7638TIP3   OH244404   4.448   1.667   6.398 -0.2416  0.3108  0.1666
 7638TIP3    H144405   4.457   1.695   6.307  1.4765  1.1076  0.5531
 7638TIP3    H244406   4.417   1.576   6.392 -1.3874  0.7502 -1.1606
 7639TIP3   OH244407   0.391   3.762  11.190 -0.1043  0.3020  0.3376
 7639TIP3    H144408   0.352   3.799  11.269 -0.2058  1.3503 -0.1924
 7639TIP3    H244409   0.351   3.811  11.118 -1.1789 -1.6449 -0.4859
 7640TIP3   OH244410   4.485   0.812   3.397 -0.2051 -0.0560  0.0806
 7640TIP3    H144411   4.562   0.762   3.368 -0.0991  1.2225 -2.0663
 7640TIP3    H244412   4.521   0.892   3.434 -0.4771 -0.2090  0.6962
 7641TIP3   OH244413   0.781   6.110  14.273  0.1859 -0.4294 -0.4058
 7641TIP3    H144414   0.835   6.059  14.213  0.9125 -0.5930  0.3566
 7641TIP3    H244415   0.691   6.090  14.248  0.4700 -0.6378 -1.3060
 7642TIP3   OH244416   5.089   4.864  13.826  0.2040  0.0907 -0.1395
 7642TIP3    H144417   5.080   4.813  13.906 -0.3406 -1.3356 -1.0597
 7642TIP3    H244418   5.034   4.817  13.762  0.1373  1.5323 -1.1782
 7643TIP3   OH244419   1.564   1.872   0.176 -0.3196 -0.1061 -0.3825
 7643TIP3    H144420   1.511   1.921   0.239  0.9921  3.6295 -1.9305
 7643TIP3    H244421   1.641   1.844   0.226 -0.0013  1.4731  0.0499
 7644TIP3   OH244422   0.816   1.697   5.957  0.0275  0.5352 -0.1061
 7644TIP3    H144423   0.864   1.779   5.946 -0.1631  0.6515 -0.0793
 7644TIP3    H244424   0.833   1.672   6.047 -0.2601  0.7692  0.0156
 7645TIP3   OH244425   5.930   1.070  17.101 -0.3860  0.5656 -0.1790
 7645TIP3    H144426   6.002   1.125  17.129 -1.4588  1.9990 -0.1425
 7645TIP3    H244427   5.889   1.039  17.182 -0.0058 -0.0161 -0.2001
 7646TIP3   OH244428   2.383   6.458  13.393 -0.4180 -0.6301  0.2099
 7646TIP3    H144429   2.449   6.497  13.451  0.2325 -0.5231 -0.5841
 7646TIP3    H244430   2.402   6.364  13.396 -0.0371 -0.5711 -0.2420
 7647TIP3   OH244431   0.365   3.391  10.813  0.0172 -0.1927  0.1600
 7647TIP3    H144432   0.442   3.354  10.771 -0.2653 -1.1317  0.4425
 7647TIP3    H244433   0.400   3.449  10.880  0.4698  0.7421 -0.8502
 7648TIP3   OH244434   1.383   1.596   3.682 -0.1464 -0.0011 -0.2035
 7648TIP3    H144435   1.356   1.506   3.701  2.2495 -0.4160  1.8305
 7648TIP3    H244436   1.360   1.645   3.761  2.9013  0.0090  0.8291
 7649TIP3   OH244437   5.291   6.715   1.915  0.1667 -0.3372  0.4995
 7649TIP3    H144438   5.356   6.659   1.958 -0.1326 -1.2185 -0.1513
 7649TIP3    H244439   5.233   6.743   1.986  1.2031  0.4078  1.0738
 7650TIP3   OH244440   3.645   3.525  11.546 -0.1296 -0.1170  0.3764
 7650TIP3    H144441   3.715   3.589  11.536  1.3216 -1.9944 -3.5164
 7650TIP3    H244442   3.568   3.566  11.507  0.4993 -0.2388 -1.0525
 7651TIP3   OH244443   4.891   5.700   6.028  0.4508  0.2895  0.2182
 7651TIP3    H144444   4.957   5.656   6.081 -0.8500 -1.0002  0.8318
 7651TIP3    H244445   4.832   5.740   6.092 -0.2943 -0.0051 -0.2669
 7652TIP3   OH244446   6.610   3.648  15.543  0.3448  0.6495 -0.5567
 7652TIP3    H144447   6.679   3.673  15.482  0.8093 -1.1369 -0.8368
 7652TIP3    H244448   6.560   3.728  15.558  1.9841  1.7957 -0.9790
 7653TIP3   OH244449   1.589   3.867   4.669  0.1746  0.6729 -0.0420
 7653TIP3    H144450   1.550   3.895   4.752  1.8970  1.9983  0.3793
 7653TIP3    H244451   1.634   3.785   4.690 -0.5944  0.2517 -0.0235
 7654TIP3   OH244452   0.837   0.223   2.189 -0.7660 -0.0063  0.0125
 7654TIP3    H144453   0.875   0.157   2.130 -2.2489 -0.4508 -0.4794
 7654TIP3    H244454   0.860   0.307   2.149 -0.5063 -0.2693 -0.3996
 7655TIP3   OH244455   6.486   2.638   0.688 -0.4173 -0.1003  0.1765
 7655TIP3    H144456   6.514   2.655   0.598  0.1686  0.6211  0.4846
 7655TIP3    H244457   6.539   2.563   0.716 -1.4631 -1.1191 -0.4639
 7656TIP3   OH244458   5.670   3.576  15.452 -0.0558 -0.1789  0.0623
 7656TIP3    H144459   5.636   3.531  15.375 -0.1318 -1.7311  0.9645
 7656TIP3    H244460   5.625   3.661  15.452 -1.0745 -0.6984 -0.8478
 7657TIP3   OH244461   0.712   1.702   5.707 -0.6231  0.1314 -0.2129
 7657TIP3    H144462   0.742   1.713   5.797  1.3518  0.8357 -0.8996
 7657TIP3    H244463   0.792   1.709   5.654 -1.7761  0.1064 -2.0478
 7658TIP3   OH244464   3.855   3.703  12.603  0.7025  0.1675  0.0201
 7658TIP3    H144465   3.874   3.776  12.661 -1.4734  0.4490  0.4757
 7658TIP3    H244466   3.769   3.671  12.632  0.4511 -0.9440 -1.7770
 7659TIP3   OH244467   6.029   4.055   4.322 -0.1051  0.2241 -0.0100
 7659TIP3    H144468   6.094   4.057   4.251  0.6342  0.4336  0.6614
 7659TIP3    H244469   5.961   4.115   4.293  1.0162  1.6685  0.2051
 7660TIP3   OH244470   1.480   5.812   3.005  0.0841 -0.2943  0.4049
 7660TIP3    H144471   1.570   5.841   2.992  0.1748 -0.5169  0.5118
 7660TIP3    H244472   1.426   5.873   2.955  0.4526 -1.4334 -1.4836
 7661TIP3   OH244473   2.487   1.073   5.153  0.7953  0.2323  0.2106
 7661TIP3    H144474   2.484   0.987   5.196  0.1376 -0.0738 -0.4238
 7661TIP3    H244475   2.403   1.080   5.108  0.6914  1.3775  0.5523
 7662TIP3   OH244476   3.701   1.535  11.466  0.3545 -0.1238  0.3071
 7662TIP3    H144477   3.689   1.562  11.375  3.6287 -0.2000 -0.2662
 7662TIP3    H244478   3.635   1.584  11.515  0.3521  2.1124 -1.7552
 7663TIP3   OH244479   5.636   2.192   5.922 -0.0646 -0.3502  0.4868
 7663TIP3    H144480   5.623   2.138   5.844  1.8938 -0.9520  0.5152
 7663TIP3    H244481   5.602   2.278   5.899 -1.3839 -1.0549 -0.2858
 7664TIP3   OH244482   5.962   6.494   1.268 -0.1637  0.0817 -0.7967
 7664TIP3    H144483   5.921   6.551   1.334 -1.5052 -0.3503 -1.2194
 7664TIP3    H244484   5.936   6.406   1.294  1.8510 -0.3901 -0.1852
 7665TIP3   OH244485   4.279   0.399  14.642 -0.2016  0.3079  0.1017
 7665TIP3    H144486   4.214   0.349  14.692 -0.2178  0.2567  0.0303
 7665TIP3    H244487   4.232   0.477  14.613 -0.3472  0.0780 -0.2913
 7666TIP3   OH244488   1.720   5.815   1.633 -0.1437  0.6744  0.1008
 7666TIP3    H144489   1.770   5.830   1.713  0.6871  0.2824 -0.3324
 7666TIP3    H244490   1.634   5.853   1.651  0.5553  2.0842  0.5736
 7667TIP3   OH244491   0.698   4.237  16.356 -0.0807  0.4378 -0.4548
 7667TIP3    H144492   0.609   4.217  16.326 -0.2045 -0.3684  0.3615
 7667TIP3    H244493   0.694   4.219  16.451 -0.2454  4.6459  0.5061
 7668TIP3   OH244494   4.060   6.001  15.730  0.1277  0.4956  0.1374
 7668TIP3    H144495   4.013   6.082  15.707 -0.4740  0.4391  1.1119
 7668TIP3    H244496   4.062   5.952  15.648 -0.3931  1.0658 -0.2363
 7669TIP3   OH244497   5.488   2.505   0.200  0.0074 -0.1700  0.2062
 7669TIP3    H144498   5.495   2.511   0.105  0.1785  2.1644  0.3069
 7669TIP3    H244499   5.575   2.526   0.232 -0.6351  1.7596  0.8722
 7670TIP3   OH244500   4.092   4.750  13.676  0.0690  0.2103  0.3466
 7670TIP3    H144501   4.071   4.837  13.709 -1.2127 -0.7443  2.1754
 7670TIP3    H244502   4.007   4.707  13.664  0.6697 -0.7790 -0.6476
 7671TIP3   OH244503   0.825   3.624   1.316 -0.1370  0.3540  0.3097
 7671TIP3    H144504   0.903   3.631   1.371 -1.2790  1.2136  1.9096
 7671TIP3    H244505   0.776   3.550   1.352  1.3661 -2.3602 -2.7267
 7672TIP3   OH244506   1.476   1.937  14.760 -0.2644 -0.2290  0.3664
 7672TIP3    H144507   1.424   1.967  14.835 -1.3228 -1.2979  0.0952
 7672TIP3    H244508   1.524   1.861  14.794  1.5714  1.0465  0.7583
 7673TIP3   OH244509   3.391   1.758  14.304 -0.5141  0.1470  0.3656
 7673TIP3    H144510   3.303   1.754  14.341 -1.7063 -0.6911 -2.3129
 7673TIP3    H244511   3.431   1.675  14.328 -1.3046 -0.4217 -0.2061
 7674TIP3   OH244512   6.773   4.480   0.261  0.1942  0.2281  0.0915
 7674TIP3    H144513   6.810   4.394   0.279  1.1576  0.8972  1.4361
 7674TIP3    H244514   6.846   4.532   0.228 -0.1605  0.8131  0.2138
 7675TIP3   OH244515   1.419   4.734  14.054  0.4044  0.0420 -0.3530
 7675TIP3    H144516   1.376   4.718  13.970  0.7948  1.4706 -0.8579
 7675TIP3    H244517   1.491   4.672  14.056 -0.3268 -0.8297 -0.5220
 7676TIP3   OH244518   5.644   1.774  12.605  0.3237  0.0167  0.0964
 7676TIP3    H144519   5.579   1.775  12.534  1.7506 -1.2808 -1.3042
 7676TIP3    H244520   5.625   1.853  12.656 -0.5078  1.2308 -1.9648
 7677TIP3   OH244521   5.611   0.985  14.861 -0.3156  0.3489 -0.7111
 7677TIP3    H144522   5.593   1.067  14.907 -0.2562  1.1370 -2.0307
 7677TIP3    H244523   5.594   0.917  14.925  0.6028  1.4201  0.7290
 7678TIP3   OH244524   0.327   2.692  16.543  0.0624 -0.1613 -0.3372
 7678TIP3    H144525   0.325   2.685  16.638 -0.2523  1.2024 -0.2238
 7678TIP3    H244526   0.247   2.739  16.520 -1.1377 -2.5629 -1.5147
 7679TIP3   OH244527   4.767   1.212   3.665  0.1036  0.1921 -0.1391
 7679TIP3    H144528   4.762   1.159   3.745  0.6583 -1.1196 -0.9554
 7679TIP3    H244529   4.776   1.302   3.698 -0.4393 -0.2321  1.2711
 7680TIP3   OH244530   4.955   2.354  16.010  0.1586  0.6274  0.7571
 7680TIP3    H144531   5.023   2.410  16.046 -0.9922  1.0981  2.3171
 7680TIP3    H244532   4.874   2.404  16.020 -0.7116 -0.7471  0.9073
 7681TIP3   OH244533   6.609   3.719   0.858  0.4464 -0.5267  0.2211
 7681TIP3    H144534   6.684   3.662   0.843  0.2637 -0.8083  0.3564
 7681TIP3    H244535   6.550   3.701   0.785  0.7076  0.0319 -0.1357
 7682TIP3   OH244536   0.780   0.268   1.515  0.0802  0.7463  0.4241
 7682TIP3    H144537   0.696   0.311   1.495  0.0362  2.1710  3.2239
 7682TIP3    H244538   0.846   0.324   1.475 -0.2206 -0.2136 -1.5276
 7683TIP3   OH244539   2.211   5.613  10.843 -0.0135 -0.3294 -0.5226
 7683TIP3    H144540   2.198   5.540  10.782 -2.2735  1.3005 -2.1563
 7683TIP3    H244541   2.197   5.691  10.789  1.0430  1.3132  1.4484
 7684TIP3   OH244542   0.226   5.448   1.633  0.2328 -0.3690 -0.3433
 7684TIP3    H144543   0.287   5.497   1.689 -1.1020  1.0034 -0.0003
 7684TIP3    H244544   0.142   5.455   1.679 -0.1789 -2.3916 -0.6853
 7685TIP3   OH244545   6.455   3.339   3.818 -0.2593 -0.4360  0.3351
 7685TIP3    H144546   6.431   3.350   3.910 -0.2419  1.9954  0.1257
 7685TIP3    H244547   6.378   3.300   3.777 -0.5336 -0.8657  1.2387
 7686TIP3   OH244548   6.641   3.277   0.259 -0.0060 -0.0814  0.4082
 7686TIP3    H144549   6.595   3.237   0.333 -0.1040 -2.2967 -0.7696
 7686TIP3    H244550   6.733   3.255   0.274 -0.0433 -0.6611 -0.1630
 7687TIP3   OH244551   4.044   5.541  12.852 -0.2726 -0.3540 -0.1817
 7687TIP3    H144552   4.055   5.633  12.879 -0.3747  0.0029 -1.2904
 7687TIP3    H244553   4.097   5.534  12.773 -0.5365 -1.1748 -0.2915
 7688TIP3   OH244554   3.370   3.635  14.847 -1.2395  0.5946 -0.0387
 7688TIP3    H144555   3.364   3.556  14.793 -0.5125  0.4559  0.0749
 7688TIP3    H244556   3.385   3.705  14.784 -1.6738  0.6118 -0.1230
 7689TIP3   OH244557   0.122   3.521  10.801  0.8980  0.0640 -0.1024
 7689TIP3    H144558   0.043   3.467  10.798  1.0040 -0.0612 -3.0774
 7689TIP3    H244559   0.194   3.460  10.794  1.1373  0.3682 -0.3436
 7690TIP3   OH244560   1.219   0.996   6.379  0.1074  0.6771 -0.2433
 7690TIP3    H144561   1.256   0.908   6.388 -0.5750  0.5019  1.0336
 7690TIP3    H244562   1.260   1.047   6.449 -3.3929 -0.0384  2.6491
 7691TIP3   OH244563   5.681   4.772  16.836  0.1629  0.2981 -0.2417
 7691TIP3    H144564   5.626   4.698  16.809  0.6570 -0.4172  0.6809
 7691TIP3    H244565   5.628   4.849  16.814 -0.0934 -0.2830 -1.8138
 7692TIP3   OH244566   0.357   6.101  11.666 -0.2571 -0.5699  0.4038
 7692TIP3    H144567   0.358   6.013  11.705  1.7544 -0.7707  0.0103
 7692TIP3    H244568   0.406   6.091  11.584 -0.1231  0.9106  0.2876
 7693TIP3   OH244569   4.142   1.954   3.308  0.0950  0.0821  0.4492
 7693TIP3    H144570   4.225   1.907   3.313  0.6468  1.1158  1.9393
 7693TIP3    H244571   4.086   1.900   3.252  1.7384 -0.6780 -0.5158
 7694TIP3   OH244572   5.094   4.667  12.397  0.4966 -0.0361 -0.1721
 7694TIP3    H144573   5.034   4.665  12.472  2.3789  1.6817  1.5244
 7694TIP3    H244574   5.059   4.735  12.340  0.0163 -0.0770  0.0732
 7695TIP3   OH244575   3.964   1.802  12.289 -0.4420 -0.3789 -0.3870
 7695TIP3    H144576   3.877   1.779  12.323 -0.8361 -0.2673 -1.2907
 7695TIP3    H244577   3.989   1.881  12.337  0.1854 -1.6627  1.5336
 7696TIP3   OH244578   1.231   5.082   1.030  0.0835  0.0647  0.3998
 7696TIP3    H144579   1.290   5.008   1.016  0.8706  0.9236 -1.0465
 7696TIP3    H244580   1.288   5.155   1.053 -0.4568  0.7433 -0.3411
 7697TIP3   OH244581   2.995   4.599   6.534  0.1848 -0.0641  0.2111
 7697TIP3    H144582   3.026   4.655   6.605  1.7998  1.5922 -1.6781
 7697TIP3    H244583   2.952   4.659   6.473 -3.0353 -1.7157  0.6343
 7698TIP3   OH244584   6.239   6.723  16.740  0.3416  0.1463 -0.0042
 7698TIP3    H144585   6.325   6.765  16.743 -1.1059  3.3486  0.9720
 7698TIP3    H244586   6.189   6.777  16.679 -1.2142 -1.2257  0.0063
 7699TIP3   OH244587   6.008   1.063   4.554 -0.5093 -0.9357  0.0526
 7699TIP3    H144588   5.982   1.108   4.635 -2.1469 -0.9497 -0.4356
 7699TIP3    H244589   6.075   1.001   4.583  0.9923  0.9530  0.9299
 7700TIP3   OH244590   2.253   0.075   1.594  0.3043  0.4840 -0.6065
 7700TIP3    H144591   2.307   0.040   1.523 -0.6988 -0.0227 -1.1367
 7700TIP3    H244592   2.314   0.088   1.667  0.8813 -1.6699 -0.6286
 7701TIP3   OH244593   3.664   1.573   2.381 -0.0931  0.2444 -0.3578
 7701TIP3    H144594   3.588   1.603   2.431  0.4097  0.6266  0.2026
 7701TIP3    H244595   3.722   1.650   2.378  1.5529 -0.8002  1.7560
 7702TIP3   OH244596   0.721   4.134   0.344 -0.0423  0.4797  0.2883
 7702TIP3    H144597   0.632   4.148   0.378 -0.4085  1.6099 -1.0230
 7702TIP3    H244598   0.777   4.181   0.405 -0.6008  1.6989 -0.0936
 7703TIP3   OH244599   1.267   6.071  10.712  0.0036  0.3408  0.0935
 7703TIP3    H144600   1.354   6.036  10.693  0.8717  2.4190 -0.0653
 7703TIP3    H244601   1.209   6.025  10.652  1.1697 -0.2808 -0.5996
 7704TIP3   OH244602   0.261   2.111   4.427 -0.3588  0.4533 -0.6669
 7704TIP3    H144603   0.284   2.186   4.371  0.0123  0.1119 -0.9767
 7704TIP3    H244604   0.303   2.129   4.511 -0.4836  0.7173 -0.6605
 7705TIP3   OH244605   2.660   4.721  13.220 -0.1693 -0.3374 -0.1307
 7705TIP3    H144606   2.620   4.670  13.291 -0.0634  0.1969  0.3149
 7705TIP3    H244607   2.587   4.771  13.183 -0.1621 -0.3700 -0.1883
 7706TIP3   OH244608   3.495   1.216   4.224 -0.2778 -0.2148 -0.3386
 7706TIP3    H144609   3.546   1.285   4.181 -0.6862 -1.3778 -2.8820
 7706TIP3    H244610   3.459   1.258   4.302  1.6209  1.6641 -0.3908
 7707TIP3   OH244611   3.852   2.667  12.093 -0.3229  0.2939 -0.4391
 7707TIP3    H144612   3.865   2.588  12.040  1.1810  0.0405  0.2640
 7707TIP3    H244613   3.779   2.712  12.051 -1.0045 -1.3026 -1.0561
 7708TIP3   OH244614   2.647   5.137  14.125 -0.4402  0.1062  0.1123
 7708TIP3    H144615   2.590   5.188  14.067  0.1579  0.9424  0.2327
 7708TIP3    H244616   2.588   5.089  14.182 -1.0554 -0.9244 -1.3415
 7709TIP3   OH244617   2.269   2.684   0.554 -0.1800 -0.0541 -0.1559
 7709TIP3    H144618   2.255   2.692   0.459  0.4803 -0.9252 -0.3415
 7709TIP3    H244619   2.364   2.687   0.565 -0.2906  1.9226  0.6953
 7710TIP3   OH244620   4.582   5.633  12.937 -0.3473 -0.1455  0.0599
 7710TIP3    H144621   4.573   5.551  12.987 -1.4174 -0.1753 -0.1577
 7710TIP3    H244622   4.511   5.688  12.969 -0.1921  0.3564 -0.4555
 7711TIP3   OH244623   3.031   2.009   2.840  0.0310  0.3399  0.3641
 7711TIP3    H144624   2.976   2.031   2.915  0.9172  0.8082  0.8970
 7711TIP3    H244625   3.076   1.928   2.866 -0.1198  0.1634  0.0855
 7712TIP3   OH244626   6.494   0.278   4.800 -0.1740 -0.6192  0.1431
 7712TIP3    H144627   6.533   0.361   4.773  0.1678 -0.9517 -0.3859
 7712TIP3    H244628   6.560   0.237   4.856 -0.9961  0.2081  1.8007
 7713TIP3   OH244629   1.173   3.691  15.963 -0.3535  0.1403 -0.1371
 7713TIP3    H144630   1.104   3.628  15.986 -0.7813  0.8624  0.6236
 7713TIP3    H244631   1.215   3.712  16.047 -0.4883  1.1693 -0.3199
 7714TIP3   OH244632   1.520   0.046  16.411  0.5866 -0.8536 -0.0056
 7714TIP3    H144633   1.576  -0.020  16.370  2.1737  0.0135  0.7086
 7714TIP3    H244634   1.501   0.012  16.498 -0.5964 -1.4597 -0.4781
 7715TIP3   OH244635   2.843   4.920   5.750 -0.3414  0.2912 -0.0876
 7715TIP3    H144636   2.861   4.885   5.663 -0.3828  0.5781 -0.2128
 7715TIP3    H244637   2.919   4.894   5.802 -0.2256  0.2848 -0.2588
 7716TIP3   OH244638   1.374   6.208  10.950 -0.3798 -0.3984  0.1565
 7716TIP3    H144639   1.326   6.176  10.873 -2.6642  0.7644  0.9870
 7716TIP3    H244640   1.361   6.142  11.017 -0.8025 -0.1021  0.3707
 7717TIP3   OH244641   0.968   3.648  12.363  0.4477  0.1336  0.2921
 7717TIP3    H144642   0.884   3.666  12.405  1.5132  0.2903  2.4823
 7717TIP3    H244643   0.945   3.594  12.287 -1.7111  1.1149  0.1695
 7718TIP3   OH244644   1.180   3.245  12.878 -0.5676  0.1786  0.1813
 7718TIP3    H144645   1.203   3.226  12.968 -0.5836 -0.2985  0.0848
 7718TIP3    H244646   1.264   3.247  12.831 -0.6560 -0.8643 -0.0365
 7719TIP3   OH244647   4.782   0.074  15.459  0.3963 -0.0885  0.1015
 7719TIP3    H144648   4.702   0.122  15.481  0.7077  0.8310 -0.7003
 7719TIP3    H244649   4.848   0.142  15.447  1.3871 -0.8446  1.0521
 7720TIP3   OH244650   4.804   5.250   1.766 -0.0216  0.3361  0.0793
 7720TIP3    H144651   4.781   5.222   1.854 -1.1257  1.0387  0.0353
 7720TIP3    H244652   4.897   5.272   1.771 -0.8416  4.3775  2.2223
 7721TIP3   OH244653   2.450   0.345  12.423 -0.0828 -1.2980 -0.1075
 7721TIP3    H144654   2.492   0.381  12.345 -1.4165 -1.5632 -0.9860
 7721TIP3    H244655   2.362   0.383  12.422  0.3416 -0.0573  2.1560
 7722TIP3   OH244656   1.570   6.491  15.098 -0.1003 -0.0787 -0.0655
 7722TIP3    H144657   1.583   6.407  15.142  0.0408  0.0301  0.1016
 7722TIP3    H244658   1.477   6.490  15.072  0.0687 -0.5799 -0.6889
 7723TIP3   OH244659   6.023   5.777  14.781 -0.3111  0.6009  0.2740
 7723TIP3    H144660   5.978   5.721  14.844 -0.5711  0.5672  0.0620
 7723TIP3    H244661   6.114   5.748  14.784 -0.1925  1.0432  1.1094
 7724TIP3   OH244662   6.332   3.165  14.271  0.5118 -0.7075 -1.0037
 7724TIP3    H144663   6.351   3.154  14.364  0.7794  0.8520 -0.8401
 7724TIP3    H244664   6.298   3.254  14.264 -1.5616 -1.5286 -2.1176
 7725TIP3   OH244665   5.221   6.815   5.668  0.0518  0.0683 -0.2466
 7725TIP3    H144666   5.186   6.738   5.623 -0.8322  0.7695 -0.7975
 7725TIP3    H244667   5.313   6.793   5.685 -0.2504 -1.2152 -0.1291
 7726TIP3   OH244668   5.383   6.018   3.215 -0.3616  0.1911  0.3357
 7726TIP3    H144669   5.346   6.075   3.282 -0.9918  0.1789  0.0091
 7726TIP3    H244670   5.441   5.959   3.263 -0.2963  0.6059  0.7777
 7727TIP3   OH244671   4.714   3.312   3.219  0.3684  0.2014  0.5971
 7727TIP3    H144672   4.665   3.297   3.138 -0.9499  1.0585  1.2058
 7727TIP3    H244673   4.654   3.285   3.288  0.0484  2.8579  1.4530
 7728TIP3   OH244674   5.272   5.964  13.915 -0.3447 -0.5474 -0.1762
 7728TIP3    H144675   5.235   5.963  13.827 -1.2198  2.0112  0.0740
 7728TIP3    H244676   5.344   6.027  13.910  0.3800 -1.2777  0.6756
 7729TIP3   OH244677   2.884   1.697   0.826 -0.0233 -0.1690  0.6213
 7729TIP3    H144678   2.881   1.781   0.781  1.9243 -0.3296  0.1303
 7729TIP3    H244679   2.917   1.635   0.761 -0.0133 -1.0117  1.4029
 7730TIP3   OH244680   2.516   1.037  12.381 -0.1588  0.5200  0.0531
 7730TIP3    H144681   2.566   1.093  12.322 -0.3491 -0.3209 -0.9456
 7730TIP3    H244682   2.580   1.004  12.444  0.0357  1.4786  0.3705
 7731TIP3   OH244683   4.550   2.337  17.008  0.2179 -0.6442  0.0112
 7731TIP3    H144684   4.527   2.363  16.918  2.0133 -2.9046 -1.1897
 7731TIP3    H244685   4.645   2.347  17.012  0.3857 -2.3057  1.0412
 7732TIP3   OH244686   6.710   5.553  11.511 -0.8379 -0.0085 -0.3769
 7732TIP3    H144687   6.704   5.648  11.524  0.6606  0.2895 -1.5548
 7732TIP3    H244688   6.622   5.521  11.526 -1.2547  1.4903  0.6399
 7733TIP3   OH244689   3.823   2.259   4.787  0.0043  0.3451 -1.1751
 7733TIP3    H144690   3.899   2.205   4.807  2.2896  3.1486 -1.6679
 7733TIP3    H244691   3.801   2.239   4.697  0.4535 -0.1611 -1.1725
 7734TIP3   OH244692   2.971   3.782   3.797 -0.2838  0.0427 -0.0714
 7734TIP3    H144693   3.056   3.822   3.778  0.2538 -1.5850 -1.4139
 7734TIP3    H244694   2.972   3.765   3.891  1.1071 -0.4043 -0.1474
 7735TIP3   OH244695   4.305   5.226  10.564 -0.3460  0.0039  0.4181
 7735TIP3    H144696   4.333   5.137  10.584  1.7077  0.8101  1.3978
 7735TIP3    H244697   4.374   5.282  10.599 -1.7989  2.0263  0.2666
 7736TIP3   OH244698   1.824   6.400  15.646  0.1642 -0.1549  0.0037
 7736TIP3    H144699   1.782   6.380  15.562 -0.6657 -1.7063  0.7535
 7736TIP3    H244700   1.867   6.484  15.631 -0.8631  0.1292 -1.6468
 7737TIP3   OH244701   1.336   4.278  16.991  0.0962  0.4577  0.4168
 7737TIP3    H144702   1.259   4.320  16.952  1.1229  0.8857 -1.2260
 7737TIP3    H244703   1.300   4.225  17.062 -1.7355  0.5970 -0.3417
 7738TIP3   OH244704   6.229   4.732  14.164  0.1547 -0.1846 -0.3385
 7738TIP3    H144705   6.140   4.764  14.173 -0.0863 -0.9627  0.0881
 7738TIP3    H244706   6.266   4.737  14.252  0.3312 -0.4421 -0.3956
 7739TIP3   OH244707   5.774   1.778   0.691 -0.1675  0.1786 -0.0356
 7739TIP3    H144708   5.732   1.739   0.768 -0.3804 -0.2999 -0.3843
 7739TIP3    H244709   5.868   1.766   0.706 -0.0839  1.8654  1.0726
 7740TIP3   OH244710   3.948   3.220   0.144  0.1695  0.2239 -0.0020
 7740TIP3    H144711   3.949   3.269   0.062  1.5458 -0.8306 -0.6535
 7740TIP3    H244712   4.037   3.187   0.154 -0.1396 -0.2233  1.5944
 7741TIP3   OH244713   2.473   2.511  12.523  1.0191  0.0350 -0.5364
 7741TIP3    H144714   2.518   2.484  12.603 -1.5303  1.1726  1.4447
 7741TIP3    H244715   2.442   2.430  12.484  1.1998 -0.4814  0.3737
 7742TIP3   OH244716   0.272   1.590  15.245  0.3015 -0.6896  0.4953
 7742TIP3    H144717   0.220   1.628  15.174  0.0536 -0.6512  0.6967
 7742TIP3    H244718   0.241   1.500  15.252  0.8261 -0.9020  0.0788
 7743TIP3   OH244719   2.956   1.137  12.475  0.3774  0.4345 -0.2096
 7743TIP3    H144720   2.886   1.202  12.483  1.4727  1.7150 -0.5670
 7743TIP3    H244721   3.028   1.185  12.433  1.5494 -0.7625  0.3606
 7744TIP3   OH244722   2.301   4.367  12.335 -0.0214 -0.1930  0.1177
 7744TIP3    H144723   2.263   4.297  12.282  1.2282 -2.0034  1.4965
 7744TIP3    H244724   2.261   4.356  12.422 -0.1933  1.1577  0.2361
 7745TIP3   OH244725   0.023   1.645   0.185  0.1628  0.0599  0.3114
 7745TIP3    H144726  -0.060   1.638   0.232 -1.1581 -1.6432 -2.0773
 7745TIP3    H244727   0.052   1.555   0.173  1.0568  0.5013 -1.0414
 7746TIP3   OH244728   5.453   4.696   2.802  0.5202  0.1978  0.7021
 7746TIP3    H144729   5.448   4.602   2.820 -0.8478  0.1949  0.4140
 7746TIP3    H244730   5.452   4.736   2.889 -0.2698 -0.0241  0.8099
 7747TIP3   OH244731   6.317   2.720   5.173 -0.5602  0.0731 -0.0495
 7747TIP3    H144732   6.404   2.689   5.149  0.2627  1.8541  0.4322
 7747TIP3    H244733   6.310   2.702   5.267 -0.5835  0.2131 -0.0241
 7748TIP3   OH244734   5.209   6.508  12.031 -0.1248 -0.0271  0.1271
 7748TIP3    H144735   5.153   6.447  12.080  1.6693  0.1374  2.5647
 7748TIP3    H244736   5.255   6.453  11.967 -1.0959 -0.5983 -0.0886
 7749TIP3   OH244737   5.196   2.492   4.015 -1.3576  0.2458  0.0876
 7749TIP3    H144738   5.245   2.513   3.935 -1.3454 -2.1115 -0.6124
 7749TIP3    H244739   5.258   2.509   4.086 -0.0057 -1.1706 -0.6891
 7750TIP3   OH244740   3.478   2.672  12.689 -0.0207  0.2159 -0.4147
 7750TIP3    H144741   3.430   2.617  12.750 -0.5537  0.6174 -0.4678
 7750TIP3    H244742   3.410   2.715  12.636  0.2788  2.2651  0.7643
 7751TIP3   OH244743   5.649   5.581   5.370 -0.0827 -0.5052 -0.3229
 7751TIP3    H144744   5.608   5.667   5.365  1.6161  0.2811 -3.4326
 7751TIP3    H244745   5.675   5.571   5.461 -2.8148  0.9648  0.7346
 7752TIP3   OH244746   1.386   3.886   0.402  0.5158 -0.2397  0.0659
 7752TIP3    H144747   1.380   3.975   0.436 -0.8427 -0.6563  1.0247
 7752TIP3    H244748   1.417   3.896   0.312  0.8371  1.1589  0.3172
 7753TIP3   OH244749   4.325   0.731   4.103  0.3631 -0.4924  0.1391
 7753TIP3    H144750   4.305   0.686   4.185 -1.0269  0.6275  0.4535
 7753TIP3    H244751   4.380   0.670   4.055  0.0142 -1.7645  1.3031
 7754TIP3   OH244752   6.185   4.478  11.760 -0.4769  0.3129  0.1360
 7754TIP3    H144753   6.142   4.393  11.766 -2.4485  0.8940 -3.1127
 7754TIP3    H244754   6.221   4.493  11.848 -0.7801 -3.4088  1.0672
 7755TIP3   OH244755   3.682   3.803  15.054 -0.6769 -0.2131 -0.4895
 7755TIP3    H144756   3.730   3.876  15.016 -1.6806 -0.0447 -1.4641
 7755TIP3    H244757   3.625   3.772  14.984 -0.9511 -1.3350  0.1995
 7756TIP3   OH244758   1.419   3.827  15.510  0.5267  0.1815 -0.3224
 7756TIP3    H144759   1.350   3.868  15.458  0.2761  0.6963  0.3840
 7756TIP3    H244760   1.374   3.795  15.588  1.0171  0.1768 -0.0345
 7757TIP3   OH244761   6.113   5.535  13.445  0.3981 -0.4381 -0.2439
 7757TIP3    H144762   6.104   5.621  13.486 -0.4439 -0.2047 -0.8815
 7757TIP3    H244763   6.188   5.544  13.386  0.5999 -0.2882  0.0336
 7758TIP3   OH244764   2.109   0.867   2.697 -0.5847  0.2255  0.2566
 7758TIP3    H144765   2.044   0.798   2.701 -0.2945 -0.0123  0.9650
 7758TIP3    H244766   2.109   0.906   2.784  1.6831 -1.1368  0.9380
 7759TIP3   OH244767   3.789   1.579  16.258 -0.3112 -0.4951 -0.3962
 7759TIP3    H144768   3.761   1.533  16.179 -0.3738 -0.3575 -0.4546
 7759TIP3    H244769   3.708   1.613  16.296 -0.3791 -1.2508  0.1600
 7760TIP3   OH244770   5.373   2.109   3.048  0.3640  0.3645  0.1251
 7760TIP3    H144771   5.459   2.148   3.032  0.5407  0.6062  1.5720
 7760TIP3    H244772   5.391   2.017   3.065  0.2532  0.2626 -0.2937
 7761TIP3   OH244773   4.633   1.726   5.606  0.2337  0.4038  0.2749
 7761TIP3    H144774   4.614   1.809   5.649  1.3461  0.5104  0.5854
 7761TIP3    H244775   4.660   1.667   5.677 -0.4123 -0.1914  0.0400
 7762TIP3   OH244776   5.835   3.930  10.771 -0.1755  0.3640 -0.1292
 7762TIP3    H144777   5.784   3.940  10.690 -0.9019 -1.7307  0.0076
 7762TIP3    H244778   5.769   3.914  10.838  0.5599 -1.1579  0.2744
 7763TIP3   OH244779   1.586   0.066   0.667 -0.3776 -0.0333 -0.5741
 7763TIP3    H144780   1.635   0.130   0.615 -0.1334  0.1263 -0.1441
 7763TIP3    H244781   1.646   0.039   0.736 -1.5174  1.6550  1.1811
 7764TIP3   OH244782   3.793   3.597  14.436  0.1657  0.1049 -0.1950
 7764TIP3    H144783   3.826   3.560  14.354 -0.9034 -0.5841 -0.3461
 7764TIP3    H244784   3.844   3.555  14.504  0.2454 -0.2388 -0.4621
 7765TIP3   OH244785   0.981   3.420  12.975 -0.1624 -0.3662 -0.3819
 7765TIP3    H144786   1.015   3.331  12.972  0.1158 -0.4137  2.2623
 7765TIP3    H244787   1.028   3.466  12.905  1.2499 -1.7652 -0.4037
 7766TIP3   OH244788   6.124   2.096  12.978 -0.2169 -0.0136 -0.1564
 7766TIP3    H144789   6.168   2.046  13.047 -1.6313 -0.2696  0.5931
 7766TIP3    H244790   6.069   2.032  12.933  1.0429  0.0540 -1.8662
 7767TIP3   OH244791   1.929   3.847   1.837  0.4312  0.2478 -0.1335
 7767TIP3    H144792   1.870   3.810   1.771 -1.1328 -1.9760  2.3268
 7767TIP3    H244793   2.017   3.836   1.799 -0.4622  0.0402 -2.2696
 7768TIP3   OH244794   3.971   5.613   0.387  0.1324  0.3889 -0.3388
 7768TIP3    H144795   3.948   5.521   0.373  2.1733 -0.5003  1.6119
 7768TIP3    H244796   3.891   5.652   0.423  0.1190 -1.4845  1.9451
 7769TIP3   OH244797   5.662   4.736  11.713 -0.2503 -0.1378  0.2670
 7769TIP3    H144798   5.604   4.703  11.782 -1.3587  1.2003  0.0456
 7769TIP3    H244799   5.629   4.824  11.696  0.4030 -0.2118 -1.5321
 7770TIP3   OH244800   4.786   3.185  16.198 -0.4506  0.6608  0.1583
 7770TIP3    H144801   4.878   3.213  16.194 -0.0748 -0.5726 -0.3067
 7770TIP3    H244802   4.776   3.125  16.124 -0.8261 -1.4771  1.8238
 7771TIP3   OH244803   3.120   5.753  15.239 -0.0720  0.4810 -0.0097
 7771TIP3    H144804   3.113   5.681  15.177  0.8022 -0.7503  1.2547
 7771TIP3    H244805   3.213   5.755  15.264 -0.0138  2.2714 -0.2605
 7772TIP3   OH244806   3.908   2.750  16.868  0.2163 -0.1616  0.1919
 7772TIP3    H144807   3.963   2.786  16.937 -1.5091  1.6714  0.7172
 7772TIP3    H244808   3.946   2.784  16.787 -0.1222  1.1405  0.5490
 7773TIP3   OH244809   1.939   6.257   1.131  0.1533 -0.1785 -0.2569
 7773TIP3    H144810   1.926   6.351   1.140 -0.7689 -0.2803 -0.4133
 7773TIP3    H244811   1.850   6.221   1.125  0.3803 -1.3005  2.1786
 7774TIP3   OH244812   2.355   4.769  12.525  0.5756  0.4348  0.5065
 7774TIP3    H144813   2.432   4.825  12.532  1.8117 -1.2836  1.2292
 7774TIP3    H244814   2.351   4.722  12.609  1.3221 -2.6448 -1.0158
 7775TIP3   OH244815   6.649   3.843  12.883 -0.0528 -0.1233 -0.1429
 7775TIP3    H144816   6.645   3.747  12.884 -0.1803 -0.1550 -1.6983
 7775TIP3    H244817   6.578   3.869  12.825  0.5133  0.8771 -0.4081
 7776TIP3   OH244818   2.784   4.506  10.928 -0.8450  0.5598  0.0320
 7776TIP3    H144819   2.818   4.576  10.872 -1.2547  1.9330  1.4256
 7776TIP3    H244820   2.704   4.542  10.965 -2.2973 -1.5200 -0.9138
 7777TIP3   OH244821   6.607   5.096  16.690  0.1064 -0.2901 -0.1912
 7777TIP3    H144822   6.511   5.099  16.693  0.0197 -0.8516 -1.7495
 7777TIP3    H244823   6.627   5.006  16.666  0.9881  0.0645 -0.8265
 7778TIP3   OH244824   0.713   3.760  13.485  0.2241  0.0024  0.2105
 7778TIP3    H144825   0.808   3.760  13.472  0.2004 -2.1464 -0.3381
 7778TIP3    H244826   0.698   3.689  13.547 -0.8978  1.5942  1.8642
 7779TIP3   OH244827   2.271   6.225  11.183  0.0032 -0.1072  0.1949
 7779TIP3    H144828   2.273   6.238  11.089 -0.9538  2.1229  0.4134
 7779TIP3    H244829   2.224   6.302  11.217 -0.6574 -1.3835  2.3895
 7780TIP3   OH244830   6.734   1.878  13.732 -0.3488  0.6607  0.0763
 7780TIP3    H144831   6.643   1.905  13.741 -0.4181  1.6721 -2.5277
 7780TIP3    H244832   6.773   1.896  13.817 -3.1022 -2.5292  2.2764
 7781TIP3   OH244833   3.167   6.719  11.381  0.4683 -0.3906 -0.3153
 7781TIP3    H144834   3.108   6.795  11.380  1.5820  0.4971 -1.1863
 7781TIP3    H244835   3.249   6.752  11.417  1.0631 -1.1075 -0.9686
 7782TIP3   OH244836   0.661   3.519  17.036  0.1345 -0.7549 -0.5169
 7782TIP3    H144837   0.677   3.457  17.107  1.6120  0.4836  0.2768
 7782TIP3    H244838   0.747   3.534  16.997  0.0589  1.7405  0.1454
 7783TIP3   OH244839   5.355   5.919   1.036  0.5421  0.0222 -0.2197
 7783TIP3    H144840   5.317   5.832   1.020  0.5928  0.0616 -0.5435
 7783TIP3    H244841   5.426   5.926   0.973  1.3330 -0.2020  0.6273
 7784TIP3   OH244842   0.494   1.907   0.614 -0.0844 -0.4310  0.0800
 7784TIP3    H144843   0.469   1.948   0.532  0.4461  0.6218  0.4310
 7784TIP3    H244844   0.579   1.945   0.636  1.1749 -2.7733 -0.3050
 7785TIP3   OH244845   1.187   2.695   3.680  0.1543  0.1702  0.0582
 7785TIP3    H144846   1.146   2.733   3.758  0.5699 -1.1444  0.9735
 7785TIP3    H244847   1.221   2.611   3.711  1.2232  0.0695 -1.3153
 7786TIP3   OH244848   2.232   2.057   5.063 -0.1170  0.3872  0.1465
 7786TIP3    H144849   2.180   2.094   5.135  0.1130 -0.9045  1.0182
 7786TIP3    H244850   2.319   2.044   5.101  0.4661  1.1795 -0.8698
 7787TIP3   OH244851   3.594   1.583  17.153 -0.1230  0.3741 -0.1368
 7787TIP3    H144852   3.584   1.507  17.209 -0.8552 -0.0939 -0.8789
 7787TIP3    H244853   3.655   1.554  17.085  1.3538  1.1714  0.7910
 7788TIP3   OH244854   1.466   5.242   6.270  0.3103  0.3155 -0.3779
 7788TIP3    H144855   1.464   5.336   6.253  0.7595  0.3151 -0.4557
 7788TIP3    H244856   1.387   5.225   6.320 -0.0199  0.6549 -0.7753
 7789TIP3   OH244857   4.353   0.865  13.246  0.3175 -0.0767 -0.2334
 7789TIP3    H144858   4.394   0.905  13.323 -1.3868  0.9742  0.1858
 7789TIP3    H244859   4.331   0.776  13.274  1.2132 -0.2481 -0.0658
 7790TIP3   OH244860   3.631   4.963   0.033  0.0309 -0.0563 -0.1423
 7790TIP3    H144861   3.555   5.006  -0.008  0.1166  0.3679  0.1330
 7790TIP3    H244862   3.705   5.018   0.009 -0.1074  1.0634  1.7892
 7791TIP3   OH244863   2.473   5.567  15.827  0.3214  0.2780 -0.4248
 7791TIP3    H144864   2.408   5.600  15.764  0.0788  1.0708  0.2222
 7791TIP3    H244865   2.473   5.632  15.897  1.4317  0.0063 -0.1581
 7792TIP3   OH244866   0.340   4.487   0.299 -0.6265 -0.2835 -0.4922
 7792TIP3    H144867   0.321   4.513   0.209 -1.0664  0.3865 -0.2169
 7792TIP3    H244868   0.302   4.557   0.353 -1.6024 -1.3643  0.2689
 7793TIP3   OH244869   6.314   0.615  15.460  0.5858  0.7249 -0.0787
 7793TIP3    H144870   6.325   0.681  15.391  0.4594 -0.2869 -1.1029
 7793TIP3    H244871   6.230   0.574  15.441  0.5894  0.3688  0.6355
 7794TIP3   OH244872   5.674   3.802   4.924  0.0457  0.1708  0.0995
 7794TIP3    H144873   5.710   3.880   4.881 -0.1861 -0.3121 -1.0247
 7794TIP3    H244874   5.691   3.815   5.017  1.2283  0.9356 -0.1995
 7795TIP3   OH244875   4.346   5.737   0.094  0.8171  0.1249  0.1831
 7795TIP3    H144876   4.284   5.803   0.124  1.2528  1.2420 -1.2941
 7795TIP3    H244877   4.430   5.764   0.132  0.4516 -1.5763  2.4744
 7796TIP3   OH244878   4.451   2.906  14.456  0.2373 -0.0046 -0.1159
 7796TIP3    H144879   4.545   2.917  14.474  0.1219  2.9537 -0.8664
 7796TIP3    H244880   4.444   2.915  14.361 -0.7272 -1.3260 -0.1985
 7797TIP3   OH244881   6.166   6.334   2.193 -0.0463 -0.4087 -0.2353
 7797TIP3    H144882   6.176   6.429   2.202  1.4996 -0.7043  1.9704
 7797TIP3    H244883   6.086   6.313   2.241 -1.4242 -0.1172 -2.2328
 7798TIP3   OH244884   6.273   5.478   4.658  0.0842 -0.4662 -0.9332
 7798TIP3    H144885   6.290   5.453   4.567 -1.3742 -0.8602 -1.1257
 7798TIP3    H244886   6.180   5.458   4.671 -0.2956  1.6092 -0.0157
 7799TIP3   OH244887   3.707   1.430   4.114 -0.2100 -0.1566 -0.1964
 7799TIP3    H144888   3.783   1.379   4.083 -0.8451 -1.4762  0.3578
 7799TIP3    H244889   3.676   1.475   4.036  0.7414 -0.1228 -0.5765
 7800TIP3   OH244890   5.278   0.330   5.210  0.7187  0.0815  0.1708
 7800TIP3    H144891   5.256   0.307   5.120 -1.1058  1.2250  0.2802
 7800TIP3    H244892   5.214   0.281   5.263 -1.0215  2.5964  0.5690
 7801TIP3   OH244893   4.894   1.930   4.441  0.2622 -0.5851 -0.2711
 7801TIP3    H144894   4.951   1.932   4.365 -1.4893  0.1412 -1.6302
 7801TIP3    H244895   4.936   1.869   4.501  1.4139 -1.5921 -2.0227
 7802TIP3   OH244896   4.283   4.495   2.188 -0.2313 -1.1038  0.1813
 7802TIP3    H144897   4.215   4.428   2.185  0.9595 -2.3309 -1.0344
 7802TIP3    H244898   4.251   4.565   2.131 -1.3100 -0.7744  1.1489
 7803TIP3   OH244899   2.646   5.211   3.400  0.3137 -0.0379  0.9446
 7803TIP3    H144900   2.731   5.207   3.358 -0.3980  1.1506 -0.7211
 7803TIP3    H244901   2.622   5.119   3.415  1.5147 -0.3982  0.7099
 7804TIP3   OH244902   1.749   0.684   6.296  0.5311  0.0195  0.3664
 7804TIP3    H144903   1.713   0.744   6.361 -1.2171  0.0277 -0.5403
 7804TIP3    H244904   1.783   0.610   6.346  1.2301  1.0073  1.3887
 7805TIP3   OH244905   4.539   5.691   5.489  0.6308 -0.8931  0.8292
 7805TIP3    H144906   4.545   5.598   5.468  1.3533 -0.7418  0.3339
 7805TIP3    H244907   4.630   5.718   5.506  0.5755 -0.0277 -0.1628
 7806TIP3   OH244908   0.767   5.742  13.910 -0.5776  0.1891  0.5219
 7806TIP3    H144909   0.774   5.834  13.883  0.3531  0.6143  2.1209
 7806TIP3    H244910   0.843   5.727  13.966  0.0593 -1.9827 -0.7971
 7807TIP3   OH244911   1.115   5.519   0.834  0.2672  0.1696 -0.2651
 7807TIP3    H144912   1.085   5.431   0.810  1.5426 -0.7719  1.3676
 7807TIP3    H244913   1.208   5.520   0.811  0.3043  1.0265 -0.1017
 7808TIP3   OH244914   6.471   5.161  15.216  0.2212  0.1285 -0.7139
 7808TIP3    H144915   6.419   5.123  15.286  2.2541 -0.1872  0.7183
 7808TIP3    H244916   6.444   5.114  15.137 -0.2265 -1.4384  0.3299
 7809TIP3   OH244917   6.377   6.619   0.094  0.1365 -0.1291  0.0638
 7809TIP3    H144918   6.464   6.584   0.073 -0.2105 -0.6743 -0.5206
 7809TIP3    H244919   6.393   6.709   0.122  0.9717 -0.4897  0.7710
 7810TIP3   OH244920   4.606   4.447  10.783 -0.2137 -0.1155  0.3876
 7810TIP3    H144921   4.684   4.444  10.728  0.2461 -1.0389  1.0505
 7810TIP3    H244922   4.549   4.513  10.743  0.9541  0.6492 -0.0424
 7811TIP3   OH244923   6.098   3.473   1.077 -0.0511  0.0135  0.1964
 7811TIP3    H144924   6.021   3.419   1.058 -1.4053  1.8946  0.0110
 7811TIP3    H244925   6.071   3.561   1.052  2.0186  0.8109  0.6217
 7812TIP3   OH244926   3.862   3.310   2.466 -0.1626 -0.1192 -0.2853
 7812TIP3    H144927   3.923   3.344   2.531  0.4720  0.5280 -1.1790
 7812TIP3    H244928   3.832   3.227   2.501  1.0839 -0.3493  0.2797
 7813TIP3   OH244929   0.613   4.031  15.611 -0.9711  0.3189  0.0257
 7813TIP3    H144930   0.566   4.113  15.630 -0.4973  0.8017 -0.8371
 7813TIP3    H244931   0.558   3.987  15.546 -1.8779 -0.6773  1.3953
 7814TIP3   OH244932   0.744   5.813  12.229  0.1603 -0.7335  0.2130
 7814TIP3    H144933   0.719   5.812  12.322 -1.3612  2.3594 -0.0298
 7814TIP3    H244934   0.836   5.841  12.229 -0.5134  1.6924  0.8062
 7815TIP3   OH244935   1.193   6.477   2.696  0.2568  0.2783  0.2750
 7815TIP3    H144936   1.238   6.394   2.683  0.2138  0.4025 -0.8426
 7815TIP3    H244937   1.114   6.455   2.745  1.3322  0.0112  1.9648
 7816TIP3   OH244938   0.048   1.594   3.991  0.1341  0.0679 -0.7064
 7816TIP3    H144939   0.065   1.688   3.992  0.6733  0.0312  2.0683
 7816TIP3    H244940  -0.021   1.581   4.056  0.2251 -1.4949 -0.8798
 7817TIP3   OH244941   3.451   2.395  16.051  0.3437  0.2394 -0.1043
 7817TIP3    H144942   3.515   2.327  16.030  0.0331 -0.0071 -0.2427
 7817TIP3    H244943   3.435   2.384  16.145 -1.5720 -1.4846 -0.5844
 7818TIP3   OH244944   5.993   1.132  13.831 -1.0105  0.3753 -0.5962
 7818TIP3    H144945   6.047   1.087  13.766 -0.7679  0.3956 -0.4050
 7818TIP3    H244946   5.977   1.218  13.792  0.3808  0.9363  0.0341
 7819TIP3   OH244947   4.363   3.843   4.153  0.5487  0.0307 -0.1222
 7819TIP3    H144948   4.452   3.878   4.157  1.3885 -2.0191  0.7278
 7819TIP3    H244949   4.366   3.779   4.082 -0.8951  1.4542 -1.5545
 7820TIP3   OH244950   0.980   0.635   2.652 -0.5808  0.7544  0.4297
 7820TIP3    H144951   0.964   0.542   2.633 -0.0605  0.8018 -0.2894
 7820TIP3    H244952   1.037   0.634   2.729  0.9535  0.3966 -0.6586
 7821TIP3   OH244953   6.453   6.707   4.773 -0.9368  0.2459  0.0923
 7821TIP3    H144954   6.424   6.797   4.757 -1.6038  0.4133  2.0484
 7821TIP3    H244955   6.400   6.654   4.713 -1.0572  1.0771 -0.5602
 7822TIP3   OH244956   1.133   0.501   4.583 -0.0348 -0.0244 -0.0095
 7822TIP3    H144957   1.096   0.519   4.669 -0.5563 -0.0706 -0.2221
 7822TIP3    H244958   1.066   0.529   4.521 -0.5278 -1.8673 -0.3736
 7823TIP3   OH244959   0.457   0.200   3.364 -0.4864  0.8865  0.9586
 7823TIP3    H144960   0.380   0.201   3.307 -0.3652  0.2197  0.7748
 7823TIP3    H244961   0.493   0.288   3.356 -0.1318  0.6401 -0.4830
 7824TIP3   OH244962   4.540   0.705  12.141 -0.3386 -0.3410  0.5692
 7824TIP3    H144963   4.625   0.680  12.106 -0.4117 -1.3333  1.0659
 7824TIP3    H244964   4.549   0.798  12.162  1.1454 -0.7718  2.0530
 7825TIP3   OH244965   1.075   2.631   0.953  0.7893 -0.3252 -0.3590
 7825TIP3    H144966   1.109   2.678   0.876 -1.0495 -1.2239 -1.7964
 7825TIP3    H244967   1.084   2.539   0.930 -0.9626 -0.5955 -0.0533
 7826TIP3   OH244968   3.017   1.266  14.695  0.2817 -0.1953 -0.1771
 7826TIP3    H144969   3.108   1.258  14.722  0.2694 -3.1492 -0.6762
 7826TIP3    H244970   2.967   1.224  14.764 -0.5496 -0.1030 -0.7028
 7827TIP3   OH244971   2.406   1.236  11.204 -0.2293  0.9463 -0.2727
 7827TIP3    H144972   2.456   1.227  11.285 -0.2350  1.9872 -0.1295
 7827TIP3    H244973   2.470   1.222  11.135 -0.2168  0.0810 -0.0927
 7828TIP3   OH244974   3.887   2.265   2.579  0.6662  0.2626 -0.2752
 7828TIP3    H144975   3.792   2.272   2.572  0.6268 -0.3880 -0.5145
 7828TIP3    H244976   3.916   2.350   2.612  0.2375  1.4255 -2.6754
 7829TIP3   OH244977   3.336   3.613  16.119  0.7218  0.0229  0.2807
 7829TIP3    H144978   3.428   3.602  16.143  1.0157  0.3235 -0.6823
 7829TIP3    H244979   3.287   3.576  16.193  1.6043  0.2670  0.9995
 7830TIP3   OH244980   5.614   3.052  16.372  0.2075 -0.5809 -0.6696
 7830TIP3    H144981   5.573   3.139  16.364 -0.9550 -1.0758 -0.2609
 7830TIP3    H244982   5.708   3.070  16.369  0.0768  0.9456  1.6173
 7831TIP3   OH244983   6.391   4.702   0.589 -0.4682  0.6968  0.1265
 7831TIP3    H144984   6.388   4.664   0.501 -1.1311 -0.2133  0.5285
 7831TIP3    H244985   6.483   4.696   0.614 -0.7041 -1.8927  0.6742
 7832TIP3   OH244986   2.875   5.829   4.988 -0.4233 -0.2610  0.7591
 7832TIP3    H144987   2.962   5.809   4.955  0.3048  0.4806  2.1524
 7832TIP3    H244988   2.815   5.793   4.922  0.9316  0.6642 -1.0587
 7833TIP3   OH244989   2.657   1.670   5.958 -0.1212 -0.2648 -0.9245
 7833TIP3    H144990   2.598   1.595   5.965 -1.3474  0.8251  1.1383
 7833TIP3    H244991   2.734   1.635   5.913  0.3074 -3.3835  1.8460
 7834TIP3   OH244992   5.146   6.503   5.908 -0.0588 -0.6057 -0.4896
 7834TIP3    H144993   5.114   6.592   5.896 -0.4541 -0.5740  0.6873
 7834TIP3    H244994   5.235   6.505   5.874 -0.1966  0.1366 -0.8289
 7835TIP3   OH244995   5.678   3.637   4.695  0.4374 -0.5291 -0.0800
 7835TIP3    H144996   5.770   3.663   4.694  0.3599 -0.1874  0.7530
 7835TIP3    H244997   5.647   3.660   4.783 -0.8594  0.7896 -0.8295
 7836TIP3   OH244998   1.936   3.566  14.303  0.2494 -0.2108  0.1878
 7836TIP3    H144999   1.988   3.515  14.240  0.9432  0.5987  0.0876
 7836TIP3    H245000   1.913   3.503  14.372  2.8906 -0.2652  1.1593
 7837TIP3   OH245001   4.815   2.528  14.178 -0.3251 -0.5313 -0.0121
 7837TIP3    H145002   4.747   2.482  14.130 -1.2792  1.0617 -0.2659
 7837TIP3    H245003   4.773   2.553  14.261  0.1201 -0.0129  0.0631
 7838TIP3   OH245004   2.294   2.318   0.623  0.2090  0.0938  0.1558
 7838TIP3    H145005   2.379   2.319   0.579 -0.0797  2.8524 -0.4919
 7838TIP3    H245006   2.305   2.374   0.699 -0.9371  0.2052  0.2592
 7839TIP3   OH245007   0.027   6.318  12.089 -0.0922  0.2564 -0.6717
 7839TIP3    H145008   0.075   6.241  12.121  2.8300  2.0621 -0.3491
 7839TIP3    H245009   0.040   6.316  11.994 -0.9739 -0.2037 -0.7932
 7840TIP3   OH245010   1.065   6.500   4.859  0.8728 -0.6712 -0.1395
 7840TIP3    H145011   1.063   6.529   4.951 -2.8941 -0.7128 -0.0443
 7840TIP3    H245012   1.051   6.406   4.863  0.2497 -0.6145 -0.7230
 7841TIP3   OH245013   4.560   2.396  13.749  0.3114 -0.1387  0.0152
 7841TIP3    H145014   4.488   2.382  13.688  0.3935  0.3973 -0.2067
 7841TIP3    H245015   4.624   2.328  13.726 -0.0360 -0.4986  0.0943
 7842TIP3   OH245016   6.347   5.730   3.548 -0.3704  0.0831  0.3401
 7842TIP3    H145017   6.422   5.784   3.523  0.2953 -1.6695 -1.8056
 7842TIP3    H245018   6.386   5.653   3.589 -1.0633 -0.2637  0.3640
 7843TIP3   OH245019   3.628   2.658   2.348 -0.5185  0.0086 -0.6216
 7843TIP3    H145020   3.574   2.636   2.423  0.1568 -1.0200 -0.4117
 7843TIP3    H245021   3.633   2.576   2.298 -1.4690  0.8247 -2.1276
 7844TIP3   OH245022   5.384   3.600  14.821  0.4845 -0.1886 -0.4949
 7844TIP3    H145023   5.327   3.596  14.898 -0.5949  2.5528 -1.0390
 7844TIP3    H245024   5.462   3.550  14.846 -1.3883 -2.6744  0.8903
 7845TIP3   OH245025   5.124   1.379   3.991  0.1006  0.4416 -0.1866
 7845TIP3    H145026   5.044   1.333   4.017  0.8642 -0.8681 -0.0937
 7845TIP3    H245027   5.161   1.326   3.921 -0.1697  2.1446 -1.6990
 7846TIP3   OH245028   4.672   0.757   6.073  0.4842 -0.2138  0.1857
 7846TIP3    H145029   4.718   0.699   6.012  0.9249  0.0059  0.3113
 7846TIP3    H245030   4.615   0.810   6.017 -2.0237 -2.6079  0.2491
 7847TIP3   OH245031   3.384   2.662   2.848  0.0191 -0.3996  0.4068
 7847TIP3    H145032   3.467   2.673   2.800 -0.0713  1.9203  0.6613
 7847TIP3    H245033   3.321   2.715   2.799 -0.9732 -0.9523  1.0511
 7848TIP3   OH245034   2.671   3.104   3.117  0.7580  0.4030  0.0684
 7848TIP3    H145035   2.624   3.098   3.200  0.7362 -2.5717 -0.0265
 7848TIP3    H245036   2.615   3.158   3.061 -0.8598 -0.2339  1.0110
 7849TIP3   OH245037   4.252   3.380   6.092  0.2629 -0.7976 -0.1663
 7849TIP3    H145038   4.303   3.361   6.014  0.5804 -0.2191 -0.1039
 7849TIP3    H245039   4.310   3.432   6.148 -1.0189  1.6996 -0.9813
 7850TIP3   OH245040   6.501   2.476   5.451 -0.3849 -0.0659 -0.7149
 7850TIP3    H145041   6.556   2.526   5.392  2.6520 -0.0923  1.8343
 7850TIP3    H245042   6.506   2.386   5.419  0.6424  0.0201 -0.8101
 7851TIP3   OH245043   6.776   4.042  10.956 -0.0698 -0.1228 -0.3422
 7851TIP3    H145044   6.808   4.015  10.870 -1.4472 -0.1182 -0.8845
 7851TIP3    H245045   6.797   4.135  10.962 -0.4686  0.0100 -0.9250
 7852TIP3   OH245046   3.198   5.006   1.749 -0.4245  0.3435 -0.0557
 7852TIP3    H145047   3.123   5.048   1.709 -0.8943  1.2688  1.6795
 7852TIP3    H245048   3.182   4.912   1.738 -0.7749  0.5570 -1.5130
 7853TIP3   OH245049   1.134   2.249  11.202 -0.0038 -0.0010 -0.4610
 7853TIP3    H145050   1.077   2.212  11.135  0.3002  1.1759 -1.4163
 7853TIP3    H245051   1.223   2.225  11.173  0.0357 -1.3078  0.6863
 7854TIP3   OH245052   5.747   4.905   3.541  0.2646 -0.4136 -0.6411
 7854TIP3    H145053   5.805   4.878   3.612 -0.7788 -1.9036 -0.3202
 7854TIP3    H245054   5.678   4.839   3.539 -1.0012  0.8598 -1.5363
 7855TIP3   OH245055   6.116   5.089   5.014 -0.6449  0.1476  0.1520
 7855TIP3    H145056   6.169   5.145   4.958 -1.1228  3.3815  2.6049
 7855TIP3    H245057   6.027   5.124   5.005 -1.3066 -1.3392  0.5715
 7856TIP3   OH245058   1.728   1.227  11.264 -0.3376 -0.3339 -0.5710
 7856TIP3    H145059   1.691   1.244  11.351  0.2263 -0.0610 -0.3750
 7856TIP3    H245060   1.657   1.188  11.214 -0.5863 -0.7629  0.1057
 7857TIP3   OH245061   2.125   5.855   5.186 -0.6842  1.3044  0.3150
 7857TIP3    H145062   2.058   5.829   5.249 -1.4191  0.8866 -0.6145
 7857TIP3    H245063   2.197   5.887   5.239 -0.8865  0.0122  1.3966
 7858TIP3   OH245064   5.630   3.318   1.170  0.1929  0.3944 -0.1970
 7858TIP3    H145065   5.571   3.341   1.097 -1.9612  3.4656  2.2159
 7858TIP3    H245066   5.586   3.245   1.213 -1.0483  1.5096  0.5357
 7859TIP3   OH245067   0.690   3.432   0.855 -0.2463  0.4528  1.2297
 7859TIP3    H145068   0.692   3.448   0.761  2.4653 -2.1014  0.7427
 7859TIP3    H245069   0.708   3.518   0.894  2.7066  0.8794 -0.7667
 7860TIP3   OH245070   1.159   0.743   5.320 -0.5591 -0.7436  0.1066
 7860TIP3    H145071   1.242   0.734   5.367 -0.4083  0.4911  0.1314
 7860TIP3    H245072   1.101   0.680   5.360  0.2135 -1.2403  0.4661
 7861TIP3   OH245073   1.513   4.411  14.752  0.0056 -0.4613  0.3758
 7861TIP3    H145074   1.420   4.423  14.734  0.3817  0.8962 -0.8960
 7861TIP3    H245075   1.544   4.499  14.777  0.9117 -0.9322  0.9917
 7862TIP3   OH245076   0.213   1.876  17.062 -0.3624 -0.4046  0.2692
 7862TIP3    H145077   0.279   1.823  17.018 -0.5817  0.3200 -0.9869
 7862TIP3    H245078   0.148   1.813  17.093 -0.8817 -0.8572 -1.6346
 7863TIP3   OH245079   5.276   1.884   2.915 -0.1220  0.1908  0.3927
 7863TIP3    H145080   5.233   1.907   2.998 -0.5076 -0.4261  0.3653
 7863TIP3    H245081   5.243   1.797   2.894 -1.7306  1.1802 -1.5291
 7864TIP3   OH245082   4.231   3.349  12.041  0.0668 -0.2153  0.3700
 7864TIP3    H145083   4.235   3.347  11.945  3.3572 -1.0272  0.4219
 7864TIP3    H245084   4.257   3.438  12.064 -2.0430  0.4073  0.5700
 7865TIP3   OH245085   5.844   2.960   5.629  0.2390  0.5617  0.0492
 7865TIP3    H145086   5.848   3.043   5.582  0.3862  1.1286  1.0210
 7865TIP3    H245087   5.935   2.930   5.633  0.0518 -0.2926 -1.3666
 7866TIP3   OH245088   1.104   3.414  14.745  0.0502  0.0203 -0.0126
 7866TIP3    H145089   1.177   3.407  14.806 -1.8288  1.0908  2.5999
 7866TIP3    H245090   1.125   3.489  14.690  2.7482 -2.1977 -2.2980
 7867TIP3   OH245091   3.906   4.699  14.567 -0.3438 -0.4056  0.2481
 7867TIP3    H145092   3.898   4.781  14.518 -0.0480 -0.8745 -0.6006
 7867TIP3    H245093   3.987   4.659  14.535 -1.0253 -1.5377 -0.1462
 7868TIP3   OH245094   3.390   4.358  14.288  0.6535  0.4631 -0.1888
 7868TIP3    H145095   3.477   4.351  14.250  0.6552 -3.0382  0.1324
 7868TIP3    H245096   3.391   4.295  14.361 -1.5150  1.8739  1.1705
 7869TIP3   OH245097   5.341   1.639   5.155 -0.1921  0.3802 -0.2782
 7869TIP3    H145098   5.431   1.619   5.182 -0.9206  0.8141  2.8739
 7869TIP3    H245099   5.300   1.554   5.143  0.2243  0.1618 -0.1792
 7870TIP3   OH245100   6.182   1.269  14.762  0.1495  0.1803  0.7314
 7870TIP3    H145101   6.264   1.218  14.767 -0.1145 -0.2648  0.6113
 7870TIP3    H245102   6.123   1.225  14.823  0.0723  0.6489  0.9999
 7871TIP3   OH245103   3.415   0.745  15.052 -0.6124 -0.2877  0.0700
 7871TIP3    H145104   3.413   0.661  15.097  1.6538 -0.2918  0.2959
 7871TIP3    H245105   3.433   0.809  15.121 -0.0365  0.0725 -0.4026
 7872TIP3   OH245106   4.825   3.197  10.865 -0.6982  0.3872  0.1750
 7872TIP3    H145107   4.805   3.185  10.773  1.5237 -1.8452 -0.1165
 7872TIP3    H245108   4.878   3.277  10.868  1.7906 -1.0880 -1.0335
 7873TIP3   OH245109   0.782   3.121  16.590  0.2118 -0.2752 -0.0992
 7873TIP3    H145110   0.797   3.176  16.513  1.4878  2.0698  1.6729
 7873TIP3    H245111   0.853   3.056  16.587  1.8175  1.3629  0.3097
 7874TIP3   OH245112   0.881   0.896  15.867  0.4940  0.3071  0.4386
 7874TIP3    H145113   0.925   0.862  15.789 -1.2957 -3.1334  0.7474
 7874TIP3    H245114   0.828   0.969  15.834 -0.4580 -1.2410 -1.7367
 7875TIP3   OH245115   5.746   5.036  13.567 -0.2414 -0.1395 -0.4280
 7875TIP3    H145116   5.836   5.069  13.569 -0.4428  0.8548 -2.9443
 7875TIP3    H245117   5.692   5.115  13.554 -1.4793 -0.7473  0.7267
 7876TIP3   OH245118   1.487   3.878   4.070 -0.0351  0.0526 -0.3738
 7876TIP3    H145119   1.461   3.878   3.978 -1.5162 -1.0124  0.0006
 7876TIP3    H245120   1.582   3.867   4.068  0.0583  0.8196 -1.7717
 7877TIP3   OH245121   0.723   4.945   6.180  0.2053  0.3644  1.2743
 7877TIP3    H145122   0.721   4.942   6.084 -3.0687  1.4298  1.1639
 7877TIP3    H245123   0.722   4.853   6.207  0.1551  0.0501  0.2498
 7878TIP3   OH245124   5.842   2.070   2.479 -0.4829 -0.1072 -0.4338
 7878TIP3    H145125   5.751   2.071   2.508  0.1400 -0.6637  1.6747
 7878TIP3    H245126   5.838   2.039   2.389 -2.3443 -0.4670 -0.2624
 7879TIP3   OH245127   2.266   0.252   0.292 -0.0246  0.1239  0.4849
 7879TIP3    H145128   2.289   0.185   0.227  0.6307  0.1646  0.6672
 7879TIP3    H245129   2.330   0.241   0.362 -0.4296  0.3970  0.9030
 7880TIP3   OH245130   6.341   5.052   4.485  0.2077  0.0446 -0.7179
 7880TIP3    H145131   6.331   5.114   4.558 -0.1998  0.9068 -1.4958
 7880TIP3    H245132   6.286   4.977   4.511 -0.6080  0.6929 -0.5103
 7881TIP3   OH245133   4.369   3.916   0.093 -0.4091  0.2280  0.1818
 7881TIP3    H145134   4.333   3.828   0.106  0.0132  0.1442  0.8874
 7881TIP3    H245135   4.426   3.908   0.017 -1.4775  0.2431 -0.6368
 7882TIP3   OH245136   1.876   6.055  12.004 -0.0419  0.8164 -0.2343
 7882TIP3    H145137   1.835   6.101  12.078  3.0832  0.7933  1.6547
 7882TIP3    H245138   1.870   5.963  12.027  1.4538  0.8403  0.3445
 7883TIP3   OH245139   3.567   5.549  13.167 -0.2742  0.6140  0.4829
 7883TIP3    H145140   3.530   5.468  13.201 -0.6640  1.3331  1.8884
 7883TIP3    H245141   3.491   5.605  13.151 -0.0568  0.4959 -1.1215
 7884TIP3   OH245142   1.497   0.555  12.744 -0.1183 -0.3840  0.1421
 7884TIP3    H145143   1.403   0.565  12.756 -0.3517 -1.4047 -0.6800
 7884TIP3    H245144   1.509   0.461  12.730  1.3828 -0.8225  3.3288
 7885TIP3   OH245145   0.242   1.509  14.600  0.2588 -0.1043  0.0803
 7885TIP3    H145146   0.198   1.450  14.538 -0.0132 -0.5367  0.6730
 7885TIP3    H245147   0.171   1.546  14.653  0.6105 -1.1333  1.3244
 7886TIP3   OH245148   6.274   3.272   4.997 -0.5207 -0.1904 -0.2443
 7886TIP3    H145149   6.328   3.262   4.919 -0.4430 -1.0427 -0.0823
 7886TIP3    H245150   6.320   3.338   5.050 -0.5191  0.3109 -0.8575
 7887TIP3   OH245151   4.378   2.091   5.970  0.6498 -0.5352  1.0554
 7887TIP3    H145152   4.402   2.180   5.945  0.3541 -0.5732  0.6240
 7887TIP3    H245153   4.396   2.087   6.064 -0.4158  0.3518  1.3262
 7888TIP3   OH245154   6.143   0.950  16.108 -0.4203  1.1573  0.4501
 7888TIP3    H145155   6.156   0.916  16.197  1.3345  2.4253  0.7252
 7888TIP3    H245156   6.209   1.018  16.098  0.8949 -0.3471 -2.5777
 7889TIP3   OH245157   3.983   6.718  13.562 -0.1749 -0.8537  0.4447
 7889TIP3    H145158   3.962   6.768  13.641  1.2979  1.1714 -0.3767
 7889TIP3    H245159   4.041   6.648  13.594  1.6059  0.7896  1.0560
 7890TIP3   OH245160   3.753   5.167   6.074  0.1235  0.2840  0.4249
 7890TIP3    H145161   3.716   5.252   6.100 -0.4113  1.9411 -4.6083
 7890TIP3    H245162   3.841   5.188   6.043  0.9313 -1.5614  1.3202
 7891TIP3   OH245163   4.332   5.396   2.838  0.1616 -0.1303  0.6525
 7891TIP3    H145164   4.353   5.314   2.793  2.7509  0.7445  0.0729
 7891TIP3    H245165   4.256   5.430   2.792  1.0487 -0.6357 -1.2993
 7892TIP3   OH245166   4.394   3.786   1.450 -0.3888  0.0597  0.0903
 7892TIP3    H145167   4.338   3.854   1.412 -0.5284  0.6212  1.2350
 7892TIP3    H245168   4.347   3.705   1.435  0.5013 -0.0401 -2.6813
 7893TIP3   OH245169   6.367   3.525  15.575  0.3102 -0.1852 -0.0794
 7893TIP3    H145170   6.377   3.484  15.662 -0.2281  1.5668  0.8556
 7893TIP3    H245171   6.456   3.549  15.550  0.1875  2.2879  1.5611
 7894TIP3   OH245172   2.633   5.219  15.767 -0.0045  0.1696 -0.0966
 7894TIP3    H145173   2.666   5.304  15.797 -0.4521  0.4465 -0.3677
 7894TIP3    H245174   2.709   5.175  15.730  0.3389  0.2340  0.5284
 7895TIP3   OH245175   4.987   5.989  11.289  0.4899 -0.2738  0.8088
 7895TIP3    H145176   4.901   5.959  11.317  0.9146 -1.0032  1.3520
 7895TIP3    H245177   5.047   5.964  11.359  1.7027 -2.8205 -0.9472
 7896TIP3   OH245178   2.751   5.153  12.206 -0.0842 -0.0434  0.6911
 7896TIP3    H145179   2.796   5.096  12.268 -0.7831  0.1155  1.3644
 7896TIP3    H245180   2.729   5.097  12.132  0.6055 -0.2749  0.6569
 7897TIP3   OH245181   2.322   5.297  15.227  0.1040 -0.7987 -0.5782
 7897TIP3    H145182   2.403   5.345  15.244  0.7028 -2.3403  1.4238
 7897TIP3    H245183   2.293   5.268  15.314 -1.3678 -2.1710 -1.4669
 7898TIP3   OH245184   2.710   6.738  11.341 -0.2733 -0.5702  0.0804
 7898TIP3    H145185   2.619   6.749  11.312 -0.3705 -1.3307  0.0720
 7898TIP3    H245186   2.745   6.827  11.345 -1.3244 -0.1748  1.0898
 7899TIP3   OH245187   5.610   3.405   2.021 -0.0597  0.9511  0.2958
 7899TIP3    H145188   5.615   3.449   2.106  0.2226  0.7819  0.3697
 7899TIP3    H245189   5.545   3.336   2.033  0.9058  0.0888  0.7703
 7900TIP3   OH245190   0.161   2.990  15.304 -0.3404 -0.0000 -0.1428
 7900TIP3    H145191   0.232   3.041  15.341 -0.5654  0.5372 -0.4408
 7900TIP3    H245192   0.109   2.962  15.380 -0.6108  0.8095 -0.0177
 7901TIP3   OH245193   2.259   1.371   5.466 -0.3296 -0.0016  0.0610
 7901TIP3    H145194   2.203   1.296   5.444 -0.7935  0.4179 -0.1971
 7901TIP3    H245195   2.294   1.349   5.553 -1.8941  0.2784  0.8088
 7902TIP3   OH245196   5.422   0.023  11.160  0.0389 -0.8621 -0.2020
 7902TIP3    H145197   5.439  -0.061  11.119  1.4016 -0.3244 -0.7844
 7902TIP3    H245198   5.505   0.071  11.154 -0.3481  0.0682  1.2110
 7903TIP3   OH245199   6.113   6.473   3.566 -0.3013 -0.4066  0.0275
 7903TIP3    H145200   6.018   6.470   3.576 -0.4725 -1.2226 -1.4814
 7903TIP3    H245201   6.147   6.417   3.635 -0.9437 -0.5090  0.2637
 7904TIP3   OH245202   4.186   3.037  15.669  0.0910 -0.0602  0.2986
 7904TIP3    H145203   4.162   2.948  15.643  0.6183  0.1242 -0.9140
 7904TIP3    H245204   4.235   3.026  15.750 -1.6053 -0.6757  1.2992
 7905TIP3   OH245205   3.589   6.415  10.529 -0.1365  0.7170  0.0532
 7905TIP3    H145206   3.519   6.357  10.559 -2.4053  2.0707 -2.2166
 7905TIP3    H245207   3.660   6.357  10.504 -0.1546 -0.6956  2.9038
 7906TIP3   OH245208   3.730   2.218  10.796  0.1251  0.1590 -0.6905
 7906TIP3    H145209   3.756   2.220  10.888 -2.8432  0.7103  0.2423
 7906TIP3    H245210   3.811   2.235  10.748  2.0642 -1.6188  1.6934
 7907TIP3   OH245211   1.253   1.465  16.276 -0.2807 -0.3201 -0.1614
 7907TIP3    H145212   1.220   1.462  16.366  0.6873  0.4596  0.2291
 7907TIP3    H245213   1.175   1.452  16.222 -1.0675  0.4240  0.7619
 7908TIP3   OH245214   3.932   6.676  15.228 -0.4190  0.4268  0.2092
 7908TIP3    H145215   4.003   6.622  15.262 -0.5455 -0.1917 -0.4732
 7908TIP3    H245216   3.863   6.614  15.207 -0.7753  0.9149 -0.0800
 7909TIP3   OH245217   2.605   5.903   5.739  0.0995  0.8198 -0.3493
 7909TIP3    H145218   2.580   5.846   5.812 -1.5163  1.6764 -0.1996
 7909TIP3    H245219   2.523   5.940   5.707  0.8231  0.9455 -2.2393
 7910TIP3   OH245220   4.124   2.647  13.554 -0.0896 -0.1796  0.6724
 7910TIP3    H145221   4.147   2.713  13.489  0.7248  1.1027  2.1883
 7910TIP3    H245222   4.150   2.564  13.515 -0.5293  0.4468 -1.0122
 7911TIP3   OH245223   4.951   4.886   3.406  0.1109  0.4295 -0.4918
 7911TIP3    H145224   5.041   4.916   3.420  0.5647 -1.3864  0.7987
 7911TIP3    H245225   4.958   4.815   3.342 -0.3129 -0.1630  0.1061
 7912TIP3   OH245226   1.735   6.174   5.392 -0.7682 -0.2766 -0.0649
 7912TIP3    H145227   1.659   6.155   5.337 -0.2019 -1.4201 -0.4928
 7912TIP3    H245228   1.779   6.246   5.347 -1.6109  0.4080  0.2000
 7913TIP3   OH245229   6.573   2.876   5.962  0.3677  0.2455 -0.3486
 7913TIP3    H145230   6.612   2.819   5.896 -0.3443 -1.7091  0.8324
 7913TIP3    H245231   6.581   2.827   6.044 -2.1765  0.9095  0.3808
 7914TIP3   OH245232   6.086   3.215   0.481 -0.6055 -0.7390 -0.6805
 7914TIP3    H145233   6.107   3.171   0.563  0.0543 -1.1539 -1.0620
 7914TIP3    H245234   6.141   3.171   0.415 -1.1555 -0.4467 -1.3512
 7915TIP3   OH245235   1.005   3.747  13.525 -0.4082  0.2409 -0.2810
 7915TIP3    H145236   1.021   3.753  13.431 -0.8933 -0.4293 -0.4130
 7915TIP3    H245237   1.078   3.794  13.565 -0.5369  1.0787 -1.0090
 7916TIP3   OH245238   6.326   3.228   2.502 -0.8817  0.8508 -0.4046
 7916TIP3    H145239   6.409   3.271   2.522  0.0797 -0.7552 -0.7872
 7916TIP3    H245240   6.309   3.251   2.410 -0.3054  0.3342 -0.6474
 7917TIP3   OH245241   3.276   4.399   1.319 -0.0155 -0.5848 -0.4301
 7917TIP3    H145242   3.255   4.373   1.229  0.1708 -0.9178 -0.3763
 7917TIP3    H245243   3.239   4.487   1.327 -0.0361 -0.5543 -0.8334
 7918TIP3   OH245244   5.377   0.332   1.276 -0.1280  0.5509 -0.6257
 7918TIP3    H145245   5.391   0.272   1.203  0.6008  1.9567 -1.7138
 7918TIP3    H245246   5.309   0.392   1.245 -0.0937  0.9234  0.0014
 7919TIP3   OH245247   1.488   0.473  16.070 -0.0059  0.3145  0.0259
 7919TIP3    H145248   1.457   0.554  16.030 -0.4418  1.9489  3.3741
 7919TIP3    H245249   1.552   0.500  16.135 -2.1582 -1.5795  3.2703
 7920TIP3   OH245250   2.365   5.327  15.801 -0.1087  0.3582 -0.1651
 7920TIP3    H145251   2.402   5.415  15.815 -0.2918  0.6390 -1.3853
 7920TIP3    H245252   2.441   5.270  15.797  0.1491  0.7582 -1.3870
 7921TIP3   OH245253   2.292   6.633  17.204  0.2452 -0.2502 -0.4804
 7921TIP3    H145254   2.380   6.631  17.242 -0.2298 -0.8147  0.6180
 7921TIP3    H245255   2.298   6.577  17.127  0.4666 -1.5872  0.4769
 7922TIP3   OH245256   6.583   5.447  12.723  0.3464  0.1578 -0.3748
 7922TIP3    H145257   6.524   5.521  12.708  0.0480  0.1110  0.5091
 7922TIP3    H245258   6.659   5.485  12.767  0.1365 -0.0666  0.1976
 7923TIP3   OH245259   5.707   4.378  16.911 -0.1450 -0.4764 -0.0276
 7923TIP3    H145260   5.793   4.340  16.928  0.1053 -0.1130 -0.4834
 7923TIP3    H245261   5.652   4.345  16.983  0.9035  1.0732  1.5667
 7924TIP3   OH245262   1.063   2.316   2.291 -0.1000 -0.6467  0.1593
 7924TIP3    H145263   0.989   2.369   2.261  0.5126 -0.1578 -0.5031
 7924TIP3    H245264   1.022   2.240   2.334 -0.9894 -0.7226 -0.7838
 7925TIP3   OH245265   6.597   2.954  12.518  0.1861 -0.3567 -0.5181
 7925TIP3    H145266   6.507   2.949  12.487 -0.1257 -0.2708  0.3535
 7925TIP3    H245267   6.619   2.864  12.543  0.8473 -0.6636 -2.0559
 7926TIP3   OH245268   5.446   1.752   4.431 -0.0127 -0.5742  0.0951
 7926TIP3    H145269   5.476   1.782   4.517  0.1403 -0.5911  0.0468
 7926TIP3    H245270   5.515   1.778   4.371 -0.0710 -0.6584 -0.0080
 7927TIP3   OH245271   1.204   6.505  15.166  0.6544  0.3565  0.4758
 7927TIP3    H145272   1.213   6.499  15.071  0.9865  1.8844  0.3902
 7927TIP3    H245273   1.189   6.415  15.194  0.8599 -0.1620 -0.9877
 7928TIP3   OH245274   5.863   3.139  16.950 -0.1511 -0.1797 -0.3780
 7928TIP3    H145275   5.942   3.111  16.996  0.4680 -1.9077 -2.3293
 7928TIP3    H245276   5.797   3.074  16.973 -0.4014  0.0789 -0.3608
 7929TIP3   OH245277   3.112   0.222  12.026 -0.3173 -0.4547 -0.0727
 7929TIP3    H145278   3.191   0.212  12.078  0.2921  1.6404 -0.4967
 7929TIP3    H245279   3.041   0.227  12.090 -0.3715 -3.6140  0.2772
 7930TIP3   OH245280   3.265   0.405  16.906 -0.0630  0.5539  0.8947
 7930TIP3    H145281   3.185   0.423  16.856  1.1116  2.9779 -0.2640
 7930TIP3    H245282   3.328   0.470  16.876  2.0539 -0.5855  2.5504
 7931TIP3   OH245283   4.987   4.254  13.876  0.6042  0.5961 -0.4381
 7931TIP3    H145284   4.955   4.344  13.871 -1.3045  0.0945  1.4151
 7931TIP3    H245285   4.909   4.201  13.895  1.8970 -1.2714  0.0071
 7932TIP3   OH245286   1.636   2.344   5.789  0.9145 -0.0918  0.2541
 7932TIP3    H145287   1.675   2.427   5.819 -0.4773  1.1135 -1.0921
 7932TIP3    H245288   1.612   2.299   5.870  1.0037  1.1743  1.0201
 7933TIP3   OH245289   2.492   5.201  11.046 -0.4656 -0.0696  0.3122
 7933TIP3    H145290   2.402   5.234  11.042 -0.8611 -1.1286  0.2264
 7933TIP3    H245291   2.494   5.127  10.985  0.5853  0.2018 -0.0053
 7934TIP3   OH245292   1.467   4.402   1.224  0.0625 -0.2351 -0.8178
 7934TIP3    H145293   1.559   4.394   1.249 -0.3191  0.0753  0.7627
 7934TIP3    H245294   1.458   4.493   1.196  0.0765 -0.0745 -0.3009
 7935TIP3   OH245295   4.700   0.773  15.803  0.1165 -0.1779 -0.3436
 7935TIP3    H145296   4.615   0.791  15.765 -0.1828  2.4903  1.3709
 7935TIP3    H245297   4.681   0.737  15.890  0.7109  0.4426  0.0565
 7936TIP3   OH245298   5.166   5.803   2.041 -0.8022  0.3607  0.2491
 7936TIP3    H145299   5.253   5.771   2.063 -0.5339  0.9435  0.0536
 7936TIP3    H245300   5.136   5.745   1.971 -0.1860  0.7293 -0.3291
 7937TIP3   OH245301   3.381   2.430  12.551 -0.0943 -0.2995  0.5322
 7937TIP3    H145302   3.398   2.502  12.490 -1.0116  0.7098  1.4228
 7937TIP3    H245303   3.289   2.407  12.536  0.4402 -1.9792 -0.4245
 7938TIP3   OH245304   4.156   1.908   0.733  0.4514 -0.3427 -0.2964
 7938TIP3    H145305   4.084   1.954   0.688  1.6915  1.7675 -0.2634
 7938TIP3    H245306   4.115   1.830   0.770 -1.7372  0.5684 -0.6430
 7939TIP3   OH245307   1.161   2.257   1.061  0.0796  0.0430  0.0605
 7939TIP3    H145308   1.183   2.338   1.107 -2.2155  0.7037  0.1231
 7939TIP3    H245309   1.105   2.210   1.123 -0.3717 -0.5768 -0.8038
 7940TIP3   OH245310   2.421   0.229   4.317 -1.0004 -0.3823  0.0216
 7940TIP3    H145311   2.365   0.151   4.318  0.2381 -1.2988  1.1812
 7940TIP3    H245312   2.468   0.223   4.233  0.0049 -1.6108  0.6303
 7941TIP3   OH245313   4.051   3.827  11.200 -0.7623 -0.0563 -0.6808
 7941TIP3    H145314   3.976   3.863  11.248 -0.8392 -2.4961  1.2117
 7941TIP3    H245315   4.013   3.789  11.121 -1.3922 -0.3163 -0.2609
 7942TIP3   OH245316   1.505   1.125  17.155 -0.6411  0.6131 -0.1219
 7942TIP3    H145317   1.440   1.182  17.195  0.6927  1.9837  0.2020
 7942TIP3    H245318   1.578   1.184  17.134  0.0169 -0.6509 -1.5573
 7943TIP3   OH245319   6.486   5.980   1.131 -0.1213 -0.0049 -0.2230
 7943TIP3    H145320   6.470   5.942   1.218 -1.9790  0.5753 -0.2584
 7943TIP3    H245321   6.568   6.028   1.140  0.7051 -1.5071  0.6594
 7944TIP3   OH245322   5.566   4.017   6.455  0.2750 -0.2910 -0.2162
 7944TIP3    H145323   5.568   4.076   6.380 -2.8417 -1.8157 -1.6741
 7944TIP3    H245324   5.581   3.930   6.418 -0.4445 -0.9834  1.0234
 7945TIP3   OH245325   2.185   4.549  13.409  0.0137 -0.7315  0.1251
 7945TIP3    H145326   2.207   4.496  13.485  2.4347  0.7354  0.5520
 7945TIP3    H245327   2.178   4.638  13.443 -0.9491 -0.3212 -1.0698
 7946TIP3   OH245328   1.395   3.128  16.378  0.2688  0.0238 -0.6925
 7946TIP3    H145329   1.366   3.180  16.452 -0.5901 -0.7467 -0.4762
 7946TIP3    H245330   1.380   3.184  16.302 -0.7634  0.0611 -0.4765
 7947TIP3   OH245331   6.267   5.505  15.581  0.1725 -0.1226  0.8606
 7947TIP3    H145332   6.231   5.551  15.504  1.3315 -0.9172 -0.1978
 7947TIP3    H245333   6.195   5.450  15.611  0.4475 -1.7963 -1.3067
 7948TIP3   OH245334   2.138   1.705  11.864 -0.0211  0.1728 -0.4908
 7948TIP3    H145335   2.189   1.770  11.912 -0.1040  0.4048 -0.7123
 7948TIP3    H245336   2.195   1.627  11.861  0.2159  0.3452 -0.5152
 7949TIP3   OH245337   5.451   3.235   2.209 -0.2844  0.4003 -0.5836
 7949TIP3    H145338   5.372   3.182   2.212 -0.8315  1.1870 -0.9331
 7949TIP3    H245339   5.522   3.171   2.198 -0.4745 -0.6301  2.9535
 7950TIP3   OH245340   1.289   3.642   1.281  0.7533  0.1086 -0.0552
 7950TIP3    H145341   1.318   3.712   1.339 -0.9156  0.1152  0.8255
 7950TIP3    H245342   1.358   3.576   1.287  0.4049 -0.1113  2.3306
 7951TIP3   OH245343   1.026   4.826  14.036  0.3777  0.1534  0.8660
 7951TIP3    H145344   1.097   4.864  13.984 -0.3052  0.1012 -0.1308
 7951TIP3    H245345   1.056   4.737  14.055  0.3450 -0.0624 -0.0357
 7952TIP3   OH245346   3.490   1.591   1.358  0.2000  0.0625  0.6668
 7952TIP3    H145347   3.485   1.623   1.448 -2.3092  1.8216  0.0019
 7952TIP3    H245348   3.484   1.670   1.304 -1.8100 -1.1623 -1.0353
 7953TIP3   OH245349   5.357   5.190   0.337  0.2384 -0.0475  0.0378
 7953TIP3    H145350   5.348   5.187   0.242  0.7342 -1.4797  0.0180
 7953TIP3    H245351   5.313   5.271   0.362 -0.4561  0.0398 -1.3517
 7954TIP3   OH245352   5.835   3.909   2.003  0.0199 -0.1734  0.3015
 7954TIP3    H145353   5.862   3.821   2.027  0.3009 -0.3945 -0.8083
 7954TIP3    H245354   5.844   3.913   1.908  0.4783  1.2062  0.3757
 7955TIP3   OH245355   2.939   0.516   3.328 -0.8149  0.1352 -0.0718
 7955TIP3    H145356   2.971   0.581   3.392 -0.2601  0.7719 -0.9772
 7955TIP3    H245357   2.977   0.433   3.357  1.0139  0.7419 -0.6453
 7956TIP3   OH245358   0.589   3.642   3.335 -0.6017 -0.2293  0.0867
 7956TIP3    H145359   0.596   3.677   3.423  1.2570 -0.4004  0.0309
 7956TIP3    H245360   0.668   3.671   3.290 -0.8198 -1.3305 -1.0819
 7957TIP3   OH245361   5.686   4.571   3.053  0.0196  0.5855  0.3434
 7957TIP3    H145362   5.766   4.597   3.007  0.5459 -1.1941  0.1677
 7957TIP3    H245363   5.678   4.635   3.124  0.5671  1.8840 -0.7254
 7958TIP3   OH245364   2.187   5.268   6.038 -0.0507  0.1734  1.0883
 7958TIP3    H145365   2.153   5.354   6.065  0.2254  1.8439 -3.1522
 7958TIP3    H245366   2.110   5.211   6.036 -0.9562  1.3685  0.4625
 7959TIP3   OH245367   5.306   0.081   0.329 -0.9503 -0.2020  0.0243
 7959TIP3    H145368   5.222   0.069   0.373 -0.4568 -2.4790  0.4721
 7959TIP3    H245369   5.370   0.040   0.388  0.9081  3.4054  0.8321
 7960TIP3   OH245370   5.478   5.115  12.428 -0.7067 -0.3405  0.5195
 7960TIP3    H145371   5.408   5.147  12.485  0.0080  1.8905  0.2141
 7960TIP3    H245372   5.447   5.133  12.339 -0.8560 -1.7856  0.2467
 7961TIP3   OH245373   6.556   0.166   4.504 -0.4318  0.6462  0.0018
 7961TIP3    H145374   6.603   0.086   4.480 -0.3070  0.4148  0.9550
 7961TIP3    H245375   6.615   0.212   4.563 -0.4545  1.5146 -0.6356
 7962TIP3   OH245376   3.812   5.056   6.504  0.2421  0.1108 -0.7317
 7962TIP3    H145377   3.771   4.987   6.451 -0.4149 -1.1806  1.2976
 7962TIP3    H245378   3.889   5.082   6.454 -1.2716  0.3002 -3.1519
 7963TIP3   OH245379   5.514   6.662  14.687 -0.0168 -0.2026  0.0465
 7963TIP3    H145380   5.572   6.585  14.689 -0.6207 -0.6624  0.2298
 7963TIP3    H245381   5.448   6.643  14.754  0.1094  0.7101  0.4472
 7964TIP3   OH245382   1.712   1.623   0.097 -0.3181  0.1372 -0.3124
 7964TIP3    H145383   1.708   1.657   0.008  0.1202 -0.0397 -0.4053
 7964TIP3    H245384   1.768   1.685   0.144  0.2879 -0.3079 -0.4233
 7965TIP3   OH245385   5.761   4.808   2.292  0.3485 -0.0088 -0.0321
 7965TIP3    H145386   5.716   4.815   2.208 -0.1342 -0.1900  0.2077
 7965TIP3    H245387   5.827   4.878   2.291  0.2238  0.1002 -0.4854
 7966TIP3   OH245388   1.877   1.259  11.834  0.2165 -0.6239  0.2360
 7966TIP3    H145389   1.916   1.332  11.881 -1.6285  1.3510 -1.1178
 7966TIP3    H245390   1.835   1.206  11.902  1.2313 -0.2302  1.2007
 7967TIP3   OH245391   0.809   1.106  12.989 -0.1083  0.0720 -1.0783
 7967TIP3    H145392   0.743   1.130  13.054 -0.3901 -1.2695 -0.8359
 7967TIP3    H245393   0.868   1.047  13.035 -0.8268 -1.6359 -2.2377
 7968TIP3   OH245394   1.511   3.232   1.080 -0.8198 -1.0582  0.8752
 7968TIP3    H145395   1.459   3.309   1.057 -1.9122 -1.7470  1.0085
 7968TIP3    H245396   1.510   3.177   1.001 -0.8312 -1.3724  1.0924
 7969TIP3   OH245397   3.600   3.368  14.653  0.1688 -0.2179  0.2608
 7969TIP3    H145398   3.509   3.389  14.631 -0.2718 -1.5081  0.7885
 7969TIP3    H245399   3.610   3.276  14.627  1.7673  0.2952 -1.1459
 7970TIP3   OH245400   5.848   5.730  17.135 -0.2869  0.0877 -0.5080
 7970TIP3    H145401   5.925   5.781  17.159 -1.1712  1.7170 -0.9503
 7970TIP3    H245402   5.860   5.646  17.178  0.9166  0.8935  0.8156
 7971TIP3   OH245403   6.210   4.145   0.806  0.5038 -0.0829  0.1818
 7971TIP3    H145404   6.132   4.146   0.750  1.4031 -2.5914 -1.2539
 7971TIP3    H245405   6.230   4.237   0.820  0.1069  0.7375 -3.5420
 7972TIP3   OH245406   1.724   4.988   1.611  1.1863 -0.3729  0.2318
 7972TIP3    H145407   1.644   5.006   1.561  1.5549  1.1802  0.1779
 7972TIP3    H245408   1.788   4.961   1.545  1.2547  0.2506  0.0434
 7973TIP3   OH245409   1.397   0.576   5.561 -0.3353  0.0200 -0.6059
 7973TIP3    H145410   1.367   0.642   5.623 -0.2478 -0.4537 -0.0588
 7973TIP3    H245411   1.419   0.626   5.482  1.6160  0.9236  0.4258
 7974TIP3   OH245412   3.966   3.176  11.271 -0.0130 -0.1334 -0.4938
 7974TIP3    H145413   3.925   3.184  11.185 -0.1189 -2.0099 -0.6591
 7974TIP3    H245414   4.008   3.089  11.270  0.1666 -0.1074  1.2615
 7975TIP3   OH245415   2.115   0.674  15.103  0.8448  0.1663  0.2778
 7975TIP3    H145416   2.133   0.738  15.035 -1.4280 -0.4612 -1.0082
 7975TIP3    H245417   2.083   0.597  15.056 -1.6503  0.0120  2.0382
 7976TIP3   OH245418   3.223   5.554   5.980 -0.3685 -0.4965  0.0112
 7976TIP3    H145419   3.289   5.485   5.989 -0.4337 -0.5287  0.2422
 7976TIP3    H245420   3.272   5.635   5.986 -0.2964 -0.5205 -0.2229
 7977TIP3   OH245421   0.172   4.524  16.201  0.0835  0.0784  0.1472
 7977TIP3    H145422   0.114   4.536  16.277  0.7927  0.1579  0.6913
 7977TIP3    H245423   0.193   4.613  16.174  0.6263  0.0600  0.4893
 7978TIP3   OH245424   6.715   2.919  16.855  0.2979  0.1400 -0.1651
 7978TIP3    H145425   6.710   2.919  16.951  1.7073  2.2878 -0.0101
 7978TIP3    H245426   6.625   2.929  16.826 -0.1276 -0.3249  0.9428
 7979TIP3   OH245427   4.993   2.735  10.790 -0.6899 -0.2389 -0.0551
 7979TIP3    H145428   4.958   2.810  10.742  0.5563 -0.3566 -1.2149
 7979TIP3    H245429   4.973   2.659  10.736 -0.9416 -0.6133  0.5524
 7980TIP3   OH245430   4.811   4.331  16.603  0.6414  0.3009  0.5917
 7980TIP3    H145431   4.843   4.351  16.691 -2.4974 -1.3892  2.3183
 7980TIP3    H245432   4.808   4.236  16.600 -0.2846  0.3490 -0.9603
 7981TIP3   OH245433   6.131   2.151  16.638 -0.2566 -0.3037 -0.4838
 7981TIP3    H145434   6.219   2.153  16.673 -0.6849 -0.4530  0.6457
 7981TIP3    H245435   6.081   2.101  16.702 -1.7673  2.0933  0.3583
 7982TIP3   OH245436   3.839   1.748  16.760  0.3363  0.4590  0.0080
 7982TIP3    H145437   3.893   1.749  16.681  0.2417 -0.2387 -0.0677
 7982TIP3    H245438   3.829   1.841  16.783  0.9549  0.6303 -0.3913
 7983TIP3   OH245439   3.338   1.423  16.256  0.0487 -0.4091 -0.5336
 7983TIP3    H145440   3.356   1.400  16.347 -0.5620  0.2364 -0.2361
 7983TIP3    H245441   3.392   1.501  16.240 -0.6027  0.0718 -0.4070
 7984TIP3   OH245442   6.103   6.427  16.000  0.3973  0.7890  0.3576
 7984TIP3    H145443   6.193   6.422  15.970  0.3640 -2.5795  0.4364
 7984TIP3    H245444   6.052   6.437  15.919  0.6551 -2.2250 -0.2849
 7985TIP3   OH245445   2.237   4.620  16.721 -0.3506 -0.4687  0.9330
 7985TIP3    H145446   2.293   4.545  16.703 -1.5834 -0.6546 -2.9475
 7985TIP3    H245447   2.294   4.696  16.709 -0.2658 -0.7040 -0.2009
 7986TIP3   OH245448   2.094   5.279  16.546  0.9982  0.4397 -0.2224
 7986TIP3    H145449   2.018   5.317  16.591 -0.1827 -1.5380 -0.4131
 7986TIP3    H245450   2.158   5.264  16.616  0.2750 -0.0280  0.3516
 7987TIP3   OH245451   1.816   5.419   4.257  0.4133 -0.0461 -0.0259
 7987TIP3    H145452   1.818   5.506   4.298  0.4108  0.3370 -0.8077
 7987TIP3    H245453   1.867   5.430   4.177  2.0477 -1.2638  0.7754
 7988TIP3   OH245454   4.479   4.395  12.525  0.2108  0.0340  0.1012
 7988TIP3    H145455   4.513   4.478  12.558  1.3425 -0.0190 -0.8606
 7988TIP3    H245456   4.539   4.370  12.455  1.1767 -2.6844  1.7295
 7989TIP3   OH245457   1.539   1.933   1.739  0.2671  0.1157  0.1535
 7989TIP3    H145458   1.569   2.004   1.682  1.1878 -0.2164  0.1979
 7989TIP3    H245459   1.482   1.975   1.803  0.2819  0.7036 -0.2131
 7990TIP3   OH245460   4.589   5.245  16.820  0.2303 -0.2533 -0.2484
 7990TIP3    H145461   4.533   5.309  16.865 -0.3193  0.3989 -1.8006
 7990TIP3    H245462   4.540   5.164  16.822 -0.6249  0.2154 -1.2311
 7991TIP3   OH245463   5.134   3.838   3.979  0.1364 -0.1556  0.2671
 7991TIP3    H145464   5.046   3.852   3.943 -0.0519 -0.6058  0.5410
 7991TIP3    H245465   5.136   3.745   4.002  0.5996 -0.0919  0.4992
 7992TIP3   OH245466   0.280   6.533   4.797 -0.4700  0.5374 -0.5016
 7992TIP3    H145467   0.338   6.580   4.857  0.4894 -1.6213  0.3712
 7992TIP3    H245468   0.331   6.524   4.716  0.6601 -1.6949  0.3923
 7993TIP3   OH245469   2.747   4.137   2.197  0.0304  0.4340  0.0568
 7993TIP3    H145470   2.672   4.136   2.138 -2.3398  1.3720  2.8310
 7993TIP3    H245471   2.795   4.057   2.175 -1.5797 -0.0647 -2.0111
 7994TIP3   OH245472   6.350   2.512   3.631 -0.3369 -0.9995 -0.3703
 7994TIP3    H145473   6.365   2.597   3.588 -0.3934 -1.0228 -0.4353
 7994TIP3    H245474   6.419   2.508   3.698  0.2565 -1.3211 -0.9859
 7995TIP3   OH245475   6.785   1.442  14.557 -0.1410  0.0935  0.4769
 7995TIP3    H145476   6.803   1.349  14.544 -1.6913 -0.2065  0.2054
 7995TIP3    H245477   6.720   1.444  14.628 -1.9078  0.7572 -1.0719
 7996TIP3   OH245478   0.111   1.513  14.958 -0.1555  0.1208  0.3550
 7996TIP3    H145479   0.196   1.476  14.979 -1.6557 -1.9716  3.5545
 7996TIP3    H245480   0.101   1.586  15.019 -0.4347  0.7719 -0.4483
 7997TIP3   OH245481   0.191   3.130  11.043  0.1683  0.2038 -0.1166
 7997TIP3    H145482   0.197   3.218  11.081 -1.6471  0.2779  0.1192
 7997TIP3    H245483   0.278   3.093  11.053  0.5883  1.4484  1.1144
 7998TIP3   OH245484   6.264   0.802  16.925  0.5961  0.0396  0.7540
 7998TIP3    H145485   6.323   0.736  16.887 -0.1941  0.3653 -1.1591
 7998TIP3    H245486   6.188   0.752  16.955  0.9099 -0.1414  1.2613
 7999TIP3   OH245487   4.540   5.025   3.142 -0.0673  0.4124 -0.2540
 7999TIP3    H145488   4.506   4.997   3.057 -0.6405  0.7492 -0.1399
 7999TIP3    H245489   4.571   4.944   3.183  1.4324  0.4111 -1.3036
 8000TIP3   OH245490   0.917   5.106   3.847  0.5130 -0.2714  0.0280
 8000TIP3    H145491   0.976   5.174   3.812 -0.9874  1.7577  1.2059
 8000TIP3    H245492   0.841   5.109   3.788 -0.0152 -0.1644  0.7102
 8001TIP3   OH245493   1.932   2.741  12.870 -0.3607  0.5101 -0.1784
 8001TIP3    H145494   1.912   2.683  12.796 -1.1817 -0.3369  0.6801
 8001TIP3    H245495   1.973   2.684  12.935  0.1549  1.2047  0.1127
 8002TIP3   OH245496   1.237   5.165  11.470 -0.0717 -0.2671 -0.1548
 8002TIP3    H145497   1.177   5.103  11.428 -0.2073  0.0625 -0.4493
 8002TIP3    H245498   1.310   5.173  11.407 -0.2892  0.2500 -0.3410
 8003TIP3   OH245499   1.923   3.119  16.566  0.5439 -0.1125 -0.4970
 8003TIP3    H145500   1.868   3.083  16.636  1.1541 -0.7041 -0.3150
 8003TIP3    H245501   1.868   3.116  16.488  0.1010 -0.1066 -0.1862
 8004TIP3   OH245502   4.900   3.472   0.112  0.3910 -0.0500  0.0934
 8004TIP3    H145503   4.970   3.409   0.127  0.0076 -0.2695  1.0548
 8004TIP3    H245504   4.837   3.455   0.182  0.8805  2.2532  1.2017
 8005TIP3   OH245505   1.902   3.633   0.834  0.6741 -0.4910  0.0531
 8005TIP3    H145506   1.810   3.658   0.823  0.3046 -1.0718  1.6454
 8005TIP3    H245507   1.927   3.598   0.748  0.0154  1.4607 -1.0005
 8006TIP3   OH245508   3.497   5.300  11.923 -0.4795 -0.1902 -0.0966
 8006TIP3    H145509   3.509   5.311  12.018  0.3924 -2.1227  0.0645
 8006TIP3    H245510   3.529   5.382  11.886 -0.3549  0.4015  1.2534
 8007TIP3   OH245511   2.857   5.194   2.831  0.0859  0.2669 -0.1286
 8007TIP3    H145512   2.779   5.141   2.812  0.7598 -1.2087  1.0092
 8007TIP3    H245513   2.886   5.225   2.745 -0.1007 -1.6039 -0.9273
 8008TIP3   OH245514   4.163   3.625  12.756  0.7351  0.1518 -0.3337
 8008TIP3    H145515   4.191   3.701  12.705  0.8142  1.1464  1.1303
 8008TIP3    H245516   4.229   3.559  12.738  1.5332  0.9520 -0.4423
 8009TIP3   OH245517   3.305   2.601  15.735  0.4164 -0.7652  0.2138
 8009TIP3    H145518   3.381   2.551  15.767  1.6775  1.2400  0.5663
 8009TIP3    H245519   3.278   2.653  15.810  0.5479  0.6616 -0.6838
 8010TIP3   OH245520   3.667   6.507   1.760  0.0152  0.4457 -0.1934
 8010TIP3    H145521   3.721   6.479   1.686  1.9254  0.7755  1.0076
 8010TIP3    H245522   3.668   6.603   1.755  0.3451  0.4743  0.3827
 8011TIP3   OH245523   5.430   3.506  14.535  0.2276 -0.1860  0.0583
 8011TIP3    H145524   5.516   3.470  14.557 -0.1835 -1.4909 -0.3846
 8011TIP3    H245525   5.383   3.507  14.618  0.1450 -0.9774  0.0310
 8012TIP3   OH245526   5.494   6.118  11.670  0.6155 -0.0230 -0.1853
 8012TIP3    H145527   5.433   6.151  11.736  2.2994  0.8590  1.0187
 8012TIP3    H245528   5.453   6.039  11.636 -1.2974  0.6874  0.3717
 8013TIP3   OH245529   3.546   1.021   5.864 -0.0473 -0.2448  1.0113
 8013TIP3    H145530   3.516   0.962   5.933  0.5797 -1.4911  0.2622
 8013TIP3    H245531   3.624   1.063   5.900 -0.0526 -0.4584  1.2758
 8014TIP3   OH245532   6.225   1.909   4.340  0.4561  0.7575 -0.0883
 8014TIP3    H145533   6.241   1.818   4.318 -0.0672  0.4190  0.8340
 8014TIP3    H245534   6.205   1.951   4.257  0.6466  0.0201 -0.5163
 8015TIP3   OH245535   6.256   3.832  12.521 -0.2716  0.0702  0.1597
 8015TIP3    H145536   6.336   3.884  12.522 -0.9040  1.0638  0.4033
 8015TIP3    H245537   6.222   3.842  12.432  0.8153 -1.8726 -0.5321
 8016TIP3   OH245538   4.362   3.931   3.413 -0.0036 -0.6868 -0.2379
 8016TIP3    H145539   4.411   3.849   3.403  0.6883 -0.2562 -0.4610
 8016TIP3    H245540   4.426   3.999   3.392 -0.6278 -0.0979 -0.2406
 8017TIP3   OH245541   2.652   1.008  12.614  0.0236 -0.4036 -0.6546
 8017TIP3    H145542   2.748   1.003  12.620  0.1321 -1.4653 -2.5374
 8017TIP3    H245543   2.621   0.943  12.676  0.4883  0.1492  0.1871
 8018TIP3   OH245544   3.519   0.810   4.491  0.0523 -0.1807  0.3737
 8018TIP3    H145545   3.513   0.894   4.537 -2.4658 -0.5291  0.8152
 8018TIP3    H245546   3.460   0.819   4.416 -0.1140 -1.4761  0.3255
 8019TIP3   OH245547   0.521   3.084  11.507 -0.3859  0.2688 -0.6218
 8019TIP3    H145548   0.481   3.000  11.531 -1.7321  1.2444  0.7093
 8019TIP3    H245549   0.532   3.131  11.589  1.3230  1.0226 -1.2308
 8020TIP3   OH245550   0.023   4.354   2.624  0.2610 -0.3327  0.2257
 8020TIP3    H145551   0.005   4.441   2.661 -0.1956 -0.2163 -0.2417
 8020TIP3    H245552  -0.062   4.327   2.587  0.7865 -0.2485 -1.1055
 8021TIP3   OH245553   3.705   4.810   0.396 -0.6394  0.1237 -0.6054
 8021TIP3    H145554   3.656   4.755   0.334  0.2456 -0.3338 -0.9068
 8021TIP3    H245555   3.647   4.817   0.472 -1.7347  0.6805 -1.4650
 8022TIP3   OH245556   0.967   4.381  11.978 -0.5920  0.4630 -0.1516
 8022TIP3    H145557   0.959   4.320  12.052 -0.3791  1.5009  0.7637
 8022TIP3    H245558   1.046   4.354  11.933 -0.2882  0.2934  0.4737
 8023TIP3   OH245559   6.096   5.947   6.130 -0.1113  0.2784  0.5976
 8023TIP3    H145560   6.079   6.027   6.180  0.9205  0.4800  0.6507
 8023TIP3    H245561   6.162   5.901   6.181 -1.4679 -1.1615  1.1334
 8024TIP3   OH245562   0.239   6.635   4.385 -0.0443 -0.1223  0.3087
 8024TIP3    H145563   0.293   6.558   4.405  3.6326  1.4328 -2.4250
 8024TIP3    H245564   0.208   6.620   4.295  1.4466  1.7848 -0.6111
 8025TIP3   OH245565   2.216   1.467  16.367 -0.1025 -0.1248 -0.1523
 8025TIP3    H145566   2.303   1.464  16.408  0.0936  0.6704 -0.4795
 8025TIP3    H245567   2.174   1.545  16.405 -0.1148  0.3261 -1.0493
 8026TIP3   OH245568   4.358   1.319   4.174  0.1687 -0.0671 -0.3022
 8026TIP3    H145569   4.309   1.382   4.122  0.0362  0.4285  0.4125
 8026TIP3    H245570   4.295   1.286   4.238  0.6386  0.2300  0.3254
 8027TIP3   OH245571   3.422   0.063   6.288 -0.0130 -0.3821 -0.2561
 8027TIP3    H145572   3.487   0.079   6.356  0.1027  0.4323 -0.5511
 8027TIP3    H245573   3.343   0.039   6.337  0.0202  0.3690  0.1841
 8028TIP3   OH245574   3.561   4.816   1.291 -0.2097  0.1010 -0.6624
 8028TIP3    H145575   3.575   4.745   1.230  3.7027  0.2195 -0.1588
 8028TIP3    H245576   3.528   4.774   1.371  0.2752 -0.8967 -0.9779
 8029TIP3   OH245577   2.898   4.817  16.604 -0.3825 -0.5898  0.2598
 8029TIP3    H145578   2.836   4.847  16.538 -0.3062  0.0285  0.4680
 8029TIP3    H245579   2.876   4.725  16.617  0.4697 -1.1283 -1.6159
 8030TIP3   OH245580   3.576   5.527  13.511 -0.5011 -0.3668  0.7179
 8030TIP3    H145581   3.645   5.480  13.558  0.1077 -0.9667 -0.7177
 8030TIP3    H245582   3.517   5.459  13.479 -1.0807  0.0509  0.8706
 8031TIP3   OH245583   0.930   0.223  14.072  0.2890 -0.0433  0.1809
 8031TIP3    H145584   0.982   0.156  14.028 -0.0240 -0.6282  0.6764
 8031TIP3    H245585   0.994   0.288  14.101  0.4535  0.6158 -1.5293
 8032TIP3   OH245586   3.969   5.524   3.648  0.0508  0.6474  0.4276
 8032TIP3    H145587   3.992   5.529   3.555 -0.2710  0.3392  0.3299
 8032TIP3    H245588   4.046   5.489   3.691 -0.6486 -1.6479 -0.0738
 8033TIP3   OH245589   0.590   5.487  14.844 -0.4715  0.3704  0.2030
 8033TIP3    H145590   0.569   5.424  14.775 -0.2166  1.5440 -0.9874
 8033TIP3    H245591   0.650   5.549  14.803  1.0407  0.1828  1.9644
 8034TIP3   OH245592   6.065   3.796   1.611 -0.5146 -0.1559 -0.1863
 8034TIP3    H145593   6.067   3.892   1.615  0.4421 -0.0849 -1.6827
 8034TIP3    H245594   6.051   3.776   1.519 -1.5784 -1.4768  0.2275
 8035TIP3   OH245595   1.158   0.399  11.500  0.4903 -0.3176 -0.4427
 8035TIP3    H145596   1.207   0.333  11.452  0.0350 -0.3635 -0.8532
 8035TIP3    H245597   1.121   0.456  11.432  1.2905  0.6672 -0.0884
 8036TIP3   OH245598   4.963   4.373   4.333  0.1557  0.1883 -0.2201
 8036TIP3    H145599   5.003   4.298   4.379  0.2252 -1.2463 -2.4791
 8036TIP3    H245600   5.036   4.433   4.319  0.7750 -0.7075 -1.0033
 8037TIP3   OH245601   1.376   5.760  14.817  0.4748  0.0408 -0.1590
 8037TIP3    H145602   1.437   5.808  14.760 -0.0875  0.2711 -0.5799
 8037TIP3    H245603   1.318   5.827  14.852  1.4762  0.0560  1.5804
 8038TIP3   OH245604   0.575   3.901  10.795  0.2082 -0.7697  0.5818
 8038TIP3    H145605   0.578   3.816  10.839 -0.8306 -0.8116  0.5910
 8038TIP3    H245606   0.572   3.880  10.701  1.3572 -0.6997  0.5103
 8039TIP3   OH245607   4.334   2.183   5.365  0.4756  0.0545 -0.2063
 8039TIP3    H145608   4.296   2.200   5.452  0.1740  0.6813 -0.4611
 8039TIP3    H245609   4.398   2.253   5.352  0.8401 -0.2906 -0.3108
 8040TIP3   OH245610   3.797   2.596   4.215 -0.2143 -0.3233  0.4797
 8040TIP3    H145611   3.776   2.664   4.279  0.6605  1.1229 -0.7072
 8040TIP3    H245612   3.799   2.642   4.131 -0.0183 -1.9100 -0.4182
 8041TIP3   OH245613   3.436   0.990  15.415  0.1731 -0.0004 -0.0530
 8041TIP3    H145614   3.383   0.997  15.493 -0.9887 -1.2554 -0.7040
 8041TIP3    H245615   3.391   1.044  15.350  1.5898  1.7534  0.3120
 8042TIP3   OH245616   0.498   6.064   0.636  0.6832  0.0034 -0.4480
 8042TIP3    H145617   0.505   6.072   0.540 -1.2747 -2.2175 -0.8929
 8042TIP3    H245618   0.405   6.077   0.654  0.5409 -2.2335  0.7659
 8043TIP3   OH245619   0.188   1.714  15.783  0.0137  0.1060  0.0885
 8043TIP3    H145620   0.141   1.656  15.841 -0.0657  0.7051  0.6358
 8043TIP3    H245621   0.271   1.731  15.828 -0.1097  0.6897  0.1025
 8044TIP3   OH245622   2.702   5.348  16.568  0.3730  0.4166 -0.2230
 8044TIP3    H145623   2.752   5.414  16.520 -0.9085 -0.2192 -2.6098
 8044TIP3    H245624   2.720   5.266  16.521 -1.0948 -0.2002  0.2378
 8045TIP3   OH245625   3.799   4.941  14.157  0.4108 -0.4105 -0.4086
 8045TIP3    H145626   3.819   4.849  14.137  0.7399 -0.8347  1.6287
 8045TIP3    H245627   3.703   4.944  14.164  0.4156 -0.6832 -0.1990
 8046TIP3   OH245628   4.320   1.387  15.286  0.4168 -0.0396  0.1154
 8046TIP3    H145629   4.243   1.382  15.229  0.4408 -0.6739  0.1302
 8046TIP3    H245630   4.375   1.313  15.259  0.1605 -0.7136  1.3495
 8047TIP3   OH245631   5.781   6.459  13.770 -0.7614 -0.3076 -0.1800
 8047TIP3    H145632   5.825   6.444  13.854  0.1126  1.6711 -0.2392
 8047TIP3    H245633   5.832   6.410  13.707  0.8209  1.1301 -0.0838
 8048TIP3   OH245634   2.808   0.382  16.264  0.4599  0.3323 -0.3367
 8048TIP3    H145635   2.802   0.391  16.359  1.3034  0.0918 -0.2564
 8048TIP3    H245636   2.783   0.469  16.231  1.9867  1.0194  0.1932
 8049TIP3   OH245637   4.522   0.944  13.890 -0.5021 -0.9469 -0.1303
 8049TIP3    H145638   4.473   1.025  13.903  0.5729 -0.5112  1.4545
 8049TIP3    H245639   4.544   0.945  13.797  1.9666  2.1275  0.2790
 8050TIP3   OH245640   5.738   0.082  12.567 -0.6121  0.1897  0.5751
 8050TIP3    H145641   5.741  -0.006  12.531 -0.3028  0.9384 -1.3963
 8050TIP3    H245642   5.661   0.122  12.526 -0.4411  0.9861  1.0014
 8051TIP3   OH245643   4.451   4.388  13.823  0.4787 -0.5144  0.1780
 8051TIP3    H145644   4.374   4.441  13.800  0.0610 -0.7790  0.9317
 8051TIP3    H245645   4.523   4.450  13.829 -0.1566  0.0997  1.8202
 8052TIP3   OH245646   4.567   2.069  12.023 -0.0616 -0.8733  0.7463
 8052TIP3    H145647   4.544   2.162  12.027  0.7372 -0.3770 -3.0672
 8052TIP3    H245648   4.499   2.029  11.969  1.1508 -1.8877 -0.0958
 8053TIP3   OH245649   5.333   0.074   4.245  0.2526 -0.0366 -0.3755
 8053TIP3    H145650   5.285   0.126   4.181  0.0390 -0.4912 -0.5942
 8053TIP3    H245651   5.406   0.129   4.272  0.2272  0.2344 -0.8599
 8054TIP3   OH245652   0.947   5.657  16.848 -0.1781  0.2041 -0.0386
 8054TIP3    H145653   0.875   5.598  16.825 -1.8275  2.1692 -0.2176
 8054TIP3    H245654   0.907   5.722  16.906  0.9674  2.3960 -1.5323
 8055TIP3   OH245655   1.020   2.350  14.250  0.5225  0.1275  0.5290
 8055TIP3    H145656   1.092   2.299  14.287  0.5677  1.2449  2.0842
 8055TIP3    H245657   1.027   2.436  14.292 -0.7641  0.7726 -0.4877
 8056TIP3   OH245658   1.029   0.523   0.132 -0.3745 -0.2748 -0.1973
 8056TIP3    H145659   1.115   0.498   0.163 -0.4639 -0.5918 -0.2058
 8056TIP3    H245660   0.968   0.483   0.194 -0.5081  0.1329 -0.0614
 8057TIP3   OH245661   6.378   5.696   2.166  0.0857 -0.1314 -0.2827
 8057TIP3    H145662   6.402   5.663   2.080  0.6598  1.1739 -0.6495
 8057TIP3    H245663   6.300   5.750   2.150 -0.1895 -0.3951  0.1294
 8058TIP3   OH245664   6.572   0.744  15.876 -0.4088 -0.3738 -0.5584
 8058TIP3    H145665   6.661   0.723  15.847  0.0679  1.0473 -0.1849
 8058TIP3    H245666   6.516   0.687  15.823  0.7186 -1.4105 -0.6842
 8059TIP3   OH245667   4.031   0.807   4.247 -0.1232  0.6662 -0.2190
 8059TIP3    H145668   4.113   0.820   4.295  0.5019  1.1903 -1.4083
 8059TIP3    H245669   3.970   0.776   4.314  1.4708 -1.4281  0.3677
 8060TIP3   OH245670   6.736   2.999   2.829 -0.1617  0.6089 -0.1756
 8060TIP3    H145671   6.766   3.084   2.862  0.4145  0.4883 -0.3663
 8060TIP3    H245672   6.813   2.963   2.785 -0.5765  0.2489 -0.6127
 8061TIP3   OH245673   4.833   6.035  14.419 -0.1812 -0.4411 -0.8791
 8061TIP3    H145674   4.864   6.089  14.346 -0.3144  1.1340  0.1761
 8061TIP3    H245675   4.826   5.947  14.383  0.9778  0.0587 -2.4074
 8062TIP3   OH245676   6.727   6.594  11.968  0.1911 -0.3961 -0.3666
 8062TIP3    H145677   6.708   6.512  12.012  1.9859 -2.0432 -2.4506
 8062TIP3    H245678   6.643   6.623  11.934 -0.5324 -1.1102  0.7287
 8063TIP3   OH245679   4.394   0.586  15.226 -0.2412  0.4139  0.2656
 8063TIP3    H145680   4.337   0.522  15.269  0.0845 -0.0378  0.0329
 8063TIP3    H245681   4.454   0.533  15.173 -1.2694  0.9566 -1.5547
 8064TIP3   OH245682   3.182   4.818  13.082  0.2588  0.6719  0.3120
 8064TIP3    H145683   3.238   4.741  13.090 -2.0262 -1.1726 -0.1679
 8064TIP3    H245684   3.093   4.784  13.096 -0.9808  2.9754 -1.2588
 8065TIP3   OH245685   5.083   4.696   3.177 -0.0407  0.0940 -0.3352
 8065TIP3    H145686   5.002   4.675   3.130 -0.9766 -0.3737  1.3903
 8065TIP3    H245687   5.131   4.754   3.118 -2.5039  1.9603 -0.6569
 8066TIP3   OH245688   2.421   4.698   3.998  0.3206  0.1732 -0.0210
 8066TIP3    H145689   2.327   4.709   3.980  0.2841  1.4422  0.8180
 8066TIP3    H245690   2.456   4.659   3.918 -1.2161 -2.0964  0.3404
 8067TIP3   OH245691   4.550   2.747   4.892  0.0577  0.2171 -0.0172
 8067TIP3    H145692   4.575   2.723   4.803  0.2780 -1.5140  0.4676
 8067TIP3    H245693   4.632   2.757   4.939 -0.0604  0.6804  0.0889
 8068TIP3   OH245694   5.925   0.936   1.260 -0.2925  0.1024 -0.1137
 8068TIP3    H145695   5.862   0.901   1.323  0.8113 -1.7625  0.0608
 8068TIP3    H245696   5.934   0.867   1.194  0.0750  1.1718 -1.2169
 8069TIP3   OH245697   3.675   1.489   4.378  0.5942  0.6209 -0.1352
 8069TIP3    H145698   3.580   1.478   4.386  0.6000  0.5576 -0.1480
 8069TIP3    H245699   3.694   1.468   4.286  0.2409  3.4481 -0.9381
 8070TIP3   OH245700   4.804   6.158  12.958  0.1521  0.4285 -0.2883
 8070TIP3    H145701   4.779   6.212  13.033 -2.8034 -1.2490  0.0672
 8070TIP3    H245702   4.818   6.221  12.887 -1.0649  1.7939  0.6302
 8071TIP3   OH245703   2.394   0.610  13.891  0.2143  0.3217 -0.6311
 8071TIP3    H145704   2.375   0.669  13.963  0.3064  0.2520 -0.5510
 8071TIP3    H245705   2.335   0.638  13.821  0.9168  1.1144 -0.9191
 8072TIP3   OH245706   6.052   0.192   3.354  0.8037  0.6236 -0.0661
 8072TIP3    H145707   6.008   0.238   3.425  0.6978  1.2655 -0.5314
 8072TIP3    H245708   6.053   0.100   3.381 -2.1692  0.3167 -0.6900
 8073TIP3   OH245709   6.814   0.062   1.182  0.0095  0.1792  0.7160
 8073TIP3    H145710   6.876   0.106   1.124 -0.3552 -0.0805  0.1203
 8073TIP3    H245711   6.823   0.107   1.266  3.2701 -1.8423  1.6131
 8074TIP3   OH245712   3.130   1.338   0.206 -0.0862 -0.3688 -0.7088
 8074TIP3    H145713   3.221   1.312   0.189  0.1103  0.4389 -0.9336
 8074TIP3    H245714   3.111   1.301   0.292  0.0430 -1.5850 -1.1832
 8075TIP3   OH245715   1.675   3.008   0.032  0.1773  0.1436 -0.4792
 8075TIP3    H145716   1.737   2.992   0.104 -1.3301  2.5078  1.4793
 8075TIP3    H245717   1.610   2.939   0.041 -0.9624  1.3920  1.6612
 8076TIP3   OH245718   2.916   0.987   0.512  0.2486  0.1682  0.3360
 8076TIP3    H145719   2.901   0.947   0.426  0.3717 -1.1484  0.8911
 8076TIP3    H245720   2.843   0.956   0.565  0.3032  0.7749  0.7748
 8077TIP3   OH245721   5.188   5.831   1.394  0.1557 -0.5960 -0.1783
 8077TIP3    H145722   5.220   5.758   1.341  1.9468  1.0740 -1.5891
 8077TIP3    H245723   5.146   5.790   1.470 -1.7228 -3.1073 -2.3774
 8078TIP3   OH245724   0.129   0.254  10.712 -0.6882  0.3196  0.1532
 8078TIP3    H145725   0.121   0.185  10.778 -1.1318  1.9495  1.9033
 8078TIP3    H245726   0.059   0.236  10.649  0.8353 -2.2845 -0.9539
 8079TIP3   OH245727   4.374   2.614   2.254  0.2791 -0.2396 -0.4621
 8079TIP3    H145728   4.451   2.559   2.269  0.0679 -0.5665 -0.5798
 8079TIP3    H245729   4.378   2.680   2.323 -0.0601 -1.0501  0.3519
 8080TIP3   OH245730   4.682   0.267   4.507 -0.0036 -0.4367 -0.5359
 8080TIP3    H145731   4.596   0.306   4.497  0.2760  0.5500  0.6896
 8080TIP3    H245732   4.696   0.218   4.426 -0.6517  1.4329 -1.8401
 8081TIP3   OH245733   1.570   2.237   6.011  0.4521  0.1450  0.0848
 8081TIP3    H145734   1.552   2.162   6.069  0.8752  0.2592  0.3712
 8081TIP3    H245735   1.573   2.312   6.070  1.8523  0.1316  0.0682
 8082TIP3   OH245736   2.206   5.165   5.789  0.4446  0.2875 -0.5323
 8082TIP3    H145737   2.245   5.207   5.866 -0.3510  0.9563 -0.4833
 8082TIP3    H245738   2.164   5.236   5.742 -1.1849 -0.4779 -0.3040
 8083TIP3   OH245739   6.486   2.386  16.623  0.1060 -0.1178 -0.0161
 8083TIP3    H145740   6.579   2.406  16.607  0.3389 -0.3604  0.9577
 8083TIP3    H245741   6.439   2.436  16.556  0.8850  0.8573  0.1323
 8084TIP3   OH245742   4.072   3.835  15.469  0.2974 -0.1272  0.5015
 8084TIP3    H145743   4.155   3.830  15.422  0.3515 -1.8450  0.7381
 8084TIP3    H245744   4.092   3.805  15.557 -0.4613  0.0374  0.7416
 8085TIP3   OH245745   0.813   1.837   3.671  0.1288 -0.4221  0.3336
 8085TIP3    H145746   0.739   1.898   3.674  0.6680  0.2225  0.8533
 8085TIP3    H245747   0.773   1.751   3.658 -0.7927 -0.2206  1.6417
 8086TIP3   OH245748   1.671   4.098  16.623 -0.2573  1.1729 -0.3031
 8086TIP3    H145749   1.649   4.089  16.530  0.9057  1.8873 -0.6581
 8086TIP3    H245750   1.764   4.076  16.628 -0.7045 -0.6848  0.9983
 8087TIP3   OH245751   2.535   2.016   5.128  0.1214  0.4175  0.2179
 8087TIP3    H145752   2.610   2.025   5.187  0.4148 -0.1064 -0.0703
 8087TIP3    H245753   2.530   1.922   5.109 -1.4547  0.2407  1.3285
 8088TIP3   OH245754   1.022   1.972   0.954 -0.3142 -0.2843 -0.0274
 8088TIP3    H145755   0.975   1.952   0.873 -1.4757  0.8329  0.3392
 8088TIP3    H245756   1.011   2.066   0.966  2.0937  0.0611  0.0736
 8089TIP3   OH245757   6.764   2.623   3.918  0.0172  0.5785 -0.0599
 8089TIP3    H145758   6.850   2.664   3.907  0.2636  0.7474  2.0567
 8089TIP3    H245759   6.749   2.624   4.013 -1.2783 -1.6134 -0.1797
 8090TIP3   OH245760   0.878   5.370  14.454  0.1358  0.5197 -0.1405
 8090TIP3    H145761   0.902   5.433  14.522 -0.0773  0.4109  0.0360
 8090TIP3    H245762   0.812   5.314  14.495  2.5411 -1.8304  0.7977
 8091TIP3   OH245763   5.323   2.853  13.564 -0.1921  0.1118  0.8750
 8091TIP3    H145764   5.362   2.876  13.479 -0.4405 -0.1755  0.6788
 8091TIP3    H245765   5.392   2.806  13.610 -0.2290 -0.1936  0.6203
 8092TIP3   OH245766   4.411   0.355   1.393  0.0969 -0.4089 -0.1265
 8092TIP3    H145767   4.413   0.350   1.297 -0.7686  1.6298 -0.3128
 8092TIP3    H245768   4.467   0.430   1.414  0.0008 -0.6261  0.9445
 8093TIP3   OH245769   0.524   1.218  15.877 -0.1896  0.0733  0.1168
 8093TIP3    H145770   0.575   1.168  15.940 -0.5059 -1.2536 -0.6444
 8093TIP3    H245771   0.505   1.156  15.807 -1.8819  0.8388 -0.1527
 8094TIP3   OH245772   4.853   1.696   0.581 -0.0393 -0.2176 -0.2975
 8094TIP3    H145773   4.805   1.683   0.663  2.3220  3.0349  1.8769
 8094TIP3    H245774   4.787   1.725   0.518 -1.4382  1.1154  1.6548
 8095TIP3   OH245775   3.252   0.056   4.077  0.2725  0.3789  0.1810
 8095TIP3    H145776   3.244   0.097   3.991 -1.4548  2.4345  1.2300
 8095TIP3    H245777   3.167   0.014   4.092  1.0596 -1.2217  0.3097
 8096TIP3   OH245778   0.457   0.703  14.166 -0.0005  0.3217 -0.0789
 8096TIP3    H145779   0.398   0.707  14.092  2.1980  0.2795 -1.9360
 8096TIP3    H245780   0.427   0.627  14.216 -3.3850  2.0710  0.8942
 8097TIP3   OH245781   3.898   3.467   4.921  0.1260 -0.0387 -0.1459
 8097TIP3    H145782   3.993   3.476   4.909  0.2917 -0.7474  0.5507
 8097TIP3    H245783   3.888   3.445   5.014 -0.6537 -0.7930 -0.3981
 8098TIP3   OH245784   0.952   3.470  11.851 -0.1381 -0.0573  0.4838
 8098TIP3    H145785   0.989   3.456  11.938  0.7390  0.5573  0.2245
 8098TIP3    H245786   0.914   3.386  11.827  1.4614 -0.8533  0.6041
 8099TIP3   OH245787   1.229   3.737  14.290 -0.1621  0.3531  0.1443
 8099TIP3    H145788   1.305   3.709  14.238  0.5557  0.5475  1.0510
 8099TIP3    H245789   1.154   3.719  14.235  0.5654  0.4054 -0.8949
 8100TIP3   OH245790   4.355   5.092  12.750  0.8838 -0.1897  0.1777
 8100TIP3    H145791   4.401   5.177  12.751  1.1724 -0.3474  0.5333
 8100TIP3    H245792   4.275   5.109  12.701  1.4431  0.0286 -0.6938
 8101TIP3   OH245793   0.882   3.298   0.007 -0.5384 -0.0542  0.3031
 8101TIP3    H145794   0.922   3.377   0.045  0.0206 -0.5776  0.8104
 8101TIP3    H245795   0.788   3.310   0.021 -0.5514  1.0054 -0.5519
 8102TIP3   OH245796   0.766   3.652  15.720 -0.1744 -0.2285 -0.2486
 8102TIP3    H145797   0.767   3.663  15.815 -1.2373 -1.0862 -0.1247
 8102TIP3    H245798   0.848   3.606  15.701 -0.0500 -0.2268  0.2707
 8103TIP3   OH245799   1.713   6.137   1.002  0.1987  0.7128 -0.3033
 8103TIP3    H145800   1.674   6.082   1.071  0.1095 -0.0124 -0.9221
 8103TIP3    H245801   1.713   6.082   0.924  3.4749  0.2819 -0.1072
 8104TIP3   OH245802   0.840   0.678  12.996  0.3345 -0.1613  0.0932
 8104TIP3    H145803   0.831   0.650  13.088 -1.0288  0.0628  0.0482
 8104TIP3    H245804   0.904   0.749  12.999  1.2596 -0.9944  0.6884
 8105TIP3   OH245805   5.565   2.199  14.699 -0.1564 -0.4261  0.3273
 8105TIP3    H145806   5.654   2.166  14.700  0.0892  0.2000 -0.2335
 8105TIP3    H245807   5.511   2.124  14.676  0.2565 -0.7259  0.3373
 8106TIP3   OH245808   6.426   1.328  16.712 -0.7203  0.1908 -0.4748
 8106TIP3    H145809   6.359   1.329  16.781 -0.3361  1.7422 -0.0810
 8106TIP3    H245810   6.387   1.378  16.640 -1.0141 -1.1982 -1.3139
 8107TIP3   OH245811   1.217   4.276   1.236  0.2092 -0.0955  0.2354
 8107TIP3    H145812   1.312   4.274   1.225  0.2288 -3.0470  0.1865
 8107TIP3    H245813   1.204   4.312   1.324  1.4013 -0.0791  0.4251
 8108TIP3   OH245814   5.602   4.972   0.766  0.8817 -0.3457 -0.6505
 8108TIP3    H145815   5.638   5.025   0.837 -0.8804  0.3370 -0.2248
 8108TIP3    H245816   5.577   5.036   0.699  1.8705 -0.9288 -1.6224
 8109TIP3   OH245817   6.103   0.090  11.118  0.0831  0.4518 -0.3514
 8109TIP3    H145818   6.129   0.105  11.027 -1.3237 -2.3100 -1.3175
 8109TIP3    H245819   6.009   0.107  11.120  0.3524  2.1639  1.0871
 8110TIP3   OH245820   4.301   2.070   2.123  0.6675  0.4774  0.3617
 8110TIP3    H145821   4.258   1.984   2.125  1.2230  0.1946  2.3472
 8110TIP3    H245822   4.389   2.051   2.091  1.2713  0.0060  2.1647
 8111TIP3   OH245823   2.190   3.183   5.675  0.2868  0.2069 -0.0049
 8111TIP3    H145824   2.153   3.254   5.622  0.8590 -2.0305 -3.8233
 8111TIP3    H245825   2.147   3.191   5.760 -2.0632  3.1200 -1.2765
 8112TIP3   OH245826   6.606   4.509   3.911 -0.4253  0.0852 -0.4257
 8112TIP3    H145827   6.557   4.431   3.934  1.9565 -1.7471 -1.1870
 8112TIP3    H245828   6.585   4.526   3.819 -0.9729  0.3847 -0.2479
 8113TIP3   OH245829   2.555   3.898  12.029  0.9146  0.0558  0.2763
 8113TIP3    H145830   2.550   3.912  12.123 -0.4541 -2.5696  0.6691
 8113TIP3    H245831   2.464   3.905  11.999  1.2192 -0.0449 -0.7237
 8114TIP3   OH245832   1.640   1.450  12.051  0.0429  0.5608 -0.4739
 8114TIP3    H145833   1.664   1.531  12.096  1.6735 -0.8580  1.3845
 8114TIP3    H245834   1.723   1.416  12.016 -0.4654 -0.7001 -0.5209
 8115TIP3   OH245835   2.278   0.713   1.610  0.0381  0.5365  0.6440
 8115TIP3    H145836   2.261   0.803   1.584  1.1560  1.0538  1.5889
 8115TIP3    H245837   2.339   0.721   1.684 -0.5228 -0.9575  1.3036
 8116TIP3   OH245838   3.151   2.196   3.993 -0.2148 -0.6676  0.5851
 8116TIP3    H145839   3.246   2.185   3.996 -0.2678 -1.2206  0.2771
 8116TIP3    H245840   3.120   2.122   3.941 -0.5847  0.9061 -1.5431
 8117TIP3   OH245841   4.439   1.408   0.622 -0.1124  0.2471 -0.5631
 8117TIP3    H145842   4.454   1.491   0.577 -0.3089 -0.1598 -1.3947
 8117TIP3    H245843   4.411   1.348   0.553  2.6911 -1.2933 -0.5206
 8118TIP3   OH245844   6.127   3.273   0.073  0.0100 -0.3957 -0.0497
 8118TIP3    H145845   6.121   3.188   0.030  1.1958 -0.1018 -0.8600
 8118TIP3    H245846   6.050   3.321   0.043  0.3668 -0.5024 -1.1926
 8119TIP3   OH245847   6.252   0.979   5.340 -0.2691 -0.5439 -0.1799
 8119TIP3    H145848   6.300   1.008   5.263 -1.7331  0.9515 -0.5916
 8119TIP3    H245849   6.308   0.913   5.381  2.5960  1.8141 -0.0290
 8120TIP3   OH245850   4.565   0.421  16.009  0.4529 -0.1955  0.0519
 8120TIP3    H145851   4.476   0.456  16.019 -0.2146 -1.1022 -2.0715
 8120TIP3    H245852   4.589   0.444  15.919  3.1743  1.6605  1.1297
 8121TIP3   OH245853   0.185   3.611  13.105  0.4240 -0.4539  0.5846
 8121TIP3    H145854   0.259   3.632  13.163  1.0099 -2.2310  0.5388
 8121TIP3    H245855   0.126   3.559  13.159  0.9702 -2.1194 -0.3469
 8122TIP3   OH245856   6.444   1.018  13.231 -0.0411 -1.0438 -0.2162
 8122TIP3    H145857   6.469   0.952  13.295 -0.4936  0.3801  1.5120
 8122TIP3    H245858   6.349   1.016  13.230 -0.2426  1.4087  2.0436
 8123TIP3   OH245859   0.270   5.101  13.745  0.2372  0.1357 -0.1475
 8123TIP3    H145860   0.272   5.197  13.746  2.1621  0.1421 -0.4915
 8123TIP3    H245861   0.303   5.078  13.658 -1.6065 -0.8708 -0.6354
 8124TIP3   OH245862   4.271   3.714   3.078  0.0331 -0.0951  0.1987
 8124TIP3    H145863   4.288   3.806   3.097 -0.5462 -0.0716  0.6371
 8124TIP3    H245864   4.175   3.707   3.077  0.0643 -0.5753 -0.4109
 8125TIP3   OH245865   2.547   3.751  16.384  0.4004  0.0930  0.1672
 8125TIP3    H145866   2.628   3.702  16.402  1.4533  1.6462 -0.1372
 8125TIP3    H245867   2.571   3.812  16.314 -1.6165 -0.7950 -1.4048
 8126TIP3   OH245868   6.335   2.077   5.722  0.4303 -0.6066 -0.2086
 8126TIP3    H145869   6.423   2.055   5.691  1.2639  0.7669  1.0357
 8126TIP3    H245870   6.282   2.001   5.700  2.0382 -1.6692 -0.5810
 8127TIP3   OH245871   2.193   6.275  13.618 -0.2381  0.2355 -0.2086
 8127TIP3    H145872   2.236   6.343  13.669 -0.5061  0.1289  0.1679
 8127TIP3    H245873   2.263   6.235  13.566  0.1346  0.0083  0.4579
 8128TIP3   OH245874   0.929   1.695  16.043 -0.1832 -0.1018 -0.6273
 8128TIP3    H145875   0.852   1.645  16.019  0.1528 -0.2823 -1.3463
 8128TIP3    H245876   0.923   1.776  15.993  0.3360 -0.3238 -1.0615
 8129TIP3   OH245877   6.361   3.739   3.251  0.4743  0.2691  0.3752
 8129TIP3    H145878   6.355   3.766   3.159 -0.0941 -0.9421  0.0334
 8129TIP3    H245879   6.271   3.725   3.278  0.6774 -0.0370  0.9157
 8130TIP3   OH245880   5.654   2.159  16.699  0.0895 -0.8090  0.0722
 8130TIP3    H145881   5.630   2.067  16.713  1.3873 -1.2118 -0.1609
 8130TIP3    H245882   5.643   2.200  16.784  1.3689 -1.6533  0.6789
 8131TIP3   OH245883   3.782   2.093  14.590  0.2787 -0.5993  0.8554
 8131TIP3    H145884   3.729   2.014  14.579 -0.2907 -0.1897  0.6066
 8131TIP3    H245885   3.864   2.073  14.544 -0.3102 -0.6167 -0.2299
 8132TIP3   OH245886   5.534   1.916   2.246  0.1573  0.1022 -0.4821
 8132TIP3    H145887   5.553   1.944   2.336  1.0744 -0.8268 -0.3634
 8132TIP3    H245888   5.511   1.824   2.254 -1.7463  0.4992 -0.9899
 8133TIP3   OH245889   5.331   6.659  15.446  0.2902 -0.1028 -0.1652
 8133TIP3    H145890   5.420   6.691  15.461  1.0055 -1.5250 -1.2094
 8133TIP3    H245891   5.275   6.736  15.462  1.8230  1.2849 -1.2181
 8134TIP3   OH245892   1.747   5.660   2.407 -0.4491  0.2479  0.8401
 8134TIP3    H145893   1.677   5.630   2.349 -0.7633 -0.4000  1.5317
 8134TIP3    H245894   1.773   5.582   2.456  0.6386  0.5193  0.7300
 8135TIP3   OH245895   0.613   0.374   0.078 -0.0955  0.0142 -0.7285
 8135TIP3    H145896   0.699   0.382   0.118 -0.2534  0.1261 -0.4049
 8135TIP3    H245897   0.554   0.354   0.150 -0.3510  0.0001 -0.9360
 8136TIP3   OH245898   5.563   5.331   5.907  0.9185  0.4859 -0.0466
 8136TIP3    H145899   5.538   5.266   5.972 -1.3794 -1.6452 -2.8256
 8136TIP3    H245900   5.641   5.294   5.866  0.4587  0.1920 -0.6608
 8137TIP3   OH245901   0.700   1.549   0.261  0.0760  0.7694  0.4838
 8137TIP3    H145902   0.777   1.517   0.214  0.2115  0.5177  0.8680
 8137TIP3    H245903   0.638   1.476   0.258  0.2507  0.5904  1.0619
 8138TIP3   OH245904   4.022   4.147   0.065  0.4505  0.0619 -0.0792
 8138TIP3    H145905   3.978   4.209   0.124  0.2328 -1.4355  1.4016
 8138TIP3    H245906   3.951   4.098   0.024  0.5750  1.3349 -1.9837
 8139TIP3   OH245907   2.463   4.159   5.533  0.2157  0.0045  0.2575
 8139TIP3    H145908   2.535   4.147   5.471 -1.2351  0.3280 -1.5779
 8139TIP3    H245909   2.427   4.246   5.512 -0.2946  0.1426  1.5950
 8140TIP3   OH245910   4.515   1.775  13.124 -0.3057 -0.1147 -0.6218
 8140TIP3    H145911   4.497   1.747  13.214  1.7761  2.9017  0.8745
 8140TIP3    H245912   4.520   1.693  13.075  0.6824 -2.0560  2.4223
 8141TIP3   OH245913   4.553   1.453   1.148  0.2021 -0.2796  0.3284
 8141TIP3    H145914   4.535   1.376   1.095  1.0612 -0.6838  0.5994
 8141TIP3    H245915   4.630   1.493   1.108 -0.4904  0.6878 -0.0619
 8142TIP3   OH245916   4.246   6.453  16.663  0.1555  0.2061 -0.3387
 8142TIP3    H145917   4.326   6.504  16.649  1.2119 -1.2634  0.1749
 8142TIP3    H245918   4.217   6.478  16.751  0.2022  0.5093 -0.4062
 8143TIP3   OH245919   4.888   2.426  13.893 -0.4064  0.6710  0.3940
 8143TIP3    H145920   4.984   2.438  13.892 -0.4206  0.7925 -0.6841
 8143TIP3    H245921   4.854   2.515  13.890 -0.5830  0.7183  2.6251
 8144TIP3   OH245922   5.778   3.459   3.224 -0.2651  0.0135 -0.0286
 8144TIP3    H145923   5.767   3.532   3.285 -1.8775  0.3147 -0.6252
 8144TIP3    H245924   5.694   3.453   3.178  0.4589 -1.0529 -1.2871
 8145TIP3   OH245925   3.047   0.432  16.736 -0.1675  0.1514  0.4941
 8145TIP3    H145926   3.076   0.463  16.650 -0.6547 -0.3351  0.1526
 8145TIP3    H245927   2.982   0.496  16.763 -2.3987 -1.3566 -0.9390
 8146TIP3   OH245928   1.515   3.200  11.680  0.5371 -0.2967 -0.2159
 8146TIP3    H145929   1.529   3.108  11.657  2.1650  0.4347 -2.5880
 8146TIP3    H245930   1.475   3.238  11.602 -0.0607  1.0281  0.7116
 8147TIP3   OH245931   4.295   6.805   1.677 -0.1090  0.0260 -0.0064
 8147TIP3    H145932   4.282   6.891   1.717  0.4566  1.3209 -2.3844
 8147TIP3    H245933   4.364   6.819   1.612  0.6411 -2.4645  0.1227
 8148TIP3   OH245934   2.625   1.672  16.378  0.0063 -0.4183 -0.3432
 8148TIP3    H145935   2.665   1.726  16.446 -0.5713 -1.4379  0.8439
 8148TIP3    H245936   2.692   1.608  16.355 -0.0007 -0.4295 -0.3329
 8149TIP3   OH245937   5.685   2.793  16.343  0.0888  0.1061  0.5003
 8149TIP3    H145938   5.658   2.780  16.252 -0.6005 -0.6587  0.7946
 8149TIP3    H245939   5.673   2.886  16.359 -1.8251 -0.0725  0.4035
 8150TIP3   OH245940   2.267   3.969  14.315  0.6916 -0.1450 -0.0196
 8150TIP3    H145941   2.287   3.957  14.223 -1.2048  0.1989 -0.5210
 8150TIP3    H245942   2.183   4.016  14.316 -0.0587 -1.3926  1.8683
 8151TIP3   OH245943   0.862   0.832   5.718 -0.3951  0.1707  0.1589
 8151TIP3    H145944   0.815   0.880   5.787 -2.7359  0.2503 -1.3668
 8151TIP3    H245945   0.873   0.897   5.648  1.3260 -0.0983  0.1370
 8152TIP3   OH245946   1.513   1.382   6.331  0.2538 -0.0124  0.0832
 8152TIP3    H145947   1.563   1.463   6.322 -1.5538  1.4739  2.2747
 8152TIP3    H245948   1.510   1.366   6.425 -2.5947 -0.4736  0.0175
 8153TIP3   OH245949   4.305   5.080  12.144  0.0259  0.2751  0.5417
 8153TIP3    H145950   4.373   5.017  12.166 -0.4139 -0.3994  0.0209
 8153TIP3    H245951   4.313   5.092  12.049  0.4324  1.4099  0.6918
 8154TIP3   OH245952   3.099   5.361   1.830 -0.1895 -0.0281  0.2487
 8154TIP3    H145953   3.028   5.309   1.792  0.3121  0.6548 -1.7667
 8154TIP3    H245954   3.055   5.436   1.870 -0.7831 -1.0634  1.6208
 8155TIP3   OH245955   3.530   0.465  13.560 -0.1394  0.1533  0.2449
 8155TIP3    H145956   3.565   0.524  13.492 -0.9935  1.4841  0.9129
 8155TIP3    H245957   3.435   0.470  13.549 -0.2355 -2.4218 -0.7217
 8156TIP3   OH245958   6.291   5.947  11.502  0.1945 -0.0977 -0.4281
 8156TIP3    H145959   6.220   6.002  11.467 -0.3161  0.2800  1.1031
 8156TIP3    H245960   6.370   5.999  11.490  0.3347 -0.7345 -2.6231
 8157TIP3   OH245961   6.570   6.031   2.437  0.2324  0.7065 -0.2175
 8157TIP3    H145962   6.517   6.034   2.517 -0.3216 -0.1970 -0.5334
 8157TIP3    H245963   6.529   5.963   2.384  1.6887 -0.0097 -0.4845
 8158TIP3   OH245964   1.253   5.897   1.359 -0.1157  0.6978 -0.0083
 8158TIP3    H145965   1.301   5.957   1.417 -0.1927  1.5080 -0.7638
 8158TIP3    H245966   1.178   5.948   1.328 -0.5655 -0.0237 -0.1292
 8159TIP3   OH245967   6.573   3.291   5.109 -0.1570  0.4481  0.1165
 8159TIP3    H145968   6.653   3.239   5.098  1.8773  2.7052  2.8795
 8159TIP3    H245969   6.576   3.355   5.038  1.5541  1.6456  1.1899
 8160TIP3   OH245970   2.703   1.561  13.537 -0.6428  0.2444 -0.0712
 8160TIP3    H145971   2.691   1.487  13.596 -0.3475  1.3765  1.4553
 8160TIP3    H245972   2.765   1.529  13.471  0.5267 -0.4609  1.3238
 8161TIP3   OH245973   5.933   2.904  15.716  0.0461 -0.7121  0.3728
 8161TIP3    H145974   6.006   2.954  15.751 -0.5626  0.0249  0.6327
 8161TIP3    H245975   5.865   2.969  15.699 -1.5209 -1.6289  2.6222
 8162TIP3   OH245976   4.429   0.349   2.045  0.1877  0.4124  0.5951
 8162TIP3    H145977   4.492   0.336   1.974  0.5670  1.9091  0.6326
 8162TIP3    H245978   4.457   0.287   2.113  1.7532  1.1767  0.6849
 8163TIP3   OH245979   6.795   2.752   1.857 -0.2701 -0.0261 -0.1604
 8163TIP3    H145980   6.715   2.725   1.902 -0.5260  0.2312 -0.4596
 8163TIP3    H245981   6.837   2.670   1.832 -1.4938 -0.1857 -1.8667
 8164TIP3   OH245982   4.634   0.075  14.270  0.0318 -0.3521 -0.3493
 8164TIP3    H145983   4.549   0.032  14.279  0.2300 -0.9548 -1.2554
 8164TIP3    H245984   4.614   0.162  14.236 -0.2096 -0.5907 -0.8272
 8165TIP3   OH245985   1.023   1.265   5.205  0.2106  0.5701  0.2065
 8165TIP3    H145986   0.953   1.253   5.141  0.2561  0.4406  0.1813
 8165TIP3    H245987   0.980   1.253   5.290  0.5060 -1.0826  0.1560
 8166TIP3   OH245988   4.111   4.677   0.801  0.5714 -0.0118 -0.3773
 8166TIP3    H145989   4.199   4.707   0.777  0.3566 -0.8342 -2.3860
 8166TIP3    H245990   4.111   4.584   0.779 -0.3634 -0.3451  0.9503
 8167TIP3   OH245991   4.338   1.044  16.321  0.0706 -0.4767  0.2066
 8167TIP3    H145992   4.340   0.982  16.248  0.2520 -2.6742  1.9653
 8167TIP3    H245993   4.298   1.123  16.285 -2.5544 -2.4466 -1.5730
 8168TIP3   OH245994   1.769   6.219  11.743  0.4466  0.5016  0.4553
 8168TIP3    H145995   1.835   6.181  11.685 -0.5393 -1.9977  0.8603
 8168TIP3    H245996   1.787   6.182  11.829  0.2403  2.0553  1.2051
 8169TIP3   OH245997   2.787   3.367  14.313 -0.2378 -0.7040  0.0308
 8169TIP3    H145998   2.803   3.423  14.388  1.4791 -1.4544  0.2731
 8169TIP3    H245999   2.756   3.427  14.244 -0.1773  0.2420  0.8103
 8170TIP3   OH246000   5.448   5.138  16.993  0.0992 -0.3313 -0.0056
 8170TIP3    H146001   5.421   5.052  16.963 -0.1801 -0.4741  0.6344
 8170TIP3    H246002   5.544   5.135  16.989  0.0673 -0.0027 -1.7720
 8171TIP3   OH246003   0.315   0.533   1.577  0.1757  0.3939  0.5655
 8171TIP3    H146004   0.263   0.503   1.503  0.0108 -0.4157  1.0018
 8171TIP3    H246005   0.251   0.543   1.648  0.4709  0.2970  0.8473
 8172TIP3   OH246006   4.757   2.647  10.390 -0.0314 -0.4409 -0.1258
 8172TIP3    H146007   4.690   2.600  10.340  1.5725 -1.6143 -1.2520
 8172TIP3    H246008   4.818   2.579  10.418  0.6434  0.5895  0.9891
 8173TIP3   OH246009   6.692   5.676   2.677  0.3401  0.0298 -0.5623
 8173TIP3    H146010   6.767   5.630   2.714 -0.1324  1.1644  2.0081
 8173TIP3    H246011   6.708   5.676   2.582  2.7869 -1.0763 -0.2207
 8174TIP3   OH246012   3.706   3.690   1.747  0.3572 -0.0304  0.0928
 8174TIP3    H146013   3.700   3.785   1.755  1.4498  0.1475 -0.8229
 8174TIP3    H246014   3.694   3.657   1.836 -0.4472  0.9293  0.3565
 8175TIP3   OH246015   0.444   5.460  12.523  0.1918 -0.3595 -0.5801
 8175TIP3    H146016   0.470   5.386  12.578  1.4025  0.6754  0.2997
 8175TIP3    H246017   0.355   5.482  12.551  1.1291  0.7882  1.7605
 8176TIP3   OH246018   3.833   4.118   4.001  0.1267 -0.2663  0.0281
 8176TIP3    H146019   3.741   4.126   3.976  0.1787  0.0927 -0.0537
 8176TIP3    H246020   3.852   4.025   3.991  0.0649 -0.1847 -1.0060
 8177TIP3   OH246021   2.662   5.289  13.312 -0.4769 -0.1773  0.1189
 8177TIP3    H146022   2.662   5.362  13.374 -2.1090  0.5195 -0.6564
 8177TIP3    H246023   2.717   5.320  13.240  0.5805 -0.5842  0.7290
 8178TIP3   OH246024   3.617   1.352  13.736  0.0992  0.0407  0.7398
 8178TIP3    H146025   3.524   1.374  13.747 -0.2641 -1.1380  0.1899
 8178TIP3    H246026   3.634   1.287  13.804  0.1008 -0.9044 -0.1502
 8179TIP3   OH246027   0.595   2.662   2.902 -0.5614  0.0072 -0.6178
 8179TIP3    H146028   0.621   2.623   2.819  1.2219  1.0257 -0.5780
 8179TIP3    H246029   0.661   2.632   2.965 -0.7963  0.7711  0.0232
 8180TIP3   OH246030   2.744   1.364  14.180  0.3996 -0.5449  0.7208
 8180TIP3    H146031   2.720   1.454  14.199  0.3053 -0.1987 -0.9073
 8180TIP3    H246032   2.772   1.328  14.264 -0.2422  0.7779  1.5203
 8181TIP3   OH246033   5.415   0.151  15.255  0.7399 -0.3722  0.4647
 8181TIP3    H146034   5.501   0.189  15.272  1.2736 -1.1614 -0.3554
 8181TIP3    H246035   5.413   0.072  15.310  0.3029 -0.0540  0.9133
 8182TIP3   OH246036   3.795   3.187  10.639 -0.1286  0.4458  0.0587
 8182TIP3    H146037   3.772   3.095  10.649 -0.5662  0.4004 -1.1638
 8182TIP3    H246038   3.764   3.210  10.551 -1.4412  2.1750  0.9042
 8183TIP3   OH246039   5.147   1.813   3.201  0.0031  0.3636  0.3193
 8183TIP3    H146040   5.101   1.753   3.144 -0.5999  1.2774 -0.1783
 8183TIP3    H246041   5.222   1.763   3.234 -0.2776 -0.5240 -0.3692
 8184TIP3   OH246042   6.214   2.555   2.195 -0.0854 -0.3423 -0.3362
 8184TIP3    H146043   6.260   2.638   2.207  1.1810 -1.0267 -0.2341
 8184TIP3    H246044   6.152   2.551   2.267 -1.8125  1.5283 -1.6009
 8185TIP3   OH246045   5.405   4.629  16.313 -0.4140  0.7459 -0.2773
 8185TIP3    H146046   5.408   4.712  16.264 -1.3337  0.3754 -1.0009
 8185TIP3    H246047   5.474   4.637  16.378 -0.5671  2.1407 -0.2508
 8186TIP3   OH246048   1.328   1.413  12.815 -0.0605  0.4056 -0.9854
 8186TIP3    H146049   1.270   1.372  12.880  0.5202 -0.5905 -1.0712
 8186TIP3    H246050   1.282   1.402  12.732  0.7825 -1.5451 -1.2487
 8187TIP3   OH246051   2.551   6.342   1.032 -0.1208  0.2989 -0.8166
 8187TIP3    H146052   2.585   6.377   0.950  0.1004  0.2774 -0.7349
 8187TIP3    H246053   2.586   6.401   1.099  1.4202 -0.8660 -0.5343
 8188TIP3   OH246054   6.463   1.985  13.704  0.2135 -0.5266 -0.0495
 8188TIP3    H146055   6.466   1.984  13.608  1.4746  0.7595 -0.0457
 8188TIP3    H246056   6.380   2.029  13.724 -0.5307 -1.6684 -0.5180
 8189TIP3   OH246057   0.431   1.098  14.942 -0.5175 -0.7108 -0.3718
 8189TIP3    H146058   0.456   1.019  14.893 -0.9197 -0.1685 -1.4698
 8189TIP3    H246059   0.497   1.162  14.919 -1.4656 -0.0400 -1.2846
 8190TIP3   OH246060   1.195   1.040  14.266 -0.6055  0.1658 -0.2170
 8190TIP3    H146061   1.206   0.990  14.347 -0.4594 -0.4776 -0.6247
 8190TIP3    H246062   1.103   1.030  14.244 -0.5900  0.1321 -0.2661
 8191TIP3   OH246063   0.545   3.828  14.314  0.2549  0.2738 -0.1519
 8191TIP3    H146064   0.474   3.889  14.333 -0.1218 -0.1074 -0.3237
 8191TIP3    H246065   0.509   3.768  14.248  0.4072 -0.5161  0.4621
 8192TIP3   OH246066   3.482   4.726  13.599  0.7250  0.0550  0.2354
 8192TIP3    H146067   3.561   4.751  13.550  0.6414 -0.1313  0.0034
 8192TIP3    H246068   3.421   4.696  13.532  0.6020 -0.1829  0.4526
 8193TIP3   OH246069   3.798   3.319  15.145 -0.0177 -0.0097  0.0841
 8193TIP3    H146070   3.807   3.225  15.162  2.1323 -0.3162 -2.1877
 8193TIP3    H246071   3.769   3.324  15.054  1.8213  1.4928 -0.4699
 8194TIP3   OH246072   3.177   2.937   6.102  0.5165 -0.7826  0.0083
 8194TIP3    H146073   3.264   2.939   6.141  0.4467  0.8062  0.1813
 8194TIP3    H246074   3.124   2.888   6.165  0.8204  0.1327  1.0041
 8195TIP3   OH246075   4.934   1.980  11.627  0.5047 -0.3869  0.1238
 8195TIP3    H146076   4.966   1.922  11.559  0.7781 -0.4722  0.3234
 8195TIP3    H246077   4.982   1.954  11.706 -0.8693 -1.2944  0.7076
 8196TIP3   OH246078   6.422   3.106   0.735 -1.0746  0.1656  0.2241
 8196TIP3    H146079   6.502   3.157   0.742 -1.3136  0.4667  0.9237
 8196TIP3    H246080   6.364   3.144   0.802 -1.1539 -1.2019  0.9773
 8197TIP3   OH246081   2.940   3.728   2.607 -0.2653  0.0512 -0.3371
 8197TIP3    H146082   2.951   3.763   2.519  2.4544  1.2926  0.3898
 8197TIP3    H246083   2.914   3.803   2.660 -1.3935 -0.5812  0.0460
 8198TIP3   OH246084   3.870   5.403   5.675 -0.6515  0.2146 -0.2562
 8198TIP3    H146085   3.891   5.317   5.638 -1.3125  0.3065 -0.8353
 8198TIP3    H246086   3.943   5.459   5.648 -0.1259 -0.1939  0.2719
 8199TIP3   OH246087   0.784   4.610  11.724  0.2826  0.0189  0.5054
 8199TIP3    H146088   0.842   4.687  11.726  0.8713 -0.4330  1.4619
 8199TIP3    H246089   0.743   4.609  11.810 -0.4407 -0.2076  0.1598
 8200TIP3   OH246090   4.443   3.951  16.192 -0.7449  0.0289 -0.3230
 8200TIP3    H146091   4.500   4.026  16.208 -0.7427  0.2281 -1.2248
 8200TIP3    H246092   4.502   3.878  16.176 -0.7308 -0.4389  1.6207
 8201TIP3   OH246093   4.182   1.461  12.811 -0.5800 -0.6887  0.0684
 8201TIP3    H146094   4.204   1.511  12.889 -0.6994  0.1366 -0.4189
 8201TIP3    H246095   4.086   1.456  12.812 -0.6779  0.5552 -0.7569
 8202TIP3   OH246096   1.997   2.086   4.856 -0.0106 -0.0739  0.1623
 8202TIP3    H146097   1.948   2.079   4.938  0.1097  2.6890  0.5444
 8202TIP3    H246098   2.089   2.083   4.883  0.0294  0.2707  0.0608
 8203TIP3   OH246099   0.456   5.839  13.625  0.3944 -0.2647  0.6045
 8203TIP3    H146100   0.475   5.760  13.676  0.3333  0.2048  1.3662
 8203TIP3    H246101   0.537   5.855  13.577  0.5562 -0.5525  0.7737
 8204TIP3   OH246102   4.026   3.134  11.885  0.1462 -0.0012  0.2376
 8204TIP3    H146103   4.084   3.209  11.869 -0.3410  0.4688  0.6500
 8204TIP3    H246104   4.054   3.068  11.821 -0.4139  1.0704 -1.1668
 8205TIP3   OH246105   1.162   4.522   4.063 -0.3423  0.0301 -0.6289
 8205TIP3    H146106   1.205   4.607   4.056 -0.2710  0.1735  1.1958
 8205TIP3    H246107   1.095   4.534   4.130 -0.0451 -1.4614 -0.0298
 8206TIP3   OH246108   0.066   2.202  13.158 -0.9606  0.1467 -0.4811
 8206TIP3    H146109   0.148   2.161  13.129 -0.8965 -0.6417  0.7008
 8206TIP3    H246110  -0.003   2.147  13.120 -0.8799 -0.8370  0.7332
 8207TIP3   OH246111   5.089   6.223  14.430 -0.6810  0.0340 -0.4330
 8207TIP3    H146112   5.176   6.251  14.402 -0.8817  1.6273  0.4309
 8207TIP3    H246113   5.081   6.133  14.398  0.7586  0.3126 -1.6661
 8208TIP3   OH246114   5.783   4.831   1.836 -0.4009  0.6390 -0.3322
 8208TIP3    H146115   5.728   4.905   1.864 -2.2944 -0.6617 -0.4485
 8208TIP3    H246116   5.784   4.838   1.740 -1.8132 -0.2799 -0.4401
 8209TIP3   OH246117   3.232   2.678   1.163  0.2649 -0.1128 -0.2296
 8209TIP3    H146118   3.228   2.736   1.087 -0.2398  0.3867  0.1691
 8209TIP3    H246119   3.193   2.729   1.234  0.7944 -0.5505  0.3838
 8210TIP3   OH246120   2.813   0.871  14.351  0.3531  0.6511 -0.4862
 8210TIP3    H146121   2.905   0.875  14.375 -0.3659 -0.4019  2.9200
 8210TIP3    H246122   2.766   0.891  14.432 -2.4450  0.2404 -1.8852
 8211TIP3   OH246123   5.427   4.086   2.411 -0.2035  0.1859 -0.2780
 8211TIP3    H146124   5.507   4.059   2.366 -1.5406 -0.5106 -2.3698
 8211TIP3    H246125   5.369   4.117   2.341 -2.3823 -0.8857  0.9396
 8212TIP3   OH246126   3.062   6.487   3.232  0.9520 -0.0490 -0.0444
 8212TIP3    H146127   3.006   6.462   3.306  2.6000 -0.5445  1.0990
 8212TIP3    H246128   3.021   6.445   3.156  0.1318 -0.9349  0.8510
 8213TIP3   OH246129   1.290   1.958   1.302 -0.3710  0.0725  0.3281
 8213TIP3    H146130   1.286   2.006   1.385  1.4779 -1.3286  1.2979
 8213TIP3    H246131   1.335   2.017   1.242 -0.4021  0.5362  0.7577
 8214TIP3   OH246132   0.648   3.224  15.175  0.1906  0.2003 -0.1353
 8214TIP3    H146133   0.681   3.296  15.228 -0.7884  0.0362  0.7190
 8214TIP3    H246134   0.632   3.263  15.089  1.0040  0.6591 -0.0895
 8215TIP3   OH246135   4.645   6.021  16.164  0.4709  0.1859  0.1458
 8215TIP3    H146136   4.563   6.063  16.189  0.1697  0.6465 -1.5117
 8215TIP3    H246137   4.623   5.966  16.089  1.4274 -0.7355  0.5054
 8216TIP3   OH246138   5.763   1.279   0.034  0.3779  0.0454  0.2101
 8216TIP3    H146139   5.763   1.186   0.055  1.6310 -0.2297 -0.8686
 8216TIP3    H246140   5.695   1.288  -0.033  1.8762 -0.5988 -1.4973
 8217TIP3   OH246141   3.986   2.477   2.700 -0.1140 -0.0615  0.1616
 8217TIP3    H146142   4.040   2.437   2.767 -1.1892 -0.4710  0.8009
 8217TIP3    H246143   4.039   2.549   2.666  0.4825  0.0802  1.3645
 8218TIP3   OH246144   1.906   4.199   3.966 -0.5214  0.0564  0.2326
 8218TIP3    H146145   1.928   4.119   3.919 -0.4097 -0.7164  1.5406
 8218TIP3    H246146   1.990   4.242   3.981 -0.6305  0.7163 -0.9395
 8219TIP3   OH246147   3.665   3.677   2.028 -0.5061  0.4144 -0.1125
 8219TIP3    H146148   3.593   3.712   2.080 -0.7186  1.4340 -1.0695
 8219TIP3    H246149   3.742   3.687   2.084 -0.8648  0.7230  0.3285
 8220TIP3   OH246150   2.013   2.758   1.562  0.1210  0.4141  0.1630
 8220TIP3    H146151   1.996   2.751   1.655 -2.0430  1.9549 -0.0597
 8220TIP3    H246152   1.946   2.704   1.521 -0.7668  1.9769 -0.5493
 8221TIP3   OH246153   4.066   6.423   0.941  0.6128 -0.1793  0.2683
 8221TIP3    H146154   3.999   6.363   0.908  0.4622  0.0318  0.1876
 8221TIP3    H246155   4.083   6.393   1.031  0.2208 -0.0767  0.3811
 8222TIP3   OH246156   6.083   5.297   3.413 -0.0668 -0.1327 -0.2755
 8222TIP3    H146157   6.126   5.216   3.387 -0.5534 -0.1888 -0.9301
 8222TIP3    H246158   6.014   5.309   3.348 -0.8148  0.1325  0.5467
 8223TIP3   OH246159   6.270   6.480   2.777 -0.0298  0.4667 -0.5527
 8223TIP3    H146160   6.354   6.489   2.822  0.1541 -1.1891 -0.5031
 8223TIP3    H246161   6.243   6.570   2.759  1.6118  1.0471 -0.3221
 8224TIP3   OH246162   3.761   0.320   2.892  0.1037  0.2440 -0.6090
 8224TIP3    H146163   3.807   0.258   2.835 -1.2418  0.0106 -1.4888
 8224TIP3    H246164   3.830   0.362   2.943  1.1911 -0.7626 -1.2131
 8225TIP3   OH246165   1.830   5.885  13.812  0.2178  0.1450  0.3018
 8225TIP3    H146166   1.742   5.895  13.847  0.2880  0.5275  0.3817
 8225TIP3    H246167   1.840   5.960  13.753 -0.3210 -1.1149 -1.4568
 8226TIP3   OH246168   5.341   3.918  12.763 -0.1004 -0.7101  0.0174
 8226TIP3    H146169   5.404   3.847  12.771 -1.2462 -1.6292  1.2819
 8226TIP3    H246170   5.303   3.927  12.850 -1.4846  0.0473 -0.6269
 8227TIP3   OH246171   4.224   3.597  14.853 -0.0510  0.1727  0.9278
 8227TIP3    H146172   4.298   3.658  14.849  1.2326 -1.3671 -0.2513
 8227TIP3    H246173   4.260   3.518  14.894 -0.8260 -0.8500 -0.2608
 8228TIP3   OH246174   4.669   5.762   0.136  0.6829 -0.3599  0.6556
 8228TIP3    H146175   4.747   5.814   0.154  1.3437 -0.2023 -2.1388
 8228TIP3    H246176   4.703   5.677   0.107 -0.0978 -0.2049 -0.8546
 8229TIP3   OH246177   2.615   1.048  13.628  0.7643  0.2818  0.2146
 8229TIP3    H146178   2.610   1.144  13.628 -0.8286  0.2463  1.6324
 8229TIP3    H246179   2.708   1.029  13.625  1.2056  1.9255  1.7980
 8230TIP3   OH246180   0.684   4.608  12.147 -0.0194  0.6404  0.3792
 8230TIP3    H146181   0.656   4.617  12.056  0.0448 -1.0018  0.1623
 8230TIP3    H246182   0.750   4.677  12.159  2.2734 -0.9560 -1.7875
 8231TIP3   OH246183   0.367   0.313  14.850  0.2720 -0.4797  0.0471
 8231TIP3    H146184   0.300   0.287  14.913 -0.1487  0.8954  0.2105
 8231TIP3    H246185   0.416   0.233  14.832 -2.2452 -1.8554 -1.1257
 8232TIP3   OH246186   2.112   1.606   3.207  0.7228 -0.1320 -0.0171
 8232TIP3    H146187   2.097   1.698   3.226 -0.4671 -0.1995 -0.5381
 8232TIP3    H246188   2.189   1.583   3.259  2.5479  1.7395 -1.6860
 8233TIP3   OH246189   2.471   2.131  10.502  0.1696  0.6702  0.2942
 8233TIP3    H146190   2.407   2.172  10.560 -0.1511 -0.5554  0.8452
 8233TIP3    H246191   2.556   2.147  10.544 -0.1034 -0.6856  1.4579
 8234TIP3   OH246192   3.752   2.367  14.581  0.0504 -0.6587  0.1435
 8234TIP3    H146193   3.839   2.404  14.596  0.1337 -1.4136  1.7102
 8234TIP3    H246194   3.767   2.273  14.568 -0.3208 -0.4549 -2.1417
 8235TIP3   OH246195   5.774   2.770  12.521 -0.6836 -0.0136 -0.1357
 8235TIP3    H146196   5.852   2.727  12.556  0.1664 -0.9992 -2.9860
 8235TIP3    H246197   5.717   2.781  12.597  1.6241 -0.5499  1.7936
 8236TIP3   OH246198   2.991   6.015   2.307  0.3641  0.3324 -0.1217
 8236TIP3    H146199   3.024   5.930   2.276  1.2433  0.4316  0.5257
 8236TIP3    H246200   3.054   6.079   2.274 -1.4854  1.0556 -2.5979
 8237TIP3   OH246201   4.140   6.450  14.192  0.1403  0.3628 -0.3883
 8237TIP3    H146202   4.190   6.371  14.213  1.7966  1.7222  1.0483
 8237TIP3    H246203   4.160   6.468  14.100 -0.8901 -1.2773 -0.9794
 8238TIP3   OH246204   6.706   0.670  13.798 -0.1709  0.1952  0.0038
 8238TIP3    H146205   6.638   0.616  13.757 -1.6194  0.7772  1.5333
 8238TIP3    H246206   6.715   0.745  13.739  1.1408 -1.1345 -1.6078
 8239TIP3   OH246207   1.418   0.466  17.227 -0.3968  0.0381 -0.2416
 8239TIP3    H146208   1.501   0.428  17.257 -0.4341  1.5093  1.9718
 8239TIP3    H246209   1.399   0.535  17.291 -3.3956 -0.3027 -0.6422
 8240TIP3   OH246210   3.641   5.651  13.832 -0.4269 -0.1567  0.4536
 8240TIP3    H146211   3.711   5.681  13.891 -0.4315  2.5359 -0.7603
 8240TIP3    H246212   3.672   5.675  13.745 -1.7364 -1.3569 -0.3831
 8241TIP3   OH246213   3.608   3.970   3.896 -0.2712 -0.1235 -0.4528
 8241TIP3    H146214   3.571   3.945   3.981 -0.0465 -2.6180 -1.0083
 8241TIP3    H246215   3.534   3.964   3.835 -0.6961  2.7129 -0.3637
 8242TIP3   OH246216   1.461   2.827   3.525 -0.0077  0.3236 -0.6226
 8242TIP3    H146217   1.548   2.788   3.523  1.0757  2.5644 -1.9674
 8242TIP3    H246218   1.408   2.767   3.577  2.5499 -0.6697  1.0199
 8243TIP3   OH246219   5.583   6.051   5.816  0.6857 -0.0062 -0.2730
 8243TIP3    H146220   5.667   6.015   5.846  0.3676 -1.6210 -1.1541
 8243TIP3    H246221   5.564   6.121   5.877  1.4875 -1.2232  1.4806
 8244TIP3   OH246222   4.797   5.700   5.656  0.3091 -0.5562  0.4998
 8244TIP3    H146223   4.830   5.618   5.691  1.4113 -0.6217 -0.6107
 8244TIP3    H246224   4.870   5.762   5.665 -1.1300  0.9232  3.1787
 8245TIP3   OH246225   5.313   1.585  16.260  0.3357 -0.8183 -0.2239
 8245TIP3    H146226   5.276   1.497  16.262  0.9049 -1.0571  0.3600
 8245TIP3    H246227   5.394   1.578  16.311 -0.7607  0.5419  1.8616
 8246TIP3   OH246228   0.768   5.054  13.097 -0.2398  0.2396  0.3602
 8246TIP3    H146229   0.706   5.075  13.167 -1.2300 -0.9980 -0.1134
 8246TIP3    H246230   0.815   4.977  13.128 -0.0555  0.2199  0.0398
 8247TIP3   OH246231   5.154   2.945   3.020 -0.5299  0.0811  0.4145
 8247TIP3    H146232   5.201   3.004   2.960  0.2091 -0.7393  0.1696
 8247TIP3    H246233   5.211   2.940   3.097  0.0958 -1.3583 -0.1077
 8248TIP3   OH246234   1.700   3.262  14.806  0.9030 -0.4153 -0.5259
 8248TIP3    H146235   1.790   3.279  14.831  1.2346  1.5888 -2.7324
 8248TIP3    H246236   1.706   3.211  14.725 -0.0203 -2.2491  0.5022
 8249TIP3   OH246237   0.604   6.296  15.478  0.0066  0.4626  1.0715
 8249TIP3    H146238   0.545   6.291  15.403 -0.2894  1.4651  1.2157
 8249TIP3    H246239   0.692   6.300  15.439 -0.1895  1.9014  0.7071
 8250TIP3   OH246240   1.502   2.857  14.485  0.0645 -0.2333 -0.1340
 8250TIP3    H146241   1.431   2.918  14.467  0.8776  0.7533 -0.1165
 8250TIP3    H246242   1.579   2.899  14.446  0.6148 -1.3332 -0.2645
 8251TIP3   OH246243   1.661   6.597   2.923 -0.1433  0.2975  1.1924
 8251TIP3    H146244   1.648   6.524   2.862  0.9884  1.4117 -0.4816
 8251TIP3    H246245   1.573   6.634   2.935 -0.3436  0.3547 -0.2160
 8252TIP3   OH246246   6.565   0.982  11.840  0.6794  0.6858  0.6238
 8252TIP3    H146247   6.517   0.967  11.921 -3.3961 -0.9893 -1.7622
 8252TIP3    H246248   6.547   1.074  11.818 -0.5693  0.4098  0.3741
 8253TIP3   OH246249   5.568   2.840  12.727  0.0863 -0.6539 -0.1577
 8253TIP3    H146250   5.580   2.822  12.820 -0.8553 -3.2448 -0.4498
 8253TIP3    H246251   5.475   2.826  12.711 -0.2526  2.0668 -1.1128
 8254TIP3   OH246252   5.309   0.487   1.844 -1.3370  0.1263 -0.2969
 8254TIP3    H146253   5.285   0.431   1.770 -1.7442 -0.2045  0.0781
 8254TIP3    H246254   5.319   0.426   1.918  1.4036  0.1457 -0.5747
 8255TIP3   OH246255   5.402   4.152  13.801 -0.4162 -0.0947 -0.2029
 8255TIP3    H146256   5.358   4.067  13.791  0.6097 -0.6260 -0.3290
 8255TIP3    H246257   5.494   4.134  13.782  0.2435  0.5483  1.9971
 8256TIP3   OH246258   6.158   1.205  12.744  1.1962  0.0574  0.1011
 8256TIP3    H146259   6.086   1.150  12.715  1.5063 -0.2088 -0.1835
 8256TIP3    H246260   6.228   1.144  12.768  1.5627  0.3178 -0.2702
 8257TIP3   OH246261   3.021   5.466  14.208 -0.5065  0.1348 -0.1709
 8257TIP3    H146262   2.941   5.455  14.158 -0.5359  0.4859 -0.2039
 8257TIP3    H246263   3.056   5.550  14.179 -0.9480  0.7348  0.9678
 8258TIP3   OH246264   5.583   6.447  14.100 -0.1156  0.6715  0.7895
 8258TIP3    H146265   5.497   6.447  14.141 -0.9428  3.3063 -0.6729
 8258TIP3    H246266   5.565   6.438  14.006  1.3591 -0.3273  0.5520
 8259TIP3   OH246267   1.206   5.606  13.613  0.3077 -0.2611  0.7595
 8259TIP3    H146268   1.168   5.532  13.660 -2.0026 -0.0549 -0.6009
 8259TIP3    H246269   1.163   5.604  13.527  1.5146  1.6032  0.0467
 8260TIP3   OH246270   5.202   1.110   0.669  0.6571 -0.2463 -0.4331
 8260TIP3    H146271   5.121   1.158   0.654  0.8070  0.6341  1.3310
 8260TIP3    H246272   5.271   1.173   0.649  0.8804 -0.2392  0.3493
 8261TIP3   OH246273   3.307   3.365   2.258 -0.3092  0.5462 -0.2858
 8261TIP3    H146274   3.394   3.333   2.233 -0.0820  0.7610  0.2157
 8261TIP3    H246275   3.246   3.308   2.211  0.1009  0.8073 -1.1499
 8262TIP3   OH246276   3.690   4.334  11.402 -0.2837 -0.4424  0.0913
 8262TIP3    H146277   3.720   4.338  11.493 -0.6350 -1.3748  0.2528
 8262TIP3    H246278   3.769   4.348  11.350  0.0601 -0.7224  0.5329
 8263TIP3   OH246279   5.124   5.700   2.651 -0.6329 -0.3015  0.0794
 8263TIP3    H146280   5.178   5.658   2.583 -1.6014 -0.6729 -0.4899
 8263TIP3    H246281   5.167   5.676   2.733  0.6097  0.2082 -0.3859
 8264TIP3   OH246282   0.745   5.469  11.810 -0.3876  0.1143  0.1356
 8264TIP3    H146283   0.736   5.552  11.858  1.2570 -0.5549  1.6856
 8264TIP3    H246284   0.838   5.464  11.788 -0.6144 -0.9549 -0.6528
 8265TIP3   OH246285   2.943   2.964   5.335 -0.0954  0.0088  0.3703
 8265TIP3    H146286   2.926   2.887   5.280  1.8972 -1.2669  1.4114
 8265TIP3    H246287   2.896   3.035   5.291 -1.3067 -1.5971 -1.1180
 8266TIP3   OH246288   0.726   1.191   4.778  0.2989  0.2670  0.5310
 8266TIP3    H146289   0.665   1.236   4.720 -0.2974  1.9975  2.3586
 8266TIP3    H246290   0.779   1.136   4.720 -0.6621  1.3884 -1.5201
 8267TIP3   OH246291   2.343   2.058   0.652  0.3687  0.5106  0.3713
 8267TIP3    H146292   2.304   2.143   0.673 -0.7966 -0.0223  0.4270
 8267TIP3    H246293   2.277   2.013   0.600  1.3048 -0.0582 -0.3554
 8268TIP3   OH246294   1.420   2.328  16.809 -0.4577  0.0535  0.3246
 8268TIP3    H146295   1.391   2.416  16.832  0.0438  1.1482 -2.7945
 8268TIP3    H246296   1.350   2.294  16.753  0.6296 -0.4149 -0.7772
 8269TIP3   OH246297   3.748   1.735   1.900  0.4943  0.2380 -0.3818
 8269TIP3    H146298   3.707   1.767   1.981  0.7286 -0.4737  0.0238
 8269TIP3    H246299   3.812   1.670   1.929  1.1098  0.5101 -1.0942
 8270TIP3   OH246300   1.431   2.279   2.556 -0.1183  0.5147  0.5515
 8270TIP3    H146301   1.390   2.341   2.495 -0.7869 -1.3689 -1.0549
 8270TIP3    H246302   1.377   2.200   2.548  1.7167 -0.8599  1.1610
 8271TIP3   OH246303   5.610   0.224  13.282 -0.5160  0.3485 -0.4021
 8271TIP3    H146304   5.699   0.244  13.253 -0.0927 -2.2185 -1.1119
 8271TIP3    H246305   5.601   0.270  13.365  1.3243  1.0007 -0.5189
 8272TIP3   OH246306   4.477   4.936  12.308  0.4389  0.3640  0.4253
 8272TIP3    H146307   4.432   4.878  12.369 -0.5889  1.4857  0.7680
 8272TIP3    H246308   4.550   4.884  12.275 -0.9615 -1.4372  0.0276
 8273TIP3   OH246309   6.253   0.590  16.445  0.1278  0.0243  0.1569
 8273TIP3    H146310   6.261   0.586  16.541 -0.3602  0.6303  0.2355
 8273TIP3    H246311   6.192   0.662  16.430  0.4713  0.1579 -0.6298
 8274TIP3   OH246312   3.334   2.998   1.750 -0.3834 -0.0484  0.4835
 8274TIP3    H146313   3.411   3.007   1.806 -1.5273 -2.1955  2.5709
 8274TIP3    H246314   3.263   3.039   1.800 -0.9066  0.6813 -0.7996
 8275TIP3   OH246315   0.817   3.016   5.646  0.0859 -0.3841  0.2085
 8275TIP3    H146316   0.738   3.067   5.664 -0.3814 -0.8140 -0.5923
 8275TIP3    H246317   0.854   3.056   5.568 -0.4130 -1.4069 -0.5644
 8276TIP3   OH246318   2.683   0.286   1.092  0.0443 -0.0039 -0.4498
 8276TIP3    H146319   2.779   0.282   1.101  0.0824  0.8540 -0.3892
 8276TIP3    H246320   2.655   0.350   1.157 -0.5154  0.1544 -0.8385
 8277TIP3   OH246321   1.154   5.255   2.632  0.0675 -0.3650  0.1995
 8277TIP3    H146322   1.246   5.248   2.659  0.0194 -1.4947  0.1189
 8277TIP3    H246323   1.105   5.233   2.711 -0.1697  1.2608  0.5319
 8278TIP3   OH246324   4.322   3.529   6.723 -0.5212 -0.3438  0.4393
 8278TIP3    H146325   4.271   3.457   6.759  2.0727 -3.2561 -1.3053
 8278TIP3    H246326   4.379   3.557   6.795  1.4614 -3.0674  0.0816
 8279TIP3   OH246327   1.369   2.702  15.998  0.3780  0.2597  0.5623
 8279TIP3    H146328   1.349   2.708  15.905  1.7394 -1.3296  0.1075
 8279TIP3    H246329   1.285   2.684  16.040 -0.1423  0.2818 -0.4468
 8280TIP3   OH246330   1.319   3.315  10.411 -0.2271 -0.5445  0.0728
 8280TIP3    H146331   1.320   3.314  10.507  2.1574  0.9672  0.1693
 8280TIP3    H246332   1.348   3.227  10.386  0.9039 -0.4084  0.8250
 8281TIP3   OH246333   2.275   2.428   4.103  0.4386 -0.2057  0.6862
 8281TIP3    H146334   2.317   2.445   4.187  0.9559  1.8569  0.0726
 8281TIP3    H246335   2.345   2.397   4.046  0.2550 -0.8153  0.7874
 8282TIP3   OH246336   6.495   5.363   0.511 -0.3391 -0.0595  0.1166
 8282TIP3    H146337   6.411   5.366   0.465 -1.5112  1.0687  2.1998
 8282TIP3    H246338   6.560   5.378   0.443 -1.6690 -2.1937 -1.7871
 8283TIP3   OH246339   2.007   0.851   5.723 -0.5291 -0.1513  0.0337
 8283TIP3    H146340   2.005   0.935   5.768 -2.1858  1.0341 -2.1096
 8283TIP3    H246341   1.965   0.790   5.784 -0.1710  0.7508  1.2210
 8284TIP3   OH246342   2.613   4.769   1.222  0.4663  0.5540  0.4980
 8284TIP3    H146343   2.582   4.822   1.149  0.8072  0.1161  0.0264
 8284TIP3    H246344   2.664   4.829   1.276  2.3640  0.3575 -0.9620
 8285TIP3   OH246345   0.245   6.795  14.449  0.3076 -0.2912 -0.4717
 8285TIP3    H146346   0.160   6.839  14.448  1.2266  1.6451 -0.1105
 8285TIP3    H246347   0.228   6.708  14.415 -1.7894  0.0789 -0.5209
 8286TIP3   OH246348   0.871   3.621   3.637  0.0199 -0.1273 -0.0241
 8286TIP3    H146349   0.878   3.594   3.728  1.1433 -1.1950 -0.3948
 8286TIP3    H246350   0.822   3.551   3.594  0.1157  0.0131 -0.3693
 8287TIP3   OH246351   4.203   4.746   3.855  0.4094 -0.9137 -0.0175
 8287TIP3    H146352   4.162   4.748   3.769  0.1760  0.1857  0.1085
 8287TIP3    H246353   4.260   4.669   3.853  1.4703 -0.1392 -1.6470
 8288TIP3   OH246354   5.371   0.387  11.370  0.3844  0.2418  0.4949
 8288TIP3    H146355   5.431   0.382  11.296 -0.8495 -2.4852 -0.4903
 8288TIP3    H246356   5.400   0.316  11.429 -0.5344  0.3165  1.0577
 8289TIP3   OH246357   2.807   1.915   1.615 -0.3477  0.4294  0.0253
 8289TIP3    H146358   2.752   1.938   1.690 -0.7887  1.1767 -0.5114
 8289TIP3    H246359   2.880   1.865   1.653 -1.2358 -0.3386  0.7906
 8290TIP3   OH246360   5.128   1.529   1.091  0.0474  0.0628  0.8658
 8290TIP3    H146361   5.036   1.511   1.075  0.6408 -2.8130  0.0132
 8290TIP3    H246362   5.172   1.505   1.009  1.4539  2.8983  0.6754
 8291TIP3   OH246363   5.089   0.781  16.261 -0.0001  0.2292  0.1182
 8291TIP3    H146364   5.128   0.724  16.327 -0.8031  0.3011  0.6765
 8291TIP3    H246365   5.010   0.816  16.303 -0.3250  0.5752 -0.7463
 8292TIP3   OH246366   6.632   4.749   0.742 -0.0773  0.3015  0.1159
 8292TIP3    H146367   6.586   4.745   0.826 -0.4817  0.3960 -0.0975
 8292TIP3    H246368   6.665   4.661   0.729 -0.7823  0.0551 -0.0466
 8293TIP3   OH246369   1.050   2.322   4.557 -0.8721  0.1647 -0.2022
 8293TIP3    H146370   1.051   2.233   4.591  2.0104 -0.9507 -2.7121
 8293TIP3    H246371   1.113   2.370   4.610  1.3120 -0.7406 -1.8418
 8294TIP3   OH246372   0.344   3.646   3.199  0.0301 -0.2866 -0.4206
 8294TIP3    H146373   0.375   3.718   3.144  1.6349  0.7463  1.6887
 8294TIP3    H246374   0.412   3.634   3.264 -1.2573 -2.2142  0.6945
 8295TIP3   OH246375   3.896   0.024  15.620  0.0303 -0.2943  0.0773
 8295TIP3    H146376   3.809   0.024  15.578 -0.4093 -0.9247  0.9652
 8295TIP3    H246377   3.887   0.083  15.694  0.4918 -0.0365 -0.0679
 8296TIP3   OH246378   5.297   5.838  12.014 -0.3167  0.0946  0.3497
 8296TIP3    H146379   5.288   5.811  12.105  0.5279 -1.0165  0.1365
 8296TIP3    H246380   5.392   5.842  12.000 -0.4312 -0.3441 -0.6290
 8297TIP3   OH246381   2.074   1.280  13.098  0.1755 -0.0811 -0.1920
 8297TIP3    H146382   2.043   1.367  13.123  2.2503  0.8371 -0.5841
 8297TIP3    H246383   2.095   1.287  13.005  2.7093 -0.1772  0.2859
 8298TIP3   OH246384   5.110   4.035   1.444 -0.0659  0.1155 -0.0079
 8298TIP3    H146385   5.074   4.123   1.450  1.0918  0.5000  3.3660
 8298TIP3    H246386   5.203   4.048   1.427  0.2795 -0.3678  1.4090
 8299TIP3   OH246387   0.760   0.773  11.307  0.9449  0.0771  0.4034
 8299TIP3    H146388   0.787   0.755  11.397  1.6549 -1.6459 -0.1027
 8299TIP3    H246389   0.841   0.769  11.257  0.3661 -0.5552 -0.5159
 8300TIP3   OH246390   1.826   1.836   3.568  0.1873  0.3370  1.1955
 8300TIP3    H146391   1.773   1.809   3.643 -0.4659  1.8571  1.3069
 8300TIP3    H246392   1.804   1.927   3.554  0.5872  0.1913 -0.6358
 8301TIP3   OH246393   2.073   1.156   2.955 -0.4492  0.4048  0.0805
 8301TIP3    H146394   2.092   1.223   3.020 -0.2879  1.3123 -0.8814
 8301TIP3    H246395   2.108   1.190   2.873  1.3763 -1.6956 -0.1089
 8302TIP3   OH246396   0.064   0.684   5.481 -0.0287 -0.2912  0.0087
 8302TIP3    H146397   0.112   0.645   5.554 -2.0200 -0.8947  1.0685
 8302TIP3    H246398  -0.003   0.620   5.460 -1.8524  1.4573  0.1670
 8303TIP3   OH246399   6.279   0.585  15.081 -0.2320  0.0997 -0.5177
 8303TIP3    H146400   6.339   0.659  15.097  0.1435 -0.4314  0.6507
 8303TIP3    H246401   6.194   0.617  15.109  0.0148 -0.0622  0.4261
 8304TIP3   OH246402   1.043   1.514  11.288  0.4027  0.0304  0.6394
 8304TIP3    H146403   1.119   1.507  11.230  1.4632 -0.4748  2.0424
 8304TIP3    H246404   1.076   1.557  11.367 -0.9994  0.6628  0.9126
 8305TIP3   OH246405   5.223   3.960   4.217  0.9644 -0.0425 -0.3900
 8305TIP3    H146406   5.317   3.943   4.228  0.5836 -1.5142  0.9071
 8305TIP3    H246407   5.200   3.912   4.137  1.2853  0.2636 -0.6716
 8306TIP3   OH246408   6.474   1.122   0.859 -0.5190  0.7465  0.0877
 8306TIP3    H146409   6.516   1.189   0.806 -1.2963 -0.0366 -1.6042
 8306TIP3    H246410   6.423   1.170   0.924 -0.2595  1.7571 -0.4382
 8307TIP3   OH246411   0.659   5.132  13.630  0.2045  0.3673  0.2113
 8307TIP3    H146412   0.616   5.070  13.689  0.3353 -1.4596 -1.5195
 8307TIP3    H246413   0.589   5.162  13.572  0.6385 -0.1966 -0.6175
 8308TIP3   OH246414   2.526   0.362  11.782  0.1992 -0.4089  0.1958
 8308TIP3    H146415   2.605   0.403  11.817 -0.2337  0.6290  0.0045
 8308TIP3    H246416   2.499   0.300  11.849 -0.2908  1.1241  1.4893
 8309TIP3   OH246417   0.542   3.990  11.259 -0.4274  0.2662 -0.1677
 8309TIP3    H146418   0.576   3.947  11.338  0.8591  1.6977  0.1028
 8309TIP3    H246419   0.475   3.931  11.227  1.8783 -2.4515 -0.3725
 8310TIP3   OH246420   1.945   1.880   5.177 -0.5772 -0.6438  0.4271
 8310TIP3    H146421   1.896   1.879   5.260  0.5735  0.4344  1.1548
 8310TIP3    H246422   1.878   1.896   5.110 -1.3804 -0.2962  1.2831
 8311TIP3   OH246423   6.478   0.395   6.037  0.0565 -0.2324  0.1551
 8311TIP3    H146424   6.437   0.481   6.043  0.1176 -0.1465 -0.5986
 8311TIP3    H246425   6.457   0.364   5.949 -0.1179 -1.0708  0.4822
 8312TIP3   OH246426   6.611   0.734   1.562  0.3023  0.6408 -0.0928
 8312TIP3    H146427   6.546   0.752   1.630  1.1263  1.2416  0.5511
 8312TIP3    H246428   6.695   0.737   1.607  0.7482 -1.0183 -0.7331
 8313TIP3   OH246429   0.669   3.065  13.200  0.5665 -0.0658 -0.2417
 8313TIP3    H146430   0.738   3.125  13.226 -0.0233  0.7481 -0.5051
 8313TIP3    H246431   0.616   3.115  13.137 -0.0610 -0.7857 -0.3002
 8314TIP3   OH246432   1.539   6.168  16.581 -0.3238 -0.2487 -0.4890
 8314TIP3    H146433   1.505   6.079  16.569  0.4822 -0.4217 -1.6178
 8314TIP3    H246434   1.494   6.220  16.514 -0.8539  0.2262  0.2190
 8315TIP3   OH246435   0.319   3.937  17.014  0.2403  0.1599  0.1356
 8315TIP3    H146436   0.358   3.853  17.038  1.3686  0.8325  0.7407
 8315TIP3    H246437   0.394   3.995  16.999 -0.5156  1.1904  0.2206
 8316TIP3   OH246438   0.376   5.025   6.513 -0.0136 -0.5436  0.0438
 8316TIP3    H146439   0.402   5.117   6.508  0.8694 -0.8023 -0.1793
 8316TIP3    H246440   0.283   5.026   6.490 -0.1627  0.3599  0.6089
 8317TIP3   OH246441   2.678   2.285  16.013 -0.4214 -0.4638  0.2599
 8317TIP3    H146442   2.671   2.269  16.107  0.8582 -1.1065  0.2704
 8317TIP3    H246443   2.588   2.301  15.985 -0.7359  0.5009  1.7101
 8318TIP3   OH246444   0.124   5.146  14.628  0.8016  0.2189  0.6665
 8318TIP3    H146445   0.107   5.220  14.686 -0.2964 -0.6737  1.5137
 8318TIP3    H246446   0.080   5.170  14.546 -1.2273 -0.2883  1.5494
 8319TIP3   OH246447   2.042   1.877  15.033  0.6403  0.6897 -0.1762
 8319TIP3    H146448   2.011   1.827  14.957 -2.3176  0.8246  0.8253
 8319TIP3    H246449   2.067   1.809  15.096 -1.7521  0.4046  0.5481
 8320TIP3   OH246450   3.229   5.218   4.645  0.3738  0.3769  0.2182
 8320TIP3    H146451   3.308   5.227   4.700 -0.4732  2.0045  1.2399
 8320TIP3    H246452   3.220   5.303   4.602 -1.0149  0.3487  0.4077
 8321TIP3   OH246453   4.737   1.173  11.597 -0.5593  0.2394 -0.0992
 8321TIP3    H146454   4.654   1.194  11.556 -0.4684  1.2702  0.2148
 8321TIP3    H246455   4.787   1.254  11.593  0.8076 -0.6025 -1.1220
 8322TIP3   OH246456   4.216   6.024  16.071 -0.1433 -0.2175 -0.0485
 8322TIP3    H146457   4.248   5.957  16.010 -0.3883 -0.5089  0.1371
 8322TIP3    H246458   4.126   6.040  16.043  0.1404  0.5533 -0.5317
 8323TIP3   OH246459   0.213   1.902  11.278  0.6253 -0.1377  0.4457
 8323TIP3    H146460   0.137   1.906  11.336 -0.7514 -1.9104 -1.1078
 8323TIP3    H246461   0.222   1.991  11.244  0.2855  0.4725  1.9005
 8324TIP3   OH246462   2.590   3.973   3.864  0.3278 -0.3831  0.2395
 8324TIP3    H146463   2.652   3.959   3.793 -0.7954 -0.1741 -0.8082
 8324TIP3    H246464   2.573   4.067   3.864  0.6359 -0.3209  1.0666
 8325TIP3   OH246465   0.544   2.051   6.725  0.2940  0.3396  0.0680
 8325TIP3    H146466   0.487   2.096   6.663 -1.1323 -0.7476  0.5456
 8325TIP3    H246467   0.632   2.081   6.702 -0.2970  0.8291 -1.7296
 8326TIP3   OH246468   0.030   5.207   2.412 -0.0348  0.0412  0.3071
 8326TIP3    H146469   0.040   5.267   2.485  0.3854 -0.8707  1.0187
 8326TIP3    H246470   0.042   5.120   2.450  2.8886 -0.3895 -1.2658
 8327TIP3   OH246471   3.766   1.016  11.339  0.0441  0.0576  0.2366
 8327TIP3    H146472   3.799   1.099  11.303  1.7265 -0.8988 -0.5307
 8327TIP3    H246473   3.779   1.024  11.433  3.1075 -0.4531 -0.0469
 8328TIP3   OH246474   5.355   6.284  14.326  0.1563  0.2239 -0.0438
 8328TIP3    H146475   5.339   6.357  14.266  0.6543  0.9278  0.6606
 8328TIP3    H246476   5.444   6.256  14.307  0.7953  1.2904  1.2056
 8329TIP3   OH246477   0.802   6.028   5.440 -0.0480  0.5596 -0.1162
 8329TIP3    H146478   0.813   6.007   5.348 -0.2118  1.3793 -0.3320
 8329TIP3    H246479   0.711   6.004   5.460  0.5279 -1.3484  0.3220
 8330TIP3   OH246480   6.562   2.146   1.739 -0.6014 -0.2272  1.2416
 8330TIP3    H146481   6.522   2.063   1.764 -0.5517 -0.9534 -0.8645
 8330TIP3    H246482   6.649   2.144   1.778 -0.4126 -1.4291  0.7998
 8331TIP3   OH246483   0.894   4.508   3.651  0.2336 -0.2932  0.3079
 8331TIP3    H146484   0.971   4.514   3.707 -0.1150 -0.7709  0.8411
 8331TIP3    H246485   0.835   4.447   3.696  0.6265 -2.0007 -1.3807
 8332TIP3   OH246486   6.305   3.809  13.117 -0.0619  0.0856  0.1126
 8332TIP3    H146487   6.367   3.827  13.188  2.8737 -1.3777 -1.8914
 8332TIP3    H246488   6.300   3.892  13.069 -1.6901  0.9372  1.6108
 8333TIP3   OH246489   4.346   1.415   1.774  0.9434 -0.0210 -0.2769
 8333TIP3    H146490   4.392   1.359   1.710 -1.5570 -0.8709 -1.4837
 8333TIP3    H246491   4.348   1.502   1.735  0.5187 -0.2872 -0.9050
 8334TIP3   OH246492   0.723   0.516   4.169  0.5874 -0.2321  0.2790
 8334TIP3    H146493   0.686   0.434   4.201  1.2477  0.3517  2.8161
 8334TIP3    H246494   0.656   0.581   4.186  1.0298  0.1259  0.7041
 8335TIP3   OH246495   5.328   5.029   3.027 -0.2653  0.2793  0.0103
 8335TIP3    H146496   5.320   4.940   3.062  1.0589 -0.1128 -0.5849
 8335TIP3    H246497   5.363   5.016   2.938 -0.8833  1.3626 -0.4000
 8336TIP3   OH246498   6.411   4.961   2.408  0.0022 -0.2635  0.0393
 8336TIP3    H146499   6.454   5.004   2.482  0.9669  0.9173 -1.1546
 8336TIP3    H246500   6.318   4.975   2.423  0.2594  1.4967  0.1463
 8337TIP3   OH246501   5.925   5.855  10.602 -0.0273  0.3854 -0.5713
 8337TIP3    H146502   5.833   5.870  10.624 -0.0332  0.4616 -0.6484
 8337TIP3    H246503   5.974   5.915  10.658 -0.0497  0.6793 -0.8633
 8338TIP3   OH246504   3.454   2.361  16.374  0.2823 -0.1049 -0.1148
 8338TIP3    H146505   3.513   2.297  16.414  0.1084 -0.8040 -0.9570
 8338TIP3    H246506   3.370   2.346  16.416  0.4839  0.3011  0.4523
 8339TIP3   OH246507   5.528   5.990   1.300 -0.0829 -0.0909 -0.2173
 8339TIP3    H146508   5.439   5.972   1.272  0.0017 -0.2395 -0.3964
 8339TIP3    H246509   5.562   6.052   1.236  0.3137 -0.8961 -0.8176
 8340TIP3   OH246510   4.388   6.615  11.668  0.2437  0.0799 -0.2091
 8340TIP3    H146511   4.300   6.596  11.698  0.5582 -0.3976  0.4276
 8340TIP3    H246512   4.445   6.567  11.728  0.9010 -0.6354 -1.3633
 8341TIP3   OH246513   2.368   1.730   5.852 -0.4579 -0.0424  0.1387
 8341TIP3    H146514   2.343   1.722   5.944  0.1144  0.2693  0.3302
 8341TIP3    H246515   2.464   1.727   5.853 -0.4747 -1.6895 -0.6191
 8342TIP3   OH246516   4.676   5.514  13.513  0.2968 -0.2857  0.5724
 8342TIP3    H146517   4.711   5.431  13.547  1.3745  0.1441  0.5563
 8342TIP3    H246518   4.644   5.491  13.426 -0.1433 -0.8508  0.8723
 8343TIP3   OH246519   0.812   4.369  12.234 -0.2836  0.5216 -0.1516
 8343TIP3    H146520   0.775   4.356  12.321  0.6315  0.4570  0.2401
 8343TIP3    H246521   0.776   4.453  12.205 -1.2998  0.1165 -0.0931
 8344TIP3   OH246522   3.280   6.229  11.584 -0.0308 -0.1719 -0.2270
 8344TIP3    H146523   3.195   6.271  11.571 -0.2936 -1.2885 -2.7201
 8344TIP3    H246524   3.343   6.289  11.545  0.2565  0.3243  0.9771
 8345TIP3   OH246525   1.256   0.972  15.785 -0.2289 -0.3250 -0.1423
 8345TIP3    H146526   1.168   0.942  15.760 -0.1300 -2.3958  1.6077
 8345TIP3    H246527   1.297   0.894  15.822  2.1860  0.7346 -0.4271
 8346TIP3   OH246528   1.073   0.149  17.195 -0.0594  0.0030 -0.8627
 8346TIP3    H146529   1.071   0.242  17.218 -2.0880 -0.3946  0.7590
 8346TIP3    H246530   1.084   0.149  17.100 -2.6946  2.0056 -1.2874
 8347TIP3   OH246531   3.177   0.629   4.865  0.4861  0.0627 -0.0506
 8347TIP3    H146532   3.114   0.605   4.797  0.9992  0.6071 -0.7237
 8347TIP3    H246533   3.142   0.589   4.945 -0.9603  0.7427 -0.3162
 8348TIP3   OH246534   3.152   4.784   0.095 -0.0211  0.8684  0.4912
 8348TIP3    H146535   3.211   4.784   0.019 -0.8102 -1.2787 -0.1992
 8348TIP3    H246536   3.068   4.813   0.060 -0.1732  0.7172  0.7262
 8349TIP3   OH246537   4.303   0.038   4.672  0.7142 -0.0654 -0.4607
 8349TIP3    H146538   4.277  -0.040   4.722  1.2411  0.3143  0.4419
 8349TIP3    H246539   4.242   0.041   4.599  0.5111 -1.1754 -0.3617
 8350TIP3   OH246540   6.005   6.341   3.962  0.0597  0.0873 -0.1599
 8350TIP3    H146541   5.959   6.326   4.044 -0.1723 -1.0826 -0.4857
 8350TIP3    H246542   5.948   6.301   3.895 -0.0202  1.4655 -0.9655
 8351TIP3   OH246543   4.055   6.437   0.445 -0.2647 -0.3393 -0.0207
 8351TIP3    H146544   4.134   6.472   0.405  0.4929 -1.9018  0.0451
 8351TIP3    H246545   4.021   6.509   0.498  1.6587  0.0630  0.7454
 8352TIP3   OH246546   3.777   5.583   4.283 -0.2662 -0.0472 -0.4844
 8352TIP3    H146547   3.801   5.669   4.250 -0.4385 -0.3975 -1.5987
 8352TIP3    H246548   3.829   5.571   4.362 -1.8496  1.9487  0.9433
 8353TIP3   OH246549   3.546   5.820   4.314  0.6698  0.0450 -0.0780
 8353TIP3    H146550   3.497   5.899   4.292  0.6592  0.4410  1.2866
 8353TIP3    H246551   3.637   5.847   4.317  0.6358  0.1113  0.7361
 8354TIP3   OH246552   3.520   2.114   2.084  0.0640 -0.5844 -1.0934
 8354TIP3    H146553   3.441   2.154   2.118  1.3479  2.3357 -1.2586
 8354TIP3    H246554   3.523   2.139   1.992  1.6252  0.2353 -0.8598
 8355TIP3   OH246555   4.341   1.916  17.238  0.1314  0.0232 -0.2153
 8355TIP3    H146556   4.412   1.979  17.243 -0.1933  0.3318  0.6250
 8355TIP3    H246557   4.376   1.837  17.281 -0.1138  0.2653  0.4490
 8356TIP3   OH246558   4.226   3.752  15.680  0.6342  0.2683 -0.7233
 8356TIP3    H146559   4.267   3.821  15.627 -0.1298  0.9159 -0.4767
 8356TIP3    H246560   4.270   3.672  15.652  1.3890  0.8208 -1.1649
 8357TIP3   OH246561   5.861   2.893  13.789  0.0947  0.1690 -0.6354
 8357TIP3    H146562   5.867   2.859  13.879  0.3156  0.5218 -0.5096
 8357TIP3    H246563   5.951   2.921  13.769 -0.1491  1.0457 -0.5757
 8358TIP3   OH246564   1.517   1.208  11.104  0.3508  0.2896 -0.1246
 8358TIP3    H146565   1.450   1.141  11.118 -0.1020  0.5585 -0.9228
 8358TIP3    H246566   1.517   1.221  11.009  1.3828  0.4521 -0.1070
 8359TIP3   OH246567   3.084   3.597  12.150 -0.2269 -0.3272  0.0172
 8359TIP3    H146568   3.115   3.668  12.094 -1.0065  1.3330  1.5797
 8359TIP3    H246569   3.070   3.638  12.235 -1.7323 -2.1362  0.7167
 8360TIP3   OH246570   4.760   0.494   5.512 -0.0617 -0.6154 -0.0979
 8360TIP3    H146571   4.763   0.409   5.467  3.1880 -0.9575  0.5024
 8360TIP3    H246572   4.810   0.552   5.454  1.5581 -0.3047  1.5217
 8361TIP3   OH246573   2.871   2.456   2.628  0.6622  0.2178  0.3435
 8361TIP3    H146574   2.933   2.449   2.556  0.4368  1.0532  0.0488
 8361TIP3    H246575   2.914   2.415   2.703  0.5272 -1.5098 -0.4865
 8362TIP3   OH246576   1.952   3.802   3.010 -0.3494 -0.0215 -0.4828
 8362TIP3    H146577   2.030   3.748   3.019 -1.5655 -1.8835 -0.5568
 8362TIP3    H246578   1.889   3.763   3.071 -1.7344  0.4573 -1.5512
 8363TIP3   OH246579   2.323   1.439  13.406 -0.4057  0.0929  0.5783
 8363TIP3    H146580   2.267   1.440  13.484 -1.9453 -1.5645 -0.4274
 8363TIP3    H246581   2.273   1.486  13.340  0.8008  1.3168  0.5004
 8364TIP3   OH246582   3.780   3.032  15.551 -0.1779 -0.6402  0.2823
 8364TIP3    H146583   3.701   3.024  15.498  1.0792  0.1695 -1.8407
 8364TIP3    H246584   3.804   2.941  15.571  0.1626 -1.1060 -1.9552
 8365TIP3   OH246585   3.694   0.811  12.242  0.3537  0.0889 -0.7922
 8365TIP3    H146586   3.617   0.810  12.299  0.2979 -1.8525 -0.8097
 8365TIP3    H246587   3.768   0.794  12.300  0.2713 -2.1336 -1.2501
 8366TIP3   OH246588   6.034   4.226  15.903 -0.1897  0.3719 -0.6181
 8366TIP3    H146589   6.042   4.271  15.987  3.6540  0.8625 -1.0658
 8366TIP3    H246590   5.995   4.141  15.925 -0.9213  1.1564  1.3244
 8367TIP3   OH246591   6.659   6.243  11.731  0.5187 -0.0013  0.4373
 8367TIP3    H146592   6.611   6.288  11.662  0.5116 -0.3053  0.2425
 8367TIP3    H246593   6.598   6.177  11.764  0.5668  0.0599  0.6496
 8368TIP3   OH246594   1.220   5.459  11.546 -0.2125 -0.0360  0.2645
 8368TIP3    H146595   1.182   5.386  11.595 -0.3920  0.4017  0.7956
 8368TIP3    H246596   1.313   5.438  11.538 -0.1673 -0.0743  0.8745
 8369TIP3   OH246597   4.723   5.546   3.312  0.4369  0.2904  0.3574
 8369TIP3    H146598   4.761   5.491   3.381  0.6790 -0.0315 -0.0275
 8369TIP3    H246599   4.785   5.539   3.239 -1.1271 -1.4974 -0.8664
 8370TIP3   OH246600   2.010   2.061   4.585 -0.0603 -0.1246  0.3604
 8370TIP3    H146601   1.980   2.126   4.521  0.6305  0.5741  0.7358
 8370TIP3    H246602   1.978   2.094   4.669 -0.1268 -0.5318  0.4977
 8371TIP3   OH246603   6.738   4.796  15.289  0.3229  0.3982 -0.0378
 8371TIP3    H146604   6.666   4.754  15.335  0.3541  0.2727 -0.1027
 8371TIP3    H246605   6.731   4.889  15.312 -1.3595  0.8343 -1.9989
 8372TIP3   OH246606   0.297   4.147   1.379 -0.2778  0.0694  0.4937
 8372TIP3    H146607   0.386   4.131   1.348  0.1363 -0.1184  1.7225
 8372TIP3    H246608   0.283   4.241   1.366  0.1945  0.1461  0.5306
 8373TIP3   OH246609   1.795   2.063   3.830 -0.0420 -0.2716 -0.4308
 8373TIP3    H146610   1.739   1.985   3.830 -1.5949  0.8165 -0.5769
 8373TIP3    H246611   1.760   2.118   3.759 -0.9450  1.9132  1.5801
 8374TIP3   OH246612   6.501   6.517   5.025  0.6254  0.2511 -0.1030
 8374TIP3    H146613   6.478   6.601   5.065  1.4139  0.1703  0.5405
 8374TIP3    H246614   6.513   6.538   4.932  0.6050  0.8117  0.0144
 8375TIP3   OH246615   0.619   1.166  13.474 -0.0294  0.4936 -0.6034
 8375TIP3    H146616   0.584   1.229  13.537  1.5773  2.4967 -1.5775
 8375TIP3    H246617   0.705   1.143  13.509  0.3415  0.6405 -1.3911
 8376TIP3   OH246618   2.023   2.397  14.193 -0.4522  0.2189  0.6279
 8376TIP3    H146619   2.002   2.366  14.282 -0.6341  1.6104  1.0973
 8376TIP3    H246620   1.938   2.398  14.148 -0.5330  0.5243  0.7815
 8377TIP3   OH246621   5.279   2.294   4.910  0.1167  0.0347  0.2084
 8377TIP3    H146622   5.269   2.238   4.987 -4.6095  1.1117  0.6797
 8377TIP3    H246623   5.225   2.252   4.843  1.1301  1.0966 -1.3555
 8378TIP3   OH246624   0.528   6.469  17.217  0.1518 -0.6911 -0.2461
 8378TIP3    H146625   0.603   6.418  17.247  0.3289 -0.3664 -0.1300
 8378TIP3    H246626   0.558   6.560  17.220 -0.0479 -0.6067 -0.7821
 8379TIP3   OH246627   5.160   0.428  15.764  0.4734 -0.3586  0.1236
 8379TIP3    H146628   5.221   0.475  15.707  0.4484  2.1168  1.9911
 8379TIP3    H246629   5.209   0.412  15.845 -0.2390 -1.6830  0.3357
 8380TIP3   OH246630   4.796   5.380   3.572 -0.5270 -0.3440  0.1716
 8380TIP3    H146631   4.879   5.421   3.599 -0.4376  0.2365 -0.9369
 8380TIP3    H246632   4.729   5.437   3.609 -0.4020  0.6464 -1.0445
 8381TIP3   OH246633   3.849   5.079  12.264  0.5548  0.2227  0.9524
 8381TIP3    H146634   3.834   5.078  12.169 -0.1620  0.7879  1.0536
 8381TIP3    H246635   3.913   5.010  12.278 -2.0410 -2.4647  0.5014
 8382TIP3   OH246636   0.032   3.312  12.507  0.0949 -0.3121 -0.1758
 8382TIP3    H146637  -0.055   3.284  12.480 -0.2703 -1.2182  1.8415
 8382TIP3    H246638   0.079   3.326  12.424 -0.8644 -3.2052 -1.3292
 8383TIP3   OH246639   1.759   0.917  17.234  0.2303 -0.4423  0.6505
 8383TIP3    H146640   1.686   0.920  17.295 -1.7869 -2.3363 -1.4787
 8383TIP3    H246641   1.758   1.003  17.192 -1.6365 -0.8357 -0.2061
 8384TIP3   OH246642   1.648   5.635   0.997 -0.4004  0.2111 -0.1428
 8384TIP3    H146643   1.717   5.701   0.985 -0.6459  0.1949 -1.9227
 8384TIP3    H246644   1.584   5.655   0.928  0.1533 -2.6618 -1.6290
 8385TIP3   OH246645   0.074   4.250  14.018 -0.4201 -0.2193 -0.6772
 8385TIP3    H146646   0.049   4.319  13.957 -1.5534  0.1250  0.1499
 8385TIP3    H246647   0.039   4.278  14.102  1.3856 -0.5307  0.2309
 8386TIP3   OH246648   0.143   1.773  11.764 -0.4147  0.2688 -0.0304
 8386TIP3    H146649   0.205   1.719  11.716  1.0355 -0.1327  2.1397
 8386TIP3    H246650   0.068   1.716  11.779 -0.9234  0.4225 -1.7728
 8387TIP3   OH246651   5.087   6.288  16.628  0.1333  0.2530 -0.2809
 8387TIP3    H146652   5.129   6.366  16.594 -1.4145  1.0990 -0.3220
 8387TIP3    H246653   5.054   6.313  16.715 -0.9783 -0.1133 -0.5705
 8388TIP3   OH246654   1.163   0.644  15.000  0.6401  0.6786 -0.1376
 8388TIP3    H146655   1.257   0.651  14.980  0.7213  0.0457 -0.0061
 8388TIP3    H246656   1.160   0.644  15.096  0.5681  0.0146 -0.1359
 8389TIP3   OH246657   6.717   3.892   1.195 -0.1630 -0.4823  0.3176
 8389TIP3    H146658   6.726   3.886   1.100  0.1740  0.1652  0.3057
 8389TIP3    H246659   6.640   3.947   1.209  1.4037  1.8294  0.3869
 8390TIP3   OH246660   2.014   2.188   1.338 -0.4461 -0.1021  0.4269
 8390TIP3    H146661   2.076   2.187   1.410  1.2051  0.8318 -0.9021
 8390TIP3    H246662   1.965   2.106   1.347 -0.3418  0.0171  2.6003
 8391TIP3   OH246663   5.350   3.435   2.775  0.0072 -0.4182  0.0244
 8391TIP3    H146664   5.255   3.420   2.781 -0.4767  1.8579 -0.7901
 8391TIP3    H246665   5.379   3.374   2.707 -1.2103  0.0578 -0.9656
 8392TIP3   OH246666   3.168   6.439   2.683 -0.0815 -0.1647 -0.1967
 8392TIP3    H146667   3.222   6.504   2.727 -0.8395 -0.2239  0.8644
 8392TIP3    H246668   3.222   6.361   2.679 -0.0432 -0.1961  0.7655
 8393TIP3   OH246669   2.654   0.698  16.623  0.8076 -0.0104 -0.2271
 8393TIP3    H146670   2.605   0.630  16.670  0.2119 -0.6160 -1.6668
 8393TIP3    H246671   2.615   0.780  16.653 -0.8354 -0.4665 -0.9866
 8394TIP3   OH246672   2.926   3.246   2.639  0.1722  0.0525 -0.0307
 8394TIP3    H146673   2.955   3.333   2.665  1.9868 -0.4233 -0.3326
 8394TIP3    H246674   2.853   3.262   2.579  1.4816  1.4401 -1.3343
 8395TIP3   OH246675   2.987   0.759  13.465 -0.0898  0.1628 -0.0053
 8395TIP3    H146676   2.967   0.837  13.516 -0.5003  0.0053  0.0862
 8395TIP3    H246677   2.944   0.688  13.513 -0.8218  0.0678 -0.7774
 8396TIP3   OH246678   2.213   4.049   2.013 -0.2797 -0.5583  0.0111
 8396TIP3    H146679   2.230   4.042   1.919  0.7125  0.1781  0.1211
 8396TIP3    H246680   2.122   4.079   2.019  0.0410  0.6439 -0.7636
 8397TIP3   OH246681   4.330   0.376   1.641  0.3335 -0.6913  0.3175
 8397TIP3    H146682   4.349   0.373   1.547  0.0364 -1.4487  0.2722
 8397TIP3    H246683   4.307   0.467   1.658  0.8777 -0.4409 -0.2465
 8398TIP3   OH246684   2.534   1.347   5.104 -0.2860  0.5332 -0.1608
 8398TIP3    H146685   2.542   1.258   5.139  1.2156  0.1371 -1.4162
 8398TIP3    H246686   2.448   1.377   5.135  0.0235 -0.5960  1.9273
 8399TIP3   OH246687   6.256   5.265  12.730 -0.4569  0.2369  0.2329
 8399TIP3    H146688   6.307   5.254  12.650 -1.3858 -1.0672 -0.2273
 8399TIP3    H246689   6.214   5.350  12.721 -0.7138  0.0174 -0.7935
 8400TIP3   OH246690   3.750   5.852  11.081  0.8277  0.6099  0.1173
 8400TIP3    H146691   3.830   5.836  11.032  0.8445  0.0021  0.3383
 8400TIP3    H246692   3.780   5.888  11.164  0.9121 -0.1883  0.4390
 8401TIP3   OH246693   1.589   4.302  13.241 -0.3853 -0.3001 -0.0720
 8401TIP3    H146694   1.543   4.385  13.223 -1.2567 -0.4632  1.3001
 8401TIP3    H246695   1.602   4.264  13.154 -1.4190  0.5128 -0.6179
 8402TIP3   OH246696   2.313   3.862  11.098 -0.4582  0.3769  0.1264
 8402TIP3    H146697   2.379   3.920  11.060 -1.6929  1.1808 -0.8908
 8402TIP3    H246698   2.238   3.919  11.117 -1.8063 -0.8550 -1.1364
 8403TIP3   OH246699   3.370   2.434  11.950 -0.3378  0.5041 -0.3258
 8403TIP3    H146700   3.397   2.524  11.967 -1.1449  0.3571  2.2164
 8403TIP3    H246701   3.347   2.433  11.857  0.8401  2.5892 -0.6975
 8404TIP3   OH246702   6.358   1.162   4.074  0.2573  0.1199 -0.2610
 8404TIP3    H146703   6.398   1.079   4.100 -0.3094  0.4032  1.6944
 8404TIP3    H246704   6.267   1.155   4.105  0.2768  1.5649  0.1605
 8405TIP3   OH246705   0.641   3.508   4.714 -0.2247 -0.2433  0.2760
 8405TIP3    H146706   0.579   3.567   4.670 -0.4237 -0.0619  0.7890
 8405TIP3    H246707   0.727   3.542   4.689 -0.2979  1.6824  2.3288
 8406TIP3   OH246708   5.736   2.631  16.580 -0.2957 -0.1957 -0.2759
 8406TIP3    H146709   5.829   2.632  16.558  0.0992  3.1281  0.9816
 8406TIP3    H246710   5.691   2.659  16.500 -0.2312 -1.4903 -0.7864
 8407TIP3   OH246711   4.607   1.542  11.269 -0.2212  0.7327  0.1939
 8407TIP3    H146712   4.522   1.520  11.308 -0.2637 -1.4981 -0.9653
 8407TIP3    H246713   4.660   1.572  11.343 -0.9954 -1.1040  1.5914
 8408TIP3   OH246714   2.368   6.423  14.248  0.0558 -0.5239 -0.2797
 8408TIP3    H146715   2.307   6.383  14.310 -0.7755 -0.0828 -0.7928
 8408TIP3    H246716   2.342   6.386  14.163 -0.4866  0.8034 -0.7114
 8409TIP3   OH246717   0.330   4.143   0.613 -0.2376  0.6736  0.3553
 8409TIP3    H146718   0.370   4.218   0.657  0.0574  0.7517 -0.0412
 8409TIP3    H246719   0.376   4.067   0.648  0.8550  0.8188 -0.7185
 8410TIP3   OH246720   3.889   6.688  11.281  0.0218  0.1193 -0.0396
 8410TIP3    H146721   3.927   6.703  11.194  0.7669 -0.4310  0.1801
 8410TIP3    H246722   3.917   6.765  11.332  1.4389 -0.5773  0.2991
 8411TIP3   OH246723   6.442   3.865  15.595 -0.2563  0.3978 -0.0378
 8411TIP3    H146724   6.446   3.894  15.687 -2.4152  3.7535 -0.8085
 8411TIP3    H246725   6.348   3.861  15.576  0.0056 -3.6904 -1.2789
 8412TIP3   OH246726   6.754   2.617  15.167 -0.1196  0.2400  0.2066
 8412TIP3    H146727   6.705   2.535  15.179 -0.4148  0.6693  2.2032
 8412TIP3    H246728   6.835   2.604  15.215 -0.9474  1.7362  2.1347
 8413TIP3   OH246729   4.568   5.885  13.540  0.6158 -0.2874 -0.3417
 8413TIP3    H146730   4.472   5.892  13.548  0.2474 -1.5859 -2.6080
 8413TIP3    H246731   4.602   5.957  13.592 -1.7015  1.7535 -1.4223
 8414TIP3   OH246732   2.435   3.725   5.559  0.2201 -0.2867 -0.6343
 8414TIP3    H146733   2.390   3.794   5.608  1.5242 -0.1610  0.4532
 8414TIP3    H246734   2.378   3.649   5.567 -0.4203  0.2067 -0.4024
 8415TIP3   OH246735   1.174   4.258   4.263 -0.6024 -0.0987  0.2016
 8415TIP3    H146736   1.188   4.276   4.170 -0.1728  1.1256  0.4848
 8415TIP3    H246737   1.255   4.215   4.292 -0.8440 -0.7300 -0.0371
 8416TIP3   OH246738   3.520   0.920  12.787 -0.4118 -0.2719  0.1970
 8416TIP3    H146739   3.432   0.902  12.820 -0.9899  4.0130  1.6199
 8416TIP3    H246740   3.577   0.912  12.864 -0.1041  0.1558  0.0203
 8417TIP3   OH246741   1.031   1.025   1.893 -0.4780  0.0311 -0.3262
 8417TIP3    H146742   1.078   0.978   1.824 -0.8120  1.5787 -1.6823
 8417TIP3    H246743   1.099   1.065   1.946 -0.1721 -2.2729  1.1383
 8418TIP3   OH246744   3.226   5.282   5.385 -0.0998 -0.1852 -0.0556
 8418TIP3    H146745   3.186   5.340   5.449  0.9160  1.9975 -1.2824
 8418TIP3    H246746   3.166   5.283   5.310  0.0254 -0.5661 -0.1652
 8419TIP3   OH246747   1.179   4.810  10.210 -0.5795  0.0043 -0.4095
 8419TIP3    H146748   1.086   4.819  10.228 -0.4098  2.0742 -0.3037
 8419TIP3    H246749   1.202   4.722  10.240 -1.8193  0.6304  2.7307
 8420TIP3   OH246750   1.831   0.051  13.149 -0.5506 -0.3640  0.2293
 8420TIP3    H146751   1.829   0.131  13.201 -1.1370  0.1308 -0.5571
 8420TIP3    H246752   1.924   0.026  13.148 -0.4380 -0.0031  0.9296
 8421TIP3   OH246753   4.252   3.123   1.650  0.0999 -0.3744  0.1281
 8421TIP3    H146754   4.220   3.033   1.651 -1.5543  0.1752 -0.0481
 8421TIP3    H246755   4.185   3.172   1.696  0.5743  0.8940 -0.4924
 8422TIP3   OH246756   2.706   1.728   1.036  0.3342 -0.3769 -0.3632
 8422TIP3    H146757   2.667   1.815   1.031  1.2248  0.0130 -0.5279
 8422TIP3    H246758   2.763   1.722   0.959 -0.6915 -1.5960 -1.0815
 8423TIP3   OH246759   5.055   2.311   3.298  0.3994 -0.8083 -0.1505
 8423TIP3    H146760   5.124   2.329   3.235 -1.2691 -0.8957 -2.0728
 8423TIP3    H246761   5.037   2.217   3.289  0.9967 -1.1132  1.4054
 8424TIP3   OH246762   6.103   2.401   1.348  0.3340  0.1525 -0.1760
 8424TIP3    H146763   6.008   2.394   1.340  0.0115  0.1783  2.6187
 8424TIP3    H246764   6.129   2.318   1.388  1.1505  0.9599  1.0472
 8425TIP3   OH246765   5.955   1.693   3.887 -0.3823  0.6938  0.0191
 8425TIP3    H146766   5.983   1.741   3.965 -1.1920  2.8564 -0.9391
 8425TIP3    H246767   5.870   1.657   3.909 -0.3954  0.8983  0.3027
 8426TIP3   OH246768   4.445   1.528  13.312  0.1490 -0.1476 -0.2864
 8426TIP3    H146769   4.401   1.444  13.324 -0.8767 -0.1852 -3.4897
 8426TIP3    H246770   4.537   1.505  13.298  0.5643 -0.3742  2.2914
 8427TIP3   OH246771   2.455   5.909  10.720  0.3894  0.1074  0.2745
 8427TIP3    H146772   2.378   5.963  10.705 -0.4124 -1.1010 -0.0120
 8427TIP3    H246773   2.446   5.834  10.661  0.6252 -1.2061  1.8274
 8428TIP3   OH246774   6.684   1.010  14.919  0.4265 -0.2894 -0.1108
 8428TIP3    H146775   6.718   1.095  14.893  1.1894 -1.1380 -2.0478
 8428TIP3    H246776   6.607   1.030  14.972  1.4301  1.6057  0.7367
 8429TIP3   OH246777   6.550   3.386   1.453  0.3458  0.3474  0.4122
 8429TIP3    H146778   6.565   3.473   1.491 -1.3848  0.6118  0.5654
 8429TIP3    H246779   6.542   3.328   1.529 -0.0514  0.3426  0.3721
 8430TIP3   OH246780   5.528   0.179   4.643 -0.8691 -0.5435  0.3611
 8430TIP3    H146781   5.528   0.160   4.736 -0.6737 -0.9611  0.2752
 8430TIP3    H246782   5.456   0.126   4.607 -1.6286  0.4064  0.4317
 8431TIP3   OH246783   5.976   6.061   0.162  0.5567  0.1250  0.0213
 8431TIP3    H146784   6.014   6.146   0.141  1.0108 -0.0433  0.1369
 8431TIP3    H246785   6.019   6.035   0.244 -0.7574  0.5044  0.8545
 8432TIP3   OH246786   5.621   6.379  16.164  0.2670 -0.0242 -0.0497
 8432TIP3    H146787   5.704   6.403  16.203 -0.6553  1.3639  1.1616
 8432TIP3    H246788   5.563   6.454  16.181 -0.9195 -0.4547 -1.8477
 8433TIP3   OH246789   2.007   5.222  10.938 -0.0804 -0.1289  0.2926
 8433TIP3    H146790   1.952   5.158  10.984  1.3545 -0.6780  1.3455
 8433TIP3    H246791   2.084   5.172  10.911 -0.6524  0.2944 -2.3816
 8434TIP3   OH246792   3.974   1.433  11.583  0.7051  0.1468 -0.2107
 8434TIP3    H146793   4.000   1.425  11.674 -0.3207  0.7386  0.1613
 8434TIP3    H246794   3.886   1.395  11.580  0.0961  1.5238 -0.6065
 8435TIP3   OH246795   5.474   2.234   1.918 -0.1576 -0.1798 -0.2480
 8435TIP3    H146796   5.524   2.198   1.844 -0.0610  1.0855 -0.8191
 8435TIP3    H246797   5.477   2.329   1.906  0.8936  0.1576  2.0563
 8436TIP3   OH246798   0.081   1.731  16.590  0.4996  0.2098  0.1159
 8436TIP3    H146799   0.150   1.670  16.617  0.0270  0.2402  1.4474
 8436TIP3    H246800   0.079   1.723  16.495  0.4533 -1.8755  0.2301
 8437TIP3   OH246801   2.054   5.381   5.664 -0.2007 -0.0513 -0.3549
 8437TIP3    H146802   2.082   5.457   5.714 -2.2890  0.6552 -0.1561
 8437TIP3    H246803   2.099   5.390   5.580 -1.1794  2.0142 -0.7310
 8438TIP3   OH246804   3.249   3.972  12.857  0.2901 -0.3105  0.1673
 8438TIP3    H146805   3.292   4.019  12.785  0.9022  1.8459  1.8417
 8438TIP3    H246806   3.307   3.985  12.932 -1.1297 -1.1062  1.4543
 8439TIP3   OH246807   5.673   5.136   2.406 -0.6347 -0.1517  0.5815
 8439TIP3    H146808   5.759   5.170   2.382 -1.0680  0.3406 -0.3603
 8439TIP3    H246809   5.688   5.085   2.485  0.2451  1.3212  1.4092
 8440TIP3   OH246810   4.731   0.438   4.693  0.0131  0.0314  0.4004
 8440TIP3    H146811   4.783   0.401   4.764 -0.2392  0.8839  1.0548
 8440TIP3    H246812   4.726   0.369   4.628 -1.4503 -1.5635  2.0750
 8441TIP3   OH246813   2.462   2.910  10.920 -0.0368  0.1068 -0.0868
 8441TIP3    H146814   2.443   2.838  10.980  0.9252 -2.2663 -2.4464
 8441TIP3    H246815   2.541   2.951  10.955 -0.2572 -0.3566  0.9731
 8442TIP3   OH246816   3.052   0.945  16.526  0.1313 -0.3791 -0.0596
 8442TIP3    H146817   3.109   0.997  16.470  1.1064  0.8954  1.9899
 8442TIP3    H246818   2.980   1.005  16.548  0.9886  0.0076  1.8924
 8443TIP3   OH246819   6.742   4.702   4.529  0.0426  0.1645  0.2651
 8443TIP3    H146820   6.755   4.797   4.531 -0.7009  0.3022 -0.8202
 8443TIP3    H246821   6.830   4.666   4.514  0.1041  0.7764 -0.9867
 8444TIP3   OH246822   3.570   4.852   2.391 -0.1585 -0.2351  0.2924
 8444TIP3    H146823   3.519   4.918   2.345  0.7717 -0.5324 -1.2263
 8444TIP3    H246824   3.565   4.774   2.335  1.4952 -0.4337  0.3801
 8445TIP3   OH246825   1.662   4.161   1.406  0.4329  0.0563 -0.3535
 8445TIP3    H146826   1.623   4.091   1.458  1.5055 -0.4514 -0.2129
 8445TIP3    H246827   1.626   4.242   1.444 -1.5619 -0.4142 -1.1294
 8446TIP3   OH246828   5.290   1.717  14.346  0.6422 -0.2462  0.3028
 8446TIP3    H146829   5.239   1.661  14.405  0.8284 -2.6029 -1.6371
 8446TIP3    H246830   5.241   1.716  14.264  0.9662  2.0403  0.0214
 8447TIP3   OH246831   1.283   4.396  11.018  1.0788 -0.3422 -0.5403
 8447TIP3    H146832   1.205   4.425  11.065  1.8034 -0.0954  0.5630
 8447TIP3    H246833   1.329   4.340  11.080  1.8609 -0.3480 -1.1075
 8448TIP3   OH246834   1.781   6.624   0.446 -0.1833 -0.3384  0.1053
 8448TIP3    H146835   1.698   6.592   0.411 -0.3881  1.2365 -0.9734
 8448TIP3    H246836   1.773   6.719   0.441  1.5118 -0.1555  0.4266
 8449TIP3   OH246837   4.806   3.729   5.591  0.0873 -0.0765  0.7211
 8449TIP3    H146838   4.856   3.722   5.673 -0.6128  1.6508  1.3435
 8449TIP3    H246839   4.787   3.822   5.583  1.3032  0.0327 -2.1539
 8450TIP3   OH246840   0.965   2.400  11.388 -0.1817 -0.0732 -0.1821
 8450TIP3    H146841   0.874   2.408  11.357  0.3462  0.1525 -1.7551
 8450TIP3    H246842   1.012   2.362  11.314  1.3418  1.3450 -0.0027
 8451TIP3   OH246843   4.320   3.864  13.060 -0.2414  0.0568  0.1721
 8451TIP3    H146844   4.321   3.926  12.987  0.4640  0.5577  0.5917
 8451TIP3    H246845   4.375   3.904  13.127 -1.4963 -0.0276  1.3023
 8452TIP3   OH246846   4.093   5.381   3.027  0.0583 -0.8957  0.0405
 8452TIP3    H146847   4.028   5.418   3.086 -0.6087 -1.0179 -0.6079
 8452TIP3    H246848   4.163   5.447   3.023 -0.4323 -0.3723  0.0509
 8453TIP3   OH246849   6.102   3.827  14.566 -0.0864  0.5786 -0.4206
 8453TIP3    H146850   6.097   3.884  14.490 -0.1021 -1.2918 -1.8822
 8453TIP3    H246851   6.053   3.749  14.541 -0.0596 -0.1124  1.5083
 8454TIP3   OH246852   4.991   1.802  16.543  0.2325 -0.2475  0.0598
 8454TIP3    H146853   5.034   1.716  16.553 -1.6255 -1.4146 -1.3224
 8454TIP3    H246854   5.060   1.859  16.510  1.3592 -1.3693  0.3714
 8455TIP3   OH246855   3.182   4.350   3.211 -0.4452 -0.0981  0.0053
 8455TIP3    H146856   3.142   4.403   3.280  1.0674  0.8171  0.2194
 8455TIP3    H246857   3.189   4.409   3.136 -2.9354 -1.3462 -1.3119
 8456TIP3   OH246858   6.679   0.781  11.662  0.3644  0.1666  0.0872
 8456TIP3    H146859   6.615   0.834  11.710 -0.8616 -0.5246 -0.7347
 8456TIP3    H246860   6.688   0.826  11.578  1.4470  0.6036  0.4297
 8457TIP3   OH246861   3.855   4.959   2.048  0.2555  0.1244  0.6303
 8457TIP3    H146862   3.789   5.028   2.056 -1.4282 -1.2713 -0.4420
 8457TIP3    H246863   3.869   4.950   1.954 -1.2053 -2.4187  0.5876
 8458TIP3   OH246864   6.280   3.030   2.894 -0.3247  0.2365  0.1499
 8458TIP3    H146865   6.241   3.057   2.976  0.1040 -0.2835  0.5317
 8458TIP3    H246866   6.278   2.934   2.897  0.9492  0.1959  0.1727
 8459TIP3   OH246867   5.859   3.794  15.395 -0.3228  0.8617 -0.3098
 8459TIP3    H146868   5.873   3.811  15.302  0.3888 -2.2195 -0.8640
 8459TIP3    H246869   5.841   3.700  15.401  1.3215  0.5953  2.8308
 8460TIP3   OH246870   6.198   3.075   4.204 -0.3497 -0.1291 -0.6351
 8460TIP3    H146871   6.181   2.983   4.223 -0.8571  0.1936  0.5105
 8460TIP3    H246872   6.247   3.106   4.279  0.3201  0.4092 -1.2791
 8461TIP3   OH246873   2.261   6.002   3.886  0.6571 -0.1981 -0.3721
 8461TIP3    H146874   2.231   5.917   3.853 -0.1868 -0.6779  1.4981
 8461TIP3    H246875   2.237   6.002   3.978  0.5485  2.1207 -0.3291
 8462TIP3   OH246876   0.776   4.564   2.324 -0.3470  0.0200 -0.1920
 8462TIP3    H146877   0.690   4.533   2.355 -0.0420  0.1396  0.7923
 8462TIP3    H246878   0.822   4.591   2.403  0.5363  0.1427 -0.7353
 8463TIP3   OH246879   4.782   4.069   0.257  0.4064 -0.5375  0.0367
 8463TIP3    H146880   4.688   4.090   0.253 -0.1640 -2.7892 -0.1283
 8463TIP3    H246881   4.814   4.115   0.334 -0.8998  0.0631  0.2443
 8464TIP3   OH246882   3.620   1.742  11.261  0.5982 -0.0988  0.3972
 8464TIP3    H146883   3.541   1.774  11.305 -1.1782 -0.8239 -2.0478
 8464TIP3    H246884   3.683   1.814  11.269 -0.7676  1.0656  1.2136
 8465TIP3   OH246885   0.399   3.276   1.043 -0.0551  0.2030  0.2346
 8465TIP3    H146886   0.484   3.266   1.086 -0.6340 -0.5563  1.2500
 8465TIP3    H246887   0.335   3.263   1.113 -1.0126  0.4997 -0.5651
 8466TIP3   OH246888   3.603   1.621   6.098  0.1256 -0.4812 -0.4252
 8466TIP3    H146889   3.654   1.664   6.166  0.2690  0.5117 -1.1465
 8466TIP3    H246890   3.552   1.555   6.145  0.7403 -0.2844  0.5426
 8467TIP3   OH246891   4.304   5.251   5.983  0.2980 -0.8574  0.7881
 8467TIP3    H146892   4.320   5.337   6.022  0.2854 -1.1739  1.5145
 8467TIP3    H246893   4.384   5.201   6.002 -0.0517 -1.2851  1.1584
 8468TIP3   OH246894   4.962   1.798  13.811 -0.8142  0.6144  0.3770
 8468TIP3    H146895   4.878   1.755  13.800  0.1701 -1.0836 -1.2231
 8468TIP3    H246896   4.967   1.859  13.737 -1.0249  1.4152  1.0167
 8469TIP3   OH246897   1.156   6.328   5.872  0.3047 -0.0456  0.0083
 8469TIP3    H146898   1.126   6.388   5.804  0.3749  0.4978  0.4564
 8469TIP3    H246899   1.108   6.354   5.951 -0.3356 -1.1474  0.0104
 8470TIP3   OH246900   5.915   6.731  16.277  0.1578 -0.6966 -0.2376
 8470TIP3    H146901   5.979   6.802  16.277 -0.9783  0.3783 -0.0746
 8470TIP3    H246902   5.909   6.705  16.369 -1.5592  1.0936  0.2490
 8471TIP3   OH246903   2.060   1.142   0.939 -0.0418  0.5184 -0.7370
 8471TIP3    H146904   2.073   1.052   0.908  0.6252  0.5718 -0.6175
 8471TIP3    H246905   2.002   1.132   1.015  0.4189  0.1387 -0.4279
 8472TIP3   OH246906   6.637   0.058   5.709  0.2271  0.4415 -0.0451
 8472TIP3    H146907   6.700  -0.013   5.713 -1.0442 -0.8338 -1.3075
 8472TIP3    H246908   6.612   0.063   5.617 -1.4041  0.9767  0.3897
 8473TIP3   OH246909   1.061   1.329   3.622 -0.1065 -0.1004 -0.1719
 8473TIP3    H146910   1.011   1.247   3.624  0.5778 -0.5635 -1.3727
 8473TIP3    H246911   1.018   1.382   3.555 -0.7012  0.6539  0.7712
 8474TIP3   OH246912   2.084   1.661   1.809  0.5741  0.3255  0.0241
 8474TIP3    H146913   2.000   1.621   1.833  1.7086 -1.6109  1.0928
 8474TIP3    H246914   2.103   1.625   1.723  0.7235  0.0021  0.1879
 8475TIP3   OH246915   5.143   3.755   2.642 -0.8836  0.5144  0.0242
 8475TIP3    H146916   5.162   3.691   2.710 -0.0559  0.2099 -0.4781
 8475TIP3    H246917   5.140   3.703   2.561 -0.8489  1.0198 -0.3021
 8476TIP3   OH246918   2.986   3.866  11.601  0.5884 -0.0369 -0.2959
 8476TIP3    H146919   2.901   3.827  11.579  0.8778 -1.3405  0.7539
 8476TIP3    H246920   2.994   3.940  11.542 -0.6697 -0.7056 -1.3640
 8477TIP3   OH246921   2.425   0.649  14.958  0.7668  0.1444  0.1493
 8477TIP3    H146922   2.354   0.711  14.944  0.0442 -0.4391  1.0839
 8477TIP3    H246923   2.388   0.564  14.933  0.3417 -0.5121  2.6731
 8478TIP3   OH246924   3.360   0.040   2.787  0.4475  0.1772 -0.1211
 8478TIP3    H146925   3.438   0.060   2.839 -0.8140 -0.1029  2.0080
 8478TIP3    H246926   3.336   0.124   2.747  2.1636  0.1310 -1.3566
 8479TIP3   OH246927   2.557   3.442   1.947 -0.2714 -0.0832  0.0013
 8479TIP3    H146928   2.645   3.452   1.909 -0.5675  0.0417 -0.6593
 8479TIP3    H246929   2.573   3.424   2.040  0.4308  1.2948  0.1756
 8480TIP3   OH246930   1.022   0.712   3.931 -0.6061 -0.0821 -0.3384
 8480TIP3    H146931   1.006   0.621   3.903  0.3759 -0.9581  1.7343
 8480TIP3    H246932   0.948   0.733   3.986 -0.7810  0.3541 -0.7377
 8481TIP3   OH246933   5.746   5.170  11.423  0.2363  0.2083  1.0664
 8481TIP3    H146934   5.786   5.254  11.442  1.1501  0.2450 -0.7887
 8481TIP3    H246935   5.810   5.105  11.451  0.2952  0.1885  0.8912
 8482TIP3   OH246936   4.343   2.560   3.334  0.2386 -0.8106  0.2887
 8482TIP3    H146937   4.390   2.605   3.263 -0.5273 -1.8064 -0.8924
 8482TIP3    H246938   4.350   2.620   3.408  2.1203 -0.2852 -0.2526
 8483TIP3   OH246939   2.704   4.768   0.951 -0.1358  0.2700  0.4924
 8483TIP3    H146940   2.725   4.860   0.967 -1.0300  0.1586  2.6874
 8483TIP3    H246941   2.774   4.720   0.997  2.4697 -0.3187 -3.6082
 8484TIP3   OH246942   3.023   6.713   4.132  0.0476  0.0660 -0.4892
 8484TIP3    H146943   2.999   6.652   4.203  0.6567 -1.4620 -1.5375
 8484TIP3    H246944   3.033   6.657   4.055 -0.0481  1.6139 -1.6776
 8485TIP3   OH246945   0.201   3.796  15.185  0.2853 -0.6396 -0.5191
 8485TIP3    H146946   0.145   3.874  15.181 -0.9633 -1.4859 -0.1141
 8485TIP3    H246947   0.255   3.801  15.107 -1.3675 -0.5370 -1.7009
 8486TIP3   OH246948   1.506   2.025   5.854  0.7721  0.3123 -0.2704
 8486TIP3    H146949   1.528   1.966   5.926  2.6737 -0.9495 -1.7896
 8486TIP3    H246950   1.494   2.110   5.895 -0.1235 -0.7321  1.7555
 8487TIP3   OH246951   2.932   2.770  14.193 -0.0686 -0.3467  0.4653
 8487TIP3    H146952   2.866   2.707  14.165 -1.3024  1.8818 -2.1001
 8487TIP3    H246953   2.994   2.774  14.120 -2.0874  3.9370 -1.3984
 8488TIP3   OH246954   5.592   4.999  11.757  0.3519  0.3788  0.3304
 8488TIP3    H146955   5.686   4.991  11.747  0.1493 -2.1148 -0.2049
 8488TIP3    H246956   5.580   5.049  11.838  2.0954  0.8123  0.3568
 8489TIP3   OH246957   4.824   1.210  13.977 -0.4459 -0.2456 -0.0560
 8489TIP3    H146958   4.912   1.200  14.014 -0.2763 -0.3130 -0.4712
 8489TIP3    H246959   4.770   1.149  14.026 -0.3452  0.0801  0.4693
 8490TIP3   OH246960   5.004   1.063   3.664  0.1792 -0.0154  0.2944
 8490TIP3    H146961   5.076   1.114   3.627 -1.1302  1.8782  0.2645
 8490TIP3    H246962   4.929   1.122   3.665 -1.6579 -2.1810 -0.4900
 8491TIP3   OH246963   2.822   6.260  14.877 -0.1101 -0.3517  0.6267
 8491TIP3    H146964   2.819   6.344  14.923  1.8449  0.7302 -1.0777
 8491TIP3    H246965   2.792   6.280  14.788  0.7868 -1.3501  0.0723
 8492TIP3   OH246966   5.647   4.918   0.231 -0.8313 -0.3976 -0.2693
 8492TIP3    H146967   5.680   4.988   0.174 -1.1631  0.4126  0.5042
 8492TIP3    H246968   5.561   4.897   0.196 -0.1441 -1.4668 -1.3881
 8493TIP3   OH246969   5.271   4.827  11.270 -0.1449  0.4874 -0.2282
 8493TIP3    H146970   5.256   4.777  11.350  1.0871  2.0719  1.0709
 8493TIP3    H246971   5.367   4.832  11.263 -0.1930 -0.1177 -2.1823
 8494TIP3   OH246972   2.167   1.146   1.451 -0.4845  0.1272  0.8731
 8494TIP3    H146973   2.160   1.206   1.526 -0.1583  0.9952  0.2231
 8494TIP3    H246974   2.169   1.059   1.491  0.8300  0.6168  1.9631
 8495TIP3   OH246975   5.744   2.767  15.432  0.1429  0.5874  0.3541
 8495TIP3    H146976   5.758   2.729  15.345 -0.5238  2.0090 -0.4047
 8495TIP3    H246977   5.759   2.860  15.420 -2.0191  1.1182  1.2713
 8496TIP3   OH246978   0.359   2.824  15.488  0.4637 -0.3165 -0.8944
 8496TIP3    H146979   0.371   2.752  15.550 -0.0175  0.4599  0.1315
 8496TIP3    H246980   0.387   2.902  15.536  0.8377  0.2111 -1.9356
 8497TIP3   OH246981   5.574   5.601  14.972 -0.3335  0.2337  0.3872
 8497TIP3    H146982   5.643   5.575  15.033 -0.3242  1.1712  0.7841
 8497TIP3    H246983   5.507   5.533  14.982  0.3794 -0.5145  0.2236
 8498TIP3   OH246984   2.892   4.011  14.989  0.5049 -0.4297 -0.0909
 8498TIP3    H146985   2.802   3.983  15.005 -0.5903  1.9039 -1.6272
 8498TIP3    H246986   2.933   3.937  14.945 -0.0056 -2.2648  2.2853
 8499TIP3   OH246987   3.821   0.743   4.419  0.1500  0.1255 -1.2255
 8499TIP3    H146988   3.855   0.787   4.497  0.9390 -1.4062 -0.6590
 8499TIP3    H246989   3.742   0.698   4.449  1.0975 -1.4447 -0.9644
 8500TIP3   OH246990   4.661   5.490   2.771 -0.3149 -0.0054  0.0926
 8500TIP3    H146991   4.572   5.527   2.767 -0.4663 -0.3533  0.1828
 8500TIP3    H246992   4.651   5.411   2.824  0.1778  0.3046  0.6509
 8501TIP3   OH246993   0.484   0.956   3.070  0.6027 -0.2370  0.7029
 8501TIP3    H146994   0.494   0.945   2.976 -1.2915  2.0270  0.1405
 8501TIP3    H246995   0.550   1.020   3.095  0.6222 -0.2881  0.7840
 8502TIP3   OH246996   1.309   6.337  13.412  0.3235 -0.4507 -0.2407
 8502TIP3    H146997   1.288   6.428  13.433  1.3878 -0.2655  0.0702
 8502TIP3    H246998   1.405   6.333  13.414  0.3392 -1.3032 -1.3963
 8503TIP3   OH246999   5.186   3.375   1.541 -0.3647 -0.2320 -0.4088
 8503TIP3    H147000   5.250   3.365   1.470  0.3846  0.2932  0.1798
 8503TIP3    H247001   5.130   3.447   1.513  2.0710  2.4487  1.0176
 8504TIP3   OH247002   4.646   3.886  12.556  0.2588  0.1276  0.1573
 8504TIP3    H147003   4.717   3.892  12.491 -0.6671  1.0220 -0.8008
 8504TIP3    H247004   4.632   3.976  12.584 -0.6628 -0.0117  0.1587
 8505TIP3   OH247005   3.478   1.409   3.068  0.0062 -0.1524 -0.0909
 8505TIP3    H147006   3.490   1.367   3.153 -0.5985  1.2721  0.7188
 8505TIP3    H247007   3.562   1.450   3.050 -0.0787  0.1283  0.1485
 8506TIP3   OH247008   3.015   3.888  12.161  0.0049  0.0542 -0.1264
 8506TIP3    H147009   2.950   3.959  12.158 -1.0195 -0.8077  0.8437
 8506TIP3    H247010   2.979   3.820  12.103  1.5046  0.6916 -1.9121
 8507TIP3   OH247011   5.109   2.409  16.415  0.5649  0.0124 -0.1720
 8507TIP3    H147012   5.041   2.388  16.479 -0.0217 -1.0978 -1.1365
 8507TIP3    H247013   5.149   2.325  16.393  1.0903  0.4405 -0.9018
 8508TIP3   OH247014   2.546   0.199  13.570  0.3086 -0.0464  0.4238
 8508TIP3    H147015   2.528   0.281  13.526  1.5653  0.4014  0.7001
 8508TIP3    H247016   2.522   0.131  13.507 -1.1182  0.5016  0.3447
 8509TIP3   OH247017   2.821   5.838   2.534 -0.4302 -0.1426  0.0342
 8509TIP3    H147018   2.893   5.897   2.555  0.5100 -0.1695 -2.6567
 8509TIP3    H247019   2.796   5.861   2.444 -1.8616 -2.0223 -0.1294
 8510TIP3   OH247020   3.678   0.899   4.754  0.1860 -0.2107 -0.3328
 8510TIP3    H147021   3.655   0.948   4.834 -0.8518  0.2859 -0.9228
 8510TIP3    H247022   3.721   0.820   4.786 -0.9206 -0.3979  0.7595
 8511TIP3   OH247023   1.498   1.354   1.870  0.1776  0.2134  0.1228
 8511TIP3    H147024   1.475   1.442   1.842 -0.1970  0.0503 -0.0892
 8511TIP3    H247025   1.434   1.297   1.827  2.5254 -0.5495 -2.6844
 8512TIP3   OH247026   3.973   0.481   3.675  0.7063 -0.3666  0.0646
 8512TIP3    H147027   3.911   0.419   3.714 -1.0497  1.2841 -0.0070
 8512TIP3    H247028   3.919   0.546   3.632  2.4935  1.2755  0.1632
 8513TIP3   OH247029   5.505   6.775   5.635  0.1238  0.3863 -0.1081
 8513TIP3    H147030   5.567   6.703   5.642  0.5491  0.8982  2.0632
 8513TIP3    H247031   5.557   6.848   5.601 -0.1771 -0.1173 -1.7522
 8514TIP3   OH247032   0.581   0.607  15.043  0.7890  0.2977  0.1371
 8514TIP3    H147033   0.657   0.664  15.050  0.8576  0.4173 -1.2909
 8514TIP3    H247034   0.571   0.592  14.949 -1.3123  0.8074  0.2179
 8515TIP3   OH247035   1.267   2.259  16.474  0.4155  0.8922  0.4304
 8515TIP3    H147036   1.279   2.331  16.411 -0.1162 -0.8251 -1.7453
 8515TIP3    H247037   1.353   2.219  16.481 -0.0893 -0.6732 -1.5287
 8516TIP3   OH247038   4.995   0.824   0.051 -0.1019 -0.3939 -0.3306
 8516TIP3    H147039   4.995   0.732   0.075 -1.5674 -0.0361  1.2023
 8516TIP3    H247040   5.035   0.869   0.125  0.9189  0.2045 -1.2084
 8517TIP3   OH247041   5.129   1.298  12.637 -0.0055 -0.2519  0.1842
 8517TIP3    H147042   5.077   1.223  12.667  0.2293 -0.5828 -0.2265
 8517TIP3    H247043   5.217   1.281  12.673  0.5183 -1.1262 -1.4257
 8518TIP3   OH247044   6.189   2.697  13.173 -0.1686 -0.0925 -0.4436
 8518TIP3    H147045   6.283   2.683  13.184  0.0382  1.0438 -0.6829
 8518TIP3    H247046   6.180   2.733  13.084 -0.7622  0.3692 -0.2028
 8519TIP3   OH247047   0.081   4.943   5.232 -0.7590 -0.5963  0.6415
 8519TIP3    H147048   0.116   4.994   5.304 -2.0237  0.6746  0.4147
 8519TIP3    H247049   0.008   4.996   5.198 -1.0111 -1.7468 -0.7412
 8520TIP3   OH247050   4.864   3.107  12.265  0.1863  0.2675 -0.0035
 8520TIP3    H147051   4.790   3.163  12.287  0.3401  1.7044 -2.7358
 8520TIP3    H247052   4.913   3.099  12.347 -1.3456  1.8096  1.1382
 8521TIP3   OH247053   3.823   6.548   5.013  0.1674  0.2384  0.3331
 8521TIP3    H147054   3.804   6.510   4.927 -2.2900  0.2751  0.7903
 8521TIP3    H247055   3.825   6.643   4.997 -1.0424  0.2911  0.4143
 8522TIP3   OH247056   6.647   2.714  12.597  0.0096  0.4839  0.2570
 8522TIP3    H147057   6.602   2.710  12.682  1.2908 -1.2311  0.9355
 8522TIP3    H247058   6.720   2.652  12.607 -0.3494 -0.4926 -2.4220
 8523TIP3   OH247059   0.879   4.318   5.749  0.1241 -0.0821 -0.2157
 8523TIP3    H147060   0.891   4.260   5.824 -1.6624 -0.0363  0.1509
 8523TIP3    H247061   0.911   4.267   5.674  1.6750 -0.2304  0.5076
 8524TIP3   OH247062   1.867   2.415   1.858 -0.6124 -0.1496  0.2924
 8524TIP3    H147063   1.846   2.332   1.901 -1.6451  0.0560  0.1922
 8524TIP3    H247064   1.855   2.397   1.764 -1.8118  0.3769  0.3329
 8525TIP3   OH247065   6.642   5.833  11.587  0.0697  0.2274  0.5948
 8525TIP3    H147066   6.591   5.822  11.667  1.1854  2.9167  1.8060
 8525TIP3    H247067   6.603   5.908  11.543  0.9630  0.3058 -0.1081
 8526TIP3   OH247068   2.593   2.277  11.419 -0.1652  0.0994 -0.0871
 8526TIP3    H147069   2.600   2.185  11.393 -2.4955 -0.1561  0.0267
 8526TIP3    H247070   2.501   2.300  11.404  0.1646  2.1670  0.6998
 8527TIP3   OH247071   2.683   6.202  16.261  0.1377  0.0603 -0.2180
 8527TIP3    H147072   2.593   6.191  16.232 -0.3513  0.0702  1.2111
 8527TIP3    H247073   2.677   6.254  16.341  1.4135  0.1131 -0.1262
 8528TIP3   OH247074   6.019   3.528  13.150  0.0154  0.2781 -0.3665
 8528TIP3    H147075   5.958   3.592  13.187 -1.9014 -0.0570 -2.6734
 8528TIP3    H247076   6.087   3.581  13.109  0.8470  0.6801  1.4274
 8529TIP3   OH247077   1.365   0.098   1.450 -0.3106 -0.4875 -0.3003
 8529TIP3    H147078   1.370   0.118   1.357  1.3029 -0.2060 -0.1840
 8529TIP3    H247079   1.447   0.132   1.486 -0.5417 -1.3249  1.0766
 8530TIP3   OH247080   1.394   5.098   0.651 -0.0185 -0.0684  0.1518
 8530TIP3    H147081   1.328   5.152   0.608  1.0312  0.9348 -0.2410
 8530TIP3    H247082   1.405   5.023   0.594 -0.5444 -0.0584  0.0302
 8531TIP3   OH247083   5.024   0.352   1.705  0.1092 -0.2632  0.5225
 8531TIP3    H147084   5.029   0.370   1.612 -0.5778  0.8469  0.6856
 8531TIP3    H247085   5.090   0.284   1.720  0.4005 -0.2718 -0.7122
 8532TIP3   OH247086   4.836   2.799   0.421 -0.3869  0.3922 -0.6628
 8532TIP3    H147087   4.817   2.747   0.500  1.2785 -0.8780 -1.0500
 8532TIP3    H247088   4.821   2.890   0.449 -4.8999 -0.1822 -0.3736
 8533TIP3   OH247089   6.132   1.360   3.381 -0.1026  0.4161  0.6659
 8533TIP3    H147090   6.075   1.402   3.446  0.0924 -0.6965  1.5913
 8533TIP3    H247091   6.133   1.420   3.307 -1.5415  1.0021  1.0983
 8534TIP3   OH247092   0.089   2.382   2.768 -0.2558  0.0051 -0.3392
 8534TIP3    H147093   0.028   2.320   2.729 -0.5676 -0.5167  0.9100
 8534TIP3    H247094   0.086   2.362   2.862  0.4295  1.2254 -0.0394
 8535TIP3   OH247095   5.662   1.405  16.105 -0.3594 -0.2854 -0.2906
 8535TIP3    H147096   5.702   1.411  16.192 -0.8418 -1.0584 -0.0052
 8535TIP3    H247097   5.654   1.495  16.076 -0.1740 -0.0160  0.4675
 8536TIP3   OH247098   2.514   0.005  16.897 -0.2281 -0.2361  0.0506
 8536TIP3    H147099   2.524   0.056  16.977  1.2636 -0.3100 -0.0583
 8536TIP3    H247100   2.437   0.042  16.855 -1.4278 -0.6414  1.8164
 8537TIP3   OH247101   5.351   4.891  14.672 -0.8136  0.0006  0.3179
 8537TIP3    H147102   5.283   4.827  14.693 -1.7382  0.2745 -1.5887
 8537TIP3    H247103   5.311   4.947  14.605  2.0043 -1.2170 -2.6400
 8538TIP3   OH247104   1.752   5.200   0.520 -0.0843  0.4159  0.4606
 8538TIP3    H147105   1.738   5.168   0.610 -1.3065  1.1351  0.5332
 8538TIP3    H247106   1.665   5.220   0.487  0.4041  0.6888 -0.7080
 8539TIP3   OH247107   1.308   2.470  13.034  0.0070 -0.4231  0.4742
 8539TIP3    H147108   1.224   2.514  13.044  0.8074  0.9895  1.4932
 8539TIP3    H247109   1.341   2.499  12.949  0.3505  0.6868  0.9657
 8540TIP3   OH247110   0.917   4.479   4.558  0.3320 -0.0449 -0.8004
 8540TIP3    H147111   0.908   4.574   4.549 -2.0688 -0.2724 -1.4126
 8540TIP3    H247112   0.914   4.464   4.652  1.8783  0.5453 -0.6304
 8541TIP3   OH247113   3.516   2.912   2.271  0.3040  0.0194 -0.2032
 8541TIP3    H147114   3.456   2.954   2.333 -0.6163  0.5064 -1.3668
 8541TIP3    H247115   3.536   2.827   2.310 -0.0359  0.4211  0.8751
 8542TIP3   OH247116   2.989   3.992   6.148 -0.2257 -0.2723  0.0252
 8542TIP3    H147117   2.961   3.913   6.102  1.1026  0.1946 -1.6596
 8542TIP3    H247118   3.075   3.970   6.183  0.0360  0.3425 -0.2244
 8543TIP3   OH247119   4.650   3.827   3.613  0.4205 -0.0081 -0.1584
 8543TIP3    H147120   4.669   3.921   3.615  2.8067 -0.4504  0.9725
 8543TIP3    H247121   4.558   3.821   3.641 -0.0580  2.0006 -1.1091
 8544TIP3   OH247122   6.555   3.478  14.324 -0.2100  0.9833  0.7495
 8544TIP3    H147123   6.480   3.523  14.363 -1.8318 -1.2368  0.3652
 8544TIP3    H247124   6.549   3.498  14.231 -0.5793  0.4682  0.6614
 8545TIP3   OH247125   5.303   1.556   3.213  0.5578  0.1424 -0.8341
 8545TIP3    H147126   5.371   1.516   3.160  1.2538 -1.2990  1.0337
 8545TIP3    H247127   5.229   1.494   3.208 -1.4501  2.4935 -4.2562
 8546TIP3   OH247128   5.980   5.081   3.930  0.3885 -0.4498 -0.2525
 8546TIP3    H147129   5.948   5.050   3.845 -0.8132  0.3703 -0.1134
 8546TIP3    H247130   5.999   5.000   3.979  1.0779 -0.9274 -1.2760
 8547TIP3   OH247131   6.561   5.546  13.572 -0.5699  0.1690 -0.6116
 8547TIP3    H147132   6.505   5.494  13.630  0.0242 -0.8158 -0.8900
 8547TIP3    H247133   6.579   5.488  13.498  1.7232  0.0108 -0.0161
 8548TIP3   OH247134   0.428   5.678  17.103 -0.1167  0.1277 -0.6714
 8548TIP3    H147135   0.346   5.698  17.147  1.0759  0.7331  1.4411
 8548TIP3    H247136   0.436   5.746  17.036  0.1358  2.0947  1.2468
 8549TIP3   OH247137   2.129   2.571  11.713 -0.6531 -0.0210 -0.0723
 8549TIP3    H147138   2.046   2.526  11.727 -1.3818  0.6130 -2.0412
 8549TIP3    H247139   2.192   2.500  11.695 -0.6821 -0.5094  1.5492
 8550TIP3   OH247140   1.782   4.523   3.570  0.1530 -0.0424  0.4402
 8550TIP3    H147141   1.708   4.470   3.541  0.6462 -1.4780  1.7172
 8550TIP3    H247142   1.748   4.575   3.643 -0.0847  0.7643 -0.2251
 8551TIP3   OH247143   1.626   5.327  11.078  0.1201  0.2064  0.0419
 8551TIP3    H147144   1.676   5.274  11.141  0.3846 -0.4126 -0.6738
 8551TIP3    H247145   1.644   5.417  11.104  0.4991 -0.0312  0.6454
 8552TIP3   OH247146   4.576   4.288   1.233 -0.0639  0.2961  0.1716
 8552TIP3    H147147   4.650   4.257   1.181 -1.2095  0.0403 -1.3807
 8552TIP3    H247148   4.604   4.277   1.324  2.6906  2.3580 -0.3078
 8553TIP3   OH247149   4.989   0.970  10.987  0.0241 -0.1580  0.6049
 8553TIP3    H147150   5.023   1.014  10.909  1.1421 -1.2834  0.4122
 8553TIP3    H247151   5.053   0.900  11.004 -1.4712 -1.4580  1.1058
 8554TIP3   OH247152   1.090   0.212   0.317  0.0336 -0.4869 -0.0045
 8554TIP3    H147153   1.103   0.117   0.314  1.2740 -0.3614  0.7438
 8554TIP3    H247154   1.159   0.244   0.374 -0.0568  0.9387 -0.6496
 8555TIP3   OH247155   3.311   6.556   5.577 -0.4414  0.5709 -0.1959
 8555TIP3    H147156   3.340   6.631   5.525  1.2921 -0.1840 -0.3936
 8555TIP3    H247157   3.384   6.537   5.635 -0.8969 -0.8855 -0.0541
 8556TIP3   OH247158   3.306   5.549  10.874 -0.3396  0.6640 -0.5118
 8556TIP3    H147159   3.253   5.528  10.797 -2.8021  0.6424  1.0825
 8556TIP3    H247160   3.342   5.465  10.902 -0.5500  0.4554 -0.8523
 8557TIP3   OH247161   2.673   4.817  16.261  0.5115 -0.0165  0.2066
 8557TIP3    H147162   2.592   4.767  16.268  1.3991 -1.3204  1.9494
 8557TIP3    H247163   2.648   4.898  16.216 -1.8666 -0.1114  1.2360
 8558TIP3   OH247164   0.149   1.509   6.341 -0.1620 -0.1101  0.6179
 8558TIP3    H147165   0.238   1.488   6.316 -0.5271 -1.4470  0.3571
 8558TIP3    H247166   0.152   1.520   6.436  0.3298  0.1530  0.5732
 8559TIP3   OH247167   3.096   1.980   3.831 -0.6807 -0.6821  0.0149
 8559TIP3    H147168   3.128   2.009   3.745  3.2753 -0.4659  1.3278
 8559TIP3    H247169   3.141   1.897   3.846 -1.2941 -0.7137  1.8542
 8560TIP3   OH247170   6.641   4.209  13.155  0.6273  1.0286 -0.2575
 8560TIP3    H147171   6.570   4.220  13.091  0.6686  0.8328 -0.3386
 8560TIP3    H247172   6.705   4.276  13.132  1.1166  0.3096 -1.0692
 8561TIP3   OH247173   3.069   1.410  16.390  0.3243  0.1284 -0.0919
 8561TIP3    H147174   3.157   1.388  16.361 -0.0966 -1.0016 -0.5706
 8561TIP3    H247175   3.062   1.371  16.478  0.2074 -0.0400 -0.1748
 8562TIP3   OH247176   2.776   5.790   0.861  0.3135  0.2080  0.2333
 8562TIP3    H147177   2.724   5.714   0.890  0.4963 -0.3181 -0.7819
 8562TIP3    H247178   2.715   5.840   0.807  0.5368  0.1632 -0.0613
 8563TIP3   OH247179   3.821   0.414  11.573  0.1066  0.0630 -0.7758
 8563TIP3    H147180   3.738   0.451  11.544 -1.4596 -2.8061 -0.3520
 8563TIP3    H247181   3.862   0.381  11.493  0.3648  0.5904 -0.8633
 8564TIP3   OH247182   4.567   6.294   4.432 -0.2550 -0.3694  0.0955
 8564TIP3    H147183   4.622   6.268   4.358  1.6959 -1.2283  1.7523
 8564TIP3    H247184   4.599   6.242   4.505 -2.2448  0.3136  1.5319
 8565TIP3   OH247185   3.199   0.512  14.167  1.1205  0.0182 -0.5997
 8565TIP3    H147186   3.294   0.503  14.176  0.7273 -4.3006  1.4633
 8565TIP3    H247187   3.168   0.527  14.257 -0.2870 -0.8312 -0.9229
 8566TIP3   OH247188   2.104   2.802  15.185  0.3983 -0.1261 -0.0665
 8566TIP3    H147189   2.154   2.859  15.242  0.8168  0.9772 -1.4914
 8566TIP3    H247190   2.166   2.774  15.118 -0.5960  0.4164 -1.2598
 8567TIP3   OH247191   6.260   2.137  14.123  0.3668  0.0327 -0.4088
 8567TIP3    H147192   6.245   2.145  14.029 -0.6164 -1.1213 -0.3706
 8567TIP3    H247193   6.256   2.043  14.140 -0.6387  0.2914  0.9715
 8568TIP3   OH247194   2.317   4.163   0.473  0.7198  0.2274  0.1040
 8568TIP3    H147195   2.371   4.094   0.435  1.9571  0.6891  0.9994
 8568TIP3    H247196   2.327   4.153   0.568  1.7740  2.2593  0.2635
 8569TIP3   OH247197   3.724   3.105   5.688 -0.3248 -0.0578  0.2506
 8569TIP3    H147198   3.701   3.090   5.780  0.6353  1.6856  0.8245
 8569TIP3    H247199   3.817   3.125   5.690 -0.5828  1.4064 -0.9157
 8570TIP3   OH247200   1.448   0.754  12.340  0.0041  0.2087 -0.2671
 8570TIP3    H147201   1.518   0.805  12.298  0.7303 -0.1640  0.4693
 8570TIP3    H247202   1.406   0.708  12.267  1.7226 -1.0214 -0.5435
 8571TIP3   OH247203   4.110   2.766   3.042  0.7804  0.7645 -0.2200
 8571TIP3    H147204   4.086   2.802   3.127  1.0342 -0.7209  0.5118
 8571TIP3    H247205   4.195   2.724   3.056  0.2974 -0.5004 -0.8844
 8572TIP3   OH247206   0.846   2.239   2.940 -0.4701  0.0513 -0.4235
 8572TIP3    H147207   0.827   2.245   3.034  1.0140 -1.2330  0.0096
 8572TIP3    H247208   0.887   2.323   2.918 -0.1998  0.1004  0.2458
 8573TIP3   OH247209   5.686   2.778  16.047  0.4707 -0.0147 -0.0472
 8573TIP3    H147210   5.630   2.755  15.974 -2.6085  0.4827  1.9822
 8573TIP3    H247211   5.754   2.834  16.009  0.0567 -1.2065 -2.7422
 8574TIP3   OH247212   0.298   0.312   3.877 -0.2307 -0.3705 -0.8063
 8574TIP3    H147213   0.373   0.302   3.819  0.0966 -0.1781 -0.4235
 8574TIP3    H247214   0.251   0.389   3.844 -0.2367 -0.4646 -1.0190
 8575TIP3   OH247215   3.971   1.395  14.769  0.0730 -0.0025  0.0349
 8575TIP3    H147216   4.043   1.439  14.813  0.3179  0.0407 -0.4009
 8575TIP3    H247217   3.958   1.445  14.688  0.9895 -1.2677 -0.9317
 8576TIP3   OH247218   0.011   3.110   3.153  0.1346 -0.3060 -0.0291
 8576TIP3    H147219   0.001   3.156   3.070 -1.6432 -1.6040 -0.5767
 8576TIP3    H247220   0.066   3.035   3.132 -1.1577 -1.2068 -0.3102
 8577TIP3   OH247221   0.988   6.513  13.429 -0.5128 -0.0459  0.2166
 8577TIP3    H147222   0.999   6.418  13.430  1.2578  0.1223  1.1876
 8577TIP3    H247223   0.999   6.537  13.336 -3.5860 -0.9643 -0.4899
 8578TIP3   OH247224   4.531   5.341  14.671  0.2688 -0.3425  0.0799
 8578TIP3    H147225   4.486   5.266  14.633  1.8473 -1.6153  0.6125
 8578TIP3    H247226   4.476   5.367  14.744 -0.1523 -1.1780  0.0752
 8579TIP3   OH247227   0.860   4.222  13.981 -0.1976  0.0173 -0.2951
 8579TIP3    H147228   0.946   4.236  13.942 -0.3392 -0.7473 -0.9045
 8579TIP3    H247229   0.858   4.129  14.002 -0.8161  0.0634 -0.1347
 8580TIP3   OH247230   3.168   6.051  15.300  0.7772  0.7204  0.3207
 8580TIP3    H147231   3.148   5.958  15.311  2.7859  0.2235  0.1088
 8580TIP3    H247232   3.112   6.079  15.228 -0.2554 -0.1729  0.7491
 8581TIP3   OH247233   1.696   0.778  16.785 -0.2054 -0.2179  0.7090
 8581TIP3    H147234   1.694   0.855  16.728  0.7361 -1.8273 -1.6686
 8581TIP3    H247235   1.621   0.725  16.757 -0.3309 -0.5817  1.6904
 8582TIP3   OH247236   1.933   1.539  15.055  0.2509 -0.4728 -0.3376
 8582TIP3    H147237   1.877   1.583  15.119 -0.8840 -1.5216 -0.5548
 8582TIP3    H247238   2.008   1.508  15.106  1.7820  2.7129 -0.4022
 8583TIP3   OH247239   2.097   1.467   6.514 -0.1931 -0.0646  0.3265
 8583TIP3    H147240   2.182   1.511   6.513  0.2159 -0.8409 -0.7066
 8583TIP3    H247241   2.085   1.436   6.424 -1.6274  0.1377  0.4210
 8584TIP3   OH247242   0.202   5.418  14.317 -0.0571 -0.2009 -0.8439
 8584TIP3    H147243   0.151   5.458  14.246 -0.3814  2.1956  0.6100
 8584TIP3    H247244   0.141   5.416  14.391  0.6071 -1.6335 -0.2963
 8585TIP3   OH247245   4.959   1.026  11.547 -0.0549 -0.2404  0.7883
 8585TIP3    H147246   4.875   1.065  11.572 -0.1320  0.0752  0.0717
 8585TIP3    H247247   4.977   1.062  11.460  0.1361 -1.3671  0.3344
 8586TIP3   OH247248   5.890   0.215   2.668 -0.0470  0.1748  0.7017
 8586TIP3    H147249   5.931   0.161   2.736 -0.0286 -0.9894 -0.2164
 8586TIP3    H247250   5.906   0.305   2.698  0.1768 -0.2950  2.1086
 8587TIP3   OH247251   6.725   2.180  14.375 -0.4103 -0.0425 -0.2547
 8587TIP3    H147252   6.687   2.093  14.379 -1.1101  0.2513 -0.2842
 8587TIP3    H247253   6.650   2.239  14.365  0.0637  0.5443 -0.4785
 8588TIP3   OH247254   3.964   3.579   6.731  0.3177 -0.0773 -0.2056
 8588TIP3    H147255   4.026   3.523   6.778  0.0775 -1.2417 -1.1982
 8588TIP3    H247256   3.878   3.539   6.748  0.2908 -0.9688 -2.1267
 8589TIP3   OH247257   2.268   3.026   2.109 -0.3151  0.0498  0.4619
 8589TIP3    H147258   2.211   3.002   2.036  3.0894 -2.1443 -1.7369
 8589TIP3    H247259   2.285   3.119   2.097  0.2802 -0.2927 -1.7573
 8590TIP3   OH247260   0.271   4.204   3.983  0.2862 -0.1941  0.1173
 8590TIP3    H147261   0.227   4.222   3.900  0.0409  0.1387  0.3192
 8590TIP3    H247262   0.201   4.183   4.044  0.1515  2.6458  1.0615
 8591TIP3   OH247263   2.669   0.504  15.066  0.5002  0.3953 -0.0062
 8591TIP3    H147264   2.735   0.547  15.012  3.1617 -1.0684  1.8573
 8591TIP3    H247265   2.592   0.561  15.059  2.0448  2.4368 -1.9365
 8592TIP3   OH247266   3.554   2.978  14.040  0.3893  0.9789 -0.1684
 8592TIP3    H147267   3.597   2.905  14.085  1.6458  1.6245 -0.2562
 8592TIP3    H247268   3.490   3.011  14.104 -1.3389 -1.1300 -0.7030
 8593TIP3   OH247269   4.946   4.123  11.158 -0.3562  0.0470  0.3709
 8593TIP3    H147270   4.863   4.092  11.192  0.3236 -0.5591  1.5291
 8593TIP3    H247271   5.012   4.066  11.198  0.9315  2.7350  2.4120
 8594TIP3   OH247272   3.988   0.487   0.555  0.4805  0.5351  0.5668
 8594TIP3    H147273   4.056   0.422   0.575  1.8230  1.5461 -0.5479
 8594TIP3    H247274   3.908   0.435   0.545  2.0239 -1.4840 -3.3050
 8595TIP3   OH247275   0.141   0.511   3.796 -0.4164  0.6666  0.1335
 8595TIP3    H147276   0.067   0.452   3.812 -0.1578  0.6358  1.2593
 8595TIP3    H247277   0.100   0.593   3.768 -0.7476 -0.4053 -2.9279
 8596TIP3   OH247278   2.287   1.473   5.209  0.3488 -0.3117 -0.1053
 8596TIP3    H147279   2.288   1.449   5.302  1.4483  0.5537  0.1297
 8596TIP3    H247280   2.253   1.563   5.208 -0.5250 -0.6327 -0.6421
 8597TIP3   OH247281   0.504   4.782   6.539  0.2636  0.4106  0.6998
 8597TIP3    H147282   0.598   4.784   6.556  0.4432  2.0900 -0.2822
 8597TIP3    H247283   0.479   4.874   6.529 -1.6624  0.0583  1.8029
 8598TIP3   OH247284   2.612   2.709  16.533  0.3928  0.2806  0.1293
 8598TIP3    H147285   2.694   2.665  16.512  0.1405  0.5996 -1.7703
 8598TIP3    H247286   2.571   2.726  16.447 -1.3367  0.7223  0.9818
 8599TIP3   OH247287   0.379   0.889  11.989  0.5229 -0.5395  0.0313
 8599TIP3    H147288   0.452   0.833  11.961  1.4457  0.3603  0.5808
 8599TIP3    H247289   0.347   0.928  11.907  3.2119  2.0802  0.0609
 8600TIP3   OH247290   6.475   0.678   1.327  0.0010  0.9416  0.2912
 8600TIP3    H147291   6.386   0.710   1.316 -0.1992  0.2331 -0.2196
 8600TIP3    H247292   6.478   0.646   1.417 -0.5819  0.0067 -0.0169
 8601TIP3   OH247293   4.516   4.036  13.221 -0.0024  0.1072  0.0674
 8601TIP3    H147294   4.504   4.075  13.308  3.9571  1.5874  0.1733
 8601TIP3    H247295   4.601   3.992  13.227 -0.6001 -1.5582 -2.5000
 8602TIP3   OH247296   6.009   6.391   0.960  0.1561 -0.4761  0.1379
 8602TIP3    H147297   5.958   6.457   0.914 -0.6551  1.1350  3.1191
 8602TIP3    H247298   5.944   6.341   1.009  1.1491 -0.3837  1.5952
 8603TIP3   OH247299   5.988   2.842   4.800 -0.0193 -0.0873  0.1772
 8603TIP3    H147300   6.058   2.905   4.781 -0.0213  0.1493  0.9191
 8603TIP3    H247301   6.024   2.784   4.866 -0.7495  0.4723  1.0939
 8604TIP3   OH247302   3.135   3.132  11.584 -0.2374  0.1844  0.3139
 8604TIP3    H147303   3.073   3.197  11.616 -1.4225 -0.2065 -1.0611
 8604TIP3    H247304   3.209   3.183  11.552 -1.2453  0.9109 -0.9537
 8605TIP3   OH247305   4.825   4.113   2.698 -0.0968  0.3420  0.1412
 8605TIP3    H147306   4.797   4.063   2.776 -1.4366  0.8341  0.0035
 8605TIP3    H247307   4.909   4.075   2.675 -0.7520 -1.4186  0.4509
 8606TIP3   OH247308   5.684   6.144  16.458  0.4299  0.3042 -0.3206
 8606TIP3    H147309   5.678   6.088  16.535  0.0152  0.3847 -0.2936
 8606TIP3    H247310   5.650   6.229  16.487  0.1008  0.2812 -0.6431
 8607TIP3   OH247311   2.372   6.449   5.023 -0.2588  0.0165  0.4102
 8607TIP3    H147312   2.421   6.471   4.943  0.3515  1.0765  1.0541
 8607TIP3    H247313   2.289   6.495   5.014 -0.6560 -0.7605 -0.0979
 8608TIP3   OH247314   1.259   1.444   4.951  0.2747  0.6113  0.0026
 8608TIP3    H147315   1.193   1.411   4.890  0.7680 -1.4017  0.5150
 8608TIP3    H247316   1.233   1.535   4.966 -1.9578  0.0970 -0.3689
 8609TIP3   OH247317   4.706   5.898  11.403 -0.1369 -0.1699  0.3211
 8609TIP3    H147318   4.648   5.932  11.335  0.2682 -1.0106 -0.4570
 8609TIP3    H247319   4.681   5.947  11.482 -2.1262 -0.7313  0.0841
 8610TIP3   OH247320   2.252   5.555   2.023 -0.2601 -0.1222  0.0667
 8610TIP3    H147321   2.176   5.611   2.009  1.9707  2.7898 -1.3039
 8610TIP3    H247322   2.221   5.467   2.000 -3.2322  0.8784 -0.1495
 8611TIP3   OH247323   2.076   0.930   5.290 -0.2356 -0.2229 -0.4660
 8611TIP3    H147324   1.990   0.936   5.246  0.2358 -2.1908 -1.7620
 8611TIP3    H247325   2.124   0.865   5.240  1.9694  0.6573  0.3915
 8612TIP3   OH247326   1.336   1.955  12.237  0.0709 -0.0498 -0.1099
 8612TIP3    H147327   1.266   1.892  12.221  0.8568 -0.7915 -0.7770
 8612TIP3    H247328   1.365   1.981  12.150 -0.3760  1.4149  0.1596
 8613TIP3   OH247329   4.711   0.450   0.571  0.4556  0.8859  0.2980
 8613TIP3    H147330   4.646   0.385   0.599 -0.4592  1.5303 -0.2586
 8613TIP3    H247331   4.663   0.507   0.511  1.3891  1.7371  0.3316
 8614TIP3   OH247332   4.214   4.431  15.479 -0.2609 -0.1197  0.5168
 8614TIP3    H147333   4.157   4.493  15.435 -1.6669 -1.2003  0.7353
 8614TIP3    H247334   4.303   4.461  15.460 -0.8754  0.8626 -0.9159
 8615TIP3   OH247335   2.677   3.677  15.260  0.3801 -0.0968  0.0127
 8615TIP3    H147336   2.723   3.595  15.276  1.5872  0.8532  1.6832
 8615TIP3    H247337   2.598   3.672  15.314  1.3277  0.5080  1.5258
 8616TIP3   OH247338   4.467   4.631  11.809  0.0332  0.1872  0.1235
 8616TIP3    H147339   4.503   4.547  11.837 -1.2380 -0.4431 -0.0436
 8616TIP3    H247340   4.483   4.690  11.882 -1.7315 -0.9875  1.5508
 8617TIP3   OH247341   2.978   0.540   0.167 -0.5476 -0.3756 -0.5117
 8617TIP3    H147342   2.890   0.571   0.188 -0.7598  0.0218 -1.9235
 8617TIP3    H247343   3.030   0.564   0.244 -1.2823  1.0816 -0.4326
 8618TIP3   OH247344   1.467   3.068   0.865 -0.1050 -0.2351 -0.6336
 8618TIP3    H147345   1.392   3.012   0.845 -0.4276 -0.6963  1.6817
 8618TIP3    H247346   1.457   3.142   0.805 -1.5057 -1.0592 -1.4844
 8619TIP3   OH247347   0.657   6.198   3.907  0.1956 -0.0622  0.5337
 8619TIP3    H147348   0.665   6.108   3.873 -1.4190  0.3569 -1.1514
 8619TIP3    H247349   0.588   6.193   3.972  0.4122 -0.1059  0.7632
 8620TIP3   OH247350   2.505   3.447  15.722 -0.0260  0.4628 -0.8537
 8620TIP3    H147351   2.416   3.412  15.722  0.0111  0.3201  0.6937
 8620TIP3    H247352   2.552   3.394  15.787  0.9156  1.2328 -0.8784
 8621TIP3   OH247353   1.252   4.784   3.988  0.5361  0.3979 -0.4069
 8621TIP3    H147354   1.332   4.793   4.041 -0.4091  1.1039  0.9510
 8621TIP3    H247355   1.239   4.871   3.949  0.8375  0.0724 -1.2572
 8622TIP3   OH247356   6.738   0.981  15.955 -0.0391 -0.3381 -0.4124
 8622TIP3    H147357   6.722   1.076  15.950  2.1288  0.0375 -1.5330
 8622TIP3    H247358   6.659   0.942  15.918  0.9366  1.3007 -4.9008
 8623TIP3   OH247359   1.352   2.611   2.150  0.2507  0.6214  0.7377
 8623TIP3    H147360   1.282   2.593   2.087  1.7862 -1.6308 -0.4626
 8623TIP3    H247361   1.368   2.705   2.142 -2.2844  1.1151  0.7424
 8624TIP3   OH247362   5.344   2.093  15.484 -0.8650 -0.5571 -0.7492
 8624TIP3    H147363   5.388   2.173  15.511 -1.2744 -1.0476  1.5269
 8624TIP3    H247364   5.254   2.120  15.466 -0.9143 -0.4529 -0.3409
 8625TIP3   OH247365   0.704   1.546  15.981  0.3015  0.6410  0.2931
 8625TIP3    H147366   0.741   1.459  15.963 -0.0210  0.5686 -0.0239
 8625TIP3    H247367   0.635   1.530  16.045  0.1762  0.6478  0.1607
 8626TIP3   OH247368   5.553   6.044  16.912  0.4277 -0.1093  0.1108
 8626TIP3    H147369   5.581   6.119  16.964 -1.2980 -0.3995  1.5697
 8626TIP3    H247370   5.551   5.972  16.974 -1.9832 -0.4025 -0.2271
 8627TIP3   OH247371   1.738   4.509  13.031 -0.8835  0.0645 -0.1570
 8627TIP3    H147372   1.662   4.545  13.076 -1.2928  1.0201 -1.5298
 8627TIP3    H247373   1.708   4.494  12.941  0.4869  0.3174 -0.6889
 8628TIP3   OH247374   6.488   6.745  11.866 -0.3147  0.1332  0.1103
 8628TIP3    H147375   6.393   6.734  11.858 -0.0975 -1.9923 -0.3452
 8628TIP3    H247376   6.518   6.759  11.776 -0.1547  0.3457  0.1967
 8629TIP3   OH247377   6.283   6.465  14.013 -0.1340  0.1292  0.2234
 8629TIP3    H147378   6.343   6.443  13.942 -2.7221  0.2449 -2.1690
 8629TIP3    H247379   6.289   6.391  14.074  0.6595 -1.0192 -1.1960
 8630TIP3   OH247380   1.180   5.924  14.551 -0.4639  0.2997 -0.1132
 8630TIP3    H147381   1.248   5.986  14.577  2.2389 -2.5200  0.0437
 8630TIP3    H247382   1.161   5.946  14.459  0.6541  1.1301 -0.1646
 8631TIP3   OH247383   6.582   3.571  12.900 -0.3483 -0.1932 -0.0994
 8631TIP3    H147384   6.494   3.552  12.931  0.4069 -2.8561  0.7255
 8631TIP3    H247385   6.592   3.518  12.821  0.3440  0.5084 -0.4987
 8632TIP3   OH247386   2.375   2.161   5.430 -0.3631  0.2627 -0.0725
 8632TIP3    H147387   2.405   2.071   5.442 -1.9722 -0.6290 -2.1744
 8632TIP3    H247388   2.280   2.156   5.440 -0.6398  1.4260 -1.7873
 8633TIP3   OH247389   0.120   0.072  16.000 -0.4039  0.3750 -0.6264
 8633TIP3    H147390   0.177   0.095  16.073  0.4462 -0.7677 -0.9152
 8633TIP3    H247391   0.094   0.156  15.962 -0.6283  0.9751  0.7942
 8634TIP3   OH247392   1.451   4.176  11.203 -0.1302 -0.1919 -0.1631
 8634TIP3    H147393   1.412   4.187  11.290  1.3849 -0.9462  0.6421
 8634TIP3    H247394   1.409   4.098  11.168 -0.8133  0.1640 -0.1576
 8635TIP3   OH247395   2.878   6.365   2.932 -0.3548  0.0767  0.0663
 8635TIP3    H147396   2.850   6.317   3.010  0.1651 -1.5352 -0.7018
 8635TIP3    H247397   2.800   6.369   2.876 -0.7613  1.3395  0.6835
 8636TIP3   OH247398   3.498   2.983   0.404  0.4483  0.0701 -0.2431
 8636TIP3    H147399   3.428   2.924   0.430 -0.5488  0.9537 -0.8422
 8636TIP3    H247400   3.508   2.969   0.310  2.2685 -1.2642  0.1011
 8637TIP3   OH247401   1.476   1.275  13.057 -0.1692  0.1367 -0.2955
 8637TIP3    H147402   1.413   1.209  13.086 -0.9606  0.1731 -1.8188
 8637TIP3    H247403   1.443   1.357  13.093 -1.0005  0.1471 -1.0304
 8638TIP3   OH247404   3.885   0.255  11.095 -0.1314 -0.6019  0.7640
 8638TIP3    H147405   3.933   0.186  11.051 -0.6051 -0.3461 -0.1705
 8638TIP3    H247406   3.808   0.270  11.040 -0.6290 -0.1244  1.5609
 8639TIP3   OH247407   1.684   0.685  11.877 -0.5863 -0.4454 -0.1203
 8639TIP3    H147408   1.613   0.663  11.816 -1.1549  0.3456  0.2335
 8639TIP3    H247409   1.735   0.752  11.832 -0.6511 -0.2945  0.0297
 8640TIP3   OH247410   4.990   4.726   2.600 -0.4340  0.0386  0.3015
 8640TIP3    H147411   4.975   4.697   2.690 -1.3418  1.9530  0.8108
 8640TIP3    H247412   4.978   4.821   2.602 -1.8598  0.0074 -2.1003
 8641TIP3   OH247413   1.476   4.309  16.532  0.7669  0.9055 -0.0915
 8641TIP3    H147414   1.470   4.232  16.475  2.8998  0.6648 -0.0552
 8641TIP3    H247415   1.488   4.274  16.620 -0.9797  1.2974  0.3436
 8642TIP3   OH247416   0.611   3.745   3.617 -0.0011 -0.5842 -0.3721
 8642TIP3    H147417   0.691   3.704   3.649 -0.7466 -1.5009  0.4085
 8642TIP3    H247418   0.613   3.834   3.653  1.5404  0.0589 -1.9231
 8643TIP3   OH247419   1.748   6.472  10.913  0.8795  0.0376  0.0192
 8643TIP3    H147420   1.698   6.456  10.833  1.6823  0.9364 -0.6756
 8643TIP3    H247421   1.723   6.399  10.971  1.0430 -1.2034 -1.4030
 8644TIP3   OH247422   6.377   5.242  11.625  0.2416  0.0848  0.1746
 8644TIP3    H147423   6.417   5.206  11.704 -0.9308  1.8380  1.6604
 8644TIP3    H247424   6.398   5.336  11.629 -0.3653  0.3024 -1.2767
 8645TIP3   OH247425   2.327   0.737   4.767  0.0734 -0.2462 -0.4486
 8645TIP3    H147426   2.257   0.798   4.789  0.4192 -0.2022  0.5724
 8645TIP3    H247427   2.295   0.690   4.690 -1.4326 -0.8266  0.4997
 8646TIP3   OH247428   1.427   2.319   0.478 -0.3675 -0.5892  0.2641
 8646TIP3    H147429   1.336   2.346   0.480 -0.0719  0.6706  3.7173
 8646TIP3    H247430   1.425   2.225   0.495 -0.9924 -0.6882 -0.3025
 8647TIP3   OH247431   2.006   3.101  12.701  0.0089 -0.3619 -0.4172
 8647TIP3    H147432   2.030   3.107  12.794 -1.2330 -1.4956  0.0155
 8647TIP3    H247433   2.085   3.124  12.654  0.5424  0.6856  0.9267
 8648TIP3   OH247434   2.255   3.535  12.317  0.2308  0.3461  0.2274
 8648TIP3    H147435   2.193   3.478  12.362 -0.5851  0.5710 -0.5803
 8648TIP3    H247436   2.242   3.516  12.224 -0.6882  2.4484 -0.1299
 8649TIP3   OH247437   3.042   0.463  13.126 -0.3643  0.1158  0.0624
 8649TIP3    H147438   3.122   0.425  13.160 -1.6664 -0.9850  2.0700
 8649TIP3    H247439   3.017   0.407  13.052  1.0614  0.9364 -1.1021
 8650TIP3   OH247440   3.120   1.450  11.958  0.0523  0.0840  0.3083
 8650TIP3    H147441   3.168   1.462  11.876 -0.5049 -0.5054 -0.1165
 8650TIP3    H247442   3.179   1.482  12.025  0.7314  0.0856 -0.2781
 8651TIP3   OH247443   5.418   3.966   4.714  0.1383 -0.0809 -0.3105
 8651TIP3    H147444   5.479   4.021   4.666 -0.8898  0.2446 -1.2985
 8651TIP3    H247445   5.368   3.921   4.646 -2.0031  1.0995  0.3806
 8652TIP3   OH247446   0.605   5.297  12.082  0.4267 -0.1188  0.2569
 8652TIP3    H147447   0.667   5.371  12.085 -0.5462  0.7223  3.2050
 8652TIP3    H247448   0.558   5.309  12.000  3.7570 -0.5459 -1.8985
 8653TIP3   OH247449   2.996   6.740   0.301  0.0592 -0.1107 -0.1413
 8653TIP3    H147450   3.000   6.824   0.348 -0.1787  0.7025 -1.5086
 8653TIP3    H247451   3.082   6.731   0.261  0.3957 -0.9985  0.7486
 8654TIP3   OH247452   4.941   0.281   4.060 -0.2619  0.1324  0.0118
 8654TIP3    H147453   4.873   0.329   4.012  1.9650  1.4498 -2.0951
 8654TIP3    H247454   4.954   0.332   4.140  0.4767  1.8807 -1.1405
 8655TIP3   OH247455   4.862   5.471   3.069 -0.0521  0.5300  0.3800
 8655TIP3    H147456   4.856   5.539   3.002 -1.0200  0.1181  0.0204
 8655TIP3    H247457   4.955   5.466   3.091  0.1879  1.1114 -0.4694
 8656TIP3   OH247458   4.797   0.195   6.379 -0.2654 -0.6269  0.3481
 8656TIP3    H147459   4.845   0.251   6.441 -0.2888 -0.1529 -0.0519
 8656TIP3    H247460   4.791   0.111   6.423 -1.1331 -0.0337  1.4215
 8657TIP3   OH247461   4.744   2.536  12.355 -0.7268 -0.3792 -0.2928
 8657TIP3    H147462   4.770   2.628  12.349 -2.1700  0.2413  1.7492
 8657TIP3    H247463   4.695   2.520  12.275 -1.8196  1.1387  0.0244
 8658TIP3   OH247464   3.644   2.346   0.345  0.5676  0.3465  0.0324
 8658TIP3    H147465   3.637   2.423   0.401  0.4048  1.9587 -2.0726
 8658TIP3    H247466   3.554   2.325   0.322  0.6800  0.1835 -0.2612
 8659TIP3   OH247467   6.178   1.487   0.258  0.4616  0.1652  0.1625
 8659TIP3    H147468   6.156   1.399   0.229  1.5937 -0.0449 -0.1236
 8659TIP3    H247469   6.094   1.528   0.279 -0.2110 -0.4466 -1.2253
 8660TIP3   OH247470   5.320   1.872  15.000  0.3422  0.1964  0.5544
 8660TIP3    H147471   5.230   1.847  15.022  0.5462  0.1790  1.3827
 8660TIP3    H247472   5.360   1.895  15.083  0.9947  0.5889  0.1388
 8661TIP3   OH247473   4.498   2.406  14.295  0.2035 -0.2758 -0.1287
 8661TIP3    H147474   4.556   2.463  14.345  1.0977 -0.3697 -1.0281
 8661TIP3    H247475   4.516   2.426  14.203  0.9943 -2.3902 -0.4999
 8662TIP3   OH247476   3.562   2.404  13.019 -0.2227 -0.1064 -0.2160
 8662TIP3    H147477   3.503   2.478  13.004 -1.0024 -0.8560 -0.8879
 8662TIP3    H247478   3.505   2.328  13.024  0.6321 -0.7571 -0.1925
 8663TIP3   OH247479   5.073   3.626   1.539  0.0029  0.4991 -0.1022
 8663TIP3    H147480   5.139   3.680   1.494 -1.2835  0.9399 -1.5684
 8663TIP3    H247481   4.990   3.671   1.522 -0.8390 -0.7174  0.6147
 8664TIP3   OH247482   3.769   6.338   5.972 -0.5705  0.4514 -0.1410
 8664TIP3    H147483   3.824   6.412   5.944  2.3884 -1.2570  0.6995
 8664TIP3    H247484   3.786   6.329   6.065 -2.9168  0.2490  0.3191
 8665TIP3   OH247485   6.422   4.303   0.384  0.7020  0.1675 -0.0546
 8665TIP3    H147486   6.460   4.375   0.334  1.4700  0.2730  0.6654
 8665TIP3    H247487   6.327   4.318   0.380  0.8370  1.0074 -0.2103
 8666TIP3   OH247488   3.566   2.707  12.024  0.2730 -0.6568 -0.2239
 8666TIP3    H147489   3.508   2.755  11.965 -0.0552 -1.0511 -0.2335
 8666TIP3    H247490   3.535   2.729  12.112  0.5082 -0.3813 -0.2090
 8667TIP3   OH247491   3.549   4.605  15.219 -0.0616 -0.1959  0.3552
 8667TIP3    H147492   3.572   4.514  15.239 -1.3461 -0.3468  1.3072
 8667TIP3    H247493   3.600   4.627  15.141  0.2331 -1.7430  0.0912
 8668TIP3   OH247494   5.940   3.242  16.093  0.7515  0.0186  0.2089
 8668TIP3    H147495   5.996   3.244  16.015 -2.0284  0.5075 -1.9624
 8668TIP3    H247496   5.943   3.331  16.127 -0.9173  0.9064 -1.7327
 8669TIP3   OH247497   2.905   0.911  15.018 -0.2886  1.0882 -0.0106
 8669TIP3    H147498   2.877   0.996  14.985 -0.5986  0.1838 -2.2208
 8669TIP3    H247499   2.825   0.871  15.052 -0.3029  1.3172  0.2317
 8670TIP3   OH247500   6.193   6.391  13.619 -0.3381  0.0962 -0.4301
 8670TIP3    H147501   6.191   6.477  13.577 -1.0745 -0.4820 -1.6464
 8670TIP3    H247502   6.248   6.403  13.696 -0.9373  1.8153 -0.2143
 8671TIP3   OH247503   4.166   0.417   0.841 -0.4756  0.4011 -0.0825
 8671TIP3    H147504   4.088   0.472   0.848  1.4890  3.2988  0.5290
 8671TIP3    H247505   4.239   0.475   0.860  1.8466 -2.3800  0.2435
 8672TIP3   OH247506   5.747   5.964  13.044  0.7070 -0.3103  0.3185
 8672TIP3    H147507   5.710   6.009  12.968  1.0535  0.3383  0.5224
 8672TIP3    H247508   5.739   5.871  13.024 -2.0434 -0.2650  0.8157
 8673TIP3   OH247509   3.401   1.935  11.521  0.2363  0.0745  0.0279
 8673TIP3    H147510   3.466   1.993  11.561  0.4335 -0.4324  0.4524
 8673TIP3    H247511   3.416   1.943  11.427  0.5560  0.3743  0.1019
 8674TIP3   OH247512   3.872   6.616   5.963 -0.1421  0.3336 -0.1726
 8674TIP3    H147513   3.905   6.677   6.029 -0.3282  3.0945 -2.3897
 8674TIP3    H247514   3.778   6.614   5.978  0.0045 -0.4819  0.7083
 8675TIP3   OH247515   1.322   2.877  15.442  0.6464 -0.2630 -0.0579
 8675TIP3    H147516   1.390   2.941  15.422  0.3737 -0.3524 -1.3660
 8675TIP3    H247517   1.286   2.853  15.357 -1.6159  0.4344  0.6330
 8676TIP3   OH247518   4.393   5.558  14.400 -0.3069 -0.4016  0.0824
 8676TIP3    H147519   4.390   5.602  14.316 -2.6353  0.2508  0.4264
 8676TIP3    H247520   4.473   5.589  14.442 -0.0599  0.6678 -1.1530
 8677TIP3   OH247521   4.485   2.477   1.303  0.5398 -0.7809 -0.1912
 8677TIP3    H147522   4.423   2.404   1.299  2.1498 -2.4884  2.7337
 8677TIP3    H247523   4.570   2.438   1.285  1.5466  0.1297  2.1532
 8678TIP3   OH247524   4.495   2.808   1.449  0.0463 -0.3817 -0.6618
 8678TIP3    H147525   4.553   2.733   1.463  2.6697  1.3776 -1.4202
 8678TIP3    H247526   4.433   2.805   1.522  1.7554 -1.7828  0.8162
 8679TIP3   OH247527   3.416   3.241  15.273 -0.2676  0.1277  0.0027
 8679TIP3    H147528   3.494   3.280  15.234  0.7836 -0.8428  1.0491
 8679TIP3    H247529   3.382   3.183  15.205 -1.5123  2.3247 -1.3502
 8680TIP3   OH247530   0.395   4.856   1.063 -0.6116  0.6583  0.0432
 8680TIP3    H147531   0.389   4.951   1.067  0.1838  0.6908  1.0171
 8680TIP3    H247532   0.489   4.838   1.063 -0.7249 -0.1025 -1.5437
 8681TIP3   OH247533   4.058   2.904  15.169  0.3549 -0.2897 -0.2615
 8681TIP3    H147534   4.141   2.937  15.204 -0.6064  1.5195  0.4852
 8681TIP3    H247535   4.078   2.817  15.136  2.7450  0.4381 -0.9223
 8682TIP3   OH247536   6.175   2.865  11.391 -0.1970  0.4444 -0.4927
 8682TIP3    H147537   6.161   2.879  11.485 -0.0612 -1.0061 -0.2322
 8682TIP3    H247538   6.100   2.813  11.363  0.1381  0.2428 -1.0221
 8683TIP3   OH247539   0.706   6.515  10.483  0.2482  0.3024 -0.4216
 8683TIP3    H147540   0.723   6.439  10.540 -0.6439 -0.2973 -0.9331
 8683TIP3    H247541   0.628   6.491  10.433  0.1129  1.4578 -0.7942
 8684TIP3   OH247542   2.442   4.580   5.923  0.1267 -0.1421 -0.6272
 8684TIP3    H147543   2.375   4.648   5.926  0.0752 -0.2235  0.2948
 8684TIP3    H247544   2.404   4.507   5.972  0.8612 -0.2072 -0.1440
 8685TIP3   OH247545   6.246   3.695   4.152 -0.9009  0.2107  0.0712
 8685TIP3    H147546   6.301   3.687   4.074  0.5085 -0.8857  1.1164
 8685TIP3    H247547   6.158   3.706   4.118 -0.1659  1.0546 -1.6709
 8686TIP3   OH247548   1.258   6.581  11.816 -0.3813  0.5673  0.1833
 8686TIP3    H147549   1.274   6.604  11.908  1.7661 -0.9584  0.2427
 8686TIP3    H247550   1.324   6.516  11.795 -2.0128 -0.5516 -1.9204
 8687TIP3   OH247551   6.383   5.562  13.050  0.2244 -0.2412 -0.0294
 8687TIP3    H147552   6.352   5.594  12.966 -0.2118 -2.6827 -0.8759
 8687TIP3    H247553   6.471   5.599  13.058  0.7064 -0.8153 -2.0764
 8688TIP3   OH247554   2.985   5.910  16.634  0.4313 -0.2125 -0.0772
 8688TIP3    H147555   2.965   5.845  16.567 -0.0536 -0.5744  0.4145
 8688TIP3    H247556   2.956   5.870  16.716  2.1376 -0.2833  0.5236
 8689TIP3   OH247557   1.400   3.607  10.449  0.2445  0.7154  0.7006
 8689TIP3    H147558   1.486   3.569  10.430  0.1024  0.8107 -0.1562
 8689TIP3    H247559   1.346   3.531  10.473 -0.5004  0.0547 -2.6412
 8690TIP3   OH247560   2.037   4.396  16.174 -0.1446  0.4050  0.3241
 8690TIP3    H147561   1.950   4.429  16.199 -2.3532 -3.9466 -0.7316
 8690TIP3    H247562   2.043   4.413  16.080 -0.7758 -1.0044  0.0102
 8691TIP3   OH247563   2.822   5.161  13.777  0.3254  0.3804 -0.1312
 8691TIP3    H147564   2.846   5.080  13.822  0.0454 -0.8379 -2.0868
 8691TIP3    H247565   2.735   5.144  13.741  0.0960  1.6990 -0.2635
 8692TIP3   OH247566   4.393   1.249  11.127  0.0605  0.6306  0.6007
 8692TIP3    H147567   4.304   1.215  11.118  0.5978 -0.8310  0.5441
 8692TIP3    H247568   4.442   1.209  11.055  0.9042  0.9459  0.9736
 8693TIP3   OH247569   4.696   4.008  11.165  0.5201  0.1156  0.6981
 8693TIP3    H147570   4.639   3.992  11.241  0.9877  0.8597  1.2239
 8693TIP3    H247571   4.658   4.085  11.123 -0.0717 -0.6278 -0.1741
 8694TIP3   OH247572   6.460   5.504   2.821  0.1263 -0.7492 -0.2672
 8694TIP3    H147573   6.544   5.497   2.777  0.1689 -0.9801 -0.1493
 8694TIP3    H247574   6.424   5.588   2.792  1.3956  0.4516  1.4045
 8695TIP3   OH247575   0.962   3.880  13.288  0.5686 -0.2847  0.3166
 8695TIP3    H147576   0.890   3.888  13.226  0.4783 -0.6820  0.3650
 8695TIP3    H247577   0.978   3.969  13.319  0.8361 -0.0286 -0.5244
 8696TIP3   OH247578   0.466   1.918   4.598 -0.6347  0.0924  0.2021
 8696TIP3    H147579   0.542   1.977   4.598 -0.5483  0.0642  2.0695
 8696TIP3    H247580   0.410   1.950   4.527 -0.0040  1.6448  0.3633
 8697TIP3   OH247581   2.015   0.401  16.914 -0.3507 -0.3181 -0.3059
 8697TIP3    H147582   2.015   0.496  16.911  2.8827 -0.1966 -0.5180
 8697TIP3    H247583   2.067   0.374  16.838 -0.3606 -2.1850  0.2838
 8698TIP3   OH247584   2.581   2.103  12.227  0.0422  0.1927  0.0116
 8698TIP3    H147585   2.520   2.031  12.245 -0.2324  0.6240  0.8963
 8698TIP3    H247586   2.649   2.093  12.294  0.5231  0.1896 -0.4700
 8699TIP3   OH247587   5.751   6.066  12.010 -0.2457  0.7315  0.0897
 8699TIP3    H147588   5.772   6.075  12.103  2.3666 -0.8037 -0.2440
 8699TIP3    H247589   5.692   5.992  12.005  2.2321 -1.4291  0.3841
 8700TIP3   OH247590   5.928   1.306  12.291 -0.1841  0.4930 -0.0957
 8700TIP3    H147591   5.943   1.215  12.266  0.9245  0.4432  0.6742
 8700TIP3    H247592   5.936   1.355  12.209  1.0028  0.0744 -0.2509
 8701TIP3   OH247593   1.142   0.743   4.376 -0.3078  0.0080  0.0558
 8701TIP3    H147594   1.054   0.705   4.377 -0.1718 -0.3570 -0.6782
 8701TIP3    H247595   1.189   0.691   4.311 -0.0222  1.2426 -0.7622
 8702TIP3   OH247596   4.946   0.625   2.231  0.1411  0.2132 -0.2562
 8702TIP3    H147597   5.002   0.548   2.239 -0.3665 -0.0741  0.7838
 8702TIP3    H247598   4.887   0.605   2.159  1.0368  0.3198 -1.0483
 8703TIP3   OH247599   4.420   6.707   4.342  0.5188  0.2842 -0.7040
 8703TIP3    H147600   4.348   6.644   4.352  0.1853  0.7595  0.0266
 8703TIP3    H247601   4.386   6.772   4.280  0.2550  0.5790 -0.2596
 8704TIP3   OH247602   0.527   5.971   5.493 -0.2464 -0.5837  0.2579
 8704TIP3    H147603   0.470   6.036   5.534 -0.2822 -0.3938 -0.0892
 8704TIP3    H247604   0.575   5.932   5.566  0.5237  0.5549  0.3813
 8705TIP3   OH247605   0.903   6.433  12.880  0.3551 -0.6004  0.2520
 8705TIP3    H147606   0.978   6.374  12.886  0.9216 -0.0841 -1.3522
 8705TIP3    H247607   0.849   6.397  12.810 -0.1731 -0.1767  0.4347
 8706TIP3   OH247608   0.465   0.652   3.049 -0.2585 -0.1231 -0.0324
 8706TIP3    H147609   0.560   0.640   3.054 -0.2168  0.4585  0.7050
 8706TIP3    H247610   0.449   0.733   3.097 -1.0533  0.1811 -0.7920
 8707TIP3   OH247611   4.562   4.808  12.022  0.1138 -0.3273 -0.0550
 8707TIP3    H147612   4.636   4.790  12.081  0.2610  1.2664  0.2951
 8707TIP3    H247613   4.590   4.886  11.973 -0.6423 -0.7311 -1.1523
 8708TIP3   OH247614   1.291   1.996  14.944  0.1956  0.8264  0.1606
 8708TIP3    H147615   1.244   2.079  14.956 -0.4647  0.6572 -1.0499
 8708TIP3    H247616   1.226   1.938  14.903  0.8688 -0.0589  0.3202
 8709TIP3   OH247617   1.528   4.106  12.043  0.5694 -0.3786 -0.2400
 8709TIP3    H147618   1.584   4.165  12.094 -0.3891  0.7725 -0.4504
 8709TIP3    H247619   1.451   4.160  12.022 -1.1201 -2.2135  0.9588
 8710TIP3   OH247620   5.956   5.686   0.711 -0.0496 -0.1589 -0.1091
 8710TIP3    H147621   5.944   5.603   0.665 -2.9190  0.8764 -1.4545
 8710TIP3    H247622   5.954   5.664   0.804  0.2729 -1.6741 -0.4409
 8711TIP3   OH247623   2.166   4.530  14.526 -0.0912  0.6461  0.3738
 8711TIP3    H147624   2.089   4.507  14.474 -0.0574  0.5663  0.3592
 8711TIP3    H247625   2.199   4.446  14.557  0.1446  0.6627  0.1648
 8712TIP3   OH247626   1.692   1.289   1.327 -0.1812 -0.3105 -0.1592
 8712TIP3    H147627   1.642   1.320   1.403  0.4398 -1.8321  0.9352
 8712TIP3    H247628   1.628   1.290   1.256 -1.7314 -1.7701  1.0982
 8713TIP3   OH247629   0.710   1.662   2.531  0.0894 -0.3873 -0.5014
 8713TIP3    H147630   0.727   1.651   2.437 -0.4810 -0.9147 -0.5509
 8713TIP3    H247631   0.783   1.617   2.574  1.9143  2.2548 -0.6372
 8714TIP3   OH247632   6.446   6.368   5.721  0.7107  0.4139 -0.1846
 8714TIP3    H147633   6.520   6.426   5.738  1.5415 -0.0005 -2.1283
 8714TIP3    H247634   6.469   6.286   5.765  0.4861  0.8804  0.8280
 8715TIP3   OH247635   2.324   3.117   6.122  0.4242  0.4809 -0.1436
 8715TIP3    H147636   2.320   3.066   6.202  0.6245 -0.1627 -0.5402
 8715TIP3    H247637   2.251   3.178   6.129 -1.7045 -1.8129 -0.9813
 8716TIP3   OH247638   3.437   2.478  13.774 -0.0028 -0.1442 -0.6058
 8716TIP3    H147639   3.378   2.492  13.848 -0.4942  1.0037 -1.1806
 8716TIP3    H247640   3.474   2.391  13.788  0.3530  0.2552  1.2876
 8717TIP3   OH247641   0.855   0.226   5.506 -0.1293  0.0636 -0.7183
 8717TIP3    H147642   0.800   0.263   5.437  0.3242 -0.0948 -1.1711
 8717TIP3    H247643   0.900   0.302   5.544  1.5748 -0.0610 -2.3195
 8718TIP3   OH247644   0.017   2.167  15.072 -0.1289 -0.3988 -0.4777
 8718TIP3    H147645   0.015   2.178  14.977  2.2125 -3.0994 -0.9717
 8718TIP3    H247646   0.110   2.166  15.094 -0.6080 -0.1550  1.8317
 8719TIP3   OH247647   6.788   2.640  14.025 -0.8658 -0.3054 -0.0479
 8719TIP3    H147648   6.752   2.599  14.104 -1.9490  0.2846 -0.2131
 8719TIP3    H247649   6.843   2.711  14.059 -1.1905 -0.1618  0.1853
 8720TIP3   OH247650   2.683   1.823  17.086 -0.2772  0.0861  0.6398
 8720TIP3    H147651   2.747   1.877  17.040 -0.9606  0.9213  0.6468
 8720TIP3    H247652   2.709   1.826  17.178 -0.8295  1.1571  0.7711
 8721TIP3   OH247653   5.259   4.309  15.694  0.0472  0.2277 -0.6396
 8721TIP3    H147654   5.232   4.395  15.661  0.0183  0.3837 -0.2133
 8721TIP3    H247655   5.302   4.328  15.777 -1.8115 -0.3654  0.4989
 8722TIP3   OH247656   0.091   6.209  11.788  0.3393 -0.0035  0.0919
 8722TIP3    H147657   0.137   6.221  11.705  0.6218 -0.4952  0.1733
 8722TIP3    H247658  -0.002   6.217  11.766  0.4490  2.9530  0.2396
 8723TIP3   OH247659   1.816   4.428  11.076 -0.0525  0.1161 -0.5592
 8723TIP3    H147660   1.843   4.476  11.154 -0.3220  0.3079 -0.5834
 8723TIP3    H247661   1.805   4.338  11.105 -0.1045  0.1787 -0.3850
 8724TIP3   OH247662   0.010   2.468  13.469  0.0325 -0.0672  0.4663
 8724TIP3    H147663   0.014   2.403  13.539  0.4223 -1.0890 -0.4780
 8724TIP3    H247664   0.073   2.535  13.496 -1.1830  0.5347  2.0023
 8725TIP3   OH247665   6.598   0.549   0.163  0.6338  0.0147 -0.4251
 8725TIP3    H147666   6.557   0.633   0.140 -0.9453  0.2071  2.6389
 8725TIP3    H247667   6.539   0.483   0.125  0.0609  0.3198 -0.0904
 8726TIP3   OH247668   1.651   2.908   2.857 -0.5578  0.1633 -0.1483
 8726TIP3    H147669   1.578   2.860   2.819  0.5727 -0.2976 -1.8725
 8726TIP3    H247670   1.718   2.907   2.789  1.8076 -1.0897  2.0430
 8727TIP3   OH247671   6.546   5.569  14.764 -0.3331  0.5484 -0.0831
 8727TIP3    H147672   6.543   5.664  14.780  4.1858  1.1295 -1.3899
 8727TIP3    H247673   6.527   5.560  14.671  0.8658  0.3739 -0.3138
 8728TIP3   OH247674   0.298   5.144  17.090 -0.4527 -0.0161 -0.3006
 8728TIP3    H147675   0.290   5.062  17.140 -1.6244  0.4126  0.2327
 8728TIP3    H247676   0.379   5.132  17.039 -0.3286 -1.2949  0.1471
 8729TIP3   OH247677   0.221   4.594   0.072  0.3718 -0.2869 -0.5227
 8729TIP3    H147678   0.129   4.604   0.045  0.2515 -1.1130 -0.4347
 8729TIP3    H247679   0.234   4.663   0.137  0.0676  0.3986 -1.1752
 8730TIP3   OH247680   6.446   6.779  15.205 -0.0334  0.1542 -0.4257
 8730TIP3    H147681   6.514   6.841  15.180  0.2129  0.2234  0.3806
 8730TIP3    H247682   6.368   6.809  15.158  0.6336 -0.3447 -1.9239
 8731TIP3   OH247683   6.572   1.557  16.529 -0.2333 -0.2936  0.0493
 8731TIP3    H147684   6.604   1.638  16.490  0.1271 -0.2326  0.4636
 8731TIP3    H247685   6.562   1.578  16.622 -0.1155 -0.7254  0.1616
 8732TIP3   OH247686   4.485   4.103   4.538 -0.4951  0.5743  0.6186
 8732TIP3    H147687   4.485   4.167   4.467 -2.4038  0.4910  0.4827
 8732TIP3    H247688   4.487   4.155   4.618  1.2560  0.6781  0.5397
 8733TIP3   OH247689   4.818   3.970   6.650 -0.2706  0.0134  0.0943
 8733TIP3    H147690   4.823   3.879   6.678 -1.7804  0.4988  2.2412
 8733TIP3    H247691   4.893   4.012   6.692 -1.1262  0.2467  1.4613
 8734TIP3   OH247692   2.767   1.837  12.833  0.6559 -0.3028  0.1303
 8734TIP3    H147693   2.775   1.822  12.738  1.1779 -1.0560  0.2836
 8734TIP3    H247694   2.674   1.856  12.847  0.3420 -1.3647 -0.3812
 8735TIP3   OH247695   4.091   1.996   3.707 -0.3956 -0.6091  0.1303
 8735TIP3    H147696   4.177   1.990   3.747 -0.2834 -1.8113 -0.2805
 8735TIP3    H247697   4.063   1.906   3.694 -0.5509 -0.2913 -2.2282
 8736TIP3   OH247698   1.510   3.677  13.588 -0.0508  0.1883  0.2674
 8736TIP3    H147699   1.538   3.596  13.545  2.0153 -0.2759  2.3166
 8736TIP3    H247700   1.423   3.694  13.551 -0.3731 -2.6868 -0.5911
 8737TIP3   OH247701   4.644   1.341  11.826  0.0596 -0.9597 -0.4029
 8737TIP3    H147702   4.599   1.309  11.748  0.3470  0.3920 -1.1658
 8737TIP3    H247703   4.680   1.426  11.799  0.0614 -0.4103  1.2471
 8738TIP3   OH247704   3.548   3.199   0.106  0.0543 -0.2618  0.9269
 8738TIP3    H147705   3.490   3.126   0.085  1.3451 -0.9513 -0.4403
 8738TIP3    H247706   3.620   3.159   0.155  1.9460 -0.4381 -1.7658
 8739TIP3   OH247707   4.254   4.535  13.687 -0.7943 -0.6898  0.1530
 8739TIP3    H147708   4.179   4.594  13.694 -1.3729 -1.5311  1.3602
 8739TIP3    H247709   4.321   4.586  13.642 -0.8340  1.3647  2.2269
 8740TIP3   OH247710   3.634   0.361   3.655  0.2724 -0.5298 -0.5903
 8740TIP3    H147711   3.699   0.298   3.626  1.4545  0.0470  0.6603
 8740TIP3    H247712   3.609   0.331   3.743  1.2717  0.9917  0.2617
 8741TIP3   OH247713   6.256   2.102  11.386  0.2818 -0.2717  0.0451
 8741TIP3    H147714   6.302   2.185  11.402 -0.7597 -0.1407  2.8625
 8741TIP3    H247715   6.295   2.069  11.305  2.6331  1.6347  0.2676
 8742TIP3   OH247716   4.235   6.563   3.276 -0.6315  0.1941  0.3034
 8742TIP3    H147717   4.295   6.502   3.233 -0.0983  0.8808  0.0482
 8742TIP3    H247718   4.200   6.514   3.350  1.7045  0.3510  1.6251
 8743TIP3   OH247719   2.859   0.250  16.789  0.1843  0.4533  0.3920
 8743TIP3    H147720   2.806   0.323  16.820 -0.9433  0.7823 -2.0637
 8743TIP3    H247721   2.941   0.290  16.761  0.7178  0.3291  1.7383
 8744TIP3   OH247722   4.980   3.421   1.012  0.2141  0.2586 -0.3523
 8744TIP3    H147723   5.030   3.499   1.036  0.1607  0.2328 -0.1570
 8744TIP3    H247724   4.888   3.448   1.022  0.1672  0.4763 -1.2282
 8745TIP3   OH247725   3.567   5.634  16.531 -0.0210 -0.4009  0.3442
 8745TIP3    H147726   3.659   5.647  16.506 -0.1384  0.8301  0.4810
 8745TIP3    H247727   3.550   5.705  16.593 -1.1376 -0.4726  0.1311
 8746TIP3   OH247728   6.630   1.303   3.884 -0.4366 -0.0584 -0.1465
 8746TIP3    H147729   6.637   1.380   3.827  3.8588  0.2456  0.4255
 8746TIP3    H247730   6.630   1.338   3.973  0.6932 -0.6132  0.0998
 8747TIP3   OH247731   2.132   0.870   2.124 -0.1400  0.0542 -0.4935
 8747TIP3    H147732   2.228   0.865   2.130 -0.0408  2.0203  0.6244
 8747TIP3    H247733   2.102   0.856   2.214 -0.9107 -0.5292 -0.8349
 8748TIP3   OH247734   5.330   1.155   5.806  0.3137  0.5103  0.1177
 8748TIP3    H147735   5.421   1.160   5.777  0.3548 -0.3687  0.0656
 8748TIP3    H247736   5.335   1.160   5.902  0.5258 -0.6595  0.1852
 8749TIP3   OH247737   0.933   6.646  10.488 -0.6099  0.4899  0.7629
 8749TIP3    H147738   0.838   6.635  10.484 -0.7664  1.9506 -2.0783
 8749TIP3    H247739   0.946   6.740  10.501  0.4788  0.2647  1.4258
 8750TIP3   OH247740   5.838   0.663  14.538 -0.4070 -0.3677 -0.2689
 8750TIP3    H147741   5.783   0.684  14.613 -0.8849  0.0681 -0.7348
 8750TIP3    H247742   5.841   0.568  14.536 -1.0646 -0.3937 -0.1746
 8751TIP3   OH247743   2.716   5.098  12.949 -0.0217  0.7008  0.1920
 8751TIP3    H147744   2.793   5.068  12.901  0.4065  2.1873 -0.0807
 8751TIP3    H247745   2.655   5.125  12.882 -0.6632 -0.1274  0.4216
 8752TIP3   OH247746   2.280   2.826  11.570 -0.2170  0.2375  0.1651
 8752TIP3    H147747   2.279   2.796  11.480  1.1316 -0.2270  0.2791
 8752TIP3    H247748   2.193   2.804  11.604 -0.0975 -1.3292 -0.4612
 8753TIP3   OH247749   6.212   0.854  16.665  0.2940  0.0721 -0.1210
 8753TIP3    H147750   6.218   0.916  16.737  0.3032 -0.9326  0.7706
 8753TIP3    H247751   6.222   0.768  16.707 -3.3611 -0.8163 -0.7757
 8754TIP3   OH247752   1.977   4.126   1.743  0.8376 -0.6646 -0.2340
 8754TIP3    H147753   1.997   4.075   1.664  0.2636  0.3389 -1.0507
 8754TIP3    H247754   1.936   4.206   1.710  0.5346 -0.2510  1.0942
 8755TIP3   OH247755   4.751   6.725   0.971  0.2280 -0.2497 -0.1782
 8755TIP3    H147756   4.784   6.720   1.061  1.1317  1.2557 -0.3923
 8755TIP3    H247757   4.805   6.792   0.929 -0.6929 -0.3696 -1.6298
 8756TIP3   OH247758   0.185   6.240   1.073  0.1840 -0.2743 -0.3134
 8756TIP3    H147759   0.157   6.245   1.164  0.0712  0.0242 -0.3626
 8756TIP3    H247760   0.129   6.303   1.027 -1.2915 -1.9980 -0.9788
 8757TIP3   OH247761   1.170   2.173   5.963  0.0379 -0.3384  0.3834
 8757TIP3    H147762   1.096   2.169   6.024  0.3680 -0.2927  0.7921
 8757TIP3    H247763   1.237   2.221   6.011 -0.2765  1.1842 -0.6311
 8758TIP3   OH247764   2.084   2.178   3.472 -0.0231 -0.2659 -0.4996
 8758TIP3    H147765   2.031   2.253   3.497 -1.8939 -1.2672 -1.3053
 8758TIP3    H247766   2.046   2.104   3.518  0.3144 -1.0993 -1.5109
 8759TIP3   OH247767   5.849   4.579   1.476  0.0566  0.0717  0.0110
 8759TIP3    H147768   5.817   4.490   1.463 -1.5633  0.7041 -0.6767
 8759TIP3    H247769   5.802   4.631   1.410  0.2826  1.5663  0.9724
 8760TIP3   OH247770   3.614   5.670  12.136 -0.7145  0.0084  0.1796
 8760TIP3    H147771   3.549   5.731  12.100  0.1342  1.4387  0.9774
 8760TIP3    H247772   3.659   5.720  12.204  1.8509 -0.6236 -0.9288
 8761TIP3   OH247773   0.621   4.146   4.482 -0.0840 -0.0064  0.7108
 8761TIP3    H147774   0.529   4.145   4.508 -0.2647 -0.7163  0.0660
 8761TIP3    H247775   0.665   4.191   4.554 -0.6855 -1.2628  1.9325
 8762TIP3   OH247776   5.438   2.085  14.144  0.2332 -0.1210  0.1480
 8762TIP3    H147777   5.455   2.024  14.216  2.2502  0.0523 -0.1022
 8762TIP3    H247778   5.366   2.140  14.174  0.3993 -0.6868  1.6285
 8763TIP3   OH247779   0.066   0.216  13.127 -0.7138 -0.6432  0.4075
 8763TIP3    H147780  -0.022   0.180  13.139 -0.6663 -0.6150  0.8744
 8763TIP3    H247781   0.051   0.299  13.082 -0.7206 -1.8286 -1.8984
 8764TIP3   OH247782   0.775   4.497  12.633 -0.3517 -0.6433  0.1247
 8764TIP3    H147783   0.844   4.557  12.605 -0.6750 -0.7504 -0.9249
 8764TIP3    H247784   0.801   4.472  12.722  2.2358 -2.4929 -1.0245
 8765TIP3   OH247785   0.907   5.976  11.701  0.1715 -0.2100 -0.4198
 8765TIP3    H147786   0.938   5.992  11.790 -0.5939 -0.3176 -0.1207
 8765TIP3    H247787   0.944   6.047  11.649 -0.5585  0.7038  0.2654
 8766TIP3   OH247788   6.685   0.367   2.728 -0.3659  0.3231 -0.2152
 8766TIP3    H147789   6.732   0.441   2.767  1.0973  0.4656 -2.0957
 8766TIP3    H247790   6.734   0.290   2.755 -1.8652 -0.0173  1.7055
 8767TIP3   OH247791   2.308   0.703   0.396 -0.0373  0.3736  0.1328
 8767TIP3    H147792   2.227   0.754   0.394  0.0901  0.7082 -3.2535
 8767TIP3    H247793   2.378   0.769   0.390  0.2803 -0.0183 -0.6506
 8768TIP3   OH247794   3.938   0.207   1.462 -0.2846  0.0377  0.5261
 8768TIP3    H147795   3.862   0.214   1.405 -0.5814  1.3830  1.0300
 8768TIP3    H247796   3.911   0.147   1.532 -0.9610  0.6420  0.7947
 8769TIP3   OH247797   2.308   4.211  11.922 -0.0644 -0.2704  0.3634
 8769TIP3    H147798   2.215   4.213  11.901  0.0447  0.8201 -0.1009
 8769TIP3    H247799   2.350   4.175  11.844 -0.1786 -1.8653  1.0026
 8770TIP3   OH247800   1.457   3.862   6.428 -0.3039  0.5345 -0.5732
 8770TIP3    H147801   1.443   3.950   6.462 -2.7158  0.2810 -0.7873
 8770TIP3    H247802   1.522   3.823   6.488 -1.5470  1.4009  1.4234
 8771TIP3   OH247803   4.349   1.650   1.627  0.2172  0.1673  0.1587
 8771TIP3    H147804   4.327   1.650   1.534  0.9689 -2.1262 -0.0774
 8771TIP3    H247805   4.436   1.688   1.632  0.1178  0.4267 -0.0338
 8772TIP3   OH247806   4.595   2.697  14.018  0.1936 -0.0161 -0.0831
 8772TIP3    H147807   4.563   2.771  13.966  0.1509 -0.4488 -0.6846
 8772TIP3    H247808   4.543   2.623  13.989 -0.9362  0.0204  1.7173
 8773TIP3   OH247809   3.877   3.560   2.896 -0.4877  0.4438 -0.3807
 8773TIP3    H147810   3.914   3.585   2.981 -3.1209  2.9323  0.1827
 8773TIP3    H247811   3.864   3.642   2.850 -1.2686 -0.6661 -2.2686
 8774TIP3   OH247812   5.023   4.831  12.931 -0.0950  0.5348  0.4977
 8774TIP3    H147813   4.965   4.800  12.862  1.3442 -3.2513  0.7243
 8774TIP3    H247814   5.093   4.878  12.884  0.5611 -1.4698 -0.6470
 8775TIP3   OH247815   2.144   3.394   3.093 -0.2008  0.2603 -0.0474
 8775TIP3    H147816   2.189   3.360   3.015 -1.2379 -0.3550 -0.4074
 8775TIP3    H247817   2.065   3.340   3.099  0.1042 -0.0274  1.7221
 8776TIP3   OH247818   2.565   3.602  14.588 -0.5796 -0.1998 -0.1246
 8776TIP3    H147819   2.552   3.686  14.631  1.6521  1.9033 -3.1354
 8776TIP3    H247820   2.493   3.595  14.525 -1.2104 -1.0068  0.6529
 8777TIP3   OH247821   3.474   6.046   2.305 -0.2664  0.1031  0.8714
 8777TIP3    H147822   3.475   6.037   2.209 -0.2593  0.5423  0.8256
 8777TIP3    H247823   3.508   5.963   2.337  0.9874  0.4183  0.4450
 8778TIP3   OH247824   1.930   4.932   5.604 -0.0706  0.2124 -0.2340
 8778TIP3    H147825   1.848   4.969   5.635 -0.0629  0.1008 -0.0747
 8778TIP3    H247826   1.987   4.932   5.682  0.8441  2.3434 -0.8243
 8779TIP3   OH247827   0.848   1.878  14.698 -0.0039 -0.7483  0.0475
 8779TIP3    H147828   0.819   1.969  14.686 -1.4451 -1.2175 -0.2533
 8779TIP3    H247829   0.785   1.826  14.648  0.4104 -1.9711  0.7477
 8780TIP3   OH247830   4.890   1.242   1.675  0.1732 -0.0996 -0.4161
 8780TIP3    H147831   4.944   1.164   1.668 -0.7553 -0.6355 -2.1906
 8780TIP3    H247832   4.924   1.301   1.608 -0.6746  0.0187 -0.7536
 8781TIP3   OH247833   4.074   5.619   5.240  0.0099  0.1115 -0.0128
 8781TIP3    H147834   3.985   5.618   5.204 -1.6286  1.9150  3.4919
 8781TIP3    H247835   4.117   5.693   5.197 -0.4030 -0.2668 -1.1207
 8782TIP3   OH247836   5.429   4.837  16.167 -0.0490 -0.0301  0.2726
 8782TIP3    H147837   5.516   4.866  16.194 -0.7290  2.0281  0.4267
 8782TIP3    H247838   5.443   4.795  16.082  1.1324 -0.0041  0.4416
 8783TIP3   OH247839   5.036   2.945  11.663  0.5213  0.8328 -0.2005
 8783TIP3    H147840   4.946   2.933  11.632  0.9761 -1.6571 -0.7584
 8783TIP3    H247841   5.029   2.946  11.758 -0.0507  0.0519 -0.2247
 8784TIP3   OH247842   1.045   5.533  15.625 -0.5146  0.2768  0.0893
 8784TIP3    H147843   1.052   5.511  15.532 -0.8834  1.4646 -0.2277
 8784TIP3    H247844   1.078   5.622  15.631  1.0661 -0.3441  1.3746
 8785TIP3   OH247845   0.781   4.121   4.210  0.0947  0.0939  0.0722
 8785TIP3    H147846   0.846   4.187   4.237  1.6978 -2.3698  2.8393
 8785TIP3    H247847   0.707   4.136   4.269 -0.5966  0.9082 -0.9681
 8786TIP3   OH247848   3.648   0.707   2.563 -0.0122  0.2941  0.4527
 8786TIP3    H147849   3.680   0.643   2.499 -1.7951  0.6123 -0.8173
 8786TIP3    H247850   3.563   0.673   2.591 -2.0612  2.9824 -1.8489
 8787TIP3   OH247851   6.122   5.109  11.745 -0.1904  0.1277 -0.0278
 8787TIP3    H147852   6.138   5.020  11.775 -0.7112  0.7324  2.2222
 8787TIP3    H247853   6.199   5.131  11.692  0.4693 -1.2796  0.3031
 8788TIP3   OH247854   4.327   4.672  12.442  0.3336 -0.2364  0.1078
 8788TIP3    H147855   4.380   4.700  12.518  0.0501 -1.1312  0.6528
 8788TIP3    H247856   4.337   4.577  12.441 -1.0941 -0.3987  0.0845
 8789TIP3   OH247857   3.936   5.429   2.496  0.4329  0.0755  0.7950
 8789TIP3    H147858   3.929   5.508   2.443 -0.0664  1.0832  2.2849
 8789TIP3    H247859   3.850   5.420   2.537  0.5029 -1.2249  0.6927
 8790TIP3   OH247860   4.590   1.386   2.973  0.0017 -0.2987  0.5318
 8790TIP3    H147861   4.575   1.430   3.057 -0.5226 -0.9977  0.8153
 8790TIP3    H247862   4.655   1.318   2.993 -0.5347 -0.8269  0.4980
 8791TIP3   OH247863   3.180   0.489   3.698  0.1545  0.5341 -0.2922
 8791TIP3    H147864   3.119   0.543   3.649 -0.4970  3.1277  3.0066
 8791TIP3    H247865   3.266   0.513   3.664 -0.3716 -0.4321 -2.4689
 8792TIP3   OH247866   0.510   2.032  14.872 -1.0229 -0.1350 -0.0482
 8792TIP3    H147867   0.570   2.078  14.812  0.4394 -2.7835 -0.7949
 8792TIP3    H247868   0.507   2.087  14.950 -1.3120  2.3902 -1.7249
 8793TIP3   OH247869   5.550   3.541  15.212 -0.2056  0.0990  0.7090
 8793TIP3    H147870   5.466   3.561  15.254 -0.7009  0.6114 -0.4848
 8793TIP3    H247871   5.526   3.495  15.131  0.5266  1.9513 -0.6281
 8794TIP3   OH247872   3.265   4.177   0.686 -0.0869 -0.0815  0.4589
 8794TIP3    H147873   3.354   4.192   0.655 -0.5560  0.7078 -0.5581
 8794TIP3    H247874   3.233   4.264   0.711  0.0604 -0.5947  2.6755
 8795TIP3   OH247875   2.417   0.807  10.956 -0.4416  0.3901  0.0855
 8795TIP3    H147876   2.505   0.822  10.990 -0.1318  0.8930 -0.9000
 8795TIP3    H247877   2.430   0.740  10.888 -1.1387 -1.0624  1.3161
 8796TIP3   OH247878   1.118   6.148   3.976  0.2176 -0.0349 -0.0710
 8796TIP3    H147879   1.103   6.117   3.887 -2.5919  0.9087 -0.0094
 8796TIP3    H247880   1.110   6.070   4.030 -5.7868  0.1482 -0.0103
 8797TIP3   OH247881   2.027   5.201  12.980 -1.0712 -0.3297 -0.3133
 8797TIP3    H147882   1.987   5.125  12.938 -1.4958 -0.1303 -0.2762
 8797TIP3    H247883   2.059   5.167  13.064 -0.5797 -0.6348 -0.6141
 8798TIP3   OH247884   0.873   3.277   0.968 -0.6086  0.2334 -0.4942
 8798TIP3    H147885   0.824   3.344   0.921  0.9888  0.5724 -1.7354
 8798TIP3    H247886   0.959   3.316   0.985  0.6831 -1.7314 -2.0372
 8799TIP3   OH247887   2.597   1.696  11.948 -0.1301 -0.7012  0.2984
 8799TIP3    H147888   2.606   1.782  11.988 -0.3085 -0.6160  0.1545
 8799TIP3    H247889   2.548   1.711  11.867 -0.8227 -1.0402  0.6419
 8800TIP3   OH247890   5.382   0.574  13.218  0.0513 -0.2461  0.5620
 8800TIP3    H147891   5.318   0.617  13.161 -0.9051 -1.3870  0.7445
 8800TIP3    H247892   5.417   0.502  13.166  0.7355 -0.0108  0.6858
 8801TIP3   OH247893   1.508   4.174  14.917  0.1809 -0.0595  0.0682
 8801TIP3    H147894   1.533   4.151  14.827 -0.8185 -0.5206 -0.1141
 8801TIP3    H247895   1.519   4.268  14.921  2.5172 -0.2903  0.2228
 8802TIP3   OH247896   3.957   1.736   5.734  0.5169  0.6362  0.0561
 8802TIP3    H147897   3.891   1.686   5.781  2.1747  0.4230  2.2994
 8802TIP3    H247898   3.929   1.827   5.744 -0.6423  0.4501 -1.0812
 8803TIP3   OH247899   5.757   2.108   0.350  0.1195 -0.3684 -0.1569
 8803TIP3    H147900   5.732   2.145   0.265  2.3283  1.9457  0.0864
 8803TIP3    H247901   5.837   2.154   0.373 -0.0971 -1.3609  2.9573
 8804TIP3   OH247902   1.394   2.277   2.823  0.2024 -0.0071  0.0155
 8804TIP3    H147903   1.366   2.366   2.843 -0.6177 -0.0448 -0.8678
 8804TIP3    H247904   1.452   2.286   2.748  1.9462 -0.0177  1.3188
 8805TIP3   OH247905   5.567   5.259   0.865 -0.5685  0.0564  0.0001
 8805TIP3    H147906   5.474   5.282   0.868 -0.6402 -0.1361 -0.6529
 8805TIP3    H247907   5.591   5.268   0.773 -0.1658 -0.7538  0.0162
 8806TIP3   OH247908   2.319   1.015  15.309  0.1044 -0.1299  0.0454
 8806TIP3    H147909   2.282   0.999  15.396  0.4364  0.5957  0.3328
 8806TIP3    H247910   2.337   0.928  15.274 -1.5814 -0.5070  0.0063
 8807TIP3   OH247911   2.792   6.589  12.806 -0.5884 -0.1124 -0.3603
 8807TIP3    H147912   2.837   6.604  12.723 -1.5973  0.9250 -0.7444
 8807TIP3    H247913   2.839   6.645  12.869 -1.5731  1.3187 -0.8529
 8808TIP3   OH247914   4.627   4.469  15.076  0.0392  0.5083  0.0634
 8808TIP3    H147915   4.640   4.395  15.135  2.9646  0.1157 -0.8796
 8808TIP3    H247916   4.579   4.432  15.002 -0.9521  0.2554  0.8154
 8809TIP3   OH247917   4.518   5.094   2.424 -0.0603  0.6583  0.0279
 8809TIP3    H147918   4.450   5.160   2.434 -1.9727 -1.1297 -0.4028
 8809TIP3    H247919   4.502   5.057   2.337  0.9347 -0.3683  0.2582
 8810TIP3   OH247920   1.941   1.278  14.249  0.8293 -0.1424 -0.1640
 8810TIP3    H147921   1.966   1.264  14.340 -3.1332  0.1615  1.1816
 8810TIP3    H247922   1.991   1.355  14.222  0.8174  0.8523  2.3942
 8811TIP3   OH247923   3.690   2.548   0.913  0.7260 -0.0160 -0.0778
 8811TIP3    H147924   3.723   2.593   0.835  0.0929 -2.0690 -1.6107
 8811TIP3    H247925   3.741   2.584   0.985  1.8589  1.4120 -1.5316
 8812TIP3   OH247926   4.034   3.012  16.335 -0.3837  0.1376 -0.9397
 8812TIP3    H147927   3.961   3.009  16.273 -0.9526 -1.2291 -0.2491
 8812TIP3    H247928   3.992   3.031  16.419  0.2116  0.5922 -0.7399
 8813TIP3   OH247929   5.637   1.393  15.301  0.0318  0.5434 -0.5365
 8813TIP3    H147930   5.666   1.432  15.384 -2.1757  1.5085 -0.1428
 8813TIP3    H247931   5.653   1.461  15.236 -0.5423  0.7619 -0.4554
 8814TIP3   OH247932   2.164   0.190  12.932  0.0788 -0.0949  0.1828
 8814TIP3    H147933   2.187   0.114  12.985  0.7449  0.8866  1.3646
 8814TIP3    H247934   2.172   0.264  12.993  2.1934  1.2671 -1.6070
 8815TIP3   OH247935   4.261   6.187  15.246 -0.2213  0.4977 -0.0371
 8815TIP3    H147936   4.331   6.141  15.201  0.3876  0.8003  0.5861
 8815TIP3    H247937   4.185   6.177  15.189 -0.6370 -2.8531  0.8856
 8816TIP3   OH247938   1.147   2.701  11.645 -0.0573  0.3441 -0.0635
 8816TIP3    H147939   1.114   2.707  11.735  2.7526 -2.2538  1.3014
 8816TIP3    H247940   1.137   2.608  11.622  1.6128  0.4500 -1.4265
 8817TIP3   OH247941   6.103   4.894   5.950  1.1291 -0.2161 -0.2528
 8817TIP3    H147942   6.158   4.821   5.980  3.1185  0.6691 -1.5276
 8817TIP3    H247943   6.086   4.945   6.029  1.0440 -1.1918  0.3791
 8818TIP3   OH247944   4.939   4.135  13.118 -0.2655  0.0523 -0.1298
 8818TIP3    H147945   5.011   4.198  13.113  0.3153 -0.6612 -1.2217
 8818TIP3    H247946   4.911   4.137  13.210  0.7123  0.8136  0.1668
 8819TIP3   OH247947   3.509   2.533   1.690 -0.2635 -0.7085  0.3692
 8819TIP3    H147948   3.475   2.599   1.629  0.9340  0.3036  0.7642
 8819TIP3    H247949   3.500   2.450   1.643  0.2616 -0.0019 -1.0339
 8820TIP3   OH247950   3.614   0.197  16.956  0.2150 -0.1530 -0.1177
 8820TIP3    H147951   3.542   0.185  16.894 -0.0422  1.3346 -0.1513
 8820TIP3    H247952   3.625   0.111  16.996 -2.6045 -0.1202  0.9999
 8821TIP3   OH247953   1.823   4.319  13.690 -0.1357  0.0251  0.2730
 8821TIP3    H147954   1.907   4.309  13.644 -0.1697 -1.1653  0.4227
 8821TIP3    H247955   1.769   4.370  13.631  0.6199  0.6082  0.0694
 8822TIP3   OH247956   5.412   5.326   3.592 -0.1210  0.1386 -0.2115
 8822TIP3    H147957   5.495   5.278   3.582  0.6605  1.6982 -1.5790
 8822TIP3    H247958   5.368   5.281   3.664  0.5853 -2.5668 -1.3322
 8823TIP3   OH247959   3.717   1.291   2.383  0.2795  0.4138  0.8267
 8823TIP3    H147960   3.645   1.244   2.424 -1.3199  0.8016 -1.3492
 8823TIP3    H247961   3.699   1.384   2.400  1.3092  0.4532  1.8216
 8824TIP3   OH247962   0.246   0.554   4.299  0.2156  0.5852  0.2579
 8824TIP3    H147963   0.317   0.510   4.252  1.8873  2.9825  0.2875
 8824TIP3    H247964   0.171   0.496   4.291  2.1820 -2.1657  0.2899
 8825TIP3   OH247965   2.245   1.460  11.869  0.1473 -0.1507 -0.1348
 8825TIP3    H147966   2.291   1.401  11.809  0.0545 -0.1533 -0.2043
 8825TIP3    H247967   2.258   1.422  11.956 -0.2703 -0.5103 -0.2236
 8826TIP3   OH247968   3.586   6.255   3.439  0.4547  0.1719  0.1174
 8826TIP3    H147969   3.512   6.209   3.479 -1.5299 -0.0854 -3.4644
 8826TIP3    H247970   3.556   6.346   3.431  0.9374  0.2895 -0.4340
 8827TIP3   OH247971   5.497   5.858  12.538 -0.0139 -0.0722  0.1864
 8827TIP3    H147972   5.411   5.891  12.563  0.5376  0.3126  1.6473
 8827TIP3    H247973   5.535   5.823  12.619  1.8446  1.2256 -0.0454
 8828TIP3   OH247974   6.667   4.927  13.922  0.2519  0.1775  0.0627
 8828TIP3    H147975   6.647   4.964  13.836 -1.2036  0.6624  0.5813
 8828TIP3    H247976   6.744   4.975  13.952  0.2310  0.6291 -0.5958
 8829TIP3   OH247977   6.210   5.570  14.446 -0.2341  0.0491 -0.3137
 8829TIP3    H147978   6.301   5.540  14.439 -0.4421 -1.0988  1.2260
 8829TIP3    H247979   6.204   5.644  14.386  1.6215 -0.0736 -0.7139
 8830TIP3   OH247980   4.088   4.002   3.924  0.1864  0.6890  0.2368
 8830TIP3    H147981   4.107   3.909   3.929  1.5558  0.8912 -0.5582
 8830TIP3    H247982   4.068   4.028   4.014  2.7266  0.1786  1.0524
 8831TIP3   OH247983   5.846   3.626  14.843  0.6956 -0.2785  0.1853
 8831TIP3    H147984   5.821   3.683  14.916  1.6165 -0.1663  0.4276
 8831TIP3    H247985   5.928   3.585  14.872 -1.1933 -3.7994  1.2036
 8832TIP3   OH247986   1.002   6.503   2.879  0.5415 -0.1692  0.1957
 8832TIP3    H147987   1.046   6.528   2.961  1.2952  0.3903 -0.3602
 8832TIP3    H247988   0.959   6.420   2.899  0.4732  0.1039  1.2420
 8833TIP3   OH247989   0.974   1.954  16.709  0.6087  0.0668 -0.5283
 8833TIP3    H147990   1.024   1.952  16.627 -0.3726 -0.7699 -1.1271
 8833TIP3    H247991   0.894   2.000  16.687  0.8996  1.0308  0.3231
 8834TIP3   OH247992   1.615   6.225   1.552 -0.8845  0.4650  0.3030
 8834TIP3    H147993   1.582   6.305   1.592 -1.4254  0.7968 -0.7808
 8834TIP3    H247994   1.704   6.247   1.525 -0.0258 -0.1475  2.3877
 8835TIP3   OH247995   5.896   3.105  11.434 -0.3588 -0.4565 -0.2707
 8835TIP3    H147996   5.869   3.187  11.392 -0.7157 -0.0785  0.6796
 8835TIP3    H247997   5.992   3.112  11.440 -0.2517 -0.7325 -1.4425
 8836TIP3   OH247998   0.560   0.425   5.672  0.0835  0.1022 -0.1260
 8836TIP3    H147999   0.618   0.501   5.671 -0.4661  0.5515  0.5325
 8836TIP3    H248000   0.608   0.358   5.722 -0.3995  0.8665  1.4398
 8837TIP3   OH248001   1.157   4.954   0.324  0.2500 -0.4597 -0.0235
 8837TIP3    H148002   1.201   5.038   0.341  1.6325 -1.1252 -0.1726
 8837TIP3    H248003   1.137   4.919   0.411 -2.1488  0.8773  0.0640
 8838TIP3   OH248004   4.021   1.100   4.482  0.1137  0.5625  0.1596
 8838TIP3    H148005   3.930   1.123   4.460  0.3847  1.7373  0.1816
 8838TIP3    H248006   4.072   1.126   4.406  0.5896  1.1418  0.6665
 8839TIP3   OH248007   3.739   5.588  11.460 -0.0610  0.2536 -0.2286
 8839TIP3    H148008   3.705   5.564  11.546 -1.5753  0.2171 -0.8045
 8839TIP3    H248009   3.673   5.647  11.424  1.8640  2.5294 -0.2834
 8840TIP3   OH248010   2.494   6.041  12.586  0.1428 -0.1278 -0.1359
 8840TIP3    H148011   2.546   5.972  12.628 -0.1192 -1.6523 -2.1509
 8840TIP3    H248012   2.405   6.025  12.615 -0.2409 -1.9626 -2.0853
 8841TIP3   OH248013   1.539   3.378  15.006 -0.2299  0.0286  0.0581
 8841TIP3    H148014   1.528   3.295  15.052  2.0089  0.3985  1.4345
 8841TIP3    H248015   1.592   3.356  14.930 -1.2602 -0.0740 -0.6482
 8842TIP3   OH248016   6.278   0.035   4.157  0.0102 -0.1147 -0.1658
 8842TIP3    H148017   6.355   0.085   4.182  0.7820 -1.3954  0.1156
 8842TIP3    H248018   6.305  -0.014   4.080 -0.5120 -0.5766 -0.0629
 8843TIP3   OH248019   4.256   3.154  16.123 -0.8900 -0.0529 -0.3624
 8843TIP3    H148020   4.203   3.160  16.203 -2.8824  0.7515 -1.6781
 8843TIP3    H248021   4.195   3.171  16.052  0.7163 -1.2520 -2.1406
 8844TIP3   OH248022   0.045   4.402   5.337  0.4675 -0.4053  0.4240
 8844TIP3    H148023   0.001   4.320   5.312  1.0675 -0.2858 -1.1198
 8844TIP3    H248024   0.137   4.386   5.319  0.9709 -0.2593  2.5937
 8845TIP3   OH248025   0.561   1.130   1.913  0.1196 -0.4697  0.2315
 8845TIP3    H148026   0.498   1.152   1.981  0.5781 -1.1087  0.8990
 8845TIP3    H248027   0.590   1.041   1.936  1.4533 -0.0904  0.1151
 8846TIP3   OH248028   3.755   2.476   6.060 -0.3624  0.2194  0.1690
 8846TIP3    H148029   3.726   2.461   5.970  0.2704 -0.9955  0.1436
 8846TIP3    H248030   3.680   2.453   6.114 -0.3195 -0.3256  0.0001
 8847TIP3   OH248031   4.991   2.673  14.525  0.0940  0.2424 -0.0959
 8847TIP3    H148032   5.056   2.732  14.487  0.8490 -0.4792  0.0428
 8847TIP3    H248033   4.961   2.717  14.605 -0.9784  1.4402 -1.1196
 8848TIP3   OH248034   6.084   2.481   6.802 -0.0115  0.5014 -0.3641
 8848TIP3    H148035   6.154   2.543   6.820  1.1329 -1.1824  1.3090
 8848TIP3    H248036   6.128   2.397   6.792 -1.4652 -0.0752 -3.0107
 8849TIP3   OH248037   0.380   1.976   5.899  0.5368  0.5815  0.0848
 8849TIP3    H148038   0.450   2.012   5.844  0.7618  1.1653  0.7398
 8849TIP3    H248039   0.333   2.053   5.930 -0.9307  0.1690 -1.0020
 8850TIP3   OH248040   2.054   5.507   3.641  0.1666  0.0832 -0.9663
 8850TIP3    H148041   2.013   5.529   3.558 -1.8946 -0.2837 -0.1045
 8850TIP3    H248042   1.991   5.535   3.707  0.5932 -1.9675  0.3832
 8851TIP3   OH248043   4.779   2.121   0.199 -0.3257  0.3597 -0.0133
 8851TIP3    H148044   4.848   2.125   0.266  0.1022 -1.7507 -0.2313
 8851TIP3    H248045   4.749   2.030   0.202 -0.7071  0.3590 -2.2670
 8852TIP3   OH248046   3.302   1.933  12.173 -0.3128  0.4975  0.0868
 8852TIP3    H148047   3.378   1.926  12.115 -0.8572 -1.1101 -0.4762
 8852TIP3    H248048   3.298   2.026  12.196  1.1372  0.8076 -0.7821
 8853TIP3   OH248049   3.497   0.471  16.132  0.3137 -0.2627 -0.3234
 8853TIP3    H148050   3.498   0.418  16.052  1.3424  1.1630 -1.3182
 8853TIP3    H248051   3.578   0.523  16.127  0.0250  0.3965  1.2753
 8854TIP3   OH248052   0.687   3.612  16.332  0.5479  0.3336  0.0593
 8854TIP3    H148053   0.622   3.671  16.370  0.0265 -0.3030  0.1871
 8854TIP3    H248054   0.722   3.564  16.407  1.1471  0.6520 -0.0132
 8855TIP3   OH248055   2.202   4.828   2.833  0.0181  0.6361  0.3577
 8855TIP3    H148056   2.193   4.839   2.739 -0.0274 -0.9006  0.1600
 8855TIP3    H248057   2.236   4.913   2.864  0.0471  1.1523 -1.0198
 8856TIP3   OH248058   0.477   0.242  15.430 -0.7883  0.6905  0.5667
 8856TIP3    H148059   0.504   0.331  15.407 -0.5298  0.7981  1.2527
 8856TIP3    H248060   0.462   0.246  15.524  0.9784 -0.4229  0.9505
 8857TIP3   OH248061   0.524   4.087   0.961  0.0864  0.3537 -0.7718
 8857TIP3    H148062   0.485   4.003   0.936 -1.5665  0.9286 -0.2443
 8857TIP3    H248063   0.492   4.149   0.895  1.0727  0.6426 -0.9969
 8858TIP3   OH248064   5.263   3.472  13.961  0.1292  0.1839  0.5520
 8858TIP3    H148065   5.252   3.458  14.055 -0.8899 -2.6143  0.1246
 8858TIP3    H248066   5.351   3.439  13.942  0.5072  1.1676  0.5854
 8859TIP3   OH248067   0.684   4.869   0.995  0.0978 -0.1003  0.0178
 8859TIP3    H148068   0.649   4.887   0.908 -1.3417  1.5509  0.8817
 8859TIP3    H248069   0.763   4.818   0.978 -2.2170 -3.4282 -2.0773
 8860TIP3   OH248070   1.324   0.046   0.587  0.0428 -0.3252  0.0333
 8860TIP3    H148071   1.283   0.041   0.674  0.2235 -0.1936  0.1284
 8860TIP3    H248072   1.418   0.046   0.606  0.0779  0.8790 -0.0911
 8861TIP3   OH248073   0.401   6.519  14.578 -0.0475 -0.2824 -0.1953
 8861TIP3    H148074   0.457   6.542  14.504 -0.0013 -1.7203 -0.6560
 8861TIP3    H248075   0.447   6.446  14.621  0.7771  1.5541  2.3155
 8862TIP3   OH248076   6.377   1.254   0.320 -0.1110 -0.6497 -0.3890
 8862TIP3    H148077   6.457   1.293   0.356 -0.7975  0.7850 -0.3672
 8862TIP3    H248078   6.379   1.276   0.227  0.7331 -2.7636 -0.9225
 8863TIP3   OH248079   1.035   1.080  15.443 -0.6324  0.2171  0.3729
 8863TIP3    H148080   0.957   1.078  15.387 -0.7003 -2.1871  0.4676
 8863TIP3    H248081   1.067   1.170  15.435 -3.0422  1.1307 -0.1591
 8864TIP3   OH248082   2.723   0.499  16.825 -0.3406  0.1736 -0.1249
 8864TIP3    H148083   2.780   0.574  16.840  1.9857 -1.8398  1.8598
 8864TIP3    H248084   2.654   0.508  16.892 -1.3670  1.5818 -1.2915
 8865TIP3   OH248085   6.139   3.685   3.638 -0.2054 -0.4468  0.1117
 8865TIP3    H148086   6.132   3.649   3.549 -1.9015  0.3401 -0.1151
 8865TIP3    H248087   6.230   3.714   3.645  0.1295 -1.1070 -1.1308
 8866TIP3   OH248088   1.033   3.495   0.211  0.4456 -0.5066  0.0828
 8866TIP3    H148089   0.997   3.568   0.161  1.8504 -0.4381 -0.8916
 8866TIP3    H248090   0.990   3.501   0.297  0.5012  1.4492  0.0192
 8867TIP3   OH248091   1.279   6.326   1.519 -0.5251  0.2493 -0.0393
 8867TIP3    H148092   1.346   6.378   1.563  2.0853 -1.5476 -1.6046
 8867TIP3    H248093   1.259   6.375   1.440  0.9386 -0.3550 -0.8396
 8868TIP3   OH248094   4.436   5.680   1.952  0.0765  0.0366  0.1990
 8868TIP3    H148095   4.454   5.667   2.046  0.7580 -0.2337  0.0387
 8868TIP3    H248096   4.520   5.708   1.916 -0.6719  2.2031  0.0227
 8869TIP3   OH248097   1.403   4.143  13.373  0.1618  0.3048  0.1370
 8869TIP3    H148098   1.463   4.212  13.343 -0.5456 -0.0138 -2.1987
 8869TIP3    H248099   1.362   4.179  13.452  0.0440  2.4383 -0.8317
 8870TIP3   OH248100   2.908   5.926  14.671  0.1986 -0.1037  0.1338
 8870TIP3    H148101   2.899   5.920  14.766  0.4615  0.1275  0.1758
 8870TIP3    H248102   2.858   6.004  14.647 -0.9879 -0.9034 -0.0882
 8871TIP3   OH248103   5.306   6.435   5.277 -0.3967 -0.2415  0.7294
 8871TIP3    H148104   5.221   6.471   5.253  0.0411  1.7779  1.9162
 8871TIP3    H248105   5.327   6.373   5.207 -3.1216 -1.3505  0.7965
 8872TIP3   OH248106   3.999   4.484   6.239 -0.2849  0.2723  0.3016
 8872TIP3    H148107   3.923   4.541   6.253  1.1985  2.1235  1.2614
 8872TIP3    H248108   4.009   4.437   6.322 -0.9434 -0.7430 -0.1700
 8873TIP3   OH248109   3.909   6.105   3.224  0.1372  0.1305  0.1914
 8873TIP3    H148110   3.884   6.193   3.252  2.2018  0.7094  0.3429
 8873TIP3    H248111   3.940   6.062   3.304 -2.0396 -1.2483  0.3909
 8874TIP3   OH248112   0.899   4.919  15.561 -0.3337 -0.4179 -0.5620
 8874TIP3    H148113   0.966   4.851  15.557  0.4619  0.2188  0.9718
 8874TIP3    H248114   0.848   4.898  15.639  0.1966  0.9305  0.1865
 8875TIP3   OH248115   3.896   1.330   5.918  0.5104  0.2248  0.1392
 8875TIP3    H148116   3.975   1.347   5.867  1.7181 -0.5580  1.6771
 8875TIP3    H248117   3.921   1.347   6.009  0.3812 -4.3791  1.3024
 8876TIP3   OH248118   3.551   5.630   4.113  0.0196 -0.3286  0.1477
 8876TIP3    H148119   3.585   5.689   4.180 -1.1897  0.0383  0.4449
 8876TIP3    H248120   3.596   5.656   4.033 -1.2642  1.7326  0.0342
 8877TIP3   OH248121   0.790   0.901   2.606 -0.6192  0.2804  0.0618
 8877TIP3    H148122   0.791   0.931   2.515  0.0152 -1.2789 -0.4797
 8877TIP3    H248123   0.862   0.839   2.612 -0.9831 -0.0517  1.5074
 8878TIP3   OH248124   5.220   4.841  17.117 -0.0453  0.2227  0.2794
 8878TIP3    H148125   5.150   4.783  17.087  0.4122  0.0616 -0.5217
 8878TIP3    H248126   5.272   4.858  17.038  1.2187 -0.2386  0.9932
 8879TIP3   OH248127   0.766   3.398  11.095 -0.3693  0.0025 -0.6382
 8879TIP3    H148128   0.721   3.477  11.127 -0.2143 -0.5846  1.1272
 8879TIP3    H248129   0.830   3.432  11.033  0.7693  1.4899  1.2237
 8880TIP3   OH248130   5.221   1.951  16.447 -0.0566  0.1403  0.2344
 8880TIP3    H148131   5.216   2.018  16.379  1.3286 -0.0817 -0.1031
 8880TIP3    H248132   5.268   1.994  16.519  0.7912 -0.4347  0.0363
 8881TIP3   OH248133   0.160   0.258  11.988  0.2423 -0.7186 -0.3132
 8881TIP3    H148134   0.149   0.166  12.012  0.7129 -0.5180  0.7140
 8881TIP3    H248135   0.254   0.265  11.967  0.1951 -0.4815 -0.4424
 8882TIP3   OH248136   5.225   6.374   3.626 -0.7879  0.1340  0.4883
 8882TIP3    H148137   5.288   6.392   3.556 -0.7271  1.7007  0.9054
 8882TIP3    H248138   5.247   6.285   3.655 -0.1174 -0.1322 -0.7411
 8883TIP3   OH248139   5.157   3.375   0.062  0.4146  0.2547 -0.1032
 8883TIP3    H148140   5.245   3.391   0.096  0.7674  0.6032 -1.1407
 8883TIP3    H248141   5.166   3.300   0.003 -0.5189 -1.4772  1.8052
 8884TIP3   OH248142   0.431   4.319  13.596  0.4175 -0.1575  0.1446
 8884TIP3    H148143   0.431   4.238  13.647  0.5112 -0.6919 -0.6995
 8884TIP3    H248144   0.362   4.307  13.531 -0.8666  1.1918  1.1682
 8885TIP3   OH248145   3.493   3.764   1.519  0.3412  0.2827  0.2610
 8885TIP3    H148146   3.451   3.819   1.584  0.9355  0.7864  0.2254
 8885TIP3    H248147   3.553   3.708   1.569  2.3209  2.0500  0.0135
 8886TIP3   OH248148   2.819   6.761   0.640 -0.1265  0.1822 -0.0550
 8886TIP3    H148149   2.832   6.673   0.605 -0.9007 -0.4159  1.0959
 8886TIP3    H248150   2.725   6.767   0.656  0.1195  0.6127  1.3889
 8887TIP3   OH248151   3.424   3.723  11.806  0.2146  0.0224  0.4156
 8887TIP3    H148152   3.471   3.778  11.868  0.4998 -0.1676  0.3658
 8887TIP3    H248153   3.435   3.766  11.722  0.4979 -0.1479  0.3644
 8888TIP3   OH248154   6.193   0.980   2.221  0.2538  0.4372 -0.0613
 8888TIP3    H148155   6.148   0.895   2.218  1.0153 -0.0158  0.7258
 8888TIP3    H248156   6.127   1.043   2.193 -0.7489 -0.2563  0.6452
 8889TIP3   OH248157   0.471   2.567   2.415  0.3262 -0.0949 -0.2363
 8889TIP3    H148158   0.380   2.548   2.439 -0.1143 -1.6930 -2.7691
 8889TIP3    H248159   0.464   2.642   2.355  0.5437 -0.7753 -1.1314
 8890TIP3   OH248160   1.984   3.943  16.292 -0.3438 -0.2220  0.2410
 8890TIP3    H148161   1.931   3.943  16.212 -0.9578 -0.6048  0.6408
 8890TIP3    H248162   2.070   3.910  16.264 -0.8037 -1.1363 -0.0969
 8891TIP3   OH248163   1.812   0.218   6.028  0.1696  0.8572 -0.6180
 8891TIP3    H148164   1.766   0.208   6.111 -0.2344  1.6682 -0.7336
 8891TIP3    H248165   1.862   0.298   6.038  0.5922  0.6344 -0.9427
 8892TIP3   OH248166   6.465   5.644  14.148  0.4891 -0.0886 -0.3261
 8892TIP3    H148167   6.501   5.655  14.236  0.0893  1.2262 -0.3059
 8892TIP3    H248168   6.530   5.685  14.091  0.5447 -0.5626 -0.6088
 8893TIP3   OH248169   3.136   1.973   2.596  0.1699  0.6909 -0.2732
 8893TIP3    H148170   3.232   1.972   2.594  0.1618 -0.4083 -0.6314
 8893TIP3    H248171   3.114   1.979   2.689  0.5985 -0.0731 -0.1099
 8894TIP3   OH248172   2.791   5.666  17.042  0.4262  0.1129  0.0759
 8894TIP3    H148173   2.722   5.733  17.035  1.1436  1.0833  1.6445
 8894TIP3    H248174   2.805   5.657  17.136  1.8461 -0.7003 -0.1953
 8895TIP3   OH248175   0.709   1.002  16.941  0.4114  0.0822 -0.5717
 8895TIP3    H148176   0.687   0.911  16.922  1.1170 -0.1025 -0.5498
 8895TIP3    H248177   0.805   1.004  16.939  0.4241  0.6402  0.2699
 8896TIP3   OH248178   3.926   4.775   3.905 -0.2695 -0.0157 -0.1574
 8896TIP3    H148179   3.914   4.750   3.814  0.2240  0.6072 -0.4041
 8896TIP3    H248180   4.009   4.822   3.906 -0.7027  0.7649  0.4425
 8897TIP3   OH248181   5.029   4.435  12.273  0.1297 -0.4410  0.1585
 8897TIP3    H148182   5.095   4.422  12.205  0.5963 -1.0847  0.7173
 8897TIP3    H248183   5.064   4.504  12.328 -0.7198  0.8147 -0.8024
 8898TIP3   OH248184   0.703   2.992  16.130 -0.1656  0.0810 -0.5623
 8898TIP3    H148185   0.725   2.909  16.173 -0.8946  0.5116  0.6791
 8898TIP3    H248186   0.643   2.967  16.059 -0.5103 -0.4480 -0.0928
 8899TIP3   OH248187   5.126   0.325   4.720  0.0133 -0.2345  0.1476
 8899TIP3    H148188   5.128   0.421   4.727 -0.6487 -0.1537 -0.7032
 8899TIP3    H248189   5.041   0.300   4.756  0.1360 -0.4960  0.2580
 8900TIP3   OH248190   4.206   2.235  12.796 -0.0177 -0.0705  0.1279
 8900TIP3    H148191   4.179   2.321  12.828 -0.4649 -0.4464  0.7901
 8900TIP3    H248192   4.124   2.190  12.776 -0.1219 -1.7832  3.5986
 8901TIP3   OH248193   1.511   3.282  13.097 -0.7269 -0.4930 -0.5489
 8901TIP3    H148194   1.456   3.275  13.019 -0.4589  1.1396 -0.9170
 8901TIP3    H248195   1.596   3.246  13.070 -0.5361  0.3643 -1.1382
 8902TIP3   OH248196   6.484   1.520  15.982  0.5354  0.9823  0.4787
 8902TIP3    H148197   6.528   1.491  16.062 -0.4655 -0.8772  0.4203
 8902TIP3    H248198   6.391   1.525  16.006  0.1138 -0.3223 -0.7000
 8903TIP3   OH248199   6.336   4.707  13.043 -0.6028  0.6785 -0.2380
 8903TIP3    H148200   6.319   4.727  12.951 -1.4865  1.8799  0.1715
 8903TIP3    H248201   6.300   4.619  13.056 -2.3393  1.3265 -0.5410
 8904TIP3   OH248202   1.618   4.305   4.825  0.0487 -0.2091  0.3912
 8904TIP3    H148203   1.608   4.330   4.917 -0.8065  0.0389  0.2414
 8904TIP3    H248204   1.571   4.373   4.777 -2.1101 -1.9140 -0.0442
 8905TIP3   OH248205   2.378   5.255  13.259 -0.5384  0.1950 -0.5972
 8905TIP3    H148206   2.343   5.341  13.236  1.1619  0.9923 -0.3771
 8905TIP3    H248207   2.472   5.270  13.271 -0.6013 -1.1047  2.2660
 8906TIP3   OH248208   2.368   0.640  15.843 -0.0011 -1.1474  0.1101
 8906TIP3    H148209   2.285   0.687  15.832  0.1805 -0.2679  2.0869
 8906TIP3    H248210   2.433   0.695  15.800 -0.3282 -1.5414 -0.9221
 8907TIP3   OH248211   1.346   2.095   3.021 -0.9120 -0.0096  0.3383
 8907TIP3    H148212   1.326   2.172   3.074 -1.2719 -0.2234  0.5163
 8907TIP3    H248213   1.385   2.131   2.941  0.2400  0.2859  0.9994
 8908TIP3   OH248214   3.757   2.896  12.435  0.6873 -0.1586 -0.0561
 8908TIP3    H148215   3.804   2.978  12.449 -1.4476  0.9842  1.0918
 8908TIP3    H248216   3.687   2.919  12.373  0.7928 -1.4387 -0.6815
 8909TIP3   OH248217   2.434   2.350  16.806 -0.5233  0.0184  0.2194
 8909TIP3    H148218   2.371   2.311  16.746  0.8783  1.1776 -2.1334
 8909TIP3    H248219   2.513   2.297  16.794  0.7398  2.1290 -1.4090
 8910TIP3   OH248220   2.435   2.495  12.046 -0.0614 -0.2348  0.0547
 8910TIP3    H148221   2.434   2.522  12.138  0.8368 -0.2952  0.0851
 8910TIP3    H248222   2.360   2.540  12.007  0.6893  1.3691  0.3740
 8911TIP3   OH248223   3.689   4.903  13.307 -0.0698  0.5498  0.2181
 8911TIP3    H148224   3.602   4.930  13.280  0.7585  1.3517 -1.9042
 8911TIP3    H248225   3.697   4.933  13.398 -2.5192 -0.9695  1.0207
 8912TIP3   OH248226   6.272   5.383   2.667 -0.0901 -0.0072 -0.7952
 8912TIP3    H148227   6.363   5.413   2.672  0.3089 -1.3459  0.6992
 8912TIP3    H248228   6.240   5.417   2.583  2.0565 -0.2615 -1.7871
 8913TIP3   OH248229   2.099   6.623   4.134 -0.0191 -0.1737 -0.1904
 8913TIP3    H148230   2.161   6.558   4.101 -0.5794 -0.2990 -1.0207
 8913TIP3    H248231   2.018   6.574   4.147 -0.5246  0.4097 -1.0922
 8914TIP3   OH248232   6.517   6.263  13.473  0.8944  0.0902 -0.4901
 8914TIP3    H148233   6.612   6.255  13.486  0.7714 -0.6964  0.0172
 8914TIP3    H248234   6.500   6.357  13.478  1.5651  0.1959  0.0439
 8915TIP3   OH248235   4.396   0.229   5.201  0.0538  0.3261  0.2204
 8915TIP3    H148236   4.460   0.300   5.205 -1.4618  1.7162  0.9038
 8915TIP3    H248237   4.359   0.224   5.289 -0.0040 -1.2012  0.1319
 8916TIP3   OH248238   5.562   5.555  12.583 -0.5747 -0.1209  0.5519
 8916TIP3    H148239   5.587   5.622  12.646 -3.0691 -0.6188  2.2002
 8916TIP3    H248240   5.612   5.478  12.608 -0.1967  0.1936  0.7672
 8917TIP3   OH248241   2.665   5.334   5.775 -0.0302  0.1246  0.3312
 8917TIP3    H148242   2.738   5.345   5.714 -0.4502 -0.3440 -0.2517
 8917TIP3    H248243   2.632   5.247   5.758  0.0283 -0.1244  1.4352
 8918TIP3   OH248244   0.263   2.297   2.981 -0.1384 -0.0415  0.0378
 8918TIP3    H148245   0.225   2.223   2.933  1.4076 -1.3522  0.7201
 8918TIP3    H248246   0.353   2.302   2.948 -0.1975  1.5314  0.0430
 8919TIP3   OH248247   2.198   3.852  11.584 -0.5221 -0.3016 -0.8105
 8919TIP3    H148248   2.276   3.890  11.542 -0.0080 -0.5046 -0.0529
 8919TIP3    H248249   2.231   3.813  11.664 -1.7227  1.5019  0.6398
 8920TIP3   OH248250   0.006   1.269  13.821 -0.0995 -0.1877 -0.7236
 8920TIP3    H148251  -0.011   1.227  13.905  0.3045 -1.9579 -1.4766
 8920TIP3    H248252   0.009   1.363  13.841  0.2283 -0.5767  1.2493
 8921TIP3   OH248253   0.620   1.911   2.642  0.4297  0.5300  0.2216
 8921TIP3    H148254   0.676   1.835   2.626  1.2890  1.0536  0.6918
 8921TIP3    H248255   0.598   1.944   2.554 -0.0204 -0.3018  0.0158
 8922TIP3   OH248256   1.803   5.529  14.884  0.6461 -0.0192 -0.2813
 8922TIP3    H148257   1.774   5.494  14.800  1.8256 -2.6340  0.3096
 8922TIP3    H248258   1.877   5.585  14.862  0.5784 -0.2170 -1.0458
 8923TIP3   OH248259   5.895   0.436   1.179  0.7272  0.7218  0.2172
 8923TIP3    H148260   5.848   0.366   1.134  0.7160  0.7745  0.1456
 8923TIP3    H248261   5.954   0.391   1.238 -1.3871  0.6371  2.4184
 8924TIP3   OH248262   0.214   2.267   4.715  0.4854 -0.0156  0.3164
 8924TIP3    H148263   0.196   2.273   4.622  1.3467 -2.7550 -0.1010
 8924TIP3    H248264   0.134   2.298   4.758 -1.0749 -1.5349 -1.3616
 8925TIP3   OH248265   4.606   0.469  14.533 -0.2497  0.3855  0.0938
 8925TIP3    H148266   4.547   0.544  14.520 -0.1629  0.2721 -1.0284
 8925TIP3    H248267   4.689   0.509  14.560 -0.4451  0.6373  0.3285
 8926TIP3   OH248268   1.998   2.959  13.006  0.2558 -0.6240 -0.2211
 8926TIP3    H148269   1.941   2.969  13.083 -1.2579  2.4250 -1.5488
 8926TIP3    H248270   1.970   2.878  12.965 -0.6021 -1.0401  1.1165
 8927TIP3   OH248271   0.055   0.189  14.795  0.0557  0.1023 -0.4839
 8927TIP3    H148272   0.112   0.114  14.812 -3.0320 -2.4402 -0.4289
 8927TIP3    H248273   0.015   0.208  14.880 -1.9186 -0.7174 -1.1655
 8928TIP3   OH248274   4.207   6.665  14.519  0.7952 -0.7131  0.5566
 8928TIP3    H148275   4.201   6.702  14.607 -1.9393  1.3773 -0.3571
 8928TIP3    H248276   4.239   6.738  14.465 -0.2233 -1.0839 -0.5813
 8929TIP3   OH248277   4.338   0.218   0.673  0.0488  0.1311 -0.1966
 8929TIP3    H148278   4.332   0.128   0.703 -1.7050 -0.3217 -1.7387
 8929TIP3    H248279   4.310   0.271   0.747  1.5883 -0.5044  0.8955
 8930TIP3   OH248280   5.681   6.267  12.449  0.1982  0.0881 -0.3627
 8930TIP3    H148281   5.638   6.347  12.478  0.8442  1.4770 -2.9300
 8930TIP3    H248282   5.616   6.198  12.464 -1.7209  1.6202 -1.2369
 8931TIP3   OH248283   5.143   5.650   5.569 -0.3879 -0.2752  0.0865
 8931TIP3    H148284   5.207   5.587   5.604 -1.5542 -1.9011 -0.6094
 8931TIP3    H248285   5.130   5.711   5.641  2.5481  0.6447 -0.0170
 8932TIP3   OH248286   1.675   3.875   0.030 -0.0130  0.5077  0.0120
 8932TIP3    H148287   1.690   3.834  -0.055 -0.7450  0.0990  0.0731
 8932TIP3    H248288   1.763   3.890   0.066  0.3041  0.8564 -0.8899
 8933TIP3   OH248289   5.059   5.160   5.359 -0.1805  0.3445  0.0218
 8933TIP3    H148290   5.091   5.085   5.310  0.5622  2.4868 -3.1317
 8933TIP3    H248291   5.139   5.206   5.386 -0.5922  1.0568  0.0443
 8934TIP3   OH248292   0.823   2.712  16.663  0.2444  0.0460  0.1003
 8934TIP3    H148293   0.898   2.734  16.719  0.1606  0.4114  0.0751
 8934TIP3    H248294   0.747   2.720  16.721  0.3166 -1.4960  0.4353
 8935TIP3   OH248295   3.164   0.837   1.235  0.2721  0.3891  0.4277
 8935TIP3    H148296   3.162   0.867   1.144  0.9183 -0.1228  0.2406
 8935TIP3    H248297   3.246   0.872   1.270  0.5678 -0.3466  0.4855
 8936TIP3   OH248298   5.416   5.842  16.065  0.0185  0.3287  0.2402
 8936TIP3    H148299   5.431   5.922  16.115  0.5199  0.8612 -0.7229
 8936TIP3    H248300   5.415   5.871  15.974 -0.4829 -0.6696 -0.0821
 8937TIP3   OH248301   4.195   5.692  11.256 -0.2642  0.1681 -0.1169
 8937TIP3    H148302   4.220   5.600  11.252 -0.3526  0.0018  2.0935
 8937TIP3    H248303   4.123   5.695  11.319 -0.2006  1.7545 -0.0783
 8938TIP3   OH248304   0.932   1.866   5.282  0.0241 -0.8541  0.8109
 8938TIP3    H148305   0.913   1.958   5.298  0.3673 -1.0508  2.5566
 8938TIP3    H248306   0.866   1.839   5.217 -0.4135  0.4691  0.6730
 8939TIP3   OH248307   2.133   4.659  16.998 -0.0061  0.7547 -0.5549
 8939TIP3    H148308   2.114   4.649  16.905  0.7981 -1.2057 -0.5476
 8939TIP3    H248309   2.228   4.646  17.005 -0.4057 -2.2782  0.8242
 8940TIP3   OH248310   6.129   1.309  16.321  0.2052 -0.6934  0.1191
 8940TIP3    H148311   6.216   1.271  16.309 -0.1671 -1.0274 -1.7793
 8940TIP3    H248312   6.069   1.238  16.299 -0.5161  0.2283 -0.9645
 8941TIP3   OH248313   5.302   5.133   0.081 -0.4185  0.3249  0.2578
 8941TIP3    H148314   5.383   5.134   0.030 -0.7980 -1.3482 -0.4501
 8941TIP3    H248315   5.232   5.134   0.015 -0.9231 -2.2521  0.6531
 8942TIP3   OH248316   3.336   3.131   4.594  0.3500  0.1068  0.5961
 8942TIP3    H148317   3.333   3.116   4.688  0.5620 -0.3273  0.5358
 8942TIP3    H248318   3.245   3.119   4.565  0.4312 -0.6138  0.6211
 8943TIP3   OH248319   2.098   6.408  15.440 -0.0234 -0.3075  0.6806
 8943TIP3    H148320   2.192   6.423  15.447  0.2610 -2.0510  1.0133
 8943TIP3    H248321   2.060   6.461  15.510  0.7986 -0.2326  1.0761
 8944TIP3   OH248322   3.212   2.783  13.194  0.3323 -0.2151 -0.0694
 8944TIP3    H148323   3.184   2.700  13.155 -1.6730  0.0359  0.6983
 8944TIP3    H248324   3.178   2.850  13.134 -0.4216  0.0954  0.6834
 8945TIP3   OH248325   5.142   6.744  12.234 -0.5590  0.0901 -0.3401
 8945TIP3    H148326   5.181   6.702  12.311 -0.0960 -1.2757 -1.2783
 8945TIP3    H248327   5.123   6.671  12.175 -0.8246  1.1225 -1.5587
 8946TIP3   OH248328   6.152   1.681   6.437  0.3170 -0.5375  0.1542
 8946TIP3    H148329   6.177   1.753   6.495  2.8255 -2.0406  1.0827
 8946TIP3    H248330   6.060   1.663   6.459  0.3630  0.7698  1.6022
 8947TIP3   OH248331   1.915   4.915   2.214  0.2949  0.0189  0.1375
 8947TIP3    H148332   1.834   4.889   2.170  0.1423 -0.7707  0.8787
 8947TIP3    H248333   1.921   4.858   2.290  0.9099  0.9183  0.7820
 8948TIP3   OH248334   3.768   2.812  14.118  0.0099  0.2057  0.4191
 8948TIP3    H148335   3.827   2.737  14.119 -1.1653 -0.7706 -0.1504
 8948TIP3    H248336   3.790   2.862  14.197  0.7742 -0.7782  0.8421
 8949TIP3   OH248337   5.095   5.196   6.031  0.0660 -0.1397 -0.2233
 8949TIP3    H148338   5.018   5.207   6.087 -0.1834 -0.5171 -0.4916
 8949TIP3    H248339   5.101   5.102   6.015 -0.1991  0.0079 -1.2863
 8950TIP3   OH248340   0.482   2.070   2.895 -0.2720 -0.4910  0.3265
 8950TIP3    H148341   0.509   2.020   2.817  1.7919 -0.1994  0.7764
 8950TIP3    H248342   0.497   2.161   2.870 -0.7211 -0.3193  0.6835
 8951TIP3   OH248343   6.815   0.322   2.332 -0.9871 -0.0725  0.0389
 8951TIP3    H148344   6.848   0.243   2.291 -1.6641  0.4444 -1.5697
 8951TIP3    H248345   6.739   0.293   2.382  0.5693 -0.9165  2.0810
 8952TIP3   OH248346   2.222   0.387   3.850  0.1598 -0.1106  0.1896
 8952TIP3    H148347   2.189   0.325   3.785  0.3828  0.6918 -0.7057
 8952TIP3    H248348   2.143   0.420   3.893  0.0651 -1.3891  1.0494
 8953TIP3   OH248349   4.729   2.879   5.865  0.4413 -0.4523  0.2469
 8953TIP3    H148350   4.801   2.921   5.913  0.1755  0.6674 -0.2945
 8953TIP3    H248351   4.771   2.835   5.791  0.5371  0.6573 -0.3769
 8954TIP3   OH248352   2.051   1.717   4.703 -0.2626  0.0143 -0.3719
 8954TIP3    H148353   2.048   1.628   4.668 -1.1136  0.6118 -1.9071
 8954TIP3    H248354   2.031   1.706   4.796 -0.7434 -1.3674 -0.6033
 8955TIP3   OH248355   0.951   3.907  12.753 -0.0270  0.1200 -0.3622
 8955TIP3    H148356   0.898   3.931  12.677 -0.0432  0.9064 -0.1165
 8955TIP3    H248357   0.953   3.812  12.752 -0.7011  0.1005 -0.8896
 8956TIP3   OH248358   5.273   4.931   0.621 -0.3775  0.0155 -0.0151
 8956TIP3    H148359   5.205   4.895   0.678  0.3143 -0.2544  0.6670
 8956TIP3    H248360   5.343   4.865   0.622  0.6769  1.0920  0.8008
 8957TIP3   OH248361   0.879   6.209   2.557  0.2645  0.2683  0.1944
 8957TIP3    H148362   0.944   6.170   2.499  0.7578 -1.7098  1.9389
 8957TIP3    H248363   0.805   6.147   2.555  0.3271  0.1045  1.6760
 8958TIP3   OH248364   2.315   6.227  15.689 -0.0544  0.1302 -0.2515
 8958TIP3    H148365   2.226   6.208  15.721  0.0316  0.6282  0.3038
 8958TIP3    H248366   2.321   6.322  15.691 -0.2459  0.2306 -2.3499
 8959TIP3   OH248367   1.319   1.382  10.785 -0.1130  0.6263  0.2562
 8959TIP3    H148368   1.379   1.336  10.728  0.8710  0.6959  1.2131
 8959TIP3    H248369   1.242   1.400  10.730  0.8816  0.8771 -1.0966
 8960TIP3   OH248370   4.691   6.218  13.812 -0.2632  0.4020 -0.0872
 8960TIP3    H148371   4.679   6.123  13.802 -1.0650  0.6558 -1.7625
 8960TIP3    H248372   4.757   6.240  13.746  0.3191  0.9543  0.6597
 8961TIP3   OH248373   0.606   5.562   5.359  0.0272 -0.2784  0.7911
 8961TIP3    H148374   0.512   5.555   5.348  0.0725  0.6833 -0.5865
 8961TIP3    H248375   0.621   5.656   5.376  0.7466 -0.3938  0.8361
 8962TIP3   OH248376   1.435   6.612  14.605 -0.5717 -0.7167 -0.1706
 8962TIP3    H148377   1.356   6.645  14.648 -0.4119  0.0884 -0.4818
 8962TIP3    H248378   1.496   6.685  14.609  1.5744 -2.4513  3.4749
 8963TIP3   OH248379   0.853   1.470  17.204 -0.0868  0.6512  0.2314
 8963TIP3    H148380   0.917   1.478  17.275  1.5811 -0.1287 -1.0920
 8963TIP3    H248381   0.866   1.548  17.151 -0.5861  0.7300  0.2257
 8964TIP3   OH248382   1.265   5.356  13.252 -0.1841 -0.1074 -0.5009
 8964TIP3    H148383   1.284   5.301  13.329 -0.5540 -0.6164 -0.7736
 8964TIP3    H248384   1.221   5.433  13.288  0.4166  0.0587 -0.1054
 8965TIP3   OH248385   5.855   6.257  10.856 -0.2244  0.2184  0.1391
 8965TIP3    H148386   5.804   6.199  10.800  0.4955  1.4296 -1.8862
 8965TIP3    H248387   5.946   6.231  10.843 -0.0440  0.4155  0.9003
 8966TIP3   OH248388   1.747   2.399  13.096 -0.0989 -0.5439  0.2609
 8966TIP3    H148389   1.700   2.437  13.022  0.9324 -1.0111 -0.6703
 8966TIP3    H248390   1.838   2.424  13.082 -0.0599  0.5474  2.1577
 8967TIP3   OH248391   0.028   0.723   4.600 -0.2240 -0.3658 -0.5725
 8967TIP3    H148392   0.081   0.771   4.536 -2.5550  1.0101 -1.6019
 8967TIP3    H248393   0.086   0.654   4.633  1.3836 -0.5297 -3.4563
 8968TIP3   OH248394   3.929   5.287   0.997 -0.1215  0.2300  0.0798
 8968TIP3    H148395   4.021   5.268   1.013  0.2215  0.9375 -0.8885
 8968TIP3    H248396   3.906   5.353   1.062 -0.0884 -0.3010  0.6337
 8969TIP3   OH248397   3.694   0.790  15.424  0.2913  0.9133 -0.0153
 8969TIP3    H148398   3.707   0.696  15.414  0.1256  0.9233 -0.3322
 8969TIP3    H248399   3.604   0.805  15.395  0.0961  1.0740  0.6678
 8970TIP3   OH248400   0.521   3.657  16.733 -0.0850 -0.8161  0.3122
 8970TIP3    H148401   0.465   3.678  16.658  0.5511 -0.1423  0.0197
 8970TIP3    H248402   0.568   3.578  16.705  0.4559 -0.3345 -0.1771
 8971TIP3   OH248403   1.477   6.201  12.321 -0.1516 -0.6529  0.6165
 8971TIP3    H148404   1.443   6.146  12.392 -0.1868 -0.2521  0.9121
 8971TIP3    H248405   1.468   6.147  12.243 -1.3626 -0.6195  0.7037
 8972TIP3   OH248406   6.735   6.546  11.622  0.0199  0.2362 -0.2278
 8972TIP3    H148407   6.801   6.514  11.683 -0.4672  2.3103  1.5071
 8972TIP3    H248408   6.753   6.639  11.613 -2.2715  0.7437 -0.1881
 8973TIP3   OH248409   5.832   0.599  12.353  0.5583 -0.5852  0.0371
 8973TIP3    H148410   5.912   0.597  12.406  1.2701  1.2697 -0.8992
 8973TIP3    H248411   5.769   0.547  12.403  1.6133 -0.0546  2.0087
 8974TIP3   OH248412   0.820   2.229  15.128 -0.6361 -0.2971  0.2596
 8974TIP3    H148413   0.910   2.255  15.149 -1.2956  2.4726  0.0154
 8974TIP3    H248414   0.784   2.198  15.211  0.3639 -0.9265  0.4767
 8975TIP3   OH248415   0.610   2.177  13.410 -0.6040  0.0001  0.5388
 8975TIP3    H148416   0.575   2.201  13.495 -0.1867 -0.4482  0.8438
 8975TIP3    H248417   0.541   2.200  13.348 -1.4746 -0.9440  1.1225
 8976TIP3   OH248418   2.784   0.655   3.152  0.2295 -0.1033 -0.1227
 8976TIP3    H148419   2.718   0.585   3.148 -2.3204  2.0439  1.2661
 8976TIP3    H248420   2.852   0.621   3.210 -0.7221 -1.5633  0.1926
 8977TIP3   OH248421   0.748   5.114  12.721 -0.3911  0.2280  0.0794
 8977TIP3    H148422   0.777   5.149  12.637 -0.0731  0.0333  0.1066
 8977TIP3    H248423   0.695   5.184  12.760  0.3347  0.7288  0.1864
 8978TIP3   OH248424   2.873   6.235  15.676 -0.1170  0.0327  0.1229
 8978TIP3    H148425   2.791   6.187  15.688  0.5057 -0.8593  0.9694
 8978TIP3    H248426   2.941   6.175  15.709  1.0115  0.2609 -1.6756
 8979TIP3   OH248427   6.050   1.986   2.890  0.4929  0.4609  0.5711
 8979TIP3    H148428   6.048   1.955   2.799  2.0484 -0.5679  0.8375
 8979TIP3    H248429   6.135   1.956   2.923 -0.0254  0.8557  2.3590
 8980TIP3   OH248430   5.931   2.960  16.599 -0.0879 -0.3196 -0.4990
 8980TIP3    H148431   5.940   2.906  16.520 -0.1300 -2.3781  0.8336
 8980TIP3    H248432   5.945   2.899  16.671 -1.3325  1.2408  1.1344
 8981TIP3   OH248433   3.818   4.805  15.094  0.2875 -0.3075 -0.6251
 8981TIP3    H148434   3.801   4.776  15.184 -0.0554  2.3263  0.2382
 8981TIP3    H248435   3.910   4.831  15.095  0.1274  0.2662 -0.8874
 8982TIP3   OH248436   3.816   3.425  10.778 -0.2631 -0.5199  0.1133
 8982TIP3    H148437   3.742   3.447  10.834 -0.7805 -0.6767 -0.4994
 8982TIP3    H248438   3.813   3.329  10.771  0.7333 -0.6452  1.0679
 8983TIP3   OH248439   3.232   3.686  12.814  0.1375  0.4259 -0.3896
 8983TIP3    H148440   3.217   3.779  12.828  0.9368  0.2638  1.8485
 8983TIP3    H248441   3.299   3.682  12.746  0.0921  1.4645 -0.5074
 8984TIP3   OH248442   2.550   5.803  17.012 -0.4503 -0.0473 -0.3216
 8984TIP3    H148443   2.486   5.800  17.082  0.5873 -0.4119  0.6345
 8984TIP3    H248444   2.510   5.859  16.945 -1.0105  1.2129  1.0082
 8985TIP3   OH248445   2.928   0.862   0.263  0.1096 -0.0700 -0.0921
 8985TIP3    H148446   3.009   0.859   0.212 -0.5237 -0.6066 -1.0949
 8985TIP3    H248447   2.871   0.799   0.221 -0.7826  0.1703  0.7174
 8986TIP3   OH248448   6.799   3.690   1.351  0.0760 -0.1366  0.5627
 8986TIP3    H148449   6.774   3.752   1.283 -0.7451 -2.2491 -1.2108
 8986TIP3    H248450   6.735   3.703   1.421  0.0810  1.1517  0.3363
 8987TIP3   OH248451   2.217   4.762   5.979 -0.1726  0.0854  0.0115
 8987TIP3    H148452   2.132   4.718   5.981 -0.2356  0.0478 -1.8201
 8987TIP3    H248453   2.211   4.828   6.048 -1.7473  0.1526 -0.1322
 8988TIP3   OH248454   4.431   6.323   2.535 -0.1526  0.0919 -0.1656
 8988TIP3    H148455   4.442   6.248   2.476  1.5066  0.5515 -0.4968
 8988TIP3    H248456   4.505   6.318   2.595 -1.0053  0.4761  0.9474
 8989TIP3   OH248457   2.016   4.100  14.279 -0.4824  0.3879  0.4316
 8989TIP3    H148458   1.935   4.119  14.231 -1.3300 -2.8719  0.3309
 8989TIP3    H248459   1.995   4.022  14.330  2.8164 -1.0331 -0.1677
 8990TIP3   OH248460   0.934   4.711   2.057 -0.6196 -0.5520 -0.5494
 8990TIP3    H148461   0.934   4.620   2.088  0.2788 -0.1965  0.5746
 8990TIP3    H248462   0.855   4.718   2.004 -1.4794 -1.5997  0.5207
 8991TIP3   OH248463   3.063   1.268   5.143  0.0238  0.7005  0.0821
 8991TIP3    H148464   3.057   1.210   5.219  1.3309  1.8103  1.0880
 8991TIP3    H248465   3.115   1.342   5.174  0.5072  1.2322 -1.8729
 8992TIP3   OH248466   1.626   2.191  12.624  0.1561  0.7940  0.3267
 8992TIP3    H148467   1.679   2.151  12.693 -1.0491  0.8831  1.3548
 8992TIP3    H248468   1.581   2.117  12.582 -2.2616  0.9357  2.3874
 8993TIP3   OH248469   2.792   2.542   4.183  0.1471 -0.3421  0.2584
 8993TIP3    H148470   2.734   2.548   4.107 -0.5433 -0.0567  0.7966
 8993TIP3    H248471   2.757   2.468   4.234  0.7140 -0.6456  0.2172
 8994TIP3   OH248472   1.977   3.268  12.271 -0.4128  0.1627  0.2396
 8994TIP3    H148473   1.928   3.340  12.310 -2.0070  0.6742 -2.4159
 8994TIP3    H248474   1.917   3.231  12.206  1.3559 -1.8212 -0.3862
 8995TIP3   OH248475   3.513   6.458   5.338  0.3815  0.1628  0.5751
 8995TIP3    H148476   3.500   6.551   5.321 -2.2101 -0.3494 -0.7616
 8995TIP3    H248477   3.540   6.421   5.254 -0.0228 -0.5160  0.7343
 8996TIP3   OH248478   0.403   4.910  15.821  0.1317 -0.1415 -0.1076
 8996TIP3    H148479   0.416   4.939  15.731  0.4078  2.4228  0.6812
 8996TIP3    H248480   0.443   4.978  15.875 -1.2321 -0.8911  2.0077
 8997TIP3   OH248481   2.876   4.170   1.783  0.3985 -0.3527 -0.1857
 8997TIP3    H148482   2.836   4.094   1.827 -1.4056 -0.3979 -1.7462
 8997TIP3    H248483   2.803   4.230   1.770  1.4208  0.7917 -0.7607
 8998TIP3   OH248484   3.837   6.293  14.302  0.1209 -0.8763 -0.3622
 8998TIP3    H148485   3.896   6.311  14.375  0.9457 -2.4295 -0.6097
 8998TIP3    H248486   3.750   6.287  14.343  0.3541 -0.2273  0.2495
 8999TIP3   OH248487   4.000   1.575   4.204 -0.1819  0.6766 -0.3702
 8999TIP3    H148488   4.027   1.638   4.138  0.1573  1.1761  0.2316
 8999TIP3    H248489   3.913   1.604   4.232 -0.6252  0.0604 -1.0875
 9000TIP3   OH248490   5.318   4.712   5.136 -0.7978 -0.3237 -0.2001
 9000TIP3    H148491   5.387   4.692   5.200 -0.2677  1.7568 -0.0434
 9000TIP3    H248492   5.300   4.629   5.093 -0.4515 -1.6008  1.9454
 9001TIP3   OH248493   4.112   1.453   5.795 -0.1069  0.4988  0.3123
 9001TIP3    H148494   4.109   1.526   5.733  0.4297  1.4107  1.3310
 9001TIP3    H248495   4.141   1.378   5.742 -0.5075  1.0479 -0.7120
 9002TIP3   OH248496   1.819   0.326   4.880  0.3241 -0.1326 -0.1140
 9002TIP3    H148497   1.732   0.288   4.871  0.5999 -0.5470 -1.2470
 9002TIP3    H248498   1.871   0.257   4.922  0.1176  0.1090  0.5471
 9003TIP3   OH248499   2.115   0.513  14.712 -0.4571  0.5257  0.2503
 9003TIP3    H148500   2.073   0.491  14.795  1.7566  1.8715  1.8310
 9003TIP3    H248501   2.150   0.430  14.680 -1.5228 -0.0444  0.5363
 9004TIP3   OH248502   0.494   4.152   6.207 -0.2080  0.2638 -0.0354
 9004TIP3    H148503   0.413   4.140   6.157 -0.1959  0.3365 -0.0723
 9004TIP3    H248504   0.464   4.171   6.296 -0.2500  1.2971 -0.2630
 9005TIP3   OH248505   6.264   0.258   3.830  0.4618  0.4756  0.1301
 9005TIP3    H148506   6.267   0.294   3.918  0.9254  0.1688  0.2452
 9005TIP3    H248507   6.244   0.333   3.774 -1.0035  0.4679  0.6019
 9006TIP3   OH248508   3.531   3.881   4.175  0.1770 -0.1472 -0.4059
 9006TIP3    H148509   3.606   3.846   4.223 -1.7076 -0.3104  2.6171
 9006TIP3    H248510   3.507   3.811   4.114  2.5322  0.0182 -1.6735
 9007TIP3   OH248511   1.143   3.067  10.284  0.2900 -0.3434 -0.5302
 9007TIP3    H148512   1.106   2.979  10.297 -0.6915  0.2619  1.1466
 9007TIP3    H248513   1.218   3.070  10.344  0.6042 -0.1723 -0.9242
 9008TIP3   OH248514   2.866   4.250   0.096  0.5054  0.1594  0.2440
 9008TIP3    H148515   2.878   4.156   0.106 -0.2741 -0.0052 -0.2775
 9008TIP3    H248516   2.773   4.264   0.115  0.7208  0.8908  0.7873
 9009TIP3   OH248517   5.496   0.632  14.226 -0.2436 -0.3295 -0.2364
 9009TIP3    H148518   5.401   0.624  14.218 -0.1052 -0.5634 -2.1857
 9009TIP3    H248519   5.529   0.608  14.140  1.4668  1.7430 -0.2392
 9010TIP3   OH248520   2.578   1.069   4.732  0.1771  0.2430 -0.0086
 9010TIP3    H148521   2.518   1.141   4.750  0.0652  0.0654  0.3308
 9010TIP3    H248522   2.662   1.098   4.767 -0.3229 -0.6393  2.0447
 9011TIP3   OH248523   6.786   6.140   5.313  0.4337 -0.5791  0.1973
 9011TIP3    H148524   6.757   6.200   5.245  2.1673 -0.1803 -0.2169
 9011TIP3    H248525   6.704   6.103   5.347 -0.6281  1.2301 -0.2179
 9012TIP3   OH248526   2.634   4.864   0.213  0.2570  0.0811  0.3619
 9012TIP3    H148527   2.718   4.908   0.201 -0.3918  1.7152  1.5558
 9012TIP3    H248528   2.576   4.931   0.248 -1.8849 -0.6844 -1.4236
 9013TIP3   OH248529   4.210   0.418   3.232  0.3218 -0.2746  0.1867
 9013TIP3    H148530   4.138   0.361   3.205  1.3603 -1.2980 -0.5036
 9013TIP3    H248531   4.200   0.426   3.327  0.0362 -1.4441  0.2683
 9014TIP3   OH248532   2.550   3.023  14.840  0.2566  0.3511 -0.0675
 9014TIP3    H148533   2.521   2.951  14.783 -0.8373  0.8455 -0.1624
 9014TIP3    H248534   2.494   3.016  14.917  1.5415 -0.1383  0.8606
 9015TIP3   OH248535   4.421   6.632   1.851 -0.2992  0.2896 -0.1285
 9015TIP3    H148536   4.400   6.643   1.944  0.9352  1.6092  0.0316
 9015TIP3    H248537   4.371   6.701   1.807 -0.4955 -0.0150 -0.3826
 9016TIP3   OH248538   4.377   0.418   2.486 -0.1904 -0.2334  0.0782
 9016TIP3    H148539   4.317   0.455   2.550  0.5482 -0.8989  1.2038
 9016TIP3    H248540   4.321   0.374   2.423 -0.9066 -0.5926  0.9429
 9017TIP3   OH248541   3.552   4.019  15.266 -0.5597  0.6693 -0.2987
 9017TIP3    H148542   3.619   4.055  15.208 -1.0171 -0.0274 -1.2891
 9017TIP3    H248543   3.556   3.925  15.252 -1.4529  0.5794 -0.0547
 9018TIP3   OH248544   5.740   2.108   3.813  0.5550 -0.3496  0.2918
 9018TIP3    H148545   5.662   2.154   3.843 -0.4845 -0.6850 -1.7153
 9018TIP3    H248546   5.779   2.167   3.748  0.9947 -0.9324  0.0208
 9019TIP3   OH248547   1.741   6.663  17.047  0.1423  0.0728 -0.3648
 9019TIP3    H148548   1.825   6.647  17.089 -0.4692 -2.9972 -0.0345
 9019TIP3    H248549   1.701   6.733  17.099  2.1705  1.1482 -0.1517
 9020TIP3   OH248550   2.745   0.519   1.784  0.5594 -0.1778  0.0417
 9020TIP3    H148551   2.834   0.504   1.753  0.9163  2.4227 -0.3859
 9020TIP3    H248552   2.752   0.595   1.842 -1.6884  1.7762 -2.0181
 9021TIP3   OH248553   1.061   2.670  11.199  0.0066 -0.3498 -0.3370
 9021TIP3    H148554   0.993   2.608  11.228 -1.4938  0.8619 -1.1020
 9021TIP3    H248555   1.051   2.745  11.257  1.6563 -0.6823  0.4266
 9022TIP3   OH248556   3.195   1.014  11.183 -0.5933 -0.1469  0.8245
 9022TIP3    H148557   3.171   1.079  11.248 -0.2045  0.7572  0.0824
 9022TIP3    H248558   3.196   1.062  11.100  0.4491 -0.9193  0.3676
 9023TIP3   OH248559   1.334   3.969  16.341  0.2985  0.4120 -0.4764
 9023TIP3    H148560   1.280   4.039  16.305 -1.2077 -0.7787 -0.6412
 9023TIP3    H248561   1.300   3.889  16.301  0.1082 -0.7181  1.7340
 9024TIP3   OH248562   4.454   2.811  13.134  0.0223 -0.3122  0.3447
 9024TIP3    H148563   4.499   2.873  13.191  1.1053  2.7039 -3.3820
 9024TIP3    H248564   4.521   2.747  13.110 -0.5467 -1.8615  2.5099
 9025TIP3   OH248565   6.694   3.732   3.706 -0.1833 -0.1129  0.4494
 9025TIP3    H148566   6.775   3.685   3.688 -0.3068 -0.8136  1.6401
 9025TIP3    H248567   6.652   3.741   3.620  0.8053 -0.3745 -0.0724
 9026TIP3   OH248568   5.781   1.901  11.600 -0.2207  0.2938  0.5282
 9026TIP3    H148569   5.858   1.934  11.647 -0.2614 -2.2556  2.6329
 9026TIP3    H248570   5.764   1.966  11.533  2.1903  2.2588  1.6657
 9027TIP3   OH248571   2.555   1.060  11.691  0.0090 -0.4479  0.0749
 9027TIP3    H148572   2.622   0.993  11.679  0.3710  0.2969 -2.9416
 9027TIP3    H248573   2.556   1.080  11.785  0.8288 -3.6214  0.8362
 9028TIP3   OH248574   3.758   5.494  12.825  0.1217 -0.0944  0.1799
 9028TIP3    H148575   3.853   5.505  12.831 -0.0928  3.2913 -0.5595
 9028TIP3    H248576   3.726   5.516  12.913  0.0169 -2.4148  0.7795
 9029TIP3   OH248577   2.672   4.906  11.894  0.6388 -0.4569  0.0178
 9029TIP3    H148578   2.693   4.892  11.986 -0.2385  1.8628  0.6402
 9029TIP3    H248579   2.742   4.964  11.862 -1.2198  2.1970  0.4383
 9030TIP3   OH248580   5.826   0.314  15.740 -0.2469  0.4001  0.4638
 9030TIP3    H148581   5.776   0.239  15.707  0.6361  0.5661 -1.3730
 9030TIP3    H248582   5.818   0.380  15.671 -0.4217  1.7732  1.7330
 9031TIP3   OH248583   3.104   3.527  15.954  0.2907  0.7967  0.2307
 9031TIP3    H148584   3.049   3.599  15.924  1.6782  1.8113  0.0062
 9031TIP3    H248585   3.181   3.571  15.992  1.7520 -0.5733 -1.0390
 9032TIP3   OH248586   0.107   0.915   5.063  0.2799 -0.3762 -0.2695
 9032TIP3    H148587   0.127   0.869   5.144  2.3928 -1.1363 -1.1501
 9032TIP3    H248588   0.113   1.008   5.086 -4.0621 -0.2699  1.5338
 9033TIP3   OH248589   4.779   3.835   0.658  0.5116  0.4498 -0.0296
 9033TIP3    H148590   4.802   3.753   0.614 -0.0444 -0.1026  0.6722
 9033TIP3    H248591   4.688   3.851   0.633 -0.3396 -0.6758  2.0106
 9034TIP3   OH248592   3.422   5.219  16.497  0.5180 -0.4034 -0.0079
 9034TIP3    H148593   3.410   5.314  16.507  1.4282 -0.4072  1.3868
 9034TIP3    H248594   3.370   5.181  16.568  0.7674 -0.9121 -0.0968
 9035TIP3   OH248595   5.230   5.671   4.562  0.3502 -0.0267 -0.1973
 9035TIP3    H148596   5.250   5.713   4.645  2.5664  2.9967 -2.0391
 9035TIP3    H248597   5.279   5.589   4.564  0.2272 -0.0924  1.4947
 9036TIP3   OH248598   3.624   5.880  15.127 -0.0064  0.2572 -0.4588
 9036TIP3    H148599   3.576   5.839  15.054 -1.5150  2.8485 -1.0231
 9036TIP3    H248600   3.567   5.867  15.203  0.9834 -1.3360  0.0607
 9037TIP3   OH248601   4.775   1.784  12.478 -0.0102 -0.6948 -0.1136
 9037TIP3    H148602   4.811   1.867  12.447 -0.1160 -0.0401  1.4143
 9037TIP3    H248603   4.780   1.725  12.402  1.8330  0.1434 -0.7016
 9038TIP3   OH248604   1.064   1.374   5.685  0.5798 -0.1059 -0.4922
 9038TIP3    H148605   1.105   1.400   5.767 -1.0118 -0.0834  0.3144
 9038TIP3    H248606   1.092   1.440   5.622  1.3862  0.1729  0.1401
 9039TIP3   OH248607   1.203   4.412   5.403 -0.7513  1.1279 -0.0182
 9039TIP3    H148608   1.248   4.487   5.364  0.2085  1.3374  1.4056
 9039TIP3    H248609   1.250   4.335   5.369 -1.4205  1.1829 -1.0909
 9040TIP3   OH248610   5.525   2.209   3.958 -0.2823  0.1470 -0.0054
 9040TIP3    H148611   5.447   2.263   3.969  0.2827  0.7804  1.0795
 9040TIP3    H248612   5.491   2.122   3.934 -1.2319  0.7770 -1.0498
 9041TIP3   OH248613   6.560   6.057  11.432 -0.3218 -0.4015 -0.3289
 9041TIP3    H148614   6.609   6.137  11.419 -2.2062  0.6808 -1.2839
 9041TIP3    H248615   6.546   6.023  11.343  0.3227 -1.7364  0.0480
 9042TIP3   OH248616   3.974   5.455  11.576  0.1838  0.3792  0.3961
 9042TIP3    H148617   3.909   5.400  11.533  1.1322 -0.5203  0.0683
 9042TIP3    H248618   3.923   5.524  11.619 -1.1690 -1.4442  1.8893
 9043TIP3   OH248619   2.015   2.837   2.622  0.7254 -0.4358  0.7973
 9043TIP3    H148620   2.036   2.786   2.700  0.2122 -1.6373  0.1731
 9043TIP3    H248621   2.048   2.784   2.549  0.7175  0.4125  0.1573
 9044TIP3   OH248622   4.950   0.820   4.804 -0.3117 -0.3748 -0.6726
 9044TIP3    H148623   5.019   0.875   4.840 -0.2013  0.0071 -1.4448
 9044TIP3    H248624   4.894   0.879   4.755 -0.5091 -0.8609 -1.0484
 9045TIP3   OH248625   1.927   6.247  11.496  0.5383  0.2743 -0.6065
 9045TIP3    H148626   1.884   6.275  11.415  1.2764  1.8733 -0.4877
 9045TIP3    H248627   1.972   6.326  11.528  1.6857 -0.7545  0.4429
 9046TIP3   OH248628   5.632   3.977  14.292  0.6227  0.0885 -0.0327
 9046TIP3    H148629   5.627   3.909  14.224  0.9188 -0.0034  0.0339
 9046TIP3    H248630   5.632   3.928  14.374 -0.2876  0.2247  0.0561
 9047TIP3   OH248631   1.308   3.317  14.027 -0.1613  0.3800 -0.6774
 9047TIP3    H148632   1.331   3.362  13.946 -1.1340  0.5687 -0.8615
 9047TIP3    H248633   1.257   3.381  14.076 -3.2647 -1.0341 -1.7703
 9048TIP3   OH248634   6.622   5.202  13.766  0.6142  0.3247  0.0532
 9048TIP3    H148635   6.684   5.235  13.831  0.1746  0.4530  0.4173
 9048TIP3    H248636   6.664   5.217  13.681  0.1029  2.5886  0.1455
 9049TIP3   OH248637   0.494   2.608  12.543  0.3201 -0.2701 -0.3668
 9049TIP3    H148638   0.570   2.551  12.530 -0.5425 -1.0655 -2.1299
 9049TIP3    H248639   0.500   2.672  12.472 -1.2594 -1.0551 -1.2557
 9050TIP3   OH248640   0.544   1.073   4.959  0.3105 -0.6253  0.3374
 9050TIP3    H148641   0.506   1.149   5.004  0.5199  0.6939 -1.5537
 9050TIP3    H248642   0.620   1.108   4.913  0.7225 -2.1175 -0.1779
 9051TIP3   OH248643   1.005   0.102  15.273 -0.5245  0.4507  0.4299
 9051TIP3    H148644   0.951   0.166  15.319  0.3233  0.4228  1.4903
 9051TIP3    H248645   1.079   0.153  15.240 -1.3448  0.5673 -1.3655
 9052TIP3   OH248646   4.885   1.670   1.708  0.0071  0.2709  0.7872
 9052TIP3    H148647   4.799   1.695   1.674  1.1990  2.1499 -1.0840
 9052TIP3    H248648   4.923   1.614   1.641  0.8468  0.7844  0.8112
 9053TIP3   OH248649   1.752   4.717  16.040  0.9484 -0.4570  0.1461
 9053TIP3    H148650   1.739   4.649  15.973 -1.9214 -1.1783  1.2994
 9053TIP3    H248651   1.718   4.797  16.000  1.7138 -0.2924 -0.1921
 9054TIP3   OH248652   3.459   6.377   4.242  0.0596  0.3312 -0.4049
 9054TIP3    H148653   3.552   6.379   4.264 -0.0028  0.5197 -0.1621
 9054TIP3    H248654   3.415   6.410   4.320 -0.2309 -0.0248 -0.4126
 9055TIP3   OH248655   5.078   3.336  15.322 -0.2398  0.2682  0.1104
 9055TIP3    H148656   5.080   3.250  15.280 -0.1160  0.2733  0.1040
 9055TIP3    H248657   5.081   3.316  15.416  1.7187  0.3046  0.0919
 9056TIP3   OH248658   0.151   1.082  12.324  0.0406  0.1154  0.0777
 9056TIP3    H148659   0.207   1.026  12.270  0.2962 -0.6672  1.1167
 9056TIP3    H248660   0.099   1.132  12.261  0.4139 -0.6760 -0.8881
 9057TIP3   OH248661   0.007   1.597  15.969 -0.5989 -0.2586 -0.2974
 9057TIP3    H148662  -0.045   1.558  15.899 -0.6885 -1.2670  0.3092
 9057TIP3    H248663  -0.057   1.629  16.032 -0.5053  0.1489 -0.4032
 9058TIP3   OH248664   2.883   0.853   2.048 -0.2356 -0.3517  0.1276
 9058TIP3    H148665   2.923   0.827   1.965 -0.9010  0.7799 -0.5740
 9058TIP3    H248666   2.948   0.909   2.090 -0.2148 -0.2796 -0.0016
 9059TIP3   OH248667   6.606   4.044  13.575 -0.4281  0.8349 -0.2391
 9059TIP3    H148668   6.679   4.105  13.589  0.2865 -0.4383  2.0874
 9059TIP3    H248669   6.532   4.087  13.616 -0.3803  0.9846 -0.3083
 9060TIP3   OH248670   4.726   0.756  16.651 -0.2379 -0.2154 -0.0210
 9060TIP3    H148671   4.637   0.760  16.685 -0.3677  0.0117 -0.3853
 9060TIP3    H248672   4.716   0.747  16.556  0.1238 -1.0423  0.0090
 9061TIP3   OH248673   5.926   0.352  17.210 -0.8513  0.4525  0.0629
 9061TIP3    H148674   5.918   0.444  17.234 -1.4236  0.3364  0.3476
 9061TIP3    H248675   5.887   0.304  17.284 -1.0542  0.0113 -0.3209
 9062TIP3   OH248676   6.576   3.015   3.936 -0.0205 -0.2866  0.0449
 9062TIP3    H148677   6.492   2.968   3.929 -0.1891  0.1226 -0.8000
 9062TIP3    H248678   6.601   3.005   4.028 -0.9534 -0.4927  0.2895
 9063TIP3   OH248679   5.927   1.608  14.398  0.3985 -0.6075  0.4998
 9063TIP3    H148680   6.002   1.565  14.356  0.5237  1.0209 -1.0383
 9063TIP3    H248681   5.967   1.673  14.456  0.1692 -0.4994  0.5346
 9064TIP3   OH248682   0.264   0.108   4.051  0.5788  0.0417 -0.2549
 9064TIP3    H148683   0.188   0.140   4.100  1.1557 -0.8220  1.2839
 9064TIP3    H248684   0.298   0.185   4.006 -1.2948  0.4085 -1.1480
 9065TIP3   OH248685   0.852   1.514  14.108 -0.2066  0.1204 -0.3054
 9065TIP3    H148686   0.820   1.554  14.028  0.5821 -0.3641 -0.8718
 9065TIP3    H248687   0.902   1.582  14.152 -0.2118  0.2269 -0.4678
 9066TIP3   OH248688   3.906   3.128  12.442  0.0664 -0.0825  0.1607
 9066TIP3    H148689   3.994   3.156  12.469 -0.5416  1.5910  0.4964
 9066TIP3    H248690   3.856   3.209  12.436 -1.5600 -1.0456  0.2786
 9067TIP3   OH248691   5.162   5.504  12.407 -0.3762 -0.0027 -0.2300
 9067TIP3    H148692   5.201   5.535  12.488 -0.8469 -1.0720  0.4268
 9067TIP3    H248693   5.080   5.463  12.433  0.2309 -1.8472 -0.9959
 9068TIP3   OH248694   6.305   6.478  14.715 -0.5778  0.9361  0.0376
 9068TIP3    H148695   6.389   6.435  14.697 -0.5900  0.5772  0.7835
 9068TIP3    H248696   6.291   6.536  14.640 -0.5543 -0.3369 -0.9814
 9069TIP3   OH248697   0.242   5.732   4.987  0.3494 -0.5035 -0.4489
 9069TIP3    H148698   0.171   5.679   5.023  0.4421 -0.7247 -0.5895
 9069TIP3    H248699   0.226   5.820   5.021  1.0271 -0.9161  1.0110
 9070TIP3   OH248700   5.880   0.118   4.421 -1.0165 -0.2159  0.5417
 9070TIP3    H148701   5.858   0.198   4.374  0.8174  0.2405  0.4079
 9070TIP3    H248702   5.843   0.048   4.368  0.2229  0.3447 -1.1404
 9071TIP3   OH248703   3.718   2.475  14.114 -0.4523 -1.0888  0.5824
 9071TIP3    H148704   3.722   2.380  14.127  1.2339 -1.1796 -0.3970
 9071TIP3    H248705   3.808   2.505  14.124 -0.9219  0.4038  0.6426
 9072TIP3   OH248706   0.526   3.242   0.738  0.1658  0.1842  0.1038
 9072TIP3    H148707   0.503   3.264   0.828 -0.2352 -0.2218  0.1027
 9072TIP3    H248708   0.605   3.293   0.721 -1.4897  2.7531 -0.3920
 9073TIP3   OH248709   5.946   5.812  14.521 -0.1035 -0.2411 -0.2068
 9073TIP3    H148710   5.960   5.842  14.611 -0.8902 -1.5665  0.3837
 9073TIP3    H248711   6.034   5.792  14.489  0.0317 -1.7167  0.9975
 9074TIP3   OH248712   2.016   4.405  12.086 -0.0693 -0.1038 -0.2832
 9074TIP3    H148713   1.940   4.372  12.039  0.4067 -2.2601  0.3860
 9074TIP3    H248714   2.062   4.327  12.117  1.9698  1.1449  0.0616
 9075TIP3   OH248715   2.286   0.488   4.938  0.2708 -0.8808 -0.2843
 9075TIP3    H148716   2.309   0.562   4.882 -0.8888 -1.2234 -1.2559
 9075TIP3    H248717   2.191   0.493   4.946  0.3358 -1.3062  1.0350
 9076TIP3   OH248718   0.621   0.069   0.745 -0.0488  0.4248  0.1866
 9076TIP3    H148719   0.706   0.042   0.711 -0.4946 -0.0783 -0.5533
 9076TIP3    H248720   0.562   0.065   0.670 -0.5403  1.6842  0.4694
 9077TIP3   OH248721   5.197   1.513   0.165  0.0495  0.2827  0.2811
 9077TIP3    H148722   5.108   1.488   0.138 -0.0451  0.6849  0.2120
 9077TIP3    H248723   5.191   1.523   0.260 -0.7067  3.0692  0.0220
 9078TIP3   OH248724   4.510   0.377   3.228 -0.5235 -0.4508 -0.2458
 9078TIP3    H148725   4.423   0.404   3.200 -0.7473 -2.5924 -1.8555
 9078TIP3    H248726   4.570   0.429   3.174 -0.7366  0.8852  0.7319
 9079TIP3   OH248727   0.390   4.324  15.229  0.5929 -0.4442  0.5681
 9079TIP3    H148728   0.365   4.280  15.148  0.2605 -1.9664  1.4632
 9079TIP3    H248729   0.484   4.307  15.238  1.3220  2.1721 -0.9102
 9080TIP3   OH248730   5.884   4.608   1.970 -0.1207  0.2410 -0.1884
 9080TIP3    H148731   5.878   4.553   1.892  1.1740  1.7461 -1.4116
 9080TIP3    H248732   5.835   4.687   1.946 -0.5984  0.3021  0.9420
 9081TIP3   OH248733   1.777   6.517  11.892  0.0719 -0.0671 -0.2131
 9081TIP3    H148734   1.744   6.427  11.903 -1.5428  0.1585 -2.5616
 9081TIP3    H248735   1.870   6.506  11.874 -0.5506 -1.5956 -3.1288
 9082TIP3   OH248736   6.297   1.948  16.457 -0.1253 -0.1348 -0.2388
 9082TIP3    H148737   6.325   1.874  16.403  1.8614  1.0560 -0.9431
 9082TIP3    H248738   6.277   2.017  16.395 -0.0174  0.5446  0.4632
 9083TIP3   OH248739   6.339   3.799   5.977 -0.4315  0.1586 -0.4871
 9083TIP3    H148740   6.338   3.844   5.892 -0.4215  0.7193 -0.2016
 9083TIP3    H248741   6.261   3.832   6.022 -0.2558  0.1212 -0.1520
 9084TIP3   OH248742   1.937   5.872   3.728 -0.0535 -0.7456  0.2440
 9084TIP3    H148743   1.972   5.806   3.788  0.2992  0.2708  1.1943
 9084TIP3    H248744   2.014   5.903   3.679  0.0581  0.0120  0.8711
 9085TIP3   OH248745   2.063   3.510  14.780 -0.0502 -0.4891  0.0894
 9085TIP3    H148746   2.121   3.569  14.828 -0.6828  0.1405  0.1063
 9085TIP3    H248747   2.119   3.467  14.716  0.2960  0.7166 -0.4590
 9086TIP3   OH248748   2.082   5.513  16.801 -0.5109 -0.3133  0.4857
 9086TIP3    H148749   2.171   5.547  16.807 -0.6382 -0.0691  1.0576
 9086TIP3    H248750   2.090   5.419  16.819 -0.5376 -0.0547  1.9750
 9087TIP3   OH248751   3.584   1.876  14.786 -0.2420 -0.2091  0.2941
 9087TIP3    H148752   3.502   1.876  14.737  1.1724 -1.0033 -2.2462
 9087TIP3    H248753   3.601   1.968  14.806 -1.1277  0.0812 -0.2780
 9088TIP3   OH248754   5.197   4.788   2.195  0.1247  0.9953 -0.0514
 9088TIP3    H148755   5.136   4.717   2.176 -0.6256  1.4732  0.4773
 9088TIP3    H248756   5.201   4.839   2.114 -0.6421  1.2823  0.0760
 9089TIP3   OH248757   6.251   3.413  16.466  0.2914 -0.6931  0.3655
 9089TIP3    H148758   6.298   3.477  16.413 -0.4803  0.2267  0.7789
 9089TIP3    H248759   6.299   3.331  16.451  0.3708 -0.3772 -1.4076
 9090TIP3   OH248760   0.058   1.910   4.058  0.1641  0.8029 -0.0380
 9090TIP3    H148761   0.056   1.886   4.150 -0.5166  1.0932  0.0265
 9090TIP3    H248762   0.004   1.989   4.052  0.0229  0.6615 -0.7184
 9091TIP3   OH248763   4.868   5.857  11.778 -0.1580 -0.4394 -0.0733
 9091TIP3    H148764   4.798   5.863  11.714 -1.0556  1.8439  1.0364
 9091TIP3    H248765   4.936   5.916  11.746  1.1033 -2.2086 -0.8501
 9092TIP3   OH248766   0.288   1.300  11.158 -0.3650  1.0513  0.1065
 9092TIP3    H148767   0.210   1.252  11.187 -0.3703  0.5496 -0.6987
 9092TIP3    H248768   0.253   1.383  11.124 -0.4798  1.1072  0.3582
 9093TIP3   OH248769   0.643   2.746  16.289 -0.3945  0.7389 -0.0152
 9093TIP3    H148770   0.732   2.720  16.263 -0.9987 -1.5590  0.0355
 9093TIP3    H248771   0.599   2.664  16.311 -2.1338  1.9527  1.3190
 9094TIP3   OH248772   5.255   5.385   2.488  0.3782 -0.4503 -0.2641
 9094TIP3    H148773   5.174   5.423   2.455 -0.9044 -1.5770  1.4397
 9094TIP3    H248774   5.315   5.460   2.496 -0.5723  0.4477 -1.2805
 9095TIP3   OH248775   4.137   0.200  16.332 -0.3376 -0.7138  0.0087
 9095TIP3    H148776   4.157   0.116  16.374 -1.9452 -1.2658 -0.2667
 9095TIP3    H248777   4.076   0.243  16.391  1.9133  1.1927  1.1149
 9096TIP3   OH248778   3.439   3.800  14.058 -0.3710  0.0670  0.1556
 9096TIP3    H148779   3.460   3.763  13.973  0.4170  0.9948 -0.0668
 9096TIP3    H248780   3.360   3.753  14.085  0.4899 -1.6589 -0.1665
 9097TIP3   OH248781   0.179   2.766   5.206  0.1878 -0.5001 -0.0768
 9097TIP3    H148782   0.172   2.766   5.110  1.2742 -0.6780 -0.1643
 9097TIP3    H248783   0.273   2.766   5.223  0.0032 -0.2020  0.9988
 9098TIP3   OH248784   1.703   6.136  15.503 -0.3087 -0.0962  0.3843
 9098TIP3    H148785   1.642   6.205  15.474 -1.2786 -0.6889  0.9548
 9098TIP3    H248786   1.747   6.109  15.423 -1.0242  0.1368 -0.1025
 9099TIP3   OH248787   3.241   1.103  12.703  0.0445 -0.0691  0.6478
 9099TIP3    H148788   3.291   1.064  12.632 -1.0796  0.8884 -0.7223
 9099TIP3    H248789   3.216   1.029  12.758  1.7623 -0.7198  0.6362
 9100TIP3   OH248790   0.255   4.201  15.583  0.5971 -0.2696  0.9535
 9100TIP3    H148791   0.259   4.277  15.525  0.5306 -1.1193 -0.2131
 9100TIP3    H248792   0.335   4.207  15.635  1.6125 -0.4457 -0.5198
 9101TIP3   OH248793   6.579   5.805  12.430  0.7106  0.1877 -0.5607
 9101TIP3    H148794   6.645   5.800  12.361  0.8261  0.7329 -0.4922
 9101TIP3    H248795   6.557   5.898  12.437 -1.1391 -0.1299 -1.5784
 9102TIP3   OH248796   4.655   2.029   4.382 -0.0162  0.0823  0.0843
 9102TIP3    H148797   4.584   1.967   4.398 -0.4474 -0.3020 -2.8435
 9102TIP3    H248798   4.735   1.978   4.395 -0.3085 -0.2251  0.7174
 9103TIP3   OH248799   6.015   0.316  15.920 -0.2755  0.0336 -0.5361
 9103TIP3    H148800   6.036   0.224  15.902  1.2400  0.4583 -1.1690
 9103TIP3    H248801   5.937   0.333  15.869 -0.3395 -0.7999 -0.7402
 9104TIP3   OH248802   5.379   6.544   5.781  0.4147 -0.0017 -0.3568
 9104TIP3    H148803   5.401   6.480   5.714  0.1531  2.0671 -2.5253
 9104TIP3    H248804   5.462   6.587   5.801  0.2461  0.3131 -0.3331
 9105TIP3   OH248805   1.007   5.238   4.926  0.0554  0.3321 -0.0329
 9105TIP3    H148806   1.064   5.314   4.934 -1.9019  2.0912 -1.7463
 9105TIP3    H248807   0.921   5.269   4.954 -0.3151 -2.0327  1.7556
 9106TIP3   OH248808   1.526   6.448   1.694  0.1155 -0.2331  0.3604
 9106TIP3    H148809   1.509   6.513   1.626 -0.6328 -0.2665  0.5075
 9106TIP3    H248810   1.581   6.494   1.758  3.2045 -0.9937 -1.5376
 9107TIP3   OH248811   5.853   2.930  12.082 -0.0790  0.1447  0.5768
 9107TIP3    H148812   5.893   2.887  12.157 -0.9863 -0.4457  0.7439
 9107TIP3    H248813   5.888   3.019  12.083  1.0403 -0.2895  0.8305
 9108TIP3   OH248814   3.715   4.455  14.228  0.2928 -0.2870 -0.1569
 9108TIP3    H148815   3.677   4.487  14.309 -0.6072 -0.5823 -0.4446
 9108TIP3    H248816   3.764   4.529  14.193 -0.1528  0.1589  0.1499
 9109TIP3   OH248817   6.111   1.431   3.917  0.1858  0.2892 -0.0634
 9109TIP3    H148818   6.084   1.519   3.944 -3.1627 -1.2194  2.0772
 9109TIP3    H248819   6.185   1.411   3.974  0.0143  1.1595  0.4944
 9110TIP3   OH248820   6.310   0.517   1.711  0.7047 -0.0124  0.1098
 9110TIP3    H148821   6.347   0.438   1.751 -1.0642 -1.2768 -0.6604
 9110TIP3    H248822   6.358   0.589   1.753  1.4881 -1.4238  1.7647
 9111TIP3   OH248823   4.106   1.808  14.413 -0.1221 -0.0328 -0.6445
 9111TIP3    H148824   4.184   1.813  14.358  0.8817  0.7471  0.7572
 9111TIP3    H248825   4.066   1.895  14.405  0.6272  0.4591  0.6290
 9112TIP3   OH248826   3.966   3.636   3.132  0.0258 -0.0533 -0.2616
 9112TIP3    H148827   3.998   3.552   3.167  0.9702  0.4366  0.0767
 9112TIP3    H248828   3.934   3.683   3.209  0.7600  0.4422 -0.2525
 9113TIP3   OH248829   4.365   2.612  14.732  0.1955  0.9271  0.5087
 9113TIP3    H148830   4.343   2.579  14.645 -2.3590  1.6919  0.7894
 9113TIP3    H248831   4.382   2.534  14.783  3.8737  0.5014 -1.0721
 9114TIP3   OH248832   3.648   3.173   1.426  0.1974 -0.7540 -0.2333
 9114TIP3    H148833   3.682   3.246   1.374  0.7885 -1.8555 -1.4623
 9114TIP3    H248834   3.683   3.188   1.514 -0.9311  1.2339 -0.0506
 9115TIP3   OH248835   6.588   4.931   1.640 -0.2693  0.0379  0.0447
 9115TIP3    H148836   6.584   4.953   1.733 -3.4141  0.6073 -0.1037
 9115TIP3    H248837   6.498   4.906   1.618  0.6326 -1.2275 -2.6087
 9116TIP3   OH248838   3.790   3.293   0.394 -0.0439  0.1921  0.3646
 9116TIP3    H148839   3.815   3.206   0.426  1.0136  1.0559  1.9892
 9116TIP3    H248840   3.854   3.313   0.325 -0.0097 -0.1144  0.3068
 9117TIP3   OH248841   0.506   6.220   1.255  0.6021 -0.1343  0.6117
 9117TIP3    H148842   0.503   6.182   1.167  0.6536  1.0581  0.0779
 9117TIP3    H248843   0.596   6.253   1.263  0.4977  0.0602  0.9880
 9118TIP3   OH248844   6.579   2.418   3.023 -0.7890 -0.0865 -0.5190
 9118TIP3    H148845   6.580   2.514   3.027 -1.7575 -0.0944  0.6585
 9118TIP3    H248846   6.605   2.390   3.111  1.5648 -0.9814 -1.4053
 9119TIP3   OH248847   0.394   0.351  16.006 -0.6218  0.3133  0.1601
 9119TIP3    H148848   0.358   0.361  15.917 -0.9077 -0.9861  0.0992
 9119TIP3    H248849   0.321   0.313  16.056  0.2394 -1.1106  0.3722
 9120TIP3   OH248850   4.616   3.042   1.416 -0.1635 -0.1858 -0.1457
 9120TIP3    H148851   4.591   2.959   1.455  0.2260  0.8974  2.6655
 9120TIP3    H248852   4.540   3.099   1.428  0.3799  0.5103  0.0791
 9121TIP3   OH248853   1.328   6.371  14.624  0.0052  0.1265 -0.5075
 9121TIP3    H148854   1.233   6.367  14.628 -0.0806  1.5562 -0.8176
 9121TIP3    H248855   1.348   6.461  14.600  1.4780  0.2675  1.0061
 9122TIP3   OH248856   4.926   5.938  17.135 -0.7747 -0.7483 -0.1631
 9122TIP3    H148857   4.888   5.864  17.088  0.2049 -1.4706  0.1454
 9122TIP3    H248858   4.863   5.957  17.205 -0.7433 -1.7167  0.1440
 9123TIP3   OH248859   1.576   4.840  11.059 -0.6676  0.2577 -0.0999
 9123TIP3    H148860   1.594   4.747  11.048 -0.1222  0.1970  1.1659
 9123TIP3    H248861   1.572   4.874  10.969 -1.1150 -1.0125 -0.5839
 9124TIP3   OH248862   6.416   4.302   1.920  0.1456 -0.6731 -0.9089
 9124TIP3    H148863   6.380   4.388   1.898  2.5562  0.0026 -2.5562
 9124TIP3    H248864   6.339   4.245   1.926 -1.6927  1.7754  1.6786
 9125TIP3   OH248865   0.836   6.070  16.064 -0.1357  0.3722 -0.3938
 9125TIP3    H148866   0.753   6.104  16.032 -1.5888 -2.1632  0.4259
 9125TIP3    H248867   0.848   5.987  16.018  0.6302 -0.5526  1.3525
 9126TIP3   OH248868   6.795   1.867  14.023  0.5265  0.5107 -0.1445
 9126TIP3    H148869   6.839   1.866  14.108  1.2572  0.5846 -0.5095
 9126TIP3    H248870   6.702   1.867  14.044  0.6346  2.9554  0.7399
 9127TIP3   OH248871   4.115   0.692  16.238 -0.1812 -0.4578 -0.4742
 9127TIP3    H148872   4.043   0.742  16.199 -0.4485 -0.2807  0.2368
 9127TIP3    H248873   4.072   0.628  16.295  0.2526  0.4281  0.8802
 9128TIP3   OH248874   5.238   4.157  16.966  0.2237  0.4472  0.3480
 9128TIP3    H148875   5.149   4.124  16.955  0.3491  0.5739 -1.2178
 9128TIP3    H248876   5.230   4.225  17.033 -1.1637  1.5358 -0.8680
 9129TIP3   OH248877   6.477   5.159  14.032 -0.1277  0.4326 -0.2912
 9129TIP3    H148878   6.525   5.106  14.095 -1.1789  1.0447  1.0931
 9129TIP3    H248879   6.521   5.144  13.948 -0.2436 -2.4266  0.0667
 9130TIP3   OH248880   4.877   6.753  16.283 -0.3096  0.0024  0.1629
 9130TIP3    H148881   4.917   6.795  16.208  1.6848  0.1053  1.2257
 9130TIP3    H248882   4.834   6.676  16.247  0.9350 -0.1632 -1.0494
 9131TIP3   OH248883   1.346   6.631  15.405  0.3113 -0.6053 -0.0624
 9131TIP3    H148884   1.313   6.589  15.325  0.3297 -1.3583  0.3161
 9131TIP3    H248885   1.268   6.665  15.448 -0.1936 -3.1811  1.2948
 9132TIP3   OH248886   1.077   3.612   5.378 -0.2008  0.3180 -0.2168
 9132TIP3    H148887   1.081   3.555   5.455 -1.5426  0.2624 -0.1679
 9132TIP3    H248888   1.161   3.659   5.378  0.4675 -0.8437  0.3615
 9133TIP3   OH248889   3.475   0.172  14.124 -0.1187  0.3060 -0.0007
 9133TIP3    H148890   3.484   0.149  14.031  1.1288 -0.9761  0.4140
 9133TIP3    H248891   3.436   0.094  14.164 -1.5408  1.1933  0.4279
 9134TIP3   OH248892   3.924   0.793  15.245  0.3727  0.5027 -0.2758
 9134TIP3    H148893   3.923   0.882  15.210  1.4278  1.2696  1.5176
 9134TIP3    H248894   3.849   0.789  15.303  1.4161  0.9192  1.1610
 9135TIP3   OH248895   2.899   5.701   6.082  0.5445  0.0754 -0.1554
 9135TIP3    H148896   2.809   5.679   6.104  0.7924 -2.1046 -1.0491
 9135TIP3    H248897   2.896   5.792   6.054 -0.6895  1.3108  3.4521
 9136TIP3   OH248898   1.481   3.783   6.166  0.1644 -0.1848 -0.7100
 9136TIP3    H148899   1.464   3.815   6.254 -0.4694  0.8702 -1.1873
 9136TIP3    H248900   1.401   3.803   6.117  1.3732  1.5834 -2.1350
 9137TIP3   OH248901   0.120   1.869  14.540 -0.3890  0.4760 -0.1474
 9137TIP3    H148902   0.104   1.956  14.577 -0.6042  0.0149  0.8628
 9137TIP3    H248903   0.131   1.812  14.616 -0.7833 -0.4809 -0.7900
 9138TIP3   OH248904   4.424   1.242  14.576  0.3062 -0.9573 -0.0367
 9138TIP3    H148905   4.358   1.218  14.511  1.6460 -1.9727 -1.0671
 9138TIP3    H248906   4.409   1.181  14.648  1.7654 -3.0438 -1.3866
 9139TIP3   OH248907   4.376   4.266   1.875  0.6920 -0.5147  0.0067
 9139TIP3    H148908   4.326   4.210   1.815 -0.0204 -0.0297  0.1381
 9139TIP3    H248909   4.316   4.284   1.947  0.0384  2.3007 -1.0958
 9140TIP3   OH248910   2.319   3.465  13.608  0.0410  0.6235  0.1921
 9140TIP3    H148911   2.353   3.516  13.535 -2.2247  1.1732 -0.5662
 9140TIP3    H248912   2.253   3.407  13.568  0.0840 -0.4192  1.5430
 9141TIP3   OH248913   5.699   2.374  17.185  0.3895 -0.3881 -0.4445
 9141TIP3    H148914   5.665   2.462  17.173  1.8270  0.0520 -1.5160
 9141TIP3    H248915   5.786   2.386  17.221  0.3535 -1.4036  0.0315
 9142TIP3   OH248916   0.335   3.220  15.381 -0.4141 -0.0977 -0.1804
 9142TIP3    H148917   0.354   3.255  15.294  0.1441 -1.1103 -0.4821
 9142TIP3    H248918   0.343   3.295  15.439  0.7881  0.2759 -0.7998
 9143TIP3   OH248919   5.973   2.210   3.006  0.1286  0.0742 -0.0981
 9143TIP3    H148920   6.007   2.133   2.958 -0.0236  0.2026 -0.4164
 9143TIP3    H248921   6.015   2.285   2.962  1.2094  0.1246  0.9695
 9144TIP3   OH248922   6.551   4.576  15.761  0.1431  0.7421 -0.4928
 9144TIP3    H148923   6.486   4.511  15.737 -0.2560  0.6998  0.6666
 9144TIP3    H248924   6.598   4.538  15.835 -0.5170  2.0038  0.6299
 9145TIP3   OH248925   2.000   5.520  15.668  0.0586 -0.4308  0.4736
 9145TIP3    H148926   1.978   5.599  15.618 -0.3883  0.2751  1.7457
 9145TIP3    H248927   1.923   5.502  15.721  0.0611 -1.8891  0.0276
 9146TIP3   OH248928   3.221   4.609   4.095 -0.3184  0.5706 -0.1359
 9146TIP3    H148929   3.223   4.590   4.001  0.0415  0.5650 -0.1251
 9146TIP3    H248930   3.155   4.549   4.129 -1.1916  1.2559 -0.5398
 9147TIP3   OH248931   0.437   6.494   2.423 -0.4720  0.3886  0.5758
 9147TIP3    H148932   0.380   6.552   2.372 -0.8187  1.0036  1.6442
 9147TIP3    H248933   0.377   6.435   2.469 -0.2007  0.4271  0.9810
 9148TIP3   OH248934   5.445   4.331   1.744  0.0334  0.1608  0.2840
 9148TIP3    H148935   5.377   4.329   1.677 -0.2775  0.8805  0.5576
 9148TIP3    H248936   5.425   4.257   1.801 -0.1893  0.0345  0.0408
 9149TIP3   OH248937   2.150   1.456  12.775  0.4153 -0.8960  0.2562
 9149TIP3    H148938   2.123   1.366  12.788  0.3056 -0.9571 -0.3895
 9149TIP3    H248939   2.245   1.451  12.762  0.4822 -0.8646  0.7201
 9150TIP3   OH248940   3.869   0.787   5.242  0.0329  0.0131 -0.0241
 9150TIP3    H148941   3.809   0.719   5.273 -0.9453  0.5151 -0.7562
 9150TIP3    H248942   3.939   0.739   5.196  0.4126 -0.5982  1.1587
 9151TIP3   OH248943   2.678   1.836   4.758 -0.4020  0.5965 -0.7224
 9151TIP3    H148944   2.717   1.774   4.697 -0.5529 -1.4290  1.1164
 9151TIP3    H248945   2.742   1.907   4.765  0.2495  0.1764 -2.1020
 9152TIP3   OH248946   2.925   5.072  15.183  0.3438  0.1528  0.1372
 9152TIP3    H148947   2.891   5.104  15.267 -2.6763  1.1762 -1.3642
 9152TIP3    H248948   2.958   4.984  15.203 -1.2916 -0.0771  2.2098
 9153TIP3   OH248949   6.565   2.407  15.167 -0.0292 -0.0146  0.3951
 9153TIP3    H148950   6.572   2.322  15.209  1.8115  0.3774  0.9592
 9153TIP3    H248951   6.491   2.449  15.210  0.9315 -0.1739  2.3134
 9154TIP3   OH248952   6.446   3.943  13.343 -0.1823  0.2481 -0.4078
 9154TIP3    H148953   6.362   3.989  13.346 -1.4422 -1.9302  2.0648
 9154TIP3    H248954   6.506   4.000  13.393 -0.6868  0.9335 -0.5680
 9155TIP3   OH248955   4.990   0.681  12.296  0.0210 -0.2218 -0.4231
 9155TIP3    H148956   4.926   0.741  12.258 -0.4803 -0.6288 -0.2445
 9155TIP3    H248957   5.046   0.736  12.351  0.0623  0.1970 -0.8861
 9156TIP3   OH248958   1.358   3.035   3.376  0.2369 -0.0844 -0.1286
 9156TIP3    H148959   1.444   3.074   3.363  0.2167  1.3958  3.2534
 9156TIP3    H248960   1.374   2.961   3.435 -1.0169  2.5763  3.9596
 9157TIP3   OH248961   1.293   2.472   2.380  0.2242  0.7929 -0.3298
 9157TIP3    H148962   1.338   2.513   2.307 -1.6493  1.9284 -0.9263
 9157TIP3    H248963   1.214   2.434   2.341 -0.1396  0.2254  0.8902
 9158TIP3   OH248964   1.605   3.948  11.855  0.3855  0.0222  0.9837
 9158TIP3    H148965   1.565   4.001  11.924  0.5525  0.4564  0.7438
 9158TIP3    H248966   1.598   4.001  11.776 -1.6862 -1.2987  0.1956
 9159TIP3   OH248967   6.422   6.385   3.592 -0.1763 -0.1372 -0.7072
 9159TIP3    H148968   6.398   6.477   3.576 -0.5199 -0.1956 -0.5261
 9159TIP3    H248969   6.369   6.359   3.667  0.7027 -0.1606 -0.0757
 9160TIP3   OH248970   0.877   0.692  16.915  0.5211  0.5194 -0.3189
 9160TIP3    H148971   0.927   0.616  16.885  0.0173  0.2047 -0.3824
 9160TIP3    H248972   0.834   0.725  16.836  1.8297  1.7277 -0.5645
 9161TIP3   OH248973   0.607   5.477   4.832  0.2164 -0.2645  1.0366
 9161TIP3    H148974   0.604   5.547   4.767  0.3077 -1.8767 -0.7788
 9161TIP3    H248975   0.697   5.445   4.829 -0.3070 -1.7779  0.3219
 9162TIP3   OH248976   5.522   3.267  16.818 -0.1001  0.2039  0.7024
 9162TIP3    H148977   5.471   3.187  16.805  0.2460 -0.0587  0.9289
 9162TIP3    H248978   5.611   3.243  16.795 -0.4575  1.4000 -2.4224
 9163TIP3   OH248979   0.534   2.546  15.574 -0.1633  0.1770  0.3212
 9163TIP3    H148980   0.584   2.548  15.655  0.7040  2.4435 -0.2018
 9163TIP3    H248981   0.583   2.603  15.514 -2.6562  1.4254 -0.6669
 9164TIP3   OH248982   3.604   4.087   2.566  0.1693  0.1808  0.4236
 9164TIP3    H148983   3.561   4.162   2.525 -0.4732 -0.6112 -0.4086
 9164TIP3    H248984   3.658   4.050   2.496 -0.5229 -0.8789  0.4277
 9165TIP3   OH248985   4.851   5.946   4.494  0.1548  0.5361  0.1570
 9165TIP3    H148986   4.921   6.005   4.466  1.2239 -0.5284  0.4826
 9165TIP3    H248987   4.845   5.960   4.589 -1.3373  1.9005 -0.0834
 9166TIP3   OH248988   5.876   5.048   6.263 -0.3543  0.0288 -0.6499
 9166TIP3    H148989   5.883   5.105   6.339  0.1383 -0.4305 -0.3352
 9166TIP3    H248990   5.959   4.999   6.263 -0.7266 -0.6135 -0.9599
 9167TIP3   OH248991   2.762   0.997  13.216 -0.4570 -0.1187  0.6158
 9167TIP3    H148992   2.739   1.029  13.129 -1.4871 -2.0073  0.1389
 9167TIP3    H248993   2.682   0.956  13.249 -0.5655  1.8447  3.1417
 9168TIP3   OH248994   4.671   5.221  16.080 -0.7029 -0.0485 -0.4211
 9168TIP3    H148995   4.765   5.226  16.100 -0.6972 -1.0294 -0.1749
 9168TIP3    H248996   4.649   5.129  16.090 -1.2121 -0.2294 -2.7525
 9169TIP3   OH248997   5.856   0.342   4.891  0.2195 -0.0842 -0.1370
 9169TIP3    H148998   5.917   0.409   4.860 -2.3795  2.4752 -0.1673
 9169TIP3    H248999   5.837   0.289   4.814  1.2830 -0.0542 -0.4417
 9170TIP3   OH249000   6.026   5.259  16.191 -0.0009  0.4485 -0.8737
 9170TIP3    H149001   6.064   5.251  16.104  0.4355  1.4932 -0.7939
 9170TIP3    H249002   5.946   5.310  16.178 -0.7152 -0.6233 -0.8513
 9171TIP3   OH249003   5.766   1.978   6.077  0.7616  0.1308 -0.0954
 9171TIP3    H149004   5.733   2.053   6.027  2.7428  0.8891 -0.3573
 9171TIP3    H249005   5.810   2.017   6.153  0.0085 -0.8869  0.8916
 9172TIP3   OH249006   0.798   1.430  15.632  0.4140 -0.1969 -0.3185
 9172TIP3    H149007   0.723   1.460  15.683  1.0050 -0.3162  0.6582
 9172TIP3    H249008   0.760   1.397  15.550 -0.5300  0.2882 -0.0873
 9173TIP3   OH249009   6.000   0.687   6.075  0.0180 -0.3979  0.6516
 9173TIP3    H149010   6.061   0.626   6.116 -0.9814  0.0072  2.8741
 9173TIP3    H249011   6.006   0.766   6.129 -0.1745  0.7934 -0.9841
 9174TIP3   OH249012   1.567   3.750  13.309 -0.2168  0.4559 -0.1512
 9174TIP3    H149013   1.583   3.693  13.384  2.0699 -1.1238 -1.6732
 9174TIP3    H249014   1.482   3.722  13.275 -0.9785  0.7568  1.3954
 9175TIP3   OH249015   6.570   0.733   3.056  0.4401  0.5020 -0.4227
 9175TIP3    H149016   6.566   0.641   3.081 -2.0100  0.8150  0.6049
 9175TIP3    H249017   6.640   0.769   3.111  0.5740 -0.4942  0.0852
 9176TIP3   OH249018   1.389   0.521   2.762  0.1392  0.5956  0.7173
 9176TIP3    H149019   1.359   0.542   2.674 -1.6065  0.3984  1.2230
 9176TIP3    H249020   1.377   0.426   2.769 -1.2963  0.8193  1.6829
 9177TIP3   OH249021   1.328   2.535  16.317 -0.5564  0.3694  0.1718
 9177TIP3    H149022   1.362   2.573  16.397 -0.2198  1.1269 -0.3263
 9177TIP3    H249023   1.400   2.481  16.283 -0.6629  0.1310  0.3210
 9178TIP3   OH249024   0.280   3.445  14.893  0.0201 -0.6865  0.2071
 9178TIP3    H149025   0.370   3.471  14.873  0.9914 -2.3445  2.0222
 9178TIP3    H249026   0.241   3.423  14.808  0.0664  3.4070 -1.0735
 9179TIP3   OH249027   6.405   2.085  16.192 -0.1727  0.2415 -0.3334
 9179TIP3    H149028   6.399   2.083  16.287 -0.9358  2.3212 -0.2942
 9179TIP3    H249029   6.460   2.161  16.173  0.1060 -0.2452 -1.5533
 9180TIP3   OH249030   3.460   2.559   2.571 -0.5039 -0.1583  0.4436
 9180TIP3    H149031   3.532   2.585   2.629 -0.4391  0.7394 -0.0288
 9180TIP3    H249032   3.393   2.525   2.631 -0.0494 -0.1732  0.9573
 9181TIP3   OH249033   4.911   1.435  15.070 -0.5291 -0.5450 -0.5004
 9181TIP3    H149034   4.956   1.516  15.095  0.5871 -1.0703 -0.7507
 9181TIP3    H249035   4.899   1.387  15.152 -0.7730 -0.3366 -0.4129
 9182TIP3   OH249036   0.734   1.368   6.100  0.5602 -0.2967  0.7869
 9182TIP3    H149037   0.716   1.359   6.194 -0.4166  1.2878  0.7867
 9182TIP3    H249038   0.753   1.461   6.088  0.4856 -0.4405 -0.6170
 9183TIP3   OH249039   0.473   2.103  12.351 -0.5572  0.3516  0.1590
 9183TIP3    H149040   0.518   2.142  12.426 -0.3112 -3.3845  2.1467
 9183TIP3    H249041   0.382   2.129  12.362 -0.2451  1.3015  0.6831
 9184TIP3   OH249042   1.651   5.383  14.704 -0.0241  0.2073  0.1195
 9184TIP3    H149043   1.618   5.389  14.793 -1.8063 -0.9888 -0.3987
 9184TIP3    H249044   1.583   5.424  14.650 -0.3684 -1.5688 -0.9140
 9185TIP3   OH249045   6.326   1.745  12.902  0.4002  0.3499  0.2209
 9185TIP3    H149046   6.274   1.794  12.966 -0.9186 -1.1739  0.3620
 9185TIP3    H249047   6.338   1.659  12.941  2.7994  0.5186  0.0358
 9186TIP3   OH249048   4.263   0.867   3.155 -0.3558  0.8877 -0.1306
 9186TIP3    H149049   4.331   0.922   3.119 -0.5917  1.1779 -0.1344
 9186TIP3    H249050   4.235   0.912   3.235 -0.3338  0.6176  0.0308
 9187TIP3   OH249051   4.502   4.520   6.425 -0.1594 -0.3803 -0.0881
 9187TIP3    H149052   4.512   4.470   6.506  0.1098  1.5810  1.1420
 9187TIP3    H249053   4.585   4.565   6.414 -0.2912 -0.4198 -1.3422
 9188TIP3   OH249054   4.887   3.125   0.013  0.0960  0.0299  0.9135
 9188TIP3    H149055   4.918   3.168   0.093  0.7821  0.8897  0.2003
 9188TIP3    H249056   4.966   3.106  -0.036 -0.4143  1.8412 -0.7337
 9189TIP3   OH249057   3.257   3.577   2.787 -0.1079  0.4286  0.0053
 9189TIP3    H149058   3.330   3.552   2.843 -0.2575 -0.9845 -0.3935
 9189TIP3    H249059   3.256   3.673   2.790  0.1913  0.4226  2.0272
 9190TIP3   OH249060   1.456   4.053  16.075  0.3227  0.4044 -0.4521
 9190TIP3    H149061   1.529   4.113  16.092  1.1622 -1.0609  1.6087
 9190TIP3    H249062   1.377   4.105  16.093  0.9139  1.4852 -0.8889
 9191TIP3   OH249063   5.829   6.259   1.297 -0.0303  0.2224  0.3070
 9191TIP3    H149064   5.740   6.279   1.327 -0.2194 -1.3598  0.9458
 9191TIP3    H249065   5.815   6.203   1.220  0.3522 -1.4743  1.4259
 9192TIP3   OH249066   1.880   2.485   2.448 -0.1484  0.1628  0.1817
 9192TIP3    H149067   1.864   2.479   2.354 -0.2347  1.5483  0.0974
 9192TIP3    H249068   1.826   2.415   2.486  2.9458 -3.2571 -1.0642
 9193TIP3   OH249069   3.033   0.585   6.605  0.4416  0.9921  0.2433
 9193TIP3    H149070   2.995   0.571   6.518  0.7561 -1.0752  0.3923
 9193TIP3    H249071   2.982   0.656   6.642 -1.1733  0.4328 -0.7947
 9194TIP3   OH249072   1.089   3.799  11.947 -0.0062 -0.5229 -0.1413
 9194TIP3    H149073   1.058   3.804  11.857 -0.3071 -0.5615 -0.0418
 9194TIP3    H249074   1.078   3.888  11.981  0.3433 -0.4505 -0.2197
 9195TIP3   OH249075   1.447   0.128  11.135  0.1971  0.3715  0.6049
 9195TIP3    H149076   1.377   0.075  11.098  2.5333 -1.3180 -1.8387
 9195TIP3    H249077   1.427   0.217  11.106 -1.2762  0.0377  0.5427
 9196TIP3   OH249078   5.116   3.911   6.369  0.9714  0.5524 -0.0694
 9196TIP3    H149079   5.130   3.881   6.279 -2.8490 -0.8240 -0.3578
 9196TIP3    H249080   5.127   4.006   6.364 -2.2613  0.9839 -2.8834
 9197TIP3   OH249081   4.468   5.554  15.351  0.5491  0.3253  0.6447
 9197TIP3    H149082   4.540   5.543  15.412 -0.2653  2.2613  2.0470
 9197TIP3    H249083   4.508   5.591  15.272  1.3253 -0.3529  0.7151
 9198TIP3   OH249084   5.160   5.077  11.500 -0.1140 -0.5347 -0.3451
 9198TIP3    H149085   5.108   5.035  11.431  0.2416 -1.4893 -0.0553
 9198TIP3    H249086   5.231   5.014  11.517  0.1072 -0.0612  0.5119
 9199TIP3   OH249087   1.851   2.955  11.221  0.3907  0.5418 -0.4692
 9199TIP3    H149088   1.780   2.963  11.285  1.2207  1.8479  0.3323
 9199TIP3    H249089   1.820   3.005  11.145  1.1829  2.7631  0.5914
 9200TIP3   OH249090   3.063   5.256   6.003 -0.5026  0.0579  0.3869
 9200TIP3    H149091   3.026   5.190   5.944 -0.3685  0.5585 -0.2663
 9200TIP3    H249092   3.068   5.212   6.088  0.8981 -1.2593 -0.3309
 9201TIP3   OH249093   4.359   6.217   1.482  0.2742  0.4114 -0.1941
 9201TIP3    H149094   4.390   6.185   1.397 -0.0997  0.0274 -0.1884
 9201TIP3    H249095   4.358   6.312   1.473  0.2599  0.3724 -0.6162
 9202TIP3   OH249096   4.554   0.422  13.487 -0.1227 -0.2776  0.4814
 9202TIP3    H149097   4.539   0.382  13.402  1.3247  0.4460 -0.1524
 9202TIP3    H249098   4.467   0.429  13.527 -0.8110 -0.6514 -0.9225
 9203TIP3   OH249099   5.542   1.561  12.822 -0.4194  0.0096 -0.0161
 9203TIP3    H149100   5.607   1.495  12.798  0.2167 -0.2820  2.2237
 9203TIP3    H249101   5.475   1.555  12.754 -1.1689 -4.0826  0.8012
 9204TIP3   OH249102   5.882   3.114   1.307  0.9178  0.0445  0.3118
 9204TIP3    H149103   5.819   3.166   1.356  0.7409  1.4420 -1.3271
 9204TIP3    H249104   5.961   3.117   1.360 -0.1142 -1.0991  2.0220
 9205TIP3   OH249105   6.029   0.512  12.553  0.0892  0.7729 -0.4506
 9205TIP3    H149106   6.108   0.560  12.528  0.5045  0.0953 -0.4606
 9205TIP3    H249107   6.030   0.512  12.648  0.2037  0.5855 -0.4534
 9206TIP3   OH249108   2.001   4.625   2.139  0.2372 -0.2037  0.4872
 9206TIP3    H149109   2.031   4.700   2.086 -0.6924 -0.9553 -1.1673
 9206TIP3    H249110   1.932   4.661   2.194 -0.3535  0.1313 -0.4541
 9207TIP3   OH249111   6.373   0.859   0.797 -0.0869  0.2756  0.5100
 9207TIP3    H149112   6.417   0.944   0.802 -0.9527  0.7468  0.3514
 9207TIP3    H249113   6.283   0.877   0.826 -0.9317 -0.0885 -1.7228
 9208TIP3   OH249114   0.151   4.069  15.127 -0.3432  0.6210  0.6100
 9208TIP3    H149115   0.231   4.097  15.171 -0.7467  0.8198  1.2358
 9208TIP3    H249116   0.177   4.051  15.037  0.2495  1.3993  0.6229
 9209TIP3   OH249117   2.009   6.417  12.994 -0.2116 -0.5024  0.0445
 9209TIP3    H149118   2.087   6.377  13.034  1.2045  1.0139 -1.0739
 9209TIP3    H249119   1.969   6.346  12.944  0.3204 -1.3772  0.8383
 9210TIP3   OH249120   0.234   1.625   4.912 -0.0874 -0.0114 -0.1745
 9210TIP3    H149121   0.238   1.687   4.985 -0.0782 -1.3868  1.0280
 9210TIP3    H249122   0.318   1.578   4.916  0.0513  0.1221 -1.2875
 9211TIP3   OH249123   2.432   2.596  16.919  0.3645 -0.1508 -0.3747
 9211TIP3    H149124   2.349   2.611  16.964 -0.6313  0.7235 -2.3631
 9211TIP3    H249125   2.432   2.503  16.898 -0.0099 -0.2042 -0.1436
 9212TIP3   OH249126   6.454   0.191   3.120 -0.6785 -0.3653  0.4401
 9212TIP3    H149127   6.361   0.213   3.115 -0.7674 -0.9941 -2.1046
 9212TIP3    H249128   6.465   0.154   3.207 -2.3908  1.3713  1.4945
 9213TIP3   OH249129   5.061   1.878   1.043  1.0895  0.4483  0.1195
 9213TIP3    H149130   4.992   1.814   1.060  2.3492 -0.5144  1.8182
 9213TIP3    H249131   5.097   1.853   0.958  1.1264 -0.7019  0.4657
 9214TIP3   OH249132   1.614   0.721  13.686 -1.0042 -0.0680  0.2204
 9214TIP3    H149133   1.531   0.734  13.732  0.2051  0.9339  2.2612
 9214TIP3    H249134   1.647   0.637  13.718 -0.6742  0.1056  0.3443
 9215TIP3   OH249135   4.534   5.110  14.923 -0.9530  0.6793 -0.5842
 9215TIP3    H149136   4.474   5.132  14.852 -3.2364  0.0974  1.0135
 9215TIP3    H249137   4.530   5.185  14.982  0.3215  0.8344 -0.6638
 9216TIP3   OH249138   0.659   2.275   3.678  0.0860 -0.0889  0.7452
 9216TIP3    H149139   0.613   2.194   3.698 -1.3312  0.6443  0.5498
 9216TIP3    H249140   0.691   2.306   3.763  0.4582 -0.7402  0.8456
 9217TIP3   OH249141   5.824   5.099  16.493 -0.0361 -0.4252  0.0795
 9217TIP3    H149142   5.866   5.166  16.547 -1.2817 -1.9269  3.1783
 9217TIP3    H249143   5.760   5.147  16.440 -0.2480  0.9708  1.5399
 9218TIP3   OH249144   3.891   0.072  14.258  0.2697  0.2161 -0.3404
 9218TIP3    H149145   3.949   0.022  14.201 -0.0052 -0.3079 -0.1619
 9218TIP3    H249146   3.936   0.074  14.342  0.2114  0.1467 -0.3080
 9219TIP3   OH249147   5.573   0.122   3.584  0.0588 -0.3376 -0.7619
 9219TIP3    H149148   5.566   0.043   3.530  3.6345 -0.8453 -0.7293
 9219TIP3    H249149   5.515   0.185   3.541 -1.9642 -2.5650 -1.5019
 9220TIP3   OH249150   3.051   3.063   0.951 -0.1899 -0.3564 -0.4751
 9220TIP3    H149151   3.030   3.123   0.879 -1.4235 -2.4731 -1.9721
 9220TIP3    H249152   3.016   3.108   1.029  1.7139  2.2641 -0.9824
 9221TIP3   OH249153   5.858   5.844   1.659  0.1458 -0.1629 -0.4260
 9221TIP3    H149154   5.841   5.776   1.593 -0.1638 -0.1351 -0.3747
 9221TIP3    H249155   5.881   5.921   1.608 -0.1589 -0.1229 -0.5032
 9222TIP3   OH249156   4.995   0.240  14.046 -0.4531  0.0292 -0.3761
 9222TIP3    H149157   4.968   0.225  13.955  0.4367 -1.0528 -0.4843
 9222TIP3    H249158   5.091   0.244  14.042 -0.3404 -1.1048  0.6397
 9223TIP3   OH249159   2.164   2.212  10.382 -0.6077  0.1040 -0.1447
 9223TIP3    H149160   2.151   2.290  10.328  0.0751  0.1880 -0.2022
 9223TIP3    H249161   2.094   2.216  10.447 -1.4128  0.0352 -0.9767
 9224TIP3   OH249162   4.385   1.740   3.478  0.4302  0.1639  0.5193
 9224TIP3    H149163   4.432   1.785   3.549  0.3393  0.3754  0.4450
 9224TIP3    H249164   4.446   1.740   3.405 -0.2342  1.7903 -0.0692
 9225TIP3   OH249165   0.389   1.025   5.396  0.5479 -0.2254 -0.1030
 9225TIP3    H149166   0.471   0.981   5.418 -0.5482 -1.7559  1.1456
 9225TIP3    H249167   0.359   0.982   5.316  1.2637  0.8355 -0.9865
 9226TIP3   OH249168   6.115   3.899   2.689 -0.1997  0.3137 -0.8636
 9226TIP3    H149169   6.051   3.950   2.739  0.5565 -0.2385  0.7143
 9226TIP3    H249170   6.101   3.809   2.717  1.5686  0.2407 -0.1154
 9227TIP3   OH249171   4.303   4.058  12.861 -0.3577 -0.0150 -0.4716
 9227TIP3    H149172   4.316   4.151  12.843 -0.1548  0.0301 -0.0752
 9227TIP3    H249173   4.296   4.019  12.774 -0.2670  0.3424 -0.6435
 9228TIP3   OH249174   3.995   0.509  17.219  0.3299 -0.7025 -0.3796
 9228TIP3    H149175   4.044   0.475  17.145  0.0756  2.0538 -1.9556
 9228TIP3    H249176   4.061   0.522  17.288  1.5908  1.2453 -1.8433
 9229TIP3   OH249177   1.314   2.283   3.433  0.3513 -0.3304  0.0155
 9229TIP3    H149178   1.355   2.362   3.469 -2.1377  0.8629  0.3929
 9229TIP3    H249179   1.303   2.302   3.340  0.2676 -0.4923 -0.0080
 9230TIP3   OH249180   1.063   6.324  16.380  0.1015 -1.0306 -0.6096
 9230TIP3    H149181   1.083   6.415  16.358 -0.2826 -0.4427  1.3199
 9230TIP3    H249182   1.038   6.326  16.472 -2.8796 -2.6598 -1.2756
 9231TIP3   OH249183   5.625   0.822  15.074  0.0463 -0.1320 -0.9224
 9231TIP3    H149184   5.627   0.726  15.069 -1.2566 -0.2262 -0.0735
 9231TIP3    H249185   5.546   0.841  15.125  0.0663  1.4135 -1.4502
 9232TIP3   OH249186   0.370   6.066   4.280 -0.2784  0.6731 -0.1666
 9232TIP3    H149187   0.289   6.061   4.329  0.7455 -0.2123  1.5485
 9232TIP3    H249188   0.414   6.144   4.314 -0.9897  1.9906 -2.1165
 9233TIP3   OH249189   4.631   0.424  10.646  0.3948  0.6549 -0.7406
 9233TIP3    H149190   4.568   0.474  10.593  0.0684 -0.8130 -1.8025
 9233TIP3    H249191   4.577   0.365  10.699  0.8072 -1.5727 -2.6288
 9234TIP3   OH249192   3.432   5.811  11.819  0.1358 -0.0340 -0.7327
 9234TIP3    H149193   3.457   5.886  11.764 -0.4598 -0.1485 -1.1792
 9234TIP3    H249194   3.359   5.771  11.771 -1.1917  0.5550  0.6967
 9235TIP3   OH249195   4.702   1.253   1.294 -0.1289 -0.1536  0.1317
 9235TIP3    H149196   4.624   1.208   1.263 -1.2362 -0.4572  3.0746
 9235TIP3    H249197   4.701   1.338   1.250 -1.3582 -0.6698 -0.8798
 9236TIP3   OH249198   1.916   0.755  14.257 -0.0541  0.1819  0.5367
 9236TIP3    H149199   1.868   0.800  14.187  1.7800  1.1301 -0.2025
 9236TIP3    H249200   2.003   0.740  14.220  0.3558 -1.1245  1.9361
 9237TIP3   OH249201   2.351   0.497  14.393 -0.1445  0.1519 -0.4993
 9237TIP3    H149202   2.435   0.471  14.356 -1.3260 -2.2368 -1.7227
 9237TIP3    H249203   2.371   0.521  14.484  1.9937  0.7670 -1.0836
 9238TIP3   OH249204   5.083   3.857   4.864 -0.5271  0.0338  0.0834
 9238TIP3    H149205   5.178   3.840   4.863 -0.1846  1.5841  1.5682
 9238TIP3    H249206   5.044   3.774   4.838  1.1904 -1.2990  1.4786
 9239TIP3   OH249207   0.520   1.473   1.908 -0.1738 -0.2111 -0.0700
 9239TIP3    H149208   0.500   1.487   1.815  0.1873  2.2606  0.1518
 9239TIP3    H249209   0.436   1.448   1.947 -0.7699  0.6267 -0.7630
 9240TIP3   OH249210   6.186   6.607   2.173  0.1103 -0.5320 -0.3865
 9240TIP3    H149211   6.186   6.703   2.168 -0.2308 -0.5708 -1.4530
 9240TIP3    H249212   6.101   6.582   2.136  0.5743 -1.2780 -0.9657
 9241TIP3   OH249213   4.667   3.948   2.049  0.3366  0.3517 -0.3840
 9241TIP3    H149214   4.723   3.884   2.006 -0.7871  0.1060 -1.5203
 9241TIP3    H249215   4.715   4.031   2.041  0.7112  0.0806 -0.9869
 9242TIP3   OH249216   1.840   6.520   5.969  0.2441 -0.1657  0.3124
 9242TIP3    H149217   1.811   6.435   6.002 -0.8531 -0.6347 -1.7173
 9242TIP3    H249218   1.905   6.500   5.902  1.4829  0.7097  1.2077
 9243TIP3   OH249219   5.122   6.764  13.957  0.0878 -0.0235  0.5579
 9243TIP3    H149220   5.088   6.834  13.902 -0.5731 -0.8420 -0.1019
 9243TIP3    H249221   5.216   6.765  13.942 -0.1173 -0.4392 -0.8509
 9244TIP3   OH249222   2.401   3.292   5.856 -0.5829  0.4320 -0.0992
 9244TIP3    H149223   2.356   3.245   5.786 -0.6525 -0.8494  0.7752
 9244TIP3    H249224   2.449   3.362   5.811  0.6313 -1.2927 -1.6195
 9245TIP3   OH249225   4.583   5.420   5.740 -0.2757  0.4715  0.2690
 9245TIP3    H149226   4.515   5.360   5.708  0.4582 -1.3685  1.9539
 9245TIP3    H249227   4.664   5.386   5.702  0.3338 -0.5204  2.3105
 9246TIP3   OH249228   4.855   1.232   2.288  0.4059  0.3051 -0.1883
 9246TIP3    H149229   4.829   1.324   2.301 -0.5730 -0.0593  0.4967
 9246TIP3    H249230   4.947   1.229   2.315  0.3516  1.0097  0.0950
 9247TIP3   OH249231   1.991   3.424   4.622  0.7311  0.3591 -0.3494
 9247TIP3    H149232   2.040   3.392   4.698  2.6225  2.0413 -0.7690
 9247TIP3    H249233   2.029   3.378   4.548 -1.2634 -1.4472 -0.3464
 9248TIP3   OH249234   6.006   2.013  11.355  0.1816 -0.7468 -0.4035
 9248TIP3    H149235   5.932   2.073  11.363  0.6225 -0.1653 -0.6216
 9248TIP3    H249236   6.083   2.070  11.356  0.5750 -1.2353 -1.4933
 9249TIP3   OH249237   5.396   0.700  11.883 -0.0014 -0.1522 -0.2536
 9249TIP3    H149238   5.456   0.627  11.899  0.5414  0.4302  0.4228
 9249TIP3    H249239   5.391   0.745  11.967  1.4377  1.9209 -1.2118
 9250TIP3   OH249240   1.288   1.273   5.171  0.2949  0.4510 -0.0708
 9250TIP3    H149241   1.196   1.278   5.197  0.1369  0.4282 -0.6172
 9250TIP3    H249242   1.294   1.330   5.094  0.2641 -1.2227 -1.3633
 9251TIP3   OH249243   0.338   3.928   4.812  0.2389 -0.4163 -0.1904
 9251TIP3    H149244   0.277   3.950   4.741 -0.0139 -1.4932 -0.3242
 9251TIP3    H249245   0.407   3.876   4.770  1.1020  0.5248  0.0206
 9252TIP3   OH249246   0.399   0.570   5.384  0.9801 -0.4263 -0.1043
 9252TIP3    H149247   0.487   0.593   5.415  1.2069 -1.7481  0.3076
 9252TIP3    H249248   0.346   0.567   5.464  0.5891  0.1808 -0.3309
 9253TIP3   OH249249   4.633   2.621  13.016 -0.3832 -0.3008  0.0495
 9253TIP3    H149250   4.571   2.642  12.946  0.0597 -0.2197 -0.3241
 9253TIP3    H249251   4.597   2.542  13.056  1.1033 -2.4611 -2.5009
 9254TIP3   OH249252   4.480   3.513   6.200  0.1893 -0.9145 -0.2309
 9254TIP3    H149253   4.521   3.493   6.284 -0.0767 -1.0948 -0.1434
 9254TIP3    H249254   4.545   3.485   6.135  0.3673 -0.8359 -0.0862
 9255TIP3   OH249255   3.709   3.253  14.897 -0.4043 -0.3238  0.4436
 9255TIP3    H149256   3.664   3.296  14.824 -0.0712 -0.9298 -0.1265
 9255TIP3    H249257   3.699   3.160  14.880  0.0164 -0.4689  0.9627
 9256TIP3   OH249258   0.576   6.811  15.358 -0.0466  0.0119 -0.5267
 9256TIP3    H149259   0.547   6.896  15.390  1.2094  0.4568 -0.5322
 9256TIP3    H249260   0.645   6.831  15.295  0.9876 -1.0367  0.2357
 9257TIP3   OH249261   6.481   5.213  13.228  0.0384 -0.0580  0.8683
 9257TIP3    H149262   6.520   5.128  13.211 -0.2022 -0.8622  3.7163
 9257TIP3    H249263   6.423   5.229  13.153  0.7397 -1.9760 -0.1425
 9258TIP3   OH249264   0.333   3.292   4.553 -0.8146 -0.1642 -0.1102
 9258TIP3    H149265   0.289   3.212   4.526  0.0411 -0.6271 -0.1251
 9258TIP3    H249266   0.409   3.299   4.497 -1.2511  1.0375 -0.5870
 9259TIP3   OH249267   6.605   5.941   6.775 -0.1609  0.5743  0.7065
 9259TIP3    H149268   6.627   5.871   6.714 -1.1065  0.9785 -0.1283
 9259TIP3    H249269   6.578   5.896   6.855 -0.7587 -0.0327  0.1780
 9260TIP3   OH249270   4.931   1.965   6.319 -0.0000 -0.7456  0.0111
 9260TIP3    H149271   4.846   1.996   6.289  0.1285 -0.9276 -0.5675
 9260TIP3    H249272   4.988   2.042   6.315 -0.6680 -0.0145  2.6880
 9261TIP3   OH249273   1.987   0.023  13.554 -0.7294  0.4487  0.2191
 9261TIP3    H149274   2.028  -0.043  13.498  0.6375  2.5189 -1.4148
 9261TIP3    H249275   1.898   0.032  13.519 -1.0344 -0.7114  0.6636
 9262TIP3   OH249276   4.308   6.051  10.904 -0.8983  0.0300  0.6926
 9262TIP3    H149277   4.228   6.051  10.852 -1.3923  2.5644  1.3097
 9262TIP3    H249278   4.279   6.028  10.992 -1.6005  3.7244  1.5827
 9263TIP3   OH249279   1.843   4.030  15.391  0.0955 -0.2117 -0.1225
 9263TIP3    H149280   1.838   4.105  15.332 -1.9236  0.2653  0.5713
 9263TIP3    H249281   1.874   4.065  15.474  1.1298 -0.5492 -0.3472
 9264TIP3   OH249282   2.209   3.275  11.536  0.5798 -0.1571 -0.8649
 9264TIP3    H149283   2.238   3.314  11.453  0.0431  2.0806 -0.0753
 9264TIP3    H249284   2.140   3.214  11.510  0.1377  0.8010 -2.0555
 9265TIP3   OH249285   4.198   5.237   1.111  0.0778  0.0489 -0.0838
 9265TIP3    H149286   4.214   5.289   1.189 -0.3316  1.1622 -0.7286
 9265TIP3    H249287   4.280   5.242   1.062 -0.6249  1.8957 -1.1608
 9266TIP3   OH249288   5.509   2.712  13.103 -1.3035 -0.0865 -0.1987
 9266TIP3    H149289   5.425   2.741  13.138  0.1444  1.1573  2.5877
 9266TIP3    H249290   5.555   2.793  13.081 -0.1462 -0.6456  0.0997
 9267TIP3   OH249291   2.191   3.613   4.925  0.1053 -0.6258 -0.0664
 9267TIP3    H149292   2.280   3.581   4.915 -0.2027 -1.7999  0.7532
 9267TIP3    H249293   2.144   3.541   4.968 -0.8841  0.5204  0.8488
 9268TIP3   OH249294   4.783   5.028   6.464 -0.3939 -0.5015  0.1221
 9268TIP3    H149295   4.763   5.116   6.433  0.7959 -0.0178  0.6630
 9268TIP3    H249296   4.737   5.020   6.548  0.8080  0.2290  0.8734
 9269TIP3   OH249297   5.434   2.256   4.300  0.0298 -0.7016  0.4838
 9269TIP3    H149298   5.517   2.250   4.254  0.5241  1.4659  0.9651
 9269TIP3    H249299   5.454   2.235   4.391 -0.2349 -1.4381  0.3829
 9270TIP3   OH249300   6.063   5.253  14.346  0.2379  0.0890 -0.7546
 9270TIP3    H149301   6.134   5.215  14.293  0.9551  0.4018 -0.0434
 9270TIP3    H249302   5.984   5.239  14.294  0.8891  0.1784 -1.8020
 9271TIP3   OH249303   2.345   4.193   1.538 -0.3537 -0.1004 -0.2417
 9271TIP3    H149304   2.283   4.123   1.516 -2.1872  1.3722  0.0090
 9271TIP3    H249305   2.290   4.266   1.566  1.5240  1.2616  0.0878
 9272TIP3   OH249306   0.676   2.466  12.941 -0.2119 -0.2381 -0.8439
 9272TIP3    H149307   0.621   2.393  12.970 -1.6784  0.5053 -1.6396
 9272TIP3    H249308   0.614   2.536  12.919  1.1531  1.4364  0.3276
 9273TIP3   OH249309   2.364   0.950   1.813 -0.1138  0.2625 -0.6613
 9273TIP3    H149310   2.390   0.990   1.896 -1.4556 -2.1428  1.0374
 9273TIP3    H249311   2.376   0.856   1.826 -2.8011 -0.4133 -2.2074
 9274TIP3   OH249312   2.892   4.739   0.620 -0.2925 -0.8316 -0.0604
 9274TIP3    H149313   2.889   4.817   0.564 -1.0321 -1.9016 -1.5745
 9274TIP3    H249314   2.807   4.738   0.663 -1.0580 -1.8048 -1.5188
 9275TIP3   OH249315   0.152   6.259   1.801  0.2316 -0.1855  0.4383
 9275TIP3    H149316   0.238   6.254   1.844  2.1497 -2.5080 -3.1254
 9275TIP3    H249317   0.091   6.220   1.863  2.1760 -0.5804  2.2179
 9276TIP3   OH249318   0.879   4.021  16.245  0.4276 -0.7079  0.1460
 9276TIP3    H149319   0.805   4.061  16.289 -0.4685 -1.1695 -0.8956
 9276TIP3    H249320   0.924   3.970  16.313 -0.0653 -0.2336  0.8319
 9277TIP3   OH249321   0.286   0.633  15.862  0.0807  0.5819 -0.3210
 9277TIP3    H149322   0.302   0.562  15.924 -0.0390  0.3212 -0.5887
 9277TIP3    H249323   0.373   0.664  15.838  0.1470  0.2441 -0.5271
 9278TIP3   OH249324   4.057   3.254  11.517 -0.3282 -0.3450 -0.1842
 9278TIP3    H149325   4.017   3.246  11.430 -1.0901  1.0589  0.0057
 9278TIP3    H249326   4.127   3.189  11.517  1.1565  1.1030 -2.6728
 9279TIP3   OH249327   4.232   0.052  16.924  0.1165  0.2991 -0.4521
 9279TIP3    H149328   4.327   0.057  16.939  0.0441 -0.0328  0.1421
 9279TIP3    H249329   4.195   0.036  17.011 -0.3705 -1.0181 -0.8726
 9280TIP3   OH249330   4.312   2.572   5.563  0.1689  0.2692 -0.6956
 9280TIP3    H149331   4.238   2.517   5.538  0.9660 -1.3532  0.3520
 9280TIP3    H249332   4.280   2.624   5.637 -0.2410  0.3548 -0.9335
 9281TIP3   OH249333   1.564   1.099   1.620  0.0038  0.4218  0.1700
 9281TIP3    H149334   1.500   1.114   1.551 -1.7087 -1.3549  1.2781
 9281TIP3    H249335   1.647   1.089   1.573 -1.4720 -3.5810 -2.0690
 9282TIP3   OH249336   2.754   4.889   2.502 -0.1668 -0.4121  0.2299
 9282TIP3    H149337   2.827   4.899   2.564  1.4836 -1.9588 -1.3401
 9282TIP3    H249338   2.759   4.966   2.446  0.7507 -0.8568 -0.3197
 9283TIP3   OH249339   6.458   3.317  11.752  0.5807 -0.1374  0.2670
 9283TIP3    H149340   6.443   3.223  11.750  3.5764 -0.6910 -0.2091
 9283TIP3    H249341   6.512   3.335  11.675  1.9064  1.5809  1.5134
 9284TIP3   OH249342   3.523   3.704   5.615  0.4710  0.3568  0.0859
 9284TIP3    H149343   3.446   3.651   5.633  0.3000  0.6493  0.2189
 9284TIP3    H249344   3.498   3.792   5.640  1.4128  0.1905  1.7591
 9285TIP3   OH249345   2.386   3.941   0.279 -0.6575 -0.9813  0.3789
 9285TIP3    H149346   2.348   3.992   0.207 -0.2309 -1.2345 -0.0331
 9285TIP3    H249347   2.421   3.863   0.236  1.1559 -0.3244  0.6053
 9286TIP3   OH249348   0.606   0.340  15.081 -0.0278 -0.2310 -0.2671
 9286TIP3    H149349   0.590   0.435  15.073 -1.7277 -0.4169  0.4847
 9286TIP3    H249350   0.518   0.302  15.087  0.5388 -2.0768 -2.4754
 9287TIP3   OH249351   6.653   3.154  13.792 -0.1749 -0.1567  0.0214
 9287TIP3    H149352   6.631   3.144  13.884 -1.2235 -2.4217 -0.4153
 9287TIP3    H249353   6.692   3.070  13.767 -0.0541  0.3530 -1.6427
 9288TIP3   OH249354   5.880   6.671  16.537 -0.2679  0.3110  0.3820
 9288TIP3    H149355   5.941   6.600  16.557 -1.0412 -0.7915 -0.9888
 9288TIP3    H249356   5.801   6.650  16.587 -1.0194 -0.6449 -1.1285
 9289TIP3   OH249357   6.373   5.908   0.094  0.2343 -0.3902 -0.7480
 9289TIP3    H149358   6.284   5.918   0.061  0.0647 -0.3054 -0.2631
 9289TIP3    H249359   6.363   5.883   0.185  0.7042 -0.6712 -0.7664
 9290TIP3   OH249360   3.999   3.570  16.083 -0.1522 -0.0336  0.1112
 9290TIP3    H149361   4.031   3.632  16.148 -0.2388 -0.3168  0.4283
 9290TIP3    H249362   4.075   3.553  16.027  0.6268 -1.6202  1.5649
 9291TIP3   OH249363   3.944   3.663   3.642 -0.0440 -0.6012  0.1700
 9291TIP3    H149364   3.971   3.658   3.733  0.0703 -1.5675  0.0907
 9291TIP3    H249365   4.010   3.718   3.600 -1.5574  2.1789  1.1849
 9292TIP3   OH249366   6.521   0.157   3.753 -0.4508 -0.0816 -0.0170
 9292TIP3    H149367   6.543   0.066   3.774 -2.2334 -0.2608  1.3135
 9292TIP3    H249368   6.428   0.164   3.771 -0.4342  1.9206 -0.4784
 9293TIP3   OH249369   1.506   2.705   5.634 -0.4014 -0.5964  0.2319
 9293TIP3    H149370   1.428   2.689   5.687  0.2424 -0.2561  1.3188
 9293TIP3    H249371   1.527   2.619   5.597 -1.1357 -0.7444  0.1423
 9294TIP3   OH249372   2.739   0.995   4.521 -0.1869  0.5234 -0.1943
 9294TIP3    H149373   2.675   1.025   4.585  0.9960  2.6934  0.0447
 9294TIP3    H249374   2.717   1.043   4.441 -0.7977 -1.1280 -1.0639
 9295TIP3   OH249375   5.863   5.791   0.404 -1.0198 -0.1371  0.1843
 9295TIP3    H149376   5.949   5.823   0.432 -1.4735 -0.1019  1.6058
 9295TIP3    H249377   5.834   5.854   0.338 -0.4683  0.5163  0.5558
 9296TIP3   OH249378   5.530   2.994   2.719  0.4037 -0.2689  0.0611
 9296TIP3    H149379   5.585   2.974   2.795 -1.2028  2.1022  1.9850
 9296TIP3    H249380   5.443   2.965   2.744 -0.0510 -0.0656 -1.1933
 9297TIP3   OH249381   3.288   1.570  11.043  0.1053 -0.1165 -0.2337
 9297TIP3    H149382   3.203   1.559  11.001 -0.0223 -1.7565  0.3929
 9297TIP3    H249383   3.348   1.519  10.988  0.0067 -1.9628  1.2733
 9298TIP3   OH249384   3.176   5.414  15.875 -0.3733  0.2802  0.0953
 9298TIP3    H149385   3.224   5.376  15.948 -0.8611  0.1136  0.3350
 9298TIP3    H249386   3.142   5.496  15.909  0.7783  1.0186 -0.4576
 9299TIP3   OH249387   4.717   6.339  16.662  0.0842  0.4474 -0.0316
 9299TIP3    H149388   4.745   6.427  16.639  3.1020 -0.6851 -1.1100
 9299TIP3    H249389   4.676   6.305  16.583 -0.9877  0.7756  0.3527
 9300TIP3   OH249390   3.091   4.284  16.077  0.3552  0.0570  0.2216
 9300TIP3    H149391   3.112   4.220  16.009 -0.0704  1.0437 -0.8795
 9300TIP3    H249392   3.173   4.298  16.124  0.4359 -1.3285  0.5278
 9301TIP3   OH249393   4.016   3.385   1.451  0.4943 -0.2700  0.1016
 9301TIP3    H149394   3.931   3.392   1.407  0.4956 -2.9319 -0.4587
 9301TIP3    H249395   4.004   3.432   1.534 -0.9152  0.9706 -0.7557
 9302TIP3   OH249396   3.468   5.137   0.385 -0.4246 -0.1939 -0.1511
 9302TIP3    H149397   3.492   5.046   0.401 -0.6833 -0.5022 -1.4097
 9302TIP3    H249398   3.537   5.170   0.328  0.1414  0.6788  1.0067
 9303TIP3   OH249399   4.369   3.425  16.773  0.5965  0.4422  0.7865
 9303TIP3    H149400   4.395   3.356  16.712  0.6841  0.6983  0.5316
 9303TIP3    H249401   4.361   3.380  16.858  0.4413  0.0804  0.5818
 9304TIP3   OH249402   2.488   3.756  13.891  0.0241  0.0761 -0.2045
 9304TIP3    H149403   2.430   3.684  13.864 -0.4056 -0.3919  1.7812
 9304TIP3    H249404   2.428   3.821  13.928  0.5142  1.0183 -1.0389
 9305TIP3   OH249405   1.229   3.067   3.692 -0.2370 -0.2078  0.4359
 9305TIP3    H149406   1.183   3.119   3.758 -0.7693 -2.3866  1.9088
 9305TIP3    H249407   1.164   3.054   3.623 -0.7577 -0.5168  0.9732
 9306TIP3   OH249408   6.465   2.623  12.002  0.3334  0.0334  0.4994
 9306TIP3    H149409   6.468   2.531  12.027  0.9345 -0.1121 -0.0851
 9306TIP3    H249410   6.418   2.624  11.919 -0.4910  0.3707  0.9525
 9307TIP3   OH249411   0.359   6.596  12.768  0.2744 -0.6916 -0.3691
 9307TIP3    H149412   0.409   6.514  12.762 -0.2716 -1.0156 -0.6668
 9307TIP3    H249413   0.400   6.654  12.704  1.9647  0.0098  1.2657
 9308TIP3   OH249414   0.600   2.663   5.998  0.1414  0.1127  0.1108
 9308TIP3    H149415   0.530   2.718   6.035  0.3535  1.1180 -0.9602
 9308TIP3    H249416   0.656   2.643   6.073 -1.7817 -1.5359  1.2220
 9309TIP3   OH249417   6.653   0.360  15.792 -0.4784 -0.1810  0.2333
 9309TIP3    H149418   6.592   0.425  15.756  0.0729  0.0756 -0.2440
 9309TIP3    H249419   6.646   0.372  15.887  2.3685  3.2746  0.2104
 9310TIP3   OH249420   6.182   1.707  15.392 -0.0007  0.0520  0.0301
 9310TIP3    H149421   6.233   1.632  15.361  1.2736  0.5641  0.8131
 9310TIP3    H249422   6.094   1.671  15.409  1.0007 -1.6556  1.9586
 9311TIP3   OH249423   2.348   2.378  15.533 -0.2065 -0.3856 -0.0358
 9311TIP3    H149424   2.311   2.290  15.522 -1.3515  0.0354  0.3822
 9311TIP3    H249425   2.390   2.397  15.449 -1.0188 -0.8401 -0.5548
 9312TIP3   OH249426   4.698   4.800  12.265 -0.1041  0.0665  0.8220
 9312TIP3    H149427   4.766   4.841  12.319  0.4687 -2.3559  2.1039
 9312TIP3    H249428   4.721   4.707  12.264 -2.6574 -0.6396  0.1501
 9313TIP3   OH249429   4.669   6.283   3.186  0.6135 -0.0814  0.7841
 9313TIP3    H149430   4.599   6.308   3.246 -0.2213  0.4828 -0.3767
 9313TIP3    H249431   4.662   6.188   3.178 -1.6969  0.1587 -1.2123
 9314TIP3   OH249432   4.603   5.609   0.675 -0.6508 -0.5162 -0.4364
 9314TIP3    H149433   4.571   5.610   0.765 -0.3934 -0.2795 -0.3451
 9314TIP3    H249434   4.636   5.520   0.662 -0.6088 -0.5252 -0.2660
 9315TIP3   OH249435   4.977   0.614   1.360 -0.5958  0.1944  0.2002
 9315TIP3    H149436   4.943   0.703   1.352 -0.3544  0.2484 -0.2765
 9315TIP3    H249437   4.909   0.566   1.408 -0.4470  0.7882  1.0400
 9316TIP3   OH249438   3.711   6.133  13.266 -0.6588  0.3373  0.6943
 9316TIP3    H149439   3.687   6.223  13.287 -1.9193 -0.0038  0.8076
 9316TIP3    H249440   3.629   6.084  13.275  0.2195 -1.0098  1.7159
 9317TIP3   OH249441   1.697   1.729  12.812 -0.0403 -0.0029  0.1886
 9317TIP3    H149442   1.709   1.818  12.778 -0.4847 -0.2304 -0.5975
 9317TIP3    H249443   1.785   1.699  12.834  0.3334 -0.0012 -1.2119
 9318TIP3   OH249444   2.102   1.743   2.727  0.6590  0.4527  0.6609
 9318TIP3    H149445   2.189   1.712   2.701  0.3672 -0.1401  0.3628
 9318TIP3    H249446   2.043   1.677   2.693 -0.0310  1.5668 -0.4157
 9319TIP3   OH249447   6.354   2.480  13.915 -0.2688 -0.0543  0.2375
 9319TIP3    H149448   6.392   2.567  13.904 -0.1596  0.0103  1.0410
 9319TIP3    H249449   6.364   2.438  13.830 -0.1343  0.6458 -0.0966
 9320TIP3   OH249450   3.396   1.771   2.129 -0.5078 -0.3628 -0.1264
 9320TIP3    H149451   3.406   1.698   2.067  0.1665 -1.5898  1.3539
 9320TIP3    H249452   3.475   1.824   2.116 -0.1870 -0.8179 -0.0636
 9321TIP3   OH249453   0.854   5.122  14.849 -0.4168  0.7399 -0.2672
 9321TIP3    H149454   0.865   5.204  14.800 -0.1869 -0.3686 -2.1633
 9321TIP3    H249455   0.762   5.100  14.838 -0.2409  0.2000 -0.6506
 9322TIP3   OH249456   0.841   4.278  14.358 -0.0876  1.0657 -0.6167
 9322TIP3    H149457   0.775   4.211  14.344  0.7003 -0.2938  1.6361
 9322TIP3    H249458   0.924   4.237  14.331  0.3904  1.0897  0.7140
 9323TIP3   OH249459   6.202   5.874  13.185 -0.4308 -0.4815  0.0018
 9323TIP3    H149460   6.240   5.826  13.258 -2.0255  0.1032  1.2825
 9323TIP3    H249461   6.273   5.882  13.122  0.6895 -1.9360  1.0188
 9324TIP3   OH249462   3.604   4.596   2.549  0.1785  0.3063 -0.5946
 9324TIP3    H149463   3.570   4.663   2.608  1.5197  0.2320  0.3068
 9324TIP3    H249464   3.634   4.645   2.472 -0.2502  0.5583 -0.6062
 9325TIP3   OH249465   1.846   6.742  16.530 -0.0804  0.0124 -0.1507
 9325TIP3    H149466   1.868   6.817  16.586 -0.0451  1.1001 -1.5461
 9325TIP3    H249467   1.909   6.748  16.458 -1.5268  0.0180 -1.4697
 9326TIP3   OH249468   1.023   3.000   0.548  0.1798  0.1085  0.2140
 9326TIP3    H149469   1.097   3.055   0.525  0.7524 -0.3386  0.9518
 9326TIP3    H249470   0.970   3.053   0.608 -0.9118  0.9870 -1.4454
 9327TIP3   OH249471   2.854   4.598  16.230  0.5230 -0.2795  0.7548
 9327TIP3    H149472   2.939   4.641  16.240  0.0466  0.9796 -0.3302
 9327TIP3    H249473   2.797   4.666  16.194 -0.0838 -2.0138 -1.7898
 9328TIP3   OH249474   4.310   0.150  13.612 -0.2229  0.5893  0.5139
 9328TIP3    H149475   4.267   0.089  13.671 -1.6588 -0.5891 -1.6357
 9328TIP3    H249476   4.245   0.219  13.596  0.1635  0.9198  0.3335
 9329TIP3   OH249477   3.285   5.526  16.141  0.2586  0.0549 -0.1801
 9329TIP3    H149478   3.336   5.446  16.150  2.0725  1.3124  1.4628
 9329TIP3    H249479   3.326   5.588  16.201 -1.7301  1.9154 -0.6161
 9330TIP3   OH249480   5.920   4.933  15.352 -0.2018  0.5100  0.4164
 9330TIP3    H149481   5.918   4.923  15.447 -1.0120 -0.1149  0.3391
 9330TIP3    H249482   5.879   5.018  15.336  2.4510  1.9838  0.7709
 9331TIP3   OH249483   4.926   6.006   4.102 -0.3889  0.3621  0.0918
 9331TIP3    H149484   4.887   5.985   4.017  0.8854 -1.7520 -0.0231
 9331TIP3    H249485   5.017   6.029   4.082 -0.3769  0.9813  0.7967
 9332TIP3   OH249486   3.572   6.691   1.232 -0.7029  0.1665 -0.4226
 9332TIP3    H149487   3.540   6.657   1.149 -0.0083 -1.4862 -0.0542
 9332TIP3    H249488   3.503   6.669   1.295  0.4283 -2.1446  0.1142
 9333TIP3   OH249489   4.256   0.055  10.802  0.8871 -0.0406  0.6932
 9333TIP3    H149490   4.169   0.035  10.836  1.1661 -0.1316  1.3866
 9333TIP3    H249491   4.314  -0.005  10.849  1.0897 -1.5212 -1.3246
 9334TIP3   OH249492   5.801   0.495  10.394  0.2379  0.1993  0.4501
 9334TIP3    H149493   5.769   0.583  10.414 -0.7582  0.1678 -0.8529
 9334TIP3    H249494   5.885   0.510  10.350 -0.0991  0.5335 -0.0969
 9335TIP3   OH249495   1.105   6.564  15.878  0.5099 -0.0350  0.1518
 9335TIP3    H149496   1.174   6.626  15.899  0.4700  0.3269 -0.7417
 9335TIP3    H249497   1.040   6.615  15.829 -0.1910 -0.4661  0.6016
 9336TIP3   OH249498   6.683   1.153   3.155  0.4023  0.0757  0.2111
 9336TIP3    H149499   6.676   1.234   3.205 -1.0463 -0.4751  0.9655
 9336TIP3    H249500   6.648   1.086   3.213 -1.4610 -0.5760 -1.5309
 9337TIP3   OH249501   2.149   4.629   5.349 -0.3574 -0.4306 -0.1015
 9337TIP3    H149502   2.141   4.638   5.255 -0.1149  0.1729 -0.0647
 9337TIP3    H249503   2.222   4.568   5.361 -0.3581 -0.4702 -0.3028
 9338TIP3   OH249504   4.914   2.694   5.714 -0.5244  0.2292  0.2345
 9338TIP3    H149505   5.004   2.681   5.745 -0.5596  2.8084  1.7210
 9338TIP3    H249506   4.874   2.607   5.719  1.6836 -0.8578  0.1353
 9339TIP3   OH249507   3.257   1.111   1.289 -0.5886  0.4738 -0.2239
 9339TIP3    H149508   3.324   1.092   1.223 -0.5067  1.1894 -0.3625
 9339TIP3    H249509   3.301   1.169   1.351 -0.7744  0.0968  0.2617
 9340TIP3   OH249510   0.947   3.445  10.411 -0.1716 -0.2493  0.6636
 9340TIP3    H149511   0.908   3.358  10.418  0.6152 -0.6570  0.0609
 9340TIP3    H249512   1.032   3.438  10.456 -0.1733  0.2574  0.7616
 9341TIP3   OH249513   1.870   1.633   2.892 -0.2766  0.1677 -0.3146
 9341TIP3    H149514   1.856   1.696   2.963  0.6216  0.2671 -0.2056
 9341TIP3    H249515   1.961   1.604   2.904  0.3029  1.0722 -2.0982
 9342TIP3   OH249516   4.446   5.008  10.641  0.0350  0.2519 -0.4466
 9342TIP3    H149517   4.379   4.939  10.641  0.6809 -0.3942 -0.6120
 9342TIP3    H249518   4.502   4.987  10.716  0.4475  0.3817 -0.7133
 9343TIP3   OH249519   5.913   0.486   3.391  0.3026  0.5821  0.5803
 9343TIP3    H149520   5.892   0.566   3.440  0.3235 -0.2249  1.9499
 9343TIP3    H249521   5.869   0.416   3.439 -2.4197  0.0728 -2.3607
 9344TIP3   OH249522   2.390   6.401   2.618  0.7350  0.1479 -0.0367
 9344TIP3    H149523   2.399   6.462   2.544 -0.5862 -0.0616 -0.3981
 9344TIP3    H249524   2.427   6.319   2.586 -1.9934 -0.6526 -1.4192
 9345TIP3   OH249525   5.815   1.488   3.039 -0.3104 -0.6199 -0.4695
 9345TIP3    H149526   5.874   1.559   3.013 -1.5064  0.5480 -0.0969
 9345TIP3    H249527   5.873   1.422   3.078  0.8557  0.0244 -1.0478
 9346TIP3   OH249528   2.950   1.319   0.864  0.1881  0.5744 -0.2135
 9346TIP3    H149529   2.862   1.340   0.894  0.2907  0.8071 -0.0671
 9346TIP3    H249530   3.002   1.397   0.885  1.1928 -0.7560  2.8249
 9347TIP3   OH249531   6.670   3.387   5.939  0.2923 -0.1154  0.3399
 9347TIP3    H149532   6.603   3.431   5.887 -1.9830  1.2194  4.0241
 9347TIP3    H249533   6.642   3.295   5.941 -0.0099 -0.0392 -0.1802
 9348TIP3   OH249534   1.145   4.048   2.342  0.1679 -0.3364  0.3300
 9348TIP3    H149535   1.098   4.012   2.417 -1.2650  1.5078  0.3962
 9348TIP3    H249536   1.211   4.106   2.380  0.7590 -0.8955  0.1791
 9349TIP3   OH249537   1.338   4.354   2.291  0.9637  0.7297  0.5018
 9349TIP3    H149538   1.374   4.300   2.362  1.0880  0.3609  0.1566
 9349TIP3    H249539   1.384   4.438   2.300  0.7200  0.8112  1.0814
 9350TIP3   OH249540   0.099   2.352  16.269 -0.6980  0.1929 -0.2502
 9350TIP3    H149541   0.137   2.351  16.357 -0.5606 -0.6645 -0.3104
 9350TIP3    H249542   0.156   2.295  16.218 -1.0946  0.2514 -0.7592
 9351TIP3   OH249543   3.156   5.012  16.998 -0.1505  0.7542  0.4577
 9351TIP3    H149544   3.081   5.072  16.999 -0.3577  0.5275  2.1986
 9351TIP3    H249545   3.118   4.926  17.012  0.4111  0.6566  1.5264
 9352TIP3   OH249546   4.956   5.681   4.699  0.3271 -0.1344 -0.1685
 9352TIP3    H149547   4.969   5.674   4.794  0.1527 -2.9372 -0.2604
 9352TIP3    H249548   5.039   5.715   4.666  0.4634  0.6784  0.9591
 9353TIP3   OH249549   5.864   6.181  12.674  0.8282 -0.2350  0.2647
 9353TIP3    H149550   5.839   6.191  12.583 -0.1012 -0.2469  0.5101
 9353TIP3    H249551   5.783   6.159  12.720  1.6003 -2.2386  0.7972
 9354TIP3   OH249552   1.471   5.565  16.735 -0.0338 -0.3276  0.3268
 9354TIP3    H149553   1.443   5.500  16.670  1.5861 -1.7049  0.9201
 9354TIP3    H249554   1.390   5.608  16.763 -1.0351 -1.3636 -0.8388
 9355TIP3   OH249555   2.550   1.491  13.242 -0.1426  0.3088 -0.3023
 9355TIP3    H149556   2.488   1.493  13.315 -0.8070 -0.0142 -0.8458
 9355TIP3    H249557   2.634   1.513  13.281 -0.6235  0.9101  0.4262
 9356TIP3   OH249558   3.069   5.564   1.162  0.9695 -0.5926  0.0484
 9356TIP3    H149559   3.098   5.652   1.184 -1.9733  0.0416  1.8573
 9356TIP3    H249560   3.040   5.571   1.071 -2.5842  1.4265  1.1562
 9357TIP3   OH249561   4.431   2.831   0.532 -0.4515  0.6365  0.1856
 9357TIP3    H149562   4.484   2.892   0.585 -0.3953 -0.3667  1.3310
 9357TIP3    H249563   4.495   2.772   0.493 -0.6406  0.0961  0.6860
 9358TIP3   OH249564   3.449   1.674   2.513  0.4391 -0.8497  0.6590
 9358TIP3    H149565   3.424   1.642   2.599 -1.2978  0.6854  0.7599
 9358TIP3    H249566   3.367   1.700   2.471  1.5713  2.1743  0.0726
 9359TIP3   OH249567   5.912   6.499  17.137  0.0732  0.0317  0.1839
 9359TIP3    H149568   5.980   6.449  17.182  0.3097 -0.2296 -0.4501
 9359TIP3    H249569   5.917   6.586  17.177  1.5076  0.3314 -0.5618
 9360TIP3   OH249570   5.161   0.094  15.515 -0.0350  0.0149 -0.3656
 9360TIP3    H149571   5.122   0.160  15.458  2.1943  1.7181 -0.0131
 9360TIP3    H249572   5.086   0.057  15.562 -1.7712 -0.3866 -3.2167
 9361TIP3   OH249573   5.887   1.509   0.140 -0.8260 -0.5303  0.7189
 9361TIP3    H149574   5.843   1.565   0.203  0.7140  0.0015  1.3769
 9361TIP3    H249575   5.824   1.438   0.123 -2.6110  1.0982  0.2286
 9362TIP3   OH249576   5.499   4.306   3.596  0.6498  0.3715  0.7596
 9362TIP3    H149577   5.457   4.350   3.522  2.7847  0.0047 -0.7821
 9362TIP3    H249578   5.532   4.378   3.650  0.6211  0.6718  0.3885
 9363TIP3   OH249579   2.536   6.611   1.746 -0.4080  0.8373  0.7034
 9363TIP3    H149580   2.518   6.702   1.768  0.2972  1.2543 -0.3277
 9363TIP3    H249581   2.452   6.566   1.756 -0.5924  1.4397  1.9466
 9364TIP3   OH249582   6.102   3.028   1.097  0.5229 -0.2927  0.0089
 9364TIP3    H149583   6.029   3.044   1.157  0.4023  0.3958 -0.3151
 9364TIP3    H249584   6.176   3.076   1.135  0.1765  1.0597 -0.9287
 9365TIP3   OH249585   4.261   0.167  12.823 -0.1107  0.6420 -0.2914
 9365TIP3    H149586   4.220   0.237  12.773  1.9236  1.7926 -0.4793
 9365TIP3    H249587   4.192   0.137  12.883 -1.7267  1.1813 -1.8034
 9366TIP3   OH249588   2.774   0.467  10.893 -0.2281  0.0663 -0.0157
 9366TIP3    H149589   2.796   0.417  10.815 -2.7289  0.5371 -1.1174
 9366TIP3    H249590   2.786   0.405  10.965  0.2526 -0.9851 -0.9609
 9367TIP3   OH249591   3.275   0.290   6.618 -0.1077 -0.2355  0.3659
 9367TIP3    H149592   3.294   0.378   6.649  3.5841 -0.0857 -1.7563
 9367TIP3    H249593   3.254   0.301   6.525 -2.7297 -1.3839  0.7440
 9368TIP3   OH249594   2.833   2.434  12.703  0.1207  0.5657  0.1495
 9368TIP3    H149595   2.892   2.359  12.696  0.1608  0.3362  2.3926
 9368TIP3    H249596   2.840   2.477  12.618  2.2844 -0.3559 -0.2174
 9369TIP3   OH249597   0.032   5.614   4.212  0.3909 -0.3440 -0.0747
 9369TIP3    H149598  -0.006   5.568   4.287 -4.0236 -0.0848 -1.8444
 9369TIP3    H249599   0.023   5.707   4.235 -0.9949 -0.2639 -0.8297
 9370TIP3   OH249600   6.467   3.076  11.495 -0.1182  0.0497  0.0232
 9370TIP3    H149601   6.393   3.063  11.554  0.8686  0.2035  1.3668
 9370TIP3    H249602   6.439   3.146  11.436 -1.1681 -0.1478  0.2680
 9371TIP3   OH249603   1.611   5.921  11.568 -0.0213  0.3020  0.0264
 9371TIP3    H149604   1.565   5.856  11.514 -0.9305 -0.1464  1.2850
 9371TIP3    H249605   1.643   5.871  11.643 -0.0028  1.1600  0.6031
 9372TIP3   OH249606   0.959   0.421   5.899 -0.2503 -0.6948  0.6203
 9372TIP3    H149607   0.895   0.471   5.949 -1.3507 -1.1736 -0.2787
 9372TIP3    H249608   0.907   0.368   5.838  1.0143  1.0131 -2.1777
 9373TIP3   OH249609   3.306   0.732  14.793  0.4628  0.0570  0.2283
 9373TIP3    H149610   3.331   0.736  14.885 -0.5062 -0.2578  0.5277
 9373TIP3    H249611   3.247   0.656  14.788 -0.5690  0.8585 -0.3606
 9374TIP3   OH249612   1.800   0.349   2.014 -0.0978 -0.2533 -0.0083
 9374TIP3    H149613   1.886   0.389   2.004  0.4501 -1.2060  0.7362
 9374TIP3    H249614   1.801   0.276   1.952 -0.5843  0.0544 -0.3888
 9375TIP3   OH249615   5.691   4.500   3.527 -0.4632 -0.2363 -0.0447
 9375TIP3    H149616   5.657   4.439   3.461 -0.0413 -1.1446  0.5547
 9375TIP3    H249617   5.784   4.481   3.531 -0.4158  0.0984  0.5156
 9376TIP3   OH249618   2.980   3.328  11.682  0.8023 -0.0218  0.0070
 9376TIP3    H149619   2.944   3.331  11.771 -1.3591 -1.0194 -0.7597
 9376TIP3    H249620   2.983   3.419  11.653  3.0395  0.5004  1.5831
 9377TIP3   OH249621   6.196   0.203  17.185  0.7035 -0.5870 -0.5012
 9377TIP3    H149622   6.117   0.257  17.181 -0.0420 -1.5762  0.2630
 9377TIP3    H249623   6.191   0.147  17.108 -0.3258 -1.8972  0.4523
 9378TIP3   OH249624   1.438   6.118  15.026  0.1857  0.2234  0.0102
 9378TIP3    H149625   1.526   6.080  15.019 -0.6498 -2.0577  0.8117
 9378TIP3    H249626   1.419   6.116  15.120 -0.5633  1.0892 -0.1129
 9379TIP3   OH249627   2.698   0.340   0.288  0.0911 -0.0091  0.1946
 9379TIP3    H149628   2.789   0.347   0.259 -0.2097 -0.0663 -0.7889
 9379TIP3    H249629   2.697   0.264   0.346  0.4046 -0.8524 -0.8796
 9380TIP3   OH249630   2.155   5.113   3.344  0.2890  0.0489  0.1608
 9380TIP3    H149631   2.206   5.076   3.272  2.8354  0.7689  1.4885
 9380TIP3    H249632   2.097   5.177   3.302  2.2312  0.9990 -1.2138
 9381TIP3   OH249633   3.630   6.724  14.044  0.6304  0.0689  0.3117
 9381TIP3    H149634   3.589   6.720  13.957  1.7435  1.7988 -0.3528
 9381TIP3    H249635   3.710   6.775  14.030  0.9075  0.2540  2.3360
 9382TIP3   OH249636   0.702   3.624  13.202  0.0334 -0.0320 -0.2020
 9382TIP3    H149637   0.656   3.561  13.258 -0.0853 -0.9863 -1.3543
 9382TIP3    H249638   0.726   3.695  13.262  0.4720 -1.3167  1.1932
 9383TIP3   OH249639   5.610   2.957  12.407 -0.0517  0.5266  0.0290
 9383TIP3    H149640   5.676   2.892  12.433  0.2320  0.7800 -0.0416
 9383TIP3    H249641   5.542   2.906  12.363 -0.5475  0.1019  1.2715
 9384TIP3   OH249642   3.369   2.143  14.178 -0.3313 -0.4256  0.3417
 9384TIP3    H149643   3.447   2.155  14.231  0.7322  0.3185 -1.2989
 9384TIP3    H249644   3.390   2.070  14.120 -1.4111 -1.1441  0.8195
 9385TIP3   OH249645   0.023   0.463  12.103  0.0387 -0.1546 -0.4246
 9385TIP3    H149646  -0.020   0.420  12.177  0.7285  0.3369  0.2809
 9385TIP3    H249647   0.078   0.394  12.064  1.5564  0.1688  1.0308
 9386TIP3   OH249648   1.378   6.217   2.648 -0.0251  0.1630  0.0660
 9386TIP3    H149649   1.412   6.128   2.641 -2.2867 -0.6746 -1.4234
 9386TIP3    H249650   1.442   6.271   2.602  1.0587 -0.7866  0.4254
 9387TIP3   OH249651   2.461   5.110  16.516 -0.6114  0.8789  0.5362
 9387TIP3    H149652   2.406   5.046  16.471  0.4312  0.0272  0.4170
 9387TIP3    H249653   2.475   5.179  16.451  0.1338  0.1014 -0.1575
 9388TIP3   OH249654   5.794   1.803  11.340 -0.0510  0.2668  0.2819
 9388TIP3    H149655   5.793   1.780  11.433  0.0574  0.9410  0.4544
 9388TIP3    H249656   5.866   1.866  11.331  1.5163 -1.5774 -0.7101
 9389TIP3   OH249657   5.368   4.430   2.419  0.0542 -0.4259 -0.0796
 9389TIP3    H149658   5.406   4.516   2.440 -0.0601  0.2329 -2.2676
 9389TIP3    H249659   5.275   4.439   2.439  0.0408 -0.0296 -0.3121
 9390TIP3   OH249660   2.927   5.305  13.461  0.2684 -0.4240 -0.1856
 9390TIP3    H149661   2.954   5.238  13.398 -0.6187 -0.9952  0.0227
 9390TIP3    H249662   2.899   5.379  13.408 -1.4645 -1.2760 -0.5402
 9391TIP3   OH249663   3.859   6.007  11.298 -0.2680  0.3254 -0.4488
 9391TIP3    H149664   3.901   6.089  11.325 -0.7150  0.9290 -1.5286
 9391TIP3    H249665   3.793   5.990  11.365 -0.3736  1.0149 -0.3768
 9392TIP3   OH249666   2.910   2.397   1.442  0.5433  0.3235  0.7437
 9392TIP3    H149667   2.970   2.465   1.412  0.6315 -0.2754 -0.4867
 9392TIP3    H249668   2.826   2.441   1.452 -0.1706  0.0841 -3.0135
 9393TIP3   OH249669   4.803   5.007   3.049 -0.4906 -0.1928 -0.5658
 9393TIP3    H149670   4.896   5.032   3.047 -0.2350 -0.8654  0.8872
 9393TIP3    H249671   4.773   5.035   3.136 -2.0711  1.3112 -1.5258
 9394TIP3   OH249672   0.182   3.123  14.885  0.7703 -0.2851 -0.0303
 9394TIP3    H149673   0.140   3.192  14.937 -2.8675 -0.4670 -2.3690
 9394TIP3    H249674   0.180   3.046  14.941 -1.3858 -0.0451  0.3084
 9395TIP3   OH249675   4.580   1.729   2.826 -0.5431 -0.3433 -0.2286
 9395TIP3    H149676   4.532   1.693   2.900 -1.4317  1.7461  0.2795
 9395TIP3    H249677   4.581   1.658   2.762 -0.7719 -1.8048  1.2963
 9396TIP3   OH249678   6.677   2.415   0.773 -0.2521  0.1848 -0.0205
 9396TIP3    H149679   6.763   2.384   0.801 -0.9116  0.2643  2.3608
 9396TIP3    H249680   6.667   2.385   0.683  2.0187 -0.2996 -0.1463
 9397TIP3   OH249681   6.337   5.746  14.684  0.4098 -0.3624 -0.1749
 9397TIP3    H149682   6.322   5.829  14.638 -0.0716 -1.2180 -1.6133
 9397TIP3    H249683   6.366   5.686  14.615  1.8333 -1.1109  1.0302
 9398TIP3   OH249684   3.997   1.235   6.178 -0.2294  0.0978  0.2706
 9398TIP3    H149685   4.089   1.223   6.203 -0.7064  0.0850  2.2009
 9398TIP3    H249686   3.958   1.148   6.188 -0.3891  0.0086 -0.9687
 9399TIP3   OH249687   4.194   1.649   0.088 -0.6874  0.1708  0.0201
 9399TIP3    H149688   4.196   1.596   0.008 -1.7313  0.0621  0.0564
 9399TIP3    H249689   4.284   1.680   0.098 -0.4887 -0.0204 -1.0553
 9400TIP3   OH249690   3.324   2.372  14.882 -0.4399  0.2909  0.3376
 9400TIP3    H149691   3.418   2.369  14.900 -0.6190 -0.9968  1.2300
 9400TIP3    H249692   3.309   2.298  14.824 -0.6091  1.7490 -1.5837
 9401TIP3   OH249693   2.815   1.102  16.344 -0.3394  0.3086 -0.0645
 9401TIP3    H149694   2.729   1.083  16.307 -0.6611 -1.5024  1.4472
 9401TIP3    H249695   2.875   1.046  16.296 -0.0011  1.3946 -0.9516
 9402TIP3   OH249696   2.072   5.524   1.390 -0.0337 -0.0849 -0.0432
 9402TIP3    H149697   2.156   5.525   1.436  1.2655  1.0076 -2.2532
 9402TIP3    H249698   2.020   5.591   1.434  1.8297  2.2525 -1.1626
 9403TIP3   OH249699   2.106   0.578   0.942 -0.0971 -0.0409  0.1358
 9403TIP3    H149700   2.058   0.509   0.897 -0.3031 -0.5401  1.1030
 9403TIP3    H249701   2.038   0.636   0.976 -0.1398 -1.3788  2.5293
 9404TIP3   OH249702   4.567   2.956   1.704 -0.2186 -0.2666  0.0534
 9404TIP3    H149703   4.598   3.046   1.715 -0.8575  0.1177 -1.1087
 9404TIP3    H249704   4.647   2.904   1.694  0.1525  0.1691  0.7165
 9405TIP3   OH249705   4.161   6.718   0.148  0.6027 -0.2676  0.6581
 9405TIP3    H149706   4.072   6.684   0.156  1.2536 -2.3834 -0.2980
 9405TIP3    H249707   4.150   6.813   0.141 -1.7628 -0.5988 -1.8076
 9406TIP3   OH249708   5.344   3.380  12.990  0.3435  0.3752 -0.2722
 9406TIP3    H149709   5.337   3.338  12.904  0.9488 -3.1694  1.2194
 9406TIP3    H249710   5.266   3.436  12.996  0.0223  0.3263 -2.8918
 9407TIP3   OH249711   4.169   4.245   4.683  0.6962  0.3627  0.0231
 9407TIP3    H149712   4.215   4.203   4.756  1.1387 -1.9390 -1.4706
 9407TIP3    H249713   4.199   4.335   4.685  4.4273 -0.7102 -0.1022
 9408TIP3   OH249714   3.741   3.333  14.279 -0.1164  0.2602 -0.4396
 9408TIP3    H149715   3.770   3.281  14.205 -1.5572  1.4543 -1.9286
 9408TIP3    H249716   3.659   3.292  14.308  0.5859 -0.3756  0.7195
 9409TIP3   OH249717   6.151   5.555  16.104 -0.4187 -0.2836 -0.6618
 9409TIP3    H149718   6.129   5.636  16.058  0.7359  1.2109  1.2649
 9409TIP3    H249719   6.238   5.571  16.142 -1.1131 -1.5033  1.6838
 9410TIP3   OH249720   0.030   3.425   5.062 -0.0211  0.7678 -0.4875
 9410TIP3    H149721   0.104   3.462   5.014  0.3197  0.2589 -0.3605
 9410TIP3    H249722   0.029   3.333   5.037 -0.9027  0.8620 -0.8469
 9411TIP3   OH249723   1.372   1.425   0.415 -0.4338 -0.4549  0.7410
 9411TIP3    H149724   1.346   1.349   0.363 -0.8370  0.8122 -1.0045
 9411TIP3    H249725   1.432   1.474   0.359  1.1712 -0.3160  2.4789
 9412TIP3   OH249726   0.615   1.678  11.290 -0.0635 -0.0654 -0.4818
 9412TIP3    H149727   0.525   1.652  11.310 -0.6291  2.3361  0.4583
 9412TIP3    H249728   0.656   1.692  11.375  1.1752 -0.9445 -0.9035
 9413TIP3   OH249729   4.231   5.335   5.216  0.2227 -0.1558  0.1881
 9413TIP3    H149730   4.193   5.417   5.246  3.0269  1.6459 -0.7625
 9413TIP3    H249731   4.163   5.294   5.164 -0.9252  2.1295 -0.2242
 9414TIP3   OH249732   3.304   4.414  14.954  0.7153 -0.9483  0.3305
 9414TIP3    H149733   3.348   4.477  14.898  0.5411 -1.2101 -0.1027
 9414TIP3    H249734   3.287   4.462  15.035 -2.8512  0.8069 -1.2718
 9415TIP3   OH249735   6.681   4.145  12.513  0.5695 -0.0735  0.3934
 9415TIP3    H149736   6.770   4.176  12.531 -0.4517  1.5948  3.2270
 9415TIP3    H249737   6.628   4.224  12.511 -1.2357 -1.1698  1.5921
 9416TIP3   OH249738   1.777   6.743   4.256 -0.9341  0.1409 -0.4357
 9416TIP3    H149739   1.821   6.789   4.327  2.7324 -0.3648 -2.1407
 9416TIP3    H249740   1.789   6.799   4.180  0.3122 -1.7760 -1.7641
 9417TIP3   OH249741   6.525   1.238  13.047 -0.3267  0.5625  0.2089
 9417TIP3    H149742   6.485   1.222  12.961 -1.6399 -1.6423  1.1641
 9417TIP3    H249743   6.505   1.160  13.098  3.7321  0.0463  1.3656
 9418TIP3   OH249744   3.023   0.352   5.812  0.1053 -0.1274 -0.4548
 9418TIP3    H149745   3.060   0.396   5.889  0.3683  1.1098 -1.2457
 9418TIP3    H249746   3.092   0.292   5.783  0.4495  0.2154 -0.3615
 9419TIP3   OH249747   3.996   4.760   6.465  0.1466 -0.4462  0.8668
 9419TIP3    H149748   3.922   4.741   6.407  0.1196  0.0347  0.7427
 9419TIP3    H249749   4.062   4.696   6.440  1.4654  1.8078 -2.0838
 9420TIP3   OH249750   2.889   6.561   1.180 -0.1226  0.2952 -0.2209
 9420TIP3    H149751   2.935   6.619   1.119  0.1501 -0.4256 -0.7052
 9420TIP3    H249752   2.958   6.517   1.229 -0.3247  0.0495 -0.1575
 9421TIP3   OH249753   0.451   2.698  10.454 -0.2503 -0.3358 -0.2225
 9421TIP3    H149754   0.413   2.786  10.455 -0.6449 -0.4570  1.7976
 9421TIP3    H249755   0.379   2.641  10.428 -0.0996 -0.1036 -1.1572
 9422TIP3   OH249756   0.027   2.212  14.053 -0.6673  0.4241 -0.0419
 9422TIP3    H149757  -0.058   2.254  14.066 -0.5185  0.4011  1.1675
 9422TIP3    H249758   0.038   2.156  14.130 -0.2913 -0.8525 -1.0067
 9423TIP3   OH249759   5.711   1.701   4.322  0.5130  0.1876  0.1825
 9423TIP3    H149760   5.728   1.610   4.344 -1.1116 -0.0862  0.4210
 9423TIP3    H249761   5.760   1.751   4.388  0.7796 -0.5206  0.5281
 9424TIP3   OH249762   4.536   4.664  11.535 -0.3238  0.8147 -0.7023
 9424TIP3    H149763   4.545   4.643  11.628  0.7211 -4.0188 -1.6143
 9424TIP3    H249764   4.446   4.638  11.513  0.1402 -0.2497 -1.4171
 9425TIP3   OH249765   0.562   1.654   0.550 -0.1094  0.0481 -0.8225
 9425TIP3    H149766   0.541   1.742   0.582 -1.0886  0.3678 -2.2526
 9425TIP3    H249767   0.653   1.662   0.520  0.7233 -0.1811  1.4665
 9426TIP3   OH249768   1.873   0.201   0.154 -0.2679  0.2245  0.2427
 9426TIP3    H149769   1.885   0.113   0.191 -1.0735  0.5338  1.2903
 9426TIP3    H249770   1.908   0.260   0.221 -0.7335  0.7457  0.0358
 9427TIP3   OH249771   2.370   4.830  13.414  0.4329 -0.1630 -0.1466
 9427TIP3    H149772   2.325   4.840  13.330 -0.5346 -1.2248  0.2197
 9427TIP3    H249773   2.355   4.913  13.459  0.1408  0.0576 -0.6350
 9428TIP3   OH249774   5.499   4.604  15.193  0.3523 -0.0649 -0.2219
 9428TIP3    H149775   5.562   4.591  15.264  0.3066 -2.3922 -0.5183
 9428TIP3    H249776   5.414   4.593  15.235  0.2617  0.2614 -0.3242
 9429TIP3   OH249777   5.684   5.313   0.241 -0.7462 -0.2762 -0.6719
 9429TIP3    H149778   5.601   5.309   0.193 -1.3126 -0.8987  0.3311
 9429TIP3    H249779   5.701   5.223   0.267  1.7964 -0.7316 -3.3401
 9430TIP3   OH249780   0.024   4.625   2.667  0.1442  0.0829  0.3781
 9430TIP3    H149781   0.114   4.637   2.637 -0.7511  0.4363 -2.5123
 9430TIP3    H249782   0.023   4.662   2.755  2.8699 -0.2283  0.6173
 9431TIP3   OH249783   1.837   0.732   0.985 -0.2550 -0.7969 -0.3761
 9431TIP3    H149784   1.852   0.815   0.940  1.1357 -0.5351  0.5228
 9431TIP3    H249785   1.746   0.710   0.964 -1.5013  2.1690  1.2930
 9432TIP3   OH249786   3.741   0.777  15.752 -0.2526 -0.2980 -0.0816
 9432TIP3    H149787   3.668   0.838  15.742  0.1734  0.0322 -1.3749
 9432TIP3    H249788   3.711   0.696  15.711 -0.4686 -0.6861  0.8114
 9433TIP3   OH249789   2.280   1.981   2.697  0.1490  0.1291 -0.0360
 9433TIP3    H149790   2.222   1.950   2.766 -1.6300 -0.8949 -1.8850
 9433TIP3    H249791   2.221   2.025   2.635  1.8560  2.2218 -0.3003
 9434TIP3   OH249792   5.120   6.487   5.101 -0.2389 -0.3063 -0.0288
 9434TIP3    H149793   5.062   6.491   5.026 -0.2251 -0.7426 -0.0639
 9434TIP3    H249794   5.208   6.487   5.064 -0.2367 -0.8736 -0.0313
 9435TIP3   OH249795   4.863   6.330  12.735 -0.3397  0.1303  0.0664
 9435TIP3    H149796   4.876   6.420  12.764 -1.7576 -0.0695  1.4243
 9435TIP3    H249797   4.773   6.327  12.704 -0.5083 -0.9734  0.6309
 9436TIP3   OH249798   3.786   5.800  12.697  0.0718 -0.3700 -0.3264
 9436TIP3    H149799   3.767   5.836  12.611  0.4380 -0.7894 -0.5881
 9436TIP3    H249800   3.842   5.725  12.679  0.8707  0.0586  0.3309
 9437TIP3   OH249801   5.105   3.274  14.436 -0.4022  0.7911 -0.3539
 9437TIP3    H149802   5.042   3.214  14.397  0.0623  1.1359 -1.6841
 9437TIP3    H249803   5.156   3.220  14.497 -0.1943 -0.1071 -1.2939
 9438TIP3   OH249804   5.678   4.922  16.194  0.2372 -0.6623  0.3941
 9438TIP3    H149805   5.756   4.937  16.141 -0.5674 -0.1412 -0.6787
 9438TIP3    H249806   5.678   4.993  16.259 -0.6398  0.8717 -1.1924
 9439TIP3   OH249807   6.182   1.910   6.572  0.4587  0.1946 -0.1192
 9439TIP3    H149808   6.152   1.945   6.488 -0.9604 -0.5237  0.0595
 9439TIP3    H249809   6.271   1.944   6.581  1.0515 -0.5406 -2.3944
 9440TIP3   OH249810   2.557   5.123   3.792 -0.1839 -0.3225  0.0584
 9440TIP3    H149811   2.517   5.053   3.739  0.3959 -1.0860  0.5944
 9440TIP3    H249812   2.607   5.174   3.729  1.9089 -2.2330  0.0325
 9441TIP3   OH249813   5.732   5.182  15.834  0.6647  0.1193 -0.3864
 9441TIP3    H149814   5.717   5.239  15.909  0.0185 -0.7117  0.1375
 9441TIP3    H249815   5.808   5.129  15.858 -0.0383 -0.7174  0.0499
 9442TIP3   OH249816   2.804   0.128  13.670  0.0450  0.0790  0.2499
 9442TIP3    H149817   2.815   0.035  13.691  0.1813  0.2800  1.1111
 9442TIP3    H249818   2.716   0.134  13.633  0.1055 -0.4167  0.0165
 9443TIP3   OH249819   6.235   3.457   1.957 -0.5374 -0.3938  0.3853
 9443TIP3    H149820   6.217   3.465   1.863  1.7155 -1.2515 -0.1878
 9443TIP3    H249821   6.197   3.373   1.981 -0.5829 -0.4651  0.0752
 9444TIP3   OH249822   3.612   3.421  11.019  0.6894 -0.4171  0.2979
 9444TIP3    H149823   3.622   3.448  11.110  2.0993 -0.0562  0.0663
 9444TIP3    H249824   3.519   3.400  11.009  0.3770  0.2926  1.6019
 9445TIP3   OH249825   2.076   2.929  11.866 -0.0102  0.7444  0.6091
 9445TIP3    H149826   2.164   2.967  11.868  1.1770 -1.7478 -0.3533
 9445TIP3    H249827   2.018   3.004  11.852  2.2981  2.1371 -2.9530
 9446TIP3   OH249828   0.910   4.128   2.737  0.1399  0.6325 -0.4815
 9446TIP3    H149829   0.992   4.143   2.783  0.2279  0.2420 -0.5132
 9446TIP3    H249830   0.903   4.202   2.676  0.1840  0.9711 -0.0819
 9447TIP3   OH249831   2.149   6.196   5.660  0.0259  0.1090 -0.1703
 9447TIP3    H149832   2.159   6.275   5.712 -1.4123 -0.7540  1.5128
 9447TIP3    H249833   2.151   6.226   5.569 -3.8751  2.6127  0.3669
 9448TIP3   OH249834   2.743   4.360  11.169  0.4782  0.1671  0.6776
 9448TIP3    H149835   2.656   4.350  11.130  0.9519 -1.2595 -0.1065
 9448TIP3    H249836   2.803   4.329  11.101  1.6174  1.1612  1.1865
 9449TIP3   OH249837   2.037   4.788  12.183  0.4681  0.1087  0.0305
 9449TIP3    H149838   2.041   4.791  12.279 -0.3374  0.8177  0.0518
 9449TIP3    H249839   2.094   4.715  12.159  1.2503  0.3819  1.0087
 9450TIP3   OH249840   1.645   0.839  15.791 -0.0042  0.4917  0.1946
 9450TIP3    H149841   1.694   0.840  15.873 -0.3434  0.3424  0.3982
 9450TIP3    H249842   1.560   0.802  15.814 -0.1123  0.4841 -0.2167
 9451TIP3   OH249843   5.390   6.087   0.153 -0.5136  0.1031 -0.0950
 9451TIP3    H149844   5.457   6.156   0.158 -0.7202  0.3462 -0.6679
 9451TIP3    H249845   5.393   6.046   0.239 -0.0119  0.4762  0.0749
 9452TIP3   OH249846   3.108   6.633   3.753 -0.2585  0.1508 -0.1720
 9452TIP3    H149847   3.043   6.702   3.740 -0.2882 -0.0184 -0.9492
 9452TIP3    H249848   3.099   6.576   3.676 -0.8798 -1.2482  0.8932
 9453TIP3   OH249849   3.993   5.718  11.062  0.0046 -0.0864 -0.1238
 9453TIP3    H149850   4.028   5.755  10.980 -1.4802  2.3806  0.2587
 9453TIP3    H249851   4.063   5.731  11.126  0.6993 -0.9059 -0.6862
 9454TIP3   OH249852   5.582   4.755  12.574  0.5291  0.1449  0.3999
 9454TIP3    H149853   5.588   4.663  12.551  0.7719  0.8580 -3.0465
 9454TIP3    H249854   5.547   4.756  12.663  0.1230 -3.2210  0.4093
 9455TIP3   OH249855   6.542   5.683   4.136  0.1841 -0.0415 -0.6143
 9455TIP3    H149856   6.492   5.607   4.167  0.2618 -0.2443 -0.9697
 9455TIP3    H249857   6.619   5.645   4.094  0.8837  0.2912  0.3534
 9456TIP3   OH249858   0.998   4.025   3.058 -0.1473 -0.1727 -0.5384
 9456TIP3    H149859   1.089   4.023   3.028  0.1628  0.2886  0.3350
 9456TIP3    H249860   0.999   4.084   3.134 -1.4304  1.0359 -1.3952
 9457TIP3   OH249861   4.213   2.415   3.890  0.0994 -0.0844 -0.3126
 9457TIP3    H149862   4.259   2.460   3.819 -0.0725 -0.0794 -0.4215
 9457TIP3    H249863   4.260   2.332   3.900  2.3862  1.3030  1.9302
 9458TIP3   OH249864   3.274   1.162  14.744 -0.1273 -0.3663 -0.0325
 9458TIP3    H149865   3.361   1.166  14.782  0.3622 -0.8598 -1.0581
 9458TIP3    H249866   3.236   1.082  14.781 -1.0916  1.0493  2.2723
 9459TIP3   OH249867   1.841   5.317   5.818 -0.6322 -0.1046 -0.7270
 9459TIP3    H149868   1.908   5.345   5.756  0.0724  0.6472  0.3159
 9459TIP3    H249869   1.891   5.288   5.895 -1.4901  0.6405  0.1416
 9460TIP3   OH249870   1.539   6.306   4.067 -0.0940 -0.0133  0.0637
 9460TIP3    H149871   1.616   6.250   4.066  0.1729  0.3163 -1.6131
 9460TIP3    H249872   1.574   6.394   4.052 -0.7290  0.2313 -0.0044
 9461TIP3   OH249873   5.403   2.902  14.936 -0.0782  0.1882 -0.1832
 9461TIP3    H149874   5.382   2.890  15.028  1.2423 -1.3284 -0.0279
 9461TIP3    H249875   5.367   2.987  14.913  1.5492  1.6911  2.3639
 9462TIP3   OH249876   0.642   5.654   2.000  0.3066 -0.3843 -0.4143
 9462TIP3    H149877   0.720   5.650   1.944  0.5258  0.1280 -0.1566
 9462TIP3    H249878   0.652   5.580   2.060  1.6660  0.8346  0.9621
 9463TIP3   OH249879   5.902   4.320   3.500  0.4654  0.1547 -0.2029
 9463TIP3    H149880   5.858   4.245   3.463 -1.0547  0.8751  0.0714
 9463TIP3    H249881   5.877   4.319   3.593  0.0333  1.2484 -0.2949
 9464TIP3   OH249882   2.479   3.780   2.271  0.0742  0.4569 -0.2488
 9464TIP3    H149883   2.460   3.755   2.180 -2.6579 -0.7953  0.5524
 9464TIP3    H249884   2.532   3.708   2.304 -1.0156 -0.3679 -0.2167
 9465TIP3   OH249885   5.997   1.379   5.567  0.1683 -0.0031 -0.1835
 9465TIP3    H149886   6.018   1.467   5.596  0.4543 -0.3041  0.5467
 9465TIP3    H249887   6.074   1.350   5.519  1.5159 -1.0808  2.4320
 9466TIP3   OH249888   5.648   6.543   6.329  0.0855  0.5175  0.1079
 9466TIP3    H149889   5.739   6.547   6.299  0.0945 -0.3912  0.0048
 9466TIP3    H249890   5.640   6.458   6.371 -0.6994  0.6276  0.1959
 9467TIP3   OH249891   4.741   5.402  11.899  0.2122  0.1592  0.2474
 9467TIP3    H149892   4.764   5.339  11.967 -1.8746 -0.9865 -0.0189
 9467TIP3    H249893   4.821   5.453  11.885  1.6704 -1.7365  1.2040
 9468TIP3   OH249894   4.131   3.419  13.783 -0.2782 -0.0227  0.7406
 9468TIP3    H149895   4.198   3.362  13.746 -0.2248  0.9050 -0.6694
 9468TIP3    H249896   4.160   3.508  13.763 -2.1134  0.3962 -0.3045
 9469TIP3   OH249897   0.049   5.305   4.725 -0.1683  0.1432 -0.6926
 9469TIP3    H149898   0.060   5.246   4.649  0.7541  1.4005 -1.5683
 9469TIP3    H249899   0.129   5.357   4.727 -1.3845  2.1112 -0.5992
 9470TIP3   OH249900   1.576   4.338   3.500  0.2192  0.0408  0.2314
 9470TIP3    H149901   1.614   4.255   3.473 -0.1996  0.2860 -1.2220
 9470TIP3    H249902   1.582   4.393   3.422  0.9049  1.5427  1.2969
 9471TIP3   OH249903   5.082   1.797   1.466 -0.5931  0.7116  0.3854
 9471TIP3    H149904   5.072   1.702   1.469 -0.2305  0.6870  1.0855
 9471TIP3    H249905   5.008   1.827   1.413 -1.9267  0.1971  1.8520
 9472TIP3   OH249906   1.819   1.606  15.781  0.1794  0.6346 -0.0514
 9472TIP3    H149907   1.895   1.565  15.823 -0.9972  1.6097  3.3637
 9472TIP3    H249908   1.811   1.561  15.697  2.0050 -2.4716  1.2620
 9473TIP3   OH249909   0.993   1.596  15.144  0.2147  0.0612  0.1619
 9473TIP3    H149910   1.069   1.607  15.086  0.7403 -0.0152  0.8305
 9473TIP3    H249911   0.971   1.685  15.171 -0.2038  0.1209 -0.3763
 9474TIP3   OH249912   0.250   4.687  12.117  0.2307 -0.2539  0.0824
 9474TIP3    H149913   0.343   4.674  12.133  1.5530  2.4220 -4.0600
 9474TIP3    H249914   0.226   4.762  12.173  1.2842  0.6939 -0.7099
 9475TIP3   OH249915   0.340   3.646   2.387 -0.3561 -1.4513  0.0522
 9475TIP3    H149916   0.244   3.641   2.386 -0.3340 -1.8390 -1.0727
 9475TIP3    H249917   0.359   3.727   2.434 -1.1983 -1.9490  1.2948
 9476TIP3   OH249918   2.014   2.643  14.114  0.6262 -0.4701 -1.0218
 9476TIP3    H149919   2.041   2.561  14.154 -0.9184 -0.3740  0.3165
 9476TIP3    H249920   1.954   2.617  14.043 -1.3178 -0.5264  0.5481
 9477TIP3   OH249921   5.309   3.740  16.346  0.3776  0.1281 -0.3683
 9477TIP3    H149922   5.375   3.704  16.287 -0.1054 -0.7255 -0.4160
 9477TIP3    H249923   5.226   3.706  16.311  0.0407  0.0572  0.4796
 9478TIP3   OH249924   5.594   6.403   1.509  0.0945  0.3536  0.3284
 9478TIP3    H149925   5.611   6.309   1.517  2.1775  0.5316 -1.1857
 9478TIP3    H249926   5.502   6.413   1.533  0.6286 -1.5619  3.7630
 9479TIP3   OH249927   5.997   1.056  12.215  0.1059 -0.1078 -0.2532
 9479TIP3    H149928   5.919   1.002  12.202 -0.0500 -0.0659  0.4693
 9479TIP3    H249929   6.021   1.042  12.306  0.3844  0.6247 -0.2091
 9480TIP3   OH249930   5.783   3.920  13.419 -0.2487 -0.1777 -0.1351
 9480TIP3    H149931   5.846   3.987  13.391 -2.5973  1.9770 -0.6541
 9480TIP3    H249932   5.813   3.840  13.377  2.2280  0.6741 -0.1734
 9481TIP3   OH249933   2.983   1.053   1.770  0.9310  0.3808  0.3077
 9481TIP3    H149934   2.954   1.049   1.679 -0.2053 -0.4891  0.6810
 9481TIP3    H249935   2.909   1.018   1.820  1.7920  0.2120  1.5059
 9482TIP3   OH249936   2.250   3.622   2.738  0.0988 -0.0834  0.2910
 9482TIP3    H149937   2.217   3.573   2.662 -1.3081 -0.4543  1.1016
 9482TIP3    H249938   2.173   3.633   2.794  1.0708  0.3259  1.5872
 9483TIP3   OH249939   1.744   2.926  12.782 -0.4805  0.4521 -0.5027
 9483TIP3    H149940   1.820   2.891  12.828 -0.7415  0.1845 -0.2670
 9483TIP3    H249941   1.780   2.976  12.709 -0.0730  0.6802 -0.1428
 9484TIP3   OH249942   3.333   2.061   4.480 -0.0328  0.3246  0.1308
 9484TIP3    H149943   3.409   2.094   4.433 -0.1190  0.6991  0.2494
 9484TIP3    H249944   3.312   2.129   4.543 -0.8500  0.5091 -0.3216
 9485TIP3   OH249945   4.420   0.437   3.665  0.0272  0.4305  0.2352
 9485TIP3    H149946   4.373   0.460   3.585  0.9998  0.8665 -0.2316
 9485TIP3    H249947   4.369   0.475   3.736 -0.2719  0.9612 -0.2616
 9486TIP3   OH249948   6.326   1.675  12.024  0.4117 -0.1220 -0.1105
 9486TIP3    H149949   6.393   1.728  11.980 -0.8259  0.4271 -1.4068
 9486TIP3    H249950   6.335   1.697  12.117  2.6293 -0.7733 -0.1192
 9487TIP3   OH249951   5.852   6.412   3.527 -0.3060 -0.1366 -0.3550
 9487TIP3    H149952   5.856   6.361   3.608  1.2982  1.5466  0.7147
 9487TIP3    H249953   5.767   6.455   3.531 -0.7446 -0.9850 -0.1856
 9488TIP3   OH249954   2.008   3.092  11.401  0.0677  1.0390 -0.4229
 9488TIP3    H149955   1.992   3.183  11.373 -2.1863  0.4958 -1.1182
 9488TIP3    H249956   1.943   3.041  11.353  0.7379 -0.8503  0.6015
 9489TIP3   OH249957   4.484   0.124  13.928 -0.2827 -0.2858 -0.0204
 9489TIP3    H149958   4.405   0.173  13.952 -0.2058 -0.4561  0.5946
 9489TIP3    H249959   4.539   0.188  13.883  0.5306  0.6814  2.2080
 9490TIP3   OH249960   6.566   3.135   0.497 -0.4854 -0.6225  0.2690
 9490TIP3    H149961   6.637   3.142   0.561 -1.6692 -0.2978  1.6060
 9490TIP3    H249962   6.486   3.131   0.550 -1.4979 -0.6395 -1.1917
 9491TIP3   OH249963   3.296   1.344   1.105 -0.4975  0.2147  0.4454
 9491TIP3    H149964   3.347   1.358   1.185 -2.0738  0.7170  1.4085
 9491TIP3    H249965   3.207   1.368   1.129 -0.7047  2.3222 -2.0241
 9492TIP3   OH249966   6.631   3.639   4.815 -0.2847  0.0160  0.5014
 9492TIP3    H149967   6.575   3.707   4.776 -0.4608 -0.0929  0.5647
 9492TIP3    H249968   6.658   3.585   4.741  1.7644  1.4957  0.0642
 9493TIP3   OH249969   4.286   0.721   0.487  0.1257  0.1300  0.8523
 9493TIP3    H149970   4.344   0.710   0.562 -0.8182  1.6266  1.8559
 9493TIP3    H249971   4.200   0.738   0.526 -0.4559  0.6055 -0.5793
 9494TIP3   OH249972   4.425   6.402  10.958  0.3342 -0.0060 -0.1623
 9494TIP3    H149973   4.469   6.369  11.037  0.7221  0.2910 -0.2534
 9494TIP3    H249974   4.435   6.331  10.895 -1.1186 -0.7946  0.4498
 9495TIP3   OH249975   5.642   4.406  15.947 -0.3644  0.9100 -0.2310
 9495TIP3    H149976   5.694   4.412  15.867 -1.2460 -1.1549 -1.0191
 9495TIP3    H249977   5.689   4.461  16.010  2.1903  0.0066 -1.2045
 9496TIP3   OH249978   5.739   5.574   4.129  0.0707  0.7425  0.5032
 9496TIP3    H149979   5.739   5.522   4.048 -1.4673  1.7340 -0.1836
 9496TIP3    H249980   5.806   5.640   4.115 -0.2908  1.0013 -0.0414
 9497TIP3   OH249981   1.400   2.324   1.453  0.2265 -0.3683  0.1825
 9497TIP3    H149982   1.331   2.260   1.468  0.9231 -0.9243  1.1712
 9497TIP3    H249983   1.472   2.295   1.509  0.7369  1.0191  0.2885
 9498TIP3   OH249984   2.680   3.954  16.686 -0.9340  0.1571  0.2602
 9498TIP3    H149985   2.712   3.867  16.664  1.7057  0.6610  1.7249
 9498TIP3    H249986   2.662   3.951  16.780  0.4254  1.5001  0.6013
 9499TIP3   OH249987   1.467   2.143   1.135 -0.0651 -0.1552  0.1085
 9499TIP3    H149988   1.404   2.207   1.101 -0.3947  0.0534  1.0549
 9499TIP3    H249989   1.542   2.149   1.076 -0.9337 -0.4178 -1.0451
 9500TIP3   OH249990   5.345   3.862  11.173 -0.4247 -0.5066  0.2816
 9500TIP3    H149991   5.429   3.881  11.132 -1.1152 -0.3522 -1.1284
 9500TIP3    H249992   5.362   3.790  11.233  0.5180 -1.1462 -0.7324
 9501TIP3   OH249993   5.525   3.670   1.963  0.5330  0.4665 -0.5940
 9501TIP3    H149994   5.471   3.597   1.932 -0.7623  0.5595  1.2971
 9501TIP3    H249995   5.593   3.628   2.015 -0.0875  0.5614  0.3171
 9502TIP3   OH249996   2.268   4.437   1.932 -0.4477 -0.1729 -0.2484
 9502TIP3    H149997   2.200   4.471   1.875 -1.7413 -0.3278  1.1463
 9502TIP3    H249998   2.222   4.383   1.996  0.9454 -0.0643  0.9138
 9503TIP3   OH249999   4.817   2.751   6.491  0.2335 -0.1117 -0.1483
 9503TIP3    H150000   4.779   2.827   6.446  2.0763  0.4137 -0.9163
 9503TIP3    H250001   4.861   2.788   6.568  1.6360 -0.2778 -0.8358
 9504TIP3   OH250002   5.050   6.754   5.877 -0.0070 -0.2511 -0.0736
 9504TIP3    H150003   5.094   6.784   5.798 -3.3468 -0.4922 -2.2429
 9504TIP3    H250004   4.963   6.795   5.873 -1.3781 -2.6963  1.8441
 9505TIP3   OH250005   5.027   2.126   6.567 -0.4513  0.2298  0.3371
 9505TIP3    H150006   5.033   2.032   6.582  0.2410  0.4030  1.2142
 9505TIP3    H250007   4.948   2.137   6.514 -0.7854 -0.8003  0.6044
 9506TIP3   OH250008   3.476   0.675   4.845  0.5655 -0.8637 -0.6219
 9506TIP3    H150009   3.508   0.721   4.922  2.2001 -1.8868 -0.6370
 9506TIP3    H250010   3.381   0.674   4.855  0.4903  1.9929 -0.3768
 9507TIP3   OH250011   4.376   3.727   5.188  0.9735 -0.5241 -0.1864
 9507TIP3    H150012   4.435   3.675   5.243  1.2850 -1.2567 -1.1954
 9507TIP3    H250013   4.288   3.696   5.212  0.9128  0.8479  1.6077
 9508TIP3   OH250014   5.971   3.104  14.187 -0.0534  0.7354  0.9696
 9508TIP3    H150015   5.922   3.171  14.140 -0.9320 -0.2738  0.3990
 9508TIP3    H250016   5.919   3.024  14.177  2.3168 -0.7292 -0.8148
 9509TIP3   OH250017   5.762   4.008  14.996 -0.4118 -0.0608 -0.3233
 9509TIP3    H150018   5.696   4.030  14.931  0.9056  0.1819 -1.6355
 9509TIP3    H250019   5.826   4.079  14.991  0.3905 -0.7083  0.2870
 9510TIP3   OH250020   4.995   4.712   1.390 -0.0424 -0.3460  0.3984
 9510TIP3    H150021   5.057   4.756   1.332 -1.4917 -0.9601 -1.7454
 9510TIP3    H250022   4.985   4.624   1.352 -1.1001 -0.7667  1.5725
 9511TIP3   OH250023   4.008   6.262   6.744 -0.1380 -0.3767  0.0685
 9511TIP3    H150024   4.095   6.298   6.728  0.0266 -0.2983  1.0709
 9511TIP3    H250025   4.022   6.168   6.751 -0.0039 -0.2944  0.9985
 9512TIP3   OH250026   0.881   0.107  11.731  0.0887 -0.6508  0.0628
 9512TIP3    H150027   0.935   0.181  11.702 -0.5368 -0.3275 -0.2972
 9512TIP3    H250028   0.907   0.034  11.676  0.6396 -0.6782  0.3510
 9513TIP3   OH250029   1.996   4.970  16.591  0.0037 -0.3243 -0.2209
 9513TIP3    H150030   1.902   4.976  16.605 -0.5113 -1.2882 -2.7307
 9513TIP3    H250031   2.013   5.030  16.519  0.8247 -2.0457 -1.5215
 9514TIP3   OH250032   4.219   4.338   6.089  0.8850 -0.0685 -0.1628
 9514TIP3    H150033   4.140   4.320   6.039  1.2563 -0.6330 -0.5670
 9514TIP3    H250034   4.195   4.324   6.180  1.1603 -2.9068 -0.4209
 9515TIP3   OH250035   0.383   0.974  14.461  0.4449  0.2905  0.5912
 9515TIP3    H150036   0.302   0.926  14.442 -1.7622  3.3467  1.4554
 9515TIP3    H250037   0.422   0.989  14.375 -0.2593 -0.6230  0.0841
 9516TIP3   OH250038   2.878   0.115  12.656  0.2202 -0.0766  0.1018
 9516TIP3    H150039   2.930   0.137  12.578  0.2849  1.3193  0.5048
 9516TIP3    H250040   2.841   0.029  12.637  4.1231 -2.0839  0.5347
 9517TIP3   OH250041   6.451   2.836   4.213 -0.6240  0.3744  0.3829
 9517TIP3    H150042   6.449   2.816   4.119 -2.3455  2.9229 -0.2494
 9517TIP3    H250043   6.387   2.776   4.252 -1.8178  1.0065 -0.5388
 9518TIP3   OH250044   0.601   5.516   0.027  0.2825  0.0573 -0.0160
 9518TIP3    H150045   0.603   5.571   0.105 -0.4002  0.0674 -0.0059
 9518TIP3    H250046   0.530   5.550  -0.026 -0.7715 -1.3804  0.4101
 9519TIP3   OH250047   2.494   4.982  10.864  0.1444 -0.4355  0.5438
 9519TIP3    H150048   2.484   5.023  10.778 -0.8052 -2.0553 -0.1502
 9519TIP3    H250049   2.581   4.942  10.861  0.1213 -0.4716  0.3529
 9520TIP3   OH250050   1.258   1.843  11.688 -0.2991  0.0710 -0.1769
 9520TIP3    H150051   1.177   1.894  11.680 -0.6259 -0.3793  0.1807
 9520TIP3    H250052   1.290   1.863  11.776 -0.9946 -1.1292  0.3822
 9521TIP3   OH250053   5.619   5.706   3.580  0.3918  0.0722  0.7683
 9521TIP3    H150054   5.636   5.613   3.595 -0.8847 -0.4299 -0.6102
 9521TIP3    H250055   5.570   5.733   3.658  2.0516 -0.0001  1.8735
 9522TIP3   OH250056   3.396   3.081  15.066 -0.0576  0.0452  0.0733
 9522TIP3    H150057   3.413   2.987  15.057  0.2328  0.2037 -1.1626
 9522TIP3    H250058   3.323   3.098  15.006  0.1284  0.6753  0.0203
 9523TIP3   OH250059   4.355   3.316   4.968 -0.3969  0.5327  0.6569
 9523TIP3    H150060   4.403   3.331   4.886 -0.2160 -1.7769  0.2900
 9523TIP3    H250061   4.423   3.295   5.032 -0.7317 -0.3057  0.7399
 9524TIP3   OH250062   6.240   6.792   5.997  0.3284 -0.4919  0.1347
 9524TIP3    H150063   6.197   6.765   6.078 -0.2423  0.2571  0.0951
 9524TIP3    H250064   6.307   6.725   5.981  1.3560  0.0272  1.9383
 9525TIP3   OH250065   3.780   2.050   2.806  0.1919 -0.1879  0.0661
 9525TIP3    H150066   3.718   2.072   2.736  0.7976 -0.2653 -0.5084
 9525TIP3    H250067   3.739   2.083   2.886 -1.0012 -1.0237 -0.1675
 9526TIP3   OH250068   3.905   2.730   0.846  0.2621  0.4748  0.0289
 9526TIP3    H150069   3.919   2.823   0.828  0.0239  0.6572  0.7564
 9526TIP3    H250070   3.916   2.722   0.941 -1.5644  0.1027  0.2475
 9527TIP3   OH250071   2.997   0.186  16.167  0.3521 -0.2565  0.1657
 9527TIP3    H150072   2.935   0.254  16.194  0.9148  0.8468 -1.1721
 9527TIP3    H250073   3.076   0.234  16.144  0.0320 -1.0211 -3.1030
 9528TIP3   OH250074   4.789   0.561   0.076 -0.3627 -0.0962 -0.3440
 9528TIP3    H150075   4.766   0.478   0.034 -0.0114 -1.2257  1.5635
 9528TIP3    H250076   4.884   0.556   0.087 -0.0334  1.4984 -2.0245
 9529TIP3   OH250077   1.566   3.527   1.309  0.4070  0.2951  0.5558
 9529TIP3    H150078   1.588   3.533   1.402  0.1236  0.5841  0.6084
 9529TIP3    H250079   1.645   3.556   1.263  0.1568  1.3300  0.7423
 9530TIP3   OH250080   2.123   3.368   4.262  0.1128  0.2318  0.4748
 9530TIP3    H150081   2.191   3.395   4.201 -1.2977  1.9247 -0.4102
 9530TIP3    H250082   2.114   3.442   4.322 -0.9485  0.0416  0.5699
 9531TIP3   OH250083   1.465   2.404   5.588  0.4629  0.3234  0.5853
 9531TIP3    H150084   1.388   2.348   5.576  0.6876  0.4996 -2.5063
 9531TIP3    H250085   1.528   2.349   5.634 -0.0503 -1.3277 -0.5963
 9532TIP3   OH250086   2.362   1.809   3.229  0.0349  0.2884  0.3963
 9532TIP3    H150087   2.311   1.851   3.298  1.4717  2.4050  0.2602
 9532TIP3    H250088   2.310   1.821   3.150 -1.7666 -2.4185  1.0433
 9533TIP3   OH250089   4.118   1.461   0.738  0.3160 -0.2793 -0.0638
 9533TIP3    H150090   4.114   1.552   0.710 -2.5555  0.0885  1.1592
 9533TIP3    H250091   4.115   1.466   0.834  2.2759 -1.6455  0.1116
 9534TIP3   OH250092   4.923   3.986  16.966  0.0795 -0.9839  0.1298
 9534TIP3    H150093   4.986   3.926  16.926  2.0475  1.1207 -0.1447
 9534TIP3    H250094   4.926   3.966  17.060 -0.1089 -1.9952 -0.0699
 9535TIP3   OH250095   3.585   3.086  12.272 -1.2665 -0.7193  0.2807
 9535TIP3    H150096   3.580   3.152  12.341  0.9109 -0.8590  0.6677
 9535TIP3    H250097   3.600   3.137  12.192  1.3594 -0.6728  0.7085
 9536TIP3   OH250098   0.243   3.979   1.626 -0.1966  0.7485 -0.0663
 9536TIP3    H150099   0.300   3.950   1.554  1.3537  0.1631  1.3231
 9536TIP3    H250100   0.177   4.034   1.584  1.0955  1.0370 -1.8283
 9537TIP3   OH250101   0.900   3.843   1.925 -0.8477  0.2022 -0.2923
 9537TIP3    H150102   0.805   3.838   1.935 -0.6741 -1.5589  0.9107
 9537TIP3    H250103   0.935   3.791   1.998  1.0245  0.4798 -0.9371
 9538TIP3   OH250104   1.173   0.199   5.490  0.3129  0.0831  0.6065
 9538TIP3    H150105   1.145   0.143   5.563 -0.5112 -1.0440 -0.5240
 9538TIP3    H250106   1.113   0.273   5.493  0.1802 -0.0354  0.9815
 9539TIP3   OH250107   6.286   3.451   5.413 -0.0957  0.0914 -0.3723
 9539TIP3    H150108   6.311   3.380   5.354 -0.7429 -1.5518  1.2463
 9539TIP3    H250109   6.222   3.412   5.473 -0.3969  2.0144  0.6460
 9540TIP3   OH250110   2.865   2.814  13.854 -0.0788  0.2255  0.3088
 9540TIP3    H150111   2.848   2.871  13.779 -2.2371 -1.0958 -0.3014
 9540TIP3    H250112   2.839   2.727  13.824 -0.0914 -0.4986  2.3018
 9541TIP3   OH250113   4.928   0.208   3.032 -0.2783  0.4329 -0.2302
 9541TIP3    H150114   4.952   0.184   2.943  0.7148  1.4448 -0.2533
 9541TIP3    H250115   4.832   0.200   3.034 -0.1283 -4.4427  0.0666
 9542TIP3   OH250116   6.383   1.820  14.485 -1.0608 -0.2068 -0.4957
 9542TIP3    H150117   6.289   1.803  14.475 -1.1072 -0.4695  0.3153
 9542TIP3    H250118   6.405   1.783  14.571  0.2479 -2.1664 -1.6075
 9543TIP3   OH250119   3.486   0.228  11.349  0.8143 -0.2361  0.1511
 9543TIP3    H150120   3.496   0.146  11.301 -1.5232  0.7968 -2.3900
 9543TIP3    H250121   3.556   0.284  11.316  0.9423 -0.4408  0.0742
 9544TIP3   OH250122   0.182   1.571  13.007  0.0575 -0.3341  0.3698
 9544TIP3    H150123   0.088   1.556  13.013 -0.1031  0.8634  1.2051
 9544TIP3    H250124   0.220   1.507  13.068 -0.2712 -0.3442  0.5670
 9545TIP3   OH250125   5.527   1.841   6.081  0.3958  0.1339 -0.2906
 9545TIP3    H150126   5.611   1.887   6.081  1.1794 -1.1732 -2.1712
 9545TIP3    H250127   5.513   1.817   6.173  2.1069  0.3090  0.0497
 9546TIP3   OH250128   3.071   1.435  15.117  0.0043  0.1949 -0.1254
 9546TIP3    H150129   3.086   1.481  15.034 -0.2392 -2.7419 -1.9240
 9546TIP3    H250130   2.987   1.469  15.148 -0.7906  0.0772 -2.0312
 9547TIP3   OH250131   5.162   3.322   2.998  0.4588 -0.0731 -0.0194
 9547TIP3    H150132   5.234   3.261   2.980 -0.1629 -1.7791  2.7131
 9547TIP3    H250133   5.201   3.389   3.053  0.2667 -0.2734  0.3645
 9548TIP3   OH250134   6.114   4.333  14.247  0.1513 -0.1531  0.3326
 9548TIP3    H150135   6.048   4.273  14.213 -2.0422  1.8670  0.8358
 9548TIP3    H250136   6.065   4.408  14.280  2.7172  1.5766  0.5274
 9549TIP3   OH250137   5.632   0.715   2.546  0.2835  0.2267 -0.1026
 9549TIP3    H150138   5.610   0.728   2.453 -0.6599  2.9276  0.4159
 9549TIP3    H250139   5.709   0.657   2.544  1.3539  1.5464 -2.6938
 9550TIP3   OH250140   0.551   1.788  13.224  0.1727  0.0591  0.1361
 9550TIP3    H150141   0.466   1.822  13.252 -0.1634  0.2840 -1.0840
 9550TIP3    H250142   0.564   1.708  13.276 -0.9107 -0.1155  0.1505
 9551TIP3   OH250143   0.844   1.653   2.282 -0.5964  0.0625  0.0435
 9551TIP3    H150144   0.800   1.728   2.241 -0.1783 -0.6357 -1.7301
 9551TIP3    H250145   0.925   1.643   2.234  0.8911  0.3896  2.3216
 9552TIP3   OH250146   6.072   4.193   4.880  0.3975  0.3274 -0.2238
 9552TIP3    H150147   6.011   4.252   4.836 -0.1997 -0.2074 -0.1337
 9552TIP3    H250148   6.078   4.227   4.969  1.8813  1.6205 -0.7673
 9553TIP3   OH250149   4.605   1.374  16.924 -0.1507 -0.2896  0.0632
 9553TIP3    H150150   4.620   1.343  17.013 -1.1294 -0.5040  0.1723
 9553TIP3    H250151   4.581   1.466  16.935  0.9024  0.0168 -0.0943
 9554TIP3   OH250152   5.597   5.565   1.660  0.1367 -0.6706 -0.2476
 9554TIP3    H150153   5.662   5.581   1.592 -0.1122 -2.5506 -0.9826
 9554TIP3    H250154   5.644   5.515   1.727 -0.1569 -0.7319 -0.0846
 9555TIP3   OH250155   6.000   4.804  16.892 -0.1073  0.5247 -0.7356
 9555TIP3    H150156   6.078   4.770  16.849 -0.3071 -0.7555 -0.1370
 9555TIP3    H250157   5.928   4.752  16.857 -0.4324  0.3186  0.1998
 9556TIP3   OH250158   4.960   0.908   1.092  0.5628  0.1999  0.0378
 9556TIP3    H150159   4.935   0.842   1.027 -0.0159  0.6389 -0.1964
 9556TIP3    H250160   4.898   0.895   1.164  1.0088 -0.0865  0.3687
 9557TIP3   OH250161   2.975   1.014  16.146 -0.4497 -0.4393 -0.7399
 9557TIP3    H150162   3.068   1.035  16.139 -0.5432  0.1379 -0.3647
 9557TIP3    H250163   2.930   1.082  16.096 -0.6909 -0.4672 -0.5695
 9558TIP3   OH250164   3.411   2.404   2.999 -0.1568 -0.2187  0.2725
 9558TIP3    H150165   3.396   2.464   2.926 -3.4666 -0.5319  0.5372
 9558TIP3    H250166   3.428   2.461   3.074 -1.6031  0.3506  0.1904
 9559TIP3   OH250167   0.948   0.955   3.707  0.6969 -0.3168 -0.1734
 9559TIP3    H150168   0.946   1.001   3.623 -0.3934 -0.8958 -0.4850
 9559TIP3    H250169   0.932   0.863   3.684 -0.9410 -0.3003  0.7860
 9560TIP3   OH250170   5.088   4.382  16.035  0.2210  0.1722 -0.3808
 9560TIP3    H150171   5.142   4.450  15.995  0.0327  1.4992  1.5210
 9560TIP3    H250172   5.150   4.316  16.065  1.1993  2.5736  3.5434
 9561TIP3   OH250173   4.715   0.579  11.980  0.5970 -0.0104  0.2261
 9561TIP3    H150174   4.767   0.502  12.004  1.2561  0.5458  0.6107
 9561TIP3    H250175   4.636   0.542  11.941 -0.4931 -0.9763  3.0992
 9562TIP3   OH250176   1.065   6.696  14.213  0.0407 -0.7041  0.8135
 9562TIP3    H150177   1.067   6.609  14.174 -0.6692 -0.7395  0.8539
 9562TIP3    H250178   1.105   6.753  14.148 -1.7387 -0.6413 -0.2759
 9563TIP3   OH250179   2.958   1.033   6.497 -0.2223 -0.1964 -0.5552
 9563TIP3    H150180   2.904   1.055   6.422  0.5898  1.2605 -0.7523
 9563TIP3    H250181   2.984   1.117   6.534 -1.8111 -0.8195  2.3108
 9564TIP3   OH250182   3.102   5.709   4.869 -0.4425  0.3047 -0.2238
 9564TIP3    H150183   3.038   5.655   4.823 -1.1482 -0.5969  1.6943
 9564TIP3    H250184   3.131   5.773   4.804 -1.4342 -0.8323 -1.8524
 9565TIP3   OH250185   6.137   5.879   2.347 -0.1757 -0.1726 -0.4209
 9565TIP3    H150186   6.141   5.798   2.296  1.6156 -0.0575 -0.5073
 9565TIP3    H250187   6.116   5.850   2.436 -1.4691 -0.5353 -0.8237
 9566TIP3   OH250188   1.502   6.200  13.972 -0.1007 -0.1380 -0.5318
 9566TIP3    H150189   1.583   6.215  14.021 -0.9459 -1.2029  1.2967
 9566TIP3    H250190   1.516   6.116  13.929 -1.0558 -1.6186  1.8163
 9567TIP3   OH250191   0.457   5.226   6.249  0.2072  0.4384  0.3250
 9567TIP3    H150192   0.479   5.248   6.339  2.8285 -1.1098  0.1551
 9567TIP3    H250193   0.361   5.226   6.247  0.0811  1.9226  2.6977
 9568TIP3   OH250194   5.123   2.074   3.826  0.2318 -0.0352 -0.7720
 9568TIP3    H150195   5.106   2.134   3.898  2.1320 -0.1201 -0.2028
 9568TIP3    H250196   5.036   2.055   3.789 -0.9772 -0.9721  2.2347
 9569TIP3   OH250197   0.103   3.483  13.765  0.1169  0.1032 -0.2360
 9569TIP3    H150198   0.015   3.513  13.742 -0.0766 -0.7680 -0.7054
 9569TIP3    H250199   0.158   3.561  13.761 -0.4110  0.4412 -1.1811
 9570TIP3   OH250200   1.493   5.947  12.705  0.2432 -0.5810  0.0209
 9570TIP3    H150201   1.561   5.905  12.757 -0.6764 -2.1556  0.0291
 9570TIP3    H250202   1.430   5.877  12.688 -0.7573  0.5317 -1.0246
 9571TIP3   OH250203   3.879   0.287   1.812  0.0208  0.0977 -0.4829
 9571TIP3    H150204   3.886   0.195   1.786 -1.0515  0.2045 -1.1869
 9571TIP3    H250205   3.801   0.319   1.768  1.4347  1.9009 -1.8159
 9572TIP3   OH250206   4.301   4.551   6.721  0.6290  0.2990 -0.1027
 9572TIP3    H150207   4.305   4.584   6.631 -0.4993 -2.6294 -1.3545
 9572TIP3    H250208   4.215   4.578   6.753  1.1964  1.7114  0.3356
 9573TIP3   OH250209   6.137   2.377  12.379 -0.0786  0.2314 -0.4593
 9573TIP3    H150210   6.227   2.361  12.408  0.2006  0.7537 -1.0016
 9573TIP3    H250211   6.086   2.308  12.420  0.4281  0.4705  0.6106
 9574TIP3   OH250212   5.637   6.395   0.776  0.3270 -0.0242 -0.1102
 9574TIP3    H150213   5.573   6.463   0.795 -1.1397 -1.6968  1.2867
 9574TIP3    H250214   5.715   6.420   0.826 -0.3106  0.4619  0.6471
 9575TIP3   OH250215   3.565   0.017  10.839 -0.1699  0.2656 -0.1044
 9575TIP3    H150216   3.652  -0.001  10.874  0.8959  1.4773 -1.9259
 9575TIP3    H250217   3.555  -0.044  10.766  0.2917  1.7931 -1.5196
 9576TIP3   OH250218   3.326   5.373  15.341  0.0317  0.3263 -0.6204
 9576TIP3    H150219   3.385   5.449  15.340 -1.3387  1.4459  0.2236
 9576TIP3    H250220   3.309   5.355  15.249  1.9045 -0.2284 -0.9022
 9577TIP3   OH250221   2.850   1.052   3.523 -0.2431 -0.2584 -0.4488
 9577TIP3    H150222   2.935   1.089   3.549 -1.3407  1.3154  1.0791
 9577TIP3    H250223   2.809   1.120   3.470 -0.5919 -0.9979 -1.1535
 9578TIP3   OH250224   5.983   0.138   3.768 -0.4345  0.2210  0.3440
 9578TIP3    H150225   6.047   0.066   3.771 -0.1470  0.4504 -0.1718
 9578TIP3    H250226   6.008   0.195   3.841 -1.3593 -0.7716  1.4708
 9579TIP3   OH250227   3.059   1.711  12.392  0.1742 -0.0103 -0.7562
 9579TIP3    H150228   3.125   1.665  12.340 -1.0348 -0.1401 -2.2346
 9579TIP3    H250229   3.002   1.642  12.427  1.3634  0.0038  1.4312
 9580TIP3   OH250230   0.097   5.721  13.939 -0.2555  0.0987  0.2390
 9580TIP3    H150231   0.068   5.715  13.848 -0.2777  1.1663  0.1690
 9580TIP3    H250232   0.076   5.810  13.965 -0.3378 -0.2296  1.3310
 9581TIP3   OH250233   0.048   1.158   1.573 -0.1356  0.0275  0.6957
 9581TIP3    H150234   0.001   1.079   1.601 -0.5822 -0.4155 -1.1797
 9581TIP3    H250235   0.140   1.131   1.570 -0.2231 -0.2649  0.6158
 9582TIP3   OH250236   5.602   0.344   2.485  0.0923 -0.1282  0.2203
 9582TIP3    H150237   5.628   0.252   2.498 -1.3353 -0.8270 -1.4115
 9582TIP3    H250238   5.521   0.354   2.535 -1.6130 -0.8269 -2.1910
 9583TIP3   OH250239   1.056   0.544  15.622 -0.0641  0.5731 -0.1340
 9583TIP3    H150240   1.006   0.573  15.546  0.0628  1.2367  0.0266
 9583TIP3    H250241   1.060   0.449  15.614 -0.7623  0.5735 -0.5094
 9584TIP3   OH250242   0.923   2.899   1.313  0.0773  0.0827  0.0085
 9584TIP3    H150243   0.839   2.858   1.294 -0.1794 -0.1625  1.5197
 9584TIP3    H250244   0.988   2.841   1.274 -0.4353  0.1460 -0.9617
 9585TIP3   OH250245   5.559   1.258   3.616  0.0032 -0.4326 -0.5141
 9585TIP3    H150246   5.531   1.176   3.575  0.8526  0.0815 -2.2066
 9585TIP3    H250247   5.652   1.245   3.636 -0.4983 -0.8706  1.8745
 9586TIP3   OH250248   0.787   0.139   0.478  0.0626 -0.4148 -0.1720
 9586TIP3    H150249   0.775   0.145   0.384 -0.8473 -0.0317 -0.0384
 9586TIP3    H250250   0.818   0.049   0.493 -1.7963 -1.1702 -0.6344
 9587TIP3   OH250251   2.888   2.113   3.050 -0.4903 -0.3158 -0.3204
 9587TIP3    H150252   2.916   2.187   3.104  0.8358 -0.5660 -0.6273
 9587TIP3    H250253   2.806   2.084   3.090  0.0667 -0.0188  1.1029
 9588TIP3   OH250254   3.117   1.419   5.855  0.1338 -0.4842  0.0001
 9588TIP3    H150255   3.028   1.456   5.850 -0.0094 -0.7731  0.3850
 9588TIP3    H250256   3.144   1.409   5.764  0.1626  0.5425 -0.1149
 9589TIP3   OH250257   3.794   3.290  15.670 -0.1560  0.2772  0.0510
 9589TIP3    H150258   3.799   3.208  15.621  2.0099  1.5347 -2.0721
 9589TIP3    H250259   3.710   3.327  15.647 -0.8319 -0.9456  0.4330
 9590TIP3   OH250260   1.288   0.524   3.792 -0.2941 -0.1750  0.3473
 9590TIP3    H150261   1.254   0.449   3.742  2.0850 -1.2397  0.2139
 9590TIP3    H250262   1.252   0.600   3.747 -0.2003 -1.1578 -1.4960
 9591TIP3   OH250263   1.522   6.044   1.342 -0.1258 -0.4822  0.3935
 9591TIP3    H150264   1.589   6.078   1.401  1.1050 -0.5743 -0.9055
 9591TIP3    H250265   1.562   5.966   1.303 -1.0559 -0.6503 -0.2637
 9592TIP3   OH250266   4.272   3.471   5.369 -0.5058 -0.2160 -0.2062
 9592TIP3    H150267   4.231   3.516   5.296 -0.6506 -1.3549 -0.8478
 9592TIP3    H250268   4.355   3.437   5.334 -0.0827  0.1128  0.4472
 9593TIP3   OH250269   6.588   0.184  14.196  0.4066  0.1615  0.6801
 9593TIP3    H150270   6.559   0.272  14.173 -1.7670 -0.8793 -0.7988
 9593TIP3    H250271   6.508   0.137  14.220  1.5329 -1.4195  1.5450
 9594TIP3   OH250272   0.005   5.305  11.618  0.1214 -0.0560  0.2753
 9594TIP3    H150273   0.005   5.398  11.595  0.4561 -0.2146 -0.3730
 9594TIP3    H250274  -0.060   5.266  11.560 -1.9494  0.1786  2.3056
 9595TIP3   OH250275   3.110   3.428  13.654 -0.4417  0.4362  0.4643
 9595TIP3    H150276   3.022   3.438  13.691  0.1329 -0.2131  2.0766
 9595TIP3    H250277   3.099   3.365  13.583 -1.2502  0.2024  0.7834
 9596TIP3   OH250278   2.873   4.744  11.692  0.4645  0.2700 -0.4994
 9596TIP3    H150279   2.783   4.751  11.661  0.1844  1.7080  0.5292
 9596TIP3    H250280   2.866   4.751  11.788  1.5684 -0.8466 -0.3075
 9597TIP3   OH250281   1.731   2.426  16.024 -0.1414  0.4598  0.1007
 9597TIP3    H150282   1.822   2.409  16.046  0.6904  1.4189 -2.2621
 9597TIP3    H250283   1.734   2.495  15.958 -2.3626 -1.3586 -2.1407
 9598TIP3   OH250284   0.985   2.985   3.967 -0.1381 -0.0581 -0.1163
 9598TIP3    H150285   0.964   2.959   4.057 -2.3016 -3.0509 -1.3235
 9598TIP3    H250286   0.920   3.052   3.946 -0.4946 -0.3224  0.1385
 9599TIP3   OH250287   1.420   1.222   2.233 -0.1141 -0.2527  0.3879
 9599TIP3    H150288   1.352   1.177   2.184  0.8633 -0.6917 -0.5966
 9599TIP3    H250289   1.486   1.155   2.252  1.8324  0.8624 -1.9367
 9600TIP3   OH250290   1.903   6.637   2.815 -0.0033 -0.1221  0.5703
 9600TIP3    H150291   1.811   6.659   2.831 -0.1164  0.9276 -1.2744
 9600TIP3    H250292   1.901   6.557   2.764  0.1571 -0.5679  1.2487
 9601TIP3   OH250293   2.731   5.755  11.979 -0.2383  0.3774 -0.1763
 9601TIP3    H150294   2.822   5.783  11.976 -0.5159  1.4997  0.8854
 9601TIP3    H250295   2.714   5.736  12.071 -0.9460 -0.3070 -0.4324
 9602TIP3   OH250296   5.865   6.243   3.738  0.5995 -0.0819  0.7156
 9602TIP3    H150297   5.831   6.180   3.802  0.7261 -2.1825 -1.1410
 9602TIP3    H250298   5.923   6.191   3.682  0.3717  1.6040 -1.2099
 9603TIP3   OH250299   5.786   0.944  12.113  0.9952  0.4170 -0.0092
 9603TIP3    H150300   5.774   0.993  12.031  0.4814  0.3194 -0.0001
 9603TIP3    H250301   5.726   0.869  12.104 -0.0868  1.1218  1.0115
 9604TIP3   OH250302   5.373   0.678   6.456  0.2509 -0.2561 -0.3723
 9604TIP3    H150303   5.351   0.585   6.462 -0.9671  0.0214 -0.3863
 9604TIP3    H250304   5.364   0.711   6.545 -1.7292  0.3439 -0.7342
 9605TIP3   OH250305   2.264   6.499   1.740  0.6729 -0.4281 -0.5083
 9605TIP3    H150306   2.196   6.446   1.783  0.3227  0.6377  0.2867
 9605TIP3    H250307   2.280   6.454   1.657 -1.4229 -0.4166 -0.9824
 9606TIP3   OH250308   0.263   1.409   1.990 -0.0444 -0.0385 -0.7673
 9606TIP3    H150309   0.177   1.450   2.001  0.0065  0.2036 -1.2293
 9606TIP3    H250310   0.258   1.328   2.041 -0.2766  0.3540 -0.1409
 9607TIP3   OH250311   0.447   0.459  13.701  0.6896 -0.3869  0.1673
 9607TIP3    H150312   0.382   0.467  13.771 -0.1514  1.3858 -0.7503
 9607TIP3    H250313   0.531   0.476  13.745  0.3580 -0.8628  1.0213
 9608TIP3   OH250314   5.894   2.833   2.831  0.0762 -0.1853 -0.3917
 9608TIP3    H150315   5.904   2.838   2.735  0.5245 -0.4764 -0.3614
 9608TIP3    H250316   5.876   2.741   2.848 -1.3403  0.0886 -0.3125
 9609TIP3   OH250317   3.394   0.687  10.962  0.0346 -0.6568  0.5260
 9609TIP3    H150318   3.461   0.638  10.915 -0.0881 -0.6531  0.3446
 9609TIP3    H250319   3.312   0.662  10.919  0.0790  0.5839 -0.3235
 9610TIP3   OH250320   2.141   6.145  12.810 -0.2245  0.2118 -0.0829
 9610TIP3    H150321   2.050   6.167  12.794  0.0284  0.7448 -0.8796
 9610TIP3    H250322   2.143   6.049  12.815 -0.8362  0.2070  0.0352
 9611TIP3   OH250323   0.547   3.302   4.390 -0.4373 -0.7283  0.1305
 9611TIP3    H150324   0.572   3.394   4.394  0.5253 -1.0043  0.8855
 9611TIP3    H250325   0.566   3.276   4.300  0.0066 -0.3849  0.1218
 9612TIP3   OH250326   1.258   5.719   5.471  0.2389 -0.1287  0.4531
 9612TIP3    H150327   1.197   5.659   5.513  1.7036  0.2074  3.3720
 9612TIP3    H250328   1.223   5.806   5.490 -1.0199  0.0976 -2.3781
 9613TIP3   OH250329   4.145   3.653   2.814  0.2288 -0.4640  0.4941
 9613TIP3    H150330   4.068   3.596   2.808  1.0513 -1.4956 -0.8731
 9613TIP3    H250331   4.203   3.610   2.876  1.0672 -1.4366 -0.9166
 9614TIP3   OH250332   2.251   5.143   2.776  0.0054 -0.3973 -0.1880
 9614TIP3    H150333   2.304   5.160   2.698  1.0018 -1.3858  0.2369
 9614TIP3    H250334   2.304   5.176   2.848 -0.2416 -0.8133  0.1916
 9615TIP3   OH250335   2.094   4.152  15.837 -0.2627  0.1152  0.3816
 9615TIP3    H150336   2.097   4.153  15.932 -2.1560 -1.1597  0.4968
 9615TIP3    H250337   2.093   4.245  15.812 -1.9556  0.4935  1.7030
 9616TIP3   OH250338   6.814   4.061   3.047 -0.3461 -0.0269  0.5576
 9616TIP3    H150339   6.895   4.043   3.001  0.2105 -0.2186  1.5792
 9616TIP3    H250340   6.788   3.976   3.083  1.7544  0.7731  4.5588
 9617TIP3   OH250341   5.965   4.214   2.278  0.1520 -0.1856 -0.1549
 9617TIP3    H150342   5.915   4.289   2.245  0.4308  0.5879  1.0955
 9617TIP3    H250343   5.899   4.151   2.305 -0.1563  0.4701  0.6794
 9618TIP3   OH250344   1.155   3.711   1.674 -0.0022 -0.2392 -0.2761
 9618TIP3    H150345   1.086   3.732   1.737  0.9275  2.1630  0.0499
 9618TIP3    H250346   1.113   3.654   1.610 -2.1458  0.7299  0.1930
 9619TIP3   OH250347   2.829   0.240   3.797 -0.5185 -0.5574  0.5245
 9619TIP3    H150348   2.913   0.277   3.826 -0.3329 -0.5561 -0.0097
 9619TIP3    H250349   2.802   0.184   3.869 -1.1630  1.1566  1.6801
 9620TIP3   OH250350   2.465   0.317  16.385  0.2357 -0.3456 -0.2611
 9620TIP3    H150351   2.491   0.408  16.404 -1.2517  0.0547  0.0106
 9620TIP3    H250352   2.528   0.264  16.434  0.1661  0.5732  0.8865
 9621TIP3   OH250353   2.762   3.237  14.781 -0.2524 -0.2354 -0.0058
 9621TIP3    H150354   2.766   3.290  14.860 -0.8925 -0.1670 -0.0104
 9621TIP3    H250355   2.679   3.189  14.789 -0.7776  0.4366 -1.0363
 9622TIP3   OH250356   2.304   1.969  16.526  0.2457 -0.7574 -0.5503
 9622TIP3    H150357   2.336   1.916  16.453 -1.4401  0.0636 -1.9367
 9622TIP3    H250358   2.221   1.928  16.551 -0.9486  0.9936 -1.4674
 9623TIP3   OH250359   4.440   2.950   4.467  0.7358  0.3839  0.2997
 9623TIP3    H150360   4.513   2.957   4.406 -1.6808  0.4517 -2.8737
 9623TIP3    H250361   4.429   3.038   4.502  1.4828  0.6162 -0.0250
 9624TIP3   OH250362   3.925   0.031   1.744 -0.1448  0.6592  0.1811
 9624TIP3    H150363   3.977  -0.049   1.745  0.7679  1.2186 -0.1320
 9624TIP3    H250364   3.836   0.002   1.727  0.4483 -0.1715 -1.8488
 9625TIP3   OH250365   5.220   0.017   2.809  0.3026  0.1064 -0.4765
 9625TIP3    H150366   5.310  -0.013   2.801  0.0823 -0.4403 -0.9722
 9625TIP3    H250367   5.227   0.111   2.827  0.9810 -0.0624  0.1933
 9626TIP3   OH250368   1.378   2.787  15.695 -0.1929 -0.0693 -0.0954
 9626TIP3    H150369   1.463   2.828  15.712  0.6426 -1.4265 -0.8311
 9626TIP3    H250370   1.355   2.815  15.606 -1.1482  1.3081  0.5552
 9627TIP3   OH250371   1.619   1.431  14.626 -0.3756  0.0223  1.1277
 9627TIP3    H150372   1.605   1.368  14.555 -0.0516 -1.0737  2.0132
 9627TIP3    H250373   1.631   1.515  14.581 -1.2676 -0.4469 -0.0558
 9628TIP3   OH250374   2.256   3.374  15.763 -0.1859 -0.4194  0.7950
 9628TIP3    H150375   2.205   3.336  15.836 -2.0040  0.5270  0.0867
 9628TIP3    H250376   2.198   3.441  15.726  1.2358  0.0480 -0.6872
 9629TIP3   OH250377   5.518   4.617   5.793  0.2851 -0.2216  0.0634
 9629TIP3    H150378   5.454   4.559   5.834 -0.4666  0.1435 -0.5589
 9629TIP3    H250379   5.574   4.647   5.864  1.0070 -2.0970  0.3315
 9630TIP3   OH250380   5.818   2.970   5.296  0.1434 -0.1269  0.2164
 9630TIP3    H150381   5.831   2.998   5.205  3.3806  3.5280  1.5330
 9630TIP3    H250382   5.899   2.925   5.319  0.4286  1.2079  1.9562
 9631TIP3   OH250383   6.044   6.039   5.256  0.6216  0.0529 -0.8455
 9631TIP3    H150384   6.128   6.009   5.220  1.1906  1.8186 -1.0726
 9631TIP3    H250385   6.058   6.042   5.350  0.4702 -0.6359 -0.7973
 9632TIP3   OH250386   2.838   0.744   3.715  0.2474 -0.2369 -0.4033
 9632TIP3    H150387   2.752   0.716   3.681  1.0771 -2.3977 -0.9162
 9632TIP3    H250388   2.831   0.732   3.809 -0.8209  2.1372 -0.1076
 9633TIP3   OH250389   2.750   4.179   1.376  0.0070  0.6558  0.1219
 9633TIP3    H150390   2.723   4.087   1.376 -0.3012  0.7448  0.0753
 9633TIP3    H250391   2.668   4.228   1.365  0.3530  0.8879 -1.7894
 9634TIP3   OH250392   4.637   3.191   2.352 -0.0569  0.0534  0.2240
 9634TIP3    H150393   4.727   3.161   2.354  0.1644  0.7220  1.1328
 9634TIP3    H250394   4.595   3.138   2.285  1.1955  0.2611 -0.7597
 9635TIP3   OH250395   2.145   1.649   3.834  0.1357 -0.0347  0.5061
 9635TIP3    H150396   2.106   1.676   3.917  1.1032 -1.6454  1.5409
 9635TIP3    H250397   2.083   1.586   3.798 -1.0424  1.7648 -0.8302
 9636TIP3   OH250398   4.090   4.743  15.661 -0.0301  0.1743  0.2461
 9636TIP3    H150399   3.996   4.725  15.666  0.2640 -1.7853 -0.2926
 9636TIP3    H250400   4.110   4.791  15.741 -1.0978 -1.4158  1.5290
 9637TIP3   OH250401   5.505   5.883  15.812 -0.6299 -0.5072 -0.0787
 9637TIP3    H150402   5.472   5.832  15.737  1.7843 -1.8046 -0.3685
 9637TIP3    H250403   5.506   5.973  15.781  0.3307 -1.0194 -1.6706
 9638TIP3   OH250404   3.326   3.776  16.736 -0.8213 -0.1658 -0.0380
 9638TIP3    H150405   3.302   3.694  16.693 -1.7210  0.0175  0.1101
 9638TIP3    H250406   3.408   3.756  16.782  0.2002 -0.3715 -1.8369
 9639TIP3   OH250407   4.034   0.823  17.146 -0.4271  0.2792 -0.8036
 9639TIP3    H150408   4.067   0.735  17.128 -1.1598 -0.0207 -0.7153
 9639TIP3    H250409   4.056   0.839  17.238 -0.5169  0.0883 -0.7493
 9640TIP3   OH250410   3.511   1.580  13.541 -0.5213 -0.2751 -0.2259
 9640TIP3    H150411   3.604   1.603  13.536 -0.8002  1.1114  0.5561
 9640TIP3    H250412   3.501   1.508  13.478  0.5424  1.2903 -2.3001
 9641TIP3   OH250413   3.043   1.674   5.128  0.3056  0.0003 -0.1305
 9641TIP3    H150414   3.009   1.628   5.204  1.9260 -0.2167  0.5161
 9641TIP3    H250415   3.124   1.627   5.105  0.3334  0.6201 -1.4167
 9642TIP3   OH250416   6.123   2.582  13.660 -0.1503 -0.2406 -0.1643
 9642TIP3    H150417   6.132   2.659  13.717  0.0564 -0.1638 -0.3029
 9642TIP3    H250418   6.054   2.607  13.598 -0.3448 -0.3075  0.0244
 9643TIP3   OH250419   6.313   3.743   5.432  0.0712 -0.0368  0.0620
 9643TIP3    H150420   6.309   3.649   5.449 -1.9056  0.3881  2.4891
 9643TIP3    H250421   6.353   3.780   5.510  0.9106  1.1654 -0.9030
 9644TIP3   OH250422   3.141   4.087  17.141  0.1518 -0.1270 -0.3049
 9644TIP3    H150423   3.068   4.036  17.176 -1.0387  2.3441  1.1103
 9644TIP3    H250424   3.108   4.125  17.059  0.0148  0.5038  0.0299
 9645TIP3   OH250425   4.457   6.500   3.076  0.4399 -0.1838  0.0917
 9645TIP3    H150426   4.426   6.447   3.002 -0.6430  1.2439 -0.5414
 9645TIP3    H250427   4.545   6.467   3.095 -0.0013 -1.8457 -0.5780
 9646TIP3   OH250428   1.763   3.118  15.933  0.0239  0.3683 -0.2157
 9646TIP3    H150429   1.742   3.211  15.925 -0.4146  0.2912 -0.0128
 9646TIP3    H250430   1.721   3.091  16.015  1.3848  0.3224  0.4899
 9647TIP3   OH250431   0.262   3.138  11.931  0.4698 -0.2459  0.5349
 9647TIP3    H150432   0.237   3.073  11.864 -0.9064  0.2461  0.5315
 9647TIP3    H250433   0.330   3.094  11.982  1.3742 -0.7434 -1.0048
 9648TIP3   OH250434   3.347   4.830   3.730 -0.0201 -0.2498 -0.0292
 9648TIP3    H150435   3.306   4.791   3.654 -1.7489  0.1998  0.6314
 9648TIP3    H250436   3.389   4.757   3.776  0.0908 -0.6848 -0.8206
 9649TIP3   OH250437   4.719   4.924  17.105 -0.2106 -0.3057  0.0659
 9649TIP3    H150438   4.787   4.927  17.171  0.5653  3.9744 -0.6567
 9649TIP3    H250439   4.766   4.928  17.021 -1.2747 -2.0185 -0.6630
 9650TIP3   OH250440   1.096   5.818  15.034  0.8138 -0.1815 -0.0531
 9650TIP3    H150441   1.143   5.897  15.006  1.3245 -0.3164  0.3959
 9650TIP3    H250442   1.165   5.755  15.053  0.4240 -0.5751  0.0694
 9651TIP3   OH250443   5.740   5.901  11.187 -0.4281  0.0252 -0.0947
 9651TIP3    H150444   5.774   5.813  11.171  0.8384  0.3104  0.9286
 9651TIP3    H250445   5.690   5.893  11.268  0.4114  0.4173  0.4742
 9652TIP3   OH250446   0.727   5.197   0.796 -0.3905 -0.2574 -0.3923
 9652TIP3    H150447   0.672   5.119   0.795 -1.1031  0.2089 -2.5084
 9652TIP3    H250448   0.666   5.270   0.802  0.1080  0.2073 -0.8046
 9653TIP3   OH250449   3.494   1.667  13.995 -0.2009  0.1165  0.0812
 9653TIP3    H150450   3.465   1.582  14.029 -2.5309  0.0733 -1.7829
 9653TIP3    H250451   3.440   1.731  14.041  0.2186  0.4450  0.1204
 9654TIP3   OH250452   1.607   6.410   3.711 -0.1718 -0.1706  0.6571
 9654TIP3    H150453   1.537   6.345   3.721 -0.8785  0.4792  0.0492
 9654TIP3    H250454   1.636   6.427   3.801 -0.6567 -0.6059  0.9024
 9655TIP3   OH250455   1.566   6.053  16.885  0.1333  0.5777  0.3511
 9655TIP3    H150456   1.522   5.987  16.832  2.7598 -0.9228 -0.1351
 9655TIP3    H250457   1.591   6.122  16.823  0.2702  0.4375  0.2509
 9656TIP3   OH250458   2.174   5.911   5.749 -0.2302  0.5394 -0.2200
 9656TIP3    H150459   2.177   6.006   5.747  2.1344  0.5153 -0.4131
 9656TIP3    H250460   2.118   5.890   5.824 -0.4700  2.0556  0.0486
 9657TIP3   OH250461   4.199   4.594  16.649  0.5949  0.4919 -0.1332
 9657TIP3    H150462   4.134   4.612  16.718  1.6736  1.3685  0.6982
 9657TIP3    H250463   4.170   4.647  16.575 -0.3576 -0.1419 -0.2271
 9658TIP3   OH250464   6.131   5.017  16.277  0.3384  0.2696 -0.3568
 9658TIP3    H150465   6.111   5.096  16.227 -0.0780  0.0610 -0.5148
 9658TIP3    H250466   6.167   4.956  16.213 -2.4456 -0.8929 -0.9164
 9659TIP3   OH250467   6.772   3.875  16.529  1.0829  0.2140 -0.3400
 9659TIP3    H150468   6.699   3.894  16.588 -0.3740  0.4073 -2.1006
 9659TIP3    H250469   6.815   3.798  16.567 -2.6806 -2.7072 -1.3662
 9660TIP3   OH250470   3.705   3.248  13.623 -0.0076  0.1927 -0.5712
 9660TIP3    H150471   3.650   3.175  13.595  0.0582  0.0577 -0.3451
 9660TIP3    H250472   3.674   3.270  13.711 -2.1222  2.4540 -1.7486
 9661TIP3   OH250473   5.569   1.728  15.762  0.0271 -0.1185  0.0637
 9661TIP3    H150474   5.499   1.772  15.714  1.0366 -0.6479 -2.0208
 9661TIP3    H250475   5.638   1.794  15.771  0.5373 -0.4976 -0.8431
 9662TIP3   OH250476   3.518   1.448   2.726  0.2226  0.3612 -0.2799
 9662TIP3    H150477   3.612   1.430   2.728 -0.1754 -2.0018 -0.1251
 9662TIP3    H250478   3.496   1.467   2.817 -0.1145 -3.6252  0.6662
 9663TIP3   OH250479   1.965   2.803  11.642  0.1048  0.0172 -0.5194
 9663TIP3    H150480   1.949   2.870  11.709  0.7355 -0.1429 -0.2062
 9663TIP3    H250481   2.017   2.736  11.687 -0.2283 -0.5191 -0.9277
 9664TIP3   OH250482   2.796   0.874  11.002 -0.0753 -0.0871 -0.0935
 9664TIP3    H150483   2.852   0.823  11.061  1.0587  2.6118  1.3373
 9664TIP3    H250484   2.845   0.876  10.919 -0.0685 -1.1292 -0.1294
 9665TIP3   OH250485   0.725   5.974   2.543 -0.2196  0.2960  0.2935
 9665TIP3    H150486   0.782   5.907   2.506  2.8651  1.2873  2.8203
 9665TIP3    H250487   0.719   5.952   2.636 -1.0030  2.2905  0.7582
 9666TIP3   OH250488   2.617   1.144   5.533  0.0350  0.6633 -0.9149
 9666TIP3    H150489   2.678   1.217   5.527 -2.9753  3.3751 -0.7484
 9666TIP3    H250490   2.612   1.108   5.445  1.1441  0.9387 -1.1039
 9667TIP3   OH250491   5.545   5.412   4.754 -0.3546  0.0460  0.2193
 9667TIP3    H150492   5.531   5.491   4.806 -1.3772 -0.1672  0.2851
 9667TIP3    H250493   5.496   5.428   4.673 -2.4219 -1.3777  1.1039
 9668TIP3   OH250494   1.139   3.424  11.605 -0.3219  0.1815  0.2815
 9668TIP3    H150495   1.077   3.461  11.668  1.3030  0.9295  1.5203
 9668TIP3    H250496   1.143   3.330  11.627 -2.3035 -0.2459 -0.9880
 9669TIP3   OH250497   4.735   2.979   6.350  0.8318  0.3574  0.6883
 9669TIP3    H150498   4.672   3.016   6.289  2.1880  0.5849 -0.6159
 9669TIP3    H250499   4.741   3.043   6.421  0.6533  1.0068  0.1216
 9670TIP3   OH250500   6.343   1.263   0.023 -0.1399  0.6986 -0.1981
 9670TIP3    H150501   6.291   1.318  -0.036 -0.3278  0.4815 -0.2379
 9670TIP3    H250502   6.434   1.280  -0.002 -0.2254  0.4273 -0.7150
 9671TIP3   OH250503   5.646   1.510   2.809 -0.5457 -0.3669  0.2682
 9671TIP3    H150504   5.732   1.516   2.851 -0.2160 -0.3014 -0.4004
 9671TIP3    H250505   5.642   1.587   2.751 -1.0358 -0.3940  0.2584
 9672TIP3   OH250506   3.891   1.424   1.679  0.2996 -0.7876  0.1874
 9672TIP3    H150507   3.796   1.419   1.671  0.2741 -0.3742  0.2228
 9672TIP3    H250508   3.910   1.381   1.763  0.0699 -0.1753  0.5648
 9673TIP3   OH250509   0.805   5.420   3.454  0.0531  0.2031  0.1276
 9673TIP3    H150510   0.729   5.450   3.404 -0.6283  0.0969  1.0764
 9673TIP3    H250511   0.865   5.386   3.388 -0.6993  0.3308 -0.6408
 9674TIP3   OH250512   3.975   4.150   5.642  0.1029 -0.0743  0.3886
 9674TIP3    H150513   3.957   4.133   5.550 -0.1408 -0.9234  0.5885
 9674TIP3    H250514   4.069   4.141   5.651  0.1597  0.2776  0.1749
 9675TIP3   OH250515   6.190   1.228  12.055 -0.2783  0.1138 -0.3978
 9675TIP3    H150516   6.117   1.177  12.089  0.4941 -1.8842 -1.5505
 9675TIP3    H250517   6.260   1.216  12.119 -0.1695 -0.0722 -0.5515
 9676TIP3   OH250518   2.885   5.772  13.611 -0.4289  0.8583 -0.0812
 9676TIP3    H150519   2.857   5.863  13.601  1.7495  1.6558  0.5682
 9676TIP3    H250520   2.949   5.759  13.540 -0.6391 -0.1543 -0.1049
 9677TIP3   OH250521   5.338   4.711   0.363 -0.2916  0.2807  0.4053
 9677TIP3    H150522   5.397   4.650   0.320  2.0503  2.8067 -0.2875
 9677TIP3    H250523   5.316   4.774   0.295 -1.4780  0.9902  1.4127
 9678TIP3   OH250524   6.733   2.210  16.021 -0.5260 -0.0775 -0.3615
 9678TIP3    H150525   6.770   2.140  16.074  0.7521  1.2232  0.5850
 9678TIP3    H250526   6.804   2.234  15.960 -0.9471  0.3729 -0.6877
 9679TIP3   OH250527   2.109   1.942   1.767  0.2830 -0.0352  0.6497
 9679TIP3    H150528   2.014   1.945   1.753  0.3379  0.0554  0.2835
 9679TIP3    H250529   2.132   1.849   1.757  0.1811 -0.1111  1.1018
 9680TIP3   OH250530   0.920   1.771  13.124  0.4311 -0.2152 -0.7907
 9680TIP3    H150531   0.893   1.680  13.139  1.1625 -0.5011 -1.1430
 9680TIP3    H250532   0.866   1.822  13.184 -0.2311 -0.8477 -0.8283
 9681TIP3   OH250533   2.330   2.343  11.362  0.1995 -0.2555  0.5653
 9681TIP3    H150534   2.296   2.433  11.364 -0.6508 -0.5770  1.1082
 9681TIP3    H250535   2.273   2.298  11.300 -0.1205 -0.7121  1.1929
 9682TIP3   OH250536   5.013   0.264   2.606 -0.1644  0.0953  0.0052
 9682TIP3    H150537   4.937   0.292   2.556  2.4179  0.9335 -3.8464
 9682TIP3    H250538   5.064   0.343   2.621  1.5509 -0.8522 -0.5210
 9683TIP3   OH250539   3.587   3.171   0.760  0.2606 -0.0549  0.1261
 9683TIP3    H150540   3.533   3.189   0.683  0.5974 -0.5887 -0.2407
 9683TIP3    H250541   3.543   3.099   0.804 -2.2952  2.8566  2.7757
 9684TIP3   OH250542   5.207   3.288   4.963 -0.5261  0.6563  0.1191
 9684TIP3    H150543   5.301   3.286   4.946 -0.4334 -0.4761  0.6710
 9684TIP3    H250544   5.197   3.354   5.032 -0.0601  0.4046  0.4356
 9685TIP3   OH250545   3.270   2.075  14.835  0.0647  0.0962  0.4016
 9685TIP3    H150546   3.239   1.988  14.859  0.3833 -0.0733  0.2011
 9685TIP3    H250547   3.328   2.100  14.907  0.0147  0.1192  0.4338
 9686TIP3   OH250548   3.465   2.921   1.352  0.5385  0.4606  0.1206
 9686TIP3    H150549   3.405   2.952   1.284  0.5225 -2.1480 -1.1840
 9686TIP3    H250550   3.551   2.948   1.322  0.3535  0.9437  0.0212
 9687TIP3   OH250551   4.072   3.951   3.074  0.0836 -0.0034  0.0896
 9687TIP3    H150552   4.042   3.941   2.984 -0.7655 -1.2134  0.4900
 9687TIP3    H250553   4.013   4.016   3.112 -0.8741 -1.0110  0.3478
 9688TIP3   OH250554   0.948   6.689  11.586  0.2180 -0.5014 -0.5079
 9688TIP3    H150555   1.042   6.678  11.572  0.1805 -0.7586 -0.5639
 9688TIP3    H250556   0.924   6.617  11.644  0.4694  0.8437  1.3453
 9689TIP3   OH250557   0.838   6.723  13.218  0.7557  0.1647  0.0307
 9689TIP3    H150558   0.909   6.658  13.217  0.2814 -0.3720 -1.8084
 9689TIP3    H250559   0.877   6.799  13.262  1.7115 -0.9041  1.1374
 9690TIP3   OH250560   3.295   0.240   0.645 -0.4084  0.3362 -0.3459
 9690TIP3    H150561   3.235   0.303   0.604 -3.3861 -0.9833  1.6428
 9690TIP3    H250562   3.328   0.286   0.722  0.6851  0.8172 -1.0723
 9691TIP3   OH250563   6.332   4.890   1.046 -0.1545  0.6142  0.0952
 9691TIP3    H150564   6.282   4.852   1.118  0.9462 -1.2486 -0.0743
 9691TIP3    H250565   6.414   4.919   1.086  0.2421  0.0582 -0.3040
 9692TIP3   OH250566   3.141   0.372   5.500 -0.1938  0.7071  0.3100
 9692TIP3    H150567   3.138   0.375   5.404  3.7541 -0.2382 -0.0106
 9692TIP3    H250568   3.119   0.461   5.527 -4.6339  0.2717 -1.1093
 9693TIP3   OH250569   4.871   3.897   4.316  0.0048  0.3814 -0.4530
 9693TIP3    H150570   4.785   3.885   4.356  0.0091  0.7118 -0.3415
 9693TIP3    H250571   4.865   3.853   4.231 -0.2751  0.3999 -0.4427
 9694TIP3   OH250572   4.176   0.480   3.495 -0.0677  0.4599 -0.1436
 9694TIP3    H150573   4.109   0.469   3.562  1.1581 -0.6932  0.9430
 9694TIP3    H250574   4.185   0.575   3.486 -0.5287  0.6369  1.0382
 9695TIP3   OH250575   3.934   6.293  15.670 -0.1471  0.2828 -0.0077
 9695TIP3    H150576   3.984   6.357  15.720  0.8720 -2.3548  2.6979
 9695TIP3    H250577   3.847   6.296  15.710 -0.3539  0.5794 -0.4784
 9696TIP3   OH250578   4.244   6.511  16.933 -0.1603  0.1792 -0.6904
 9696TIP3    H150579   4.339   6.523  16.926  0.1891 -2.2883 -0.8359
 9696TIP3    H250580   4.232   6.468  17.018 -1.5343  3.3325  0.8776
 9697TIP3   OH250581   5.626   3.614  17.212 -0.6357 -0.0287  0.3627
 9697TIP3    H150582   5.658   3.560  17.284  1.9470  0.5790 -0.2344
 9697TIP3    H250583   5.605   3.551  17.142 -1.1272 -0.4711  0.8974
 9698TIP3   OH250584   3.511   1.188  11.308  0.0222 -0.6884  0.1834
 9698TIP3    H150585   3.558   1.234  11.377 -0.7517 -0.4770  0.5739
 9698TIP3    H250586   3.428   1.162  11.348 -0.7613  0.0983 -0.8704
 9699TIP3   OH250587   3.346   4.634  13.795 -0.3638  0.0816  0.4618
 9699TIP3    H150588   3.403   4.668  13.726 -0.4632  2.0212  1.2808
 9699TIP3    H250589   3.257   4.651  13.762 -0.4250  0.0301  0.6004
 9700TIP3   OH250590   5.522   3.422  13.200 -0.5285  0.0548  0.3055
 9700TIP3    H150591   5.464   3.407  13.126 -0.6137 -0.8612  0.5531
 9700TIP3    H250592   5.544   3.515  13.194  0.4609 -0.2601 -1.5846
 9701TIP3   OH250593   1.103   1.464  13.276 -0.4479 -0.5008  0.0923
 9701TIP3    H150594   1.011   1.490  13.268 -0.3762  0.3875  1.8486
 9701TIP3    H250595   1.128   1.488  13.365  1.4623 -0.8455 -0.3027
 9702TIP3   OH250596   2.488   4.979   2.368 -0.1199  0.5458 -0.4143
 9702TIP3    H150597   2.572   4.984   2.322 -1.1094  1.1256 -2.2866
 9702TIP3    H250598   2.486   4.890   2.404  1.6491  0.8114  0.4442
 9703TIP3   OH250599   4.078   3.418  11.056  0.0092  0.2646  0.3210
 9703TIP3    H150600   4.145   3.412  11.124  0.3724 -0.3100 -0.0775
 9703TIP3    H250601   4.127   3.438  10.976  0.0136 -2.3318 -0.4237
 9704TIP3   OH250602   0.312   2.631   1.408  0.5884  0.2816  0.5191
 9704TIP3    H150603   0.221   2.624   1.438  0.2544 -0.5603 -0.6363
 9704TIP3    H250604   0.330   2.725   1.407 -0.4983  0.4933  0.0876
 9705TIP3   OH250605   1.355   3.438  10.118  0.1156 -0.1654 -0.4406
 9705TIP3    H150606   1.343   3.426  10.212  0.9338  0.3415 -0.2676
 9705TIP3    H250607   1.403   3.360  10.090 -0.3014 -0.4111 -0.4770
 9706TIP3   OH250608   2.579   6.199   1.687 -0.5528  0.4121  0.2047
 9706TIP3    H150609   2.626   6.237   1.613 -0.1746  0.1722  0.3168
 9706TIP3    H250610   2.603   6.253   1.762  0.6175 -0.5086  0.5132
 9707TIP3   OH250611   1.918   3.589  13.344  0.2700  0.2855  0.4232
 9707TIP3    H150612   1.921   3.495  13.363  0.7800  0.4295  1.0682
 9707TIP3    H250613   1.876   3.594  13.258  2.0580 -0.6635 -0.5548
 9708TIP3   OH250614   5.886   3.796   3.643 -0.5039 -0.1011 -0.3318
 9708TIP3    H150615   5.941   3.719   3.635 -0.5739 -0.3183  1.0299
 9708TIP3    H250616   5.906   3.849   3.566  0.9754 -0.5672 -0.2865
 9709TIP3   OH250617   2.768   3.975  14.715  0.2558  0.6807  0.1786
 9709TIP3    H150618   2.854   3.935  14.709  0.7784  1.9381 -1.3913
 9709TIP3    H250619   2.785   4.069  14.722 -0.9751  1.0187 -0.9260
 9710TIP3   OH250620   2.491   2.456   1.884 -0.4045  0.2835 -0.0007
 9710TIP3    H150621   2.454   2.540   1.910  1.8739  0.9521  1.4256
 9710TIP3    H250622   2.545   2.476   1.807  0.5052  0.2702  0.6102
 9711TIP3   OH250623   4.974   6.248   0.216  0.6025  0.4793 -0.1074
 9711TIP3    H150624   5.041   6.190   0.251  0.5972  0.0231 -0.8440
 9711TIP3    H250625   4.892   6.216   0.255  0.4672 -0.6244 -1.2304
 9712TIP3   OH250626   3.813   0.583  13.801 -0.3153  0.2837 -0.2723
 9712TIP3    H150627   3.784   0.495  13.777  1.5003 -0.7197  0.9440
 9712TIP3    H250628   3.735   0.626  13.836 -1.4195 -0.5332 -1.6335
 9713TIP3   OH250629   1.256   3.891   4.206  0.3022  0.6102  0.2625
 9713TIP3    H150630   1.340   3.862   4.170  0.3185  1.2827 -0.2568
 9713TIP3    H250631   1.277   3.918   4.296  0.4737 -0.0321  0.4202
 9714TIP3   OH250632   5.496   1.267   1.049  0.0447  0.1376 -0.1803
 9714TIP3    H150633   5.429   1.236   1.110 -0.7538  1.7533 -0.1847
 9714TIP3    H250634   5.569   1.296   1.105 -0.1205  0.3248 -0.0616
 9715TIP3   OH250635   4.324   6.524  13.594 -0.1167 -0.0523  0.3019
 9715TIP3    H150636   4.366   6.502  13.677  0.8031 -1.0173 -0.4025
 9715TIP3    H250637   4.374   6.598  13.561 -0.1547 -0.0018  0.3571
 9716TIP3   OH250638   2.057   0.372   1.212  0.1700 -0.4496 -0.1090
 9716TIP3    H150639   2.078   0.373   1.306 -2.2355  1.0857  0.5105
 9716TIP3    H250640   2.138   0.400   1.170  1.1852 -0.7287  1.5471
 9717TIP3   OH250641   4.756   3.705  11.743 -0.0271 -0.2137  0.0936
 9717TIP3    H150642   4.742   3.615  11.712  1.3174 -0.9369  1.4484
 9717TIP3    H250643   4.670   3.746  11.740 -0.6480 -1.5272 -0.6234
 9718TIP3   OH250644   4.623   5.893   5.886  0.2563  0.9445 -0.6429
 9718TIP3    H150645   4.692   5.959   5.880 -0.9095  2.7611  2.8299
 9718TIP3    H250646   4.542   5.940   5.864 -0.4632  0.3488  0.6090
 9719TIP3   OH250647   1.349   5.832  13.362 -0.3282  0.2772  0.4396
 9719TIP3    H150648   1.294   5.903  13.327 -0.0978  0.7453  1.0129
 9719TIP3    H250649   1.438   5.861  13.345 -0.2309 -0.7822 -1.0888
 9720TIP3   OH250650   6.316   2.939   5.535  0.0924  0.1815  0.1203
 9720TIP3    H150651   6.346   2.919   5.624 -0.0796  0.7326  0.3103
 9720TIP3    H250652   6.316   2.855   5.490  0.4017 -0.0691  0.5773
 9721TIP3   OH250653   1.858   1.980   1.462 -0.1256  0.7228  0.4824
 9721TIP3    H150654   1.831   1.969   1.554 -1.0244  0.1842  0.1661
 9721TIP3    H250655   1.789   1.937   1.412  0.0737  1.4962 -0.4810
 9722TIP3   OH250656   2.396   0.570   3.100  0.1416  0.1866 -0.3175
 9722TIP3    H150657   2.425   0.557   3.010 -0.0465 -1.8082 -0.1223
 9722TIP3    H250658   2.365   0.661   3.102  0.6526  0.4399 -2.1035
 9723TIP3   OH250659   1.863   3.807  13.992  0.3159 -0.2274 -0.2108
 9723TIP3    H150660   1.909   3.885  13.962 -0.1709  0.2016  0.1443
 9723TIP3    H250661   1.776   3.813  13.954  0.3974 -0.7951 -0.4931
 9724TIP3   OH250662   5.827   5.234  12.348  0.2660  0.0383  0.4066
 9724TIP3    H150663   5.800   5.143  12.362  0.1688 -0.4533 -2.3301
 9724TIP3    H250664   5.920   5.228  12.326  0.6553  0.8058  1.7653
 9725TIP3   OH250665   3.579   3.241   2.352  0.5295  0.2022 -0.0505
 9725TIP3    H150666   3.648   3.175   2.349  0.4434 -0.0750  2.2382
 9725TIP3    H250667   3.626   3.325   2.359  0.6351  0.1354  0.0418
 9726TIP3   OH250668   3.358   3.309   2.536 -0.1434 -0.3034  0.1282
 9726TIP3    H150669   3.452   3.298   2.520  0.0668  0.5106  0.7555
 9726TIP3    H250670   3.325   3.351   2.457 -0.0238 -0.7432 -0.1652
 9727TIP3   OH250671   5.391   5.536  14.374  0.3048 -0.1180 -0.3701
 9727TIP3    H150672   5.402   5.446  14.344  1.1268  0.6138 -2.4420
 9727TIP3    H250673   5.323   5.572  14.318  0.6193  0.8088 -0.1803
 9728TIP3   OH250674   1.805   6.718  15.887 -0.2447  0.1682  1.1577
 9728TIP3    H150675   1.766   6.764  15.813 -0.3219 -0.5809  0.7203
 9728TIP3    H250676   1.761   6.632  15.887 -0.2705  0.1685  2.0881
 9729TIP3   OH250677   0.071   1.290   3.776  0.1464  0.6926  0.1777
 9729TIP3    H150678   0.038   1.240   3.700  0.2268  1.7805 -0.5939
 9729TIP3    H250679  -0.001   1.288   3.839 -0.9755  2.0324 -1.0065
 9730TIP3   OH250680   1.081   4.195  15.375  0.2938  0.2409  0.3859
 9730TIP3    H150681   1.049   4.172  15.462  0.0683  0.4113  0.3524
 9730TIP3    H250682   1.092   4.112  15.330 -0.6956  0.1965  0.1986
 9731TIP3   OH250683   3.010   2.194  12.785  0.5720 -0.0453  0.0303
 9731TIP3    H150684   3.076   2.212  12.852 -0.1491  1.1182  0.4635
 9731TIP3    H250685   2.937   2.156  12.834  0.2883  0.2084 -0.1959
 9732TIP3   OH250686   6.181   4.079  11.983  0.0001 -0.5763 -0.1079
 9732TIP3    H150687   6.241   4.153  11.985  0.4573 -0.9317 -0.4235
 9732TIP3    H250688   6.237   4.002  11.987 -0.4886 -0.9104  0.6109
 9733TIP3   OH250689   5.956   0.817  15.939  0.1621 -0.0882 -0.2267
 9733TIP3    H150690   6.021   0.874  15.981  0.2408 -0.2228 -0.1628
 9733TIP3    H250691   5.894   0.797  16.009 -0.0373  0.1713 -0.3317
 9734TIP3   OH250692   3.065   3.156  11.302  0.1984 -0.2731 -0.1737
 9734TIP3    H150693   3.139   3.187  11.249  0.8887  1.7895  1.8191
 9734TIP3    H250694   3.101   3.148  11.391 -2.0766  1.6097  1.0408
 9735TIP3   OH250695   0.356   6.651  15.946  0.2812 -0.1514 -0.3465
 9735TIP3    H150696   0.304   6.576  15.975  3.2474 -1.4337  2.2153
 9735TIP3    H250697   0.368   6.704  16.026  0.0011  2.0091 -1.6488
 9736TIP3   OH250698   4.099   1.020   2.981  0.2747 -0.0338 -1.0785
 9736TIP3    H150699   4.150   0.959   2.927  0.5456 -1.2432  0.4661
 9736TIP3    H250700   4.132   1.006   3.070 -0.7009  1.3265 -0.4759
 9737TIP3   OH250701   5.008   1.363   6.383  0.4510 -0.8318  0.0632
 9737TIP3    H150702   5.079   1.421   6.412 -0.7342  0.2582  0.9134
 9737TIP3    H250703   4.929   1.401   6.421 -0.7389 -1.4598 -1.6571
 9738TIP3   OH250704   2.437   5.151  17.191  0.0932 -0.3331  0.4259
 9738TIP3    H150705   2.415   5.060  17.211  1.2587 -1.0108 -1.1764
 9738TIP3    H250706   2.530   5.159  17.211 -0.2451  0.8727  1.6863
 9739TIP3   OH250707   2.647   5.899  15.227 -0.7487 -0.0146  0.0717
 9739TIP3    H150708   2.579   5.944  15.177 -2.0863 -1.0120  0.9098
 9739TIP3    H250709   2.660   5.816  15.180 -0.2932  0.0526  0.0730
 9740TIP3   OH250710   5.055   4.365  15.231 -0.1198  0.7077  0.1948
 9740TIP3    H150711   5.018   4.322  15.154 -0.6816  0.0363  0.8275
 9740TIP3    H250712   5.129   4.416  15.197  0.2142 -0.3156 -0.6517
 9741TIP3   OH250713   6.010   4.086   3.056 -0.7147  0.1839  0.2653
 9741TIP3    H150714   6.002   4.177   3.085  1.3265  0.5787 -0.3133
 9741TIP3    H250715   5.997   4.089   2.961  0.2247  0.0033  0.1250
 9742TIP3   OH250716   0.502   6.581  15.238  0.2133  0.0937  0.3920
 9742TIP3    H150717   0.518   6.668  15.275  0.8850  0.0326  0.2678
 9742TIP3    H250718   0.585   6.535  15.249  0.0801 -0.2960 -0.1692
 9743TIP3   OH250719   1.926   5.039   2.740  0.0912 -0.5771 -0.0954
 9743TIP3    H150720   1.982   5.023   2.816 -0.3866 -0.7129  0.2313
 9743TIP3    H250721   1.884   5.123   2.758  2.7399  1.2688 -1.8932
 9744TIP3   OH250722   4.367   1.420  11.662 -0.2064 -0.3927 -0.4415
 9744TIP3    H150723   4.301   1.378  11.608 -1.8702  2.6189 -0.9875
 9744TIP3    H250724   4.398   1.494  11.610  0.3393  0.8732  1.5428
 9745TIP3   OH250725   4.797   5.138   3.365  0.2558  0.3201 -0.2925
 9745TIP3    H150726   4.818   5.228   3.388 -1.2908  0.2396  1.7226
 9745TIP3    H250727   4.879   5.090   3.377  1.4927  1.6045 -2.8140
 9746TIP3   OH250728   0.563   4.641  16.229  0.5741 -0.2037 -0.1367
 9746TIP3    H150729   0.531   4.582  16.298  1.7777 -2.0794 -1.0726
 9746TIP3    H250730   0.506   4.623  16.155  0.9964 -0.2719 -0.4502
 9747TIP3   OH250731   2.312   6.602   5.975  0.0879 -0.2051 -0.5332
 9747TIP3    H150732   2.406   6.590   5.987  0.3589  2.4413  0.7833
 9747TIP3    H250733   2.273   6.558   6.050  0.4757  0.5912  0.1567
 9748TIP3   OH250734   3.372   4.216  15.811  0.1837 -0.4782  0.2119
 9748TIP3    H150735   3.399   4.172  15.730 -0.5895  0.8918 -0.8243
 9748TIP3    H250736   3.321   4.149  15.858  1.0399 -1.4400 -0.1855
 9749TIP3   OH250737   4.107   5.497   2.695 -0.0832  0.0048 -0.0698
 9749TIP3    H150738   4.028   5.516   2.746 -1.2597 -0.0706 -1.7900
 9749TIP3    H250739   4.075   5.473   2.609  1.8767  1.5117 -1.3139
 9750TIP3   OH250740   0.110   2.102   2.829 -0.6465  0.5918  0.3292
 9750TIP3    H150741   0.118   2.077   2.737 -2.4455  1.4431 -0.0950
 9750TIP3    H250742   0.067   2.028   2.871  0.1718  0.2044  0.4961
 9751TIP3   OH250743   1.829   3.675   5.700 -1.0078  0.1040 -0.2039
 9751TIP3    H150744   1.806   3.591   5.661 -0.8851  0.5204 -1.2017
 9751TIP3    H250745   1.761   3.735   5.669 -1.4939  0.2385  1.0668
 9752TIP3   OH250746   0.564   3.185   6.109 -0.1187  0.0975 -0.0889
 9752TIP3    H150747   0.496   3.242   6.145  2.6123  2.2207  2.1542
 9752TIP3    H250748   0.590   3.227   6.027 -0.2816  0.3221 -0.0267
 9753TIP3   OH250749   5.314   6.598   1.433  0.0385 -0.3921  0.3778
 9753TIP3    H150750   5.219   6.611   1.439  0.3403  1.9209  0.8822
 9753TIP3    H250751   5.327   6.507   1.461 -1.9588 -0.5575  0.9421
 9754TIP3   OH250752   4.197   4.543  11.761 -0.1638  0.0515 -0.0704
 9754TIP3    H150753   4.228   4.454  11.744 -1.4107 -0.2196 -1.0845
 9754TIP3    H250754   4.275   4.598  11.749  0.4653 -0.8323 -0.1254
 9755TIP3   OH250755   6.141   6.064   4.471  0.4456  0.0114 -0.4072
 9755TIP3    H150756   6.182   6.144   4.438 -2.9106  1.0303 -2.6097
 9755TIP3    H250757   6.110   6.019   4.392  2.8409 -4.0221  0.6513
 9756TIP3   OH250758   5.950   1.203   4.788  0.3894 -0.0896  0.1996
 9756TIP3    H150759   5.932   1.160   4.872 -1.0336  1.2529  0.6398
 9756TIP3    H250760   6.003   1.280   4.812 -2.2777  1.8443  0.3232
 9757TIP3   OH250761   6.055   5.216  13.911 -0.2286  0.0839 -0.4351
 9757TIP3    H150762   6.133   5.197  13.964 -0.6903  1.3038  0.7736
 9757TIP3    H250763   6.084   5.282  13.849 -0.2043  0.2866 -0.2111
 9758TIP3   OH250764   4.691   2.957  13.256  0.4936  0.1881 -0.2417
 9758TIP3    H150765   4.676   2.898  13.329 -1.8369 -1.9426 -2.2433
 9758TIP3    H250766   4.785   2.974  13.257  0.7668 -1.0818  2.2318
 9759TIP3   OH250767   6.650   2.253   0.218 -0.6763  0.0844 -0.5451
 9759TIP3    H150768   6.589   2.238   0.290  0.1780  2.4244  0.7546
 9759TIP3    H250769   6.635   2.344   0.192  0.0928 -0.2546 -2.3471
 9760TIP3   OH250770   0.058   2.070   5.718  0.1449 -0.7013 -0.0349
 9760TIP3    H150771   0.070   2.036   5.629 -1.0078  0.1493 -0.5494
 9760TIP3    H250772   0.059   1.992   5.773 -1.2812 -1.4972 -1.0581
 9761TIP3   OH250773   3.188   5.967   2.003  0.1058  0.6144 -0.5956
 9761TIP3    H150774   3.126   5.896   2.018 -0.3810  1.2466  0.5141
 9761TIP3    H250775   3.140   6.047   2.024  1.2538  1.1258  0.2245
 9762TIP3   OH250776   4.340   1.751  15.368 -0.2699 -0.0403 -0.5208
 9762TIP3    H150777   4.336   1.679  15.431  0.7867 -0.2944 -0.7324
 9762TIP3    H250778   4.273   1.813  15.398 -1.6800 -1.4144 -0.7327
 9763TIP3   OH250779   0.434   0.378   5.198 -0.1319  0.3518  0.5169
 9763TIP3    H150780   0.367   0.310   5.204 -2.0067  1.6940 -2.6169
 9763TIP3    H250781   0.416   0.436   5.273 -1.6209 -0.0872  0.5371
 9764TIP3   OH250782   0.735   4.271   0.991 -0.1513 -0.3584 -0.1567
 9764TIP3    H150783   0.753   4.256   1.084  0.2089 -0.5363 -0.2512
 9764TIP3    H250784   0.668   4.207   0.969  0.1109 -0.6454 -0.1315
 9765TIP3   OH250785   2.925   5.088   3.460 -0.3181  0.8923  0.3614
 9765TIP3    H150786   2.969   5.007   3.433 -0.7158  1.1109 -0.9874
 9765TIP3    H250787   2.879   5.064   3.541 -0.5634 -0.2747 -0.1069
 9766TIP3   OH250788   0.820   1.447   0.567 -0.4001 -0.0602  0.0826
 9766TIP3    H150789   0.816   1.510   0.495 -0.1406 -0.7990 -0.5827
 9766TIP3    H250790   0.733   1.451   0.606 -0.9080 -0.4576 -0.9681
 9767TIP3   OH250791   6.273   4.038   3.420 -0.1334  0.1942 -0.0812
 9767TIP3    H150792   6.282   4.037   3.325  2.2362  1.5748  0.0344
 9767TIP3    H250793   6.357   4.005   3.452 -0.6236  0.4054  1.5315
 9768TIP3   OH250794   5.880   4.024  12.746 -0.3993 -0.0989 -0.2550
 9768TIP3    H150795   5.963   3.988  12.716 -1.3052 -2.9573  0.3777
 9768TIP3    H250796   5.824   4.025  12.668 -0.2280  0.4147 -0.3728
 9769TIP3   OH250797   1.307   4.790   5.538  0.5969 -0.1989 -0.4287
 9769TIP3    H150798   1.300   4.866   5.596 -2.1914 -0.2877 -0.5222
 9769TIP3    H250799   1.359   4.726   5.588 -0.6347  0.2158  1.4764
 9770TIP3   OH250800   3.983   1.340   5.201  0.6607 -0.0464 -0.1831
 9770TIP3    H150801   4.046   1.391   5.150 -0.4901 -0.2775 -1.9206
 9770TIP3    H250802   3.908   1.328   5.142  1.1270 -4.3684 -0.2452
 9771TIP3   OH250803   5.200   2.577  15.170 -0.1864  1.5096  0.0861
 9771TIP3    H150804   5.162   2.496  15.135  0.7155  1.8778 -1.9038
 9771TIP3    H250805   5.234   2.552  15.256  1.2850 -0.6421 -1.0309
 9772TIP3   OH250806   5.134   0.551  15.356  0.0223  0.7064 -0.1309
 9772TIP3    H150807   5.194   0.490  15.315 -1.0942 -0.6740  0.1989
 9772TIP3    H250808   5.168   0.563  15.445 -1.0328 -1.3977  0.6199
 9773TIP3   OH250809   5.083   3.951   1.174  0.3058 -0.0181  0.0567
 9773TIP3    H150810   5.067   3.998   1.256 -0.5285  0.8302 -0.5767
 9773TIP3    H250811   5.139   4.009   1.123  0.4207 -0.3253 -0.1728
 9774TIP3   OH250812   4.738   6.578   0.446 -0.1398 -0.1045 -0.0001
 9774TIP3    H150813   4.659   6.626   0.423 -0.3761  0.0809  1.1488
 9774TIP3    H250814   4.806   6.645   0.454 -0.3782  0.0082  1.2000
 9775TIP3   OH250815   1.195   5.567  16.516  0.5208  0.0931 -0.2262
 9775TIP3    H150816   1.272   5.603  16.472  0.8854 -0.8656 -0.3907
 9775TIP3    H250817   1.159   5.505  16.453  0.3618 -0.4188  0.3656
 9776TIP3   OH250818   3.911   1.578  15.170  0.1599 -0.4062 -0.0406
 9776TIP3    H150819   3.834   1.554  15.222  0.7897 -0.5928  0.8345
 9776TIP3    H250820   3.876   1.602  15.085 -0.8921 -0.2940  0.4063
 9777TIP3   OH250821   0.786   3.207   3.917 -0.7488 -0.4637  0.1598
 9777TIP3    H150822   0.820   3.259   3.989 -1.9338  0.0994  0.3308
 9777TIP3    H250823   0.715   3.156   3.955 -0.1998 -1.5443 -0.2111
 9778TIP3   OH250824   2.839   5.985  15.407 -0.0869  0.2350 -0.3075
 9778TIP3    H150825   2.896   5.922  15.452 -1.0745  0.2979  1.1188
 9778TIP3    H250826   2.802   5.936  15.334 -0.4040 -0.7081  0.4575
 9779TIP3   OH250827   5.433   2.583  12.501  0.0467  0.8524  0.2916
 9779TIP3    H150828   5.358   2.545  12.455  0.0150 -1.9034  2.3332
 9779TIP3    H250829   5.396   2.652  12.556 -0.8014  0.4001  0.3002
 9780TIP3   OH250830   0.607   0.201   5.063 -0.3389 -0.2269  0.5515
 9780TIP3    H150831   0.624   0.132   5.127  0.7733  1.3221  2.0330
 9780TIP3    H250832   0.542   0.257   5.106  1.2824  1.4795  0.8973
 9781TIP3   OH250833   5.364   4.206  11.255  0.3835 -0.2761  0.8772
 9781TIP3    H150834   5.419   4.175  11.326  0.3711  0.4691  1.2213
 9781TIP3    H250835   5.286   4.150  11.258  0.5297 -0.4616  1.2359
 9782TIP3   OH250836   0.412   4.705   5.043 -0.3647  0.3816  0.4539
 9782TIP3    H150837   0.418   4.752   4.960  0.2468  0.4171  0.5127
 9782TIP3    H250838   0.395   4.614   5.018  1.2861  0.1043  0.2084
 9783TIP3   OH250839   6.143   0.048   6.798  0.5331  0.1137 -0.0430
 9783TIP3    H150840   6.168  -0.000   6.719  0.3447  0.7654 -0.5155
 9783TIP3    H250841   6.063   0.004   6.828  0.8911 -0.4589  0.0856
 9784TIP3   OH250842   0.856   3.855   5.868 -0.3049  0.6370 -0.0678
 9784TIP3    H150843   0.869   3.780   5.926 -1.2755  1.4995  1.3258
 9784TIP3    H250844   0.939   3.903   5.873  0.3060 -0.2748 -0.9304
 9785TIP3   OH250845   2.000   2.917   2.261 -0.6317  0.2871 -0.3056
 9785TIP3    H150846   2.015   2.839   2.315 -1.5555  0.9559  0.9581
 9785TIP3    H250847   2.087   2.953   2.245 -0.3163 -0.1650  0.3696
 9786TIP3   OH250848   3.555   4.365   0.853  0.2667  0.0031  0.2899
 9786TIP3    H150849   3.534   4.395   0.765 -0.1033 -0.1714  0.3161
 9786TIP3    H250850   3.548   4.270   0.849  0.6737 -0.0342  0.4011
 9787TIP3   OH250851   2.632   2.903   0.879 -0.4218  0.4398 -0.1306
 9787TIP3    H150852   2.623   2.964   0.952 -1.5131 -0.8118  0.8271
 9787TIP3    H250853   2.576   2.939   0.810  0.8205  1.7709 -0.4813
 9788TIP3   OH250854   0.192   3.672   5.129  0.6815 -0.5972 -0.2070
 9788TIP3    H150855   0.196   3.580   5.157  1.4599 -0.0545  1.5855
 9788TIP3    H250856   0.233   3.720   5.200  0.6083  1.1256 -1.2922
 9789TIP3   OH250857   5.377   5.465   3.355 -0.0102 -0.5281  0.3688
 9789TIP3    H150858   5.376   5.381   3.309  1.5245 -1.2878  1.6172
 9789TIP3    H250859   5.383   5.441   3.447 -0.6083  0.9668  0.8108
 9790TIP3   OH250860   1.525   2.233   2.199 -0.3779 -0.0079  0.5690
 9790TIP3    H150861   1.544   2.171   2.269 -0.9751  0.3361  1.0461
 9790TIP3    H250862   1.432   2.221   2.181 -0.5058  0.7773  0.6923
 9791TIP3   OH250863   3.475   2.901   0.142  0.5452  0.3698 -0.5646
 9791TIP3    H150864   3.492   2.817   0.185 -0.2926 -0.7981 -2.3717
 9791TIP3    H250865   3.379   2.906   0.138  0.6028  0.9956 -1.2596
 9792TIP3   OH250866   6.199   6.210  13.165  0.1267 -0.6230 -0.3813
 9792TIP3    H150867   6.205   6.185  13.257  1.5271  0.7450 -0.0720
 9792TIP3    H250868   6.149   6.139  13.124 -0.2356 -1.4105  1.3542
 9793TIP3   OH250869   2.413   2.863  13.855  0.0637  0.2734 -0.3682
 9793TIP3    H150870   2.456   2.947  13.835 -0.0636  0.1946 -0.9851
 9793TIP3    H250871   2.321   2.886  13.867 -0.0009  0.1892 -0.7226
 9794TIP3   OH250872   6.664   4.942  17.094  0.4013 -0.1962  0.5444
 9794TIP3    H150873   6.674   5.035  17.074 -0.0268 -0.4173 -0.7370
 9794TIP3    H250874   6.627   4.941  17.183 -2.4468  0.9724 -0.4950
 9795TIP3   OH250875   6.712   0.081   0.270 -0.4317 -1.0460  0.2325
 9795TIP3    H150876   6.618   0.065   0.268 -1.1511  2.2983  1.0525
 9795TIP3    H250877   6.731   0.107   0.360  1.0044 -0.4029 -0.2073
 9796TIP3   OH250878   0.087   1.517   5.620 -0.2612 -0.2379 -0.5361
 9796TIP3    H150879   0.146   1.574   5.570  0.4707 -0.9253 -0.4613
 9796TIP3    H250880  -0.000   1.539   5.586 -0.2323  2.2244  0.7148
 9797TIP3   OH250881   5.358   3.829  16.603  0.0369 -0.3233 -0.4285
 9797TIP3    H150882   5.360   3.923  16.584 -0.1795 -0.1667  0.2950
 9797TIP3    H250883   5.348   3.787  16.518  0.2330  0.3058 -0.7676
 9798TIP3   OH250884   0.032   1.935  16.393  0.4271  0.1559 -0.0276
 9798TIP3    H150885   0.118   1.907  16.427  0.0530 -3.1881 -1.4049
 9798TIP3    H250886   0.049   1.958  16.302 -0.0341  0.1403 -0.1171
 9799TIP3   OH250887   1.691   3.532  13.781 -0.1316  0.0371 -0.4851
 9799TIP3    H150888   1.732   3.507  13.864 -0.7936  1.2460  0.2428
 9799TIP3    H250889   1.626   3.464  13.764  0.5245 -0.6110 -0.3957
 9800TIP3   OH250890   4.517   5.919   4.302 -0.1048  0.3747  0.1961
 9800TIP3    H150891   4.591   5.963   4.262  0.0681 -0.7554 -0.7706
 9800TIP3    H250892   4.556   5.855   4.361 -0.3555  1.4611  1.6039
 9801TIP3   OH250893   5.861   6.164  12.262 -0.3161 -0.0168  0.2375
 9801TIP3    H150894   5.812   6.196  12.338 -0.6308 -2.4636  1.1806
 9801TIP3    H250895   5.937   6.222  12.255 -0.5473  0.5711  2.1339
 9802TIP3   OH250896   3.300   6.135  13.643 -0.2486  0.5231  0.3311
 9802TIP3    H150897   3.270   6.075  13.711 -0.3122 -0.0867 -0.2208
 9802TIP3    H250898   3.391   6.111  13.629 -0.1172  0.9268  0.4928
 9803TIP3   OH250899   2.675   3.601   1.457  0.5574  0.1444  0.1827
 9803TIP3    H150900   2.676   3.697   1.461  0.0135  0.1258  0.7874
 9803TIP3    H250901   2.749   3.575   1.512 -0.1642  0.1867  1.1924
 9804TIP3   OH250902   4.686   1.114   0.520  0.1678 -0.6376 -0.4447
 9804TIP3    H150903   4.651   1.097   0.433 -0.4327 -1.2431 -0.0975
 9804TIP3    H250904   4.673   1.208   0.533 -2.1095 -0.9559 -0.0274
 9805TIP3   OH250905   6.028   2.275   2.603 -0.5264 -0.6621 -0.3675
 9805TIP3    H150906   5.950   2.222   2.586  0.2751 -1.7853 -0.5766
 9805TIP3    H250907   6.096   2.212   2.624  0.7269  0.2048 -1.6774
 9806TIP3   OH250908   4.412   0.125  12.323  0.2457  0.6024 -0.3444
 9806TIP3    H150909   4.406   0.061  12.394 -0.5443 -1.7917 -2.4581
 9806TIP3    H250910   4.505   0.125  12.299 -0.0017 -1.0988 -1.4433
 9807TIP3   OH250911   3.667   3.219   1.685  0.4276  0.8147 -0.4562
 9807TIP3    H150912   3.619   3.260   1.756 -0.7416  0.6020 -1.0995
 9807TIP3    H250913   3.672   3.127   1.709  1.4182  0.9901  0.0855
 9808TIP3   OH250914   2.211   1.800  11.537 -0.6671 -0.1009  0.3712
 9808TIP3    H150915   2.156   1.833  11.608 -1.3411 -0.0537 -0.1563
 9808TIP3    H250916   2.222   1.707  11.556 -0.7685 -0.0700  0.5848
 9809TIP3   OH250917   2.542   5.603   5.795  0.0457 -0.3514 -0.5099
 9809TIP3    H150918   2.554   5.508   5.794  0.7135 -0.3254  1.2133
 9809TIP3    H250919   2.493   5.620   5.876  0.7925  0.8441 -0.2797
 9810TIP3   OH250920   2.938   1.260  11.941 -0.1776 -0.2868 -0.1181
 9810TIP3    H150921   3.006   1.327  11.936 -0.3575 -0.1632 -1.0349
 9810TIP3    H250922   2.937   1.219  11.854 -0.4138 -1.1428  0.2737
 9811TIP3   OH250923   4.214   3.083  12.496  0.0355 -0.2756 -0.2403
 9811TIP3    H150924   4.228   3.135  12.416  2.0348  1.5396  1.1648
 9811TIP3    H250925   4.217   3.148  12.566  0.2085 -2.0516  1.4484
 9812TIP3   OH250926   2.120   0.606   5.587 -0.0909 -0.2568 -0.3273
 9812TIP3    H150927   2.213   0.625   5.585 -0.1420 -0.0645 -1.2175
 9812TIP3    H250928   2.077   0.691   5.582 -0.3157 -0.3707 -0.3763
 9813TIP3   OH250929   6.463   4.443   1.424  0.4598 -0.0351  0.2357
 9813TIP3    H150930   6.480   4.522   1.476  0.2202  0.0796  0.1396
 9813TIP3    H250931   6.430   4.380   1.488 -1.3549  0.6011 -0.0151
 9814TIP3   OH250932   5.360   6.393  15.351  0.3076  0.3695 -0.8390
 9814TIP3    H150933   5.282   6.450  15.355 -0.4666 -0.6986 -0.0339
 9814TIP3    H250934   5.391   6.390  15.442 -0.1319 -1.0846 -0.7091
 9815TIP3   OH250935   0.396   5.857  15.682  0.1805 -0.9667 -0.0314
 9815TIP3    H150936   0.481   5.813  15.693  0.6829  0.5084  3.1805
 9815TIP3    H250937   0.419   5.949  15.667 -0.8758 -0.6687  0.1354
 9816TIP3   OH250938   4.331   4.067   0.549  0.6255 -0.1789 -0.7759
 9816TIP3    H150939   4.415   4.104   0.521 -0.5376  2.3297 -1.3073
 9816TIP3    H250940   4.281   4.057   0.468 -0.2171  0.1182 -0.3070
 9817TIP3   OH250941   5.623   0.927  13.035 -0.0138  0.3325  0.5435
 9817TIP3    H150942   5.593   0.944  12.945 -0.6749  1.1341  0.8942
 9817TIP3    H250943   5.592   1.003  13.085  0.6041  0.0407  1.3959
 9818TIP3   OH250944   2.656   4.167   4.327  0.5925 -0.2238  0.3057
 9818TIP3    H150945   2.699   4.110   4.263 -0.2524  0.7958 -1.2343
 9818TIP3    H250946   2.590   4.110   4.367  1.0924 -0.8680  0.2431
 9819TIP3   OH250947   1.106   3.208   5.811 -0.6369 -0.1065 -0.4481
 9819TIP3    H150948   1.079   3.294   5.845  2.1575  0.7620 -0.1787
 9819TIP3    H250949   1.140   3.227   5.724  0.5722 -0.8105 -0.1478
 9820TIP3   OH250950   0.162   0.173   0.471  0.4428  0.3086  0.1645
 9820TIP3    H150951   0.081   0.174   0.522  1.0449 -2.4596  1.3849
 9820TIP3    H250952   0.185   0.080   0.465  1.9583  0.7598 -2.7516
 9821TIP3   OH250953   1.690   1.604  16.996  0.1005  0.3559  0.0846
 9821TIP3    H150954   1.700   1.619  16.902  0.4706  1.1177  0.2361
 9821TIP3    H250955   1.683   1.692  17.034  0.6677  0.0917  0.8430
 9822TIP3   OH250956   0.813   2.989  13.552  0.2451 -0.0491 -0.0355
 9822TIP3    H150957   0.770   3.070  13.525  0.4867  0.1269  0.1191
 9822TIP3    H250958   0.754   2.920  13.520  0.9631  0.1193 -1.8464
 9823TIP3   OH250959   0.458   4.601  14.176 -0.3275  0.7681  0.3336
 9823TIP3    H150960   0.438   4.694  14.166 -5.1659  0.0795  1.1978
 9823TIP3    H250961   0.432   4.562  14.093  1.9114  0.1307 -0.1163
 9824TIP3   OH250962   0.583   4.332  11.496 -0.4022  0.1452 -0.4478
 9824TIP3    H150963   0.580   4.319  11.591 -0.8796 -3.0803 -0.7927
 9824TIP3    H250964   0.641   4.408  11.484  1.1967 -0.5073  2.3257
 9825TIP3   OH250965   3.233   3.541  11.726  0.0235 -0.3750  0.5767
 9825TIP3    H150966   3.277   3.624  11.708 -2.8143  1.6056  2.0408
 9825TIP3    H250967   3.162   3.538  11.662 -0.6923 -0.9945  1.3832
 9826TIP3   OH250968   5.936   3.573  12.021 -0.0105  0.5058  0.5398
 9826TIP3    H150969   5.928   3.617  11.937 -1.5994  0.9063  0.8599
 9826TIP3    H250970   5.924   3.480  12.001  0.5241  0.5008  0.2252
 9827TIP3   OH250971   2.843   5.717  10.244  0.1348  0.0200  0.0671
 9827TIP3    H150972   2.771   5.719  10.307 -1.3116  1.1282 -1.5008
 9827TIP3    H250973   2.824   5.642  10.187 -0.5321  1.0292 -1.1015
 9828TIP3   OH250974   0.469   5.023   3.997 -0.3221  0.2841  0.1451
 9828TIP3    H150975   0.560   4.992   4.006 -0.4423  0.2578  1.4800
 9828TIP3    H250976   0.418   4.961   4.049 -1.3202 -0.5150 -1.7080
 9829TIP3   OH250977   5.759   5.924  14.813 -0.1895  0.2183  0.3845
 9829TIP3    H150978   5.725   5.993  14.870  0.3794 -0.1479  1.1870
 9829TIP3    H250979   5.848   5.908  14.845 -0.5080 -1.2922  0.6019
 9830TIP3   OH250980   1.762   0.786  14.883  0.7194 -0.2084  0.2703
 9830TIP3    H150981   1.689   0.772  14.943  0.2470 -2.2854 -0.6968
 9830TIP3    H250982   1.840   0.776  14.938  0.3023  0.4668  1.0068
 9831TIP3   OH250983   0.764   6.306  10.699  0.0863  0.4660 -0.1251
 9831TIP3    H150984   0.752   6.238  10.632  0.9671  0.5392 -0.3685
 9831TIP3    H250985   0.857   6.301  10.721  0.2974  1.9893 -0.5778
 9832TIP3   OH250986   4.588   4.290  16.816  0.3229  0.4290 -0.0757
 9832TIP3    H150987   4.676   4.256  16.799 -0.2666 -0.8980 -0.6221
 9832TIP3    H250988   4.568   4.260  16.905 -0.8359 -2.2606 -1.1253
 9833TIP3   OH250989   0.972   0.416  12.855 -0.0673  0.0860 -0.5629
 9833TIP3    H150990   1.021   0.497  12.843 -0.4942  0.5448  0.6529
 9833TIP3    H250991   1.025   0.364  12.915  0.3047 -0.6428 -1.4981
 9834TIP3   OH250992   6.016   6.405  11.654 -0.0069 -0.4586  0.1662
 9834TIP3    H150993   5.973   6.408  11.739  0.7715  0.0143  0.5581
 9834TIP3    H250994   6.095   6.459  11.665 -1.4006  2.2047 -1.7106
 9835TIP3   OH250995   6.783   2.947   1.210 -0.3185  0.6042 -0.2279
 9835TIP3    H150996   6.750   3.022   1.161 -2.3070 -0.8772 -1.2885
 9835TIP3    H250997   6.801   2.881   1.144  0.4917 -0.2044  0.7651
 9836TIP3   OH250998   2.033   3.430  12.755  0.6782  0.3618 -0.1533
 9836TIP3    H150999   1.991   3.385  12.828 -0.7770  1.0653 -0.5168
 9836TIP3    H251000   2.047   3.520  12.787  1.2569  0.3234 -0.2886
 9837TIP3   OH251001   6.485   0.578  14.417 -0.4282 -0.3638 -0.2145
 9837TIP3    H151002   6.438   0.511  14.368 -1.1571  0.9614 -1.4301
 9837TIP3    H251003   6.577   0.563  14.397 -0.7307  0.4059 -2.4434
 9838TIP3   OH251004   5.108   3.731   5.523  0.2387 -0.4276 -0.4188
 9838TIP3    H151005   5.183   3.766   5.474  0.9278  0.1886  1.0164
 9838TIP3    H251006   5.060   3.679   5.459  0.5715  1.1127 -1.9942
 9839TIP3   OH251007   4.761   4.408  11.040 -0.0334  0.4694  0.2215
 9839TIP3    H151008   4.777   4.496  11.073 -0.2959 -0.3782  2.8475
 9839TIP3    H251009   4.765   4.417  10.945 -0.7719  3.4397  0.3594
 9840TIP3   OH251010   6.484   1.932  16.676 -0.0366  0.2120  0.4471
 9840TIP3    H151011   6.408   1.927  16.619  0.1992 -0.2503  0.1644
 9840TIP3    H251012   6.483   2.021  16.711  0.0160  0.6079 -0.5449
 9841TIP3   OH251013   4.931   1.322  13.253 -0.2679 -0.3805  0.3080
 9841TIP3    H151014   4.885   1.244  13.221  1.6527 -1.5866  0.3543
 9841TIP3    H251015   4.993   1.288  13.318 -0.5343  1.4061  1.5669
 9842TIP3   OH251016   1.693   5.821   5.030  0.6257  0.2826  0.4470
 9842TIP3    H151017   1.671   5.848   5.119  0.2302  1.8566 -0.0972
 9842TIP3    H251018   1.745   5.894   4.995 -0.0228  0.1129 -0.9190
 9843TIP3   OH251019   4.621   1.551  16.677 -0.3533  0.2717 -0.5750
 9843TIP3    H151020   4.644   1.547  16.770  0.6254 -0.7900 -0.8355
 9843TIP3    H251021   4.602   1.643  16.660  1.4728  0.8397  0.2233
 9844TIP3   OH251022   1.260   2.640   5.439  0.3579 -0.2444 -0.5270
 9844TIP3    H151023   1.250   2.722   5.487  1.4122  0.3528 -1.2980
 9844TIP3    H251024   1.204   2.578   5.487  0.9970  0.4284  1.1784
 9845TIP3   OH251025   2.458   3.830   0.525 -0.1950 -0.4412 -0.1601
 9845TIP3    H151026   2.457   3.866   0.436 -2.5665  2.1304  0.7572
 9845TIP3    H251027   2.368   3.802   0.541 -0.0021 -0.1713  1.6549
 9846TIP3   OH251028   4.056   6.561  15.778  0.4001  0.2110  0.0665
 9846TIP3    H151029   4.134   6.507  15.768  2.2998  2.5760  1.3092
 9846TIP3    H251030   4.046   6.606  15.693  0.5741  0.1606  0.0205
 9847TIP3   OH251031   0.136   6.798   0.803 -0.6084 -0.0755 -0.2184
 9847TIP3    H151032   0.167   6.802   0.713 -3.9220  1.1578 -1.4562
 9847TIP3    H251033   0.042   6.782   0.796 -1.0117  0.1020  3.0285
 9848TIP3   OH251034   4.602   2.020   4.041 -0.3112 -0.3254 -0.7155
 9848TIP3    H151035   4.635   2.092   3.988 -1.4436 -1.0164 -2.4172
 9848TIP3    H251036   4.671   1.954   4.038  0.2428  0.1970 -0.0772
 9849TIP3   OH251037   5.599   0.632  13.633 -0.2392  0.5388  0.1363
 9849TIP3    H151038   5.676   0.593  13.676  1.2498  1.9169 -1.1602
 9849TIP3    H251039   5.587   0.580  13.553  1.6803  2.4952 -1.5374
 9850TIP3   OH251040   1.266   4.050   1.924 -0.1167 -0.1830  0.9904
 9850TIP3    H151041   1.225   4.121   1.972  1.8791  0.2753  2.1647
 9850TIP3    H251042   1.241   3.971   1.972 -0.2184  0.0122  1.2635
 9851TIP3   OH251043   3.865   2.969   3.861  0.0247  0.5807 -0.4622
 9851TIP3    H151044   3.770   2.955   3.865  0.2675 -1.1655  2.3808
 9851TIP3    H251045   3.875   3.064   3.861 -1.7667  0.8232  0.5077
 9852TIP3   OH251046   3.412   5.901  14.031 -0.1205 -0.1804  0.6050
 9852TIP3    H151047   3.493   5.906  13.980 -0.5026 -1.3228 -0.1664
 9852TIP3    H251048   3.368   5.985  14.015  0.5896  0.1769  0.4850
 9853TIP3   OH251049   2.960   2.144   1.493  0.3534 -0.1663  0.0395
 9853TIP3    H151050   2.927   2.232   1.475  0.3754 -0.3569 -1.0363
 9853TIP3    H251051   2.889   2.099   1.538 -0.4131 -0.1983 -1.1759
 9854TIP3   OH251052   1.402   4.109  15.427 -0.0217 -0.6038  0.8513
 9854TIP3    H151053   1.364   4.131  15.512  0.0928 -2.5730  1.4546
 9854TIP3    H251054   1.466   4.040  15.446  2.0664  0.8142 -0.4636
 9855TIP3   OH251055   4.405   0.381  17.195 -0.0115 -0.7667 -0.6004
 9855TIP3    H151056   4.402   0.403  17.102 -0.5601 -1.0455 -0.6529
 9855TIP3    H251057   4.447   0.457  17.236 -2.8324  0.9882 -0.6168
 9856TIP3   OH251058   0.944   2.397  15.764 -0.4582  0.3405 -0.5798
 9856TIP3    H151059   1.012   2.460  15.740 -1.3551  1.3446 -0.5400
 9856TIP3    H251060   0.922   2.354  15.681  2.1297 -2.0270 -0.2059
 9857TIP3   OH251061   0.610   3.260  12.560  0.6611 -0.0474 -0.1453
 9857TIP3    H151062   0.552   3.328  12.528  0.7731  1.1751  2.0335
 9857TIP3    H251063   0.620   3.279  12.653  6.5692  1.4702 -0.6803
 9858TIP3   OH251064   3.834   0.212   4.566  0.0933 -0.4812 -0.6014
 9858TIP3    H151065   3.842   0.127   4.608 -0.3151 -1.0086 -1.5737
 9858TIP3    H251066   3.761   0.203   4.505 -0.7347  0.9161  0.1124
 9859TIP3   OH251067   1.491   3.006   5.822 -0.2708  0.6381  0.3501
 9859TIP3    H151068   1.472   3.038   5.734 -0.8350  0.5953  0.4517
 9859TIP3    H251069   1.527   3.082   5.868  1.2664  0.3214 -0.2947
 9860TIP3   OH251070   1.436   3.556   4.338 -0.8566 -0.3001  0.0107
 9860TIP3    H151071   1.425   3.461   4.336 -2.2107 -0.1958  0.9031
 9860TIP3    H251072   1.415   3.584   4.249 -0.0238 -0.8643 -0.3739
 9861TIP3   OH251073   0.266   6.159  15.121  0.1554  0.4341  0.0266
 9861TIP3    H151074   0.205   6.208  15.175  1.7959 -0.0011  2.4236
 9861TIP3    H251075   0.239   6.068  15.130  1.2466  0.2096  1.3175
 9862TIP3   OH251076   0.314   5.181  12.443  0.0916  0.1494 -0.2778
 9862TIP3    H151077   0.340   5.129  12.520  1.5282  0.6658 -0.3716
 9862TIP3    H251078   0.234   5.226  12.470 -0.7256 -1.4649  0.0931
 9863TIP3   OH251079   2.280   6.379  12.307 -0.0018  0.3207  0.0451
 9863TIP3    H151080   2.273   6.341  12.395  1.0095  0.9376  0.4023
 9863TIP3    H251081   2.234   6.317  12.251  0.9277 -1.0286  0.7294
 9864TIP3   OH251082   5.923   6.455   5.967 -0.1737  0.4273 -0.1330
 9864TIP3    H151083   5.960   6.373   6.000 -1.7106 -0.6889 -1.0503
 9864TIP3    H251084   5.921   6.512   6.044  0.2831 -0.6261  0.6976
 9865TIP3   OH251085   4.895   6.623   6.073 -0.0738  0.0325 -1.0106
 9865TIP3    H151086   4.854   6.710   6.070 -0.8654 -0.1866  1.2579
 9865TIP3    H251087   4.973   6.631   6.019 -0.7959  1.7842 -1.8749
 9866TIP3   OH251088   0.110   2.284   3.773  0.7496  0.1178 -0.0011
 9866TIP3    H151089   0.161   2.328   3.841  0.8061  0.3395 -0.1854
 9866TIP3    H251090   0.067   2.355   3.725  1.0309 -0.0048 -0.4531
 9867TIP3   OH251091   1.799   2.324  13.772  0.5195  0.1531 -0.3479
 9867TIP3    H151092   1.762   2.335  13.684 -0.1997 -2.2327 -0.4237
 9867TIP3    H251093   1.890   2.298  13.757  0.1241 -1.2638 -0.4890
 9868TIP3   OH251094   0.919   2.797   3.322 -0.5062 -0.0509 -0.5198
 9868TIP3    H151095   0.925   2.782   3.228 -1.5709  1.5681 -0.8964
 9868TIP3    H251096   0.833   2.837   3.334 -0.0625  0.5153  1.0385
 9869TIP3   OH251097   3.454   4.242   5.183 -0.0219 -0.1220 -0.8527
 9869TIP3    H151098   3.457   4.294   5.103 -1.2541  0.7086 -0.3897
 9869TIP3    H251099   3.445   4.306   5.253 -1.6532 -0.9383 -0.2706
 9870TIP3   OH251100   3.034   6.123  11.428  0.3785  0.0848 -0.4934
 9870TIP3    H151101   3.001   6.208  11.401  0.1789  0.1013 -0.2015
 9870TIP3    H251102   2.956   6.069  11.439  0.4986 -0.1127 -0.5939
 9871TIP3   OH251103   2.620   0.181   3.618  0.1741  0.0019  0.2609
 9871TIP3    H151104   2.694   0.232   3.653  2.0224 -1.0647 -1.8947
 9871TIP3    H251105   2.567   0.160   3.696  1.6187  1.5700  1.7572
 9872TIP3   OH251106   0.573   3.015   0.117 -0.6396  0.3881  0.2814
 9872TIP3    H151107   0.535   3.050   0.198  0.4941  2.2304  0.0751
 9872TIP3    H251108   0.520   3.054   0.047  0.4148  1.5120  0.0625
 9873TIP3   OH251109   0.049   1.929   3.276  0.9137  0.9035  0.3457
 9873TIP3    H151110   0.034   1.959   3.366  1.5148  2.0332  0.0808
 9873TIP3    H251111   0.005   1.993   3.221 -1.8455 -1.2238 -0.1586
 9874TIP3   OH251112   6.589   2.155   1.276  0.3201 -0.1399 -0.0973
 9874TIP3    H151113   6.610   2.161   1.183  0.6375 -1.9361 -0.1854
 9874TIP3    H251114   6.568   2.062   1.290  1.4344 -0.1647  1.8431
 9875TIP3   OH251115   1.860   4.462  14.790  0.1137 -0.0070  0.2791
 9875TIP3    H151116   1.833   4.435  14.702  0.6194 -0.3965  0.2372
 9875TIP3    H251117   1.872   4.557  14.783 -0.2646  0.0253  0.0401
 9876TIP3   OH251118   0.653   0.093   3.992 -0.3903  0.2348  0.4791
 9876TIP3    H151119   0.657   0.158   3.923 -1.4178  2.3960  2.3154
 9876TIP3    H251120   0.741   0.055   3.995 -0.9362 -1.9205 -3.6429
 9877TIP3   OH251121   2.137   2.213  11.222  0.3343  0.3398  0.1599
 9877TIP3    H151122   2.074   2.274  11.260 -0.0462 -0.1263  0.2892
 9877TIP3    H251123   2.109   2.127  11.253  0.0649 -0.0523 -1.1119
 9878TIP3   OH251124   6.607   0.258  16.317 -0.0309 -0.4573 -0.4641
 9878TIP3    H151125   6.555   0.222  16.390 -0.4112 -0.6425 -0.8229
 9878TIP3    H251126   6.551   0.246  16.240 -0.8906  2.3408 -0.3869
 9879TIP3   OH251127   4.439   6.019   3.249  0.7120 -0.0251  0.6600
 9879TIP3    H151128   4.395   5.997   3.167  0.5465  1.2777  0.3702
 9879TIP3    H251129   4.532   6.018   3.228  0.6307  2.0134 -0.0613
 9880TIP3   OH251130   2.371   3.181   0.500  0.7474  0.2137  0.1833
 9880TIP3    H151131   2.464   3.184   0.476  0.9173 -2.8949  0.0728
 9880TIP3    H251132   2.326   3.155   0.420 -0.4031  2.5188  0.0134
 9881TIP3   OH251133   6.286   1.646   5.873  0.2761  0.3890  0.0025
 9881TIP3    H151134   6.368   1.689   5.898  1.2562 -1.8952  1.1328
 9881TIP3    H251135   6.251   1.611   5.955  0.2244 -1.9235 -0.9110
 9882TIP3   OH251136   4.853   4.596  10.531  0.7205  0.2079  0.1434
 9882TIP3    H151137   4.774   4.648  10.545  0.3999 -0.3909  0.5771
 9882TIP3    H251138   4.891   4.632  10.450 -0.5139 -0.1259 -0.6147
 9883TIP3   OH251139   6.215   5.445   5.653  0.2836  0.4084  0.1180
 9883TIP3    H151140   6.124   5.466   5.677  0.3114  0.6005  0.0569
 9883TIP3    H251141   6.265   5.523   5.677  0.2857  0.6870 -0.7347
 9884TIP3   OH251142   6.619   0.055  15.733 -0.0477  0.1636 -0.4548
 9884TIP3    H151143   6.638   0.148  15.731  2.2902 -0.1808  1.2070
 9884TIP3    H251144   6.655   0.021  15.651  3.7651  0.0969  1.0662
 9885TIP3   OH251145   4.193   2.624   2.602  0.7943  0.5959  0.1599
 9885TIP3    H151146   4.251   2.655   2.532  0.1936  1.1942 -0.0834
 9885TIP3    H251147   4.206   2.529   2.604  2.1466  0.7602  0.4409
 9886TIP3   OH251148   0.931   6.236   5.743 -0.1815  0.5374 -0.1472
 9886TIP3    H151149   0.990   6.191   5.803 -0.4977 -1.8784 -1.5080
 9886TIP3    H251150   0.980   6.241   5.661  0.0373  3.2780  0.0761
 9887TIP3   OH251151   3.233   3.912   1.192 -0.2832 -0.0358  0.0346
 9887TIP3    H151152   3.213   3.981   1.127 -1.7605 -0.3673  0.0929
 9887TIP3    H251153   3.320   3.933   1.223  0.3584  0.3176 -1.8500
 9888TIP3   OH251154   4.268   1.488   6.072 -0.1154 -0.3330  0.2471
 9888TIP3    H151155   4.217   1.451   6.144 -0.3228 -0.6737 -0.0719
 9888TIP3    H251156   4.202   1.522   6.011  0.0719  0.5135  0.5080
 9889TIP3   OH251157   6.025   4.940   0.362 -0.1839 -0.1851 -0.8784
 9889TIP3    H151158   5.951   4.986   0.401 -0.0758 -0.0509 -0.8290
 9889TIP3    H251159   6.011   4.848   0.383 -0.3412 -0.1607 -0.8786
 9890TIP3   OH251160   4.415   6.556   5.155 -0.7160 -0.2484 -0.2498
 9890TIP3    H151161   4.335   6.550   5.207 -0.7674 -1.7618 -0.4681
 9890TIP3    H251162   4.451   6.468   5.156  0.3351  0.1497 -1.1294
 9891TIP3   OH251163   4.530   5.561   0.967  0.6520 -0.1124  0.6777
 9891TIP3    H151164   4.479   5.641   0.978 -0.2716 -0.5216 -0.3947
 9891TIP3    H251165   4.618   5.584   0.997  0.5788  1.5023 -0.2269
 9892TIP3   OH251166   4.936   1.097  14.284 -0.9399  0.7570  0.5169
 9892TIP3    H151167   4.904   1.185  14.300 -1.4725  0.8041 -0.7060
 9892TIP3    H251168   5.002   1.107  14.216  1.7989  0.6591  2.9362
 9893TIP3   OH251169   2.751   4.520  14.500  0.1766 -0.0651 -0.1565
 9893TIP3    H151170   2.683   4.525  14.432 -1.1867 -0.5694  1.1390
 9893TIP3    H251171   2.709   4.479  14.575  1.7191  0.2563  0.9487
 9894TIP3   OH251172   0.234   3.611   4.742 -0.1562 -0.4689 -0.3253
 9894TIP3    H151173   0.255   3.603   4.649 -0.3813  0.3534 -0.4553
 9894TIP3    H251174   0.146   3.572   4.750 -1.0312  1.2733 -0.8566
 9895TIP3   OH251175   6.408   3.633  11.487 -0.3912 -0.2952 -0.2328
 9895TIP3    H151176   6.318   3.601  11.483 -0.7846  0.8853 -1.1225
 9895TIP3    H251177   6.418   3.688  11.410  0.7012  0.6123  0.5314
 9896TIP3   OH251178   1.499   0.447   4.384  0.3739 -0.0532  0.5278
 9896TIP3    H151179   1.463   0.393   4.454 -2.9848 -0.1527 -1.0802
 9896TIP3    H251180   1.485   0.395   4.305  0.9848  1.4052 -0.5846
 9897TIP3   OH251181   1.165   6.410   1.258 -0.4902 -0.0683  0.1384
 9897TIP3    H151182   1.249   6.396   1.215 -0.8931  0.2937 -0.7894
 9897TIP3    H251183   1.103   6.426   1.186 -0.8422  2.4313  0.8941
 9898TIP3   OH251184   5.770   1.696  11.105  0.5515 -0.2776  0.1611
 9898TIP3    H151185   5.770   1.785  11.070 -0.9928  0.5407  2.0527
 9898TIP3    H251186   5.764   1.707  11.200 -2.5141 -2.3775  0.3502
 9899TIP3   OH251187   0.200   6.348  13.565 -0.6438  0.3630  0.2075
 9899TIP3    H151188   0.240   6.306  13.641 -2.1147 -0.2330  0.6866
 9899TIP3    H251189   0.223   6.441  13.574  2.1295 -0.1572 -0.5308
 9900TIP3   OH251190   2.862   3.956   2.726 -0.1465  0.1182 -0.0559
 9900TIP3    H151191   2.822   3.985   2.808  1.2618 -0.5289  0.9090
 9900TIP3    H251192   2.905   4.034   2.692  0.0147  0.1872  0.2979
 9901TIP3   OH251193   1.571   3.994   3.034 -0.0996 -0.6124  0.4666
 9901TIP3    H151194   1.546   4.053   2.964  0.3565 -1.5905 -0.5623
 9901TIP3    H251195   1.606   4.051   3.102  1.9580  0.2383 -1.1801
 9902TIP3   OH251196   3.041   0.331  15.420 -0.2832  0.6605  0.3915
 9902TIP3    H151197   3.041   0.296  15.331 -0.8251  1.1226  0.2053
 9902TIP3    H251198   2.987   0.270  15.470  1.4827 -0.6211  0.8354
 9903TIP3   OH251199   2.091   4.772   6.642  0.5292  0.1469  0.1644
 9903TIP3    H151200   2.115   4.848   6.695  2.8213 -0.9064  0.7541
 9903TIP3    H251201   2.097   4.803   6.551  1.5812  0.6575  0.3948
 9904TIP3   OH251202   3.564   4.263   3.987  0.0224 -0.3156  0.2450
 9904TIP3    H151203   3.510   4.293   4.061 -2.1520 -2.3282 -0.3801
 9904TIP3    H251204   3.502   4.254   3.915  1.6115 -0.8562 -1.1114
 9905TIP3   OH251205   4.471   0.297   0.229  0.4215  0.2007 -0.7811
 9905TIP3    H151206   4.508   0.240   0.162  1.7948 -0.5570  0.5396
 9905TIP3    H251207   4.413   0.356   0.182 -0.8531 -2.0834 -2.2622
 9906TIP3   OH251208   6.775   3.402   1.292  1.1115 -0.7098  0.4700
 9906TIP3    H151209   6.815   3.485   1.317  0.0252 -0.6452  2.2041
 9906TIP3    H251210   6.731   3.372   1.372 -0.1628 -1.9878 -0.6479
 9907TIP3   OH251211   1.813   3.699  11.352 -0.1083 -0.1975 -0.6305
 9907TIP3    H151212   1.766   3.768  11.305 -1.6106 -2.2608 -2.3549
 9907TIP3    H251213   1.905   3.718  11.336 -0.5279  0.5852 -2.3506
 9908TIP3   OH251214   2.890   0.826   5.282 -0.0436 -0.0362  0.1623
 9908TIP3    H151215   2.831   0.902   5.285  0.7690  0.7914 -2.2062
 9908TIP3    H251216   2.978   0.863   5.285  0.3644 -0.8820 -0.7140
 9909TIP3   OH251217   3.050   4.904  13.418 -0.2738 -0.6281 -0.3177
 9909TIP3    H151218   2.976   4.937  13.368  0.2751  0.7756 -0.2289
 9909TIP3    H251219   3.116   4.973  13.413  0.6954 -1.4721  0.3509
 9910TIP3   OH251220   6.580   5.669   3.817 -0.3840 -0.2570  0.5584
 9910TIP3    H151221   6.548   5.597   3.762 -1.1054  0.5733 -0.1338
 9910TIP3    H251222   6.649   5.629   3.870  0.2821 -1.1083 -0.8822
 9911TIP3   OH251223   1.993   2.422   4.873  0.4312  0.5639 -0.3536
 9911TIP3    H151224   2.087   2.420   4.892  0.6530  0.1937 -1.4017
 9911TIP3    H251225   1.952   2.377   4.947  1.2529 -0.8485 -0.7142
 9912TIP3   OH251226   3.518   4.495  11.889 -0.1813  0.1669  0.1754
 9912TIP3    H151227   3.514   4.490  11.984 -0.5773  0.9027  0.2073
 9912TIP3    H251228   3.433   4.465  11.859 -0.0039 -0.2107  0.0433
 9913TIP3   OH251229   1.120   3.004   0.970 -0.1874  0.4496  0.2930
 9913TIP3    H151230   1.123   3.068   0.898 -3.1994 -0.7553 -1.0570
 9913TIP3    H251231   1.179   2.934   0.941 -0.1964  0.6666 -0.2780
 9914TIP3   OH251232   1.549   6.484  16.326  0.0780 -0.1592 -0.0222
 9914TIP3    H151233   1.579   6.557  16.272 -0.1353  0.1068  0.2216
 9914TIP3    H251234   1.553   6.517  16.416  1.3313 -0.9033  0.2156
 9915TIP3   OH251235   0.324   5.703   3.525  0.9220 -0.0846  0.4281
 9915TIP3    H151236   0.288   5.683   3.612  2.7535  1.8944  1.7328
 9915TIP3    H251237   0.412   5.666   3.526  1.5244  1.2774  0.0292
 9916TIP3   OH251238   1.353   2.626  14.610  0.2805  0.0817  0.3372
 9916TIP3    H151239   1.380   2.717  14.620 -1.6404  0.4977  2.9539
 9916TIP3    H251240   1.420   2.586  14.555  2.4741  2.5001  1.0841
 9917TIP3   OH251241   2.281   5.813  14.056  1.0350 -0.5034 -0.3031
 9917TIP3    H151242   2.229   5.735  14.040  0.6716 -0.2198 -0.5368
 9917TIP3    H251243   2.268   5.867  13.978 -0.5515  0.7820  0.7573
 9918TIP3   OH251244   5.990   4.528   3.857 -0.1768  0.3608 -0.0339
 9918TIP3    H151245   6.085   4.532   3.848 -0.1827 -0.8231 -0.8323
 9918TIP3    H251246   5.976   4.495   3.946  0.1779 -0.2028 -0.1851
 9919TIP3   OH251247   4.057   2.506   4.807 -0.4209 -0.4607  0.6408
 9919TIP3    H151248   4.151   2.509   4.789 -0.6450 -0.2492 -0.5654
 9919TIP3    H251249   4.017   2.486   4.723 -1.5225  0.4229  0.9244
 9920TIP3   OH251250   4.450   2.308   4.366 -0.4296  0.3768 -0.0559
 9920TIP3    H151251   4.528   2.259   4.344 -0.5569 -0.7366  1.7489
 9920TIP3    H251252   4.480   2.398   4.377  0.2827  0.2537 -0.9602
 9921TIP3   OH251253   0.347   3.626  12.694 -0.1626 -0.7068 -0.0393
 9921TIP3    H151254   0.264   3.656  12.732 -0.4105 -0.1973 -0.9524
 9921TIP3    H251255   0.413   3.651  12.759 -0.4398  1.2699 -0.4679
 9922TIP3   OH251256   6.427   6.408  13.786 -0.2800 -0.4805 -0.0150
 9922TIP3    H151257   6.513   6.432  13.752 -0.7269  1.0923 -0.1353
 9922TIP3    H251258   6.414   6.318  13.756  0.6114 -0.1694 -1.4640
 9923TIP3   OH251259   4.800   6.719   0.170 -0.1181  0.5644  0.4163
 9923TIP3    H151260   4.747   6.674   0.237  1.5647 -1.0791  0.7372
 9923TIP3    H251261   4.890   6.707   0.200  0.6223  0.6197 -1.6532
 9924TIP3   OH251262   5.941   6.677   3.701 -0.8781  0.0732 -0.6068
 9924TIP3    H151263   5.874   6.645   3.761  1.1498  1.2464  2.5143
 9924TIP3    H251264   5.925   6.772   3.697  2.8632  1.1842  3.7031
 9925TIP3   OH251265   3.457   6.258  12.772 -0.2811  0.6477 -0.3679
 9925TIP3    H151266   3.536   6.314  12.772  0.6344 -0.5608  1.1685
 9925TIP3    H251267   3.469   6.200  12.847 -2.4264  0.0745 -0.4068
 9926TIP3   OH251268   4.209   0.802   2.833 -0.3351 -0.0233  0.4521
 9926TIP3    H151269   4.192   0.747   2.909  1.2993 -0.2557  0.6996
 9926TIP3    H251270   4.124   0.812   2.790 -0.8596 -1.9007  0.9664
 9927TIP3   OH251271   1.565   2.029   4.714 -0.0939 -0.5580  0.3354
 9927TIP3    H151272   1.654   2.012   4.745 -0.0927 -2.3068 -0.5441
 9927TIP3    H251273   1.576   2.068   4.628 -0.1802 -1.5090 -0.1118
 9928TIP3   OH251274   6.153   3.569  14.876  0.0059  0.6718  0.5087
 9928TIP3    H151275   6.228   3.539  14.825  0.7838  0.7716  1.5414
 9928TIP3    H251276   6.165   3.664  14.882  0.7548  0.5152  2.0727
 9929TIP3   OH251277   3.891   4.723   2.476 -0.4883 -0.3118 -0.4685
 9929TIP3    H151278   3.963   4.765   2.522 -1.3540 -1.6400  2.3189
 9929TIP3    H251279   3.923   4.712   2.387  1.4007  2.1761 -0.2047
 9930TIP3   OH251280   1.733   4.077  16.145  0.0710 -0.0562 -0.7409
 9930TIP3    H151281   1.775   4.146  16.093 -0.7096  0.7613 -0.3048
 9930TIP3    H251282   1.764   3.995  16.105  0.8484  0.5385 -1.3946
 9931TIP3   OH251283   0.519   2.571   5.653 -0.0474  0.2629  0.1780
 9931TIP3    H151284   0.604   2.566   5.698 -0.8677  0.6281  1.8496
 9931TIP3    H251285   0.488   2.480   5.652 -0.0891  0.2715  0.4999
 9932TIP3   OH251286   0.474   0.570   6.024  0.0998  0.4462  0.0112
 9932TIP3    H151287   0.443   0.544   6.111  0.2912 -1.1632 -0.3730
 9932TIP3    H251288   0.467   0.490   5.971 -0.7930  1.6101 -1.6819
 9933TIP3   OH251289   0.196   2.852   2.808 -0.3697  0.2597  0.3527
 9933TIP3    H151290   0.219   2.759   2.806  0.7994  0.5142  1.0915
 9933TIP3    H251291   0.276   2.897   2.781 -0.9326  1.0653 -0.0231
 9934TIP3   OH251292   0.076   4.621  12.554  0.1369 -0.6288  0.0675
 9934TIP3    H151293   0.154   4.572  12.527  1.0234  0.1660  1.0926
 9934TIP3    H251294   0.089   4.637  12.648 -1.0603 -0.1097  0.1647
 9935TIP3   OH251295   5.290   3.318   1.273 -0.1995  0.1936 -0.0049
 9935TIP3    H151296   5.200   3.307   1.244 -0.2607 -0.3207  0.3506
 9935TIP3    H251297   5.341   3.322   1.193 -0.4306 -0.5952 -0.2029
 9936TIP3   OH251298   4.189   5.117   6.583  0.5467 -0.3583  0.3355
 9936TIP3    H151299   4.150   5.034   6.553  0.0838  0.1678 -0.5730
 9936TIP3    H251300   4.123   5.154   6.642 -0.4372  0.5598 -1.2474
 9937TIP3   OH251301   5.178   5.776  12.245 -0.1105 -0.0587  0.9228
 9937TIP3    H151302   5.085   5.789  12.229  0.0182  1.4108  1.2758
 9937TIP3    H251303   5.182   5.701  12.305 -1.1437  0.7126  1.9881
 9938TIP3   OH251304   4.690   5.564   2.401 -0.0525  0.6990 -0.2371
 9938TIP3    H151305   4.744   5.518   2.465  0.6196  2.0771  0.2401
 9938TIP3    H251306   4.645   5.632   2.452 -0.7205  0.8217 -0.9657
 9939TIP3   OH251307   4.215   5.427  11.383 -0.2267 -0.3687 -0.3418
 9939TIP3    H151308   4.120   5.422  11.375 -0.1394 -0.2320 -1.6713
 9939TIP3    H251309   4.249   5.387  11.303  0.8218  0.1524 -0.1844
 9940TIP3   OH251310   6.038   1.879  16.085  0.6493  0.0301  0.1157
 9940TIP3    H151311   5.994   1.798  16.110 -1.7259  1.0227 -0.6132
 9940TIP3    H251312   5.979   1.920  16.022  1.0151  3.0788  1.6197
 9941TIP3   OH251313   1.654   1.820   3.819  0.2468 -0.2686 -0.1149
 9941TIP3    H151314   1.633   1.753   3.885  0.9184  0.9220  1.3648
 9941TIP3    H251315   1.569   1.849   3.787 -0.0480 -2.5031 -1.5357
 9942TIP3   OH251316   1.232   1.179   3.933 -0.0631  0.1026 -0.2458
 9942TIP3    H151317   1.158   1.178   3.994  0.3542  0.2979  0.2715
 9942TIP3    H251318   1.235   1.090   3.897  1.0630 -0.7209  1.7240
 9943TIP3   OH251319   0.312   2.922   2.024 -0.4930  0.2121  0.1008
 9943TIP3    H151320   0.313   2.901   1.931  1.0234 -0.2152  0.1979
 9943TIP3    H251321   0.265   3.005   2.029 -2.3982 -0.7491 -0.8015
 9944TIP3   OH251322   2.195   6.737  15.754  0.0622 -0.7467  0.2959
 9944TIP3    H151323   2.248   6.766  15.828  0.5571 -0.1856 -0.2777
 9944TIP3    H251324   2.180   6.815  15.702 -1.1893 -0.9210  0.3448
 9945TIP3   OH251325   4.426   6.675   0.998  0.6168  0.8871 -0.0579
 9945TIP3    H151326   4.509   6.650   1.038  0.4653  0.2504 -0.1177
 9945TIP3    H251327   4.384   6.591   0.978  0.9992  1.1551 -2.2323
 9946TIP3   OH251328   6.701   1.263  11.921  0.3535  0.2862 -0.8219
 9946TIP3    H151329   6.724   1.241  11.830  0.1683  0.7697 -0.9894
 9946TIP3    H251330   6.672   1.354  11.917  1.8224  0.8147 -0.0073
 9947TIP3   OH251331   3.558   3.675  16.583 -0.0175  0.6658 -0.1310
 9947TIP3    H151332   3.564   3.649  16.675 -0.4143  0.2589 -0.2213
 9947TIP3    H251333   3.606   3.607  16.535 -0.6743  0.3248 -0.3204
 9948TIP3   OH251334   3.196   2.862  14.834 -0.4413  0.0597  0.1023
 9948TIP3    H151335   3.157   2.819  14.758 -0.5861 -1.7069  1.1252
 9948TIP3    H251336   3.272   2.808  14.855 -0.1155  0.8222  0.9140
 9949TIP3   OH251337   4.470   1.037  15.379 -0.2657  0.5913  0.4869
 9949TIP3    H151338   4.402   1.053  15.313 -1.2875  0.7386  1.5320
 9949TIP3    H251339   4.449   1.097  15.450  0.3896 -0.0520  1.2507
 9950TIP3   OH251340   3.252   1.323   4.604  0.1764 -0.5276  0.4364
 9950TIP3    H151341   3.285   1.345   4.691  2.1664  0.4786 -0.5022
 9950TIP3    H251342   3.225   1.232   4.611 -0.2344 -0.3075  2.2420
 9951TIP3   OH251343   2.226   2.194  14.263  0.1991 -0.4542  0.3876
 9951TIP3    H151344   2.176   2.255  14.207  0.8756  1.5770  1.8786
 9951TIP3    H251345   2.159   2.151  14.316 -0.2181 -0.1849  0.0963
 9952TIP3   OH251346   3.440   5.977  14.731 -0.0685 -0.5308 -0.3681
 9952TIP3    H151347   3.373   5.995  14.666  0.0665 -1.4015 -0.7643
 9952TIP3    H251348   3.513   5.940  14.681  1.2749  1.6252 -0.1496
 9953TIP3   OH251349   5.673   3.339   2.575 -0.2747 -0.2656 -0.2699
 9953TIP3    H151350   5.746   3.396   2.550  0.2912  0.7655  3.2824
 9953TIP3    H251351   5.670   3.343   2.670 -1.7728 -4.3308  0.0607
 9954TIP3   OH251352   1.182   6.246  16.973  0.6385 -0.5142  0.5576
 9954TIP3    H151353   1.271   6.279  16.986  0.9825 -1.4356  0.6401
 9954TIP3    H251354   1.187   6.197  16.891 -0.4119  1.4700 -0.7568
 9955TIP3   OH251355   2.476   2.638   3.812 -0.1628 -0.0639 -0.7697
 9955TIP3    H151356   2.405   2.673   3.866  0.4466 -1.5685  1.1310
 9955TIP3    H251357   2.531   2.713   3.793  0.0660  0.4201  1.5278
 9956TIP3   OH251358   3.239   1.406  12.720  0.4343  0.0821 -0.0334
 9956TIP3    H151359   3.226   1.316  12.750 -0.3666 -0.0895 -0.8342
 9956TIP3    H251360   3.287   1.397  12.638 -0.8433  0.2710 -0.8389
 9957TIP3   OH251361   4.462   4.875   6.241 -0.1297  0.2454 -0.1499
 9957TIP3    H151362   4.397   4.924   6.292  1.2467  1.0600  0.9119
 9957TIP3    H251363   4.529   4.851   6.305  0.7680 -0.3121 -1.2655
 9958TIP3   OH251364   0.754   3.687   0.645 -0.7920 -0.5935  0.4071
 9958TIP3    H151365   0.767   3.773   0.686 -0.2599 -0.6820  0.4300
 9958TIP3    H251366   0.659   3.680   0.633 -0.7423  0.6180 -0.9224
 9959TIP3   OH251367   2.946   1.988  14.557 -0.4379  0.1147  0.0245
 9959TIP3    H151368   2.968   2.071  14.515  0.6679  0.1084  0.5511
 9959TIP3    H251369   3.013   1.927  14.527 -2.0629 -1.0083 -1.5126
 9960TIP3   OH251370   0.281   1.828  16.338  0.4276  0.1662 -0.1254
 9960TIP3    H151371   0.297   1.748  16.288  0.2089 -0.6093  1.0083
 9960TIP3    H251372   0.328   1.896  16.291 -1.2051 -0.1688 -2.4032
 9961TIP3   OH251373   2.461   6.596  16.152 -0.1268 -0.0598 -0.1981
 9961TIP3    H151374   2.418   6.677  16.125 -0.7604 -0.0070  0.9043
 9961TIP3    H251375   2.555   6.616  16.149 -0.3008  1.1098  1.1861
 9962TIP3   OH251376   1.599   4.566  14.321  0.0059 -0.0867 -0.1281
 9962TIP3    H151377   1.539   4.605  14.384  0.4162 -0.7553  0.6838
 9962TIP3    H251378   1.630   4.641  14.269 -1.4982  0.2682 -0.5578
 9963TIP3   OH251379   1.807   5.069   0.770  0.5753  0.1278  0.2339
 9963TIP3    H151380   1.718   5.043   0.795  0.3738  0.8986  0.3468
 9963TIP3    H251381   1.857   4.988   0.772  0.1374 -0.1324  1.3188
 9964TIP3   OH251382   6.516   5.888   5.213 -0.4451 -0.0436  0.3147
 9964TIP3    H151383   6.438   5.874   5.159 -0.7760 -0.3203  0.8500
 9964TIP3    H251384   6.546   5.800   5.236  1.2629 -0.0216 -1.5698
 9965TIP3   OH251385   2.107   1.735  16.767 -0.0926  0.3609 -0.3065
 9965TIP3    H151386   2.059   1.723  16.849 -1.4051 -1.2532 -1.2663
 9965TIP3    H251387   2.156   1.817  16.780 -0.7635  0.4810  1.8237
 9966TIP3   OH251388   2.514   4.621   3.415  0.1547  0.1216 -0.2449
 9966TIP3    H151389   2.550   4.621   3.326  0.0384  0.1154 -0.2923
 9966TIP3    H251390   2.433   4.572   3.408 -0.2044  0.7066 -0.2816
 9967TIP3   OH251391   2.886   6.242  13.030 -0.0624 -0.2750  0.6413
 9967TIP3    H151392   2.812   6.285  12.987 -1.0816 -0.5451  2.0502
 9967TIP3    H251393   2.926   6.311  13.083 -1.1892 -0.7876  2.2449
 9968TIP3   OH251394   0.740   3.563   1.979 -0.4010  0.0331 -0.5561
 9968TIP3    H151395   0.675   3.612   2.029 -1.2055 -1.8450  0.3188
 9968TIP3    H251396   0.801   3.531   2.045 -0.1557 -0.5436 -1.0610
 9969TIP3   OH251397   3.235   1.816   4.941 -0.1354  0.6749  0.7564
 9969TIP3    H151398   3.178   1.893   4.938 -0.3326  0.5687  1.5076
 9969TIP3    H251399   3.175   1.742   4.934 -0.2398  0.5267  2.6310
 9970TIP3   OH251400   6.567   4.869   3.860  0.6913 -0.2629 -0.1603
 9970TIP3    H151401   6.482   4.913   3.850  0.8322  0.0627  0.0547
 9970TIP3    H251402   6.630   4.941   3.866  0.7253 -0.4171  2.1423
 9971TIP3   OH251403   0.115   1.791   2.090 -0.3210 -0.3386  0.0963
 9971TIP3    H151404   0.188   1.750   2.044  0.1285 -1.5075  1.7620
 9971TIP3    H251405   0.040   1.781   2.031  0.4033 -1.0175 -0.7263
 9972TIP3   OH251406   3.076   2.039   4.943 -0.1769  0.1262 -0.1675
 9972TIP3    H151407   3.120   2.116   4.907  1.0348 -0.5250 -0.1349
 9972TIP3    H251408   3.042   2.068   5.028  0.7217  0.4820  0.0733
 9973TIP3   OH251409   4.012   5.287  15.343  0.0991  0.2139 -0.2172
 9973TIP3    H151410   3.920   5.298  15.321 -0.6111 -1.7087  1.3911
 9973TIP3    H251411   4.011   5.261  15.435  2.1001 -1.4616 -0.5966
 9974TIP3   OH251412   2.931   6.283  12.677  0.4643 -0.3347  0.4547
 9974TIP3    H151413   2.837   6.271  12.667  0.7074 -1.5362 -0.6226
 9974TIP3    H251414   2.952   6.243  12.761 -0.1085  0.8603  1.2070
 9975TIP3   OH251415   5.399   3.736  12.501  0.4478 -0.1670  0.1477
 9975TIP3    H151416   5.339   3.804  12.471  1.5746  0.4518 -0.8102
 9975TIP3    H251417   5.395   3.740  12.596 -0.2562  0.5511  0.0957
 9976TIP3   OH251418   4.112   5.833   1.527 -0.1881 -0.3167  0.1086
 9976TIP3    H151419   4.126   5.862   1.436  0.6984  1.1752  0.6722
 9976TIP3    H251420   4.189   5.865   1.574 -1.5243  0.6489  1.7504
 9977TIP3   OH251421   3.014   2.674   4.272 -0.4184 -0.1409 -0.1084
 9977TIP3    H151422   3.048   2.620   4.343 -0.2377 -1.0912 -0.8984
 9977TIP3    H251423   2.937   2.627   4.239 -1.4981  1.1151  0.5140
 9978TIP3   OH251424   6.218   4.667  13.417  0.0111  0.5153 -0.2462
 9978TIP3    H151425   6.295   4.639  13.367  0.1409  1.2071 -0.4461
 9978TIP3    H251426   6.255   4.711  13.494 -0.1764  1.1687 -0.5247
 9979TIP3   OH251427   1.121   3.697  12.989 -0.0114  0.0146  0.2926
 9979TIP3    H151428   1.026   3.702  12.993  0.0230  0.2598  0.7836
 9979TIP3    H251429   1.139   3.656  12.904 -0.4987  1.5812 -0.5910
 9980TIP3   OH251430   6.470   0.330  12.124 -0.4543 -0.4000 -0.2503
 9980TIP3    H151431   6.496   0.360  12.037  0.0273 -0.1319 -0.0131
 9980TIP3    H251432   6.530   0.258  12.143 -1.5542 -1.5035 -0.7885
 9981TIP3   OH251433   4.870   5.170  14.451  0.0906  0.1678  0.2622
 9981TIP3    H151434   4.880   5.085  14.495  0.0845  0.3800  0.6738
 9981TIP3    H251435   4.837   5.229  14.519  0.2441  0.5401  0.0169
 9982TIP3   OH251436   0.910   4.771   4.576 -0.1067  0.0944  0.3471
 9982TIP3    H151437   0.898   4.852   4.525  1.3014  0.5926  0.7396
 9982TIP3    H251438   1.001   4.775   4.604 -0.3354 -1.1070  1.3193
 9983TIP3   OH251439   2.182   1.958  12.111 -0.3571 -0.0076 -0.7617
 9983TIP3    H151440   2.254   1.942  12.172 -0.0410  0.5983 -0.9733
 9983TIP3    H251441   2.107   1.980  12.166 -0.2708 -0.2076 -0.5635
 9984TIP3   OH251442   4.076   1.966  11.631  0.2228 -0.3450 -0.2700
 9984TIP3    H151443   4.022   1.982  11.554  0.8891  0.6764 -0.5523
 9984TIP3    H251444   4.039   2.022  11.699  1.7285  1.4779 -0.8660
 9985TIP3   OH251445   0.081   6.517   2.444  0.3211 -0.6056 -0.5194
 9985TIP3    H151446  -0.003   6.477   2.465 -0.7346  0.6063 -2.1492
 9985TIP3    H251447   0.109   6.473   2.364  0.1899  0.3904 -1.1322
 9986TIP3   OH251448   2.253   1.490  16.773  0.0320 -0.1959  0.3936
 9986TIP3    H151449   2.214   1.577  16.778  2.9647  1.4643 -2.1370
 9986TIP3    H251450   2.309   1.484  16.851  0.7381  0.7522 -0.0180
 9987TIP3   OH251451   4.546   3.112   5.107  0.2821  0.2837 -0.1957
 9987TIP3    H151452   4.486   3.048   5.068 -0.7781  0.3009  1.3234
 9987TIP3    H251453   4.620   3.061   5.138 -0.0264 -0.0483 -0.0111
 9988TIP3   OH251454   0.708   6.265  13.241  0.2436  0.1835 -0.1253
 9988TIP3    H151455   0.617   6.276  13.269  0.6439  2.0208  0.5619
 9988TIP3    H251456   0.703   6.199  13.171 -1.5639  0.0259  0.1014
 9989TIP3   OH251457   2.211   6.630  12.445  0.0668  0.4431  0.2018
 9989TIP3    H151458   2.219   6.644  12.540 -0.1970  0.4028  0.2308
 9989TIP3    H251459   2.248   6.543  12.431  0.0899  0.4413  0.2725
 9990TIP3   OH251460   3.458   6.190  15.220 -0.2755 -0.1543  0.3965
 9990TIP3    H151461   3.508   6.160  15.144 -0.5447 -1.1513  0.5930
 9990TIP3    H251462   3.386   6.241  15.182  0.6189  0.9151  0.0947
 9991TIP3   OH251463   3.239   2.422  11.701 -0.8504 -0.4437  0.0496
 9991TIP3    H151464   3.152   2.397  11.730 -0.9793 -0.9162 -0.7048
 9991TIP3    H251465   3.284   2.338  11.688 -0.6502 -0.2345 -0.6363
 9992TIP3   OH251466   5.198   5.671  11.361 -1.0065  0.2876  0.1487
 9992TIP3    H151467   5.191   5.591  11.414  0.3457  0.3729  0.4928
 9992TIP3    H251468   5.111   5.711  11.367 -2.2518 -1.9470 -1.3858
 9993TIP3   OH251469   3.601   5.787   5.465  0.5680 -0.1836  0.2193
 9993TIP3    H151470   3.686   5.789   5.509  0.2406  0.1746  0.8509
 9993TIP3    H251471   3.613   5.726   5.392  1.2218 -0.5085  0.5920
 9994TIP3   OH251472   2.888   2.823  13.229  0.3838 -0.0352 -0.0872
 9994TIP3    H151473   2.951   2.829  13.300 -1.0120 -0.1691  1.2089
 9994TIP3    H251474   2.847   2.910  13.226  0.2689 -0.1021 -0.5754
 9995TIP3   OH251475   0.521   2.114  10.441  0.0434 -0.2169  0.3803
 9995TIP3    H151476   0.612   2.094  10.418  0.2655  0.8284  0.3159
 9995TIP3    H251477   0.523   2.205  10.470 -1.0046 -0.1587  0.3050
 9996TIP3   OH251478   3.221   0.600  12.202 -0.0626 -0.4751  0.1275
 9996TIP3    H151479   3.168   0.552  12.265 -0.8109 -1.0540 -0.9066
 9996TIP3    H251480   3.180   0.686  12.196 -0.7056 -0.8125 -0.4262
 9997TIP3   OH251481   6.156   2.103   4.559 -0.2175  0.1353  0.0372
 9997TIP3    H151482   6.233   2.051   4.536 -0.1165  0.1443  0.3528
 9997TIP3    H251483   6.086   2.068   4.504 -0.2027 -0.4881  0.3999
 9998TIP3   OH251484   5.917   3.284   6.774 -0.5780 -0.6680  0.0651
 9998TIP3    H151485   5.840   3.236   6.743 -0.9559 -0.9762  1.4229
 9998TIP3    H251486   5.991   3.231   6.746 -0.8584 -0.5992 -0.8587
 9999TIP3   OH251487   5.259   5.118   1.870 -0.1110  0.4769  0.2418
 9999TIP3    H151488   5.334   5.058   1.879  0.7979  1.4557 -0.5116
 9999TIP3    H251489   5.274   5.185   1.936 -0.4480  0.5571  0.2362
10000TIP3   OH251490   4.271   2.336   4.610  0.4318 -0.4351 -0.2644
10000TIP3    H151491   4.190   2.378   4.583 -0.0296 -1.5174 -0.6200
10000TIP3    H251492   4.316   2.314   4.528 -0.0934 -2.0407 -0.1597
10001TIP3   OH251493   4.243   5.916   4.351  0.2907 -0.4117  0.3030
10001TIP3    H151494   4.246   5.827   4.385 -3.2727  0.7000  4.4590
10001TIP3    H251495   4.333   5.947   4.357  1.2322 -2.9927  0.8992
10002TIP3   OH251496   0.103   6.801  11.953  0.0768  0.0271 -0.1779
10002TIP3    H151497   0.111   6.782  11.860 -1.4124 -1.1287 -0.0953
10002TIP3    H251498   0.069   6.721  11.992  0.5389  0.5360  1.3559
10003TIP3   OH251499   0.858   4.736  13.048 -0.7571  0.1829  0.4351
10003TIP3    H151500   0.807   4.786  12.984 -0.4849  0.4677  0.4367
10003TIP3    H251501   0.947   4.734  13.012 -0.3568  1.2822  1.3172
10004TIP3   OH251502   4.052   6.103  13.445  0.3772  0.0389 -0.0361
10004TIP3    H151503   4.113   6.058  13.387  1.9134  0.5392  1.1023
10004TIP3    H251504   4.108   6.158  13.499 -1.1145  0.5609  1.0336
10005TIP3   OH251505   0.855   6.713   2.166  0.5895 -0.0992  0.3085
10005TIP3    H151506   0.792   6.708   2.094  0.5013 -0.4204  0.4083
10005TIP3    H251507   0.936   6.744   2.124  0.5617 -0.3663  0.0571
10006TIP3   OH251508   5.419   0.367   5.481 -0.0309  0.6715  0.0675
10006TIP3    H151509   5.353   0.315   5.436  0.2733 -0.5670  0.9941
10006TIP3    H251510   5.399   0.457   5.458 -0.5912  0.1637 -1.5744
10007TIP3   OH251511   2.674   0.722   5.490 -0.6585  0.2633  0.0053
10007TIP3    H151512   2.753   0.765   5.457 -0.0786 -1.7511 -1.4133
10007TIP3    H251513   2.677   0.634   5.452 -3.8677  0.2754 -0.5256
10008TIP3   OH251514   5.520   1.723  15.428 -0.4145 -0.2602 -0.5130
10008TIP3    H151515   5.469   1.781  15.484 -0.0831  0.0871 -0.5662
10008TIP3    H251516   5.610   1.731  15.460 -0.5477 -1.7280  0.3074
10009TIP3   OH251517   3.518   0.427   5.887  0.0520  0.0615 -0.1088
10009TIP3    H151518   3.540   0.422   5.794  0.3094 -0.2918 -0.0325
10009TIP3    H251519   3.587   0.376   5.931 -0.3971 -0.2744  0.2170
10010TIP3   OH251520   4.186   4.156  11.561  0.8390 -0.0218  0.5796
10010TIP3    H151521   4.234   4.228  11.519  0.9659  0.9618  2.3241
10010TIP3    H251522   4.110   4.143  11.505  0.9594  1.2843  0.0603
10011TIP3   OH251523   4.048   4.440   2.678  0.4110 -0.1331 -0.0226
10011TIP3    H151524   4.047   4.458   2.773 -0.1231 -0.3907  0.0244
10011TIP3    H251525   4.075   4.349   2.672 -0.0112 -0.2555 -0.0914
10012TIP3   OH251526   6.042   2.373   4.340  0.3998  0.3007  0.6682
10012TIP3    H151527   6.037   2.467   4.325 -0.3104  0.2738  0.7059
10012TIP3    H251528   6.050   2.364   4.435  0.0590  0.3148  0.7008
10013TIP3   OH251529   3.041   6.588   1.963  0.1289  0.1065  0.1508
10013TIP3    H151530   3.110   6.528   1.992  0.3068 -0.4243 -1.2974
10013TIP3    H251531   3.085   6.672   1.953  0.1091  0.2507  1.1775
10014TIP3   OH251532   1.424   2.799   0.099 -0.5483 -0.1125 -0.2319
10014TIP3    H151533   1.513   2.766   0.109 -1.2271 -1.5784  1.2772
10014TIP3    H251534   1.410   2.852   0.178 -0.8635  0.4979 -0.6945
10015TIP3   OH251535   3.750   0.510  15.392  0.4365 -0.2652  0.3935
10015TIP3    H151536   3.772   0.490  15.301 -0.5168  0.0713  0.0841
10015TIP3    H251537   3.799   0.445  15.443  1.0324 -0.4111 -0.3477
10016TIP3   OH251538   5.140   1.788  16.911  0.3444 -0.4968 -0.4141
10016TIP3    H151539   5.193   1.727  16.860  0.7689  0.7626 -1.5603
10016TIP3    H251540   5.139   1.868  16.858  0.1558  0.6280  1.2054
10017TIP3   OH251541   5.020   0.756  12.693  0.2719 -0.0911 -0.0024
10017TIP3    H151542   4.937   0.748  12.739 -1.3466  0.6662 -2.5848
10017TIP3    H251543   5.048   0.666  12.677 -1.2309 -0.4205 -0.9799
10018TIP3   OH251544   2.426   6.673  11.351  0.2531  0.1871 -0.1756
10018TIP3    H151545   2.413   6.764  11.376  0.5749  0.2288 -0.1575
10018TIP3    H251546   2.394   6.668  11.261 -0.2561  0.1970  0.0054
10019TIP3   OH251547   4.165   3.448  16.314 -0.0168 -0.0767  0.3509
10019TIP3    H151548   4.181   3.504  16.390  0.7953  0.2501 -0.0527
10019TIP3    H251549   4.217   3.487  16.244  0.4512 -1.2507  0.0253
10020TIP3   OH251550   2.517   6.675   2.188  0.2036 -0.2649  0.2232
10020TIP3    H151551   2.497   6.658   2.280 -1.5731  0.7442  0.0660
10020TIP3    H251552   2.484   6.597   2.142 -3.2170  1.0932  0.0394
10021TIP3   OH251553   2.566   2.603  11.819 -0.3146  0.0128  0.3051
10021TIP3    H151554   2.597   2.691  11.840  3.3326 -1.3527  1.4226
10021TIP3    H251555   2.541   2.566  11.904 -1.6137 -0.1786 -0.1328
10022TIP3   OH251556   2.720   5.284  17.216  0.7640 -0.1020  0.0251
10022TIP3    H151557   2.689   5.307  17.129  0.8345  0.1793  0.0750
10022TIP3    H251558   2.685   5.353  17.273 -0.0632 -0.7743  0.3673
10023TIP3   OH251559   2.888   1.084  11.401 -0.0737 -0.2935 -0.0689
10023TIP3    H151560   2.951   1.147  11.365 -0.5923 -0.3415 -1.1148
10023TIP3    H251561   2.927   1.055  11.483  0.5621  0.7798  0.0317
10024TIP3   OH251562   2.237   6.007   5.354 -0.4874 -1.1440 -0.4441
10024TIP3    H151563   2.289   5.987   5.432 -0.9904 -0.8910 -0.0434
10024TIP3    H251564   2.252   6.100   5.338  1.5034 -1.6642 -2.0527
10025TIP3   OH251565   0.666   1.192  12.130 -0.1665 -0.1758 -0.1842
10025TIP3    H151566   0.597   1.174  12.194 -2.3151  0.8503 -2.0649
10025TIP3    H251567   0.744   1.149  12.165 -1.7989 -1.5623  1.9545
10026TIP3   OH251568   5.003   3.259   5.530 -0.5107  0.0439  0.0320
10026TIP3    H151569   4.960   3.272   5.445  1.8545  0.5255 -1.1539
10026TIP3    H251570   5.050   3.176   5.520 -0.9946 -0.3879  1.2401
10027TIP3   OH251571   0.109   6.513  16.795 -0.1136 -0.1151  0.3442
10027TIP3    H151572   0.094   6.607  16.800  1.9387  0.3257 -0.5383
10027TIP3    H251573   0.176   6.496  16.861  1.3868 -0.4573 -1.1938
10028TIP3   OH251574   5.305   6.510  16.969 -0.5410 -0.0808 -1.0032
10028TIP3    H151575   5.209   6.516  16.964 -1.1392 -2.5995  2.9406
10028TIP3    H251576   5.324   6.521  17.062  3.3091  2.0544 -1.8457
10029TIP3   OH251577   0.964   4.755  16.423 -0.4501  0.2665  0.4009
10029TIP3    H151578   1.044   4.754  16.475 -0.6476  0.4465  0.7054
10029TIP3    H251579   0.990   4.795  16.340 -0.3951  1.0347  0.7793
10030TIP3   OH251580   5.279   5.024   1.622  0.2824 -0.5232 -0.2033
10030TIP3    H151581   5.257   5.065   1.706 -0.2922 -0.5632 -0.3303
10030TIP3    H251582   5.195   5.010   1.580  0.5030 -1.4300 -0.3553
10031TIP3   OH251583   0.920   6.693   2.483 -0.1097 -0.1591  0.4491
10031TIP3    H151584   0.903   6.604   2.450  0.7671 -0.0537 -0.3149
10031TIP3    H251585   0.876   6.695   2.567  0.4264 -1.5666  0.8037
10032TIP3   OH251586   2.998   3.468   1.215  0.2689  0.0102  0.5200
10032TIP3    H151587   3.075   3.483   1.270 -0.0559  1.6215  0.5778
10032TIP3    H251588   2.969   3.555   1.190 -2.1694 -0.4782  1.3812
10033TIP3   OH251589   1.417   6.136  14.484 -0.2596  0.2919  0.3193
10033TIP3    H151590   1.490   6.145  14.423 -0.2253  0.7476  0.4279
10033TIP3    H251591   1.394   6.225  14.508 -0.4259  0.1233  0.7942
10034TIP3   OH251592   3.298   3.977   4.695  0.3880  0.2926 -0.0309
10034TIP3    H151593   3.344   4.033   4.758  0.6845 -0.4279  0.4067
10034TIP3    H251594   3.360   3.965   4.624  0.4927  0.1657  0.0802
10035TIP3   OH251595   2.395   4.646  15.633  0.4167 -0.5287 -0.2436
10035TIP3    H151596   2.341   4.685  15.702 -2.6148  0.8552 -3.0971
10035TIP3    H251597   2.368   4.554  15.631  0.6092 -0.6062  0.4438
10036TIP3   OH251598   2.079   0.237  13.689 -0.2199  1.0301 -0.1737
10036TIP3    H151599   2.035   0.180  13.626  0.3285 -1.5250  1.6230
10036TIP3    H251600   2.016   0.245  13.761 -0.2875  2.7895 -0.3780
10037TIP3   OH251601   2.607   4.641   4.229  0.1143  0.3303  0.2556
10037TIP3    H151602   2.658   4.659   4.151  0.4398  1.0174  0.6189
10037TIP3    H251603   2.642   4.558   4.262  1.8494  1.3777  1.1705
10038TIP3   OH251604   5.517   0.799  15.464  0.1405 -0.0270 -0.6469
10038TIP3    H151605   5.431   0.837  15.482  0.4733  0.3068  0.3036
10038TIP3    H251606   5.579   0.871  15.477  0.4490  0.2436 -3.1812
10039TIP3   OH251607   1.080   6.217  16.100  0.5102  0.4983  0.4570
10039TIP3    H151608   1.018   6.254  16.164  1.5878 -1.0242  2.4764
10039TIP3    H251609   1.024   6.180  16.032 -0.8337 -0.3625  1.9545
10040TIP3   OH251610   3.548   0.284  15.313  0.3157 -0.0737 -0.4736
10040TIP3    H151611   3.469   0.230  15.312  1.4622 -1.8405  0.4572
10040TIP3    H251612   3.532   0.348  15.382 -0.5171 -0.0404 -0.6788
10041TIP3   OH251613   2.695   3.499  16.685  0.3458 -0.4783  0.5127
10041TIP3    H151614   2.651   3.512  16.601  2.5821  0.2286 -0.6456
10041TIP3    H251615   2.657   3.566  16.742  0.6727  0.8613 -0.7695
10042TIP3   OH251616   4.869   6.299   0.769  0.8990  0.1154  0.3921
10042TIP3    H151617   4.828   6.380   0.799  1.0694  0.0227  0.8896
10042TIP3    H251618   4.798   6.235   0.768  1.1325 -0.2031  1.8543
10043TIP3   OH251619   2.925   5.090  14.361  0.5012 -0.2967  0.0549
10043TIP3    H151620   2.974   5.161  14.319 -2.0624  0.5328 -1.8268
10043TIP3    H251621   2.939   5.014  14.303  0.7229 -0.4634  0.3253
10044TIP3   OH251622   2.726   0.620   0.190 -0.5177 -0.1653 -0.4654
10044TIP3    H151623   2.674   0.662   0.122 -0.6478 -0.0382 -0.2861
10044TIP3    H251624   2.663   0.568   0.241 -0.5070  0.1702 -0.1075
10045TIP3   OH251625   3.206   2.557   3.233 -0.3207 -0.0389  0.0180
10045TIP3    H151626   3.126   2.591   3.272  0.0554  1.2176 -0.2670
10045TIP3    H251627   3.185   2.547   3.140 -0.5740 -1.0711  0.1715
10046TIP3   OH251628   2.626   0.902  14.542  0.0472 -0.5057 -0.1477
10046TIP3    H151629   2.552   0.958  14.566  1.4965  1.3593  0.2346
10046TIP3    H251630   2.693   0.923  14.607  1.5489 -0.7906 -1.5538
10047TIP3   OH251631   5.189   5.359   4.354  0.4006 -0.2460 -0.4721
10047TIP3    H151632   5.129   5.296   4.395  2.1062 -1.4119  0.3323
10047TIP3    H251633   5.145   5.383   4.273 -1.3169 -0.7826  0.2455
10048TIP3   OH251634   4.249   5.278   3.421 -0.1257 -0.0528  0.7522
10048TIP3    H151635   4.300   5.357   3.439 -1.2542  1.4476 -2.0635
10048TIP3    H251636   4.170   5.288   3.473 -0.1204  0.5294  0.6547
10049TIP3   OH251637   0.564   3.934  16.816  0.0850  0.5104  1.1487
10049TIP3    H151638   0.540   3.844  16.839  2.6111 -0.4471  0.4289
10049TIP3    H251639   0.629   3.924  16.746  0.9558  2.8760  1.5166
10050TIP3   OH251640   4.183   4.328  14.884 -0.4917 -1.0515  0.3159
10050TIP3    H151641   4.125   4.384  14.832  1.8129  2.5425  1.2690
10050TIP3    H251642   4.166   4.355  14.975  0.8096 -1.8056  0.8093
10051TIP3   OH251643   3.358   6.554  12.175 -0.6015 -0.0010 -0.0835
10051TIP3    H151644   3.380   6.542  12.268  1.5568 -3.3265 -0.8845
10051TIP3    H251645   3.405   6.635  12.151 -1.0183  0.8097  1.6105
10052TIP3   OH251646   4.573   1.807   4.710  0.5329 -0.4466 -0.4621
10052TIP3    H151647   4.509   1.826   4.641  0.4218 -0.0742 -0.2556
10052TIP3    H251648   4.583   1.889   4.758  1.3792 -0.4143 -0.6644
10053TIP3   OH251649   3.374   4.870  16.227  0.0958  0.1307  0.3241
10053TIP3    H151650   3.327   4.952  16.212  3.3016  2.0995  0.0882
10053TIP3    H251651   3.412   4.847  16.142 -0.3065 -1.3601  0.5085
10054TIP3   OH251652   0.925   4.363   4.314 -0.3002 -0.3553  0.0773
10054TIP3    H151653   1.007   4.313   4.312 -0.3180 -0.4301  0.8918
10054TIP3    H251654   0.917   4.392   4.404 -0.8143  0.2654 -0.1594
10055TIP3   OH251655   3.697   4.289  11.821  0.0881 -0.3069  0.7377
10055TIP3    H151656   3.750   4.368  11.823  1.1258 -0.9771  0.5287
10055TIP3    H251657   3.606   4.320  11.826  0.4047  0.9679 -0.6294
10056TIP3   OH251658   1.475   6.037  12.085  0.2372  0.1384  0.5974
10056TIP3    H151659   1.497   5.944  12.086 -1.4249 -0.2999 -0.1773
10056TIP3    H251660   1.471   6.059  11.992 -3.2443 -0.0463  0.6024
10057TIP3   OH251661   5.863   5.982  13.931 -0.7065  0.2966 -0.2088
10057TIP3    H151662   5.838   5.992  13.840  0.3136  1.3539 -0.3911
10057TIP3    H251663   5.854   5.889  13.949  1.9590 -0.4699 -2.2676
10058TIP3   OH251664   0.690   6.434  13.042 -0.2911  0.6556 -0.1016
10058TIP3    H151665   0.720   6.444  13.133  0.6039  1.1904 -0.4424
10058TIP3    H251666   0.767   6.454  12.989 -0.1578 -1.8185 -0.9744
10059TIP3   OH251667   0.315   0.453  13.948 -0.1746 -0.3622 -0.1817
10059TIP3    H151668   0.261   0.420  14.020  0.7375 -2.1739 -0.2826
10059TIP3    H251669   0.303   0.548  13.951 -0.1699 -0.3725  2.3564
10060TIP3   OH251670   4.767   6.260  15.886  0.8789 -0.1734  0.5079
10060TIP3    H151671   4.682   6.303  15.879  1.6366  1.4384  0.7049
10060TIP3    H251672   4.784   6.225  15.799  0.7787  1.0323 -0.0109
10061TIP3   OH251673   2.218   5.490   5.436  0.1153 -0.1661  0.2324
10061TIP3    H151674   2.250   5.576   5.409  1.1432 -0.2180  1.2134
10061TIP3    H251675   2.279   5.428   5.396  0.2793 -0.3574  0.7736
10062TIP3   OH251676   3.989   3.493  15.249  0.0615 -0.1453  0.3974
10062TIP3    H151677   3.918   3.431  15.233  1.4883 -1.9035  0.4945
10062TIP3    H251678   3.995   3.499  15.344  0.2241 -0.2199  0.3915
10063TIP3   OH251679   3.662   3.068  10.987  0.3700  0.0246 -0.4669
10063TIP3    H151680   3.697   2.991  10.943  0.6504  0.7231 -1.5247
10063TIP3    H251681   3.735   3.131  10.986  0.5473 -0.0984  1.4633
10064TIP3   OH251682   4.534   2.653   4.623  0.4421 -0.1143  0.1549
10064TIP3    H151683   4.622   2.623   4.599  0.2526 -0.8417  0.3401
10064TIP3    H251684   4.484   2.651   4.541  0.3678 -0.5463  0.2072
10065TIP3   OH251685   4.049   4.898  15.882  0.1358  0.6499 -0.3339
10065TIP3    H151686   4.107   4.841  15.933  1.3658  2.1205 -0.0430
10065TIP3    H251687   3.964   4.892  15.927 -0.2233 -2.1203 -1.2036
10066TIP3   OH251688   3.766   2.626  11.810  0.5634 -0.0711 -0.5167
10066TIP3    H151689   3.681   2.588  11.829  0.5653  0.7326  1.3138
10066TIP3    H251690   3.757   2.718  11.833  2.1239 -0.1227  0.5104
10067TIP3   OH251691   5.714   5.416  14.663  0.0823 -0.2527 -0.4638
10067TIP3    H151692   5.805   5.390  14.647  0.9884  1.2653  1.6937
10067TIP3    H251693   5.720   5.509  14.687 -2.2140  0.2325 -1.5563
10068TIP3   OH251694   6.611   4.775   0.306 -0.0172 -0.1785 -0.3279
10068TIP3    H151695   6.587   4.696   0.356 -1.3947  0.1800 -0.3722
10068TIP3    H251696   6.633   4.839   0.374  2.2748 -0.8931 -0.3065
10069TIP3   OH251697   5.692   5.491   0.957 -0.1328 -0.2823  0.3984
10069TIP3    H151698   5.660   5.418   0.905 -2.2104  0.5961  0.3685
10069TIP3    H251699   5.786   5.473   0.968 -0.4771 -2.6590 -0.0165
10070TIP3   OH251700   1.132   6.182  13.888 -0.3342 -0.7336  0.0474
10070TIP3    H151701   1.066   6.137  13.836 -2.7868  2.0309  0.5149
10070TIP3    H251702   1.214   6.166  13.842 -1.2730 -4.1166 -0.7140
10071TIP3   OH251703   6.640   0.031   3.528  0.4996  0.1122 -0.2834
10071TIP3    H151704   6.594   0.052   3.446  0.1395  0.4768  0.0115
10071TIP3    H251705   6.603   0.090   3.593 -0.1763 -1.0959  0.4584
10072TIP3   OH251706   0.718   3.852   0.295 -0.6851  0.2884  0.4875
10072TIP3    H151707   0.657   3.915   0.256  0.1935  0.1032 -1.2852
10072TIP3    H251708   0.781   3.906   0.343 -0.1337  0.7999 -0.7410
10073TIP3   OH251709   6.640   0.422  12.327 -0.0077 -0.5494  0.1437
10073TIP3    H151710   6.592   0.343  12.350  0.1151 -0.9406 -0.8916
10073TIP3    H251711   6.575   0.478  12.284 -0.7154  0.9566  2.8902
10074TIP3   OH251712   4.872   4.257  16.902  0.2461  0.0973 -0.4748
10074TIP3    H151713   4.868   4.184  16.963  1.2735 -1.3233 -2.0188
10074TIP3    H251714   4.894   4.333  16.956  2.5166 -1.3472  0.7909
10075TIP3   OH251715   1.457   0.379   0.448  0.3069  0.8585  0.3196
10075TIP3    H151716   1.522   0.339   0.507 -0.2996 -0.8595 -0.1083
10075TIP3    H251717   1.374   0.371   0.495  0.2674  2.4003  0.5586
10076TIP3   OH251718   2.507   4.074  11.051 -0.1150  0.6599  0.2847
10076TIP3    H151719   2.506   4.166  11.028 -1.0328  0.6723  0.3342
10076TIP3    H251720   2.591   4.042  11.018  0.1328  1.4675  0.1116
10077TIP3   OH251721   0.623   0.942   5.461 -0.3431 -0.2335  0.1582
10077TIP3    H151722   0.656   1.005   5.525 -0.4293  1.3613 -1.2985
10077TIP3    H251723   0.695   0.933   5.398 -0.2055 -1.8780  0.5127
10078TIP3   OH251724   2.802   1.692   1.305 -0.1890 -0.1543 -0.4740
10078TIP3    H151725   2.766   1.678   1.218 -0.9490 -2.8509  0.1533
10078TIP3    H251726   2.765   1.775   1.334 -0.8970  0.1777 -2.2558
10079TIP3   OH251727   5.199   6.738  13.367  0.4454  0.5349  0.1468
10079TIP3    H151728   5.139   6.663  13.364  0.9022  0.1450  0.6934
10079TIP3    H251729   5.153   6.806  13.319  0.1846 -0.2058 -0.6923
10080TIP3   OH251730   1.245   3.096   0.023 -0.8396 -0.2049  0.2035
10080TIP3    H151731   1.195   3.144  -0.043  0.3513  2.2130  0.9495
10080TIP3    H251732   1.211   3.128   0.106  0.1250 -0.5121  0.7265
10081TIP3   OH251733   1.992   3.514   3.444  0.3430  0.1144  0.5284
10081TIP3    H151734   1.920   3.542   3.500 -0.1709  1.9364 -0.9576
10081TIP3    H251735   2.028   3.595   3.408  1.7073 -0.8919 -0.5030
10082TIP3   OH251736   3.776   6.423   5.425  0.4227 -0.2645 -0.5086
10082TIP3    H151737   3.681   6.433   5.427  0.5927  2.3198 -1.3333
10082TIP3    H251738   3.808   6.487   5.489  1.6633  1.4664 -2.7210
10083TIP3   OH251739   2.738   6.005  13.295  0.4971 -0.0849 -0.1097
10083TIP3    H151740   2.821   6.011  13.247  0.9511 -2.3718  0.2873
10083TIP3    H251741   2.672   6.001  13.226  0.6379  1.9811 -0.4280
10084TIP3   OH251742   3.375   2.137   1.230  0.0894 -0.0037  0.1792
10084TIP3    H151743   3.309   2.102   1.289 -0.1935  0.0818 -0.0827
10084TIP3    H251744   3.407   2.216   1.274  2.0411 -1.5053  1.6521
10085TIP3   OH251745   0.206   2.994   0.522  0.0626 -0.0737 -0.0264
10085TIP3    H151746   0.281   3.007   0.580 -0.0183  0.6680 -0.0874
10085TIP3    H251747   0.170   3.081   0.508 -0.1571 -0.2874 -0.8803
10086TIP3   OH251748   0.857   5.573  16.539 -0.9771 -0.1695  0.0195
10086TIP3    H151749   0.945   5.607  16.554 -1.0792 -0.1713  0.6520
10086TIP3    H251750   0.866   5.513  16.465 -0.6348  0.5761 -0.5570
10087TIP3   OH251751   5.572   0.191  16.494  0.2055 -0.6910 -0.5127
10087TIP3    H151752   5.522   0.260  16.538  0.4745  0.0964 -1.3859
10087TIP3    H251753   5.652   0.181  16.546  0.6166  0.3769 -0.9017
10088TIP3   OH251754   6.341   6.743   2.474 -0.5644  0.1497  0.3460
10088TIP3    H151755   6.319   6.830   2.442 -0.3176 -0.3876 -1.4001
10088TIP3    H251756   6.437   6.742   2.475 -0.5337 -0.4766 -0.8666
10089TIP3   OH251757   5.727   5.869  15.159  0.0594  0.2017 -0.0849
10089TIP3    H151758   5.785   5.938  15.127  1.0086 -0.4311  0.2396
10089TIP3    H251759   5.745   5.794  15.101 -1.2637  0.3320 -0.7009
10090TIP3   OH251760   5.535   5.383   2.306 -0.6354  0.0938 -0.9507
10090TIP3    H151761   5.589   5.455   2.339 -0.1280 -0.6916 -0.0082
10090TIP3    H251762   5.564   5.307   2.356 -2.6659 -0.3486 -0.3531
10091TIP3   OH251763   1.368   3.304  11.485  0.1707 -0.2344  0.1351
10091TIP3    H151764   1.324   3.304  11.400  1.4387  2.2564 -0.6287
10091TIP3    H251765   1.334   3.382  11.530  1.1275 -0.2885  1.0008
10092TIP3   OH251766   5.468   1.960   3.712 -0.6679 -0.5905 -0.3137
10092TIP3    H151767   5.455   1.973   3.806  0.5939  0.3636 -0.2357
10092TIP3    H251768   5.554   1.918   3.705 -1.5212 -2.3186 -0.9780
10093TIP3   OH251769   2.291   3.295  12.872 -0.2030  0.5270 -0.1553
10093TIP3    H151770   2.372   3.331  12.909 -0.6257  0.6032  0.7139
10093TIP3    H251771   2.261   3.362  12.811 -0.1685  0.9642  0.3033
10094TIP3   OH251772   6.138   3.399  16.804 -0.1309  0.7096  0.2459
10094TIP3    H151773   6.062   3.438  16.760  1.2161  0.6053 -2.3936
10094TIP3    H251774   6.158   3.321  16.753  1.0926  0.1160  1.5655
10095TIP3   OH251775   1.608   4.218   2.028 -0.1113 -0.1463 -0.0951
10095TIP3    H151776   1.593   4.129   1.997 -0.2853 -0.9360  2.0581
10095TIP3    H251777   1.701   4.234   2.009  0.2193 -1.2439  0.4714
10096TIP3   OH251778   2.829   6.000   5.620  0.1882 -0.1663 -0.0047
10096TIP3    H151779   2.812   5.944   5.544  1.3939 -1.0910  0.3782
10096TIP3    H251780   2.753   5.988   5.676  0.3997 -1.4129  0.0436
10097TIP3   OH251781   0.676   0.537   2.286 -0.2662  0.0946 -0.3438
10097TIP3    H151782   0.768   0.556   2.304  0.4152 -1.5349 -1.8479
10097TIP3    H251783   0.673   0.442   2.273 -2.0810  0.1790 -0.8305
10098TIP3   OH251784   6.317   2.483  10.642 -0.0734 -0.0433  0.6340
10098TIP3    H151785   6.223   2.497  10.627 -0.2802  0.1099  1.9407
10098TIP3    H251786   6.358   2.508  10.560 -1.0191  1.7852  0.6508
10099TIP3   OH251787   6.427   1.307  15.538 -0.4975  0.0572  0.2425
10099TIP3    H151788   6.512   1.295  15.495 -0.6209  2.6022 -0.9173
10099TIP3    H251789   6.448   1.305  15.632  0.5133 -1.1222  0.0253
10100TIP3   OH251790   3.471   1.373  13.357  0.3610 -0.9240 -0.8470
10100TIP3    H151791   3.507   1.442  13.301  0.7723 -0.7318 -0.3605
10100TIP3    H251792   3.433   1.310  13.296 -2.2869  0.9111 -1.2692
10101TIP3   OH251793   4.935   5.526  14.198  0.1880  0.1294 -0.2646
10101TIP3    H151794   5.006   5.579  14.235  0.1920 -1.3679  2.0656
10101TIP3    H251795   4.874   5.590  14.160 -0.4326  1.9929  3.4623
10102TIP3   OH251796   5.168   5.499  14.027  0.1940  0.4743  0.6797
10102TIP3    H151797   5.157   5.558  13.953 -0.6517 -0.0503  0.3651
10102TIP3    H251798   5.099   5.524  14.088  0.5178  0.5169  1.0334
10103TIP3   OH251799   5.139   0.743  15.095  0.3406  0.1046  0.5324
10103TIP3    H151800   5.051   0.769  15.066  0.8682  0.8645 -0.4348
10103TIP3    H251801   5.125   0.704  15.181 -1.1207 -1.0495 -0.1969
10104TIP3   OH251802   3.402   2.610   4.181  0.3130  0.1785  0.4425
10104TIP3    H151803   3.497   2.606   4.187  0.4032 -0.4428 -0.8938
10104TIP3    H251804   3.371   2.544   4.243  0.7722  0.0988  0.5844
10105TIP3   OH251805   3.676   4.535   1.388  0.2107  0.4688  0.2003
10105TIP3    H151806   3.733   4.462   1.366  0.3047 -0.0646  2.0159
10105TIP3    H251807   3.602   4.527   1.328  0.2055 -1.1611  0.3763
10106TIP3   OH251808   0.235   0.422  12.497  0.1038 -0.5849 -0.4271
10106TIP3    H151809   0.280   0.364  12.558  1.4559 -1.2623 -1.9833
10106TIP3    H251810   0.254   0.510  12.529 -0.4126 -0.9353  0.9097
10107TIP3   OH251811   5.738   2.744   2.331 -0.1171  0.2752  0.0683
10107TIP3    H151812   5.810   2.754   2.394 -0.1620  2.2881 -0.1432
10107TIP3    H251813   5.664   2.789   2.372 -0.4372  0.7213 -0.9867
10108TIP3   OH251814   0.460   2.157   6.495 -0.1271 -0.1795  0.2815
10108TIP3    H151815   0.433   2.245   6.521 -1.2831 -0.9469  1.7631
10108TIP3    H251816   0.387   2.124   6.443 -0.4693 -0.8932  1.1948
10109TIP3   OH251817   6.682   5.036  11.204 -0.2987 -0.0504 -0.3997
10109TIP3    H151818   6.749   5.099  11.230 -2.0707  1.4140  0.8458
10109TIP3    H251819   6.685   5.036  11.108 -1.2386  3.1588 -0.5254
10110TIP3   OH251820   6.811   4.774   5.621 -0.0949 -0.7594  0.0630
10110TIP3    H151821   6.841   4.792   5.710  0.4274  0.1558 -0.2902
10110TIP3    H251822   6.879   4.719   5.583 -1.2399 -2.8248  0.8311
10111TIP3   OH251823   3.406   0.020  11.543 -0.3188  0.4466 -0.0791
10111TIP3    H151824   3.418   0.104  11.499 -1.1936  0.0916 -1.0205
10111TIP3    H251825   3.341   0.038  11.611 -0.4719  0.5302 -0.2503
10112TIP3   OH251826   6.363   5.981  12.636  0.7091  0.2411 -0.0254
10112TIP3    H151827   6.306   5.928  12.580  2.8910 -0.4780 -1.6806
10112TIP3    H251828   6.320   6.067  12.638 -1.1909 -0.6537  0.0529
10113TIP3   OH251829   4.588   4.980   4.488  0.5583 -0.8759  0.1645
10113TIP3    H151830   4.597   5.020   4.402 -2.0989 -0.1779  0.1237
10113TIP3    H251831   4.633   4.896   4.480  0.3904 -0.8274 -1.9031
10114TIP3   OH251832   2.166   4.779   3.927  0.2999 -0.0894  0.5582
10114TIP3    H151833   2.107   4.724   3.876  1.6649 -0.3397 -0.8613
10114TIP3    H251834   2.167   4.863   3.881  1.4042 -0.2532  0.2439
10115TIP3   OH251835   1.776   2.818   4.200 -0.5784 -0.0058 -0.2621
10115TIP3    H151836   1.832   2.824   4.278 -1.0120  1.0563 -0.0144
10115TIP3    H251837   1.707   2.756   4.225 -1.3442  1.1578  0.6307
10116TIP3   OH251838   4.246   4.878  16.675  0.3119 -0.4436 -0.0441
10116TIP3    H151839   4.265   4.869  16.582 -2.8298 -0.1389 -0.8402
10116TIP3    H251840   4.248   4.788  16.709  0.1263 -0.7096 -0.7287
10117TIP3   OH251841   4.615   4.087   4.813 -0.2051  0.0435 -0.2274
10117TIP3    H151842   4.681   4.055   4.875  0.1593  0.2038 -0.5308
10117TIP3    H251843   4.533   4.049   4.845  0.1284 -0.7120 -0.2296
10118TIP3   OH251844   6.319   3.540  13.046 -0.1166 -0.4559  0.1466
10118TIP3    H151845   6.325   3.615  13.105  0.6270  0.3904 -0.9546
10118TIP3    H251846   6.312   3.579  12.958  1.2604 -1.6617 -0.5397
10119TIP3   OH251847   3.076   5.183   0.343 -0.3623 -0.4006 -0.4885
10119TIP3    H151848   3.036   5.268   0.329 -0.1207  0.0721  1.3784
10119TIP3    H251849   3.139   5.174   0.272 -0.9486  0.6159 -1.1597
10120TIP3   OH251850   0.196   5.566  12.581  0.5491 -0.1554  0.0205
10120TIP3    H151851   0.183   5.550  12.674 -1.3629 -2.4045 -0.5455
10120TIP3    H251852   0.111   5.548  12.541  1.2471  1.0162 -2.1603
10121TIP3   OH251853   5.636   3.052   0.793 -0.1393  0.3326 -0.1873
10121TIP3    H151854   5.689   3.001   0.854  0.0840  0.2807 -0.4180
10121TIP3    H251855   5.581   3.106   0.848 -1.0159 -0.7927  0.0821
10122TIP3   OH251856   0.317   2.144  16.294 -0.2402 -0.0891  0.5055
10122TIP3    H151857   0.313   2.154  16.389  2.2054 -0.8320  0.7504
10122TIP3    H251858   0.411   2.142  16.274 -0.6018  3.2413 -2.3306
10123TIP3   OH251859   5.652   3.916  11.381  0.3741 -0.1021  0.5597
10123TIP3    H151860   5.663   3.872  11.296  0.3711  1.1015 -0.0898
10123TIP3    H251861   5.723   3.883  11.435  0.9044 -0.2358 -0.2029
10124TIP3   OH251862   5.224   6.355  11.597 -0.8189 -0.6002 -0.1435
10124TIP3    H151863   5.180   6.331  11.516 -0.1859  0.2989 -0.7746
10124TIP3    H251864   5.314   6.374  11.571 -0.6850  0.0127  0.7060
10125TIP3   OH251865   2.043   1.043  15.797 -0.1653 -0.3517  0.1804
10125TIP3    H151866   1.971   1.083  15.749  0.0782  0.8189  0.7583
10125TIP3    H251867   2.028   1.066  15.888  0.1993 -1.2715  0.4877
10126TIP3   OH251868   2.860   2.107  16.361 -0.0224 -0.8341  0.1328
10126TIP3    H151869   2.839   2.052  16.285 -0.3019 -0.3115 -0.1764
10126TIP3    H251870   2.776   2.126  16.401 -0.0679  0.3122 -0.4383
10127TIP3   OH251871   2.804   3.565   5.644  0.0776  0.3330  0.1040
10127TIP3    H151872   2.791   3.658   5.659  0.4270  0.5198 -0.7166
10127TIP3    H251873   2.803   3.555   5.549  0.7304 -0.3989  0.1652
10128TIP3   OH251874   1.718   3.995   6.010 -0.0867  0.1559  0.6289
10128TIP3    H151875   1.811   3.997   6.031  0.0180 -2.8602  0.9384
10128TIP3    H251876   1.673   4.008   6.093 -0.0823  3.2799  0.2536
10129TIP3   OH251877   1.653   2.363  14.993 -0.5855  0.4541  0.1573
10129TIP3    H151878   1.583   2.426  14.975 -0.8060  0.9870  2.5385
10129TIP3    H251879   1.620   2.310  15.065  0.6764 -0.6239 -0.0133
10130TIP3   OH251880   4.749   4.665   0.086 -0.8956  0.5225  0.0886
10130TIP3    H151881   4.814   4.735   0.077 -1.1377  0.5984 -1.2967
10130TIP3    H251882   4.698   4.689   0.164 -0.5248  1.5134  0.0424
10131TIP3   OH251883   4.767   3.364  16.532 -0.2695  0.2388 -0.6768
10131TIP3    H151884   4.758   3.332  16.622  1.3663  2.2197  0.2738
10131TIP3    H251885   4.719   3.300  16.479 -0.4973 -1.5022  1.4819
10132TIP3   OH251886   4.439   1.680   6.116 -0.7569 -1.0105  0.3390
10132TIP3    H151887   4.452   1.738   6.040 -0.3368 -0.9726  0.4357
10132TIP3    H251888   4.392   1.605   6.081 -1.3166 -0.6134  0.2104
10133TIP3   OH251889   2.440   2.736   5.772 -0.1013  0.6710  0.3128
10133TIP3    H151890   2.444   2.714   5.865 -0.9170 -1.4322 -0.0975
10133TIP3    H251891   2.506   2.680   5.731 -0.8601  0.3843 -0.5561
10134TIP3   OH251892   6.053   6.259   6.779 -0.2866 -0.3171 -0.1873
10134TIP3    H151893   6.047   6.337   6.723  0.1950 -0.5508 -0.5687
10134TIP3    H251894   6.132   6.215   6.750 -0.2578 -0.6635  0.4029
10135TIP3   OH251895   6.044   3.159  13.712  0.1946 -0.2367 -0.0473
10135TIP3    H151896   6.005   3.101  13.647 -2.1748  0.8256  0.3328
10135TIP3    H251897   6.025   3.247  13.679 -1.2451  0.3353  2.1143
10136TIP3   OH251898   0.448   1.017  12.235  0.1931 -0.0126  0.5831
10136TIP3    H151899   0.429   0.973  12.152  2.4664 -1.3025  0.6865
10136TIP3    H251900   0.433   0.950  12.301  1.9176 -0.1330  0.8900
10137TIP3   OH251901   2.465   5.820  11.287  0.0527  0.4454 -0.2363
10137TIP3    H151902   2.402   5.884  11.321  0.2709 -0.2532  1.6219
10137TIP3    H251903   2.466   5.835  11.192 -2.7912  0.6089 -0.3347
10138TIP3   OH251904   5.273   2.308   3.695  0.6064 -0.1291 -1.1077
10138TIP3    H151905   5.245   2.217   3.708 -0.0510  0.0058 -1.5335
10138TIP3    H251906   5.193   2.354   3.669  0.5037  0.9889  0.9830
10139TIP3   OH251907   1.129   0.712  13.855  0.3130  0.5529 -0.1299
10139TIP3    H151908   1.099   0.658  13.928 -0.4449  2.3377  0.9360
10139TIP3    H251909   1.084   0.675  13.779 -1.5946  0.7531  0.8407
10140TIP3   OH251910   2.610   5.509   0.880  0.0665 -0.1631 -0.0011
10140TIP3    H151911   2.639   5.533   0.968 -0.0263 -0.0082 -0.0116
10140TIP3    H251912   2.549   5.579   0.855 -1.3069 -1.1086  0.5254
10141TIP3   OH251913   3.768   4.208  14.070  0.3577  0.0628  0.2268
10141TIP3    H151914   3.718   4.207  13.989 -2.7632 -1.3903  1.9962
10141TIP3    H251915   3.733   4.282  14.120 -0.2449 -1.0664  1.5685
10142TIP3   OH251916   3.014   6.657  14.454 -0.0049 -1.0301  0.2973
10142TIP3    H151917   3.080   6.725  14.472  0.1088 -1.4788  1.6749
10142TIP3    H251918   2.930   6.702  14.466  0.0647 -0.9946  0.6497
10143TIP3   OH251919   0.215   3.779   0.755 -0.1151  0.1288 -0.0040
10143TIP3    H151920   0.259   3.723   0.819  0.2062 -1.3179 -1.4206
10143TIP3    H251921   0.153   3.721   0.711 -0.8005  1.2478 -0.5624
10144TIP3   OH251922   6.786   3.109   5.689 -0.0449  0.4411  0.3453
10144TIP3    H151923   6.736   3.163   5.628  0.0479 -1.4195 -1.5223
10144TIP3    H251924   6.852   3.067   5.634 -1.0297 -2.6529  1.3067
10145TIP3   OH251925   4.907   2.925  15.586  0.6281  0.4088 -0.3428
10145TIP3    H151926   4.864   2.840  15.584  1.6001 -0.1277  0.5327
10145TIP3    H251927   4.894   2.961  15.499 -1.4419  0.2113 -0.1585
10146TIP3   OH251928   1.569   2.984  14.005  0.2635  0.5138 -0.2409
10146TIP3    H151929   1.615   3.047  13.949  0.7998 -0.7564 -1.2677
10146TIP3    H251930   1.604   2.899  13.980  1.0206 -0.0897  2.5282
10147TIP3   OH251931   5.964   1.620   0.448  0.7874  0.0558  0.3785
10147TIP3    H151932   5.973   1.707   0.488  0.2306  0.7441 -0.9137
10147TIP3    H251933   5.871   1.614   0.425  0.8422 -0.8461  0.3712
10148TIP3   OH251934   0.407   1.284  17.217 -0.0643 -0.4950 -0.5130
10148TIP3    H151935   0.313   1.297  17.232 -0.2638  0.5410 -2.3293
10148TIP3    H251936   0.425   1.196  17.252 -1.5686 -0.4708  0.4013
10149TIP3   OH251937   4.810   3.157  11.976  0.0928 -0.5109  0.1032
10149TIP3    H151938   4.865   3.170  12.053 -0.9186 -2.3763  1.2295
10149TIP3    H251939   4.733   3.210  11.992  0.0451 -0.6079  0.1929
10150TIP3   OH251940   3.642   6.224  16.534 -0.0462 -0.2318 -0.3728
10150TIP3    H151941   3.719   6.274  16.563 -0.7442  1.3560 -1.1198
10150TIP3    H251942   3.575   6.290  16.520 -1.1157 -1.4364 -1.1420
10151TIP3   OH251943   3.083   5.052  12.989 -0.4315  0.0635 -0.0538
10151TIP3    H151944   3.101   4.971  13.036  1.4721  0.5884  0.1847
10151TIP3    H251945   3.058   5.023  12.901 -2.4555 -0.8461  0.7465
10152TIP3   OH251946   0.163   6.434   0.566 -0.1071 -0.7142  0.1134
10152TIP3    H151947   0.250   6.404   0.539  1.1260 -0.8979  3.7301
10152TIP3    H251948   0.134   6.369   0.629 -1.3960  1.0668  1.4472
10153TIP3   OH251949   4.651   1.210   5.702 -0.1996  0.2693 -0.3527
10153TIP3    H151950   4.661   1.125   5.657  1.5314 -0.1173  0.6358
10153TIP3    H251951   4.592   1.191   5.775  1.4596 -0.5718  0.8508
10154TIP3   OH251952   3.628   1.345   1.683 -0.0931  0.4924 -0.0097
10154TIP3    H151953   3.671   1.268   1.721  0.0172  0.9619  0.8366
10154TIP3    H251954   3.536   1.319   1.674 -0.1238  0.3850  0.6072
10155TIP3   OH251955   3.912   1.366  13.881  0.0829  0.0653  0.5795
10155TIP3    H151956   3.839   1.428  13.879  0.6969  0.8285  1.1065
10155TIP3    H251957   3.938   1.363  13.973  0.1400 -0.8965  0.5378
10156TIP3   OH251958   2.226   4.858   4.207  0.3161  0.0259  0.1930
10156TIP3    H151959   2.319   4.835   4.205  0.1743 -0.6491  0.9820
10156TIP3    H251960   2.196   4.845   4.118  1.2387  1.4079 -0.3618
10157TIP3   OH251961   5.326   2.081   1.502  0.1724 -0.4649  0.3435
10157TIP3    H151962   5.394   2.059   1.438  0.0909 -0.5773  0.2941
10157TIP3    H251963   5.351   2.033   1.581 -0.6087 -1.6621 -0.1022
10158TIP3   OH251964   2.513   0.050  15.103 -0.7547 -0.1183  0.5227
10158TIP3    H151965   2.475   0.066  15.017 -0.7317  3.8370  1.0767
10158TIP3    H251966   2.461  -0.022  15.139 -0.2270 -2.5184 -2.9654
10159TIP3   OH251967   4.334   4.258  11.804 -0.2585 -0.4257 -0.4841
10159TIP3    H151968   4.239   4.246  11.811 -0.4134  0.9815 -0.0683
10159TIP3    H251969   4.368   4.168  11.800 -1.5311 -0.9695  0.1906
10160TIP3   OH251970   4.554   6.810  11.895  0.0571 -0.0128  0.1431
10160TIP3    H151971   4.482   6.786  11.954  0.4078  0.2755  0.6952
10160TIP3    H251972   4.512   6.861  11.825 -0.2953  0.0397  0.3909
10161TIP3   OH251973   3.475   2.546   3.489 -0.2877 -0.3824  0.1117
10161TIP3    H151974   3.481   2.583   3.577  2.2521  0.4302 -0.3390
10161TIP3    H251975   3.443   2.618   3.435  1.1170  0.0681 -0.1369
10162TIP3   OH251976   6.772   1.477  15.211 -0.0089 -0.0964 -0.4158
10162TIP3    H151977   6.740   1.463  15.122 -1.1177 -0.9012  0.0879
10162TIP3    H251978   6.697   1.515  15.258 -0.1590 -1.6463  0.6987
10163TIP3   OH251979   5.893   4.417   0.423 -0.0883 -0.2365 -0.2150
10163TIP3    H151980   5.856   4.454   0.343 -1.9201  1.6503  1.3969
10163TIP3    H251981   5.854   4.330   0.429 -3.2064  1.0972  0.5856
10164TIP3   OH251982   6.125   5.815  12.162 -0.3182  0.3674  0.5249
10164TIP3    H151983   6.071   5.758  12.107  0.4284  0.7224 -0.6072
10164TIP3    H251984   6.070   5.834  12.238 -1.4656  0.0374 -0.1975
10165TIP3   OH251985   2.334   5.517  13.244  0.5618  0.1859 -0.2904
10165TIP3    H151986   2.270   5.508  13.314  1.0149 -0.9463  0.0023
10165TIP3    H251987   2.381   5.598  13.265  2.2507 -1.2692  2.0837
10166TIP3   OH251988   5.458   1.577   1.528  0.1653  0.1250 -0.3821
10166TIP3    H151989   5.445   1.488   1.560  1.1887  0.0349 -0.1657
10166TIP3    H251990   5.443   1.571   1.433  0.3861 -0.3184 -0.3919
10167TIP3   OH251991   1.150   5.052   4.180  0.0698 -0.4334  0.3147
10167TIP3    H151992   1.081   5.118   4.180  1.7538  1.4887 -1.7816
10167TIP3    H251993   1.159   5.026   4.088  2.6409  0.0451  0.3361
10168TIP3   OH251994   2.810   4.707   1.450  0.1061 -0.7983 -0.3309
10168TIP3    H151995   2.771   4.778   1.500  0.9869  1.5976 -2.7683
10168TIP3    H251996   2.767   4.628   1.482  0.7454  0.4074  4.2137
10169TIP3   OH251997   5.467   3.879   0.043 -0.0682  0.0236  0.2674
10169TIP3    H151998   5.481   3.841   0.130 -1.0449  1.8204  1.2906
10169TIP3    H251999   5.491   3.810  -0.018 -0.8289 -1.8584  1.9731
10170TIP3   OH252000   4.351   2.816  11.046 -0.4182 -0.5696 -1.0642
10170TIP3    H152001   4.417   2.849  11.108 -0.2445  0.7675 -1.9084
10170TIP3    H252002   4.295   2.759  11.098  1.5301 -1.9367 -0.3610
10171TIP3   OH252003   0.174   1.141  16.032 -0.3418  0.1300 -0.7977
10171TIP3    H152004   0.242   1.143  15.965  1.6156  0.6676  1.0571
10171TIP3    H252005   0.164   1.048  16.054  0.7100  0.1219 -0.2797
10172TIP3   OH252006   4.562   5.728   6.385  0.2372 -0.3911 -1.0411
10172TIP3    H152007   4.510   5.670   6.441 -0.1297  0.5686 -0.3725
10172TIP3    H252008   4.501   5.756   6.317  0.4210 -0.7933 -1.3781
10173TIP3   OH252009   5.099   5.586  16.217 -0.3609 -0.2771 -0.0828
10173TIP3    H152010   5.130   5.669  16.255 -0.0242 -1.2767  1.9946
10173TIP3    H252011   5.177   5.530  16.216 -1.0323 -1.2598  0.6460
10174TIP3   OH252012   0.341   5.304   4.937 -0.2057  0.3976  0.5047
10174TIP3    H152013   0.271   5.315   5.001 -0.2989  1.4749  0.2299
10174TIP3    H252014   0.410   5.364   4.966 -0.8537  2.0443 -1.2129
10175TIP3   OH252015   0.177   3.987   2.862 -0.5202 -0.2585 -0.0080
10175TIP3    H152016   0.232   4.065   2.853 -0.3762 -0.2303  0.9734
10175TIP3    H252017   0.138   3.975   2.776  0.8672 -0.1632 -0.6729
10176TIP3   OH252018   2.540   1.773   1.677  0.3406 -0.3932 -0.3722
10176TIP3    H152019   2.514   1.865   1.671  1.1617 -0.2283 -1.6142
10176TIP3    H252020   2.495   1.741   1.756 -0.4847  0.8851 -0.2954
10177TIP3   OH252021   3.342   5.570   0.093  0.3425  0.8527 -0.3524
10177TIP3    H152022   3.345   5.666   0.098 -0.4762  0.8272  1.9029
10177TIP3    H252023   3.372   5.550   0.005  1.7702  3.1267 -0.4864
10178TIP3   OH252024   6.250   4.507  12.693 -0.0165  0.2089 -0.5053
10178TIP3    H152025   6.190   4.505  12.768  0.4729 -1.4499 -0.0996
10178TIP3    H252026   6.292   4.592  12.698 -1.9632  1.2295 -0.5220
10179TIP3   OH252027   3.307   0.969  12.081 -0.7668  0.4614  0.2342
10179TIP3    H152028   3.215   0.982  12.103 -1.1973  0.9491 -1.7162
10179TIP3    H252029   3.308   0.887  12.031 -0.1163  0.4044  0.3318
10180TIP3   OH252030   3.206   3.105   4.146  0.1634  0.2742 -0.0689
10180TIP3    H152031   3.124   3.075   4.107 -1.4158 -0.0290  3.1346
10180TIP3    H252032   3.249   3.024   4.175  0.8509  0.5298 -0.3716
10181TIP3   OH252033   2.945   2.998   2.449  0.3670 -0.3240 -0.7917
10181TIP3    H152034   2.948   3.065   2.517  0.4869  0.1813 -1.2884
10181TIP3    H252035   2.892   2.928   2.487 -1.0514  0.6834 -0.8206
10182TIP3   OH252036   3.048   0.534   6.034 -0.1348  0.0680 -0.1291
10182TIP3    H152037   2.988   0.472   6.076 -0.6136  1.2549  0.9766
10182TIP3    H252038   3.113   0.554   6.102 -0.4152  1.3440 -0.2236
10183TIP3   OH252039   0.112   5.062  10.715 -0.5234  0.1665 -0.2458
10183TIP3    H152040   0.162   5.076  10.796  0.7512 -0.5105 -0.8816
10183TIP3    H252041   0.032   5.113  10.727 -0.8001 -0.6663  1.8186
10184TIP3   OH252042   2.960   0.098   2.048 -0.5972  0.0129 -0.3431
10184TIP3    H152043   2.985   0.189   2.032 -0.1879 -0.0229  0.0673
10184TIP3    H252044   2.981   0.083   2.140  2.4766 -1.4736 -1.1582
10185TIP3   OH252045   6.779   6.657   3.170 -0.1272 -0.3371  0.3433
10185TIP3    H152046   6.799   6.750   3.154  0.8867 -0.6595 -0.4517
10185TIP3    H252047   6.851   6.626   3.225 -0.1909 -0.7602  0.1947
10186TIP3   OH252048   6.393   2.844  15.889  0.4488  0.4467 -0.4993
10186TIP3    H152049   6.414   2.867  15.798  1.6803  1.0105 -0.0944
10186TIP3    H252050   6.392   2.749  15.890  0.3611  0.4345 -1.1147
10187TIP3   OH252051   6.073   2.931   2.230 -0.0487 -0.6914  0.2253
10187TIP3    H152052   6.048   2.977   2.310  2.9110  0.0661  0.8195
10187TIP3    H252053   6.158   2.892   2.250  1.2159  0.2629 -2.7946
10188TIP3   OH252054   1.231   2.514   4.658  0.3950 -0.1867  0.2597
10188TIP3    H152055   1.155   2.555   4.699  1.0747 -0.3322  1.6954
10188TIP3    H252056   1.281   2.587   4.622 -0.9043 -0.1525 -1.6241
10189TIP3   OH252057   5.114   1.708   2.220 -0.1044 -0.0377  0.3516
10189TIP3    H152058   5.119   1.780   2.283 -0.5581  1.0545 -0.8097
10189TIP3    H252059   5.176   1.732   2.151 -0.4616 -0.6243 -0.1824
10190TIP3   OH252060   3.621   5.832  10.785 -0.1951 -0.2149 -0.0466
10190TIP3    H152061   3.695   5.877  10.827 -1.0961  0.9089  0.3899
10190TIP3    H252062   3.640   5.739  10.797  1.5100  0.0210 -0.5908
10191TIP3   OH252063   0.091   2.466   1.081  0.1338 -0.4943  0.2801
10191TIP3    H152064   0.008   2.485   1.124  0.5104 -0.0310  0.8147
10191TIP3    H252065   0.067   2.445   0.991 -0.5243 -0.0053  0.3340
10192TIP3   OH252066   5.096   6.231  14.092 -0.2251  0.4912  0.4405
10192TIP3    H152067   5.083   6.261  14.002 -0.3137 -1.1123 -0.0973
10192TIP3    H252068   5.169   6.284  14.124  2.7479 -1.7971 -2.0200
10193TIP3   OH252069   1.838   4.587   2.723  0.7255  0.0721 -0.4123
10193TIP3    H152070   1.808   4.677   2.737  0.8396 -0.1317  1.2696
10193TIP3    H252071   1.861   4.584   2.630  0.5055  1.7169 -0.5468
10194TIP3   OH252072   2.222   6.559  11.976 -0.6717  0.9403 -0.5074
10194TIP3    H152073   2.279   6.613  11.922  1.5283  0.9394  1.6035
10194TIP3    H252074   2.273   6.544  12.056 -2.3849 -1.7701  0.2147
10195TIP3   OH252075   2.945   6.501   2.558  0.5137  0.5545 -0.1816
10195TIP3    H152076   2.951   6.596   2.545  1.0909  0.4788 -0.5246
10195TIP3    H252077   3.030   6.477   2.596 -0.3125  0.4346  1.7096
10196TIP3   OH252078   6.231   3.267   4.020  0.5401  0.1491  0.9232
10196TIP3    H152079   6.221   3.183   4.064 -0.5294 -1.6487 -2.4530
10196TIP3    H252080   6.142   3.302   4.013  0.4471 -0.3853 -1.0918
10197TIP3   OH252081   0.890   3.089  15.560  1.1285  0.6270 -0.2596
10197TIP3    H152082   0.888   3.079  15.464 -1.5753  2.1189 -0.4597
10197TIP3    H252083   0.819   3.033  15.591  2.2350 -0.1587  1.0024
10198TIP3   OH252084   5.478   3.237   3.744  0.3101  0.1323 -0.0475
10198TIP3    H152085   5.387   3.217   3.766 -0.1507  2.2273  0.2154
10198TIP3    H252086   5.525   3.230   3.827  0.2927 -0.4206 -0.0805
10199TIP3   OH252087   4.970   2.823   4.639 -0.0946  0.2961  0.2616
10199TIP3    H152088   4.891   2.873   4.622 -0.9820 -0.9280  0.6259
10199TIP3    H252089   4.949   2.734   4.609  0.5665 -0.4087  1.7633
10200TIP3   OH252090   0.340   4.942  14.266  0.5791  0.3928 -0.6668
10200TIP3    H152091   0.381   4.863  14.299 -0.1711  0.3908  0.3040
10200TIP3    H252092   0.377   4.954  14.178  0.6380 -1.0716 -0.8666
10201TIP3   OH252093   5.549   6.287   5.980 -0.2958 -0.2244 -0.3413
10201TIP3    H152094   5.454   6.291   5.990 -0.6085 -1.6947 -2.1026
10201TIP3    H252095   5.577   6.378   5.973 -1.1661  0.4131  2.8608
10202TIP3   OH252096   2.350   1.131   2.038  0.5207  0.3827 -0.0085
10202TIP3    H152097   2.360   1.169   2.125  0.6257 -1.4397  0.8299
10202TIP3    H252098   2.255   1.124   2.025  0.5031  0.7734 -0.1175
10203TIP3   OH252099   2.317   0.907   0.073 -0.2176  0.1121  0.2834
10203TIP3    H152100   2.223   0.914   0.052  0.2201  2.7543 -1.3134
10203TIP3    H252101   2.323   0.928   0.166 -1.0265  2.9451 -0.2183
10204TIP3   OH252102   5.715   6.159  16.020 -0.2762 -1.0601  0.1037
10204TIP3    H152103   5.811   6.152  16.014 -0.1219  0.0461  1.0027
10204TIP3    H252104   5.700   6.245  16.059 -1.5816 -1.8493  1.4524
10205TIP3   OH252105   1.976   3.004  13.752  0.1585 -0.3271 -0.0714
10205TIP3    H152106   2.014   3.092  13.751  0.1005 -0.2442 -2.7620
10205TIP3    H252107   1.895   3.012  13.702 -0.3475 -1.7321  0.4686
10206TIP3   OH252108   6.294   5.889  11.954  0.3557  0.2601  0.1047
10206TIP3    H152109   6.239   5.854  11.883 -0.5216  2.3468 -0.3433
10206TIP3    H252110   6.244   5.872  12.034  0.7247 -0.9301  0.0940
10207TIP3   OH252111   3.811   3.581  14.150  0.3646 -0.3394  0.4176
10207TIP3    H152112   3.774   3.505  14.194 -0.9105 -0.2527 -0.4700
10207TIP3    H252113   3.814   3.557  14.057 -0.9136  1.0040 -0.0103
10208TIP3   OH252114   2.868   2.725   4.754 -0.1396  0.0577 -0.1702
10208TIP3    H152115   2.911   2.692   4.833  1.7383  1.7864 -0.3773
10208TIP3    H252116   2.881   2.656   4.689 -0.3107 -0.7094  0.5910
10209TIP3   OH252117   5.521   4.716   5.340 -0.2607  0.6530  0.5984
10209TIP3    H152118   5.586   4.647   5.326 -0.4972  0.5162  0.1424
10209TIP3    H252119   5.506   4.716   5.435  1.0719  1.3122  0.8305
10210TIP3   OH252120   5.422   3.523  13.446 -0.3280  0.4836 -0.4667
10210TIP3    H152121   5.399   3.601  13.396  0.7826  0.6335 -0.7730
10210TIP3    H252122   5.385   3.538  13.533  0.6565  1.7880 -0.2433
10211TIP3   OH252123   0.072   1.185   5.917  0.1433 -0.4007  0.6138
10211TIP3    H152124   0.002   1.244   5.889  0.5995 -0.4502 -0.7271
10211TIP3    H252125   0.114   1.231   5.990 -0.3474  0.3196  0.4572
10212TIP3   OH252126   0.798   3.936  14.610  0.1136  0.0671  0.5485
10212TIP3    H152127   0.836   4.023  14.615  0.0125  0.2223 -1.1105
10212TIP3    H252128   0.868   3.877  14.640  1.3173  0.4479 -1.3773
10213TIP3   OH252129   5.335   1.981   4.728 -0.4499  0.7318  0.1253
10213TIP3    H152130   5.403   1.934   4.679 -1.5400  1.0553 -1.8049
10213TIP3    H252131   5.366   2.071   4.731  0.1203  0.5160  0.9972
10214TIP3   OH252132   0.413   6.608   5.817 -0.3245  0.2596  0.4705
10214TIP3    H152133   0.467   6.546   5.866 -3.5180 -1.1603  2.5256
10214TIP3    H252134   0.407   6.685   5.873 -4.1866 -1.4595  2.8585
10215TIP3   OH252135   1.457   1.899  10.349 -0.7792  0.2281 -0.2370
10215TIP3    H152136   1.369   1.863  10.363 -0.2309 -1.9831 -1.8768
10215TIP3    H252137   1.516   1.831  10.380  0.5121  2.4818  2.7356
10216TIP3   OH252138   6.097   4.714   2.759 -0.4305  0.0530  1.0590
10216TIP3    H152139   6.127   4.761   2.682 -0.6348 -0.2868  0.7690
10216TIP3    H252140   6.156   4.639   2.767  0.4626  0.8372  2.0460
10217TIP3   OH252141   1.148   4.745  16.882  0.1242 -0.5877  0.4220
10217TIP3    H152142   1.134   4.770  16.973  0.7935 -0.6305  0.5447
10217TIP3    H252143   1.242   4.758  16.867  0.1041 -1.0107 -0.1282
10218TIP3   OH252144   3.005   5.501   4.066  0.7063 -0.2499 -0.4170
10218TIP3    H152145   3.054   5.492   3.985 -0.0421  0.2706 -0.9499
10218TIP3    H252146   3.024   5.422   4.115  1.0317 -0.6545 -1.1785
10219TIP3   OH252147   6.017   1.599  17.137  0.1806  0.2862  0.0771
10219TIP3    H152148   6.043   1.510  17.115 -1.0286 -0.1119  0.1855
10219TIP3    H252149   5.970   1.591  17.220 -0.0445  0.9987  0.0272
10220TIP3   OH252150   5.032   5.769   4.381  0.3323 -0.5094 -0.2422
10220TIP3    H152151   4.973   5.826   4.430  0.3307  0.3655 -1.2107
10220TIP3    H252152   5.086   5.726   4.447 -0.7726 -0.6242  0.5996
10221TIP3   OH252153   4.448   4.488   3.037  0.1938  0.1264 -0.3513
10221TIP3    H152154   4.409   4.493   3.124 -0.9585 -0.5319 -0.8101
10221TIP3    H252155   4.429   4.572   2.997  0.9173  0.5156  0.0905
10222TIP3   OH252156   4.093   5.672   4.713 -0.2610  0.6193  0.3900
10222TIP3    H152157   4.049   5.590   4.736 -0.8188  0.3760 -1.3528
10222TIP3    H252158   4.182   5.662   4.747 -0.2963 -0.7569  0.1208
10223TIP3   OH252159   5.612   5.207  14.531 -0.4014 -0.3521  0.3885
10223TIP3    H152160   5.519   5.220  14.511 -0.1198 -1.1715 -1.6546
10223TIP3    H252161   5.640   5.290  14.570 -1.6469  0.4416 -0.3436
10224TIP3   OH252162   1.489   6.754  11.594  0.2972 -0.5460  0.1195
10224TIP3    H152163   1.557   6.689  11.578  1.5260  1.0537 -1.6743
10224TIP3    H252164   1.523   6.808  11.666  0.9792  0.2165 -0.7369
10225TIP3   OH252165   3.030   5.372  15.350 -0.4143 -0.8669  0.0543
10225TIP3    H152166   3.012   5.405  15.262  1.6300  0.0466 -0.0862
10225TIP3    H252167   3.125   5.378  15.358 -0.4072 -2.5462  1.7215
10226TIP3   OH252168   4.764   6.135   5.824 -0.0205 -0.1613  0.4183
10226TIP3    H152169   4.710   6.212   5.805  0.2518 -0.2714 -0.9034
10226TIP3    H252170   4.838   6.170   5.874 -0.5772  0.2032  1.0251
10227TIP3   OH252171   6.804   3.463  16.447  0.2130 -0.0526 -0.2439
10227TIP3    H152172   6.741   3.418  16.503 -0.7817  1.2279 -0.3002
10227TIP3    H252173   6.828   3.542  16.495  2.4615 -0.8911  0.1657
10228TIP3   OH252174   2.578   0.974   1.173  0.4948 -0.6280 -0.1331
10228TIP3    H152175   2.527   1.038   1.123  2.6725  0.7474 -0.7329
10228TIP3    H252176   2.528   0.893   1.167 -1.7082  0.6893 -0.4521
10229TIP3   OH252177   5.336   4.233   3.060  0.3961 -0.1920 -0.1958
10229TIP3    H152178   5.403   4.165   3.055  1.0063  0.3119  0.7927
10229TIP3    H252179   5.286   4.212   3.139 -0.9684 -0.8646 -1.2149
10230TIP3   OH252180   4.148   2.758   4.233  0.3490 -0.3035 -0.6617
10230TIP3    H152181   4.076   2.791   4.180  0.3273 -1.2772 -1.2607
10230TIP3    H252182   4.200   2.705   4.172  0.6136 -1.0090  0.1653
10231TIP3   OH252183   2.630   4.522   1.114  0.2467  0.0722 -0.3769
10231TIP3    H152184   2.576   4.589   1.157 -0.3959  0.4215 -1.6641
10231TIP3    H252185   2.720   4.551   1.128 -0.0021  0.8748 -0.3815
10232TIP3   OH252186   0.396   2.387   1.341  0.2954  0.1595 -0.2682
10232TIP3    H152187   0.373   2.479   1.351 -2.8355 -0.6341  0.9992
10232TIP3    H252188   0.337   2.353   1.274 -1.5834 -1.7163  2.1272
10233TIP3   OH252189   5.983   4.578   4.464  0.0579 -0.0043  0.3011
10233TIP3    H152190   6.050   4.510   4.462 -0.9427 -1.0412  1.2976
10233TIP3    H252191   5.979   4.606   4.556 -2.1179 -1.2547  0.6486
10234TIP3   OH252192   6.746   1.915  12.083  0.3398 -0.1697  0.0553
10234TIP3    H152193   6.764   1.924  12.177  0.2303  0.1097  0.0502
10234TIP3    H252194   6.829   1.939  12.041  0.5746 -0.8768  0.0969
10235TIP3   OH252195   0.250   3.428  11.160 -0.5544  0.1023 -0.6312
10235TIP3    H152196   0.330   3.441  11.109  0.9784  1.0995  1.8619
10235TIP3    H252197   0.275   3.370  11.232 -2.2303 -0.0185 -0.0887
10236TIP3   OH252198   1.103   1.524  13.801  0.3522  0.5577  0.2220
10236TIP3    H152199   1.133   1.434  13.792 -1.3065 -0.1138  0.8681
10236TIP3    H252200   1.153   1.559  13.875  1.5444  0.4363 -0.5075
10237TIP3   OH252201   6.636   1.162  12.446  0.0539 -0.1585  0.2085
10237TIP3    H152202   6.594   1.077  12.461 -1.0231  0.4233  0.6917
10237TIP3    H252203   6.664   1.160  12.355  0.5801 -1.2444  0.3805
10238TIP3   OH252204   1.135   4.288  13.901  0.3189  0.3628  0.3951
10238TIP3    H152205   1.224   4.262  13.875  0.3201  1.4757 -0.7801
10238TIP3    H252206   1.098   4.329  13.823 -0.9854  0.5623  1.0951
10239TIP3   OH252207   5.462   4.392   2.152 -0.1798 -0.4807 -0.0934
10239TIP3    H152208   5.448   4.300   2.128 -2.0713 -0.1504 -0.4436
10239TIP3    H252209   5.412   4.404   2.233 -0.1309  0.2943 -0.1701
10240TIP3   OH252210   4.704   5.887  16.606  0.1582 -0.2080  0.3169
10240TIP3    H152211   4.776   5.949  16.591  0.7578 -1.0358 -0.3357
10240TIP3    H252212   4.720   5.817  16.543 -1.4127 -0.2649 -0.0472
10241TIP3   OH252213   5.351   1.796   5.890  0.4215  0.3075  0.6190
10241TIP3    H152214   5.330   1.703   5.888  0.2892  0.3406  0.4801
10241TIP3    H252215   5.425   1.802   5.950  1.4944 -0.1052 -0.6104
10242TIP3   OH252216   1.536   3.426   5.234 -0.2935  0.2362  0.0312
10242TIP3    H152217   1.536   3.351   5.294  0.9628 -1.0249 -1.4442
10242TIP3    H252218   1.622   3.465   5.244 -0.0584 -0.0034 -0.9366
10243TIP3   OH252219   3.241   5.552   2.118 -0.0992  0.1291 -0.5569
10243TIP3    H152220   3.255   5.468   2.075 -1.4914 -0.9862  1.0378
10243TIP3    H252221   3.329   5.589   2.128  0.5502 -1.1847 -1.1894
10244TIP3   OH252222   2.711   1.034  17.001 -0.8340 -0.5089 -0.6964
10244TIP3    H152223   2.711   1.128  17.020 -0.5303 -0.8575  1.2148
10244TIP3    H252224   2.622   1.016  16.970 -1.4455  0.1450  0.5656
10245TIP3   OH252225   6.360   4.747   4.488  0.4322  0.3815 -0.2669
10245TIP3    H152226   6.443   4.759   4.534  0.3355 -1.6588  0.5609
10245TIP3    H252227   6.317   4.675   4.534 -1.4630  0.8624 -1.1623
10246TIP3   OH252228   0.904   4.913  13.283 -0.5857 -0.1587 -0.1326
10246TIP3    H152229   0.905   4.818  13.290 -0.3059 -0.2912 -1.6178
10246TIP3    H252230   0.922   4.944  13.372 -0.5524 -1.4802  0.3481
10247TIP3   OH252231   4.983   0.598   3.649  0.0445  0.3975  0.2294
10247TIP3    H152232   4.903   0.550   3.629  0.6590 -0.3750 -0.5235
10247TIP3    H252233   5.039   0.533   3.693 -0.1498  1.2398  1.7788
10248TIP3   OH252234   6.590   5.404  16.640 -0.1175  0.3959  0.1921
10248TIP3    H152235   6.604   5.310  16.652 -0.9404  0.2627  0.2171
10248TIP3    H252236   6.495   5.414  16.643 -0.1056  1.0589 -1.0931
10249TIP3   OH252237   5.522   4.999   5.258  0.1494 -0.4695  0.1974
10249TIP3    H152238   5.518   4.908   5.289  1.3810 -0.7930 -0.5365
10249TIP3    H252239   5.586   4.997   5.187 -1.2830  0.5759 -1.2106
10250TIP3   OH252240   1.079   0.720  17.186 -0.2036 -0.4491  0.0881
10250TIP3    H152241   1.066   0.652  17.253 -3.0056 -0.2200 -0.1128
10250TIP3    H252242   0.992   0.733  17.148  0.4531  2.4952 -0.6452
10251TIP3   OH252243   5.357   4.929  11.630  0.0433 -0.2536  0.2101
10251TIP3    H152244   5.316   4.855  11.676 -0.0720 -0.0389  0.4530
10251TIP3    H252245   5.426   4.959  11.689 -0.1677  0.0840  0.2872
10252TIP3   OH252246   2.400   6.079  15.229  0.6719  0.4064  0.0176
10252TIP3    H152247   2.335   6.038  15.285  0.9069 -1.6854 -1.1197
10252TIP3    H252248   2.475   6.096  15.286 -0.2053  1.2369  0.9571
10253TIP3   OH252249   5.816   4.600  16.366 -0.4803 -0.3890  0.5665
10253TIP3    H152250   5.822   4.570  16.276 -0.9425  0.5317  0.2099
10253TIP3    H252251   5.854   4.688  16.364 -0.1892 -0.4891  1.3401
10254TIP3   OH252252   5.185   1.658  15.569 -0.2704 -0.0356 -0.0834
10254TIP3    H152253   5.124   1.626  15.635 -0.9327 -0.0890 -0.7089
10254TIP3    H252254   5.265   1.606  15.583  0.1459  1.0106  1.6487
10255TIP3   OH252255   4.518   1.631  16.993  0.0646  0.5469 -0.2932
10255TIP3    H152256   4.448   1.695  17.006  1.4527  2.1191 -0.2741
10255TIP3    H252257   4.592   1.664  17.044  0.7143 -1.3135  0.0767
10256TIP3   OH252258   4.524   3.845  15.806 -0.6122 -0.0637  0.1409
10256TIP3    H152259   4.443   3.857  15.855 -1.2580 -2.1227 -0.3230
10256TIP3    H252260   4.530   3.923  15.750 -1.4157  0.8623  1.3012
10257TIP3   OH252261   3.648   5.833  16.749 -0.3923 -0.1059  0.7498
10257TIP3    H152262   3.601   5.916  16.763  0.0489 -0.0602  2.1626
10257TIP3    H252263   3.582   5.765  16.764 -0.8729 -0.0391 -0.8740
10258TIP3   OH252264   3.864   4.031   0.621  0.1087 -0.0247  0.2869
10258TIP3    H152265   3.831   3.976   0.692 -3.8260  0.7229 -0.6983
10258TIP3    H252266   3.880   4.116   0.663 -0.3639 -0.0903  0.6113
10259TIP3   OH252267   1.295   6.642   4.222  0.7891 -0.0179  0.3382
10259TIP3    H152268   1.342   6.641   4.138 -1.6189  1.2108 -1.1370
10259TIP3    H252269   1.260   6.731   4.227 -1.3312 -0.8637  1.3383
10260TIP3   OH252270   0.090   4.018   2.362  0.1204 -0.7041 -0.3138
10260TIP3    H152271   0.042   4.099   2.376 -0.5226 -1.2635  0.9793
10260TIP3    H252272   0.137   4.031   2.280 -0.3127  0.7958 -0.3560
10261TIP3   OH252273   2.066   3.408  14.085  0.3419  0.4158 -0.0698
10261TIP3    H152274   2.062   3.426  13.991 -0.3991  1.4154  0.1404
10261TIP3    H252275   2.159   3.411  14.106  0.4140  1.8431 -0.4790
10262TIP3   OH252276   5.725   0.469   2.193 -0.4239 -0.0177  0.1032
10262TIP3    H152277   5.665   0.531   2.235 -0.7683 -0.3780  0.1591
10262TIP3    H252278   5.747   0.510   2.110 -1.1491 -0.1008 -0.1397
10263TIP3   OH252279   1.333   1.869   1.972  0.0945 -0.3359 -0.0186
10263TIP3    H152280   1.332   1.960   1.944  1.9955  0.1181  1.1778
10263TIP3    H252281   1.282   1.867   2.052 -1.1677 -0.6423 -0.8080
10264TIP3   OH252282   4.663   4.250   3.881 -0.1934 -0.5404  0.3667
10264TIP3    H152283   4.630   4.338   3.901 -1.0788 -0.9152  0.6221
10264TIP3    H252284   4.758   4.258   3.886 -0.1153  0.9880 -2.0266
10265TIP3   OH252285   2.257   6.798   4.322 -0.2428  0.0752  0.0644
10265TIP3    H152286   2.297   6.746   4.252 -0.1710 -0.4798  0.5084
10265TIP3    H252287   2.170   6.819   4.289 -0.1498 -0.0466 -0.2615
10266TIP3   OH252288   6.069   6.774   0.786  0.1055 -0.1009 -0.4463
10266TIP3    H152289   6.152   6.778   0.739  1.4429 -1.8488  1.5608
10266TIP3    H252290   6.094   6.760   0.877 -2.3967 -0.0602  0.3214
10267TIP3   OH252291   3.350   1.111  14.475  0.0102 -0.0353  0.1252
10267TIP3    H152292   3.312   1.135  14.559 -0.4161 -0.5823  0.0948
10267TIP3    H252293   3.378   1.020  14.486  3.2326  0.8999  0.8147
10268TIP3   OH252294   6.479   2.626   5.796 -0.1341 -0.0278 -0.2884
10268TIP3    H152295   6.410   2.690   5.785 -1.2480 -0.4684  3.0040
10268TIP3    H252296   6.455   2.554   5.737 -2.7795 -0.3024  0.9614
10269TIP3   OH252297   4.691   4.100   2.433 -0.0335  0.2648 -0.2627
10269TIP3    H152298   4.727   4.032   2.376  0.1193 -0.7114  0.9712
10269TIP3    H252299   4.721   4.077   2.521 -3.0981 -0.2755  0.7737
10270TIP3   OH252300   2.314   0.809   2.463 -0.2201  0.0091 -0.8428
10270TIP3    H152301   2.247   0.748   2.431 -0.8244  0.3873 -0.3195
10270TIP3    H252302   2.268   0.892   2.474  0.6131  0.5901 -1.6189
10271TIP3   OH252303   3.920   1.640   0.069 -0.1715  0.0860 -0.2739
10271TIP3    H152304   4.005   1.647   0.112 -0.8191 -0.1120  1.0941
10271TIP3    H252305   3.941   1.615  -0.021  1.1795 -1.9374  0.5104
10272TIP3   OH252306   4.216   0.833  15.551 -0.2180  0.6509 -0.0146
10272TIP3    H152307   4.224   0.777  15.473  0.7378 -1.6044  1.5698
10272TIP3    H252308   4.122   0.837  15.567 -0.3397 -0.1412 -0.4439
10273TIP3   OH252309   4.191   0.142   1.377  0.1334 -0.4594 -0.1606
10273TIP3    H152310   4.246   0.195   1.435  0.8957 -0.4643 -0.8800
10273TIP3    H252311   4.102   0.173   1.395  0.4302  0.0249  0.5090
10274TIP3   OH252312   5.998   3.708  12.243 -0.4374  0.5893 -0.2702
10274TIP3    H152313   5.941   3.784  12.234  1.7137  2.1333 -1.6568
10274TIP3    H252314   5.983   3.657  12.163 -1.5971 -0.3115  0.4855
10275TIP3   OH252315   3.756   4.683  16.400  0.0304 -0.0727  0.2264
10275TIP3    H152316   3.799   4.767  16.385 -1.6621  0.2234 -4.7973
10275TIP3    H252317   3.828   4.620  16.403  1.1707  1.2023  1.6280
10276TIP3   OH252318   5.971   5.421   0.645  0.2666 -0.6842 -0.1310
10276TIP3    H152319   6.033   5.369   0.593  1.1057  0.5439 -0.3991
10276TIP3    H252320   5.886   5.405   0.604  0.8103 -0.3190 -1.4519
10277TIP3   OH252321   0.839   2.774  12.096  0.0071  0.3119 -0.5554
10277TIP3    H152322   0.770   2.712  12.121  0.5906 -0.7573 -1.4583
10277TIP3    H252323   0.793   2.857  12.083 -1.6514 -0.8777 -3.5315
10278TIP3   OH252324   4.755   2.127   1.373  0.2386 -0.3223 -0.3159
10278TIP3    H152325   4.698   2.088   1.307  0.0388  0.6521 -0.7369
10278TIP3    H252326   4.823   2.172   1.322 -0.1191  0.7441  0.1124
10279TIP3   OH252327   0.872   1.325  15.920 -0.1505  0.2536 -0.3047
10279TIP3    H152328   0.937   1.371  15.868  0.5023  0.2199  0.4781
10279TIP3    H252329   0.835   1.260  15.859 -0.5125  1.2424 -1.1750
10280TIP3   OH252330   0.398   6.792   6.050 -0.0262 -0.1933  0.4242
10280TIP3    H152331   0.415   6.736   6.126  0.1492  0.1349  0.6324
10280TIP3    H252332   0.432   6.878   6.076  0.9450 -0.3076 -0.4097
10281TIP3   OH252333   2.915   5.135   5.087  1.0527 -0.4680  0.1761
10281TIP3    H152334   2.995   5.083   5.073  0.2615 -2.2227  1.7133
10281TIP3    H252335   2.854   5.103   5.021  1.3289  0.2330 -0.4221
10282TIP3   OH252336   1.385   3.172   2.534 -0.2936 -0.1305  0.0650
10282TIP3    H152337   1.377   3.087   2.491 -2.9420  1.2040 -2.4371
10282TIP3    H252338   1.454   3.217   2.484  1.9066 -1.0738  2.0918
10283TIP3   OH252339   3.759   0.381  12.897 -0.0861  0.7538 -0.5749
10283TIP3    H152340   3.711   0.464  12.900  0.0028  0.7891  0.0251
10283TIP3    H252341   3.702   0.319  12.941  0.4310  0.8044  0.1709
10284TIP3   OH252342   6.256   4.012   3.863  0.6500  0.4508  0.2714
10284TIP3    H152343   6.259   4.103   3.832  2.3637  0.2445 -0.2580
10284TIP3    H252344   6.307   3.963   3.798 -0.9928 -1.0660  0.0562
10285TIP3   OH252345   6.360   5.860   1.419  0.2617 -0.8393  0.3612
10285TIP3    H152346   6.272   5.844   1.454  0.1897  1.1774  1.2477
10285TIP3    H252347   6.418   5.815   1.481 -0.0889 -1.7775  0.0377
10286TIP3   OH252348   5.311   1.806   1.317  0.0745  0.1219  0.0934
10286TIP3    H152349   5.351   1.720   1.306  0.8733  0.3851  0.8474
10286TIP3    H252350   5.236   1.790   1.375  0.3226 -0.0382  0.3708
10287TIP3   OH252351   0.958   6.142  14.473 -0.0081  0.5799 -0.0001
10287TIP3    H152352   0.894   6.117  14.407 -0.4769  0.1712  0.6017
10287TIP3    H252353   1.001   6.220  14.438 -1.1238  1.1066 -0.2139
10288TIP3   OH252354   5.411   1.873  11.869  0.3618 -0.4802  0.1373
10288TIP3    H152355   5.430   1.913  11.784  0.8773 -0.1133  0.4222
10288TIP3    H252356   5.364   1.941  11.917 -0.3752 -0.8599 -0.0216
10289TIP3   OH252357   0.554   5.592   2.455 -0.7732 -0.2507 -0.0391
10289TIP3    H152358   0.499   5.583   2.532  1.6008  0.2411  1.8280
10289TIP3    H252359   0.589   5.681   2.461  1.4101 -1.0503 -0.2767
10290TIP3   OH252360   4.914   3.142  16.924 -0.1469  0.8497 -0.7915
10290TIP3    H152361   4.919   3.222  16.977 -0.7342 -0.2855  1.0726
10290TIP3    H252362   4.998   3.139  16.877  0.5240  1.7593  0.2940
10291TIP3   OH252363   3.399   1.741   0.020 -0.4961 -0.1380 -0.4644
10291TIP3    H152364   3.470   1.689  -0.017  0.0452  0.2025  0.0805
10291TIP3    H252365   3.327   1.679   0.030  0.8222 -1.3994  2.2985
10292TIP3   OH252366   2.884   3.386  16.855  0.1835 -1.0983 -0.8182
10292TIP3    H152367   2.814   3.429  16.807 -0.2289  1.8588  2.0586
10292TIP3    H252368   2.840   3.327  16.915  0.1989 -0.2981  0.0037
10293TIP3   OH252369   4.596   0.341   1.825 -0.0176  0.3274 -0.7258
10293TIP3    H152370   4.519   0.393   1.804 -1.1128 -0.8368  0.1910
10293TIP3    H252371   4.592   0.267   1.765 -0.8459 -0.8357  0.6880
10294TIP3   OH252372   2.201   0.968  13.482  0.0503 -0.1202  0.0841
10294TIP3    H152373   2.254   1.023  13.425 -0.3148 -0.6787 -0.8166
10294TIP3    H252374   2.153   0.910  13.423 -1.9426  0.6834  0.8181
10295TIP3   OH252375   6.464   2.803  14.941  0.5228 -0.5584 -0.2673
10295TIP3    H152376   6.539   2.859  14.963 -1.5118  2.2637  0.1083
10295TIP3    H252377   6.495   2.714  14.955  3.1064  0.5729  2.0542
10296TIP3   OH252378   4.045   1.780  11.202 -0.2966 -0.1410 -0.2149
10296TIP3    H152379   4.009   1.849  11.258 -0.5357 -0.8443  0.5166
10296TIP3    H252380   3.978   1.764  11.136 -0.6676 -0.3768  0.2196
10297TIP3   OH252381   1.519   1.077   3.085 -0.3370  0.4870  0.7160
10297TIP3    H152382   1.612   1.063   3.106  0.2930 -1.7169 -2.7621
10297TIP3    H252383   1.510   1.172   3.080  1.8925  0.7511  0.5169
10298TIP3   OH252384   2.387   3.591  11.171  0.3225 -0.2184 -0.5611
10298TIP3    H152385   2.385   3.618  11.262 -0.9843  0.0321 -0.6476
10298TIP3    H252386   2.364   3.670  11.122 -1.7074 -0.9604 -0.9167
10299TIP3   OH252387   2.576   5.191   5.103 -0.4177  0.1440 -0.4200
10299TIP3    H152388   2.634   5.193   5.180 -0.7322  1.6692 -0.2019
10299TIP3    H252389   2.633   5.161   5.032  0.1394 -0.2623  0.1772
10300TIP3   OH252390   5.079   4.121   5.660 -0.3361 -0.2347  0.7166
10300TIP3    H152391   5.103   4.039   5.704  0.2079 -0.2056  0.4778
10300TIP3    H252392   5.091   4.189   5.727 -2.9150 -0.5626  1.6297
10301TIP3   OH252393   1.107   3.382   5.000  0.0643 -0.5915 -0.3449
10301TIP3    H152394   1.182   3.440   5.017  0.4524 -1.5089  1.2937
10301TIP3    H252395   1.042   3.439   4.959  1.0326  0.6293 -0.2579
10302TIP3   OH252396   6.262   6.002  16.385 -0.4937  0.0330  0.0332
10302TIP3    H152397   6.281   6.072  16.321  0.5279 -1.6092 -1.5810
10302TIP3    H252398   6.345   5.989  16.430  0.2074 -1.9419 -1.6415
10303TIP3   OH252399   0.146   3.471  15.779  0.5375 -0.5793 -0.1798
10303TIP3    H152400   0.121   3.457  15.688  2.8366  0.9344 -1.1478
10303TIP3    H252401   0.171   3.384  15.811  0.0424 -1.0702 -1.1043
10304TIP3   OH252402   4.613   2.929   0.920 -0.3592  0.1569  0.7898
10304TIP3    H152403   4.602   2.852   0.865 -1.6670  1.1905 -0.4785
10304TIP3    H252404   4.647   2.895   1.002 -1.2617 -1.8193  0.4065
10305TIP3   OH252405   0.999   1.811  10.784 -0.1044  0.0171  0.2871
10305TIP3    H152406   1.014   1.899  10.748 -1.7322  0.3257  0.3114
10305TIP3    H252407   0.999   1.824  10.879  0.0088 -0.0772  0.3002
10306TIP3   OH252408   1.671   3.198  13.867 -0.2197 -1.0441  0.8710
10306TIP3    H152409   1.584   3.237  13.864 -0.3027 -1.2737  0.1389
10306TIP3    H252410   1.717   3.248  13.935  0.1683  1.3646 -1.0047
10307TIP3   OH252411   3.862   0.277   0.093  0.0860  0.8527  0.3283
10307TIP3    H152412   3.839   0.221   0.018 -1.9188 -0.1785  1.6307
10307TIP3    H252413   3.873   0.364   0.054  0.0949  0.1706 -1.3117
10308TIP3   OH252414   5.491   2.214   1.083  0.3036 -0.5837 -0.4295
10308TIP3    H152415   5.541   2.210   1.165  0.5028 -0.6447 -0.5516
10308TIP3    H252416   5.400   2.212   1.110  0.3683 -0.4670 -0.2015
10309TIP3   OH252417   6.467   3.611  14.775 -0.0235  0.3670  0.0150
10309TIP3    H152418   6.516   3.574  14.849 -1.1054 -0.3653  0.3831
10309TIP3    H252419   6.407   3.542  14.749  1.1950  0.1003 -2.4220
10310TIP3   OH252420   1.631   3.874  14.877  0.1031 -0.0948  0.1637
10310TIP3    H152421   1.639   3.779  14.871 -0.7625 -0.2412  1.0529
10310TIP3    H252422   1.609   3.891  14.969 -0.3550  0.9162 -0.1144
10311TIP3   OH252423   5.727   5.315   0.551 -0.4640 -0.2632 -0.5190
10311TIP3    H152424   5.736   5.221   0.536 -0.7514  0.0122 -2.6633
10311TIP3    H252425   5.697   5.351   0.467 -0.5948  1.7220  0.3096
10312TIP3   OH252426   1.179   2.012   2.797 -0.4875 -0.4681 -0.8557
10312TIP3    H152427   1.141   2.098   2.783  0.5878  0.0604 -0.6242
10312TIP3    H252428   1.205   2.012   2.889 -0.8551 -1.2020 -0.7415
10313TIP3   OH252429   2.524   0.046  14.331 -0.1926 -0.4168 -0.0609
10313TIP3    H152430   2.497  -0.030  14.382  0.5646 -0.1313  0.7938
10313TIP3    H252431   2.453   0.110  14.342 -2.1822 -1.8753 -2.9627
10314TIP3   OH252432   1.451   3.997   3.325 -0.4284  0.7881 -0.0452
10314TIP3    H152433   1.419   4.077   3.283 -1.8690  0.8356  1.0524
10314TIP3    H252434   1.471   4.023   3.415  0.3293  0.1802 -0.0277
10315TIP3   OH252435   3.509   5.224  11.588 -0.3658  0.2931  0.2565
10315TIP3    H152436   3.443   5.208  11.521 -1.1353  1.7886  0.6318
10315TIP3    H252437   3.460   5.258  11.663  0.5644 -0.7012  1.3561
10316TIP3   OH252438   2.033   4.024  13.924 -0.3863 -0.3529 -0.2023
10316TIP3    H152439   1.975   4.099  13.939 -0.1027 -0.2944  0.6315
10316TIP3    H252440   2.090   4.051  13.852 -1.3235 -0.3815 -0.9879
10317TIP3   OH252441   3.524   4.217  12.847 -0.1793 -0.3397 -0.2707
10317TIP3    H152442   3.480   4.232  12.931 -1.8275  0.6186 -1.2473
10317TIP3    H252443   3.611   4.255  12.859 -0.0728 -0.9890  1.2603
10318TIP3   OH252444   3.939   1.502   2.012 -0.4384 -0.3844 -0.0338
10318TIP3    H152445   4.020   1.451   2.015 -0.8056 -0.9429  1.7769
10318TIP3    H252446   3.876   1.449   2.060 -0.9000  1.6552  1.7757
10319TIP3   OH252447   2.370   6.733  14.730 -0.5963  0.6836 -0.0697
10319TIP3    H152448   2.278   6.714  14.746 -0.4897  0.4702  0.2828
10319TIP3    H252449   2.383   6.710  14.638 -0.8626  0.6029 -0.0892
10320TIP3   OH252450   6.305   4.118   4.621  0.1971 -0.0260  0.0884
10320TIP3    H152451   6.397   4.135   4.602  0.1241  0.3382  0.0421
10320TIP3    H252452   6.298   4.120   4.716  0.3898 -0.9058  0.1330
10321TIP3   OH252453   2.358   5.622   6.001 -0.6956 -0.1557 -0.4239
10321TIP3    H152454   2.323   5.708   6.023  0.6466  0.5770 -1.0372
10321TIP3    H252455   2.349   5.571   6.082  0.9684  1.4113  0.8485
10322TIP3   OH252456   5.683   1.444  11.832 -0.4091  0.6702 -0.3431
10322TIP3    H152457   5.591   1.448  11.807  0.2624  0.5869 -3.0995
10322TIP3    H252458   5.717   1.532  11.812  0.5089  0.1373 -1.2331
10323TIP3   OH252459   2.953   4.999   4.181 -0.0534  0.7438  0.2577
10323TIP3    H152460   2.905   4.924   4.217 -0.4932  1.1415  0.5006
10323TIP3    H252461   3.012   5.025   4.251  1.1522 -0.2745 -0.3339
10324TIP3   OH252462   4.232   2.357   2.599 -0.3552 -0.7651  0.0612
10324TIP3    H152463   4.183   2.298   2.657 -1.6699  0.8658  0.6949
10324TIP3    H252464   4.258   2.303   2.525 -4.2604 -1.5075 -0.9699
10325TIP3   OH252465   5.384   6.302   5.663 -0.6923 -0.0540 -0.2542
10325TIP3    H152466   5.442   6.261   5.727  1.9563  1.9708 -1.1294
10325TIP3    H252467   5.385   6.244   5.587  0.8343  0.2483 -0.4989
10326TIP3   OH252468   6.111   0.066   1.878 -0.3185  0.2981 -0.0822
10326TIP3    H152469   6.118   0.084   1.971 -1.7023 -0.1460  0.1402
10326TIP3    H252470   6.079  -0.025   1.874  0.4192  0.0656 -1.0046
10327TIP3   OH252471   1.303   4.758   0.776  0.0446 -0.8740 -0.2079
10327TIP3    H152472   1.264   4.792   0.857 -2.3017 -0.8458 -1.2546
10327TIP3    H252473   1.300   4.663   0.786  0.5398 -0.8670  0.0557
10328TIP3   OH252474   5.611   4.374  13.868  0.3440 -0.1090  0.6071
10328TIP3    H152475   5.630   4.313  13.797 -0.9165  0.5532 -0.3447
10328TIP3    H252476   5.688   4.432  13.871  1.4588 -1.5516  1.3892
10329TIP3   OH252477   3.669   2.237   3.001  0.4748  0.3565  0.0600
10329TIP3    H152478   3.716   2.256   3.082  0.8860 -1.7969  0.4074
10329TIP3    H252479   3.584   2.204   3.030  0.1455  0.7597 -0.4380
10330TIP3   OH252480   2.835   1.927   6.311  0.1921 -0.4239  0.0473
10330TIP3    H152481   2.907   1.894   6.256  0.2847  1.2976 -0.9271
10330TIP3    H252482   2.865   2.013   6.340 -1.8363  0.7659 -1.1573
10331TIP3   OH252483   4.969   3.406   3.206 -0.3609  0.3280 -0.3025
10331TIP3    H152484   5.009   3.326   3.173 -0.9728 -0.8121  1.5338
10331TIP3    H252485   4.877   3.384   3.218 -0.6752  1.5225 -0.3518
10332TIP3   OH252486   2.564   5.518   2.280 -0.4386  0.2026  0.8128
10332TIP3    H152487   2.523   5.600   2.251 -0.5750 -0.4204 -0.8433
10332TIP3    H252488   2.658   5.535   2.275 -0.4667  0.2896  0.6017
10333TIP3   OH252489   3.728   2.750  15.157 -0.1907  0.1519 -0.3587
10333TIP3    H152490   3.707   2.711  15.072  0.3086 -0.0651 -0.3828
10333TIP3    H252491   3.807   2.704  15.186 -0.9343 -0.5327  0.7055
10334TIP3   OH252492   0.925   2.831   5.372 -0.3466  0.3678 -0.0771
10334TIP3    H152493   0.965   2.826   5.286  0.2965  0.6283  0.2009
10334TIP3    H252494   0.838   2.868   5.357 -1.4419 -2.2767 -0.9962
10335TIP3   OH252495   1.365   3.419  12.409  0.2754 -0.0890  0.5656
10335TIP3    H152496   1.404   3.461  12.333  0.9602 -2.9659 -0.8061
10335TIP3    H252497   1.416   3.452  12.483  0.2796  1.9487 -0.2672
10336TIP3   OH252498   6.268   4.007   1.356  0.5162 -0.3963 -0.1882
10336TIP3    H152499   6.341   4.015   1.417  0.2378  0.1105  0.0823
10336TIP3    H252500   6.198   4.059   1.395  0.0463 -0.7849 -0.5042
10337TIP3   OH252501   0.770   3.542   5.235  0.0875  0.4988  0.1929
10337TIP3    H152502   0.790   3.545   5.328  2.2176  1.5761 -0.2494
10337TIP3    H252503   0.788   3.630   5.203 -1.9710  0.5399 -1.0222
10338TIP3   OH252504   6.281   4.057  11.372 -0.4391 -0.3212  0.3920
10338TIP3    H152505   6.349   4.105  11.420 -0.1002 -0.6029  0.1987
10338TIP3    H252506   6.214   4.039  11.437 -0.4796  0.2394  0.5147
10339TIP3   OH252507   5.095   4.450   3.326  0.7285  0.0455  0.5280
10339TIP3    H152508   5.054   4.476   3.408  2.1710  1.3054  0.8924
10339TIP3    H252509   5.106   4.531   3.277 -0.1346 -0.6781 -0.9665
10340TIP3   OH252510   5.437   4.521  12.098 -0.2788  0.5149  0.6717
10340TIP3    H152511   5.529   4.544  12.082  0.0461  0.2848  2.1040
10340TIP3    H252512   5.404   4.592  12.153 -1.2531  1.0794 -0.5809
10341TIP3   OH252513   5.445   4.036  12.382 -0.2487 -0.5827  0.3792
10341TIP3    H152514   5.452   4.104  12.449  1.3475  1.1517 -1.4227
10341TIP3    H252515   5.483   3.958  12.422  1.0734  0.5219  1.3463
10342TIP3   OH252516   0.024   2.888  13.251 -0.1107 -0.0082 -0.4747
10342TIP3    H152517   0.015   2.793  13.242 -0.1991 -0.0794  0.2933
10342TIP3    H252518   0.016   2.904  13.345  0.6062  0.6882 -0.5201
10343TIP3   OH252519   2.517   2.139   3.566  0.3667  0.5009  0.0489
10343TIP3    H152520   2.479   2.117   3.481  0.4109 -0.1552  0.1938
10343TIP3    H252521   2.446   2.183   3.613 -0.9070 -2.3656  1.0186
10344TIP3   OH252522   3.355   0.364   0.964  0.5290  0.1614  0.5391
10344TIP3    H152523   3.269   0.324   0.956 -0.2091  1.5550  1.1888
10344TIP3    H252524   3.385   0.340   1.052  1.0162 -0.6580  0.1710
10345TIP3   OH252525   4.192   5.457  16.015  0.2841  0.0237 -0.0014
10345TIP3    H152526   4.124   5.396  16.043  0.3717 -0.6661 -1.2191
10345TIP3    H252527   4.267   5.401  15.996  0.4513  0.5317 -0.8866
10346TIP3   OH252528   4.125   6.551   5.679 -0.2544 -0.2247 -0.1093
10346TIP3    H152529   4.183   6.494   5.729 -0.5920 -0.0429  0.4928
10346TIP3    H252530   4.096   6.497   5.606 -2.2643 -1.5714  1.5798
10347TIP3   OH252531   5.287   2.848  13.140  0.4083  0.4267  0.4343
10347TIP3    H152532   5.234   2.834  13.218  1.4003  0.0245  1.0540
10347TIP3    H252533   5.269   2.939  13.115 -1.1995  0.0563  0.1203
10348TIP3   OH252534   3.264   6.197  12.577  0.0817  0.1542  0.8049
10348TIP3    H152535   3.320   6.210  12.654 -1.7497  0.5916  2.1318
10348TIP3    H252536   3.189   6.148  12.610  0.9095 -3.0188 -1.5093
10349TIP3   OH252537   2.184   1.120  11.136 -0.3945 -0.3541  0.7503
10349TIP3    H152538   2.218   1.091  11.051  0.3168 -0.5123  1.0821
10349TIP3    H252539   2.255   1.174  11.172 -1.1851  0.7486  0.7033
10350TIP3   OH252540   6.516   6.126   0.408 -0.0612  0.5576  0.3356
10350TIP3    H152541   6.501   6.220   0.406 -0.3757  0.5215  0.8332
10350TIP3    H252542   6.463   6.094   0.481 -0.9599 -0.1830 -0.6010
10351TIP3   OH252543   0.562   0.702  15.747 -0.4079 -0.0167  0.4996
10351TIP3    H152544   0.586   0.747  15.666 -0.8069 -1.7082 -0.6315
10351TIP3    H252545   0.645   0.674  15.784 -0.2803 -2.0932 -1.1314
10352TIP3   OH252546   0.487   2.608   3.572  0.7157 -0.2195  0.1263
10352TIP3    H152547   0.442   2.636   3.492 -2.6066 -0.5818  1.6972
10352TIP3    H252548   0.574   2.583   3.543  0.3798  1.6711 -3.0150
10353TIP3   OH252549   1.061   4.635  12.034 -0.3064 -0.3381  0.7055
10353TIP3    H152550   1.023   4.547  12.027  0.0335 -0.6282  2.3039
10353TIP3    H252551   0.993   4.687  12.078 -1.3523  0.7853 -1.9889
10354TIP3   OH252552   5.910   4.803   5.768  0.7960  0.0748  0.0111
10354TIP3    H152553   5.974   4.842   5.826  0.6462 -0.4938  0.5714
10354TIP3    H252554   5.962   4.765   5.697  1.2708 -1.8741  1.3108
10355TIP3   OH252555   2.438   6.227  16.738 -0.0649  0.2523 -0.1943
10355TIP3    H152556   2.371   6.293  16.756  0.5677  1.1325 -0.9545
10355TIP3    H252557   2.473   6.204  16.824 -2.1926 -1.1843  0.3541
10356TIP3   OH252558   4.379   2.341  11.462  0.2066 -0.1997  0.3671
10356TIP3    H152559   4.345   2.271  11.516  0.3136 -0.5210  0.0212
10356TIP3    H252560   4.473   2.324  11.456  0.1832 -0.2213  0.0086
10357TIP3   OH252561   3.059   4.732   0.871 -0.4466 -0.9732  0.2100
10357TIP3    H152562   3.001   4.727   0.794  1.5400 -3.0469 -1.2774
10357TIP3    H252563   3.111   4.811   0.856 -0.6125 -0.9235 -0.1381
10358TIP3   OH252564   1.732   5.670   5.588  0.1286  0.3778 -0.6666
10358TIP3    H152565   1.669   5.742   5.587 -1.0139 -0.5959 -1.0355
10358TIP3    H252566   1.741   5.648   5.681 -0.2754  0.3557 -0.6289
10359TIP3   OH252567   0.734   0.100  12.137  0.3555  0.0421 -0.5218
10359TIP3    H152568   0.812   0.086  12.084  1.1930  0.1134  0.6507
10359TIP3    H252569   0.759   0.069  12.224 -1.1614 -0.5890 -0.2820
10360TIP3   OH252570   0.435   2.942   5.617 -0.2666  0.2151  0.0599
10360TIP3    H152571   0.425   2.920   5.709  0.9191 -2.4449 -0.3773
10360TIP3    H252572   0.494   3.017   5.617 -1.7674  1.4969  1.4753
10361TIP3   OH252573   2.706   4.971  14.507  0.1397  0.3697  0.0171
10361TIP3    H152574   2.720   4.910  14.435  3.9476  0.3358  0.5758
10361TIP3    H252575   2.747   5.053  14.478 -0.4429  1.1039  1.1818
10362TIP3   OH252576   6.469   2.388  15.717 -0.9478  0.4398 -0.4360
10362TIP3    H152577   6.463   2.293  15.726  1.8812  0.1481 -0.7685
10362TIP3    H252578   6.508   2.402  15.631 -1.8103  1.9695 -0.6197
10363TIP3   OH252579   3.334   1.587   4.029  0.3038 -0.1150 -0.5945
10363TIP3    H152580   3.271   1.550   3.967 -1.2482  0.2391  0.7097
10363TIP3    H252581   3.333   1.681   4.011  1.6205 -0.2545 -1.5582
10364TIP3   OH252582   5.847   4.796  13.975  0.4781 -0.5636 -0.6720
10364TIP3    H152583   5.818   4.868  14.031  1.7988  0.1934 -0.9357
10364TIP3    H252584   5.777   4.785  13.911 -0.6540 -0.8660  0.5709
10365TIP3   OH252585   6.165   0.194  15.381 -0.1497 -0.4103 -0.4371
10365TIP3    H152586   6.079   0.187  15.341  0.1611 -1.3955 -0.9678
10365TIP3    H252587   6.225   0.157  15.316  0.6398  0.0002  0.0376
10366TIP3   OH252588   4.545   3.588   1.057  0.3889  0.4992 -0.0249
10366TIP3    H152589   4.560   3.657   1.123  0.5261  1.3980 -0.9777
10366TIP3    H252590   4.458   3.555   1.077 -0.2680  1.9152 -0.3876
10367TIP3   OH252591   4.044   4.467   5.698 -0.7267  0.5489 -0.0430
10367TIP3    H152592   4.009   4.543   5.745 -0.4347 -0.0095  1.1269
10367TIP3    H252593   4.003   4.392   5.740  1.7529 -0.1483  1.4007
10368TIP3   OH252594   2.315   0.934   6.337  0.5310  0.6800 -0.2318
10368TIP3    H152595   2.408   0.957   6.336  1.2607 -1.7260  1.2240
10368TIP3    H252596   2.289   0.935   6.245  2.1963  0.7304 -0.7424
10369TIP3   OH252597   5.098   2.924  14.233  0.1543 -0.3695  0.2098
10369TIP3    H152598   5.036   2.981  14.279  0.1502  0.5705 -0.9204
10369TIP3    H252599   5.049   2.890  14.159  0.5953 -0.6789  0.0565
10370TIP3   OH252600   5.814   1.274  12.628 -0.3921  0.5712 -0.6724
10370TIP3    H152601   5.869   1.220  12.684 -0.1411 -0.6202 -2.0004
10370TIP3    H252602   5.778   1.341  12.686 -1.9244 -1.8849  1.4152
10371TIP3   OH252603   2.707   1.833  13.852 -0.4312 -0.5399  0.3485
10371TIP3    H152604   2.785   1.838  13.907 -0.4021 -1.1709  0.3732
10371TIP3    H252605   2.741   1.840  13.762 -0.5792  1.5849  0.4170
10372TIP3   OH252606   6.135   5.895  15.058 -0.3734  0.0874 -0.2666
10372TIP3    H152607   6.189   5.939  14.992 -0.0974 -1.1776 -0.9180
10372TIP3    H252608   6.149   5.802  15.041 -0.6574 -0.2622  1.2976
10373TIP3   OH252609   6.774   5.508   3.943  0.2364 -0.1627 -0.3698
10373TIP3    H152610   6.784   5.497   4.037 -0.0708  0.7055 -0.2221
10373TIP3    H252611   6.820   5.434   3.904 -1.4596 -1.7795  0.5093
10374TIP3   OH252612   4.805   3.734   1.757  0.5811  0.0178  0.3561
10374TIP3    H152613   4.856   3.689   1.690  0.6132 -0.8469  0.9364
10374TIP3    H252614   4.835   3.696   1.840  0.1756  0.6857  0.8220
10375TIP3   OH252615   1.787   2.283  16.336 -0.1824 -0.7044  0.4325
10375TIP3    H152616   1.752   2.224  16.270  0.4968 -0.9452  0.2780
10375TIP3    H252617   1.864   2.237  16.372  0.6899  0.3034 -0.0831
10376TIP3   OH252618   0.655   0.647  10.748 -0.4609 -0.3294  0.2512
10376TIP3    H152619   0.605   0.575  10.784 -0.9852 -0.6214 -0.9950
10376TIP3    H252620   0.602   0.725  10.766 -0.6284 -0.4507  0.2821
10377TIP3   OH252621   6.447   1.652   5.195  0.7694  0.5337 -0.3636
10377TIP3    H152622   6.419   1.592   5.264  1.1149  0.6816 -0.0910
10377TIP3    H252623   6.498   1.719   5.241 -0.7296  1.8035 -0.4698
10378TIP3   OH252624   1.227   3.912   3.645  0.0300  0.3095  0.2579
10378TIP3    H152625   1.239   3.829   3.599  1.2363  0.2086  0.7148
10378TIP3    H252626   1.134   3.932   3.635 -0.0860 -0.6190 -0.6589
10379TIP3   OH252627   0.925   2.131   1.170 -0.6380  0.3576  0.0809
10379TIP3    H152628   0.933   2.173   1.256  2.4344 -2.7790  1.5715
10379TIP3    H252629   0.865   2.057   1.185 -0.6134  0.1779 -0.6705
10380TIP3   OH252630   6.228   0.761  12.980 -0.4377 -0.9754  0.1369
10380TIP3    H152631   6.255   0.690  13.038 -0.0832  0.6851  2.1091
10380TIP3    H252632   6.143   0.789  13.013 -0.8611 -0.8590 -0.9987
10381TIP3   OH252633   3.980   0.595   2.103 -0.0938  0.4467 -0.0622
10381TIP3    H152634   4.052   0.565   2.047  1.0184 -1.1495  2.0885
10381TIP3    H252635   3.909   0.534   2.085  0.0543  0.2990 -0.1501
10382TIP3   OH252636   2.556   4.422   0.719 -0.8474  0.1999  0.5873
10382TIP3    H152637   2.461   4.408   0.716 -0.6043 -1.5814  0.5689
10382TIP3    H252638   2.587   4.363   0.787  0.2390  1.0082  0.8219
10383TIP3   OH252639   4.880   2.699  17.123 -0.1663 -0.5271 -0.2129
10383TIP3    H152640   4.955   2.670  17.175 -0.4196 -0.4160  0.2182
10383TIP3    H252641   4.833   2.761  17.179 -0.5484 -0.5472 -0.4987
10384TIP3   OH252642   5.034   1.303  14.637 -0.9826  0.3350 -0.2097
10384TIP3    H152643   5.047   1.350  14.555 -0.3079  3.9634  1.7490
10384TIP3    H252644   5.098   1.232  14.635 -0.1407  1.0827 -2.2892
10385TIP3   OH252645   4.866   0.075   0.766 -0.1030 -0.9174  0.2436
10385TIP3    H152646   4.945   0.094   0.717 -0.6096  0.6868  0.0015
10385TIP3    H252647   4.809   0.029   0.704  0.0963 -0.8180 -0.0117
10386TIP3   OH252648   5.678   0.817  16.686 -0.1477 -0.3955 -0.6407
10386TIP3    H152649   5.673   0.865  16.769 -0.6181  0.3963 -1.1190
10386TIP3    H252650   5.710   0.730  16.711 -0.0861 -0.1029  0.3436
10387TIP3   OH252651   6.610   6.099   4.237  0.2563  0.6978  0.2202
10387TIP3    H152652   6.554   6.152   4.180  1.3349  1.0399 -0.5602
10387TIP3    H252653   6.673   6.059   4.178 -0.2300 -1.1027  0.8606
10388TIP3   OH252654   6.252   2.330   5.782 -0.2203  0.3051 -0.3005
10388TIP3    H152655   6.257   2.290   5.869  0.8543 -1.1691 -0.9969
10388TIP3    H252656   6.257   2.256   5.722 -1.4553  1.2599 -1.6324
10389TIP3   OH252657   5.608   4.150  15.570  0.5801 -0.3168  0.3183
10389TIP3    H152658   5.535   4.095  15.598 -0.1241  0.2019 -0.4518
10389TIP3    H252659   5.679   4.088  15.553 -0.5028 -1.1535 -1.5657
10390TIP3   OH252660   4.356   2.471  13.054  0.1906 -0.7662  0.2542
10390TIP3    H152661   4.371   2.474  12.960 -0.9092  0.6083  0.0860
10390TIP3    H252662   4.433   2.428  13.089  1.7284  0.7366 -1.0716
10391TIP3   OH252663   1.630   6.306   3.183  0.2173  0.1355 -0.3879
10391TIP3    H152664   1.677   6.260   3.113 -1.4042 -0.0954 -1.3928
10391TIP3    H252665   1.555   6.249   3.202 -0.5874  1.2735 -0.0562
10392TIP3   OH252666   5.500   4.357  16.279  0.7184 -0.2252  0.2083
10392TIP3    H152667   5.486   4.450  16.256  1.9959  0.0492  0.4609
10392TIP3    H252668   5.423   4.313  16.245 -0.0532  0.9740  0.3255
10393TIP3   OH252669   1.460   5.546  14.609  0.0113 -0.2481  0.0793
10393TIP3    H152670   1.385   5.578  14.659 -0.2084  0.2545 -0.5488
10393TIP3    H252671   1.431   5.551  14.518  1.1911  1.0409 -0.2517
10394TIP3   OH252672   6.323   1.487   6.264  0.1701  0.1375  0.0763
10394TIP3    H152673   6.263   1.424   6.225  0.8679  0.7033 -2.0498
10394TIP3    H252674   6.268   1.564   6.283 -0.0191  0.1794 -0.6298
10395TIP3   OH252675   6.596   6.596   0.982  0.3614 -0.3387 -0.4124
10395TIP3    H152676   6.513   6.584   0.935  0.7015  3.6776 -2.4645
10395TIP3    H252677   6.572   6.650   1.058  1.1275  2.7746 -2.1812
10396TIP3   OH252678   0.355   3.244   1.414  0.4787  0.4345 -0.3817
10396TIP3    H152679   0.296   3.193   1.359  0.5912 -1.0455  0.8020
10396TIP3    H252680   0.336   3.335   1.392 -0.2212 -0.0746 -2.0675
10397TIP3   OH252681   4.823   2.089  14.110 -0.4402  0.2078  0.0769
10397TIP3    H152682   4.869   2.173  14.107 -1.0797  0.5295 -2.4750
10397TIP3    H252683   4.786   2.078  14.023 -1.6122 -2.0669  0.7754
10398TIP3   OH252684   2.847   0.667  14.899 -0.5393 -0.1687 -0.5916
10398TIP3    H152685   2.886   0.754  14.896  1.2371 -0.9151 -2.3732
10398TIP3    H252686   2.793   0.662  14.820 -2.6649  0.1222  0.7860
10399TIP3   OH252687   0.945   3.665  16.638 -0.0860  0.2504  0.1882
10399TIP3    H152688   0.899   3.745  16.612 -0.2260  0.0775 -0.0960
10399TIP3    H252689   1.038   3.689  16.635 -0.1520  0.7069  1.1047
10400TIP3   OH252690   5.651   4.688  12.047  0.0727  0.2853  0.3522
10400TIP3    H152691   5.745   4.679  12.061 -0.3831 -0.1646  3.9644
10400TIP3    H252692   5.629   4.775  12.080 -1.0713 -0.4920  1.7493
10401TIP3   OH252693   4.042   4.262   3.815 -0.1660  0.9719  0.2201
10401TIP3    H152694   4.052   4.170   3.838 -0.6765  0.9968  0.5574
10401TIP3    H252695   4.130   4.290   3.788 -0.2152  0.1476 -0.8109
10402TIP3   OH252696   6.376   3.161  15.850 -0.3777  0.1871  0.5064
10402TIP3    H152697   6.449   3.192  15.797 -0.9165 -1.0824 -1.0616
10402TIP3    H252698   6.418   3.114  15.923  0.3826 -0.2971 -0.2248
10403TIP3   OH252699   6.274   5.703   0.942 -0.1967 -0.0800 -0.0098
10403TIP3    H152700   6.210   5.754   0.990  1.3061  1.7656  0.1477
10403TIP3    H252701   6.329   5.663   1.010 -0.3624 -0.5772 -0.1610
10404TIP3   OH252702   1.330   1.985   4.109  0.2011  0.0022  0.9177
10404TIP3    H152703   1.419   2.006   4.137  0.7040 -2.7005  1.6405
10404TIP3    H252704   1.332   1.891   4.091 -2.0807  0.1967 -0.8225
10405TIP3   OH252705   4.833   2.488   3.309  0.1195 -0.2187  0.3795
10405TIP3    H152706   4.920   2.459   3.283  0.5067 -0.0463  1.4459
10405TIP3    H252707   4.790   2.408   3.341 -0.6552 -0.6071 -1.4455
10406TIP3   OH252708   4.986   0.075  11.810  0.1573 -0.5708  0.7109
10406TIP3    H152709   5.011   0.121  11.891  0.9490  0.1511  0.0780
10406TIP3    H252710   4.939  -0.002  11.840  1.5395 -0.9967  1.9158
10407TIP3   OH252711   4.818   0.258   6.712 -0.4113  0.0060  0.1743
10407TIP3    H152712   4.852   0.311   6.640 -1.7283 -0.8409 -1.1180
10407TIP3    H252713   4.895   0.216   6.749  0.3666  0.9791 -0.3002
10408TIP3   OH252714   3.346   1.552  16.983 -0.1268 -0.8460  0.0048
10408TIP3    H152715   3.392   1.608  17.046  0.1273 -0.8430 -0.1856
10408TIP3    H252716   3.326   1.472  17.033 -1.4445 -0.1775  0.6098
10409TIP3   OH252717   4.143   2.436   2.968 -0.4428  0.3197 -0.1581
10409TIP3    H152718   4.199   2.420   3.044 -0.8406 -0.1711  0.0335
10409TIP3    H252719   4.058   2.459   3.006 -0.1959  1.8094 -0.4309
10410TIP3   OH252720   1.499   0.633   6.540 -0.0083  0.1385  0.1596
10410TIP3    H152721   1.405   0.650   6.530 -0.0981 -0.2506  0.3368
10410TIP3    H252722   1.508   0.539   6.528  0.2945  0.1003  0.6656
10411TIP3   OH252723   4.212   4.706  15.965  0.0403 -0.1088 -0.6357
10411TIP3    H152724   4.211   4.628  15.910  0.4024  1.2094 -2.6302
10411TIP3    H252725   4.302   4.709  15.999 -0.1965 -0.9548  0.1126
10412TIP3   OH252726   4.134   2.365  16.305  0.2941 -0.7265 -0.2036
10412TIP3    H152727   4.054   2.417  16.300 -0.5764 -2.1328 -1.8771
10412TIP3    H252728   4.119   2.292  16.245  2.5470 -1.4427  0.0218
10413TIP3   OH252729   2.903   4.481  13.351 -0.2079  0.4816  0.1761
10413TIP3    H152730   2.893   4.431  13.270 -0.6246  0.4365  0.2501
10413TIP3    H252731   2.813   4.506  13.375 -0.2776 -0.8894  1.4849
10414TIP3   OH252732   4.458   2.029  13.690 -0.2733  0.6946 -0.2846
10414TIP3    H152733   4.396   1.959  13.709  1.7556 -1.5823 -1.4068
10414TIP3    H252734   4.447   2.046  13.596  0.9844  0.0050 -0.5777
10415TIP3   OH252735   4.768   2.965  16.803  0.0680  0.3223 -0.5989
10415TIP3    H152736   4.834   2.925  16.747  1.4668  2.8258 -0.8528
10415TIP3    H252737   4.817   2.998  16.879 -1.2171  0.3871  0.2325
10416TIP3   OH252738   5.251   5.027  10.648  0.6135 -0.1624 -0.1600
10416TIP3    H152739   5.305   5.092  10.603  0.4873  0.0155 -0.0566
10416TIP3    H252740   5.168   5.072  10.663  0.5491 -0.3262 -0.0281
10417TIP3   OH252741   6.121   0.073  11.389  0.3510 -0.6106 -0.1748
10417TIP3    H152742   6.127   0.069  11.294  1.4780  0.6209 -0.1807
10417TIP3    H252743   6.165  -0.007  11.419  1.7255 -0.0560 -0.6597
10418TIP3   OH252744   1.755   0.913   3.275 -0.3299  0.2113  0.2669
10418TIP3    H152745   1.784   0.942   3.189  0.7146 -1.6887 -0.0881
10418TIP3    H252746   1.788   0.979   3.336 -0.4550  1.1917 -0.7099
10419TIP3   OH252747   2.297   0.144   4.965  0.0993  0.0175 -0.5670
10419TIP3    H152748   2.314   0.235   4.942  0.7998  0.0640  0.1417
10419TIP3    H252749   2.344   0.129   5.047 -0.5411 -0.7973 -0.3284
10420TIP3   OH252750   1.629   4.033  15.726  0.1575  0.1950  0.2065
10420TIP3    H152751   1.556   4.079  15.770  0.9901  0.9307  0.8651
10420TIP3    H252752   1.689   4.103  15.701  0.6112 -0.4025 -0.4039
10421TIP3   OH252753   1.912   2.525  13.459  0.0304 -0.2802 -0.5113
10421TIP3    H152754   1.936   2.436  13.436 -1.3096 -0.7982 -0.0128
10421TIP3    H252755   1.817   2.523  13.467  0.1108  0.7209  1.3837
10422TIP3   OH252756   2.057   3.141   0.806 -0.7258  0.0009 -0.4583
10422TIP3    H152757   2.073   3.063   0.752 -2.5047  0.6728 -2.0524
10422TIP3    H252758   2.103   3.211   0.760 -0.1240  0.1212  0.3192
10423TIP3   OH252759   6.474   6.027   4.805  0.1644  0.4423  0.5074
10423TIP3    H152760   6.542   5.996   4.865 -0.2645  1.0624  1.3517
10423TIP3    H252761   6.512   6.104   4.764 -0.0918  0.9326  1.1600
10424TIP3   OH252762   2.678   5.418  16.903  0.0500  0.0938  0.3379
10424TIP3    H152763   2.724   5.494  16.937 -2.1470  2.4625 -1.5380
10424TIP3    H252764   2.713   5.406  16.815  0.6976 -1.4278  0.7715
10425TIP3   OH252765   4.568   6.513  11.855  0.3015  0.6608  0.4791
10425TIP3    H152766   4.535   6.478  11.938 -0.3011  1.2501  0.4946
10425TIP3    H252767   4.605   6.598  11.878  1.8139  0.0481  0.4525
10426TIP3   OH252768   3.748   1.435  16.029 -0.2578 -0.1733 -0.0469
10426TIP3    H152769   3.737   1.340  16.028 -0.0489 -0.2892 -3.3194
10426TIP3    H252770   3.812   1.453  15.960 -1.2729  2.3998 -0.4527
10427TIP3   OH252771   2.021   3.682   5.294 -0.1332 -0.3403 -0.1461
10427TIP3    H152772   2.070   3.713   5.370  1.0751 -0.1367 -0.9858
10427TIP3    H252773   1.963   3.754   5.271 -0.1100 -0.1932  0.2533
10428TIP3   OH252774   6.410   0.665   4.230  0.4228 -0.4947 -0.5628
10428TIP3    H152775   6.322   0.700   4.215  1.2165  1.7388 -0.3477
10428TIP3    H252776   6.403   0.619   4.314 -0.7003 -1.0851 -0.9486
10429TIP3   OH252777   0.442   4.633   2.903  0.3565 -0.1386 -0.5973
10429TIP3    H152778   0.476   4.546   2.882  1.8666 -0.0575  1.2197
10429TIP3    H252779   0.389   4.619   2.981 -0.2219  0.4270 -0.8883
10430TIP3   OH252780   3.103   1.199   6.033  0.0657 -0.3060  0.4902
10430TIP3    H152781   3.035   1.259   6.003 -1.6537 -2.3980  0.0348
10430TIP3    H252782   3.182   1.229   5.988 -1.0807  0.6029 -1.0163
10431TIP3   OH252783   1.445   6.579  12.054  0.4543 -0.1634  0.2856
10431TIP3    H152784   1.518   6.532  12.015  0.8906  0.2422  0.6017
10431TIP3    H252785   1.384   6.510  12.082 -0.3232 -0.4389 -1.9320
10432TIP3   OH252786   5.875   0.744  13.358  0.1523  0.4605  0.7547
10432TIP3    H152787   5.794   0.794  13.364 -0.5710 -0.5972  0.1456
10432TIP3    H252788   5.847   0.653  13.351  1.4444 -0.1120  2.3216
10433TIP3   OH252789   6.208   1.231   5.401 -0.0482  0.0658  0.7905
10433TIP3    H152790   6.226   1.138   5.389 -0.7830 -0.0989  0.9544
10433TIP3    H252791   6.169   1.259   5.318  0.3595  0.2765  0.6676
10434TIP3   OH252792   0.074   5.351   3.734  0.7082 -0.2585  0.1416
10434TIP3    H152793   0.116   5.389   3.657 -0.1229  0.8665  0.2140
10434TIP3    H252794   0.020   5.280   3.700 -1.7867  1.9093 -0.7587
10435TIP3   OH252795   2.333   5.724   0.208 -0.1052  0.5561 -0.0845
10435TIP3    H152796   2.247   5.767   0.203 -0.1448  0.5503  0.4597
10435TIP3    H252797   2.372   5.759   0.288  0.2925  0.3590 -0.1922
10436TIP3   OH252798   3.681   1.821  10.968  0.1867 -0.4372 -0.4907
10436TIP3    H152799   3.753   1.766  10.937  1.6454  0.1482  1.6622
10436TIP3    H252800   3.644   1.772  11.042  0.2557  0.5763  0.2367
10437TIP3   OH252801   5.993   4.057  13.021 -0.2045  0.4971 -0.0828
10437TIP3    H152802   5.975   4.023  12.934  0.0118 -1.0111  0.4401
10437TIP3    H252803   5.912   4.046  13.069  0.5893 -1.7812  0.8468
10438TIP3   OH252804   6.597   2.395  15.461  0.0893  0.2520 -0.0306
10438TIP3    H152805   6.651   2.356  15.392 -1.1512 -0.5738 -0.5685
10438TIP3    H252806   6.511   2.354  15.450 -1.1380  2.7275 -0.2680
10439TIP3   OH252807   2.247   4.659  12.288 -0.2520 -0.4636  0.5097
10439TIP3    H152808   2.301   4.705  12.351  2.1280 -1.1931 -0.8866
10439TIP3    H252809   2.273   4.567  12.296 -2.6279 -1.1635  1.0265
10440TIP3   OH252810   4.450   2.970   2.183  0.5418  0.2392 -0.0785
10440TIP3    H152811   4.418   2.908   2.248  0.7822 -0.2120 -0.3874
10440TIP3    H252812   4.385   3.041   2.184 -0.8846 -0.9591 -1.1707
10441TIP3   OH252813   1.776   0.388   1.172  0.0843  0.2635 -0.1432
10441TIP3    H152814   1.794   0.333   1.248 -0.3638  0.3271  0.0113
10441TIP3    H252815   1.856   0.438   1.160  0.3544 -0.1436 -0.0480
10442TIP3   OH252816   4.823   2.813   5.025 -0.1489 -0.1972 -0.0085
10442TIP3    H152817   4.913   2.787   5.041 -0.0119  0.0430 -0.3758
10442TIP3    H252818   4.797   2.859   5.105  0.4878  0.8782 -0.3980
10443TIP3   OH252819   5.860   2.513  14.318  0.7449 -0.2258 -0.3982
10443TIP3    H152820   5.797   2.542  14.252  1.1199 -0.4633 -0.8710
10443TIP3    H252821   5.925   2.584  14.322 -0.1968  0.5965  0.9929
10444TIP3   OH252822   3.179   3.772   4.263 -0.1380 -0.1140  0.0290
10444TIP3    H152823   3.209   3.689   4.227 -1.2138 -0.3808 -0.2836
10444TIP3    H252824   3.166   3.754   4.356 -1.3379 -0.6082 -0.2092
10445TIP3   OH252825   4.123   2.892   3.549  0.6085 -0.2293  0.1584
10445TIP3    H152826   4.159   2.847   3.626  0.7967 -0.7689 -0.2410
10445TIP3    H252827   4.185   2.963   3.532  0.8179 -0.3961  0.2211
10446TIP3   OH252828   0.827   0.567  12.418  0.0382 -0.2668  0.1676
10446TIP3    H152829   0.920   0.549  12.429  0.0926  0.4890  1.0604
10446TIP3    H252830   0.822   0.621  12.339  0.4237  0.1959  0.4557
10447TIP3   OH252831   1.340   0.304  11.802  0.5904  0.6520 -0.2461
10447TIP3    H152832   1.380   0.314  11.716  0.1315  1.9474 -0.3327
10447TIP3    H252833   1.414   0.292  11.861  0.8874 -0.7739 -0.8585
10448TIP3   OH252834   4.537   1.708   4.047  0.3091 -0.2457  0.3779
10448TIP3    H152835   4.487   1.790   4.052  0.0249 -0.3712 -0.2087
10448TIP3    H252836   4.507   1.657   4.122  1.0145  0.4593  1.1681
10449TIP3   OH252837   3.468   2.201   1.819  0.5009  0.2560  0.2573
10449TIP3    H152838   3.463   2.242   1.733  0.0311 -0.2497  0.0381
10449TIP3    H252839   3.465   2.107   1.801  2.3639  0.0791  0.6936
10450TIP3   OH252840   3.387   3.169  14.212 -0.3900  0.8887 -0.0284
10450TIP3    H152841   3.397   3.259  14.179 -1.5267  0.9034 -0.3478
10450TIP3    H252842   3.329   3.127  14.149 -1.1291  0.3834  0.9789
10451TIP3   OH252843   2.267   4.968  15.857 -0.1789 -0.0728 -0.6225
10451TIP3    H152844   2.278   4.873  15.857 -0.8978 -0.1653 -0.9371
10451TIP3    H252845   2.175   4.982  15.879 -0.0502  0.5558 -0.4544
10452TIP3   OH252846   3.042   6.660   5.735  0.1730  0.0744  0.2129
10452TIP3    H152847   2.982   6.588   5.754 -1.5364  1.6286  1.0385
10452TIP3    H252848   3.071   6.644   5.645 -2.5392 -0.0909 -0.7319
10453TIP3   OH252849   0.537   6.375  10.817  0.5888 -0.3246 -0.0160
10453TIP3    H152850   0.542   6.402  10.908  0.3384  0.4191 -0.2154
10453TIP3    H252851   0.628   6.367  10.789  0.8299  3.5600 -0.8653
10454TIP3   OH252852   1.237   0.931  15.318  0.1509 -0.6036 -0.3008
10454TIP3    H152853   1.269   0.996  15.255 -2.0674 -1.6718 -2.7132
10454TIP3    H252854   1.162   0.973  15.361  0.6808 -0.4618  0.5165
10455TIP3   OH252855   0.714   2.977  10.979  0.1631 -0.5641 -0.1684
10455TIP3    H152856   0.773   2.995  10.906 -1.0374 -0.8215 -1.2319
10455TIP3    H252857   0.721   3.055  11.035 -1.0934  1.0470 -2.0742
10456TIP3   OH252858   4.953   6.422  12.083 -0.2381  0.1884  0.0899
10456TIP3    H152859   4.901   6.344  12.064  0.8076 -1.4179  3.2049
10456TIP3    H252860   4.905   6.467  12.153  1.2588 -0.0252  1.3113
10457TIP3   OH252861   4.047   3.361   3.102 -0.4764 -0.1299 -0.0677
10457TIP3    H152862   3.979   3.370   3.169 -1.0460 -1.0326 -0.4947
10457TIP3    H252863   4.075   3.270   3.109  2.6536  0.8409  1.8976
10458TIP3   OH252864   5.115   4.827   2.927  0.0122  0.1051  0.1232
10458TIP3    H152865   5.150   4.895   2.868  0.3783  0.0061  0.2236
10458TIP3    H252866   5.142   4.745   2.887 -2.2866 -0.0902 -1.1932
10459TIP3   OH252867   4.797   3.657   5.215 -0.7347 -0.1548 -0.5577
10459TIP3    H152868   4.811   3.751   5.216  0.1365 -0.2713 -0.6829
10459TIP3    H252869   4.822   3.631   5.126 -1.2740 -0.4555 -0.6204
10460TIP3   OH252870   1.843   0.790   1.268 -0.0116  0.5257 -0.1442
10460TIP3    H152871   1.839   0.768   1.175 -0.3632 -2.3290  0.4474
10460TIP3    H252872   1.907   0.861   1.274 -0.2375  1.0152 -2.5706
10461TIP3   OH252873   1.448   1.668   1.671  0.1172  0.2071  0.4970
10461TIP3    H152874   1.454   1.762   1.692  1.7846 -0.4319  3.4306
10461TIP3    H252875   1.539   1.640   1.662 -0.3810 -0.8507 -2.2751
10462TIP3   OH252876   2.833   1.164   4.770  0.1495 -0.3202  0.6294
10462TIP3    H152877   2.815   1.203   4.685 -0.1304 -1.6682  0.0461
10462TIP3    H252878   2.876   1.233   4.820 -0.3757  0.7272 -0.3444
10463TIP3   OH252879   1.532   3.110  15.649  0.5124  0.2992 -0.0751
10463TIP3    H152880   1.600   3.170  15.617 -0.2432  1.3888  0.2756
10463TIP3    H252881   1.502   3.064  15.570 -0.5988  2.1879 -0.8315
10464TIP3   OH252882   5.513   0.927   1.143  0.0923 -0.3532 -0.1857
10464TIP3    H152883   5.567   0.924   1.222  0.7187 -1.1252 -0.6256
10464TIP3    H252884   5.427   0.896   1.171 -0.1422  0.8740  0.5220
10465TIP3   OH252885   3.335   6.604   0.364  0.1201 -0.2040  0.1035
10465TIP3    H152886   3.303   6.664   0.431 -2.7425 -1.0275 -0.3581
10465TIP3    H252887   3.294   6.634   0.283  0.5418 -1.3604 -0.5692
10466TIP3   OH252888   0.554   0.766   2.372  0.3751 -0.5027 -0.5462
10466TIP3    H152889   0.514   0.708   2.436 -2.4810  1.1963 -0.6323
10466TIP3    H252890   0.594   0.707   2.308  2.3228 -2.2414  2.0549
10467TIP3   OH252891   5.623   6.260  14.479 -0.0651 -0.1628 -0.0829
10467TIP3    H152892   5.594   6.352  14.478  0.6324  0.0679  0.3373
10467TIP3    H252893   5.599   6.227  14.392 -0.9565  0.2122  0.0056
10468TIP3   OH252894   0.029   5.291  11.966  0.1822 -0.0343 -0.2958
10468TIP3    H152895  -0.025   5.364  11.936 -0.0433 -0.1208 -0.1027
10468TIP3    H252896  -0.031   5.217  11.971  0.3393 -0.1539 -0.1699
10469TIP3   OH252897   3.767   4.443   1.013 -0.7896 -0.2973 -0.1848
10469TIP3    H152898   3.712   4.520   1.027 -0.3799  0.2692 -1.5196
10469TIP3    H252899   3.730   4.400   0.936 -1.2200 -1.6530  0.7439
10470TIP3   OH252900   5.424   1.280  16.691  0.1749  0.2254 -0.2469
10470TIP3    H152901   5.347   1.277  16.747  0.3932  0.2295  0.0545
10470TIP3    H252902   5.432   1.191  16.656  0.3694  0.0743  0.1790
10471TIP3   OH252903   6.414   2.592  14.665 -0.1403 -0.2282 -0.4351
10471TIP3    H152904   6.326   2.604  14.701 -0.4880  0.6433 -1.5309
10471TIP3    H252905   6.472   2.606  14.739 -0.8819  0.2474  0.0723
10472TIP3   OH252906   2.250   4.386   0.803 -0.0308  0.7335  0.1513
10472TIP3    H152907   2.159   4.361   0.795 -0.1949  1.6177 -1.2300
10472TIP3    H252908   2.258   4.421   0.892 -0.5940 -0.9297  0.8835
10473TIP3   OH252909   0.434   5.425  11.916  0.2222 -0.4493 -0.6447
10473TIP3    H152910   0.439   5.515  11.947 -0.6009 -0.3860 -0.6520
10473TIP3    H252911   0.439   5.432  11.820 -1.9057 -0.1844 -0.7919
10474TIP3   OH252912   5.800   0.036   1.548  0.5937  0.1266  0.1051
10474TIP3    H152913   5.891   0.056   1.569  0.9006 -0.3315 -0.7099
10474TIP3    H252914   5.790   0.063   1.456  0.2552 -0.9109 -0.1786
10475TIP3   OH252915   2.837   4.620   0.021  0.0475  0.7187 -0.1061
10475TIP3    H152916   2.834   4.576   0.106  0.3378 -0.1413 -0.5331
10475TIP3    H252917   2.885   4.702   0.038  2.0495 -0.4420  0.1345
10476TIP3   OH252918   4.485   0.516  12.602 -0.8607 -0.0256  0.9462
10476TIP3    H152919   4.457   0.476  12.520  0.2744  0.4312  0.3047
10476TIP3    H252920   4.404   0.530  12.651 -1.3378 -2.9105  1.1392
10477TIP3   OH252921   2.409   5.011   6.734  0.2214 -0.3328 -0.1933
10477TIP3    H152922   2.339   5.068   6.766 -1.1242 -1.6313 -0.7531
10477TIP3    H252923   2.432   5.048   6.648  1.6247  1.2351  0.7754
10478TIP3   OH252924   2.132   4.727  11.852 -0.4996 -0.0729 -0.1112
10478TIP3    H152925   2.223   4.753  11.868  0.2814 -2.1016 -0.8795
10478TIP3    H252926   2.088   4.808  11.828  0.5682  1.3415  2.3510
10479TIP3   OH252927   4.999   2.119  17.151 -0.0981  0.4331  0.7561
10479TIP3    H152928   4.991   2.139  17.058  0.9806 -0.3021  0.4946
10479TIP3    H252929   4.978   2.202  17.195  0.3583  1.0608 -0.1702
10480TIP3   OH252930   6.406   2.253  13.015 -0.0034  0.4114 -0.0754
10480TIP3    H152931   6.449   2.184  12.965  0.5322  0.1575  0.7141
10480TIP3    H252932   6.314   2.227  13.017  0.3343 -0.8220  1.0429
10481TIP3   OH252933   5.072   5.484  15.217 -0.4310 -0.1475 -0.2053
10481TIP3    H152934   4.997   5.500  15.275  1.8748 -0.2751  3.0622
10481TIP3    H252935   5.092   5.392  15.229 -2.0321 -1.2703 -4.2494
10482TIP3   OH252936   6.518   2.325   1.484  0.1998  0.2042 -0.2517
10482TIP3    H152937   6.514   2.278   1.400 -0.2415 -0.8915  0.3557
10482TIP3    H252938   6.574   2.270   1.539 -1.0263 -0.0756  0.7595
10483TIP3   OH252939   0.176   4.011  14.124  0.4481 -0.5621 -0.0551
10483TIP3    H152940   0.239   3.954  14.079  0.5708  0.1838 -0.8494
10483TIP3    H252941   0.139   4.065  14.054 -2.0650 -1.8676  0.1576
10484TIP3   OH252942   6.638   0.780   3.646  0.0671 -0.1604 -0.4339
10484TIP3    H152943   6.687   0.841   3.590  0.9509 -1.4280 -1.1169
10484TIP3    H252944   6.675   0.793   3.733  1.8876 -1.2463 -0.9701
10485TIP3   OH252945   5.636   2.203  14.353  0.3758  0.1904  0.4370
10485TIP3    H152946   5.664   2.177  14.441  0.4481 -0.8356  0.1186
10485TIP3    H252947   5.633   2.122  14.304 -2.0041  0.4037  0.1231
10486TIP3   OH252948   5.918   0.301  13.597 -0.4110  0.2981 -0.7818
10486TIP3    H152949   5.947   0.250  13.521  0.3484 -2.6094  1.2839
10486TIP3    H252950   5.998   0.330  13.639 -0.7343  0.0449  0.0299
10487TIP3   OH252951   4.350   4.662   4.105  0.3511 -0.4835  0.1468
10487TIP3    H152952   4.272   4.704   4.067  0.9687 -0.4546 -1.1479
10487TIP3    H252953   4.327   4.569   4.109 -0.4251 -0.2608  1.5283
10488TIP3   OH252954   5.274   0.907  16.639 -0.2973  0.1575  0.4006
10488TIP3    H152955   5.254   0.856  16.717  1.2183 -1.6833 -0.3211
10488TIP3    H252956   5.191   0.947  16.614 -1.0309 -0.0754  2.3265
10489TIP3   OH252957   4.814   1.784   6.457  0.8833 -0.6709  0.4563
10489TIP3    H152958   4.739   1.783   6.398  1.4692 -2.4883 -0.3476
10489TIP3    H252959   4.874   1.848   6.420  0.5637 -0.6452 -0.0171
10490TIP3   OH252960   5.681   3.245   5.243 -0.4659 -0.0542 -0.2846
10490TIP3    H152961   5.655   3.322   5.192 -0.0788  0.0291 -0.3630
10490TIP3    H252962   5.767   3.221   5.207 -0.3482 -0.2027  0.0927
10491TIP3   OH252963   2.194   2.461  16.478  0.1276 -0.4364  0.4557
10491TIP3    H152964   2.189   2.431  16.569  0.8553 -0.1145  0.6119
10491TIP3    H252965   2.181   2.556  16.483 -0.4673 -0.4943  0.1453
10492TIP3   OH252966   2.344   5.118   2.171  0.1650  0.1870 -0.7998
10492TIP3    H152967   2.405   5.071   2.228  0.2889 -0.3953 -1.4010
10492TIP3    H252968   2.298   5.178   2.229 -0.5356 -1.2088  0.1331
10493TIP3   OH252969   4.524   4.127  15.679 -0.6129  0.5398 -0.6675
10493TIP3    H152970   4.598   4.142  15.621  0.6984 -1.3628  0.3693
10493TIP3    H252971   4.449   4.163  15.633  0.7989  1.7135 -2.1789
10494TIP3   OH252972   3.073   3.418   3.606 -0.1242 -0.3817 -0.2239
10494TIP3    H152973   3.026   3.370   3.538 -0.6708 -0.4583  0.2046
10494TIP3    H252974   3.108   3.350   3.663  0.4914 -0.3243 -0.5233
10495TIP3   OH252975   5.290   2.151   5.129 -0.0854 -0.1484 -0.4933
10495TIP3    H152976   5.258   2.082   5.071 -1.5750 -0.3355  0.4921
10495TIP3    H252977   5.266   2.122   5.217  2.2285  0.0664  0.2781
10496TIP3   OH252978   5.474   1.317  13.837  0.3044 -0.3160  0.2022
10496TIP3    H152979   5.476   1.395  13.782  2.5925  0.2622  0.9747
10496TIP3    H252980   5.489   1.351  13.926  1.1058 -1.5860  0.5782
10497TIP3   OH252981   6.590   5.158   0.657  0.0032 -0.3502  0.2506
10497TIP3    H152982   6.564   5.238   0.611  0.5955 -0.4432 -0.2583
10497TIP3    H252983   6.517   5.141   0.718  0.4984  1.3668  1.4116
10498TIP3   OH252984   4.498   5.857   5.028 -0.1013 -0.3086  0.0021
10498TIP3    H152985   4.588   5.883   5.008 -0.4507  0.1330 -1.0841
10498TIP3    H252986   4.463   5.928   5.082  0.3157 -0.6685  0.7550
10499TIP3   OH252987   4.232   1.876  16.486  0.2867 -0.1334  0.3448
10499TIP3    H152988   4.304   1.877  16.549  0.0645  0.5236  0.5862
10499TIP3    H252989   4.153   1.891  16.538  0.1132  0.5216 -0.0995
10500TIP3   OH252990   4.329   1.703  12.117 -0.3005 -0.0747  0.2347
10500TIP3    H152991   4.372   1.675  12.036  0.2324  0.6418  0.2637
10500TIP3    H252992   4.243   1.733  12.089 -0.6124 -1.0585  0.1118
10501TIP3   OH252993   2.487   1.709   5.153 -0.5235 -0.3942 -0.6785
10501TIP3    H152994   2.458   1.700   5.243 -1.5963 -1.5663 -1.1247
10501TIP3    H252995   2.577   1.676   5.153  0.4546  2.0138  0.4366
10502TIP3   OH252996   4.654   3.141  11.439 -0.3290  0.1605  0.1440
10502TIP3    H152997   4.599   3.164  11.514  0.9326  1.0173  0.8498
10502TIP3    H252998   4.699   3.223  11.417  1.0246 -0.6290 -0.0926
10503TIP3   OH252999   3.101   1.857   5.778  0.0350 -0.0919 -0.2072
10503TIP3    H153000   3.175   1.810   5.739 -0.7589 -1.2160 -0.4068
10503TIP3    H253001   3.070   1.799   5.848 -0.3916  0.5621  0.1488
10504TIP3   OH253002   1.968   6.582  17.173  0.2722 -0.1617  0.5879
10504TIP3    H153003   2.000   6.492  17.170  0.1192 -0.2394  1.2720
10504TIP3    H253004   2.046   6.635  17.192  0.6289  0.0085 -1.1263
10505TIP3   OH253005   1.651   2.309   3.620 -0.6175 -0.3882 -0.2963
10505TIP3    H153006   1.581   2.357   3.663  0.6753  0.0427  1.4148
10505TIP3    H253007   1.731   2.336   3.665  0.3738 -2.8508 -0.3684
10506TIP3   OH253008   6.096   4.723   5.493  0.1964  0.3342  0.4904
10506TIP3    H153009   6.135   4.805   5.525  1.1413 -0.3493  1.1248
10506TIP3    H253010   6.168   4.660   5.495 -0.1266 -0.1625 -1.4360
10507TIP3   OH253011   4.226   5.104  16.007 -1.1067  0.4142  0.3302
10507TIP3    H153012   4.154   5.080  15.948 -1.2668  0.7692  0.3789
10507TIP3    H253013   4.268   5.179  15.965 -1.3733  0.8231  0.7879
10508TIP3   OH253014   0.233   6.734   0.547 -0.2382  0.0208 -0.0251
10508TIP3    H153015   0.188   6.718   0.464 -0.7165  1.3870 -0.0502
10508TIP3    H253016   0.263   6.647   0.575 -1.6893 -0.7311 -0.6880
10509TIP3   OH253017   1.956   0.741  13.042  0.0898  0.0731  0.0597
10509TIP3    H153018   1.968   0.793  12.963  0.6484 -1.9387 -1.2465
10509TIP3    H253019   1.866   0.710  13.037 -0.2175  0.8172  0.7933
10510TIP3   OH253020   1.183   6.069   5.868  0.6542 -0.1180 -0.6110
10510TIP3    H153021   1.212   6.160   5.870  0.6773 -0.1353  0.3723
10510TIP3    H253022   1.135   6.058   5.950  2.7346 -1.6682  0.4734
10511TIP3   OH253023   0.311   5.861   5.689  0.3485 -0.2082  0.3628
10511TIP3    H153024   0.352   5.821   5.612 -0.0255 -0.0411  0.0712
10511TIP3    H253025   0.344   5.811   5.763  1.3082  0.1108  0.1587
10512TIP3   OH253026   4.640   1.037   3.459  0.2442  0.0451  0.1159
10512TIP3    H153027   4.682   1.105   3.512  0.1439 -0.1909  0.5025
10512TIP3    H253028   4.554   1.074   3.438  0.2684  0.1233  0.1527
10513TIP3   OH253029   0.469   2.751   5.140 -0.6720  0.2721  0.4817
10513TIP3    H153030   0.437   2.692   5.071 -0.5939  0.8677 -0.0768
10513TIP3    H253031   0.513   2.693   5.202 -0.7447 -0.2812  0.0330
10514TIP3   OH253032   0.950   5.661   1.898  0.1427 -0.1332 -0.5687
10514TIP3    H153033   1.031   5.669   1.847  1.1871 -1.2412  0.8030
10514TIP3    H253034   0.883   5.703   1.845  1.6325  0.8780 -1.7320
10515TIP3   OH253035   5.506   5.138   5.642 -0.1305 -0.5860  0.0708
10515TIP3    H153036   5.526   5.157   5.550 -1.7044 -1.4791 -0.4899
10515TIP3    H253037   5.538   5.048   5.655 -0.8930 -0.8689  0.0561
10516TIP3   OH253038   2.331   0.816  11.754  0.2599  0.8812  0.5419
10516TIP3    H153039   2.403   0.872  11.785 -0.3380  1.2430  1.2932
10516TIP3    H253040   2.346   0.810  11.660  1.4528  0.7020  0.7224
10517TIP3   OH253041   5.546   5.057   2.166 -0.0685 -0.1748  0.0321
10517TIP3    H153042   5.564   5.144   2.129  1.4032 -0.5602 -0.2416
10517TIP3    H253043   5.566   5.066   2.259 -0.9200  0.0421  0.1953
10518TIP3   OH253044   1.251   5.995  14.877  0.0784 -0.5008 -0.0206
10518TIP3    H153045   1.193   6.055  14.831  0.0065 -0.0286  0.6792
10518TIP3    H253046   1.319   6.050  14.914  0.4514 -0.9432 -0.0380
10519TIP3   OH253047   0.682   4.041   5.135 -0.0959  0.2891 -0.3757
10519TIP3    H153048   0.715   3.962   5.091  0.0875  0.5345 -0.6853
10519TIP3    H253049   0.683   4.108   5.067  1.7650  1.0955  0.3887
10520TIP3   OH253050   0.622   6.223  13.976 -1.0222 -0.5570  0.1081
10520TIP3    H153051   0.568   6.174  14.037 -1.8754 -0.0310 -0.2075
10520TIP3    H253052   0.614   6.314  14.004 -1.7254 -0.2534 -0.9871
10521TIP3   OH253053   2.469   2.901  15.553  0.3446 -0.5670  0.0428
10521TIP3    H153054   2.399   2.927  15.493  2.5496  1.3559 -1.8935
10521TIP3    H253055   2.464   2.964  15.625  0.3666 -0.1103 -0.3491
10522TIP3   OH253056   3.573   3.832  16.825  0.2380  0.2780 -0.4705
10522TIP3    H153057   3.555   3.923  16.850  1.9143  0.4122  0.3882
10522TIP3    H253058   3.627   3.839  16.746 -0.6839 -0.0217 -1.1427
10523TIP3   OH253059   1.203   3.862   2.138 -0.8121  0.1922 -0.2737
10523TIP3    H153060   1.203   3.918   2.216  0.6799  1.4955 -1.1598
10523TIP3    H253061   1.116   3.820   2.139 -0.9710  0.4553  1.8535
10524TIP3   OH253062   4.937   2.443   5.927  0.5901 -0.0670 -0.2337
10524TIP3    H153063   4.867   2.490   5.971  0.9533  1.0996 -0.8624
10524TIP3    H253064   4.982   2.396   5.997  0.3357  0.6734  0.4454
10525TIP3   OH253065   0.938   2.986   2.222  0.0694  0.2105 -0.3100
10525TIP3    H153066   0.853   2.955   2.190 -1.2462  0.0899  2.8477
10525TIP3    H253067   0.920   3.075   2.253  0.9275  0.0098  0.8370
10526TIP3   OH253068   2.404   5.779  14.790  0.2912 -0.0370  0.4826
10526TIP3    H153069   2.470   5.717  14.757  1.6044  1.3826  0.3059
10526TIP3    H253070   2.455   5.857  14.813 -1.2852  0.9105  0.8724
10527TIP3   OH253071   0.694   5.487   1.491  0.0276 -0.4195 -0.3795
10527TIP3    H153072   0.668   5.460   1.403 -1.6829 -1.5992  0.4404
10527TIP3    H253073   0.730   5.408   1.530 -1.2237 -0.4949  0.6776
10528TIP3   OH253074   6.678   0.152  12.173  0.5363 -0.2169 -0.1660
10528TIP3    H153075   6.635   0.068  12.187  0.2113  0.2247  1.8419
10528TIP3    H253076   6.772   0.132  12.176  0.5206 -0.8195 -2.1512
10529TIP3   OH253077   3.555   2.675  16.090 -0.1084  0.1806 -0.4246
10529TIP3    H153078   3.566   2.744  16.025 -0.4546 -1.2147 -2.0368
10529TIP3    H253079   3.570   2.594  16.041  1.4404 -0.8665  1.6554
10530TIP3   OH253080   1.465   3.358  13.786  0.2653 -0.0679  0.2708
10530TIP3    H153081   1.405   3.432  13.778  1.1802  0.6601  0.0083
10530TIP3    H253082   1.436   3.296  13.718  0.5135  0.7857 -0.6291
10531TIP3   OH253083   4.638   0.516   3.521 -0.1470  0.1427 -0.2141
10531TIP3    H153084   4.652   0.529   3.428 -0.0312 -0.8021 -0.3374
10531TIP3    H253085   4.592   0.432   3.527 -0.5082  0.3833  0.5516
10532TIP3   OH253086   0.718   3.662   3.065 -0.0582 -0.3624  0.4936
10532TIP3    H153087   0.697   3.755   3.058 -0.4369 -0.4440  0.5369
10532TIP3    H253088   0.634   3.618   3.059  0.3287 -0.8748 -2.3808
10533TIP3   OH253089   1.430   1.962   3.758 -0.1499  0.1452 -0.4553
10533TIP3    H153090   1.372   1.920   3.694 -0.7408 -0.6798  0.5785
10533TIP3    H253091   1.370   2.003   3.821  0.3019 -1.6319  1.2356
10534TIP3   OH253092   3.337   5.208   2.426 -0.5730 -0.5020 -0.5216
10534TIP3    H153093   3.367   5.246   2.509 -1.2694  1.7520 -1.2325
10534TIP3    H253094   3.247   5.240   2.416 -0.6913 -1.1852 -1.9052
10535TIP3   OH253095   1.691   3.771  15.423 -0.1211 -0.4226  0.0117
10535TIP3    H153096   1.727   3.859  15.413 -0.4652 -0.2529  0.2569
10535TIP3    H253097   1.596   3.783  15.417 -0.1681 -0.7886 -0.0331
10536TIP3   OH253098   5.624   5.131   3.297  0.1690 -0.3544 -0.1148
10536TIP3    H153099   5.588   5.110   3.384 -2.0969 -2.3601 -1.4109
10536TIP3    H253100   5.694   5.066   3.284  1.1059  0.5052  0.5189
10537TIP3   OH253101   0.073   1.222  12.099  0.2495  0.0200 -0.1986
10537TIP3    H153102   0.133   1.281  12.053 -1.0568  0.8692 -0.8604
10537TIP3    H253103  -0.014   1.246  12.066 -0.5659 -0.4629  1.5172
10538TIP3   OH253104   2.550   6.164   3.995  0.2753  0.6078  0.1080
10538TIP3    H153105   2.508   6.217   4.063  1.3023  1.6598 -0.0464
10538TIP3    H253106   2.628   6.214   3.971  0.6630 -0.4357 -0.8610
10539TIP3   OH253107   3.278   0.178  16.350 -0.1928 -0.1476  0.3436
10539TIP3    H153108   3.186   0.167  16.375  0.0086 -1.0316  0.7379
10539TIP3    H253109   3.274   0.220  16.264 -0.9244  1.4313  1.1016
10540TIP3   OH253110   3.727   3.038  17.026  0.0430 -0.2669 -0.8456
10540TIP3    H153111   3.683   3.117  17.058  0.2375 -0.8574  1.0215
10540TIP3    H253112   3.811   3.038  17.071 -0.3584 -2.0378 -0.0101
10541TIP3   OH253113   1.171   4.803   5.310  0.8434  0.7654  0.0306
10541TIP3    H153114   1.219   4.829   5.388  0.7301  1.2882 -0.0730
10541TIP3    H253115   1.087   4.848   5.316  0.4930  0.1204  0.0411
10542TIP3   OH253116   5.896   2.688  17.024 -0.0227 -0.1084 -0.2608
10542TIP3    H153117   5.935   2.625  17.084 -0.0350 -0.1622 -0.3103
10542TIP3    H253118   5.847   2.635  16.961  2.2517 -0.2636 -2.0220
10543TIP3   OH253119   3.846   0.105   2.745 -0.1360  0.2865 -0.0171
10543TIP3    H153120   3.773   0.048   2.767 -1.7627  1.9014 -0.9608
10543TIP3    H253121   3.922   0.065   2.788 -1.6525 -1.1239  1.4769
10544TIP3   OH253122   5.057   4.489   2.228 -0.7430  0.1226  0.0301
10544TIP3    H153123   5.072   4.395   2.229  2.6225  0.5418  0.3346
10544TIP3    H253124   5.072   4.517   2.318 -0.5039  1.0637 -0.2819
10545TIP3   OH253125   1.664   1.122   6.491 -0.4438 -0.0053 -0.3382
10545TIP3    H153126   1.581   1.121   6.443  0.2005 -0.2133 -1.5029
10545TIP3    H253127   1.697   1.032   6.484 -0.5490 -0.1467  0.8978
10546TIP3   OH253128   5.101   3.573  12.135  0.3421  0.2168 -0.0716
10546TIP3    H153129   5.194   3.595  12.141  0.6562 -0.5525 -1.6210
10546TIP3    H253130   5.100   3.480  12.112 -0.8982 -0.9051  3.7598
10547TIP3   OH253131   5.019   0.448  13.758  0.1385 -0.3456  0.4570
10547TIP3    H153132   4.930   0.466  13.790 -0.6490 -3.2000  0.1495
10547TIP3    H253133   5.037   0.519  13.696 -0.7129  1.9105  2.6165
10548TIP3   OH253134   5.892   4.902   0.670  0.1683 -0.0456  0.2115
10548TIP3    H153135   5.885   4.939   0.758  0.0090 -0.8680  0.5569
10548TIP3    H253136   5.982   4.868   0.666 -0.2231 -1.1954  0.5612
10549TIP3   OH253137   6.376   2.136   3.797  0.5614  0.0878 -0.4336
10549TIP3    H153138   6.468   2.111   3.804  0.7623  0.9517  0.2299
10549TIP3    H253139   6.334   2.063   3.751  1.6075 -0.2331 -0.9010
10550TIP3   OH253140   5.613   3.173  14.253 -0.1963 -0.4990  0.7119
10550TIP3    H153141   5.519   3.159  14.258 -0.4709  1.2495  1.2186
10550TIP3    H253142   5.624   3.268  14.261  1.7120 -0.7902  2.5005
10551TIP3   OH253143   4.872   3.742  11.483 -0.4476 -0.3573 -0.0195
10551TIP3    H153144   4.834   3.741  11.571 -0.8123 -0.5601 -0.1731
10551TIP3    H253145   4.902   3.652  11.469  0.5153 -0.0881  0.2752
10552TIP3   OH253146   4.457   6.444  14.157 -0.3818  0.0565  0.3230
10552TIP3    H153147   4.450   6.531  14.118 -0.6666 -1.8560 -4.5313
10552TIP3    H253148   4.375   6.400  14.133  0.9914 -2.4599 -0.1227
10553TIP3   OH253149   4.799   4.560  12.177  0.1632  0.3029  0.0525
10553TIP3    H153150   4.869   4.519  12.229 -1.7027 -1.6328  1.1915
10553TIP3    H253151   4.821   4.538  12.087  1.2959  0.1685  0.3413
10554TIP3   OH253152   6.725   1.337   3.401  1.1094 -0.3167  0.0787
10554TIP3    H153153   6.709   1.417   3.450  0.1911  0.6975 -1.7850
10554TIP3    H253154   6.727   1.268   3.468  0.4583  1.0449  1.5673
10555TIP3   OH253155   2.302   6.109  14.247  0.0336 -0.0320 -0.0640
10555TIP3    H153156   2.303   6.023  14.289 -0.7270 -0.5232 -1.0066
10555TIP3    H253157   2.318   6.171  14.318  1.1499 -0.9847  0.5321
10556TIP3   OH253158   2.184   2.039   2.039  0.3068  0.4514 -0.4166
10556TIP3    H153159   2.219   2.009   1.955 -0.5564  0.5965 -0.8526
10556TIP3    H253160   2.213   2.130   2.046 -0.6417  0.8323 -1.1730
10557TIP3   OH253161   4.641   5.733  15.977  0.3423 -0.0373  0.5706
10557TIP3    H153162   4.573   5.690  16.029  0.1636 -1.7739 -1.0110
10557TIP3    H253163   4.723   5.705  16.017  0.2310 -1.9272 -0.4096
10558TIP3   OH253164   3.579   4.845   1.809 -0.0958 -0.2795 -0.5043
10558TIP3    H153165   3.519   4.780   1.772  0.7838 -1.6773  0.4614
10558TIP3    H253166   3.527   4.926   1.811 -1.6949 -1.2624 -0.3877
10559TIP3   OH253167   4.477   1.226  12.311  0.0582  0.0153  0.6968
10559TIP3    H153168   4.529   1.211  12.390  0.8920 -0.9227  0.0084
10559TIP3    H253169   4.403   1.279  12.340  0.3830 -0.2493  2.0893
10560TIP3   OH253170   4.121   0.178   2.678 -0.1097 -0.3487 -0.0426
10560TIP3    H153171   4.191   0.236   2.706  0.3752 -0.4330 -1.0524
10560TIP3    H253172   4.159   0.090   2.684 -0.2081 -0.4129 -0.3460
10561TIP3   OH253173   3.158   1.917   0.538 -0.1542  0.1861 -0.2494
10561TIP3    H153174   3.120   1.923   0.625 -2.4880  0.6387 -1.2311
10561TIP3    H253175   3.158   2.008   0.505  1.6066  0.1682 -0.3929
10562TIP3   OH253176   0.486   5.047   3.059 -0.1336 -0.1827 -0.2215
10562TIP3    H153177   0.392   5.035   3.043 -0.6008  1.9656  0.6173
10562TIP3    H253178   0.491   5.083   3.147  1.5893 -1.1910  0.1444
10563TIP3   OH253179   6.045   3.798  13.695  0.2200 -0.4227 -0.0894
10563TIP3    H153180   6.102   3.748  13.754  1.5486 -1.2598 -1.9667
10563TIP3    H253181   5.992   3.731  13.652 -0.5270  0.1428 -0.0577
10564TIP3   OH253182   5.015   1.457  10.984 -0.1200 -0.4381 -0.1233
10564TIP3    H153183   4.928   1.458  11.024 -0.6120 -0.0149 -1.1685
10564TIP3    H253184   5.044   1.366  10.992 -0.7329 -0.6247  0.0674
10565TIP3   OH253185   1.853   6.458   4.456  0.2932  0.1533 -0.4765
10565TIP3    H153186   1.788   6.524   4.480  2.4306  3.1732 -2.3642
10565TIP3    H253187   1.914   6.457   4.529 -0.2312 -0.4809 -0.0338
10566TIP3   OH253188   0.556   0.908  10.708  0.0727  0.1398 -0.3079
10566TIP3    H153189   0.477   0.888  10.760  0.0962 -0.3555 -0.4630
10566TIP3    H253190   0.532   0.886  10.618  0.7957 -1.2122 -0.1913
10567TIP3   OH253191   5.671   4.858  14.418 -0.3478  0.0429 -0.5224
10567TIP3    H153192   5.764   4.858  14.397 -0.5453  1.0794 -1.5047
10567TIP3    H253193   5.663   4.920  14.491 -0.1208 -1.0364  0.4641
10568TIP3   OH253194   1.875   1.923   5.472  0.5248 -0.1963  0.5304
10568TIP3    H153195   1.829   1.968   5.542 -0.4244 -0.7806  0.3073
10568TIP3    H253196   1.967   1.936   5.491  0.2743  0.1407  1.5676
10569TIP3   OH253197   2.055   6.762  14.818  0.4561 -0.1976 -0.7290
10569TIP3    H153198   2.043   6.790  14.728 -0.8793 -2.1233 -1.1945
10569TIP3    H253199   1.969   6.734  14.848 -0.0170  3.6692  2.4310
10570TIP3   OH253200   5.481   2.633  12.057  0.0180 -0.1004 -0.3980
10570TIP3    H153201   5.525   2.601  12.136 -2.1858 -1.5124  0.3438
10570TIP3    H253202   5.530   2.711  12.032  0.7494  0.4369  2.4115
10571TIP3   OH253203   2.439   0.344  16.906 -0.1382  0.0109  0.1082
10571TIP3    H153204   2.453   0.397  16.828 -0.7559 -0.5695 -0.4135
10571TIP3    H253205   2.376   0.277  16.878 -2.8624  1.6149  1.8947
10572TIP3   OH253206   1.439   6.509  11.011 -0.0461  0.6293 -0.4912
10572TIP3    H153207   1.375   6.569  10.973  0.0771  0.1692 -1.4528
10572TIP3    H253208   1.403   6.422  10.994  0.9459  0.3517 -1.2959
10573TIP3   OH253209   4.626   5.531   1.724 -0.4605  0.2384 -0.1569
10573TIP3    H153210   4.581   5.471   1.783  1.0688  0.0039  0.8379
10573TIP3    H253211   4.656   5.602   1.781  0.4096  0.3787 -0.7638
10574TIP3   OH253212   5.478   2.691   5.577 -0.2842  0.0877  0.0515
10574TIP3    H153213   5.430   2.693   5.660 -0.2995 -0.9892  0.0797
10574TIP3    H253214   5.500   2.783   5.561 -0.4006  0.3359  1.1725
10575TIP3   OH253215   2.123   3.602   3.696 -0.0882  0.1345 -0.0555
10575TIP3    H153216   2.116   3.536   3.765 -2.2461 -0.2775 -0.5739
10575TIP3    H253217   2.122   3.551   3.615 -1.8280  0.7496 -0.4643
10576TIP3   OH253218   5.637   2.335  11.400 -0.5308  0.2192 -0.4803
10576TIP3    H153219   5.626   2.415  11.453 -0.4738  0.2875 -0.5715
10576TIP3    H253220   5.613   2.362  11.311  0.8293  0.4882 -0.7822
10577TIP3   OH253221   4.900   3.932   5.203 -0.5020 -0.5462  0.4949
10577TIP3    H153222   4.889   4.004   5.265  0.5207 -0.0931  0.1763
10577TIP3    H253223   4.902   3.974   5.117  0.3765 -0.9065  0.3245
10578TIP3   OH253224   2.220   2.078  14.745 -0.8678  0.2332 -0.4262
10578TIP3    H153225   2.174   2.145  14.797  0.0093  1.6122 -1.3507
10578TIP3    H253226   2.298   2.123  14.712  0.4784 -1.6572  0.0199
10579TIP3   OH253227   2.969   5.188  16.894  0.2213  0.0223  0.4549
10579TIP3    H153228   2.988   5.220  16.982  3.0476 -0.7559  0.2479
10579TIP3    H253229   2.976   5.265  16.838  1.7832  0.0145  0.5782
10580TIP3   OH253230   3.843   2.480   3.545 -0.1761 -0.4905  0.2852
10580TIP3    H153231   3.857   2.387   3.563 -1.5341 -0.6784  0.4819
10580TIP3    H253232   3.865   2.524   3.627 -2.9818 -1.0185  1.4407
10581TIP3   OH253233   3.263   1.053   3.896 -0.1098  0.1667  0.2825
10581TIP3    H153234   3.222   1.103   3.967 -2.1114 -2.4019  1.0792
10581TIP3    H253235   3.243   1.103   3.817  2.3551  3.2171  1.3811
10582TIP3   OH253236   5.889   0.548   0.380 -0.5122 -0.1645 -0.5934
10582TIP3    H153237   5.843   0.538   0.463 -0.4464 -2.5950 -0.7828
10582TIP3    H253238   5.845   0.487   0.320 -0.4014  1.3333 -2.3018
10583TIP3   OH253239   4.287   1.237  15.914 -0.0886  0.1661 -0.4488
10583TIP3    H153240   4.221   1.201  15.855 -1.6407  0.0334  1.2934
10583TIP3    H253241   4.362   1.177  15.905 -2.0909 -2.8724  1.3656
10584TIP3   OH253242   1.578   0.930  12.819  0.3309 -0.0342 -0.3141
10584TIP3    H153243   1.539   1.010  12.785 -0.7751 -0.4612 -0.0985
10584TIP3    H253244   1.565   0.865  12.751 -0.3467 -0.4599  0.2101
10585TIP3   OH253245   6.811   3.358  16.871 -0.1230  0.0200  0.6377
10585TIP3    H153246   6.771   3.441  16.896  0.7978  0.1715  1.7137
10585TIP3    H253247   6.890   3.383  16.823 -1.0068 -0.2703 -1.0329
10586TIP3   OH253248   0.182   5.774  12.404 -0.3684 -0.0055 -0.2699
10586TIP3    H153249   0.195   5.715  12.478 -2.1566  1.1266  1.0220
10586TIP3    H253250   0.257   5.758  12.347  0.7729 -1.3137  1.5039
10587TIP3   OH253251   5.084   2.260   4.030  0.0795  0.0303 -0.4094
10587TIP3    H153252   5.120   2.349   4.027  0.3570  0.0275  1.8449
10587TIP3    H253253   4.991   2.273   4.047  0.2721 -0.1001  0.8257
10588TIP3   OH253254   1.520   6.764   4.018  0.4534 -0.0852 -0.3228
10588TIP3    H153255   1.594   6.823   4.036  0.8770 -0.1742 -1.6183
10588TIP3    H253256   1.442   6.818   4.033  0.7959  0.2359  0.3440
10589TIP3   OH253257   4.508   0.761  14.230 -0.3436 -0.2541 -0.4749
10589TIP3    H153258   4.489   0.730  14.318 -3.8992  1.7258 -0.3928
10589TIP3    H253259   4.552   0.845  14.243 -2.3029  0.8148 -0.4924
10590TIP3   OH253260   2.455   5.700   4.843  0.1372  0.2504 -0.2925
10590TIP3    H153261   2.367   5.716   4.875  0.3712 -1.4857  1.4436
10590TIP3    H253262   2.443   5.652   4.762 -0.4827  1.1859 -0.7768
10591TIP3   OH253263   2.348   4.897   4.549 -0.1308 -0.5905  0.4857
10591TIP3    H153264   2.256   4.870   4.551  0.1427 -1.7141 -0.5701
10591TIP3    H253265   2.372   4.893   4.456  1.0875 -0.6662  0.7880
10592TIP3   OH253266   6.046   1.325  17.196 -0.0633 -0.1219  0.1112
10592TIP3    H153267   6.085   1.307  17.282 -1.0800  0.1786  0.6462
10592TIP3    H253268   5.952   1.327  17.212 -0.2483  0.2760 -0.9525
10593TIP3   OH253269   4.580   2.147   2.405  0.3542 -0.5477 -0.4350
10593TIP3    H153270   4.485   2.157   2.403  0.1266 -1.9007  0.9560
10593TIP3    H253271   4.602   2.142   2.499  2.1182  2.1087 -0.5956
10594TIP3   OH253272   6.233   2.532  12.695  0.2046  0.6733  0.2014
10594TIP3    H153273   6.267   2.484  12.620  0.4360  2.2040 -0.7001
10594TIP3    H253274   6.309   2.574  12.734 -0.0367  0.5606  0.8125
10595TIP3   OH253275   5.108   4.477   2.504 -0.8065  0.5473 -0.1805
10595TIP3    H153276   5.049   4.403   2.519 -1.5145  1.0233 -0.5035
10595TIP3    H253277   5.081   4.542   2.569 -0.1565  0.5024  0.1361
10596TIP3   OH253278   1.179   4.831   3.673  0.2891 -0.0594  0.0573
10596TIP3    H153279   1.154   4.843   3.582 -1.5150 -1.4928  0.2819
10596TIP3    H253280   1.273   4.815   3.671  0.2717 -0.0684 -1.5511
10597TIP3   OH253281   5.545   1.854  14.853 -0.1359 -0.0512 -0.2468
10597TIP3    H153282   5.563   1.768  14.817 -0.5560 -0.3072  0.1350
10597TIP3    H253283   5.462   1.843  14.900 -1.1397  0.9859 -1.6750
10598TIP3   OH253284   3.462   1.842  16.856  0.6869 -0.8015 -0.4278
10598TIP3    H153285   3.500   1.791  16.784 -0.4474  0.5240 -2.0315
10598TIP3    H253286   3.399   1.900  16.814  0.5779  0.6121  1.5583
10599TIP3   OH253287   2.965   1.932  11.093 -0.6220  0.0332  0.1730
10599TIP3    H153288   2.974   1.975  11.008  1.9264 -4.2593 -2.0918
10599TIP3    H253289   3.021   1.982  11.151 -0.9220  1.9890 -1.1010
10600TIP3   OH253290   0.974   2.944  16.575  0.4528  0.1766  0.3171
10600TIP3    H153291   1.002   2.937  16.667  1.4438 -0.0476  0.0156
10600TIP3    H253292   0.918   2.868  16.561  2.2684 -1.1953  0.1011
10601TIP3   OH253293   4.963   4.937   0.024  0.3125 -0.4075  0.2630
10601TIP3    H153294   5.047   4.920  -0.018 -0.8159 -1.8773 -1.5734
10601TIP3    H253295   4.953   5.032   0.020  1.2128 -0.3277 -0.8750
10602TIP3   OH253296   6.731   5.729  13.702  0.1080  0.1188  0.3231
10602TIP3    H153297   6.762   5.778  13.626 -1.8487  1.1951  0.1460
10602TIP3    H253298   6.675   5.661  13.666 -0.6005  0.4572  0.7563
10603TIP3   OH253299   2.790   0.081   4.722  0.7839  0.9438 -0.2221
10603TIP3    H153300   2.729   0.045   4.786  0.2713  2.3321  0.1164
10603TIP3    H253301   2.735   0.102   4.646  1.1394  0.6321 -0.5679
10604TIP3   OH253302   0.270   3.934  11.366 -0.1165 -0.2736  0.2169
10604TIP3    H153303   0.196   3.951  11.308  0.8501  0.6002 -0.8219
10604TIP3    H253304   0.230   3.911  11.450 -1.5541  0.1731 -0.3095
10605TIP3   OH253305   4.949   5.344   1.368 -0.7593  0.3761  0.3356
10605TIP3    H153306   4.930   5.398   1.444 -0.1672 -0.0654  0.8046
10605TIP3    H253307   4.881   5.366   1.305 -0.2655  2.0140  0.3289
10606TIP3   OH253308   5.622   0.991   2.137 -0.2955 -0.3305  0.2449
10606TIP3    H153309   5.698   0.950   2.096 -1.5125  0.0715 -2.6989
10606TIP3    H253310   5.655   1.028   2.219  2.0267 -2.4355  0.3700
10607TIP3   OH253311   3.913   6.771   5.476 -0.1857 -0.0391 -0.5174
10607TIP3    H153312   3.980   6.755   5.410  0.4626 -0.3761  0.2016
10607TIP3    H253313   3.948   6.842   5.529  0.5452 -1.5196  1.0710
10608TIP3   OH253314   1.267   3.208   6.532  0.7446  0.0910  0.9764
10608TIP3    H153315   1.190   3.258   6.504  0.5761  0.5636  2.1978
10608TIP3    H253316   1.318   3.195   6.452 -0.1733  0.5250  0.2966
10609TIP3   OH253317   1.963   2.021  12.279 -0.0140 -0.0496 -0.3617
10609TIP3    H153318   1.896   1.975  12.228  0.5927  0.9395 -2.1309
10609TIP3    H253319   1.937   2.008  12.370 -1.6748 -1.0907 -0.9453
10610TIP3   OH253320   5.723   0.524  16.290 -0.0677  0.6031 -0.0514
10610TIP3    H153321   5.786   0.552  16.223 -0.8663  0.0954 -1.0434
10610TIP3    H253322   5.729   0.429  16.290 -0.9241  0.5397 -0.2668
10611TIP3   OH253323   6.323   6.167  16.163  0.0465  0.7144  0.3769
10611TIP3    H153324   6.322   6.137  16.072 -1.6072  0.8187  0.3327
10611TIP3    H253325   6.325   6.262  16.157  1.3668  0.7051  0.4794
10612TIP3   OH253326   6.042   2.349   4.612 -0.6760 -0.1679 -0.7122
10612TIP3    H153327   6.052   2.255   4.620 -1.2406 -0.3652 -2.1509
10612TIP3    H253328   5.982   2.373   4.683  0.3846 -0.6943  0.3900
10613TIP3   OH253329   4.472   1.237   4.908  0.1989 -0.5794  0.5496
10613TIP3    H153330   4.393   1.185   4.921  1.2245 -2.5663 -0.6380
10613TIP3    H253331   4.470   1.262   4.816 -0.3252  1.6922  1.1123
10614TIP3   OH253332   5.836   6.650  12.499  0.4472 -1.0695  0.6692
10614TIP3    H153333   5.884   6.652  12.582 -0.0252  0.2232  0.9417
10614TIP3    H253334   5.904   6.664  12.433  0.7348 -1.3831  0.8963
10615TIP3   OH253335   6.539   3.377   2.575  0.3495 -0.7164  0.1759
10615TIP3    H153336   6.627   3.343   2.560  0.1838 -0.8981 -0.3896
10615TIP3    H253337   6.548   3.433   2.652  1.9380  2.8118 -2.3091
10616TIP3   OH253338   0.970   5.133  16.096  0.3613  0.1063 -0.5628
10616TIP3    H153339   1.031   5.182  16.041  0.0081  2.4960  1.0170
10616TIP3    H253340   1.006   5.140  16.184 -0.5711 -1.1335 -0.0505
10617TIP3   OH253341   6.304   6.152  15.399  0.1221 -0.0812 -0.2134
10617TIP3    H153342   6.310   6.190  15.311 -3.5357  2.8708  0.5379
10617TIP3    H253343   6.345   6.216  15.456  0.3876 -0.8335  0.4587
10618TIP3   OH253344   4.700   5.686   3.708  0.0282  1.1961  0.0562
10618TIP3    H153345   4.757   5.737   3.650 -1.2628  0.5739 -1.8761
10618TIP3    H253346   4.622   5.741   3.718 -0.3286  0.6905  0.0426
10619TIP3   OH253347   0.983   2.725   2.185 -0.5502  0.2251  0.3745
10619TIP3    H153348   0.893   2.701   2.162 -0.6670  1.6283 -0.7600
10619TIP3    H253349   0.979   2.818   2.205  0.3203 -0.0914  2.2953
10620TIP3   OH253350   2.041   3.157  14.718  0.5099 -0.0419  0.0040
10620TIP3    H153351   2.115   3.153  14.657 -0.2922  0.8827 -1.0401
10620TIP3    H253352   2.059   3.234  14.772  0.7551 -0.3414  0.3605
10621TIP3   OH253353   3.272   1.090   3.157  0.3596 -0.2494  0.2203
10621TIP3    H153354   3.362   1.089   3.123 -0.3531  0.5218 -1.8387
10621TIP3    H253355   3.253   0.998   3.174  0.6835 -0.7507 -1.8495
10622TIP3   OH253356   6.005   5.493   5.323  0.6064  0.1874  0.1989
10622TIP3    H153357   5.971   5.519   5.237  1.5984 -1.9744 -0.9368
10622TIP3    H253358   6.097   5.520   5.321  0.5726  0.3333  0.6707
10623TIP3   OH253359   2.828   2.811  14.664  0.1229  0.4215  1.1023
10623TIP3    H153360   2.802   2.770  14.747  1.6996  0.3789  1.5920
10623TIP3    H253361   2.903   2.759  14.634  0.6327  1.4855  0.4989
10624TIP3   OH253362   6.491   2.712  13.967  0.3739  0.2888  0.8132
10624TIP3    H153363   6.443   2.783  14.009  0.3578  0.4422  0.5418
10624TIP3    H253364   6.506   2.648  14.036 -1.0078 -0.1684  0.7152
10625TIP3   OH253365   4.544   5.157   3.472 -0.3001  0.6148  0.3823
10625TIP3    H153366   4.630   5.199   3.475  0.0923 -0.1309 -0.1419
10625TIP3    H253367   4.560   5.068   3.502 -0.6866  0.1715 -0.6571
10626TIP3   OH253368   2.642   0.370  11.523  0.1495 -0.1971 -0.2870
10626TIP3    H153369   2.613   0.322  11.601 -0.4469 -1.7618 -1.4177
10626TIP3    H253370   2.734   0.388  11.539 -0.1132  0.1034  1.0559
10627TIP3   OH253371   2.165   2.429  11.037 -0.0621  0.3801 -0.4451
10627TIP3    H153372   2.110   2.352  11.054 -1.8600  1.5014 -0.9301
10627TIP3    H253373   2.191   2.420  10.946  2.1148 -1.0507  0.2467
10628TIP3   OH253374   4.239   2.222  11.689  0.1037  0.5531 -0.1318
10628TIP3    H153375   4.223   2.141  11.738 -0.3568  0.2378 -0.7822
10628TIP3    H253376   4.152   2.261  11.678  0.4871  2.0916  1.7292
10629TIP3   OH253377   4.322   4.326  12.781 -0.0889  0.3154  0.1633
10629TIP3    H153378   4.258   4.393  12.803 -1.2281 -0.4745 -0.6363
10629TIP3    H253379   4.382   4.368  12.720  0.1841  1.0575  0.9185
10630TIP3   OH253380   5.501   2.233   4.611 -0.0799  0.1475 -0.2157
10630TIP3    H153381   5.593   2.212   4.597  0.2067  0.0595  1.5871
10630TIP3    H253382   5.496   2.328   4.608  0.0633  0.1473 -0.4073
10631TIP3   OH253383   6.322   2.714   2.880  0.0858 -0.0140 -0.0357
10631TIP3    H153384   6.340   2.624   2.851  0.4307  0.2863 -0.7914
10631TIP3    H253385   6.407   2.747   2.908  0.0363  0.2203 -0.1638
10632TIP3   OH253386   2.237   1.435   2.496 -0.2885  0.0630  0.1594
10632TIP3    H153387   2.191   1.486   2.429 -2.9324 -0.5404  1.3640
10632TIP3    H253388   2.280   1.501   2.551 -0.6070  0.7459 -0.3941
10633TIP3   OH253389   4.558   1.812   1.194 -0.2541 -0.3549  0.7772
10633TIP3    H153390   4.502   1.788   1.268 -2.0999  0.1058 -0.4193
10633TIP3    H253391   4.547   1.741   1.131  0.4311 -0.1995  0.4756
10634TIP3   OH253392   6.488   0.714  13.581 -0.5828  0.8484  0.3507
10634TIP3    H153393   6.520   0.624  13.572 -0.1623  0.9973  0.3358
10634TIP3    H253394   6.396   0.704  13.604 -0.6329  0.4159 -0.0156
10635TIP3   OH253395   5.155   0.934   5.334  0.1247 -0.1533  0.0553
10635TIP3    H153396   5.244   0.916   5.304 -0.2697 -0.1393 -1.1871
10635TIP3    H253397   5.103   0.939   5.254 -0.3207  3.8984  0.4044
10636TIP3   OH253398   2.538   1.231   3.005  0.3412  0.0511  0.0300
10636TIP3    H153399   2.474   1.197   3.068 -1.0455  0.0537 -1.3310
10636TIP3    H253400   2.622   1.197   3.036 -0.6529 -2.3910  0.2494
10637TIP3   OH253401   1.716   3.428  11.794 -0.2490  0.0908  0.2883
10637TIP3    H153402   1.680   3.340  11.782  0.3381 -0.0087 -0.8924
10637TIP3    H253403   1.769   3.443  11.716  1.3329  0.6949  1.4439
10638TIP3   OH253404   1.213   0.573  13.024 -0.0437 -0.1239 -0.5679
10638TIP3    H153405   1.194   0.584  12.931  1.2762  0.4452 -0.7938
10638TIP3    H253406   1.273   0.498  13.028  2.1855  1.5574 -0.5271
10639TIP3   OH253407   0.113   6.778  16.694  0.3018 -0.4580 -0.2807
10639TIP3    H153408   0.201   6.775  16.655  0.8481 -0.3462  0.9073
10639TIP3    H253409   0.055   6.790  16.619  1.2311 -1.2515 -1.1669
10640TIP3   OH253410   4.596   4.604   0.674 -0.2328 -0.2714  0.6983
10640TIP3    H153411   4.590   4.688   0.721 -0.1421  0.3714 -0.4118
10640TIP3    H253412   4.682   4.606   0.633 -0.7841 -0.2622 -0.5041
10641TIP3   OH253413   3.245   3.879   0.210 -0.2871  0.1282 -0.5271
10641TIP3    H153414   3.168   3.826   0.233 -0.2682  0.7708  1.1429
10641TIP3    H253415   3.243   3.952   0.271  4.2036 -2.1762  3.0903
10642TIP3   OH253416   1.702   2.219  12.119  0.3736 -0.1086 -0.7009
10642TIP3    H153417   1.785   2.262  12.142 -0.0968  0.7772 -0.6419
10642TIP3    H253418   1.634   2.278  12.152 -0.2901 -0.5241 -1.2966
10643TIP3   OH253419   6.536   4.100   6.310  0.7293 -0.2626 -0.2209
10643TIP3    H153420   6.444   4.073   6.303  0.4550  0.9303 -1.7165
10643TIP3    H253421   6.541   4.147   6.394  0.0468 -0.5676 -0.0007
10644TIP3   OH253422   2.121   3.064   1.844 -0.8503  0.1140  0.3748
10644TIP3    H153423   2.075   3.126   1.901 -1.2312 -0.9926  1.3215
10644TIP3    H253424   2.066   3.058   1.766 -3.2067 -2.1770  1.9949
10645TIP3   OH253425   0.068   4.255  12.859 -0.1342 -0.6829 -0.0261
10645TIP3    H153426   0.065   4.160  12.874  0.8343 -0.8302 -0.6877
10645TIP3    H253427   0.134   4.286  12.920  2.4376 -1.0185 -2.4462
10646TIP3   OH253428   1.714   0.308  12.563  0.2769  0.0719  0.2844
10646TIP3    H153429   1.783   0.248  12.594  1.3171  1.7091  1.2817
10646TIP3    H253430   1.646   0.303  12.630 -0.8143 -1.8001 -0.8668
10647TIP3   OH253431   3.674   3.129  11.485 -0.4103 -0.4868 -0.0838
10647TIP3    H153432   3.735   3.164  11.420 -0.4760  2.1035  1.1332
10647TIP3    H253433   3.592   3.175  11.468 -0.0859  1.2528  2.5360
10648TIP3   OH253434   4.556   5.053  16.456  0.3063  0.3649  0.0872
10648TIP3    H153435   4.538   5.020  16.544  1.7050  1.4813  0.8306
10648TIP3    H253436   4.612   5.129  16.469  0.4197  0.6645 -1.7722
10649TIP3   OH253437   0.073   5.356  11.284  0.7877 -0.2142  0.2757
10649TIP3    H153438   0.104   5.439  11.319 -0.1692 -0.1746  1.0797
10649TIP3    H253439  -0.012   5.377  11.245  0.9522 -0.6409 -0.3180
10650TIP3   OH253440   0.885   4.181  14.715  0.4090  0.6071  0.1444
10650TIP3    H153441   0.864   4.231  14.795 -1.7521 -0.5904  0.4212
10650TIP3    H253442   0.924   4.245  14.656 -1.0991  2.3576  0.9474
10651TIP3   OH253443   6.753   1.436  16.817  0.2170 -0.1216  0.0877
10651TIP3    H153444   6.725   1.374  16.749  1.7418 -0.5624 -0.1829
10651TIP3    H253445   6.683   1.500  16.821 -1.4064 -1.8303  0.3425
10652TIP3   OH253446   1.813   0.908  11.743 -0.0061 -0.3301 -0.2662
10652TIP3    H153447   1.826   0.927  11.650 -0.6776  0.1360 -0.2644
10652TIP3    H253448   1.885   0.848  11.764  0.7119  0.3020 -0.8466
10653TIP3   OH253449   1.840   1.052  12.141  0.4964  0.0802 -0.4375
10653TIP3    H153450   1.925   1.050  12.185 -0.8083  0.4099  2.2804
10653TIP3    H253451   1.800   0.967  12.162 -0.4697  0.5413 -0.3601
10654TIP3   OH253452   4.041   5.331  15.619 -0.1568  0.2116  0.8661
10654TIP3    H153453   4.132   5.361  15.613 -0.2107  0.3360  0.6483
10654TIP3    H253454   4.048   5.240  15.647  0.2147 -0.8404 -2.2082
10655TIP3   OH253455   2.163   4.187  12.170 -0.4271 -0.6585 -0.2862
10655TIP3    H153456   2.146   4.100  12.208 -0.2546 -1.1806 -1.3697
10655TIP3    H253457   2.244   4.176  12.121 -1.5608 -0.4981 -2.2642
10656TIP3   OH253458   4.944   4.215   6.034 -0.3898  0.0444  0.3340
10656TIP3    H153459   5.035   4.233   6.056  0.0259  0.4292 -1.5525
10656TIP3    H253460   4.902   4.300   6.034  0.3373  0.5495 -3.2042
10657TIP3   OH253461   0.580   3.235   4.740 -0.1970  0.1446 -0.2888
10657TIP3    H153462   0.591   3.328   4.719 -1.5709  0.5461  0.5787
10657TIP3    H253463   0.508   3.234   4.804  1.8213 -1.1974  2.1778
10658TIP3   OH253464   0.789   3.180  11.471  0.3180 -0.3005 -0.7972
10658TIP3    H153465   0.760   3.262  11.512  0.7073 -1.2580  1.5853
10658TIP3    H253466   0.709   3.127  11.466  0.0466  0.2176 -2.4299
10659TIP3   OH253467   0.897   4.537  15.139  0.3177  0.4045 -0.0459
10659TIP3    H153468   0.854   4.621  15.125 -1.0964 -0.3143 -0.1126
10659TIP3    H253469   0.865   4.507  15.224  2.5604  0.9416  1.0639
10660TIP3   OH253470   3.743   6.431  11.646  0.4560  0.9211  0.5611
10660TIP3    H153471   3.669   6.485  11.673 -0.6916 -0.9930  1.4731
10660TIP3    H253472   3.820   6.474  11.684 -0.3058  2.3143  0.5757
10661TIP3   OH253473   4.354   6.406   0.885  0.0006 -1.2932  0.3017
10661TIP3    H153474   4.264   6.380   0.907  0.1296 -1.5469  0.5434
10661TIP3    H253475   4.356   6.408   0.789 -0.4327 -0.6714  0.2991
10662TIP3   OH253476   6.779   0.557  13.265  0.5047  0.1230 -0.0729
10662TIP3    H153477   6.755   0.649  13.257 -5.0788 -0.9109  0.7123
10662TIP3    H253478   6.805   0.530  13.177 -0.2388  1.9402 -0.8876
10663TIP3   OH253479   0.006   0.944  11.490 -0.0505 -0.2162 -0.2535
10663TIP3    H153480   0.096   0.972  11.507 -0.1077 -0.1390 -0.0752
10663TIP3    H253481  -0.022   0.995  11.414  0.2917 -0.7404 -0.7406
10664TIP3   OH253482   3.661   0.782   3.203  0.5956  0.9789  0.1896
10664TIP3    H153483   3.698   0.699   3.234  0.0227  0.5557 -0.2339
10664TIP3    H253484   3.736   0.830   3.169  0.8088  0.2454 -0.4004
10665TIP3   OH253485   2.171   2.251  15.944  0.3233 -0.0714  0.4669
10665TIP3    H153486   2.113   2.306  15.997  0.4003 -0.2937  0.7907
10665TIP3    H253487   2.244   2.308  15.920  0.4631 -0.0581  0.9027
10666TIP3   OH253488   1.284   3.380   5.347  0.1120 -0.1354 -0.2439
10666TIP3    H153489   1.359   3.399   5.291  0.0508 -0.8600 -0.5878
10666TIP3    H253490   1.210   3.422   5.303  0.3085  0.5966  0.1064
10667TIP3   OH253491   3.257   6.015  11.139 -0.0547  0.9973 -0.5528
10667TIP3    H153492   3.246   5.951  11.068  0.9313  0.6491 -0.4077
10667TIP3    H253493   3.188   6.079  11.124 -0.9730 -0.0094 -0.7999
10668TIP3   OH253494   2.057   6.812  16.888  0.0144  0.1789 -0.6958
10668TIP3    H153495   2.061   6.717  16.877  2.3619  0.0722  0.3959
10668TIP3    H253496   1.969   6.837  16.859 -0.7401 -2.3437 -0.7520
10669TIP3   OH253497   4.971   5.280  11.998 -0.0918  0.4098  0.0839
10669TIP3    H153498   5.030   5.280  11.923 -0.8528 -2.2997 -0.6048
10669TIP3    H253499   4.994   5.201  12.047 -1.5430  0.5909  1.1185
10670TIP3   OH253500   5.694   1.437   1.762 -0.4306  0.5205 -0.0466
10670TIP3    H153501   5.768   1.377   1.768 -0.4170  0.6324  1.0389
10670TIP3    H253502   5.629   1.402   1.822 -1.1682  0.5652 -0.7990
10671TIP3   OH253503   6.540   3.046   4.812 -0.1151 -0.0933 -0.2321
10671TIP3    H153504   6.543   2.989   4.889 -0.0783  0.8598  0.4908
10671TIP3    H253505   6.567   3.132   4.845 -0.5485  0.4367 -1.2193
10672TIP3   OH253506   3.053   0.674   3.543 -0.3373  0.4174  0.4115
10672TIP3    H153507   2.973   0.678   3.596 -0.7844 -1.5294 -0.0683
10672TIP3    H253508   3.076   0.766   3.529 -1.6226  1.0102  1.8351
10673TIP3   OH253509   6.785   1.410  16.420  0.0746  0.0132  0.3768
10673TIP3    H153510   6.781   1.332  16.475 -0.4630 -0.6442 -0.5741
10673TIP3    H253511   6.711   1.463  16.449 -0.4977 -0.5495 -0.0216
10674TIP3   OH253512   2.818   4.466   2.127 -0.1586  0.3970 -0.0770
10674TIP3    H153513   2.814   4.548   2.176 -1.5725 -0.2611  0.9720
10674TIP3    H253514   2.731   4.457   2.087 -0.3073 -0.9635  0.4839
10675TIP3   OH253515   2.677   3.452  16.154 -0.1530 -0.1227 -0.0635
10675TIP3    H153516   2.714   3.431  16.239 -1.8788 -0.1467  0.7139
10675TIP3    H253517   2.700   3.544  16.140  0.1679 -0.1291  0.3908
10676TIP3   OH253518   4.907   0.303  16.891 -0.6705  0.5071 -0.1830
10676TIP3    H153519   4.896   0.362  16.816 -0.8466  0.8658  0.1212
10676TIP3    H253520   4.983   0.250  16.869 -1.5170 -0.3091 -1.2280
10677TIP3   OH253521   4.685   2.638  16.779 -0.4084  0.2441  0.1916
10677TIP3    H153522   4.611   2.650  16.839  0.5091  2.4031  0.9833
10677TIP3    H253523   4.651   2.582  16.710 -2.3527  0.0081  1.2699
10678TIP3   OH253524   2.809   1.223   5.988 -0.3614 -0.1765 -1.1096
10678TIP3    H153525   2.852   1.139   5.973  1.0073  0.6502 -2.0401
10678TIP3    H253526   2.721   1.200   6.019 -0.1549 -1.9346 -1.7245
10679TIP3   OH253527   5.485   5.202  11.569  0.1837 -0.2643  0.1404
10679TIP3    H153528   5.477   5.126  11.627 -1.6452 -1.0392 -1.0298
10679TIP3    H253529   5.478   5.166  11.480 -0.8078  1.2753 -0.4481
10680TIP3   OH253530   6.331   4.024  11.090  0.4156  0.2633 -0.2480
10680TIP3    H153531   6.303   3.935  11.071  0.7184  0.2507 -0.6541
10680TIP3    H253532   6.293   4.044  11.176 -0.0825 -0.0723 -0.3857
10681TIP3   OH253533   3.057   4.088   4.613  0.0261 -0.1202  0.3750
10681TIP3    H153534   3.134   4.036   4.636 -0.4299 -1.2854 -0.5803
10681TIP3    H253535   3.018   4.112   4.696  0.4585 -1.0243  0.8564
10682TIP3   OH253536   3.480   4.048  17.067  0.2473  0.5329 -0.5202
10682TIP3    H153537   3.541   4.122  17.068  0.9991 -0.0660  0.4765
10682TIP3    H253538   3.433   4.056  16.984  1.0521  1.5258 -0.8997
10683TIP3   OH253539   6.162   3.577   3.399  0.2201  0.4240  0.4369
10683TIP3    H153540   6.086   3.519   3.405 -0.2002  0.8084 -0.7593
10683TIP3    H253541   6.236   3.518   3.387 -0.4473  0.0756 -3.0558
10684TIP3   OH253542   6.494   2.960   4.551  0.1844 -0.0578  0.3600
10684TIP3    H153543   6.431   2.892   4.573  1.4167 -1.8543 -1.3395
10684TIP3    H253544   6.523   2.995   4.636 -1.2007 -0.9311  1.2257
10685TIP3   OH253545   5.405   4.311   4.743 -0.4010 -0.5066 -0.2178
10685TIP3    H153546   5.329   4.256   4.763 -1.0305  0.7440  0.9838
10685TIP3    H253547   5.367   4.393   4.711  0.5036 -0.4276 -1.1573
10686TIP3   OH253548   5.221   2.075   5.385  0.0080 -0.0300 -0.1753
10686TIP3    H153549   5.139   2.091   5.433 -0.0314 -1.8359  0.4414
10686TIP3    H253550   5.278   2.032   5.449  0.4106 -1.3394 -1.3727
10687TIP3   OH253551   2.681   4.144   4.930 -0.3700 -0.0054 -0.2447
10687TIP3    H153552   2.631   4.099   4.998 -1.2168  0.1873 -0.7111
10687TIP3    H253553   2.677   4.236   4.954  0.1921 -0.0383 -0.0212
10688TIP3   OH253554   1.487   0.662  14.008  0.4514  0.0635 -0.3700
10688TIP3    H153555   1.478   0.690  14.099 -1.6119  3.5378 -1.4805
10688TIP3    H253556   1.424   0.716  13.960  0.3467 -2.6994 -3.7042
10689TIP3   OH253557   4.394   3.055   3.953 -0.0942 -0.4274 -0.5637
10689TIP3    H153558   4.448   3.128   3.982  0.6775 -1.0319 -0.4445
10689TIP3    H253559   4.312   3.064   4.003  0.4367 -0.3059  0.3106
10690TIP3   OH253560   6.047   6.028  12.875  0.4933  0.0008 -0.2577
10690TIP3    H153561   5.985   5.956  12.879  0.8683 -0.3144  0.0149
10690TIP3    H253562   5.996   6.103  12.845  0.1005 -0.3779 -0.5413
10691TIP3   OH253563   6.255   1.480   1.721 -0.6588 -0.0987 -0.2674
10691TIP3    H153564   6.325   1.461   1.783 -0.7738  2.8578  0.9398
10691TIP3    H253565   6.186   1.418   1.743 -0.4618  0.4533  2.1864
10692TIP3   OH253566   2.326   2.616  15.700  0.0044 -0.4632  0.1195
10692TIP3    H153567   2.391   2.679  15.669  0.0809 -0.2602  0.6758
10692TIP3    H253568   2.332   2.543  15.638  0.6589 -0.3811  0.0756
10693TIP3   OH253569   2.322   4.263   4.735 -0.1161 -0.1116  0.4629
10693TIP3    H153570   2.261   4.218   4.677 -1.7183 -0.1950  2.1421
10693TIP3    H253571   2.375   4.193   4.774  1.5932  0.0026 -1.4610
10694TIP3   OH253572   2.197   4.658  14.202 -0.6826 -0.5553 -0.3028
10694TIP3    H153573   2.150   4.674  14.120 -0.9222 -1.5140 -0.3654
10694TIP3    H253574   2.205   4.745  14.242  0.4392  0.1054 -1.8641
10695TIP3   OH253575   0.751   6.212  13.544 -0.2904 -0.1635 -0.1134
10695TIP3    H153576   0.758   6.264  13.464  4.1534 -0.2718 -0.0379
10695TIP3    H253577   0.744   6.277  13.614  1.4022  0.2307 -0.2783
10696TIP3   OH253578   4.004   1.248   0.196 -0.8722  0.6314 -0.2359
10696TIP3    H153579   3.964   1.250   0.109 -0.0755 -1.5031 -0.7040
10696TIP3    H253580   4.002   1.340   0.225 -3.6724  1.0025 -1.2888
10697TIP3   OH253581   6.011   4.386  15.157  0.2818  0.1191 -0.6126
10697TIP3    H153582   6.075   4.414  15.223  1.0193  1.1794 -1.7209
10697TIP3    H253583   5.934   4.360  15.207  0.6073  1.4433  0.6433
10698TIP3   OH253584   5.079   3.813  13.195 -0.1774 -0.1340  0.6806
10698TIP3    H153585   5.029   3.731  13.196 -0.0802 -0.2116  0.0188
10698TIP3    H253586   5.074   3.845  13.284 -0.1625 -0.8973  0.9665
10699TIP3   OH253587   3.264   3.058  16.657 -0.2179  0.0149 -0.2543
10699TIP3    H153588   3.283   3.059  16.563 -1.1435 -1.5289 -0.4961
10699TIP3    H253589   3.334   3.110  16.696  1.8393 -1.6123 -1.5152
10700TIP3   OH253590   1.167   2.837  12.635 -0.5871 -0.0609  0.1089
10700TIP3    H153591   1.191   2.749  12.665 -0.2449 -0.3832 -1.0644
10700TIP3    H253592   1.100   2.823  12.568 -1.6748  0.6684  1.0085
10701TIP3   OH253593   4.646   2.295  15.507 -0.0376 -0.2641  0.6029
10701TIP3    H153594   4.654   2.338  15.593 -0.0052 -2.6370  1.8767
10701TIP3    H253595   4.710   2.224  15.511  0.1141 -0.3048 -1.5254
10702TIP3   OH253596   3.231   2.215   0.102  0.5782  0.0412  0.1745
10702TIP3    H153597   3.206   2.228   0.011  0.9123  0.2570  0.1140
10702TIP3    H253598   3.279   2.294   0.126  0.9927 -0.2663  0.3670
10703TIP3   OH253599   0.293   3.188  12.343  0.0311 -0.0186  0.2541
10703TIP3    H153600   0.372   3.136  12.352  0.4178 -0.0586 -2.4074
10703TIP3    H253601   0.222   3.126  12.358  0.4814 -0.3619  1.0372
10704TIP3   OH253602   3.559   3.624   3.991 -0.7291  0.3001  0.0933
10704TIP3    H153603   3.614   3.637   3.914 -1.0051  0.3401 -0.0987
10704TIP3    H253604   3.547   3.529   3.996 -2.2362  0.3810 -1.0079
10705TIP3   OH253605   2.403   5.872  16.730 -0.1493 -0.4381 -0.0765
10705TIP3    H153606   2.383   5.786  16.766  0.8944 -0.9077 -0.5796
10705TIP3    H253607   2.334   5.889  16.667 -1.8977  0.3050  1.9307
10706TIP3   OH253608   3.147   2.452  12.419 -0.0451  0.4307 -0.1674
10706TIP3    H153609   3.059   2.471  12.450 -1.2799 -2.4215 -1.5714
10706TIP3    H253610   3.143   2.465  12.324  0.3243 -1.8302 -0.5588
10707TIP3   OH253611   0.371   6.558   5.523  0.5193 -0.0536 -0.2599
10707TIP3    H153612   0.453   6.535   5.481  0.2547 -1.9599  0.1919
10707TIP3    H253613   0.397   6.597   5.607  0.9608  0.6255 -0.6992
10708TIP3   OH253614   3.591   6.482   3.121 -0.2906 -0.0920  0.1518
10708TIP3    H153615   3.598   6.530   3.203 -0.3142  1.9984 -0.9998
10708TIP3    H253616   3.499   6.461   3.112 -0.7076  1.7611 -0.3957
10709TIP3   OH253617   6.549   2.598  11.657  0.0258 -0.1285 -0.1839
10709TIP3    H153618   6.522   2.507  11.673 -0.1910 -0.5826 -2.8188
10709TIP3    H253619   6.614   2.592  11.588 -0.7526  1.7915 -1.1577
10710TIP3   OH253620   3.619   5.531   1.120 -0.1631  0.3792 -0.8691
10710TIP3    H153621   3.536   5.568   1.149 -0.1562  0.8068 -1.3611
10710TIP3    H253622   3.622   5.551   1.026  0.6788  0.7353 -0.7778
10711TIP3   OH253623   1.626   3.619  15.115  0.3586 -0.1220 -0.5074
10711TIP3    H153624   1.588   3.549  15.061 -0.5433  1.5796 -2.1918
10711TIP3    H253625   1.550   3.665  15.151  0.9209  0.4397 -0.0191
10712TIP3   OH253626   6.251   6.762   2.766  0.4512  0.4194  0.0791
10712TIP3    H153627   6.332   6.813   2.769  0.5681  0.2854 -0.5280
10712TIP3    H253628   6.234   6.751   2.672  0.3341 -0.5048  0.2004
10713TIP3   OH253629   0.818   4.929  15.288 -0.1248 -0.4311  0.1189
10713TIP3    H153630   0.831   4.922  15.382 -0.0191  0.9798  0.2393
10713TIP3    H253631   0.772   5.012  15.276  0.1703 -0.4133 -1.0886
10714TIP3   OH253632   2.789   1.841  13.581  0.1550 -0.1541 -0.7149
10714TIP3    H153633   2.836   1.830  13.499  2.1109 -2.1109  0.5705
10714TIP3    H253634   2.755   1.753  13.601  0.4571  0.0858  0.9821
10715TIP3   OH253635   3.348   4.589  13.044  0.5983 -0.9158 -0.4864
10715TIP3    H153636   3.319   4.607  12.955 -1.7967  1.4330  0.6373
10715TIP3    H253637   3.287   4.523  13.076 -0.4639  0.3960  0.2925
10716TIP3   OH253638   6.733   4.015  15.264  0.2160  0.0790 -0.2516
10716TIP3    H153639   6.804   4.041  15.205 -0.2078  1.3099 -0.2458
10716TIP3    H253640   6.760   4.050  15.349 -0.9779  1.7169 -0.4999
10717TIP3   OH253641   5.467   1.072   3.224 -0.2347 -0.2236 -0.2050
10717TIP3    H153642   5.477   1.161   3.256 -2.6926  0.2181 -0.4651
10717TIP3    H253643   5.472   1.017   3.302 -0.0325  0.2598  0.1229
10718TIP3   OH253644   0.569   1.420  14.012  0.3157 -0.2285 -0.2287
10718TIP3    H153645   0.567   1.513  13.988 -0.3795 -0.1806 -0.0141
10718TIP3    H253646   0.652   1.388  13.977  1.0928  0.7337  0.6349
10719TIP3   OH253647   4.459   5.284  13.833 -0.1331 -0.0420 -0.0217
10719TIP3    H153648   4.541   5.251  13.872  0.5981  2.1676  0.4972
10719TIP3    H253649   4.400   5.209  13.834  0.9511 -0.9776  2.3186
10720TIP3   OH253650   6.770   5.732   1.065  0.0317 -0.2693 -0.3132
10720TIP3    H153651   6.723   5.796   1.012  2.4879  0.3082 -1.9269
10720TIP3    H253652   6.843   5.780   1.103  0.5542 -1.5925  0.4454
10721TIP3   OH253653   1.061   6.643  12.058  0.1330 -0.3985  0.8244
10721TIP3    H153654   0.975   6.635  12.017 -0.1317 -0.5372  1.3862
10721TIP3    H253655   1.120   6.669  11.987 -0.6628  1.2783  0.7345
10722TIP3   OH253656   5.777   5.666  15.334  0.2107  0.3056  0.5325
10722TIP3    H153657   5.836   5.652  15.408  0.5969  0.7456  0.3134
10722TIP3    H253658   5.778   5.761  15.321  1.1860  0.1248 -0.8777
10723TIP3   OH253659   6.334   4.831   1.511 -0.1165 -0.3130  0.3012
10723TIP3    H153660   6.313   4.916   1.474  0.2654  0.7434  2.3536
10723TIP3    H253661   6.254   4.779   1.498 -0.0501  0.0396 -1.7439
10724TIP3   OH253662   4.016   4.779   4.612 -0.1912 -0.1343 -0.1969
10724TIP3    H153663   4.006   4.814   4.700  0.4682 -0.6252  0.0758
10724TIP3    H253664   3.964   4.838   4.557 -0.5171  0.2353  0.4988
10725TIP3   OH253665   2.000   6.808  12.428  0.2011 -0.7250  0.1997
10725TIP3    H153666   2.077   6.757  12.454  1.6422  2.3015  2.4535
10725TIP3    H253667   2.020   6.839  12.340  0.1143 -2.4145 -0.4523
10726TIP3   OH253668   6.350   0.601  13.838  0.0452 -0.1323  0.0295
10726TIP3    H153669   6.302   0.675  13.802  0.2180  0.4577  0.9747
10726TIP3    H253670   6.319   0.525  13.789 -0.7380  0.4511 -0.3871
10727TIP3   OH253671   4.908   6.624  12.754  0.2918 -0.4230  0.2165
10727TIP3    H153672   4.845   6.685  12.791 -1.6697 -3.1629  1.8173
10727TIP3    H253673   4.966   6.602  12.827  2.8526  1.5448 -1.0671
10728TIP3   OH253674   0.645   5.037   4.946  0.0113 -1.0442  0.0662
10728TIP3    H153675   0.560   4.995   4.937  0.3602 -1.7487 -0.0100
10728TIP3    H253676   0.691   5.017   4.865  0.1826 -0.4962  0.0215
10729TIP3   OH253677   2.943   6.332  10.387 -0.4760  0.1012 -0.1691
10729TIP3    H153678   3.035   6.304  10.395 -0.3102  0.4489 -0.7569
10729TIP3    H253679   2.946   6.402  10.322 -1.4716 -1.4373 -1.9710
10730TIP3   OH253680   0.069   1.337  13.540  0.0327 -0.0424  0.4978
10730TIP3    H153681   0.155   1.376  13.553 -0.2966  0.1990  2.1172
10730TIP3    H253682   0.041   1.308  13.627 -1.5552 -0.0368  0.0334
10731TIP3   OH253683   6.597   3.271   3.253  0.2964 -0.5089 -0.1205
10731TIP3    H153684   6.651   3.202   3.214  1.1509  0.2118 -0.2535
10731TIP3    H253685   6.645   3.299   3.330  0.0835  0.1081 -0.2055
10732TIP3   OH253686   3.356   4.142  12.640  0.2973 -0.1996  0.0182
10732TIP3    H153687   3.291   4.211  12.628  2.3234  1.8666  0.1204
10732TIP3    H253688   3.408   4.171  12.715 -0.1845 -3.0671  1.5734
10733TIP3   OH253689   4.227   0.725  14.070 -0.2837  0.5818 -0.3239
10733TIP3    H153690   4.205   0.721  13.977  0.9456  1.0468 -0.6495
10733TIP3    H253691   4.318   0.753  14.072  0.6155 -2.0756  0.9404
10734TIP3   OH253692   1.602   2.409  17.058  0.1957  0.2824  0.2880
10734TIP3    H153693   1.554   2.380  16.980  1.7631 -0.9450 -0.2758
10734TIP3    H253694   1.671   2.465  17.024  0.0385  0.8920  0.9553
10735TIP3   OH253695   6.381   6.796  13.804 -0.3166 -0.0943  0.0750
10735TIP3    H153696   6.458   6.770  13.856 -0.0582 -2.3624 -1.2786
10735TIP3    H253697   6.414   6.800  13.714 -1.2295  1.5800 -0.2212
10736TIP3   OH253698   0.768   0.338  13.159  0.6583  0.0144  0.2101
10736TIP3    H153699   0.784   0.331  13.065 -1.1722  0.1843 -0.1459
10736TIP3    H253700   0.787   0.430  13.179 -1.4402  0.6814 -0.5656
10737TIP3   OH253701   4.017   1.749   1.379 -0.2337 -0.3348 -0.0377
10737TIP3    H153702   4.036   1.683   1.446  2.8900  1.1699  0.7356
10737TIP3    H253703   3.975   1.820   1.427 -0.7300 -0.4585 -0.2792
10738TIP3   OH253704   2.476   5.055  14.722 -0.3887  0.3369  0.7416
10738TIP3    H153705   2.486   5.069  14.816 -0.6033  2.1965  0.5151
10738TIP3    H253706   2.563   5.025  14.693 -0.7390 -1.9051  1.7386
10739TIP3   OH253707   4.912   5.604  15.734  0.0146  0.7601  0.5286
10739TIP3    H153708   4.955   5.688  15.750  0.5101  0.1821  2.6214
10739TIP3    H253709   4.823   5.626  15.709  0.1196  1.9099  1.1248
10740TIP3   OH253710   4.344   4.839  14.717 -0.4015  0.0371 -0.6090
10740TIP3    H153711   4.381   4.812  14.801  0.3077  0.8366 -0.6508
10740TIP3    H253712   4.249   4.837  14.730 -0.2850  0.8674  0.4417
10741TIP3   OH253713   3.334   1.192  11.570  0.2602 -0.2322 -0.2335
10741TIP3    H153714   3.410   1.244  11.598  0.5648 -2.0471  2.8001
10741TIP3    H253715   3.353   1.103  11.600 -2.1412 -1.2072 -1.3205
10742TIP3   OH253716   0.219   2.578  16.162 -0.3366 -0.5132  0.7042
10742TIP3    H153717   0.161   2.609  16.092  0.1428  0.4879  0.7325
10742TIP3    H253718   0.168   2.511  16.207 -1.3252  0.0822  0.4965
10743TIP3   OH253719   6.260   6.406   3.826 -0.6125 -0.0296  0.0643
10743TIP3    H153720   6.178   6.386   3.872 -0.7308  0.6962  0.1769
10743TIP3    H253721   6.308   6.464   3.886  0.2018 -0.8217  0.2049
10744TIP3   OH253722   3.950   5.360  13.076  0.4477 -0.0983  0.6056
10744TIP3    H153723   4.019   5.406  13.029 -0.3095 -0.6057 -1.0853
10744TIP3    H253724   3.888   5.428  13.100  0.1958  0.0185 -0.3282
10745TIP3   OH253725   4.515   1.873   3.281  0.3178  0.1802  0.3471
10745TIP3    H153726   4.442   1.844   3.226 -0.3190 -0.8306  1.6854
10745TIP3    H253727   4.526   1.966   3.260  0.9747 -0.4097 -2.4624
10746TIP3   OH253728   0.155   1.131   3.355 -0.6278  0.3163  0.7100
10746TIP3    H153729   0.075   1.167   3.318 -0.1630  0.1610 -0.4902
10746TIP3    H253730   0.208   1.106   3.279  0.6061  0.5213  1.4628
10747TIP3   OH253731   2.919   5.168  14.076  0.1559 -0.2617  0.2819
10747TIP3    H153732   2.948   5.248  14.033 -0.3965 -0.4913 -0.5304
10747TIP3    H253733   2.825   5.182  14.091 -0.2842 -1.3438 -1.2386
10748TIP3   OH253734   5.425   1.366  12.212 -0.9172  0.0730 -0.6173
10748TIP3    H153735   5.502   1.315  12.185 -0.8182 -1.3690  2.0451
10748TIP3    H253736   5.449   1.457  12.194  0.6769 -0.4681 -1.5052
10749TIP3   OH253737   2.051   4.159  11.817  0.0905  0.3261  0.0229
10749TIP3    H153738   2.105   4.173  11.739  0.8795  0.6959  0.6168
10749TIP3    H253739   2.028   4.066  11.814 -2.1934  0.8705 -2.0711
10750TIP3   OH253740   0.466   5.935   2.430 -0.5138 -0.0692 -0.2598
10750TIP3    H153741   0.540   5.932   2.490 -0.4083 -1.3505 -0.4154
10750TIP3    H253742   0.393   5.897   2.480 -0.4246 -1.1470 -0.9099
10751TIP3   OH253743   1.097   2.040  12.993  0.1636  0.4731 -0.2812
10751TIP3    H153744   1.054   2.095  13.059 -0.7684 -0.3086 -0.2273
10751TIP3    H253745   1.039   1.965  12.981  0.6504  0.2563 -1.4974
10752TIP3   OH253746   6.516   0.393   0.441 -0.3957 -0.2356  0.1676
10752TIP3    H153747   6.525   0.414   0.348 -0.3093  2.4243  0.6875
10752TIP3    H253748   6.464   0.465   0.477 -2.4962 -2.4049  1.8057
10753TIP3   OH253749   1.766   0.657   5.252 -0.4072 -0.6008 -0.4044
10753TIP3    H153750   1.810   0.669   5.169 -1.5695 -0.9878 -1.0990
10753TIP3    H253751   1.814   0.586   5.295  0.8864  0.3504 -0.2343
10754TIP3   OH253752   1.877   4.713   4.633  0.5102  0.0234  0.7635
10754TIP3    H153753   1.936   4.642   4.610  1.6639 -0.4272  4.4685
10754TIP3    H253754   1.795   4.692   4.588  2.0594 -1.1776 -1.7444
10755TIP3   OH253755   2.654   6.017   1.352  0.8574  0.0408  0.2084
10755TIP3    H153756   2.665   5.938   1.404 -0.2938  1.1397  2.2434
10755TIP3    H253757   2.720   6.078   1.387 -0.6962  1.1815  1.2619
10756TIP3   OH253758   1.290   6.799  16.297  0.6430  0.2156 -0.2450
10756TIP3    H153759   1.245   6.847  16.366  3.0573  0.0265  1.6029
10756TIP3    H253760   1.373   6.845  16.286  1.2609 -1.0996 -1.4488
10757TIP3   OH253761   2.487   1.713  15.149  0.0541  0.5456 -0.1156
10757TIP3    H153762   2.396   1.735  15.131  0.3698  2.8364  0.7758
10757TIP3    H253763   2.484   1.656  15.226 -0.6340  0.0348 -0.5096
10758TIP3   OH253764   1.926   0.447   6.117 -0.3816 -0.6874  0.1714
10758TIP3    H153765   1.981   0.415   6.189 -0.1766 -0.2906  0.1928
10758TIP3    H253766   1.977   0.516   6.076 -1.9615  1.6998  1.9561
10759TIP3   OH253767   3.067   0.003  13.217 -0.5112  0.6705  0.2627
10759TIP3    H153768   3.084   0.096  13.235 -0.2261  0.6447  0.1243
10759TIP3    H253769   3.153  -0.038  13.214 -0.3719  0.9577 -2.6968
10760TIP3   OH253770   0.126   0.000  16.294  0.1303  0.1003 -0.1246
10760TIP3    H153771   0.092  -0.085  16.268 -0.1366 -0.2491  1.2527
10760TIP3    H253772   0.057   0.037  16.350  1.2315  0.1618  1.2540
10761TIP3   OH253773   3.746   5.173   4.955  0.6278  0.0419 -0.1358
10761TIP3    H153774   3.665   5.192   4.909  0.7613  1.7221  0.2518
10761TIP3    H253775   3.726   5.096   5.009  0.0072 -0.9590 -1.7486
10762TIP3   OH253776   4.211   3.299   0.144  0.3205 -0.0393 -0.5732
10762TIP3    H153777   4.281   3.243   0.177  2.0458  2.3478  0.0958
10762TIP3    H253778   4.241   3.328   0.058 -1.4844 -1.6417 -1.8157
10763TIP3   OH253779   6.806   1.563   4.352  0.0750 -0.3833 -0.3573
10763TIP3    H153780   6.786   1.472   4.374 -1.1228 -0.1740 -0.5028
10763TIP3    H253781   6.737   1.588   4.290 -0.4000  1.0326  0.6984
10764TIP3   OH253782   2.877   0.401   6.194  0.1085 -0.8699 -0.1455
10764TIP3    H153783   2.884   0.319   6.244 -1.2670 -0.1557  1.2987
10764TIP3    H253784   2.800   0.388   6.138 -0.1242 -0.5660  0.1016
10765TIP3   OH253785   1.965   0.185   0.994  0.3724  0.0600 -0.1173
10765TIP3    H153786   1.975   0.255   0.930 -1.2218 -0.3845 -0.8955
10765TIP3    H253787   1.948   0.231   1.077 -0.4781  0.6080 -0.5821
10766TIP3   OH253788   6.092   6.668   3.956  0.2855  0.1275  0.4440
10766TIP3    H153789   6.060   6.622   3.878 -1.3013  0.4668  0.8700
10766TIP3    H253790   6.121   6.599   4.015 -2.3424 -0.4272  1.1987
10767TIP3   OH253791   3.140   5.957   5.513 -0.4548  0.0935 -0.3907
10767TIP3    H153792   3.225   5.935   5.474 -0.3859  0.7716 -0.6427
10767TIP3    H253793   3.077   5.905   5.464 -0.3581  0.8618 -1.3703
10768TIP3   OH253794   3.054   5.742   2.170 -0.6589 -0.1506 -0.0383
10768TIP3    H153795   2.996   5.721   2.098 -1.4644  0.8199  0.3067
10768TIP3    H253796   3.136   5.696   2.149 -0.6098  0.7189 -1.9583
10769TIP3   OH253797   4.077   0.393  13.843 -0.1134 -0.3762  0.1802
10769TIP3    H153798   4.118   0.325  13.896 -0.7259 -0.3658  0.6851
10769TIP3    H253799   3.991   0.405  13.883 -1.2151 -1.4593 -1.7590
10770TIP3   OH253800   1.939   5.943   4.159 -0.2691 -0.0171  0.3456
10770TIP3    H153801   1.861   5.983   4.195  0.1713  0.2776  0.9802
10770TIP3    H253802   1.993   6.016   4.130 -0.0472 -0.2019  0.2856
10771TIP3   OH253803   0.729   2.892  10.181 -0.5625 -0.5753  0.3757
10771TIP3    H153804   0.755   2.984  10.185 -1.1715 -0.4488  2.3911
10771TIP3    H253805   0.634   2.893  10.196 -0.6498 -1.5133 -0.0451
10772TIP3   OH253806   3.340   2.355   4.370  0.6545 -0.7237  0.1140
10772TIP3    H153807   3.270   2.319   4.315  0.8122 -1.0979  0.1565
10772TIP3    H253808   3.419   2.347   4.316  0.5765  0.2020 -0.1462
10773TIP3   OH253809   2.343   1.719  13.980 -0.2988  0.0597  0.7741
10773TIP3    H153810   2.294   1.734  13.899  0.5833 -2.8262 -0.4404
10773TIP3    H253811   2.365   1.806  14.012 -0.9289  1.3101 -1.9387
10774TIP3   OH253812   0.796   5.645   2.626  0.3077 -0.1015  0.6245
10774TIP3    H153813   0.719   5.597   2.658  0.4682 -0.5346  0.3774
10774TIP3    H253814   0.857   5.576   2.598  1.3266  0.1871  2.0444
10775TIP3   OH253815   3.214   3.409  14.047  0.2546  0.0097  0.2318
10775TIP3    H153816   3.145   3.476  14.046 -0.0959 -0.3157  1.0775
10775TIP3    H253817   3.170   3.331  14.081  1.1663 -0.0396  1.3656
10776TIP3   OH253818   0.376   4.827  12.506  0.2433 -0.3777 -0.0576
10776TIP3    H153819   0.358   4.737  12.532 -1.1823 -0.1300 -0.1171
10776TIP3    H253820   0.387   4.875  12.588  1.0153 -0.5915 -0.0267
10777TIP3   OH253821   5.785   1.749  14.671  0.5846 -0.3146  0.1597
10777TIP3    H153822   5.829   1.830  14.644 -0.1306 -0.3550 -1.1903
10777TIP3    H253823   5.822   1.730  14.757  0.8591  1.3787  0.4577
10778TIP3   OH253824   5.054   1.366  12.368  0.1954  0.6474 -0.4774
10778TIP3    H153825   5.066   1.460  12.352  2.6961  0.4264 -0.2866
10778TIP3    H253826   5.082   1.354  12.459 -0.1240 -0.2818 -0.4969
10779TIP3   OH253827   4.831   1.568   4.188 -0.1588  0.0176 -0.0164
10779TIP3    H153828   4.748   1.615   4.198 -1.0089 -1.5405  0.5176
10779TIP3    H253829   4.895   1.624   4.233 -1.2665  0.3391  1.2241
10780TIP3   OH253830   2.372   4.169   0.979  0.1014 -0.1545 -0.2869
10780TIP3    H153831   2.313   4.242   0.995  0.2707 -0.4757  2.1271
10780TIP3    H253832   2.387   4.171   0.884 -2.0319  1.2495 -0.6689
10781TIP3   OH253833   4.749   2.946  14.520 -0.2081  0.4579 -0.4232
10781TIP3    H153834   4.740   3.011  14.589  1.1762  0.5543 -0.3136
10781TIP3    H253835   4.799   2.874  14.560 -2.5111 -1.1540 -0.2500
10782TIP3   OH253836   0.401   3.808  12.088  0.5626 -0.3255 -0.2627
10782TIP3    H153837   0.430   3.830  11.999  1.7669 -0.4277  0.0852
10782TIP3    H253838   0.337   3.876  12.109  2.2684  1.3675 -0.2051
10783TIP3   OH253839   2.157   0.778  15.801  0.1821  0.1700 -0.3490
10783TIP3    H153840   2.093   0.720  15.760 -0.5163  1.2921 -0.8752
10783TIP3    H253841   2.110   0.861  15.813 -0.0977 -0.3305  3.7461
10784TIP3   OH253842   4.918   0.943   1.999  0.2930  0.2345 -0.2448
10784TIP3    H153843   5.003   0.973   1.968  0.1314  1.5108  0.4761
10784TIP3    H253844   4.934   0.917   2.090  0.2058 -0.9652 -0.5485
10785TIP3   OH253845   1.607   5.881   4.320  0.1101  0.0591  0.3590
10785TIP3    H153846   1.588   5.939   4.394  1.3082 -0.5727  1.2029
10785TIP3    H253847   1.557   5.917   4.247 -1.1533  0.6784  1.4801
10786TIP3   OH253848   0.302   5.563  10.805  0.3266 -0.3055  0.1187
10786TIP3    H153849   0.375   5.548  10.744  0.4041 -1.1593  0.4016
10786TIP3    H253850   0.330   5.520  10.886 -1.0648 -1.8927 -0.1833
10787TIP3   OH253851   3.432   2.555   5.422  0.2387 -0.0459 -0.3046
10787TIP3    H153852   3.357   2.596   5.467  0.5963 -1.3993  1.6418
10787TIP3    H253853   3.421   2.461   5.439  1.3317 -0.4485 -1.6859
10788TIP3   OH253854   3.448   3.099   3.189  0.0588 -0.4678  0.0767
10788TIP3    H153855   3.386   3.027   3.199  0.0202 -0.7905 -2.1088
10788TIP3    H253856   3.395   3.172   3.155  0.7057 -0.5120 -1.0715
10789TIP3   OH253857   5.777   2.376   6.179 -0.1234 -0.1187  0.6525
10789TIP3    H153858   5.819   2.310   6.234 -0.2202 -0.4659  0.3154
10789TIP3    H253859   5.725   2.325   6.117  1.3228  0.1911 -0.8721
10790TIP3   OH253860   3.918   2.392  11.798  0.6931 -0.0310 -0.0447
10790TIP3    H153861   3.907   2.348  11.713  1.1383 -1.1013  0.4292
10790TIP3    H253862   3.863   2.470  11.792 -1.7704 -1.6528 -0.1971
10791TIP3   OH253863   2.641   4.839   5.340 -0.1917 -0.0636  0.0234
10791TIP3    H153864   2.689   4.846   5.257 -0.3854  0.5101 -0.0450
10791TIP3    H253865   2.554   4.809   5.314  0.1388 -1.1970  0.1558
10792TIP3   OH253866   3.416   2.155   3.714 -0.1568  0.0681 -0.2615
10792TIP3    H153867   3.358   2.227   3.740 -0.8094 -0.3680 -0.4641
10792TIP3    H253868   3.356   2.081   3.699  0.5249 -0.5885  0.1859
10793TIP3   OH253869   4.674   2.414   0.519 -0.6634 -0.2140 -0.4420
10793TIP3    H153870   4.607   2.347   0.504 -0.6887 -0.2440 -0.2011
10793TIP3    H253871   4.711   2.392   0.604 -0.8835  0.2561 -0.2209
10794TIP3   OH253872   5.991   0.094   4.099 -0.0365 -0.4752 -0.0645
10794TIP3    H153873   5.937   0.018   4.081 -0.0869 -0.5325  0.3367
10794TIP3    H253874   6.081   0.061   4.100 -0.0444 -0.4962 -0.0682
10795TIP3   OH253875   5.094   0.884  14.508 -0.0275  0.0706 -0.2230
10795TIP3    H153876   5.059   0.801  14.475  0.0702 -0.2522  0.4717
10795TIP3    H253877   5.016   0.936  14.529 -0.0933  0.3712 -1.1652
10796TIP3   OH253878   5.795   1.678   1.744 -0.4088  0.0080 -0.1031
10796TIP3    H153879   5.843   1.680   1.827 -0.4238  0.4145 -0.1010
10796TIP3    H253880   5.763   1.588   1.737 -1.6973  0.3350  1.0649
10797TIP3   OH253881   6.731   3.287   3.819 -1.3151 -0.2099  0.0613
10797TIP3    H153882   6.747   3.204   3.775 -0.9450 -0.2685  0.2995
10797TIP3    H253883   6.638   3.304   3.807 -0.7322  1.3900 -3.6189
10798TIP3   OH253884   3.505   4.417  14.689  0.0630  0.1746 -0.0764
10798TIP3    H153885   3.567   4.454  14.626 -0.2890 -0.0658 -0.5709
10798TIP3    H253886   3.420   4.426  14.647 -0.4535  1.8553  1.2201
10799TIP3   OH253887   0.827   2.574   3.050 -0.3778 -0.0150  0.0387
10799TIP3    H153888   0.889   2.647   3.039 -1.5284  0.8882 -0.7384
10799TIP3    H253889   0.872   2.512   3.107  1.0928  0.7793 -0.2148
10800TIP3   OH253890   5.505   1.570  14.231  0.6024  0.1686  0.1815
10800TIP3    H153891   5.571   1.542  14.294 -1.5731 -2.3697  1.5777
10800TIP3    H253892   5.461   1.644  14.273  0.5029 -0.2100  0.7616
10801TIP3   OH253893   2.275   5.006  13.191  0.6366  0.3569  0.0662
10801TIP3    H153894   2.180   5.018  13.196  0.7816  0.8455  2.8897
10801TIP3    H253895   2.312   5.085  13.229  2.1393 -0.5220  0.5237
10802TIP3   OH253896   1.373   5.526  11.121 -0.4695  0.3354 -0.3252
10802TIP3    H153897   1.401   5.486  11.039 -1.2153  0.4140 -0.6258
10802TIP3    H253898   1.454   5.559  11.161  0.0379 -0.6478 -0.5077
10803TIP3   OH253899   0.013   6.574  16.157  0.3399 -0.1775 -0.6925
10803TIP3    H153900  -0.033   6.640  16.105  0.3915  0.0082 -0.5035
10803TIP3    H253901   0.016   6.497  16.100 -1.6870 -0.7588 -0.1057
10804TIP3   OH253902   2.219   6.711  11.096  0.2324 -0.1900 -0.3368
10804TIP3    H153903   2.147   6.657  11.063  0.4528 -0.3537 -0.5486
10804TIP3    H253904   2.298   6.666  11.067  0.4199  0.4577 -0.8667
10805TIP3   OH253905   0.705   4.306   3.070 -0.1700 -0.5227 -0.2242
10805TIP3    H153906   0.680   4.237   3.009 -1.0282  0.2132 -0.7329
10805TIP3    H253907   0.742   4.375   3.015  1.8734 -1.0688  0.4013
10806TIP3   OH253908   4.910   3.471  11.533 -0.6599 -0.2484 -0.4850
10806TIP3    H153909   4.880   3.407  11.469  0.5275 -1.5913  0.2285
10806TIP3    H253910   4.925   3.419  11.613 -1.1950  1.2104  0.6068
10807TIP3   OH253911   4.455   2.835   2.779  0.0905 -0.0577  0.4110
10807TIP3    H153912   4.429   2.755   2.732  1.3080 -1.2621  1.6652
10807TIP3    H253913   4.403   2.904   2.739 -0.5398 -1.3706 -1.1768
10808TIP3   OH253914   5.747   6.704   2.716 -1.0356  0.3571  0.6650
10808TIP3    H153915   5.739   6.627   2.659 -1.9194  0.8538  0.0970
10808TIP3    H253916   5.668   6.702   2.770 -0.3412  0.0420  1.7153
10809TIP3   OH253917   1.051   4.552  11.498 -0.3670 -0.3102 -0.3885
10809TIP3    H153918   1.125   4.611  11.481  1.4369 -1.6799  1.9976
10809TIP3    H253919   1.066   4.477  11.441 -0.8441  0.0943 -1.0596
10810TIP3   OH253920   5.248   1.052   0.939 -0.2950  0.6033 -0.7958
10810TIP3    H153921   5.291   1.049   0.854  1.7754  1.3344  0.1502
10810TIP3    H253922   5.311   1.012   0.999 -2.1271 -0.8598  0.2849
10811TIP3   OH253923   5.489   1.354   5.658  0.8478  0.0402  0.2485
10811TIP3    H153924   5.453   1.279   5.609  0.3723  0.0653  0.5598
10811TIP3    H253925   5.494   1.424   5.593  1.6328 -0.3484 -0.1406
10812TIP3   OH253926   5.819   2.082  14.619 -0.1524  0.4416 -0.2822
10812TIP3    H153927   5.878   2.065  14.692  0.9115 -1.0181 -1.4362
10812TIP3    H253928   5.835   2.173  14.596  1.5734  0.1119 -0.4938
10813TIP3   OH253929   2.190   0.194  14.149  0.2051 -0.0502 -0.2459
10813TIP3    H153930   2.171   0.111  14.104  0.8703  0.2967 -1.1965
10813TIP3    H253931   2.217   0.253  14.080  0.5675  0.7184  0.5323
10814TIP3   OH253932   1.144   0.251   1.218 -0.4153 -0.3343 -0.1606
10814TIP3    H153933   1.168   0.160   1.201  0.3282 -0.1045 -0.4180
10814TIP3    H253934   1.205   0.302   1.164 -0.2342  0.3298  0.6399
10815TIP3   OH253935   6.755   0.098   2.812  0.2874 -0.5748 -0.4381
10815TIP3    H153936   6.846   0.116   2.789 -0.3473  1.5604 -1.5017
10815TIP3    H253937   6.761   0.048   2.894  2.3772  1.2705  0.6377
10816TIP3   OH253938   6.456   5.165   1.920 -1.0514 -0.1292 -0.0441
10816TIP3    H153939   6.437   5.156   2.013 -1.0426  0.2437 -0.0044
10816TIP3    H253940   6.551   5.167   1.915 -1.0434  1.2692  0.0935
10817TIP3   OH253941   2.866   3.112  13.224 -0.4972  0.5569  0.1885
10817TIP3    H153942   2.885   3.114  13.130  0.0849 -1.1957  0.2225
10817TIP3    H253943   2.786   3.164  13.233 -0.8099  0.4053 -1.3375
10818TIP3   OH253944   2.870   2.054   4.766 -0.0101 -0.2647 -0.5858
10818TIP3    H153945   2.939   2.030   4.828  0.5372  0.3648 -0.9260
10818TIP3    H253946   2.914   2.050   4.680 -0.3724  0.2294 -0.7955
10819TIP3   OH253947   4.553   0.956   4.785  0.2874 -0.1878 -0.4447
10819TIP3    H153948   4.459   0.972   4.787  0.5351  1.8768  3.4887
10819TIP3    H253949   4.561   0.861   4.771 -2.6341 -1.2053  3.1977
10820TIP3   OH253950   0.303   3.946  10.533  0.1827  0.2735  0.1444
10820TIP3    H153951   0.397   3.938  10.547  0.0920  0.8605  1.1621
10820TIP3    H253952   0.273   4.008  10.600 -0.5808  1.8655 -1.5821
10821TIP3   OH253953   4.533   3.073   6.206 -0.2083  0.4485  0.1026
10821TIP3    H153954   4.570   3.134   6.142  0.0576 -0.2177 -0.3798
10821TIP3    H253955   4.441   3.065   6.181 -0.1982  0.4999  0.0499
10822TIP3   OH253956   2.449   6.415   3.726  0.2652  0.1909  0.1391
10822TIP3    H153957   2.401   6.454   3.653 -0.1223  0.2880  0.4433
10822TIP3    H253958   2.451   6.321   3.706 -0.4720  0.1214  0.3581
10823TIP3   OH253959   0.439   3.923   0.760  0.0838 -0.5058  0.6379
10823TIP3    H153960   0.478   3.857   0.702  1.6098 -0.0685  1.1195
10823TIP3    H253961   0.351   3.890   0.778 -0.5072 -0.5716 -2.0277
10824TIP3   OH253962   6.426   1.504   4.525  0.1969 -0.0681  0.7247
10824TIP3    H153963   6.418   1.430   4.584  0.5589 -0.4847  0.2583
10824TIP3    H253964   6.496   1.479   4.464  0.8167  0.9414  0.9902
10825TIP3   OH253965   5.447   1.931  14.364  0.2336 -0.0317 -0.2088
10825TIP3    H153966   5.417   1.980  14.440 -0.3333  0.3247 -0.6507
10825TIP3    H253967   5.397   1.850  14.366  0.7326 -0.3371  0.1848
10826TIP3   OH253968   6.690   1.253   2.525 -0.2389 -0.7410  1.0080
10826TIP3    H153969   6.739   1.220   2.601  0.6283 -0.6245  0.5112
10826TIP3    H253970   6.621   1.307   2.563  2.0958  2.0323  1.6970
10827TIP3   OH253971   6.578   2.626  13.436  0.4607  0.0267  0.4845
10827TIP3    H153972   6.651   2.566  13.453  0.2631  0.0980  1.6772
10827TIP3    H253973   6.573   2.681  13.514  0.1103  1.0614 -0.2421
10828TIP3   OH253974   5.801   6.097   2.082 -0.0535  0.4876  0.3075
10828TIP3    H153975   5.771   6.037   2.151 -1.6244  0.2524 -0.5450
10828TIP3    H253976   5.896   6.095   2.089 -0.0195 -2.3745  0.1118
10829TIP3   OH253977   3.283   4.048   4.201  0.4540  0.4867 -0.4304
10829TIP3    H153978   3.231   3.975   4.232 -0.3419  0.5532 -1.5574
10829TIP3    H253979   3.355   4.008   4.153  0.3721  0.4302 -0.5058
10830TIP3   OH253980   6.719   1.097   2.290 -0.6726 -0.5696  0.7666
10830TIP3    H153981   6.639   1.129   2.333 -0.6161  0.3451  0.2179
10830TIP3    H253982   6.786   1.160   2.316 -0.4453 -0.5284  0.0824
10831TIP3   OH253983   4.289   4.815   1.040  0.5857  0.3004 -0.4812
10831TIP3    H153984   4.315   4.739   0.988 -1.6842 -2.2879  1.8162
10831TIP3    H253985   4.338   4.805   1.122 -3.1238 -1.6935  1.7822
10832TIP3   OH253986   4.776   5.276   5.237 -0.5932 -0.3400  0.5382
10832TIP3    H153987   4.805   5.201   5.290 -1.5067 -0.9174  0.2536
10832TIP3    H253988   4.714   5.238   5.174  0.9934  0.2057 -1.4405
10833TIP3   OH253989   0.690   3.012  10.630 -0.4256 -0.0131 -0.2078
10833TIP3    H153990   0.785   3.008  10.624 -0.2841 -1.2065  1.9837
10833TIP3    H253991   0.661   3.036  10.542  1.8654  0.1200 -0.9736
10834TIP3   OH253992   5.981   2.718   4.568  0.1976 -0.1464  0.1144
10834TIP3    H153993   5.975   2.759   4.655 -0.6431 -0.2180  0.0971
10834TIP3    H253994   6.060   2.664   4.573  0.2726  0.0107  0.7707
10835TIP3   OH253995   6.775   4.404   5.675  0.4561  0.0770 -0.6631
10835TIP3    H153996   6.770   4.411   5.579 -0.8847  1.8994 -0.5059
10835TIP3    H253997   6.684   4.397   5.703  0.8298 -0.3364  0.5160
10836TIP3   OH253998   4.482   0.644   2.082  0.0923  0.0110 -0.2935
10836TIP3    H153999   4.525   0.561   2.101 -0.9490 -0.0601  2.1571
10836TIP3    H254000   4.525   0.707   2.140  0.6744  1.1671 -1.9087
10837TIP3   OH254001   2.338   2.065  10.857  0.2145 -0.1032  0.2225
10837TIP3    H154002   2.332   2.091  10.949  0.7497 -1.4429  0.6613
10837TIP3    H254003   2.348   2.147  10.809 -2.6245  0.8623  1.0808
10838TIP3   OH254004   4.396   3.567  12.239  0.0524  0.3830 -0.6149
10838TIP3    H154005   4.397   3.621  12.319  0.9610 -0.7394  0.1606
10838TIP3    H254006   4.303   3.553  12.221 -0.1726  1.0584 -0.0503
10839TIP3   OH254007   3.027   1.826   6.120 -0.5997 -0.1587  0.0173
10839TIP3    H154008   3.103   1.875   6.086 -1.8604  1.2201 -0.9682
10839TIP3    H254009   3.053   1.735   6.115  0.5287  0.2016 -1.5954
10840TIP3   OH254010   4.010   0.228   1.035 -0.4218  0.6622 -0.3437
10840TIP3    H154011   4.041   0.275   0.958 -1.6054  1.5762 -0.2860
10840TIP3    H254012   4.090   0.202   1.081  0.2826  1.8727 -0.8275
10841TIP3   OH254013   0.474   0.648  16.304  0.2882 -0.4993 -0.0460
10841TIP3    H154014   0.510   0.730  16.338  1.1468 -0.9671  0.2222
10841TIP3    H254015   0.401   0.675  16.248  0.7004  0.4600 -0.1486
10842TIP3   OH254016   5.948   3.644  17.035  0.4388 -0.2624  0.2783
10842TIP3    H154017   6.029   3.684  17.004  0.1426  0.4601  0.4264
10842TIP3    H254018   5.888   3.650  16.960  0.8364 -1.7434 -0.1916
10843TIP3   OH254019   5.054   2.045   3.298 -0.1195 -0.0488  0.4970
10843TIP3    H154020   5.136   2.032   3.345  0.9938  0.6477 -1.1397
10843TIP3    H254021   5.055   1.979   3.228 -0.2996  0.7994 -0.3330
10844TIP3   OH254022   1.133   0.573   2.890  0.6941 -0.6787  0.4946
10844TIP3    H154023   1.170   0.641   2.948  0.8612  1.2028 -1.6739
10844TIP3    H254024   1.206   0.514   2.873  1.1235 -0.2489  0.8156
10845TIP3   OH254025   4.419   2.867  13.845 -0.2062  0.1297  0.0863
10845TIP3    H154026   4.330   2.900  13.838  0.0121  1.1365  1.4863
10845TIP3    H254027   4.460   2.889  13.761 -0.9521  0.6850 -0.1409
10846TIP3   OH254028   0.723   0.026  11.485  0.0675 -0.6276 -0.1873
10846TIP3    H154029   0.786  -0.046  11.491 -0.7772 -1.2980  2.5860
10846TIP3    H254030   0.641  -0.011  11.520 -0.8385  1.2289 -0.2008
10847TIP3   OH254031   1.276   4.810  13.630  0.0919  0.4576  0.5467
10847TIP3    H154032   1.331   4.858  13.568 -0.8098  0.2937 -0.4232
10847TIP3    H254033   1.202   4.779  13.577 -1.8282  2.0902  2.0971
10848TIP3   OH254034   6.663   1.979  15.155  0.2414 -0.0845 -0.0793
10848TIP3    H154035   6.744   1.943  15.191  0.0788 -0.9946 -0.6019
10848TIP3    H254036   6.692   2.048  15.095  0.5730  0.3662  0.5836
10849TIP3   OH254037   0.911   5.062   3.081  0.2566 -0.5006  0.1306
10849TIP3    H154038   0.873   5.053   2.993  0.0167 -0.2175  0.2058
10849TIP3    H254039   0.836   5.068   3.139  0.3862 -2.4277  0.5514
10850TIP3   OH254040   2.754   1.797  11.475  0.5476 -0.2879 -0.4009
10850TIP3    H154041   2.786   1.852  11.547  2.1497 -0.4607 -0.9297
10850TIP3    H254042   2.669   1.834  11.452 -0.0638 -0.2867  1.6229
10851TIP3   OH254043   3.742   6.368   1.037 -0.2399  0.9025 -0.0969
10851TIP3    H154044   3.795   6.293   1.064 -0.6027  0.6094 -0.1941
10851TIP3    H254045   3.678   6.379   1.108 -1.1162  0.2078 -0.7596
10852TIP3   OH254046   5.313   4.915   6.108 -0.3139  0.1662  0.2981
10852TIP3    H154047   5.373   4.881   6.174  0.2462  0.0144 -0.2797
10852TIP3    H254048   5.275   4.993   6.149  1.0496  0.8585  0.3045
10853TIP3   OH254049   3.597   0.804  11.687  0.6987  0.4611 -0.8239
10853TIP3    H154050   3.640   0.730  11.643 -0.6701 -0.2228 -1.0766
10853TIP3    H254051   3.623   0.796  11.779  0.1458 -0.6876 -0.7433
10854TIP3   OH254052   0.190   4.363  12.225 -0.3014 -0.5116  0.4302
10854TIP3    H154053   0.195   4.365  12.130 -1.3720  0.1382  0.3774
10854TIP3    H254054   0.194   4.454  12.252 -0.4312 -0.6679  0.9907
10855TIP3   OH254055   3.949   2.257   1.168 -0.3213  0.4535 -0.2369
10855TIP3    H154056   3.857   2.280   1.153 -0.3830  2.1377  2.1646
10855TIP3    H254057   3.993   2.278   1.086 -2.1047 -0.7854 -1.5816
10856TIP3   OH254058   0.845   2.288   0.379 -0.0823 -0.2122  0.2211
10856TIP3    H154059   0.939   2.280   0.360  0.0154  1.1693  0.0276
10856TIP3    H254060   0.807   2.205   0.350  1.0731 -0.7822  0.2868
10857TIP3   OH254061   2.449   2.516   5.121 -0.1924 -0.0987  0.7553
10857TIP3    H154062   2.440   2.421   5.130 -1.5958  0.0203  0.8273
10857TIP3    H254063   2.543   2.530   5.109 -0.1180 -1.6370 -0.9425
10858TIP3   OH254064   5.076   5.840  15.793  0.2335  0.3780 -0.2337
10858TIP3    H154065   5.065   5.906  15.724 -1.3926  1.0143  0.5867
10858TIP3    H254066   5.045   5.883  15.872 -2.7580 -1.9356  0.0121
10859TIP3   OH254067   3.698   6.157  10.697  0.6788 -0.3980  0.1266
10859TIP3    H154068   3.744   6.102  10.760  0.5275  0.6646  1.2067
10859TIP3    H254069   3.767   6.203  10.650  0.7767 -0.5201  0.1503
10860TIP3   OH254070   0.999   3.125  14.542  0.1704 -0.6962  0.9382
10860TIP3    H154071   1.002   3.057  14.610 -0.9129 -1.0495  0.6481
10860TIP3    H254072   1.088   3.127  14.507  0.3547 -1.5935  1.3214
10861TIP3   OH254073   3.116   3.837  16.405  0.0916 -0.0433  0.3610
10861TIP3    H154074   3.210   3.855  16.399  0.0539 -0.2184 -0.9428
10861TIP3    H254075   3.091   3.809  16.317 -1.3542  0.8265  0.4657
10862TIP3   OH254076   0.083   5.704  16.034  0.2938 -0.3093 -0.6710
10862TIP3    H154077   0.071   5.786  15.987  2.4258  1.6659  1.9502
10862TIP3    H254078   0.064   5.725  16.125 -0.6802 -3.1942 -0.0997
10863TIP3   OH254079   6.376   1.597   2.895  0.4415  0.2176 -0.6518
10863TIP3    H154080   6.429   1.568   2.821  1.8051  0.6632  0.1305
10863TIP3    H254081   6.333   1.517   2.926  0.2231 -0.0550 -1.6040
10864TIP3   OH254082   2.367   3.385   3.441  0.5387  0.4363  0.4192
10864TIP3    H154083   2.377   3.465   3.492 -1.7370 -0.2422  2.0858
10864TIP3    H254084   2.407   3.317   3.495 -1.6266 -0.2405  1.2685
10865TIP3   OH254085   2.073   3.371   5.051  0.3411 -0.3564  0.9645
10865TIP3    H154086   2.100   3.324   4.972  0.1002 -1.3654  1.4662
10865TIP3    H254087   1.984   3.339   5.068  1.1715 -1.8412  2.8534
10866TIP3   OH254088   2.672   1.431   3.796 -0.4537 -0.0253 -0.0452
10866TIP3    H154089   2.701   1.514   3.834  1.2850 -0.5107 -0.1968
10866TIP3    H254090   2.736   1.412   3.727 -0.4406 -1.7676  0.3846
10867TIP3   OH254091   0.863   0.257  15.434 -0.1307  0.2497  0.4874
10867TIP3    H154092   0.790   0.235  15.491 -0.8759 -0.0664 -0.5501
10867TIP3    H254093   0.841   0.343  15.398 -1.3497 -0.9051 -1.8166
10868TIP3   OH254094   3.134   5.020   0.770  0.6713  0.5974 -0.2964
10868TIP3    H154095   3.167   5.013   0.681  0.3569 -0.5094 -0.3436
10868TIP3    H254096   3.044   5.053   0.760  0.0450 -1.0688 -0.5392
10869TIP3   OH254097   3.137   3.486   4.426  0.1394 -0.4538 -0.0883
10869TIP3    H154098   3.188   3.417   4.467  0.5224  0.6248  1.3505
10869TIP3    H254099   3.046   3.459   4.437  0.2849 -0.7298  0.4518
10870TIP3   OH254100   3.862   4.446   2.414  0.0426  0.3669  0.7854
10870TIP3    H154101   3.903   4.453   2.328 -1.1064  2.4036  0.3256
10870TIP3    H254102   3.872   4.533   2.453 -1.6912  0.2572  1.6093
10871TIP3   OH254103   4.074   1.544  17.034 -0.2756  0.2573  0.3697
10871TIP3    H154104   4.013   1.477  17.003  1.0452 -0.8908  0.1520
10871TIP3    H254105   4.107   1.585  16.955  0.8005 -0.5900  0.3488
10872TIP3   OH254106   2.363   4.357   2.957  0.6068 -0.4231 -0.2419
10872TIP3    H154107   2.274   4.391   2.956  0.2135 -1.3526  1.0937
10872TIP3    H254108   2.357   4.272   2.915  1.3098  0.4256 -2.1815
10873TIP3   OH254109   4.405   1.220  15.571  0.0259  0.3198  0.0755
10873TIP3    H154110   4.409   1.314  15.585  0.7382 -0.0174  2.7248
10873TIP3    H254111   4.327   1.192  15.619  0.9998 -0.6386  1.1824
10874TIP3   OH254112   6.720   0.743   3.316 -0.0653 -0.3860  0.3424
10874TIP3    H154113   6.756   0.820   3.359 -0.2364 -0.3441  0.4105
10874TIP3    H254114   6.637   0.726   3.361  0.0373 -0.6911  0.4177
10875TIP3   OH254115   4.812   1.013   4.706 -0.7984 -0.2731 -0.0359
10875TIP3    H154116   4.723   0.981   4.690 -1.5041  2.1091 -1.3995
10875TIP3    H254117   4.801   1.107   4.724  1.4788  0.1587 -0.5906
10876TIP3   OH254118   4.244   2.673   0.431  0.4876  0.2174 -0.1543
10876TIP3    H154119   4.307   2.741   0.457  0.0914  1.2844 -1.8068
10876TIP3    H254120   4.183   2.667   0.505  2.9383 -1.4977  1.8906
10877TIP3   OH254121   3.609   3.273   3.309 -0.4544 -0.1479 -0.3656
10877TIP3    H154122   3.551   3.212   3.262 -0.0259 -0.8617  0.0192
10877TIP3    H254123   3.645   3.329   3.240 -1.9409  0.6128 -0.5666
10878TIP3   OH254124   4.422   2.448  17.232  0.3491 -0.3574  0.0113
10878TIP3    H154125   4.473   2.426  17.154  0.5725  0.3825 -0.0572
10878TIP3    H254126   4.344   2.393  17.227  0.7336 -0.8754 -0.3301
10879TIP3   OH254127   4.130   6.144   4.195  0.5625  0.3835 -0.2598
10879TIP3    H154128   4.113   6.211   4.261  1.7839  1.2737 -0.8189
10879TIP3    H254129   4.172   6.073   4.244  1.1174  0.8797 -0.0018
10880TIP3   OH254130   0.429   0.325  17.088 -0.2179 -0.1696  0.0358
10880TIP3    H154131   0.404   0.234  17.105  0.0142 -0.3170 -0.3852
10880TIP3    H254132   0.389   0.346  17.003 -1.0367  0.4262  0.5477
10881TIP3   OH254133   6.423   2.518  12.981  0.4309  0.0165  0.0917
10881TIP3    H154134   6.428   2.557  13.068  2.1913  1.6010 -0.6514
10881TIP3    H254135   6.382   2.432  12.995 -1.9458  1.3471  2.0346
10882TIP3   OH254136   6.250   6.596  11.075  0.4394  0.4371  0.0317
10882TIP3    H154137   6.245   6.608  10.980  3.6935 -0.5961 -0.4070
10882TIP3    H254138   6.197   6.518  11.092 -0.1484  0.6085 -0.9378
10883TIP3   OH254139   2.826   1.973   0.789  0.1605  0.5996 -0.2558
10883TIP3    H154140   2.901   2.031   0.803  1.1022 -0.4282 -0.9046
10883TIP3    H254141   2.750   2.027   0.812  1.1040  1.5198  0.8663
10884TIP3   OH254142   5.104   3.182   0.929 -0.3893  0.4023  0.1065
10884TIP3    H154143   5.154   3.142   1.001  1.9390  0.9995 -1.0581
10884TIP3    H254144   5.074   3.266   0.964  0.8305  0.7413  0.3877
10885TIP3   OH254145   5.858   6.413  14.258  0.0003  0.1354 -0.0412
10885TIP3    H154146   5.852   6.337  14.200 -1.2567 -0.7748  1.1957
10885TIP3    H254147   5.783   6.467  14.234  0.6147  0.7473 -0.5901
10886TIP3   OH254148   2.343   3.621   0.683 -0.3555 -0.3608  0.1743
10886TIP3    H154149   2.331   3.681   0.756 -1.0840 -2.5450  1.9583
10886TIP3    H254150   2.255   3.589   0.663 -0.1657  0.1608 -1.6965
10887TIP3   OH254151   4.694   3.705  16.658  0.4339  0.2780 -0.2345
10887TIP3    H154152   4.710   3.751  16.575  2.2718  0.2373  0.0578
10887TIP3    H254153   4.637   3.631  16.634  0.3457  0.6804 -1.3213
10888TIP3   OH254154   1.760   2.713  16.028 -0.4843 -0.1639  0.4047
10888TIP3    H154155   1.846   2.672  16.023 -1.1573 -1.7162  0.8720
10888TIP3    H254156   1.758   2.775  15.954  1.5105  0.9321  1.1990
10889TIP3   OH254157   1.950   1.228   5.190 -0.2359  0.2225 -0.0124
10889TIP3    H154158   2.040   1.197   5.176 -0.5876  0.0959 -2.4887
10889TIP3    H254159   1.896   1.164   5.144 -1.7668 -0.4172  2.5025
10890TIP3   OH254160   5.082   2.034  10.829  0.2880 -0.5024  0.0799
10890TIP3    H154161   5.118   2.100  10.770 -0.4641 -1.2454 -1.2411
10890TIP3    H254162   5.128   2.049  10.912 -0.0994  1.8962 -0.0623
10891TIP3   OH254163   2.345   5.639  16.848 -0.1722 -0.7941  0.1918
10891TIP3    H154164   2.360   5.616  16.939  1.9500 -1.8035 -0.3647
10891TIP3    H254165   2.416   5.598  16.800 -0.2640  1.0917 -1.7370
10892TIP3   OH254166   3.226   1.370  13.479 -0.4696 -0.2286  0.8244
10892TIP3    H154167   3.171   1.298  13.447 -0.9648 -0.0494  1.2460
10892TIP3    H254168   3.304   1.368  13.424 -1.0413 -0.2997  0.0086
10893TIP3   OH254169   5.585   2.913  16.751 -0.3472 -0.3988  0.0756
10893TIP3    H154170   5.505   2.946  16.711  0.0990 -0.1930 -0.6699
10893TIP3    H254171   5.655   2.945  16.694  0.3736  0.5694  1.4595
10894TIP3   OH254172   0.377   5.733  14.572 -0.6804  0.0863  0.3163
10894TIP3    H154173   0.468   5.762  14.571 -0.2683 -1.1708  0.7322
10894TIP3    H254174   0.328   5.810  14.542  0.6004  0.4269 -1.0369
10895TIP3   OH254175   4.305   1.707  13.456  0.0408 -0.1929 -0.5049
10895TIP3    H154176   4.335   1.793  13.426  2.0004  0.0934  1.9867
10895TIP3    H254177   4.346   1.645  13.397 -0.1517  0.5106 -1.3943
10896TIP3   OH254178   3.720   3.186  15.948 -0.2588 -0.0100  0.5899
10896TIP3    H154179   3.704   3.273  15.986 -0.1709  0.7770 -1.0343
10896TIP3    H254180   3.765   3.205  15.865  1.0694 -1.7067  0.8678
10897TIP3   OH254181   1.543   5.945  14.668  0.0065  0.5000 -0.2698
10897TIP3    H154182   1.498   5.909  14.592 -0.9652 -0.0454  0.5514
10897TIP3    H254183   1.512   6.036  14.673 -1.1165  0.1027  0.3469
10898TIP3   OH254184   0.202   4.946   2.163 -0.1385 -0.4566  0.4269
10898TIP3    H154185   0.212   4.871   2.222  2.2475 -1.8151 -1.5015
10898TIP3    H254186   0.122   4.928   2.115 -0.4616 -0.9125  1.1225
10899TIP3   OH254187   5.668   0.225  15.366  0.1971 -0.0268  0.1780
10899TIP3    H154188   5.724   0.276  15.425  0.1522 -0.7791  0.8878
10899TIP3    H254189   5.728   0.174  15.313  0.2489  0.8728 -0.6571
10900TIP3   OH254190   0.648   5.452   2.746 -0.3404  0.3332  0.5199
10900TIP3    H154191   0.585   5.427   2.814  0.0068  0.8332  1.0326
10900TIP3    H254192   0.659   5.373   2.693 -0.5800 -0.0727  1.0670
10901TIP3   OH254193   3.667   5.315  15.870 -0.0188  0.6630 -0.3662
10901TIP3    H154194   3.757   5.288  15.851 -0.4710  0.9456 -3.3694
10901TIP3    H254195   3.629   5.241  15.916  1.3836  0.0291 -0.1743
10902TIP3   OH254196   0.834   1.218   1.838  0.1523 -0.2774  0.4292
10902TIP3    H154197   0.885   1.137   1.848  1.3953  0.4375  0.0945
10902TIP3    H254198   0.744   1.188   1.828  0.7092 -1.6795 -0.7379
10903TIP3   OH254199   3.884   4.335  13.430  0.1316 -0.3084  0.1419
10903TIP3    H154200   3.959   4.344  13.488  1.0429 -3.3611 -0.3702
10903TIP3    H254201   3.837   4.258  13.464 -0.9584 -0.3946 -1.4295
10904TIP3   OH254202   1.126   1.353   4.382 -0.5708 -0.0028 -0.2742
10904TIP3    H154203   1.150   1.423   4.442  1.5701 -0.5240 -0.4573
10904TIP3    H254204   1.070   1.295   4.433  0.6505 -0.0764  1.0334
10905TIP3   OH254205   1.260   1.904   0.735 -0.1843 -0.3670  0.2085
10905TIP3    H154206   1.263   1.973   0.802 -1.6305  0.5848 -0.6450
10905TIP3    H254207   1.328   1.928   0.672 -0.5594  0.1956  0.0109
10906TIP3   OH254208   3.245   4.979   0.528  0.8245  0.2029  0.1822
10906TIP3    H154209   3.199   5.047   0.478  0.3841  0.9729  1.5874
10906TIP3    H254210   3.220   4.897   0.484  1.0112  0.8916 -1.2706
10907TIP3   OH254211   3.464   2.882  16.427  0.2246  0.6448  0.3039
10907TIP3    H154212   3.386   2.921  16.387 -0.5318 -1.3832 -0.3072
10907TIP3    H254213   3.534   2.944  16.408 -0.4371  0.6219 -2.7283
10908TIP3   OH254214   4.298   2.483  11.730 -0.1597 -1.0465  0.0972
10908TIP3    H154215   4.377   2.470  11.783  1.2439  1.2173 -1.2808
10908TIP3    H254216   4.273   2.395  11.702  2.7205 -1.7418 -0.5791
10909TIP3   OH254217   3.342   6.399  12.403  0.5087 -0.0006  0.3568
10909TIP3    H154218   3.407   6.429  12.467  0.3118  1.3641 -0.0307
10909TIP3    H254219   3.301   6.323  12.444  0.9168  0.3765  1.5272
10910TIP3   OH254220   5.589   0.737   2.262 -0.2515  0.2938 -0.8783
10910TIP3    H154221   5.525   0.684   2.215  0.3145 -1.5592  0.3476
10910TIP3    H254222   5.592   0.820   2.214 -2.2719 -0.2143 -1.9758
10911TIP3   OH254223   5.213   6.545  15.817  0.0979  0.6661 -0.5037
10911TIP3    H154224   5.250   6.632  15.802  0.2346  0.7284  0.1568
10911TIP3    H254225   5.200   6.541  15.912 -0.2533  0.1040 -0.5725
10912TIP3   OH254226   2.961   3.072   4.785 -1.0902 -0.0488 -0.7430
10912TIP3    H154227   2.866   3.064   4.771 -1.1927 -1.5328  0.5106
10912TIP3    H254228   3.000   3.035   4.706 -1.5174  0.7524 -1.3577
10913TIP3   OH254229   3.388   2.047   6.025 -0.2098 -0.0515 -0.0499
10913TIP3    H154230   3.401   2.031   5.931 -1.1122  2.4064 -0.6783
10913TIP3    H254231   3.301   2.087   6.030 -0.2142 -0.2420  1.8584
10914TIP3   OH254232   5.898   3.329  10.987  0.3780 -0.5407  0.2486
10914TIP3    H154233   5.812   3.371  10.992  0.7282  0.0053  2.4665
10914TIP3    H254234   5.889   3.267  10.914 -1.6360  0.0264 -0.0731
10915TIP3   OH254235   2.853   2.286   5.618  0.3230  0.1004 -0.0856
10915TIP3    H154236   2.894   2.369   5.594 -0.0560  1.0187  2.1861
10915TIP3    H254237   2.924   2.223   5.617  1.1658  1.0035  0.6906
10916TIP3   OH254238   0.935   0.339  13.631  0.0811 -0.0900  0.1937
10916TIP3    H154239   0.907   0.315  13.542 -2.3991  0.9964  0.6085
10916TIP3    H254240   0.946   0.255  13.676 -1.2422 -0.6136 -0.4124
10917TIP3   OH254241   0.493   3.615  14.100 -0.5000  0.0240 -0.2172
10917TIP3    H154242   0.503   3.579  14.189 -0.6304  0.2661 -0.1042
10917TIP3    H254243   0.412   3.575  14.068  0.0767 -0.8644 -0.6156
10918TIP3   OH254244   0.990   4.631   1.782  0.4593 -0.4497 -0.5582
10918TIP3    H154245   0.896   4.636   1.770  0.4753 -0.5543 -0.7314
10918TIP3    H254246   1.012   4.541   1.761  0.3001 -1.0543  1.5840
10919TIP3   OH254247   2.156   5.405  12.878  0.3901 -0.4249  0.3480
10919TIP3    H154248   2.189   5.389  12.790  2.0413  0.6170  0.7187
10919TIP3    H254249   2.089   5.338  12.892 -1.6621  0.8433 -2.5427
10920TIP3   OH254250   3.322   5.441  14.384  0.8158  0.4723  0.5449
10920TIP3    H154251   3.236   5.438  14.425 -0.0212  0.0899 -1.1214
10920TIP3    H254252   3.363   5.358  14.407  1.0326  0.9495  1.9216
10921TIP3   OH254253   5.485   6.321   6.738  0.2988 -0.0553  0.3186
10921TIP3    H154254   5.405   6.359   6.773 -0.2044 -0.6587 -0.1503
10921TIP3    H254255   5.458   6.236   6.703  1.4420 -1.0045  1.6367
10922TIP3   OH254256   1.094   2.638   2.770 -0.0636 -0.7282 -0.4170
10922TIP3    H154257   1.160   2.678   2.713 -0.9677  0.2073 -0.8382
10922TIP3    H254258   1.016   2.632   2.715 -0.4833 -1.3290  0.2321
10923TIP3   OH254259   5.756   4.976  12.445 -0.1635 -0.1644  0.3085
10923TIP3    H154260   5.677   5.009  12.489  0.8002 -0.0020  2.0127
10923TIP3    H254261   5.749   4.881  12.451 -1.5754 -0.3063 -2.1226
10924TIP3   OH254262   6.101   4.864   2.500  0.0262 -0.2900 -0.6937
10924TIP3    H154263   6.064   4.923   2.566  2.7094  1.6880 -0.7890
10924TIP3    H254264   6.078   4.904   2.416 -0.2265 -0.7702 -0.8595
10925TIP3   OH254265   4.742   0.199  16.488 -0.6927  0.0126 -0.3192
10925TIP3    H154266   4.754   0.174  16.580 -0.6395  2.2356  0.3365
10925TIP3    H254267   4.811   0.152  16.441  1.5894  1.5365  1.3171
10926TIP3   OH254268   6.083   4.824  12.354 -0.0128 -0.5750 -0.5691
10926TIP3    H154269   5.990   4.829  12.375  0.0893 -3.2909  1.1155
10926TIP3    H254270   6.124   4.892  12.407 -0.7353 -1.6312  1.4517
10927TIP3   OH254271   3.622   4.480  14.931  1.3530  0.1321  0.0468
10927TIP3    H154272   3.582   4.563  14.905 -0.2036  0.2259  2.4598
10927TIP3    H254273   3.594   4.418  14.863  2.5567  1.5062 -1.8046
10928TIP3   OH254274   3.719   5.787   4.684  0.4454  0.0562 -0.4255
10928TIP3    H154275   3.734   5.697   4.655  0.8361  0.3299 -1.1035
10928TIP3    H254276   3.663   5.779   4.760  0.8426 -0.7883 -0.2127
10929TIP3   OH254277   3.895   0.563   1.748 -0.0554 -0.4733 -0.1580
10929TIP3    H154278   3.966   0.538   1.689  1.0718 -0.8466  1.3057
10929TIP3    H254279   3.866   0.481   1.787 -0.1239 -0.1377  0.5184
10930TIP3   OH254280   0.556   6.653   1.241 -0.1402 -0.2536 -1.1290
10930TIP3    H154281   0.596   6.688   1.161  1.1874  3.2181  0.8398
10930TIP3    H254282   0.630   6.616   1.290 -0.2050  1.1161  0.0778
10931TIP3   OH254283   3.115   4.768  14.884  0.2681 -0.0745  0.0994
10931TIP3    H154284   3.093   4.700  14.947  0.4583 -0.3396 -0.1195
10931TIP3    H254285   3.053   4.755  14.811  0.0338  0.2445  0.2364
10932TIP3   OH254286   6.604   6.336  14.110  0.3754 -0.3954  0.3192
10932TIP3    H154287   6.514   6.304  14.109  0.7364 -1.4838  0.8585
10932TIP3    H254288   6.641   6.307  14.026 -0.3154  1.7656 -0.7952
10933TIP3   OH254289   3.343   2.171  11.703  0.1858  0.0641  0.5035
10933TIP3    H154290   3.285   2.103  11.736 -1.8063  2.0803  1.4474
10933TIP3    H254291   3.425   2.158  11.749 -0.5979 -0.8886  1.6818
10934TIP3   OH254292   2.121   0.080  11.815  0.4536 -0.0383  0.0201
10934TIP3    H154293   2.077   0.011  11.865  0.7028 -0.1913  0.0326
10934TIP3    H254294   2.050   0.128  11.773  0.2674 -0.1991  0.1460
10935TIP3   OH254295   1.223   0.761  16.720 -0.0566  0.1221  0.6264
10935TIP3    H154296   1.206   0.855  16.718  0.9585  0.3271 -1.8697
10935TIP3    H254297   1.227   0.735  16.628  1.4918 -2.0104  1.2077
10936TIP3   OH254298   2.952   1.762   1.985  0.3841 -0.2626  0.1869
10936TIP3    H154299   3.019   1.715   2.036 -0.8241 -0.8034  1.3324
10936TIP3    H254300   2.963   1.730   1.896  1.4809 -0.5365  0.4013
10937TIP3   OH254301   2.790   1.880   2.199  0.1182  0.3874  0.0706
10937TIP3    H154302   2.824   1.857   2.112  0.3932  0.8855  0.0451
10937TIP3    H254303   2.859   1.853   2.259 -0.1143 -0.0485  0.1459
10938TIP3   OH254304   0.379   5.125   1.078  0.0500 -0.1787  0.7092
10938TIP3    H154305   0.362   5.156   1.167 -0.7724  0.9784  0.1785
10938TIP3    H254306   0.346   5.195   1.022  1.4340 -0.4589 -0.4978
10939TIP3   OH254307   3.866   0.889   1.133  0.1299  0.2382 -0.6930
10939TIP3    H154308   3.849   0.968   1.185 -0.2375 -1.1689  1.4133
10939TIP3    H254309   3.819   0.819   1.178  0.4731 -1.2340 -2.4827
10940TIP3   OH254310   1.640   0.720  12.537 -0.3448 -0.0753  0.0455
10940TIP3    H154311   1.610   0.663  12.608  0.2970  0.9342  1.1717
10940TIP3    H254312   1.567   0.722  12.476 -1.1956 -0.4342  1.0175
10941TIP3   OH254313   1.297   3.636  12.052 -0.4065  0.5673  0.0637
10941TIP3    H154314   1.369   3.658  11.994  0.1441  0.8785  0.8451
10941TIP3    H254315   1.221   3.682  12.015  0.0230  1.0849 -0.1843
10942TIP3   OH254316   0.538   1.980   2.384 -0.0442 -0.6141 -0.0196
10942TIP3    H154317   0.485   2.032   2.324  0.3655 -1.2751 -0.9736
10942TIP3    H254318   0.610   1.948   2.331  0.3045 -1.2478  0.8195
10943TIP3   OH254319   2.689   5.035  13.390 -0.3798  0.0727  0.0942
10943TIP3    H154320   2.669   5.122  13.353  2.2923 -0.1141 -2.1201
10943TIP3    H254321   2.667   4.974  13.319  2.7832 -0.5104 -0.5264
10944TIP3   OH254322   4.315   5.942  16.803 -0.1386 -0.1040 -0.0661
10944TIP3    H154323   4.310   5.992  16.885  2.0973  1.5589 -0.8366
10944TIP3    H254324   4.341   6.007  16.737  1.2650 -1.9764 -1.4606
10945TIP3   OH254325   1.508   0.923   6.274  0.4754  0.6423  0.0062
10945TIP3    H154326   1.456   0.868   6.333  1.1693 -0.4216 -0.3454
10945TIP3    H254327   1.508   0.876   6.191  0.4690  1.5543 -0.5230
10946TIP3   OH254328   1.741   3.413  15.283 -0.0330  0.0960 -0.1022
10946TIP3    H154329   1.787   3.346  15.233 -1.1986 -0.2557 -0.7431
10946TIP3    H254330   1.718   3.480  15.219 -0.7324  0.0839  0.1272
10947TIP3   OH254331   5.528   0.191   2.887 -0.3932  0.3331  0.0970
10947TIP3    H154332   5.559   0.137   2.960  0.4766  2.1621  1.1615
10947TIP3    H254333   5.599   0.253   2.871 -1.6920  1.7550 -0.4411
10948TIP3   OH254334   3.011   0.758   1.808 -0.5718 -0.6961 -0.0429
10948TIP3    H154335   3.018   0.680   1.753  0.2433  0.5387 -1.7620
10948TIP3    H254336   3.056   0.827   1.759  0.1774  0.4985  2.1478
10949TIP3   OH254337   1.112   3.560   5.682 -0.6602  0.3188 -0.0818
10949TIP3    H154338   1.066   3.514   5.752 -0.5914  1.5311  0.7918
10949TIP3    H254339   1.058   3.637   5.664  0.8279  1.6094  0.7611
10950TIP3   OH254340   5.588   4.587  11.146 -0.1701 -0.2027 -0.2173
10950TIP3    H154341   5.555   4.520  11.087 -0.1274 -0.9415  0.5758
10950TIP3    H254342   5.666   4.548  11.186  0.1769  0.5298 -0.1537
10951TIP3   OH254343   6.667   3.154  12.302 -0.1595 -1.0429  0.0842
10951TIP3    H154344   6.625   3.092  12.362 -3.4125 -0.4550 -1.3341
10951TIP3    H254345   6.660   3.114  12.216  0.1830  0.0735 -0.4878
10952TIP3   OH254346   3.182   5.644  11.776  0.0378  0.5977 -0.3909
10952TIP3    H154347   3.156   5.728  11.814  2.6501  1.0743  0.5351
10952TIP3    H254348   3.178   5.659  11.681  0.2738  1.6984 -0.2383
10953TIP3   OH254349   0.259   6.528   0.889 -0.3085  0.0779 -0.1369
10953TIP3    H154350   0.252   6.589   0.816 -0.4936 -1.0260 -1.0761
10953TIP3    H254351   0.342   6.551   0.932 -0.5358  1.1816 -0.2749
10954TIP3   OH254352   1.174   5.730  15.456 -0.3263  0.0242 -0.2621
10954TIP3    H154353   1.245   5.793  15.466  0.1504 -0.3210 -1.3331
10954TIP3    H254354   1.217   5.649  15.428 -1.1217 -0.2415 -0.7523
10955TIP3   OH254355   4.241   4.152  13.813 -0.1807  0.0238  0.2188
10955TIP3    H154356   4.274   4.234  13.776 -2.1595 -0.1682 -2.3393
10955TIP3    H254357   4.158   4.176  13.854  0.9557 -0.1630  2.7763
10956TIP3   OH254358   2.601   2.898  14.252  0.8712 -0.4690  0.0341
10956TIP3    H154359   2.543   2.834  14.211  0.5394 -0.1473 -0.0099
10956TIP3    H254360   2.596   2.877  14.346 -0.3311  0.3468  0.1796
10957TIP3   OH254361   0.702   2.881  15.611  0.1223 -0.3510  0.7921
10957TIP3    H154362   0.637   2.937  15.570  1.5541  1.0238  0.2989
10957TIP3    H254363   0.723   2.816  15.544  2.0004  1.5183 -0.5491
10958TIP3   OH254364   0.801   6.767   1.874 -0.4178  0.5010  0.2500
10958TIP3    H154365   0.761   6.853   1.862  0.3555  1.1534  2.0651
10958TIP3    H254366   0.760   6.712   1.806 -0.0173  2.5594 -1.7933
10959TIP3   OH254367   3.311   5.080   3.828 -0.2786 -0.1837  0.4667
10959TIP3    H154368   3.334   5.003   3.777 -1.4461 -0.5774  0.5166
10959TIP3    H254369   3.251   5.129   3.772  1.0099  1.0921  0.1287
10960TIP3   OH254370   0.479   3.030  13.921 -0.2248  0.4001  0.3505
10960TIP3    H154371   0.546   3.066  13.863  0.9084 -0.9316  0.7680
10960TIP3    H254372   0.528   2.985  13.989 -1.5344 -0.9905  0.4315
10961TIP3   OH254373   2.780   2.130   2.276 -0.0520  0.3038 -0.1087
10961TIP3    H154374   2.789   2.038   2.251  0.7860  1.0868 -3.0095
10961TIP3    H254375   2.721   2.167   2.211 -0.8006  1.7620  1.3226
10962TIP3   OH254376   3.248   1.886  16.648  0.2699 -0.2877 -0.5025
10962TIP3    H154377   3.200   1.815  16.605 -0.0586  1.7310 -3.9346
10962TIP3    H254378   3.333   1.887  16.605  0.1163  1.5718 -0.8754
10963TIP3   OH254379   5.501   2.882  14.420  0.0863 -0.1456  0.2180
10963TIP3    H154380   5.462   2.817  14.362  1.9891  0.0331 -1.3637
10963TIP3    H254381   5.559   2.832  14.477 -0.4658 -0.1164  0.8172
10964TIP3   OH254382   5.344   0.744  14.815  0.3253  0.3036  0.2599
10964TIP3    H154383   5.260   0.720  14.854  0.8621 -3.1265 -0.3378
10964TIP3    H254384   5.328   0.744  14.721  0.8104  0.4594  0.1743
10965TIP3   OH254385   2.422   3.551  16.525 -0.2108  0.2949  0.5672
10965TIP3    H154386   2.464   3.632  16.495 -0.1537  0.7260  1.7269
10965TIP3    H254387   2.328   3.566  16.512 -0.0929 -0.4676 -1.5495
10966TIP3   OH254388   5.554   6.664   3.469  0.1518  0.3053  0.0413
10966TIP3    H154389   5.548   6.599   3.538  0.1160 -0.9409 -1.0932
10966TIP3    H254390   5.648   6.674   3.453  0.1256 -0.2555 -0.4894
10967TIP3   OH254391   2.630   5.882   5.418 -0.3987 -0.0775 -0.4278
10967TIP3    H154392   2.549   5.928   5.439 -1.0554 -1.9177  1.3156
10967TIP3    H254393   2.616   5.793   5.448  1.9991 -0.6547 -0.7983
10968TIP3   OH254394   1.344   4.597   3.471 -0.4925 -0.4393 -0.1653
10968TIP3    H154395   1.340   4.692   3.484 -1.1815 -0.3675 -0.9048
10968TIP3    H254396   1.380   4.564   3.554 -1.9107  0.2998  0.7955
10969TIP3   OH254397   1.072   2.214  13.246  0.1466  0.0838  0.8922
10969TIP3    H154398   1.037   2.166  13.321 -0.8935 -0.8806 -0.1628
10969TIP3    H254399   1.003   2.275  13.220 -1.4754 -2.6290 -1.9152
10970TIP3   OH254400   0.694   1.944   3.437  0.2832 -0.1303  0.1033
10970TIP3    H154401   0.686   1.979   3.349 -0.6997  1.0762  0.6426
10970TIP3    H254402   0.763   1.996   3.479  0.4654 -0.4252  0.1735
10971TIP3   OH254403   0.195   1.002   1.945  0.2527  0.1098 -0.1300
10971TIP3    H154404   0.102   1.008   1.925  0.3905 -0.9544 -1.1842
10971TIP3    H254405   0.214   1.082   1.995 -1.3230  0.0775  0.5847
10972TIP3   OH254406   1.401   0.039   5.328  0.0686 -0.1277  0.3048
10972TIP3    H154407   1.392   0.134   5.331 -1.8730 -0.2485  0.0434
10972TIP3    H254408   1.310   0.007   5.331  0.6861 -1.9709  0.5099
10973TIP3   OH254409   2.608   2.987   0.016  0.3396  0.4641 -0.4230
10973TIP3    H154410   2.596   3.040   0.094 -0.9479  0.5537 -0.6662
10973TIP3    H254411   2.681   2.928   0.038  0.2975  0.8007  0.6637
10974TIP3   OH254412   6.608   5.254   4.549  0.2785 -0.3770 -0.0967
10974TIP3    H154413   6.563   5.243   4.633  2.0270 -1.4965  0.7485
10974TIP3    H254414   6.612   5.166   4.511 -0.5455  0.1241 -1.4135
10975TIP3   OH254415   2.020   2.987   4.809 -1.1984  0.4910 -0.2946
10975TIP3    H154416   1.980   2.942   4.883 -0.1108  0.1158  0.0857
10975TIP3    H254417   2.113   2.963   4.813 -1.0658  0.7015 -1.6063
10976TIP3   OH254418   2.311   1.437   3.348  0.2913 -0.2880 -0.3623
10976TIP3    H154419   2.335   1.473   3.434  2.1714 -2.0870 -0.0633
10976TIP3    H254420   2.377   1.474   3.288 -0.7021  0.5474 -0.9684
10977TIP3   OH254421   6.763   0.837   2.115  0.3600  0.3518 -0.0013
10977TIP3    H154422   6.802   0.868   2.197 -0.3188  0.3589  0.3219
10977TIP3    H254423   6.820   0.765   2.087  0.5103  0.2489  0.5557
10978TIP3   OH254424   1.164   1.735   0.308  0.6040 -0.4314  0.6152
10978TIP3    H154425   1.077   1.749   0.270 -0.4715 -1.6904  2.4640
10978TIP3    H254426   1.152   1.753   0.401  2.0343 -1.7578  1.0874
10979TIP3   OH254427   5.199   1.176   3.553 -0.3440 -0.2809 -0.6887
10979TIP3    H154428   5.221   1.268   3.562  0.2370 -0.6170  2.1359
10979TIP3    H254429   5.282   1.133   3.532 -0.2636 -0.3477 -0.2474
10980TIP3   OH254430   1.377   2.689   0.466 -0.0053  0.2790 -0.0940
10980TIP3    H154431   1.292   2.663   0.429 -0.3109  0.2863  0.5816
10980TIP3    H254432   1.374   2.659   0.557  0.7867  0.1343 -0.1080
10981TIP3   OH254433   6.110   3.108  12.448  0.4784 -0.0880  1.0045
10981TIP3    H154434   6.062   3.079  12.371  2.9298 -1.0285 -0.2766
10981TIP3    H254435   6.109   3.032  12.507 -0.1663  0.1393  1.2978
10982TIP3   OH254436   4.449   1.533  14.575  0.3896  0.4249 -0.1966
10982TIP3    H154437   4.457   1.438  14.566 -1.1075  0.4309 -2.6634
10982TIP3    H254438   4.432   1.547  14.668  1.3297 -1.6399  0.3469
10983TIP3   OH254439   0.108   6.694   0.311  0.4543 -0.0695 -0.2936
10983TIP3    H154440   0.063   6.613   0.333  0.4751 -0.2644 -0.9454
10983TIP3    H254441   0.038   6.755   0.287  0.3025  0.6473  1.7998
10984TIP3   OH254442   5.006   4.585   6.483 -0.8501 -0.0531  0.5406
10984TIP3    H154443   5.079   4.544   6.435 -0.8441  0.6321 -0.0438
10984TIP3    H254444   5.032   4.677   6.492 -1.9505  0.3536 -0.2917
10985TIP3   OH254445   2.252   3.675  14.882  0.1859  0.2462  0.4464
10985TIP3    H154446   2.345   3.670  14.905  0.2808  0.1582  0.0657
10985TIP3    H254447   2.221   3.757  14.921  0.0634 -0.4346  1.8125
10986TIP3   OH254448   4.720   5.258  13.624  0.0536  0.1628 -0.3381
10986TIP3    H154449   4.793   5.221  13.574 -1.2459  0.6067 -2.6889
10986TIP3    H254450   4.653   5.191  13.621 -0.2795  0.4631  0.2770
10987TIP3   OH254451   5.698   0.924  11.633 -0.3417 -0.3285  0.1061
10987TIP3    H154452   5.758   0.968  11.573 -1.0277  2.1528  1.1110
10987TIP3    H254453   5.754   0.863  11.682  1.0115  0.6089 -0.2092
10988TIP3   OH254454   5.887   5.775   5.511  0.0455  0.0108  0.7420
10988TIP3    H154455   5.857   5.862   5.537  0.7666  0.7370 -0.7130
10988TIP3    H254456   5.837   5.756   5.431 -0.4050 -1.1101  1.2660
10989TIP3   OH254457   4.638   2.266  12.392  0.4001 -0.2257 -0.6712
10989TIP3    H154458   4.685   2.347  12.407  0.9818 -0.3460 -1.7474
10989TIP3    H254459   4.621   2.231  12.479  1.6929  0.1634 -0.2531
10990TIP3   OH254460   6.704   2.272   0.550 -0.1176  0.2608  0.0227
10990TIP3    H154461   6.758   2.296   0.474  1.7453  0.0331  1.2131
10990TIP3    H254462   6.728   2.181   0.568 -0.7518  0.2253  0.7381
10991TIP3   OH254463   6.646   2.110   5.238 -0.8630  0.2431 -0.0893
10991TIP3    H154464   6.711   2.177   5.259 -1.0002  0.5973 -0.7388
10991TIP3    H254465   6.619   2.075   5.323  1.2944 -1.0274  0.1530
10992TIP3   OH254466   3.555   0.966  13.341 -0.6891  0.5395 -0.4663
10992TIP3    H154467   3.468   1.001  13.358 -0.3533  1.1440  0.0816
10992TIP3    H254468   3.608   1.043  13.318 -0.4979  0.0706 -1.6519
10993TIP3   OH254469   5.127   3.866   6.085 -0.1015 -0.1773  0.2374
10993TIP3    H154470   5.165   3.818   6.011  2.1041  1.0688  0.4603
10993TIP3    H254471   5.037   3.884   6.058 -0.1402 -1.9650 -1.0202
10994TIP3   OH254472   3.010   3.842  14.818  0.0029 -0.2815  0.2843
10994TIP3    H154473   3.078   3.824  14.753  0.7163 -0.9490  1.1822
10994TIP3    H254474   2.956   3.763  14.819  0.3623 -0.5255  0.9289
10995TIP3   OH254475   5.124   4.985  13.273  0.0126 -0.2094  0.4257
10995TIP3    H154476   5.033   4.970  13.299 -0.2199  0.9815  0.3526
10995TIP3    H254477   5.118   5.011  13.181  0.4750 -0.5814  0.2874
10996TIP3   OH254478   3.759   2.055   1.217 -0.5659 -0.1589 -0.1875
10996TIP3    H154479   3.848   2.086   1.199  1.0795 -3.3416  1.6387
10996TIP3    H254480   3.730   2.015   1.135  1.1561 -2.1048  0.0739
10997TIP3   OH254481   4.022   5.118   4.446 -0.0916  0.0085  0.3035
10997TIP3    H154482   3.948   5.110   4.386 -0.3149  1.5673  0.3278
10997TIP3    H254483   3.984   5.102   4.533 -0.5782  1.5220  0.3897
10998TIP3   OH254484   6.765   1.387   1.158 -0.1965 -0.1339  0.0147
10998TIP3    H154485   6.688   1.419   1.111 -0.3692 -0.0746  0.3323
10998TIP3    H254486   6.731   1.358   1.243  0.7208  4.9911  2.5566
10999TIP3   OH254487   3.455   1.923  11.898  0.6903 -0.4502  0.5785
10999TIP3    H154488   3.473   2.014  11.923  0.4740 -1.0309  3.1788
10999TIP3    H254489   3.362   1.923  11.874  0.7570  0.0523  0.2935
11000TIP3   OH254490   3.426   3.806   2.117  0.4529  0.5121  0.7994
11000TIP3    H154491   3.378   3.845   2.044 -0.1603 -1.2969  0.1747
11000TIP3    H254492   3.393   3.852   2.194  0.9512  2.3037 -0.0215
11001TIP3   OH254493   6.481   3.201  12.590  0.2184  0.2399  0.8166
11001TIP3    H154494   6.451   3.157  12.670 -3.1973  1.2487  0.2638
11001TIP3    H254495   6.546   3.142  12.553 -0.8423 -2.1106  2.4424
11002TIP3   OH254496   1.609   3.024   1.227 -0.1016  0.5690  0.5033
11002TIP3    H154497   1.590   3.115   1.207 -0.2964  0.3819 -0.1877
11002TIP3    H254498   1.581   3.013   1.318  0.4390  1.3377  0.7718
11003TIP3   OH254499   6.766   4.928   0.540 -0.0083  0.3391 -0.1296
11003TIP3    H154500   6.719   4.988   0.598 -0.9642  1.1826 -1.7165
11003TIP3    H254501   6.767   4.845   0.588 -1.2696  0.8565  0.8656
11004TIP3   OH254502   0.326   4.121   4.555  0.3692 -0.3293  0.1141
11004TIP3    H154503   0.249   4.167   4.588  1.3029  1.9867 -0.6605
11004TIP3    H254504   0.296   4.076   4.476 -0.1731  0.7573 -0.3185
11005TIP3   OH254505   1.125   1.018   2.834  0.4832  0.2597  0.2993
11005TIP3    H154506   1.191   1.076   2.795  0.8169  0.4989  1.1975
11005TIP3    H254507   1.053   1.076   2.858  0.1520  0.0703 -0.2191
11006TIP3   OH254508   3.200   5.245  11.714  0.1519 -0.2808  0.1649
11006TIP3    H154509   3.227   5.303  11.643  2.8540  1.7275  2.6102
11006TIP3    H254510   3.183   5.304  11.788 -2.4024 -2.2791  1.3447
11007TIP3   OH254511   1.511   4.639   1.981  0.0514 -0.4358 -0.4684
11007TIP3    H154512   1.420   4.668   1.978 -0.2397 -1.0335  1.3010
11007TIP3    H254513   1.506   4.544   1.965  0.5690 -0.2148 -2.0994
11008TIP3   OH254514   5.362   1.549   1.256 -0.1318  0.1204 -0.4621
11008TIP3    H154515   5.389   1.459   1.237  1.7066  0.3092  0.8945
11008TIP3    H254516   5.278   1.560   1.212 -0.1533 -2.0962 -1.0567
11009TIP3   OH254517   4.907   2.834  16.551 -0.4544  0.6307  0.6937
11009TIP3    H154518   4.954   2.862  16.472  0.4140  0.6966  1.2230
11009TIP3    H254519   4.964   2.769  16.591 -2.2055 -1.6851 -0.2655
11010TIP3   OH254520   2.673   2.553  11.448  0.1312 -0.1898 -0.2234
11010TIP3    H154521   2.632   2.470  11.472  0.8666 -0.3070  0.6893
11010TIP3    H254522   2.705   2.588  11.531 -0.3284  1.0990 -0.5703
11011TIP3   OH254523   0.267   0.340   5.912  0.3923  0.2517 -0.5731
11011TIP3    H154524   0.203   0.410   5.925  1.4423  1.7330 -2.6732
11011TIP3    H254525   0.216   0.268   5.876 -0.4121  0.6504 -0.2615
11012TIP3   OH254526   1.106   5.213   2.883 -0.3933  0.2148 -0.7732
11012TIP3    H154527   1.167   5.286   2.893 -0.2990  0.3173 -1.9897
11012TIP3    H254528   1.091   5.181   2.972  0.8217  0.6914 -0.3925
11013TIP3   OH254529   4.560   3.984  14.160 -0.5252 -0.5764  0.4507
11013TIP3    H154530   4.614   3.915  14.200 -0.3418 -0.6180  0.1384
11013TIP3    H254531   4.532   3.946  14.076 -2.5363 -1.2653  1.3714
11014TIP3   OH254532   0.949   1.593  12.125 -0.2008  0.3000 -0.0438
11014TIP3    H154533   0.887   1.556  12.062  1.8686  0.3896 -2.2784
11014TIP3    H254534   0.894   1.623  12.197 -2.5863 -1.0119 -1.1840
11015TIP3   OH254535   1.606   0.786  14.472 -0.2808 -0.1851 -0.4898
11015TIP3    H154536   1.547   0.773  14.397 -0.6736  1.1291 -0.4370
11015TIP3    H254537   1.619   0.881  14.475  0.7792 -0.3417  0.3248
11016TIP3   OH254538   5.637   5.841  16.358  0.5054 -0.2849  0.1960
11016TIP3    H154539   5.590   5.909  16.309  0.3666  0.1862  0.9648
11016TIP3    H254540   5.729   5.857  16.338  0.3946 -0.7234 -0.6998
11017TIP3   OH254541   3.625   1.893  14.462 -0.1371 -0.0674  0.6760
11017TIP3    H154542   3.549   1.898  14.520 -0.3523  0.6291  0.3498
11017TIP3    H254543   3.591   1.917  14.376 -0.1657 -2.5862 -0.1126
11018TIP3   OH254544   0.461   6.561   0.676 -0.0162 -0.0558  0.1687
11018TIP3    H154545   0.496   6.506   0.607 -0.7198  0.8909 -0.9762
11018TIP3    H254546   0.451   6.502   0.751  0.0947 -1.2625 -0.7423
11019TIP3   OH254547   5.751   6.426  12.834 -0.9886 -0.2639  0.1987
11019TIP3    H154548   5.797   6.509  12.832 -0.7230 -0.4185 -1.5519
11019TIP3    H254549   5.811   6.366  12.878  0.3916 -0.3725 -1.7271
11020TIP3   OH254550   4.385   5.235   5.694 -0.6933 -0.3716 -0.0112
11020TIP3    H154551   4.303   5.271   5.728 -1.6492  0.9663 -3.2490
11020TIP3    H254552   4.367   5.142   5.681 -1.6195 -0.1555 -0.3751
11021TIP3   OH254553   4.507   0.024  12.728 -0.0313 -0.5173  0.5040
11021TIP3    H154554   4.556   0.090  12.680  0.9927  0.0189  2.2129
11021TIP3    H254555   4.422   0.064  12.746 -0.5414 -0.8309 -1.0290
11022TIP3   OH254556   4.299   4.524   0.638  0.0950 -0.2009 -0.1562
11022TIP3    H154557   4.354   4.595   0.604  0.5350 -0.9778 -1.1177
11022TIP3    H254558   4.358   4.449   0.641 -0.8277 -0.9766 -0.9287
11023TIP3   OH254559   0.155   6.501  13.230  0.4515 -0.7061  0.0892
11023TIP3    H154560   0.243   6.476  13.261  0.3944 -1.0865 -0.0578
11023TIP3    H254561   0.156   6.480  13.137  0.6051  0.3928 -0.1739
11024TIP3   OH254562   5.346   3.228  12.293  0.1762  0.0611 -0.0052
11024TIP3    H154563   5.430   3.275  12.294 -0.0359  0.4501 -0.1966
11024TIP3    H254564   5.288   3.283  12.345  0.4611 -1.0304  1.5553
11025TIP3   OH254565   3.014   1.750  11.756 -0.1463  0.1070  1.0124
11025TIP3    H154566   2.942   1.734  11.695 -0.5189 -0.2716  1.5283
11025TIP3    H254567   2.980   1.719  11.841  0.9260 -0.9018  1.1111
11026TIP3   OH254568   1.031   1.596   0.903  0.2705  0.2633  0.2635
11026TIP3    H154569   0.956   1.537   0.908  1.3312 -1.0586  1.3489
11026TIP3    H254570   0.993   1.684   0.900 -1.3167 -0.3751  0.9202
11027TIP3   OH254571   1.975   1.732   4.067 -0.2111 -0.6576  0.3217
11027TIP3    H154572   2.006   1.819   4.043  0.3252 -0.7257  0.7292
11027TIP3    H254573   2.049   1.694   4.116  0.7876 -2.4318 -2.3303
11028TIP3   OH254574   2.196   3.149  16.486  0.3195  0.2120 -0.3117
11028TIP3    H154575   2.201   3.080  16.419  0.2658 -1.7313  1.5732
11028TIP3    H254576   2.102   3.157  16.504  0.4367 -0.7129  0.8603
11029TIP3   OH254577   3.473   3.687  13.015 -0.4426 -0.4489  0.2458
11029TIP3    H154578   3.543   3.752  13.023 -1.3409  0.4079  1.6866
11029TIP3    H254579   3.451   3.686  12.922  0.0373  0.8610  0.0932
11030TIP3   OH254580   3.329   2.549   3.771  0.2220  0.4232  0.5258
11030TIP3    H154581   3.396   2.505   3.822  1.1221 -1.4154 -2.0580
11030TIP3    H254582   3.246   2.521   3.811  0.8910 -0.1837  1.5258
11031TIP3   OH254583   0.927   4.540   3.354 -0.1067 -0.0262  0.0036
11031TIP3    H154584   0.906   4.534   3.447  0.8615  0.8491  0.2939
11031TIP3    H254585   0.900   4.629   3.329  0.6843  0.1401 -0.2720
11032TIP3   OH254586   1.549   6.487   0.417 -0.0533  0.3065  0.2539
11032TIP3    H154587   1.463   6.445   0.418  0.2725 -0.3498  0.9200
11032TIP3    H254588   1.533   6.572   0.376 -1.3093  0.8057  1.6803
11033TIP3   OH254589   0.625   4.549   1.583  0.5158 -0.6245  0.5122
11033TIP3    H154590   0.659   4.561   1.671 -1.6060 -2.2489  1.6421
11033TIP3    H254591   0.569   4.625   1.568  1.3835 -0.0194  0.2774
11034TIP3   OH254592   4.420   1.357   5.194 -0.2362  0.0997 -0.4401
11034TIP3    H154593   4.470   1.329   5.118  0.6148 -0.3988  0.2829
11034TIP3    H254594   4.422   1.453   5.190 -2.8403  0.1710 -2.7206
11035TIP3   OH254595   2.062   3.074  15.593  0.4484  0.4633  0.3209
11035TIP3    H154596   2.147   3.033  15.577  0.1507 -0.1280  0.2221
11035TIP3    H254597   2.022   3.080  15.506 -0.2268 -0.6552  0.5252
11036TIP3   OH254598   4.513   1.063   5.447 -0.2334  0.1970 -0.2661
11036TIP3    H154599   4.481   0.984   5.492  0.0339  0.3569  0.2149
11036TIP3    H254600   4.448   1.080   5.379 -0.8070  0.1261  0.2614
11037TIP3   OH254601   2.449   4.507   4.853 -0.3067 -0.1258 -0.0511
11037TIP3    H154602   2.405   4.429   4.820  0.7808 -1.2021  0.9492
11037TIP3    H254603   2.389   4.579   4.833 -1.9029 -1.3608  0.1032
11038TIP3   OH254604   4.065   4.022   5.951  0.4128  0.5503 -0.2806
11038TIP3    H154605   4.013   4.006   6.029  0.5223  0.6611 -0.1853
11038TIP3    H254606   4.100   3.936   5.927  0.7827  0.6011  0.0758
11039TIP3   OH254607   3.083   3.081   5.728 -0.1119  0.0360 -0.0200
11039TIP3    H154608   3.041   3.056   5.811  0.6793  0.1421  0.4299
11039TIP3    H254609   3.029   3.040   5.661  0.1037 -1.3862  0.6232
11040TIP3   OH254610   3.393   0.323  12.851  0.7280 -0.7534 -0.1200
11040TIP3    H154611   3.433   0.265  12.916 -1.4282 -0.9014  1.1419
11040TIP3    H254612   3.418   0.411  12.880  0.9306 -0.8761  0.0883
11041TIP3   OH254613   3.958   2.130  11.812 -0.0640 -0.4303 -0.5034
11041TIP3    H154614   3.907   2.074  11.870 -0.0909 -0.3912 -0.4896
11041TIP3    H254615   3.934   2.219  11.837  3.1250 -0.1802  2.4660
11042TIP3   OH254616   4.546   3.618   5.362  0.7465 -0.2216 -0.3464
11042TIP3    H154617   4.551   3.523   5.358  3.0493 -0.1201 -1.2573
11042TIP3    H254618   4.636   3.648   5.353  0.1611  2.0555  0.5303
11043TIP3   OH254619   6.344   2.387   1.691  0.0797 -0.5320 -0.2031
11043TIP3    H154620   6.396   2.343   1.624  0.4302 -1.2099  0.4920
11043TIP3    H254621   6.375   2.349   1.773  0.0750  0.7101  0.3914
11044TIP3   OH254622   5.981   0.698   1.101  0.5953 -0.5331  0.8536
11044TIP3    H154623   5.899   0.728   1.062  1.5817  0.5151 -0.5220
11044TIP3    H254624   5.986   0.605   1.078  0.4871 -0.2551 -0.4087
11045TIP3   OH254625   2.795   4.814   5.090  0.5105 -0.3532 -0.0081
11045TIP3    H154626   2.853   4.753   5.043 -0.1918 -0.4000 -0.8289
11045TIP3    H254627   2.722   4.828   5.031  1.1132  2.0770 -0.2942
11046TIP3   OH254628   0.126   5.103   1.682 -0.4808  0.8097  0.1728
11046TIP3    H154629   0.157   5.116   1.593 -0.1406  0.7157  0.2772
11046TIP3    H254630   0.063   5.175   1.696 -0.8576  0.5790 -0.2856
11047TIP3   OH254631   3.002   4.274  12.193 -0.1904  0.2919 -0.6650
11047TIP3    H154632   3.083   4.232  12.222 -0.3226  0.7924  0.4703
11047TIP3    H254633   2.942   4.201  12.177 -0.2172 -0.0030  0.6855
11048TIP3   OH254634   4.242   5.852  15.861 -0.4530  0.7212 -0.5870
11048TIP3    H154635   4.161   5.887  15.825 -0.2954  0.0539 -1.6409
11048TIP3    H254636   4.264   5.778  15.804 -0.0581 -0.2366  0.7537
11049TIP3   OH254637   1.666   6.763  14.925 -0.1510 -0.0419  0.0404
11049TIP3    H154638   1.613   6.748  15.003 -0.6231 -1.1811 -0.4774
11049TIP3    H254639   1.745   6.710  14.939  0.3463  0.7384  0.2860
11050TIP3   OH254640   3.046   5.540  16.970  0.1222  0.3683 -0.3583
11050TIP3    H154641   3.079   5.563  17.057 -0.2092  0.9271 -0.3812
11050TIP3    H254642   3.000   5.618  16.940  2.3908  1.1435 -2.1027
11051TIP3   OH254643   6.505   5.838  10.923 -0.0995  0.7368  0.4224
11051TIP3    H154644   6.448   5.914  10.937 -1.2279  0.4746 -2.1072
11051TIP3    H254645   6.541   5.851  10.835  1.0051 -0.8624  0.5952
11052TIP3   OH254646   3.320   6.363  15.735  0.1799 -0.0145  0.8395
11052TIP3    H154647   3.258   6.291  15.722 -0.8735  0.8974  0.7042
11052TIP3    H254648   3.390   6.324  15.788  0.8594 -1.7905 -1.2018
11053TIP3   OH254649   5.810   0.543   3.159 -0.0158 -0.0574 -0.5022
11053TIP3    H154650   5.868   0.509   3.227 -1.2934 -1.5373 -0.0773
11053TIP3    H254651   5.868   0.573   3.089  1.3331  1.5071  1.2087
11054TIP3   OH254652   3.475   4.018   4.451 -0.0372 -0.6733 -0.3009
11054TIP3    H154653   3.518   4.079   4.391 -2.2204  1.0281 -0.2929
11054TIP3    H254654   3.466   3.937   4.401  1.4273 -0.4743 -0.9322
11055TIP3   OH254655   1.121   1.855  14.774 -0.0652  0.4861  0.5353
11055TIP3    H154656   1.179   1.830  14.702 -0.4785 -0.7957  0.6071
11055TIP3    H254657   1.037   1.875  14.732 -0.5981 -1.2279  0.6911
11056TIP3   OH254658   0.908   5.703   0.821 -0.3146  0.2905 -0.5005
11056TIP3    H154659   0.822   5.659   0.824 -0.0952 -0.3101 -2.1168
11056TIP3    H254660   0.970   5.636   0.850 -0.3104  0.5140  0.0149
11057TIP3   OH254661   0.361   4.805   2.545 -0.3706 -0.0166 -0.1699
11057TIP3    H154662   0.345   4.790   2.452 -2.7338  0.7996  0.0279
11057TIP3    H254663   0.346   4.719   2.586 -1.4405  0.0656 -0.3515
11058TIP3   OH254664   6.562   4.578  13.183 -0.1035  0.1616 -0.0338
11058TIP3    H154665   6.565   4.626  13.265 -1.6724  1.5760 -0.7439
11058TIP3    H254666   6.528   4.641  13.119 -1.1146 -1.5369 -1.2673
11059TIP3   OH254667   4.174   0.483  14.210  0.5480 -0.1741  0.4757
11059TIP3    H154668   4.190   0.569  14.171  2.5684 -1.2661 -1.2809
11059TIP3    H254669   4.259   0.455  14.243 -0.1042 -1.4615  1.1390
11060TIP3   OH254670   4.373   2.024   4.193 -0.7855  0.0332 -0.8419
11060TIP3    H154671   4.356   2.082   4.119  0.2530  1.4970  0.0197
11060TIP3    H254672   4.468   2.010   4.191 -1.0868 -2.4811 -1.5905
11061TIP3   OH254673   5.709   1.631   4.718 -0.4487  0.6016  0.0567
11061TIP3    H154674   5.706   1.537   4.699  1.1619  0.5603 -0.1235
11061TIP3    H254675   5.801   1.650   4.731 -0.9434  1.6814  2.6660
11062TIP3   OH254676   5.002   2.541  12.908  0.2022 -0.2069 -0.0646
11062TIP3    H154677   5.015   2.631  12.939  1.1572 -0.8678  1.5871
11062TIP3    H254678   5.079   2.524  12.853 -1.0145  0.6370 -2.1565
11063TIP3   OH254679   3.294   1.734   0.916  0.0253 -0.0577  0.0472
11063TIP3    H154680   3.298   1.814   0.969  1.0148 -0.1810  0.1641
11063TIP3    H254681   3.344   1.755   0.837  1.7047 -1.0767  0.7908
11064TIP3   OH254682   6.167   3.641  16.246 -0.7875 -0.6353  0.1276
11064TIP3    H154683   6.215   3.659  16.164 -2.0361 -0.3981 -0.5762
11064TIP3    H254684   6.180   3.720  16.298 -0.3390 -0.6121 -0.0108
11065TIP3   OH254685   4.117   4.036  12.567 -0.2619  0.0022  0.3612
11065TIP3    H154686   4.077   4.105  12.514  1.4435  2.2186  1.7867
11065TIP3    H254687   4.207   4.030  12.537 -0.6949 -2.7560 -0.7202
11066TIP3   OH254688   0.407   0.079  12.319  0.2005  0.5476 -0.1740
11066TIP3    H154689   0.318   0.047  12.304 -0.3562  0.8319  2.1779
11066TIP3    H254690   0.402   0.173  12.306  1.1696  0.2395 -4.0771
11067TIP3   OH254691   2.511   0.757  15.321 -0.6975  0.1545  0.6571
11067TIP3    H154692   2.424   0.729  15.352  0.5820 -1.1777  3.4277
11067TIP3    H254693   2.571   0.690  15.355  1.4983  1.2540 -0.8084
11068TIP3   OH254694   0.208   4.597  15.611 -0.1621 -0.9989 -0.2895
11068TIP3    H154695   0.226   4.568  15.521 -0.7160 -1.6571 -0.2015
11068TIP3    H254696   0.146   4.532  15.645  0.1462 -0.8390  0.6158
11069TIP3   OH254697   1.448   4.281   1.627  0.0660  0.0704 -0.2188
11069TIP3    H154698   1.368   4.310   1.583  0.2638  0.9626 -0.0040
11069TIP3    H254699   1.514   4.346   1.603  0.3706  0.1322  0.7534
11070TIP3   OH254700   0.031   0.586   0.503 -0.3226 -0.6826  0.1225
11070TIP3    H154701  -0.030   0.659   0.513  0.2630 -0.3948  1.8821
11070TIP3    H254702  -0.019   0.509   0.532 -0.4543 -0.7498 -0.2782
11071TIP3   OH254703   0.404   4.107   2.374  0.1982  0.0046  0.0987
11071TIP3    H154704   0.374   4.185   2.327  2.1414  1.7922  1.6002
11071TIP3    H254705   0.372   4.034   2.322 -1.8586  1.7756 -1.3205
11072TIP3   OH254706   4.058   1.913  15.926 -0.1220 -0.4876 -0.2504
11072TIP3    H154707   4.000   1.951  15.860 -1.0425  0.9976  1.3492
11072TIP3    H254708   4.023   1.825  15.941 -0.0880 -0.7285 -1.4760
11073TIP3   OH254709   6.592   2.394  12.747 -0.3430  0.0527 -0.3793
11073TIP3    H154710   6.559   2.430  12.829 -1.1183 -0.7936 -0.3013
11073TIP3    H254711   6.675   2.439  12.733 -0.7638  1.0641  0.2564
11074TIP3   OH254712   5.082   1.931  12.169  0.5266  0.2609 -0.3943
11074TIP3    H154713   5.010   1.993  12.181 -0.3170 -0.9172  0.8715
11074TIP3    H254714   5.155   1.971  12.216 -0.0675  0.2168  0.5914
11075TIP3   OH254715   6.392   2.898  17.103 -0.2798  0.3081 -0.1032
11075TIP3    H154716   6.371   2.917  17.012  0.2775 -1.4560 -0.6515
11075TIP3    H254717   6.389   2.983  17.147 -0.8109  1.1590 -1.7065
11076TIP3   OH254718   4.548   0.134   4.731 -0.7218 -0.3590 -0.0075
11076TIP3    H154719   4.588   0.169   4.651 -1.3914  2.0231  0.6150
11076TIP3    H254720   4.463   0.100   4.702  0.2073 -2.1794 -0.7384
11077TIP3   OH254721   6.318   5.512  13.948 -1.1199  0.1692 -0.3092
11077TIP3    H154722   6.250   5.464  13.994  0.1189 -1.7907 -0.4185
11077TIP3    H254723   6.373   5.548  14.018  1.0857 -3.2734 -0.0584
11078TIP3   OH254724   1.742   3.118  14.567 -0.4842 -0.1667  0.1936
11078TIP3    H154725   1.708   3.100  14.479 -0.7562  0.6953  0.1159
11078TIP3    H254726   1.783   3.035  14.594  0.4270 -0.1788 -1.1175
11079TIP3   OH254727   0.177   1.001   3.923 -0.6421 -0.4081  0.7784
11079TIP3    H154728   0.272   0.992   3.915 -0.6420  0.3674 -0.3865
11079TIP3    H254729   0.161   1.094   3.909 -1.5058 -0.3759  1.8824
11080TIP3   OH254730   4.968   3.669   6.354  0.5871 -0.2066  0.6953
11080TIP3    H154731   5.024   3.626   6.420  1.1435  1.0491  1.0833
11080TIP3    H254732   5.010   3.754   6.340 -1.6173  1.1044  1.5394
11081TIP3   OH254733   0.112   0.014  12.288  0.2274  0.1923 -0.4550
11081TIP3    H154734   0.067   0.022  12.372  0.6529 -1.3108 -0.0466
11081TIP3    H254735   0.135  -0.079  12.282  0.4617  0.3270 -2.1059
11082TIP3   OH254736   5.917   1.106  12.817  0.2855  0.0300  0.2274
11082TIP3    H154737   5.954   1.109  12.906  0.7101  0.0588  0.0515
11082TIP3    H254738   5.829   1.068  12.830  0.3599 -0.0127  0.6535
11083TIP3   OH254739   2.306   0.099   6.160  0.0133  0.2874  0.2138
11083TIP3    H154740   2.351   0.180   6.184 -0.6265 -0.0700  2.9567
11083TIP3    H254741   2.230   0.096   6.218 -1.1641 -1.2591 -1.3061
11084TIP3   OH254742   2.070   0.379   1.492  0.1055 -0.1919 -0.1725
11084TIP3    H154743   2.012   0.351   1.562 -0.8735 -1.0422 -1.2901
11084TIP3    H254744   2.154   0.395   1.536 -0.9458  1.1524  1.4895
11085TIP3   OH254745   1.285   4.957  10.951 -0.2871 -0.2046  0.7623
11085TIP3    H154746   1.356   5.019  10.967  1.3674 -1.9154  0.4188
11085TIP3    H254747   1.220   5.008  10.903  1.2966  1.1073 -0.1234
11086TIP3   OH254748   2.082   2.042   5.858  0.3343 -0.2130  0.1985
11086TIP3    H154749   2.076   2.137   5.853  0.4293 -0.2458 -0.8201
11086TIP3    H254750   2.094   2.023   5.951  2.0169  0.8594  0.2285
11087TIP3   OH254751   4.392   4.318  12.237 -0.1227  0.4581 -0.4581
11087TIP3    H154752   4.457   4.268  12.188 -0.0409 -0.4331  0.5325
11087TIP3    H254753   4.423   4.408  12.232  0.9354  0.1085 -0.3927
11088TIP3   OH254754   5.511   0.392  11.967 -0.2733  0.0208 -0.3212
11088TIP3    H154755   5.589   0.422  12.014 -0.3748 -0.0708 -0.0909
11088TIP3    H254756   5.544   0.335  11.898 -0.1536 -0.2874 -0.0149
11089TIP3   OH254757   2.838   4.034  13.445  0.0529  0.5214  0.6318
11089TIP3    H154758   2.892   4.058  13.520  1.5714 -3.1306  0.9132
11089TIP3    H254759   2.900   4.028  13.372 -0.4781 -0.7259  0.2540
11090TIP3   OH254760   2.489   6.403  15.911 -0.6149  0.5769 -0.1269
11090TIP3    H154761   2.468   6.395  16.004 -1.7865 -0.1310 -0.4219
11090TIP3    H254762   2.577   6.440  15.909 -0.2855 -0.0616  1.2663
11091TIP3   OH254763   4.429   5.710  12.690  0.1450 -0.3320  0.2147
11091TIP3    H154764   4.365   5.654  12.646  1.4625 -0.2913 -1.8844
11091TIP3    H254765   4.481   5.649  12.743  0.0925 -0.7825 -0.2360
11092TIP3   OH254766   3.621   5.426  14.882 -0.3056  0.0920 -0.0572
11092TIP3    H154767   3.643   5.504  14.832  2.1184 -0.8748 -0.6219
11092TIP3    H254768   3.624   5.354  14.819 -1.8400 -0.5916  0.5789
11093TIP3   OH254769   2.029   6.000  17.159  0.3133 -0.2176 -0.1446
11093TIP3    H154770   1.935   6.020  17.159  0.1191 -1.0135 -1.5683
11093TIP3    H254771   2.059   6.024  17.071  1.3746 -0.3309  0.1714
11094TIP3   OH254772   6.116   1.003   1.457  0.4069  0.5182  0.0800
11094TIP3    H154773   6.077   0.953   1.529 -0.0793 -3.0653 -2.3943
11094TIP3    H254774   6.041   1.029   1.403  0.9164  1.3391 -0.2541
11095TIP3   OH254775   2.819   1.231   2.920 -0.5745  0.6057  0.7440
11095TIP3    H154776   2.905   1.196   2.945 -1.6153 -1.8893  1.1785
11095TIP3    H254777   2.790   1.280   2.997  0.2862  1.1647  0.7282
11096TIP3   OH254778   4.688   3.111  14.153  0.1013  0.6509  0.2554
11096TIP3    H154779   4.643   3.161  14.221  0.1575 -0.2216  0.9529
11096TIP3    H254780   4.627   3.040  14.131  0.1260  0.8737 -0.5329
11097TIP3   OH254781   2.514   3.637  12.303  0.0411  0.4465  0.8112
11097TIP3    H154782   2.528   3.587  12.222  0.2238 -2.1133  2.3280
11097TIP3    H254783   2.429   3.608  12.335 -0.2283  1.7547  1.3403
11098TIP3   OH254784   6.583   4.643  12.695  0.0417 -0.3489  0.4683
11098TIP3    H154785   6.646   4.683  12.636 -0.7475 -2.5911 -2.0438
11098TIP3    H254786   6.635   4.587  12.752  0.4169 -2.3940 -1.7561
11099TIP3   OH254787   1.285   3.021  16.798 -0.0544 -0.6268 -0.2666
11099TIP3    H154788   1.316   2.930  16.799 -2.1867 -1.3828  0.3281
11099TIP3    H254789   1.253   3.037  16.886 -2.3586 -0.3011 -1.0922
11100TIP3   OH254790   1.078   4.396   2.393 -0.6325 -0.5881  0.7886
11100TIP3    H154791   1.043   4.479   2.360  1.4800  1.4849  3.2451
11100TIP3    H254792   1.165   4.389   2.354 -0.1298 -0.7236  1.8807
11101TIP3   OH254793   5.927   4.361   1.785  0.0909  0.0784  0.3267
11101TIP3    H154794   5.958   4.438   1.738 -2.4850 -0.2931 -2.2887
11101TIP3    H254795   5.967   4.287   1.739 -1.6328 -0.2489 -0.7525
11102TIP3   OH254796   0.753   1.961   2.907  0.5437 -0.2490 -0.1000
11102TIP3    H154797   0.816   2.031   2.891 -0.1138  0.6480  1.0211
11102TIP3    H254798   0.712   1.945   2.823 -0.1097  1.5610 -0.1758
11103TIP3   OH254799   6.789   6.308  12.507  0.5738  0.1091  0.0274
11103TIP3    H154800   6.730   6.351  12.569 -0.3121  0.2927 -0.9223
11103TIP3    H254801   6.811   6.376  12.443  1.7117  0.0008  0.2752
11104TIP3   OH254802   2.867   6.610   5.048 -0.1600 -0.2668  0.5759
11104TIP3    H154803   2.821   6.553   4.986  0.5235 -1.3753  1.0619
11104TIP3    H254804   2.870   6.560   5.129  1.1679  0.1121  0.7826
11105TIP3   OH254805   5.572   5.633   5.635  0.6129  0.0442 -0.5447
11105TIP3    H154806   5.648   5.628   5.693 -0.1884  2.0203  0.7714
11105TIP3    H254807   5.516   5.561   5.665  2.4053 -2.3053 -2.3949
11106TIP3   OH254808   6.269   5.195  10.109  0.0138  0.6086  0.1782
11106TIP3    H154809   6.336   5.213  10.175  0.2713  1.6231 -0.3392
11106TIP3    H254810   6.201   5.148  10.157  0.6100  0.5125  0.9575
11107TIP3   OH254811   0.070   2.825   2.134 -0.6228 -0.4454 -0.0794
11107TIP3    H154812   0.037   2.777   2.058 -1.2866  0.6211 -0.4861
11107TIP3    H254813   0.149   2.869   2.103 -0.9293  0.0421 -0.1832
11108TIP3   OH254814   0.322   4.005   2.111 -0.6688 -0.1115  0.0419
11108TIP3    H154815   0.304   4.062   2.036 -1.1893  0.7728  0.8186
11108TIP3    H254816   0.366   3.929   2.073 -1.6804 -0.0786 -1.2681
11109TIP3   OH254817   1.188   4.676  12.292  0.1221 -0.1507 -0.1696
11109TIP3    H154818   1.145   4.613  12.235  0.9180 -1.3559  0.5220
11109TIP3    H254819   1.263   4.629  12.329  0.1508  0.8624  1.1694
11110TIP3   OH254820   5.782   3.202  16.697  0.5007 -0.1691 -0.2233
11110TIP3    H154821   5.823   3.207  16.784  2.7828  1.8426 -1.3011
11110TIP3    H254822   5.813   3.120  16.661 -1.7865 -1.8623  1.3684
11111TIP3   OH254823   2.859   3.249   1.172  0.0150  0.0700  0.4588
11111TIP3    H154824   2.911   3.321   1.208  0.6009  0.2561 -0.7209
11111TIP3    H254825   2.774   3.288   1.152  0.4552  0.5545 -0.5425
11112TIP3   OH254826   5.973   2.555  15.373 -0.0752  0.1194 -0.6252
11112TIP3    H154827   6.060   2.562  15.333  0.5122 -0.9584  0.3740
11112TIP3    H254828   5.912   2.550  15.300  0.7606  0.3677 -1.3498
11113TIP3   OH254829   4.984   4.669   3.971  0.1420 -0.8890  0.6182
11113TIP3    H154830   4.939   4.694   3.890 -0.0880 -1.1834  0.6533
11113TIP3    H254831   4.914   4.641   4.030  0.1253  0.8401  1.4960
11114TIP3   OH254832   6.499   5.871   6.009 -0.1533  0.4113 -0.0638
11114TIP3    H154833   6.588   5.874   6.044 -0.3151  1.3937  0.2817
11114TIP3    H254834   6.448   5.827   6.077  0.0055  0.1273 -0.1269
11115TIP3   OH254835   1.286   3.400  11.199  0.9091  0.0126 -0.1171
11115TIP3    H154836   1.218   3.350  11.154 -1.0335  2.5748 -0.2738
11115TIP3    H254837   1.358   3.403  11.137 -0.1152 -0.0513 -1.3534
11116TIP3   OH254838   1.051   2.731   5.732 -0.1839 -0.4454  0.2317
11116TIP3    H154839   1.130   2.745   5.785  0.4466 -1.9229 -0.2733
11116TIP3    H254840   0.979   2.747   5.792  0.4959  0.3727  0.8565
11117TIP3   OH254841   0.021   0.787  16.587 -0.1144 -0.3406 -1.3196
11117TIP3    H154842   0.111   0.771  16.616  0.0269  2.6549  0.2058
11117TIP3    H254843  -0.032   0.725  16.637  0.5553  2.0668  2.8190
11118TIP3   OH254844   0.060   1.612   3.722 -0.1456  0.1751  0.6977
11118TIP3    H154845   0.061   1.640   3.813  0.3190 -0.5624  0.9225
11118TIP3    H254846  -0.028   1.576   3.709 -0.7984  1.7706  0.3745
11119TIP3   OH254847   2.091   0.854  17.016 -0.5247  0.2941 -0.1536
11119TIP3    H154848   2.081   0.934  16.963 -0.2208  0.3692 -0.1016
11119TIP3    H254849   2.091   0.885  17.106  1.7555  0.5228 -0.1543
11120TIP3   OH254850   5.210   2.666  14.765  0.3267 -1.0031  0.2271
11120TIP3    H154851   5.211   2.737  14.700 -0.7257 -1.3733 -0.2183
11120TIP3    H254852   5.277   2.605  14.734  1.0203 -0.3691  0.4407
11121TIP3   OH254853   2.792   4.163   5.765  0.1323 -0.2694  0.2682
11121TIP3    H154854   2.817   4.153   5.673 -0.2094 -0.7564  0.2221
11121TIP3    H254855   2.697   4.156   5.766  0.1206 -0.1005  0.6384
11122TIP3   OH254856   5.154   4.119  13.369  0.2947 -0.0205  0.0486
11122TIP3    H154857   5.247   4.139  13.362  0.2505  0.2392  0.1608
11122TIP3    H254858   5.110   4.201  13.344  0.0556 -0.6830 -1.8719
11123TIP3   OH254859   0.614   2.290  16.334  0.0381 -0.3869  0.2304
11123TIP3    H154860   0.655   2.249  16.411  2.2334 -0.0283 -0.6725
11123TIP3    H254861   0.597   2.380  16.362 -0.8188 -0.7241  0.8414
11124TIP3   OH254862   1.419   1.755  12.591 -0.0304  0.3040  0.0817
11124TIP3    H154863   1.358   1.733  12.521  1.1890  2.9707 -1.9950
11124TIP3    H254864   1.494   1.697  12.577  0.3382  1.0315 -1.1009
11125TIP3   OH254865   4.107   5.037  16.860  0.2340  0.8324  0.0633
11125TIP3    H154866   4.165   4.980  16.809 -2.2982 -1.1961 -0.7666
11125TIP3    H254867   4.085   4.985  16.937 -4.6271 -1.0425 -2.1603
11126TIP3   OH254868   1.818   0.586  16.555 -0.1763  0.1029 -0.2932
11126TIP3    H154869   1.799   0.646  16.627 -0.5022 -0.4499  0.0902
11126TIP3    H254870   1.865   0.639  16.491 -1.1401  0.9736 -0.3101
11127TIP3   OH254871   1.852   2.731   1.290 -0.5594 -0.0822 -0.5638
11127TIP3    H154872   1.795   2.798   1.327 -1.0848 -0.5270 -0.5522
11127TIP3    H254873   1.941   2.761   1.311 -0.7808  0.6674 -0.6783
11128TIP3   OH254874   5.577   0.401   6.313  0.3707 -0.3435  0.3571
11128TIP3    H154875   5.495   0.395   6.361 -0.1060 -2.1571 -0.5929
11128TIP3    H254876   5.631   0.330   6.348  0.9979 -0.0555 -0.0024
11129TIP3   OH254877   6.436   2.744  16.174  0.0702 -0.1888 -0.1853
11129TIP3    H154878   6.485   2.662  16.169 -0.6357 -0.5313 -2.4994
11129TIP3    H254879   6.346   2.720  16.154 -0.3357  1.0334  0.0816
11130TIP3   OH254880   3.660   3.699  16.240 -0.0303 -0.5778 -0.0730
11130TIP3    H154881   3.698   3.702  16.328  2.1138  1.6461 -0.9574
11130TIP3    H254882   3.630   3.609  16.230 -2.4476 -0.4373  3.7038
11131TIP3   OH254883   2.298   1.829  14.365  0.0955 -0.0718 -0.0439
11131TIP3    H154884   2.348   1.823  14.447 -0.0652 -0.2739  0.0400
11131TIP3    H254885   2.219   1.878  14.388 -0.7188 -1.4831  0.3008
11132TIP3   OH254886   2.643   5.057  11.306  0.1970 -0.5184 -0.1481
11132TIP3    H154887   2.714   5.055  11.370  1.9653 -0.5187 -1.9720
11132TIP3    H254888   2.614   5.148  11.306  0.5948 -0.3864  0.2542
11133TIP3   OH254889   4.588   2.129  17.239  0.3215 -0.1597 -1.1530
11133TIP3    H154890   4.590   2.214  17.194 -0.3733 -0.4236 -1.6993
11133TIP3    H254891   4.652   2.139  17.310 -0.5486  1.1951 -0.5145
11134TIP3   OH254892   2.801   2.889  15.422 -0.4108  0.3147  0.0981
11134TIP3    H154893   2.726   2.941  15.392 -0.4766  0.1695  0.0077
11134TIP3    H254894   2.872   2.912  15.362 -0.0724  1.2722  0.8487
11135TIP3   OH254895   6.454   3.246  15.031 -0.2362  0.4322 -0.0104
11135TIP3    H154896   6.369   3.227  14.991  0.1477 -1.1274 -0.1589
11135TIP3    H254897   6.518   3.222  14.964  0.3435  1.2090  0.2448
11136TIP3   OH254898   2.375   3.685   5.885 -0.2364 -0.2675 -0.2781
11136TIP3    H154899   2.329   3.671   5.803 -2.7143  0.6232  0.8483
11136TIP3    H254900   2.342   3.616   5.943 -1.7024  1.4704  1.1001
11137TIP3   OH254901   6.436   2.229   0.436 -1.0542  0.0404 -0.7465
11137TIP3    H154902   6.458   2.142   0.470  0.4638 -0.3903 -2.6181
11137TIP3    H254903   6.474   2.290   0.498 -0.7867 -0.6645 -0.2022
11138TIP3   OH254904   5.928   4.060  13.705 -0.0823  0.1021  0.4353
11138TIP3    H154905   5.964   3.972  13.713  1.6416  0.3464 -2.9182
11138TIP3    H254906   5.997   4.117  13.739 -0.1014  0.2912  0.1551
11139TIP3   OH254907   0.154   5.443  16.098  0.3726 -0.0183  0.3004
11139TIP3    H154908   0.245   5.451  16.127  0.6770 -0.5950 -0.4598
11139TIP3    H254909   0.125   5.533  16.084  0.7481  0.1809  0.7694
11140TIP3   OH254910   3.110   6.312   1.173  0.5815 -0.0669 -0.3144
11140TIP3    H154911   3.032   6.329   1.119  1.0253 -1.1464 -1.3324
11140TIP3    H254912   3.080   6.329   1.263  0.3628  3.7859 -0.9283
11141TIP3   OH254913   0.260   3.376  13.292  0.9087 -0.3445 -0.4473
11141TIP3    H154914   0.190   3.438  13.313  2.2745  1.7977 -1.7399
11141TIP3    H254915   0.308   3.365  13.373  1.1467  1.0410 -0.3737
11142TIP3   OH254916   0.669   5.768  16.654  0.7046 -0.3663 -0.6469
11142TIP3    H154917   0.596   5.707  16.657  1.7573 -1.6949  2.1235
11142TIP3    H254918   0.690   5.777  16.562 -2.8486  0.0715 -1.5749
11143TIP3   OH254919   0.974   6.208  15.214 -0.2300 -0.0906 -0.0149
11143TIP3    H154920   1.061   6.193  15.251 -1.0949 -0.8629  1.8293
11143TIP3    H254921   0.948   6.293  15.249 -0.5723 -0.2777  0.1898
11144TIP3   OH254922   1.760   2.321   3.328  0.3520  0.2724 -0.3099
11144TIP3    H154923   1.834   2.346   3.383 -0.4826  0.8937  0.5643
11144TIP3    H254924   1.703   2.398   3.328  0.0878  0.1046 -1.6467
11145TIP3   OH254925   0.363   6.560  16.922  0.4070 -0.2157  0.0592
11145TIP3    H154926   0.384   6.467  16.914 -1.9197 -0.9757  1.6566
11145TIP3    H254927   0.315   6.567  17.004 -2.8010  1.6815 -1.7589
11146TIP3   OH254928   4.014   1.689   0.893 -0.0102  0.1129  0.2115
11146TIP3    H154929   3.938   1.633   0.904 -0.6701  1.1167  0.9195
11146TIP3    H254930   4.077   1.656   0.958 -0.3065  0.0392  0.4647
11147TIP3   OH254931   2.431   5.963  11.025  0.2581 -0.4913 -0.4677
11147TIP3    H154932   2.458   5.955  10.933 -1.1100 -0.3484 -0.9092
11147TIP3    H254933   2.420   6.057  11.039 -1.6585 -0.6021 -0.8579
11148TIP3   OH254934   3.785   3.086  12.743 -0.0162 -0.0723 -0.0382
11148TIP3    H154935   3.863   3.040  12.774  0.1209  0.8581  1.0865
11148TIP3    H254936   3.713   3.025  12.758 -0.1490  0.6730  3.3817
11149TIP3   OH254937   2.497   2.646  15.440 -0.6180  0.2734  0.0128
11149TIP3    H154938   2.463   2.729  15.473  1.2148  0.3371  1.9319
11149TIP3    H254939   2.553   2.670  15.367 -0.1728  0.7390  0.5019
11150TIP3   OH254940   3.460   1.663   4.933 -0.0244  0.1863  0.0809
11150TIP3    H154941   3.391   1.720   4.969 -0.4348 -0.5667  0.5238
11150TIP3    H254942   3.519   1.722   4.888 -1.7691  0.7218 -1.6409
11151TIP3   OH254943   4.809   4.211   2.089 -0.0134  0.0863  0.1200
11151TIP3    H154944   4.832   4.241   2.177  1.3440 -1.6139  0.3930
11151TIP3    H254945   4.767   4.286   2.048  0.2660  1.2422  1.8676
11152TIP3   OH254946   5.968   2.704   5.270 -0.4354 -0.1001  0.9137
11152TIP3    H154947   6.017   2.640   5.322  1.2702 -0.4670 -1.0445
11152TIP3    H254948   5.876   2.679   5.282  0.1433 -2.5861  0.6765
11153TIP3   OH254949   2.725   4.379   0.416  0.7459  0.0691  0.1012
11153TIP3    H154950   2.671   4.363   0.339  1.5615 -0.3657 -0.3993
11153TIP3    H254951   2.677   4.444   0.466 -0.3486 -0.4662 -0.2123
11154TIP3   OH254952   1.181   0.466   3.184 -0.1164  0.9684  0.2332
11154TIP3    H154953   1.210   0.557   3.189 -0.7539  1.1342  1.2438
11154TIP3    H254954   1.239   0.425   3.119  1.7127  1.5075  1.4548
11155TIP3   OH254955   5.598   4.062   2.089  0.3181  0.1501 -0.2300
11155TIP3    H154956   5.598   4.142   2.036  0.2592  0.7426  0.6560
11155TIP3    H254957   5.681   4.019   2.067  0.4593  0.5720 -0.5412
11156TIP3   OH254958   3.001   3.148   6.048 -0.0147 -0.3544 -0.1480
11156TIP3    H154959   3.046   3.064   6.061 -2.0467 -1.3232  1.2013
11156TIP3    H254960   2.986   3.181   6.137 -0.7094  0.6080 -0.6028
11157TIP3   OH254961   3.842   2.729   1.608 -0.1992  0.2589  0.5216
11157TIP3    H154962   3.818   2.649   1.653  2.1768 -1.1354 -0.4963
11157TIP3    H254963   3.856   2.702   1.517 -0.8640  2.1611 -0.1964
11158TIP3   OH254964   0.918   2.602   2.555  0.2597 -0.4176 -0.5842
11158TIP3    H154965   0.964   2.597   2.471 -0.8010 -0.8959 -1.1464
11158TIP3    H254966   0.854   2.672   2.544 -0.3136 -0.9058 -0.3994
11159TIP3   OH254967   6.637   0.430   6.649 -0.7987  0.1316 -0.4646
11159TIP3    H154968   6.584   0.470   6.717 -1.1675 -0.1926 -0.5547
11159TIP3    H254969   6.574   0.386   6.592 -0.4538 -0.0490 -0.7157
11160TIP3   OH254970   2.323   5.467   3.675  0.0623  0.1608  0.0368
11160TIP3    H154971   2.351   5.426   3.594  1.8293 -0.8314  1.0733
11160TIP3    H254972   2.228   5.475   3.667  0.2768  1.0517 -2.5161
11161TIP3   OH254973   4.432   2.414  15.704  0.1307 -0.0514  0.1975
11161TIP3    H154974   4.394   2.464  15.632  0.6068 -0.7440 -0.5488
11161TIP3    H254975   4.470   2.480  15.762 -1.4343  0.6110  0.5450
11162TIP3   OH254976   5.052   0.518   3.042  0.0533 -0.2428  0.0163
11162TIP3    H154977   5.095   0.603   3.031 -0.6451  0.4108  1.8369
11162TIP3    H254978   4.962   0.541   3.067 -1.0775 -1.5536 -2.4285
11163TIP3   OH254979   3.232   2.290   0.659 -0.2965 -0.1312  0.5022
11163TIP3    H154980   3.197   2.215   0.708  0.7430 -1.8600 -1.2105
11163TIP3    H254981   3.312   2.314   0.705 -1.3552  0.8912  1.8661
11164TIP3   OH254982   2.253   5.836   4.402  0.2074 -0.1674 -0.2606
11164TIP3    H154983   2.333   5.867   4.445  0.3774  0.0586 -0.7240
11164TIP3    H254984   2.207   5.786   4.469  0.0023  0.9655  0.4711
11165TIP3   OH254985   2.113   3.875   0.703  0.1863  0.2369  0.8354
11165TIP3    H154986   2.198   3.867   0.745  1.1520 -2.7282 -1.3585
11165TIP3    H254987   2.081   3.785   0.695 -1.0940  0.8138 -2.3031
11166TIP3   OH254988   2.574   1.617   4.136  0.3059 -0.5681  0.2422
11166TIP3    H154989   2.594   1.702   4.096  0.1314 -0.5734  0.1425
11166TIP3    H254990   2.501   1.583   4.084 -0.3570 -0.2837  0.9657
11167TIP3   OH254991   5.314   6.082  15.750  0.0440 -0.3191 -0.7166
11167TIP3    H154992   5.344   6.164  15.710  1.9174 -0.6353 -0.0578
11167TIP3    H254993   5.286   6.108  15.838 -1.1269 -0.1089 -1.1440
11168TIP3   OH254994   3.970   3.641  15.029  0.0157 -0.4767 -0.3439
11168TIP3    H154995   3.970   3.590  15.111  0.7331 -0.3133 -0.2431
11168TIP3    H254996   3.905   3.710  15.044  0.6114 -0.0496  0.3418
11169TIP3   OH254997   3.150   6.405   0.368 -0.2237  0.5252 -0.5339
11169TIP3    H154998   3.157   6.406   0.273  1.8413  0.6229 -0.4081
11169TIP3    H254999   3.225   6.454   0.399  1.0367 -2.2534  1.2178
11170TIP3   OH255000   1.687   5.109   2.077 -0.8909 -0.2718 -0.1935
11170TIP3    H155001   1.734   5.035   2.113  1.0468  1.4019  0.9238
11170TIP3    H255002   1.598   5.100   2.110 -0.7199 -2.0891 -0.1398
11171TIP3   OH255003   6.428   4.031   1.120  0.2044  0.0038  0.2992
11171TIP3    H155004   6.448   4.122   1.141  1.0592 -0.3801  1.2220
11171TIP3    H255005   6.357   4.008   1.179  0.3624 -0.0899  0.4534
11172TIP3   OH255006   4.451   0.761   5.428 -0.4642  0.1190  0.0133
11172TIP3    H155007   4.370   0.811   5.422 -0.4452  0.2223  0.5534
11172TIP3    H255008   4.428   0.674   5.394 -0.8592  0.0836  0.3615
11173TIP3   OH255009   3.321   0.464  13.827  0.7282 -0.4225  0.0697
11173TIP3    H155010   3.411   0.433  13.835  0.8340 -0.2537 -0.4499
11173TIP3    H255011   3.290   0.470  13.918  1.0598 -0.9948  0.2310
11174TIP3   OH255012   0.599   0.869   1.463 -0.3204  0.1022  0.3204
11174TIP3    H155013   0.668   0.909   1.516 -0.7611  0.6788  0.4621
11174TIP3    H255014   0.643   0.795   1.419  0.3776  0.4389  0.4362
11175TIP3   OH255015   6.389   4.801   5.658  0.2686  0.0086 -0.1476
11175TIP3    H155016   6.447   4.827   5.587 -1.1968  1.2178 -0.9471
11175TIP3    H255017   6.311   4.855   5.647  0.3319  0.8995  2.9338
11176TIP3   OH255018   4.247   5.255  12.357  0.0002  0.2350 -0.0697
11176TIP3    H155019   4.184   5.204  12.408  1.3688 -0.4195  1.0089
11176TIP3    H255020   4.269   5.199  12.283 -0.6516  0.4658 -0.4520
11177TIP3   OH255021   4.633   4.278  13.058 -0.4475  0.1747  0.2437
11177TIP3    H155022   4.613   4.193  13.098 -0.9265 -0.1708 -0.6997
11177TIP3    H255023   4.657   4.256  12.968 -1.2669  1.1130 -0.2093
11178TIP3   OH255024   3.634   1.727   3.090 -0.0859  0.2555  0.5432
11178TIP3    H155025   3.697   1.657   3.076 -0.7382 -0.3708  0.7128
11178TIP3    H255026   3.587   1.735   3.007  0.4740  1.0071  0.2767
11179TIP3   OH255027   0.346   4.817  15.048  0.2633  0.3480  0.2527
11179TIP3    H155028   0.265   4.843  15.005  0.4341 -0.3309 -0.5013
11179TIP3    H255029   0.415   4.857  14.996  0.4650 -0.3292 -0.0115
11180TIP3   OH255030   1.253   1.612   2.718 -0.1468  0.3946 -0.2637
11180TIP3    H155031   1.166   1.585   2.691  0.7208 -0.5993 -2.2565
11180TIP3    H255032   1.304   1.616   2.637  1.7395  0.6396  0.8630
11181TIP3   OH255033   4.879   2.013   4.757  0.0403 -0.1624 -0.0645
11181TIP3    H155034   4.834   2.097   4.766  0.7880  0.2521 -0.0461
11181TIP3    H255035   4.853   1.963   4.834  0.6917  0.5982  0.6724
11182TIP3   OH255036   1.509   5.842  12.381 -0.0172  0.5973  0.0496
11182TIP3    H155037   1.443   5.909  12.363  0.1903  0.9473  0.5665
11182TIP3    H255038   1.558   5.876  12.456  0.6136  0.2398 -0.1937
11183TIP3   OH255039   2.304   2.638   1.372  0.2572  0.3473 -0.4378
11183TIP3    H155040   2.310   2.718   1.424 -0.1910 -0.6019  1.1412
11183TIP3    H255041   2.239   2.657   1.305 -0.4883  1.0392  0.4506
11184TIP3   OH255042   6.218   2.924  14.279 -0.5652 -0.1853 -0.0918
11184TIP3    H155043   6.292   2.869  14.306  0.3654  1.1225  0.1361
11184TIP3    H255044   6.259   3.004  14.247 -1.9167  1.0724  1.1776
11185TIP3   OH255045   3.000   1.114   1.137  0.1486  0.1588  0.1691
11185TIP3    H155046   3.086   1.105   1.178  0.4524  1.2002 -0.2166
11185TIP3    H255047   2.971   1.202   1.161 -0.9021 -0.2582  0.4622
11186TIP3   OH255048   2.968   6.005   1.267 -0.6878  0.6867 -0.2619
11186TIP3    H155049   3.052   6.038   1.299  0.0307 -0.6472 -0.6985
11186TIP3    H255050   2.991   5.929   1.214 -2.2641 -0.5166  0.6949
11187TIP3   OH255051   2.163   6.732  12.725  0.0352  0.1195  0.6783
11187TIP3    H155052   2.231   6.681  12.769 -0.3753  0.2418  1.4608
11187TIP3    H255053   2.085   6.722  12.779 -0.8755 -0.8460 -0.7442
11188TIP3   OH255054   4.257   0.249  11.434  0.2778  0.0865  0.8649
11188TIP3    H155055   4.309   0.237  11.355 -1.8176 -1.3235 -0.3785
11188TIP3    H255056   4.245   0.161  11.469  0.3283  0.5881  2.2370
11189TIP3   OH255057   3.617   6.729  15.298  0.5022  0.0492  0.0884
11189TIP3    H155058   3.623   6.633  15.300 -1.9172 -0.1429  0.5366
11189TIP3    H255059   3.627   6.755  15.389  2.6113  0.3936 -0.1949
11190TIP3   OH255060   0.703   1.799  16.931  0.2410  0.0810  0.0896
11190TIP3    H155061   0.656   1.717  16.914 -2.4968  1.3575  0.9276
11190TIP3    H255062   0.711   1.840  16.845 -0.6678  0.0789 -0.0017
11191TIP3   OH255063   4.563   6.687   3.699  0.1027  0.5327 -0.1900
11191TIP3    H155064   4.484   6.734   3.674  0.3314 -0.4315 -3.1140
11191TIP3    H255065   4.634   6.738   3.659  0.8076  0.3392  0.7819
11192TIP3   OH255066   2.166   5.956   0.162  0.5628 -0.0284 -0.0482
11192TIP3    H155067   2.107   5.990   0.095  0.7680  0.4387  0.0052
11192TIP3    H255068   2.220   6.031   0.187  0.2524 -0.1048  0.8942
11193TIP3   OH255069   2.540   3.605  13.395  0.2276  0.2298 -0.3221
11193TIP3    H155070   2.589   3.625  13.315 -1.5485 -0.2296 -1.6037
11193TIP3    H255071   2.604   3.567  13.454  1.5098  0.1539 -1.7001
11194TIP3   OH255072   4.828   4.159  12.217 -0.4309  0.1946  0.1974
11194TIP3    H155073   4.910   4.208  12.220 -0.6210  0.5042  2.2960
11194TIP3    H255074   4.849   4.075  12.258 -0.9967  0.0204  0.1437
11195TIP3   OH255075   0.172   2.805  13.016  0.5998  0.8823  0.2027
11195TIP3    H155076   0.118   2.868  13.064 -0.0592  0.0389  0.6013
11195TIP3    H255077   0.188   2.846  12.931 -1.8666  0.5895 -0.4817
11196TIP3   OH255078   0.171   3.801   4.099  0.1206 -0.1963 -0.1153
11196TIP3    H155079   0.247   3.828   4.048 -0.6572 -0.4817 -1.4660
11196TIP3    H255080   0.096   3.841   4.054 -0.6150 -0.6865  0.6397
11197TIP3   OH255081   6.512   2.912   1.908  0.3245  0.5881 -0.7060
11197TIP3    H155082   6.457   2.920   1.830 -0.9339  1.7093  0.2508
11197TIP3    H255083   6.528   2.818   1.917 -2.3086  0.1009 -0.4528
11198TIP3   OH255084   0.756   5.052  12.074 -0.0156 -0.1828  0.3174
11198TIP3    H155085   0.725   5.141  12.087  0.9446  0.4696 -1.5282
11198TIP3    H255086   0.679   4.997  12.088 -0.9436  1.0403  0.1359
11199TIP3   OH255087   1.981   4.126  12.562  0.0885 -0.0937 -0.4369
11199TIP3    H155088   2.054   4.172  12.605  0.6776  0.3359 -1.8489
11199TIP3    H255089   2.020   4.046  12.528 -0.0365  0.2292 -1.3657
11200TIP3   OH255090   3.359   5.155   3.451 -0.4357  0.0559  0.3362
11200TIP3    H155091   3.304   5.146   3.373 -1.8584 -0.3517  1.3490
11200TIP3    H255092   3.296   5.165   3.523  0.8433  1.4019  1.3285
11201TIP3   OH255093   0.288   1.016  11.768 -0.7182 -0.4546 -0.2790
11201TIP3    H155094   0.199   0.986  11.785 -0.7465 -0.2200 -0.0219
11201TIP3    H255095   0.278   1.098  11.720 -0.6480  0.0660  0.5790
11202TIP3   OH255096   5.554   3.132  14.566  0.3395  0.6259  0.2971
11202TIP3    H155097   5.564   3.042  14.533  1.0296  0.6651  0.3921
11202TIP3    H255098   5.636   3.175  14.542  0.1454  1.1363  0.5597
11203TIP3   OH255099   2.649   5.408  14.909 -0.5221 -0.2308 -0.0390
11203TIP3    H155100   2.566   5.360  14.915 -0.0305 -1.4695 -2.0473
11203TIP3    H255101   2.709   5.357  14.964 -1.2095  1.1450  2.1186
11204TIP3   OH255102   1.862   5.265   3.525  0.0737  0.2408 -0.1105
11204TIP3    H155103   1.831   5.355   3.515  0.3916  0.6172  1.9471
11204TIP3    H255104   1.955   5.274   3.546  0.2703 -0.6208 -0.5806
11205TIP3   OH255105   6.517   5.902   5.733 -0.5088  0.0257  0.5686
11205TIP3    H155106   6.506   5.879   5.825  1.7480 -2.2779  0.3797
11205TIP3    H255107   6.611   5.890   5.716 -0.9649 -0.3158 -2.1914
11206TIP3   OH255108   3.464   2.030   2.399 -1.1306 -0.0353  0.4478
11206TIP3    H155109   3.542   2.074   2.432 -0.3464 -0.5355 -0.6536
11206TIP3    H255110   3.422   2.094   2.342 -0.6256 -0.2836 -0.2275
11207TIP3   OH255111   1.863   2.670   3.104  0.0010  0.0919 -0.4101
11207TIP3    H155112   1.843   2.728   3.177 -0.3499 -1.1348  0.5086
11207TIP3    H255113   1.918   2.601   3.142  1.7071  0.6239 -1.8092
11208TIP3   OH255114   5.325   0.867   5.836  0.5276 -0.5558 -0.1790
11208TIP3    H155115   5.402   0.856   5.891  0.7446  0.4609 -0.2529
11208TIP3    H255116   5.319   0.962   5.822  0.9380 -0.8017 -2.5269
11209TIP3   OH255117   0.893   4.278   2.142 -0.4575  0.2666 -0.2622
11209TIP3    H155118   0.834   4.248   2.211  0.0101 -0.5454 -0.1895
11209TIP3    H255119   0.866   4.229   2.064  1.4665 -1.8390  0.2804
11210TIP3   OH255120   5.904   6.377  13.557 -0.2573  0.3552 -0.0202
11210TIP3    H155121   5.906   6.442  13.486 -0.8359  1.1623  0.6917
11210TIP3    H255122   5.997   6.357  13.573 -0.0986  0.5536 -0.6335
11211TIP3   OH255123   5.978   4.421   0.157  0.6539  0.2874  0.2572
11211TIP3    H155124   6.046   4.488   0.146 -0.2021  1.4370  1.6247
11211TIP3    H255125   6.013   4.362   0.224 -0.6634  2.3523  2.9410
11212TIP3   OH255126   3.236   3.121  17.230  0.3643 -0.2910 -0.5168
11212TIP3    H155127   3.192   3.083  17.306 -0.3139 -1.6506 -1.5335
11212TIP3    H255128   3.168   3.171  17.185 -0.4149 -2.8316 -2.3795
11213TIP3   OH255129   4.541   3.770   5.787  0.0329  0.0758  0.2105
11213TIP3    H155130   4.517   3.859   5.763 -0.0526 -0.4461 -1.8277
11213TIP3    H255131   4.636   3.773   5.801 -0.0554  0.5850  0.7416
11214TIP3   OH255132   1.133   4.170   1.010 -0.2234 -0.1718 -0.5788
11214TIP3    H155133   1.223   4.158   0.980  0.0046 -0.9519  0.3794
11214TIP3    H255134   1.142   4.208   1.098 -0.7442 -2.1148  0.3733
11215TIP3   OH255135   0.312   6.526  11.918 -0.4669 -0.1758  0.0192
11215TIP3    H155136   0.386   6.499  11.864  0.1791 -2.6656  1.9718
11215TIP3    H255137   0.246   6.554  11.855  1.4823  0.5019 -1.8587
11216TIP3   OH255138   4.177   3.431   1.881 -0.4154  0.0169 -0.1934
11216TIP3    H155139   4.223   3.497   1.932 -0.9850 -0.1962  0.6305
11216TIP3    H255140   4.166   3.357   1.942 -0.5026 -0.5162 -0.8427
11217TIP3   OH255141   4.349   4.993  16.229  0.0299 -0.1257  0.0324
11217TIP3    H155142   4.443   4.984  16.214 -0.1349 -0.2055 -1.1033
11217TIP3    H255143   4.312   5.005  16.141 -1.1342 -1.2086  0.3419
11218TIP3   OH255144   3.764   4.741   4.391 -0.0722 -0.1239  0.3234
11218TIP3    H155145   3.820   4.666   4.371  0.8916  1.2642 -2.7960
11218TIP3    H255146   3.749   4.783   4.306 -2.3647  2.0098  1.6463
11219TIP3   OH255147   3.416   1.407   4.399 -0.2024  0.0743  0.0181
11219TIP3    H155148   3.387   1.361   4.477  0.8690  0.4365  0.6487
11219TIP3    H255149   3.336   1.443   4.361 -0.7381 -0.1375  0.9247
11220TIP3   OH255150   2.741   2.970   2.214 -0.4366 -0.3334  0.4398
11220TIP3    H155151   2.682   3.020   2.269  0.7880 -0.2663  1.7413
11220TIP3    H255152   2.821   2.960   2.266  0.4748 -0.9699 -0.9999
11221TIP3   OH255153   0.108   0.804   6.794  0.2965 -0.0215  0.1726
11221TIP3    H155154   0.077   0.777   6.708  0.6417 -1.6220  0.5136
11221TIP3    H255155   0.069   0.741   6.854  1.0521  0.3167  1.0414
11222TIP3   OH255156   6.503   0.146   4.201  0.2373  0.1449 -0.1030
11222TIP3    H155157   6.496   0.171   4.293 -1.1835  2.5100 -0.7709
11222TIP3    H255158   6.551   0.218   4.160 -0.3068 -0.2192 -1.4297
11223TIP3   OH255159   5.022   3.613  16.005  0.3101 -0.0542 -0.3539
11223TIP3    H155160   4.978   3.689  15.967 -0.4034 -0.4707 -0.3803
11223TIP3    H255161   4.962   3.540  15.990  0.2965 -0.3494  0.9798
11224TIP3   OH255162   5.526   3.946   0.402 -0.8807 -0.3245  0.0392
11224TIP3    H155163   5.523   4.037   0.371 -0.0416  0.3236  1.7469
11224TIP3    H255164   5.616   3.919   0.388 -1.4526 -1.4552 -1.8312
11225TIP3   OH255165   2.147   4.226   4.960  0.5064 -0.7554  0.1969
11225TIP3    H155166   2.195   4.232   4.878  2.2292  0.3681  1.2237
11225TIP3    H255167   2.055   4.226   4.935  0.9983 -1.8655 -1.7857
11226TIP3   OH255168   5.429   6.040   0.443 -0.9614 -0.6986  0.5826
11226TIP3    H155169   5.488   6.088   0.501 -1.0582  0.7530 -0.4754
11226TIP3    H255170   5.377   5.985   0.502 -1.4574  1.1432  1.9392
11227TIP3   OH255171   0.766   0.749  17.159 -0.1136 -0.3599 -0.1310
11227TIP3    H155172   0.682   0.703  17.164 -0.8981  1.0595  0.4537
11227TIP3    H255173   0.792   0.741  17.067 -0.9605 -0.6911 -0.3590
11228TIP3   OH255174   1.352   1.599  17.000 -0.3767 -0.0780 -0.1925
11228TIP3    H155175   1.343   1.589  16.905 -1.5322  0.2155 -0.1271
11228TIP3    H255176   1.385   1.688  17.012 -0.0043 -0.1953 -0.3210
11229TIP3   OH255177   2.530   1.197  14.343 -0.0680  0.2096 -0.4145
11229TIP3    H155178   2.486   1.239  14.269 -0.2130  1.0998  0.1634
11229TIP3    H255179   2.560   1.113  14.308 -1.3870 -0.0162 -1.0866
11230TIP3   OH255180   3.671   2.590  10.402 -0.1554 -0.0381  0.3796
11230TIP3    H155181   3.742   2.589  10.466  1.9815 -0.6766 -1.8445
11230TIP3    H255182   3.629   2.504  10.411 -0.5021  0.2243  1.4869
11231TIP3   OH255183   4.550   3.178   4.657 -0.1333  0.6468  0.0367
11231TIP3    H155184   4.482   3.126   4.698  0.0375  1.6582  1.7009
11231TIP3    H255185   4.517   3.268   4.660  1.0613  1.0926  0.4561
11232TIP3   OH255186   3.256   0.272  15.131 -0.1609  0.2895  0.3270
11232TIP3    H155187   3.294   0.218  15.201 -0.3676  1.4539  1.3757
11232TIP3    H255188   3.162   0.254  15.136 -0.4479  1.9566  1.8140
11233TIP3   OH255189   0.531   1.016   1.180 -0.4627 -0.7082 -0.5881
11233TIP3    H155190   0.549   1.107   1.199  1.0047 -1.3271  1.2633
11233TIP3    H255191   0.462   0.991   1.241 -0.9451 -0.8243 -1.1682
11234TIP3   OH255192   2.873   4.149  16.596  0.1297  0.5395  0.5661
11234TIP3    H155193   2.955   4.100  16.588 -0.2132  0.0241  0.1920
11234TIP3    H255194   2.810   4.086  16.631 -0.1984  0.8422  0.5286
11235TIP3   OH255195   3.484   5.177  16.880 -0.2577 -0.0514 -0.6415
11235TIP3    H155196   3.575   5.204  16.869 -0.6635  1.2222 -1.1645
11235TIP3    H255197   3.434   5.258  16.871 -1.6987 -1.1165 -3.8536
11236TIP3   OH255198   4.950   5.280   2.849  0.3001  0.2802  0.7486
11236TIP3    H155199   4.882   5.342   2.876 -0.4728  0.2328 -0.9779
11236TIP3    H255200   4.963   5.224   2.926 -2.1084 -0.1169  0.9419
11237TIP3   OH255201   6.726   0.459  15.041 -0.3393  0.8815  0.0086
11237TIP3    H155202   6.668   0.475  15.116  0.5360 -0.4793  1.0284
11237TIP3    H255203   6.766   0.544  15.023  0.7205  0.9281  2.2348
11238TIP3   OH255204   5.917   2.124   1.790 -0.2701 -0.2880 -0.6493
11238TIP3    H155205   5.964   2.186   1.734  0.7645 -0.8578 -0.4403
11238TIP3    H255206   5.845   2.175   1.827  2.1553  1.7090  1.8170
11239TIP3   OH255207   6.637   0.958   4.997 -0.1957  0.5251  0.3699
11239TIP3    H155208   6.643   0.896   4.925 -1.1954 -0.0012  0.7249
11239TIP3    H255209   6.715   0.943   5.049 -0.5691 -0.6415  0.6088
11240TIP3   OH255210   2.189   1.543   2.022 -0.3840  0.1410 -0.4619
11240TIP3    H155211   2.171   1.601   1.948  0.5467  0.0740 -0.7525
11240TIP3    H255212   2.274   1.505   2.002  0.1747  0.6101  0.9593
11241TIP3   OH255213   4.876   4.294   2.335 -0.4352  0.1325  0.5820
11241TIP3    H155214   4.880   4.385   2.364 -2.7159  0.5269 -0.1375
11241TIP3    H255215   4.795   4.260   2.373 -0.7052 -0.9469 -0.8739
11242TIP3   OH255216   2.979   3.668  15.129 -0.0400 -0.9016 -0.0922
11242TIP3    H155217   2.919   3.689  15.058 -0.2699 -0.5018  0.2129
11242TIP3    H255218   2.923   3.629  15.197 -0.0350 -0.1242  0.3701
11243TIP3   OH255219   5.698   4.697   0.407 -0.3794 -0.0262  0.2210
11243TIP3    H155220   5.739   4.751   0.474 -0.7827  0.5974 -0.0273
11243TIP3    H255221   5.686   4.756   0.333  0.2556 -0.7562 -0.4884
11244TIP3   OH255222   0.587   6.597   2.097 -0.2282  0.2809 -0.1525
11244TIP3    H155223   0.595   6.642   2.182  1.3787  0.1638 -0.2033
11244TIP3    H255224   0.549   6.512   2.118  0.7529  0.0028  0.5543
11245TIP3   OH255225   0.760   4.155   3.559  0.1028  0.6024 -0.2938
11245TIP3    H155226   0.774   4.204   3.479  0.6128  0.5260 -0.2540
11245TIP3    H255227   0.837   4.174   3.613 -0.1448  0.5047  0.1014
11246TIP3   OH255228   1.321   1.576   1.950  0.0590  0.3076 -0.2863
11246TIP3    H155229   1.283   1.562   1.863  1.0891  0.2005 -0.7247
11246TIP3    H255230   1.347   1.668   1.949 -0.6965  0.5387  0.2280
11247TIP3   OH255231   3.910   3.991   3.699 -0.5281 -0.1872 -0.0019
11247TIP3    H155232   3.958   4.024   3.775  0.2006 -1.7152  0.2508
11247TIP3    H255233   3.965   3.921   3.664 -1.3235 -0.1856 -1.3484
11248TIP3   OH255234   4.776   4.870   6.246 -0.7394 -0.8231  0.2583
11248TIP3    H155235   4.756   4.944   6.189  1.4821  0.6884  1.2939
11248TIP3    H255236   4.772   4.906   6.334 -0.5291 -2.2106  0.8639
11249TIP3   OH255237   3.200   6.065  13.225  0.1694 -0.2916 -0.2847
11249TIP3    H155238   3.221   6.138  13.168 -0.3057  1.1302  1.2698
11249TIP3    H255239   3.140   6.010  13.174  0.5927  0.3509 -1.4993
11250TIP3   OH255240   5.979   2.267   0.384  0.0321  0.3305  0.0036
11250TIP3    H155241   5.931   2.330   0.331  0.8143 -0.7413 -2.1032
11250TIP3    H255242   6.061   2.311   0.406  0.1842  0.3827 -0.6609
11251TIP3   OH255243   5.930   4.556  14.306  0.7182  0.5461 -0.2154
11251TIP3    H155244   5.976   4.638  14.288  0.9385  0.4890  0.0857
11251TIP3    H255245   5.871   4.577  14.378 -0.2257  0.7965 -1.0396
11252TIP3   OH255246   0.888   1.143  14.615 -0.1577 -0.2069 -0.3808
11252TIP3    H155247   0.868   1.184  14.530 -0.8958  0.8764  0.2948
11252TIP3    H255248   0.911   1.053  14.593 -0.4326  0.0272 -1.7268
11253TIP3   OH255249   1.257   1.663  14.005  0.0351 -0.0421 -0.5754
11253TIP3    H155250   1.311   1.627  14.075  1.3913 -0.0476 -1.5668
11253TIP3    H255251   1.317   1.720  13.956 -0.4712 -1.0618 -2.4885
11254TIP3   OH255252   5.832   5.885   5.230 -0.3637 -0.0430 -0.1909
11254TIP3    H155253   5.897   5.951   5.257 -0.4290 -0.5233  1.2184
11254TIP3    H255254   5.809   5.910   5.141  1.6129  0.2678 -0.6761
11255TIP3   OH255255   5.322   6.292  16.286  0.3573 -0.3882 -0.7605
11255TIP3    H155256   5.362   6.371  16.251  1.7119 -0.5151  0.4152
11255TIP3    H255257   5.327   6.229  16.214 -0.9899  0.6354 -1.7982
11256TIP3   OH255258   0.935   5.599  14.631  0.0497 -0.2534  0.3020
11256TIP3    H155259   0.925   5.693  14.646 -0.8042 -0.1034 -1.1038
11256TIP3    H255260   0.942   5.562  14.719  1.0921  1.1812  0.8656
11257TIP3   OH255261   0.521   4.029  12.794 -0.0894  0.3881 -0.1057
11257TIP3    H155262   0.469   4.107  12.772 -0.9323 -0.5541 -1.6028
11257TIP3    H255263   0.510   3.971  12.719  2.2781 -0.3126  0.0136
11258TIP3   OH255264   4.334   5.646  15.707 -0.4110  0.3595  0.2806
11258TIP3    H155265   4.302   5.556  15.698 -2.1890  1.1329 -3.0384
11258TIP3    H255266   4.428   5.638  15.717 -0.5377 -1.8675  0.0583
11259TIP3   OH255267   1.953   1.062   4.536  0.0066 -0.4868  0.2424
11259TIP3    H155268   1.923   1.153   4.532 -0.2654 -0.4840  1.6578
11259TIP3    H255269   2.049   1.069   4.535 -0.0148 -0.1929  0.1712
11260TIP3   OH255270   5.647   3.031   0.209  0.1205  0.0836 -0.1967
11260TIP3    H155271   5.715   3.042   0.143 -2.0009 -2.7424 -3.1842
11260TIP3    H255272   5.693   3.043   0.292  3.6034  1.0872 -2.0527
11261TIP3   OH255273   3.337   1.735   5.725  0.0638 -0.0754 -0.5988
11261TIP3    H155274   3.353   1.688   5.807  0.1291  0.1434 -0.4853
11261TIP3    H255275   3.346   1.668   5.657 -0.5281 -0.3740 -0.3915
11262TIP3   OH255276   2.915   5.273   3.752 -0.6707  0.1204 -0.3018
11262TIP3    H155277   2.880   5.257   3.840  0.1704 -0.4334 -0.0593
11262TIP3    H255278   2.840   5.259   3.694 -0.6423 -2.0251  0.1282
11263TIP3   OH255279   3.203   0.128  11.667  0.1309  0.1336 -0.0581
11263TIP3    H155280   3.208   0.223  11.654  0.8653 -0.0984 -1.7892
11263TIP3    H255281   3.132   0.116  11.730 -0.5949  1.7744 -0.5085
11264TIP3   OH255282   3.155   6.000  12.057  0.3055 -0.6889 -0.2588
11264TIP3    H155283   3.146   6.086  12.016  2.9899 -0.3075 -0.2709
11264TIP3    H255284   3.134   6.015  12.149 -0.6515 -0.3752 -0.5172
11265TIP3   OH255285   5.489   0.699  12.727  0.3320  0.2408 -0.6593
11265TIP3    H155286   5.459   0.773  12.780  2.3989  2.1057 -1.9384
11265TIP3    H255287   5.437   0.704  12.647 -0.8608 -0.9359 -0.0176
11266TIP3   OH255288   3.613   2.204  16.551 -0.2413 -0.0218 -0.0215
11266TIP3    H155289   3.634   2.232  16.640  1.5602  0.8018 -0.6632
11266TIP3    H255290   3.634   2.110  16.550  3.3441  0.6390 -0.4842
11267TIP3   OH255291   5.382   2.421   0.445  0.1517  0.1764  0.3186
11267TIP3    H155292   5.380   2.418   0.350 -2.3957 -3.7652  0.2535
11267TIP3    H255293   5.304   2.472   0.469 -0.3067 -0.4816  0.2433
11268TIP3   OH255294   6.654   0.011  16.062  0.1704 -0.3094 -0.3138
11268TIP3    H155295   6.607   0.093  16.051 -1.5331 -1.3685 -1.4724
11268TIP3    H255296   6.745   0.032  16.041 -0.1708  1.3298 -0.2732
11269TIP3   OH255297   5.925   4.853  16.375 -0.3974 -0.2027  0.0781
11269TIP3    H155298   5.863   4.906  16.424  0.6758  1.2053  0.0011
11269TIP3    H255299   5.990   4.916  16.343  0.3190 -1.4285 -0.9850
11270TIP3   OH255300   5.364   4.453   3.391  0.5009  0.0913 -0.0901
11270TIP3    H155301   5.390   4.488   3.306 -1.2004  1.5911 -0.0499
11270TIP3    H255302   5.269   4.441   3.384  0.4600 -0.5558  1.3203
11271TIP3   OH255303   5.816   4.193  11.531 -0.5161 -0.1368 -0.6844
11271TIP3    H155304   5.800   4.212  11.624 -0.1556  2.9991 -1.1308
11271TIP3    H255305   5.893   4.136  11.531 -1.7058 -1.8676  0.9366
11272TIP3   OH255306   5.017   1.034   4.478 -0.8180  0.3207  0.2332
11272TIP3    H155307   4.930   1.035   4.518 -1.8349  2.3938 -1.8164
11272TIP3    H255308   5.076   1.011   4.550 -2.8603  0.5644  2.0909
11273TIP3   OH255309   4.890   0.508  16.687  0.4488  0.3972  0.4242
11273TIP3    H155310   4.909   0.600  16.702  0.0930  0.6799 -0.7891
11273TIP3    H255311   4.794   0.502  16.690  0.4905 -0.0945  1.3122
11274TIP3   OH255312   4.247   4.615   2.605 -0.1852 -0.4418 -0.0237
11274TIP3    H155313   4.204   4.701   2.606 -0.3238 -0.4763  1.8514
11274TIP3    H255314   4.179   4.554   2.635 -0.0131 -1.1762 -1.0893
11275TIP3   OH255315   1.206   1.809  15.286  0.5607 -0.7995  0.0323
11275TIP3    H155316   1.245   1.889  15.319 -1.1583 -0.0655  0.4195
11275TIP3    H255317   1.279   1.748  15.276  1.7267  0.4031  0.9324
11276TIP3   OH255318   1.099   2.285  15.968 -0.2584  0.0878 -0.2102
11276TIP3    H155319   1.021   2.333  15.941 -1.8171 -0.6787  2.5370
11276TIP3    H255320   1.172   2.341  15.940 -1.7369  1.0865 -2.3964
11277TIP3   OH255321   0.791   5.765   1.713 -0.0894  0.4929 -0.2808
11277TIP3    H155322   0.778   5.720   1.629  1.1730  1.5554 -1.0900
11277TIP3    H255323   0.722   5.831   1.716 -0.3234  0.2520 -0.3362
11278TIP3   OH255324   5.305   5.207   6.237 -0.0151 -0.2740 -0.1492
11278TIP3    H155325   5.256   5.191   6.157  0.8130  1.6161 -1.1019
11278TIP3    H255326   5.276   5.294   6.266  0.5386 -0.4445  0.9703
11279TIP3   OH255327   3.405   5.881   3.429  0.0925  0.0060 -0.2811
11279TIP3    H155328   3.350   5.924   3.495 -1.0730  0.0876 -1.2646
11279TIP3    H255329   3.349   5.813   3.391  0.2672  0.7734 -2.0426
11280TIP3   OH255330   0.280   6.194   0.835 -0.1154  0.2464 -0.1272
11280TIP3    H155331   0.259   6.198   0.928  0.4318  1.0648 -0.0206
11280TIP3    H255332   0.208   6.241   0.792 -1.2510 -1.5886 -0.3009
11281TIP3   OH255333   5.113   2.934  11.937  0.1132  0.2451  0.2997
11281TIP3    H155334   5.193   2.984  11.957 -0.1876  0.5554  0.7433
11281TIP3    H255335   5.096   2.884  12.017  0.1005 -0.1414  0.0528
11282TIP3   OH255336   3.466   2.801  15.002 -0.3281  0.1891 -0.1477
11282TIP3    H155337   3.416   2.729  15.041  1.3410 -0.0178  1.7693
11282TIP3    H255338   3.474   2.778  14.910 -1.8565 -0.8509 -0.0529
11283TIP3   OH255339   3.705   2.935   1.727  0.4195 -0.0675  0.0585
11283TIP3    H155340   3.685   2.887   1.808  0.0190 -0.6220 -0.3602
11283TIP3    H255341   3.735   2.867   1.666 -1.8457 -0.1105 -1.1237
11284TIP3   OH255342   4.612   0.082   5.493  0.0579 -0.0750 -0.0920
11284TIP3    H155343   4.517   0.094   5.496  0.1643  0.6261  0.9263
11284TIP3    H255344   4.625   0.005   5.438 -1.1324 -0.5272  0.2425
11285TIP3   OH255345   2.942   4.411  14.308 -0.0135  0.0794  0.1416
11285TIP3    H155346   3.024   4.457  14.296  0.8204 -1.1120  1.0353
11285TIP3    H255347   2.915   4.433  14.397 -0.3035 -0.0799  0.0956
11286TIP3   OH255348   2.001   4.387  16.975 -0.6520  0.2203 -0.2150
11286TIP3    H155349   2.056   4.330  16.921 -0.5401  0.1231 -0.0014
11286TIP3    H255350   2.061   4.454  17.008 -1.0767  1.4302 -1.7663
11287TIP3   OH255351   1.989   6.449   4.691  0.1172  0.1618 -0.1584
11287TIP3    H155352   2.070   6.497   4.709  0.7501 -1.1992  0.8294
11287TIP3    H255353   2.006   6.361   4.724 -1.8840 -0.0834  0.3186
11288TIP3   OH255354   0.050   0.291  14.029  0.8391  0.1840  0.1176
11288TIP3    H155355   0.016   0.229  14.094  0.9165  0.0614  0.0429
11288TIP3    H255356   0.025   0.252  13.945 -1.3617  1.5069  0.0797
11289TIP3   OH255357   1.344   4.461  16.149  0.2409  0.2877  0.6420
11289TIP3    H155358   1.432   4.423  16.145  0.6213  1.2210 -0.3516
11289TIP3    H255359   1.350   4.542  16.098 -1.0609  0.6498  1.0130
11290TIP3   OH255360   4.080   0.945  16.653 -0.1855  0.2082 -0.7502
11290TIP3    H155361   4.152   1.007  16.655 -0.9130  1.0699 -0.3924
11290TIP3    H255362   4.036   0.956  16.737 -0.2535 -0.8924 -0.6313
11291TIP3   OH255363   2.806   0.085  17.175  0.2427 -0.1952 -0.3328
11291TIP3    H155364   2.835   0.177  17.171  1.9922 -0.7325 -1.1140
11291TIP3    H255365   2.712   0.089  17.160  0.1716  1.5238  0.3019
11292TIP3   OH255366   3.358   1.074   0.333  0.4470 -0.4038  0.3269
11292TIP3    H155367   3.277   1.126   0.340 -0.0287 -0.8610 -1.3765
11292TIP3    H255368   3.428   1.138   0.347 -0.1816  0.0540  1.5515
11293TIP3   OH255369   0.209   2.633  13.540 -0.2349 -0.8807  0.2191
11293TIP3    H155370   0.241   2.622  13.450 -2.6327 -0.4882 -0.7558
11293TIP3    H255371   0.218   2.726  13.557 -2.0970 -0.5114 -0.6134
11294TIP3   OH255372   5.835   6.445  15.231 -0.5130  0.1115 -0.2805
11294TIP3    H155373   5.827   6.454  15.136  1.8246 -0.7931 -0.6442
11294TIP3    H255374   5.815   6.532  15.265  1.4770  1.2895 -1.8915
11295TIP3   OH255375   4.524   0.571   0.107 -0.0302  0.3524 -0.5488
11295TIP3    H155376   4.620   0.568   0.104 -0.0358 -0.1583 -0.2908
11295TIP3    H255377   4.503   0.662   0.089  0.5604  0.7474  0.6083
11296TIP3   OH255378   6.682   0.945   0.947  0.3498  0.0187  0.0745
11296TIP3    H155379   6.608   1.004   0.935 -0.1967 -0.9337 -1.5351
11296TIP3    H255380   6.759   0.999   0.930 -0.0602  0.5947  0.0427
11297TIP3   OH255381   1.877   6.014  14.356  0.0824 -0.3277 -0.6032
11297TIP3    H155382   1.898   5.953  14.427  3.2684  1.0608 -0.2096
11297TIP3    H255383   1.935   5.989  14.284 -1.0697  0.0992 -1.7290
11298TIP3   OH255384   1.430   1.803  11.024 -0.1878 -0.4481 -0.2058
11298TIP3    H155385   1.344   1.786  11.063 -0.3222  0.5445 -0.0543
11298TIP3    H255386   1.454   1.720  10.983 -0.6286 -1.1193  0.8632
11299TIP3   OH255387   2.669   6.285  13.806  0.1188 -0.1877 -0.1228
11299TIP3    H155388   2.667   6.328  13.892  0.4686  1.1064 -0.7317
11299TIP3    H255389   2.621   6.345  13.748 -1.6413 -1.8820 -0.4892
11300TIP3   OH255390   3.037   2.857  11.524 -0.5149  0.4736 -0.3297
11300TIP3    H155391   3.080   2.940  11.543  1.6987 -0.5716 -0.5294
11300TIP3    H255392   3.108   2.797  11.501 -1.9281 -1.7877  0.8299
11301TIP3   OH255393   1.252   6.027  13.187 -0.0010 -0.0542 -0.0277
11301TIP3    H155394   1.162   6.055  13.169 -0.2739 -0.3383  0.8164
11301TIP3    H255395   1.270   5.959  13.122 -0.4529 -0.1100 -0.0977
11302TIP3   OH255396   1.468   6.422  11.785 -0.4573 -0.0121 -0.1932
11302TIP3    H155397   1.524   6.403  11.860  0.3464  1.0237 -0.4938
11302TIP3    H255398   1.521   6.398  11.709  0.3799  2.5892 -0.5654
11303TIP3   OH255399   3.594   3.637  13.746 -0.1921 -0.0747 -0.2795
11303TIP3    H155400   3.509   3.623  13.786 -0.0392 -1.8567 -0.4712
11303TIP3    H255401   3.652   3.574  13.790  0.6116 -0.1050 -1.3341
11304TIP3   OH255402   2.675   4.378   5.323 -0.1154 -0.2495  0.0368
11304TIP3    H155403   2.665   4.377   5.228 -0.2621  0.3983  0.0362
11304TIP3    H255404   2.700   4.289   5.346 -2.0780 -0.9640 -0.4046
11305TIP3   OH255405   2.440   6.674   0.350  0.0051 -0.6409  0.8446
11305TIP3    H155406   2.347   6.673   0.328  0.6115  1.0835 -2.4579
11305TIP3    H255407   2.485   6.652   0.268  2.5241 -1.1685  2.2639
11306TIP3   OH255408   1.717   0.475  14.275  0.1949 -0.6359 -0.5902
11306TIP3    H155409   1.756   0.550  14.229 -0.7965 -0.1584 -0.6904
11306TIP3    H255410   1.630   0.466  14.236 -0.3915 -0.6900  0.6780
11307TIP3   OH255411   6.257   3.028   1.702 -0.0328  0.2860 -0.1840
11307TIP3    H155412   6.338   2.979   1.690  0.3640  0.8899 -0.0009
11307TIP3    H255413   6.233   3.014   1.794 -0.6695 -0.6916 -0.4895
11308TIP3   OH255414   1.006   4.768   3.159  0.8066  0.2992 -0.3442
11308TIP3    H155415   1.093   4.730   3.143  0.7654  0.0235  0.0664
11308TIP3    H255416   0.958   4.753   3.077  0.7597 -0.6391 -0.1636
11309TIP3   OH255417   2.458   3.557   4.499  0.2921  0.4904 -0.1130
11309TIP3    H155418   2.511   3.575   4.421  0.4513 -2.4147 -0.7909
11309TIP3    H255419   2.517   3.574   4.572  0.3344  2.6667 -0.6013
11310TIP3   OH255420   5.489   2.077  12.214  0.0266 -0.0343  0.1267
11310TIP3    H155421   5.576   2.091  12.252  0.2436 -0.2638 -0.2716
11310TIP3    H255422   5.500   2.097  12.121 -0.6352  1.0624  0.2755
11311TIP3   OH255423   0.765   3.091   1.427 -0.1964 -0.5059 -0.0163
11311TIP3    H155424   0.837   3.033   1.402  0.1622  0.3936 -1.1134
11311TIP3    H255425   0.701   3.033   1.467  0.3381 -1.6054 -0.7113
11312TIP3   OH255426   0.373   0.315  10.610 -0.1997  0.1885 -0.0594
11312TIP3    H155427   0.439   0.255  10.646 -0.9037 -0.9884 -0.6863
11312TIP3    H255428   0.299   0.307  10.671 -0.3225  0.3699 -0.1869
11313TIP3   OH255429   0.430   4.792  10.895  0.0658 -0.9767 -0.6940
11313TIP3    H155430   0.425   4.696  10.902 -2.7410 -0.8497  0.3894
11313TIP3    H255431   0.426   4.822  10.986  0.7627  0.2036 -1.0363
11314TIP3   OH255432   4.697   3.638  12.797 -0.1529 -0.1548  0.3601
11314TIP3    H155433   4.611   3.640  12.839 -0.1729  2.6790  0.3363
11314TIP3    H255434   4.686   3.686  12.716  1.2531 -0.5744 -0.1143
11315TIP3   OH255435   2.227   3.809   6.351 -0.2791 -0.0241 -0.4492
11315TIP3    H155436   2.191   3.748   6.415  2.4120  0.2818  1.5528
11315TIP3    H255437   2.208   3.896   6.387  1.1430  0.1519 -0.0363
11316TIP3   OH255438   6.120   5.853   0.567  0.0193 -0.0491  0.4162
11316TIP3    H155439   6.058   5.809   0.625 -0.3021 -1.1765 -0.7596
11316TIP3    H255440   6.206   5.825   0.599 -0.1231 -0.0557  0.8058
11317TIP3   OH255441   6.657   0.794   4.784  0.8733  0.2115  0.2653
11317TIP3    H155442   6.724   0.751   4.730  1.2264  1.4206 -0.3135
11317TIP3    H255443   6.575   0.779   4.738  1.0542  0.4889 -0.1574
11318TIP3   OH255444   4.024   6.403   4.017  0.4962  0.1852  0.5324
11318TIP3    H155445   4.058   6.365   4.098  0.8898  1.8901  1.2200
11318TIP3    H255446   3.929   6.396   4.024  0.4852 -3.4383 -0.8135
11319TIP3   OH255447   1.177   2.669  13.705  0.1445  0.2324 -0.5825
11319TIP3    H155448   1.091   2.686  13.744  0.0286  0.3824 -0.9022
11319TIP3    H255449   1.238   2.724  13.754  0.1689 -0.3907  0.1077
11320TIP3   OH255450   3.869   6.472   2.489 -0.4376 -0.2888 -0.0442
11320TIP3    H155451   3.904   6.558   2.511 -0.7703 -0.1337 -0.1178
11320TIP3    H255452   3.789   6.465   2.540 -0.7718 -0.2707 -0.5617
11321TIP3   OH255453   6.642   5.011  13.186  0.4522  0.2359  0.4396
11321TIP3    H155454   6.629   4.949  13.114 -1.2016  0.1868  0.7368
11321TIP3    H255455   6.711   4.972  13.240  0.6487 -0.4674 -0.3096
11322TIP3   OH255456   2.121   5.900  13.541  0.4351 -0.3087 -0.4205
11322TIP3    H155457   2.216   5.892  13.541  0.6309  0.8936  2.5547
11322TIP3    H255458   2.090   5.830  13.599 -0.5158 -0.5734 -1.2035
11323TIP3   OH255459   1.788   0.454   2.266  0.5645 -0.0653  0.6724
11323TIP3    H155460   1.782   0.412   2.181 -0.4544  0.1589  0.6204
11323TIP3    H255461   1.737   0.397   2.325  1.1246 -0.1367  1.0928
11324TIP3   OH255462   0.071   2.540   3.675 -0.3226 -0.1735  0.0727
11324TIP3    H155463   0.055   2.620   3.625  0.0676 -0.5687 -0.7176
11324TIP3    H255464   0.096   2.570   3.762 -0.0357  0.5758 -0.2559
11325TIP3   OH255465   6.138   1.916  13.705 -0.5293 -0.1729  0.4736
11325TIP3    H155466   6.052   1.887  13.674 -0.7757  2.1638 -1.3184
11325TIP3    H255467   6.121   1.999  13.749  0.6442 -0.4858  1.5918
11326TIP3   OH255468   6.171   4.449   2.110 -0.1168 -0.2179 -0.7519
11326TIP3    H155469   6.124   4.507   2.170  2.0084 -1.2357  2.1610
11326TIP3    H255470   6.110   4.377   2.094 -0.5388 -0.2585  0.8186
11327TIP3   OH255471   1.386   3.716   1.880  0.1938  0.4316 -0.2593
11327TIP3    H155472   1.316   3.734   1.818  0.8058  0.1973 -1.0378
11327TIP3    H255473   1.351   3.648   1.937  0.2990 -0.7248 -1.5458
11328TIP3   OH255474   0.502   0.476  10.892  0.0980 -0.1363  0.0876
11328TIP3    H155475   0.455   0.543  10.940 -0.0929 -1.6964  2.2025
11328TIP3    H255476   0.451   0.396  10.905  1.9555 -1.3620  0.3602
11329TIP3   OH255477   6.365   2.813   3.555  0.0698 -0.3383 -0.4268
11329TIP3    H155478   6.357   2.770   3.470  0.3418 -0.8499 -0.2036
11329TIP3    H255479   6.429   2.883   3.540  0.2007 -0.4969 -0.6165
11330TIP3   OH255480   4.807   2.753  14.737  0.1186 -0.5058 -0.1928
11330TIP3    H155481   4.715   2.779  14.734  0.0543 -0.6177  0.5239
11330TIP3    H255482   4.805   2.658  14.751  0.3237 -0.3553  0.9659
11331TIP3   OH255483   4.009   5.966  12.343  0.2116  0.0994 -0.2462
11331TIP3    H155484   4.012   6.062  12.351 -1.7534  0.1744  0.1182
11331TIP3    H255485   3.993   5.951  12.250 -1.9407  0.2810  0.0355
11332TIP3   OH255486   3.350   5.765  14.384  0.3267 -0.4024  0.2487
11332TIP3    H155487   3.310   5.678  14.382 -1.4862  0.3947  0.5029
11332TIP3    H255488   3.283   5.822  14.422  0.4312  1.6497 -2.3835
11333TIP3   OH255489   3.040   1.053   1.470 -0.1039 -0.6090 -0.2131
11333TIP3    H155490   3.125   1.062   1.427  0.4996  0.9731  1.1577
11333TIP3    H255491   3.009   1.143   1.480 -1.8514 -1.1526 -0.4900
11334TIP3   OH255492   5.744   0.935   4.823 -0.2506  0.0940  0.0137
11334TIP3    H155493   5.751   1.029   4.805  1.2560 -0.1624 -0.9665
11334TIP3    H255494   5.832   0.910   4.853 -0.4482 -1.1144 -0.3775
11335TIP3   OH255495   2.630   6.770   4.936 -0.0842 -0.3193 -0.1684
11335TIP3    H155496   2.703   6.740   4.991  1.9393  1.7165 -1.5383
11335TIP3    H255497   2.570   6.812   4.997  1.0254 -0.0175  0.7596
11336TIP3   OH255498   3.009   1.968   1.231 -0.4782  0.1143 -0.1274
11336TIP3    H155499   3.048   2.004   1.310 -0.4006  1.5640 -0.8070
11336TIP3    H255500   2.922   1.938   1.259  0.0105 -0.5259  0.7577
11337TIP3   OH255501   1.796   0.133  12.891  0.1575 -0.5201 -0.7291
11337TIP3    H155502   1.738   0.072  12.846 -1.4861  0.3060  0.1819
11337TIP3    H255503   1.807   0.096  12.978 -2.1336  1.1434  0.3798
11338TIP3   OH255504   3.654   3.966   1.826  0.2344  0.2165 -0.1238
11338TIP3    H155505   3.663   3.993   1.918  1.0308 -1.0034  0.1875
11338TIP3    H255506   3.607   4.038   1.784  0.1587  0.9521  1.1666
11339TIP3   OH255507   4.032   6.775   2.922  0.6139 -0.3928  0.3146
11339TIP3    H155508   3.993   6.741   3.003  0.7846  0.2516  0.6749
11339TIP3    H255509   4.113   6.725   2.911  1.0376  0.1138  1.0281
11340TIP3   OH255510   4.100   0.995   1.291  0.2687 -0.3950 -0.0574
11340TIP3    H155511   4.109   1.037   1.206  0.0417 -0.7898 -0.2827
11340TIP3    H255512   4.008   1.006   1.314  0.6163  0.9066  0.7830
11341TIP3   OH255513   3.273   3.520   4.768 -0.4195 -0.5567  0.3999
11341TIP3    H155514   3.307   3.595   4.818  0.3494 -1.1650  0.8138
11341TIP3    H255515   3.178   3.527   4.777 -0.3875  0.7238 -0.0990
11342TIP3   OH255516   5.029   0.556   0.457 -0.2613  0.1153  0.4765
11342TIP3    H155517   5.081   0.476   0.457 -1.3813 -0.6535  1.2440
11342TIP3    H255518   4.939   0.525   0.471 -0.6751  1.5244  1.1076
11343TIP3   OH255519   1.635   6.154  10.839  0.0617  0.0835  0.4848
11343TIP3    H155520   1.588   6.112  10.767 -0.2077  0.6847  0.3033
11343TIP3    H255521   1.566   6.180  10.900  0.3516 -1.4031  1.5166
11344TIP3   OH255522   0.585   6.725   4.536 -0.0036  0.1162  0.8424
11344TIP3    H155523   0.671   6.766   4.543  0.3481 -0.4842  0.1929
11344TIP3    H255524   0.538   6.753   4.615  1.2926 -0.7538  1.9574
11345TIP3   OH255525   3.316   0.639   4.532 -0.1968 -0.5110  0.3934
11345TIP3    H155526   3.251   0.709   4.532 -2.0132 -2.0750 -0.9309
11345TIP3    H255527   3.400   0.684   4.529 -1.2966  1.6422 -1.7880
11346TIP3   OH255528   3.315   0.053   5.279 -0.4812 -0.5215 -0.0789
11346TIP3    H155529   3.318   0.059   5.375 -0.5906 -0.9875 -0.0433
11346TIP3    H255530   3.285  -0.036   5.262 -1.0020 -0.2619 -0.5423
11347TIP3   OH255531   0.614   1.820   0.267 -0.1814  0.3266  0.4982
11347TIP3    H155532   0.631   1.728   0.247  0.4277  0.2501  1.2929
11347TIP3    H255533   0.519   1.825   0.280 -0.5097  0.2426 -1.5692
11348TIP3   OH255534   1.386   1.320   5.448  0.3280  0.4965  0.3689
11348TIP3    H155535   1.394   1.305   5.354 -1.6886  0.6276  0.1370
11348TIP3    H255536   1.413   1.411   5.461  0.4758  0.5200 -0.0941
11349TIP3   OH255537   5.663   5.804  13.259 -0.7037  0.0345  0.0256
11349TIP3    H155538   5.712   5.766  13.332 -1.1005  0.4280  0.5045
11349TIP3    H255539   5.721   5.870  13.222 -1.7210  2.3067  2.1525
11350TIP3   OH255540   3.260   6.333  15.089  0.5628 -0.4468  0.1784
11350TIP3    H155541   3.215   6.415  15.071 -0.8893 -0.9014  1.5222
11350TIP3    H255542   3.244   6.279  15.011 -0.8990 -0.4503  0.4599
11351TIP3   OH255543   1.827   4.546  11.318 -0.2134 -0.5067 -0.2563
11351TIP3    H155544   1.769   4.615  11.287 -0.7682  0.0726  1.8981
11351TIP3    H255545   1.886   4.590  11.380 -0.0116 -1.8003  0.5104
11352TIP3   OH255546   5.658   1.219  14.261  0.2915 -0.2744  0.5210
11352TIP3    H155547   5.672   1.289  14.324 -0.6045 -0.0511  0.4919
11352TIP3    H255548   5.704   1.143  14.298  1.1949  0.2995  0.5869
11353TIP3   OH255549   2.964   5.243  16.473  0.5696  0.4214  0.1146
11353TIP3    H155550   2.937   5.154  16.453  0.0345  0.5511  0.2465
11353TIP3    H255551   2.978   5.283  16.387 -2.4832  1.2053 -0.1313
11354TIP3   OH255552   6.777   5.905   5.798 -0.2557  0.5010 -0.8437
11354TIP3    H155553   6.841   5.837   5.820 -0.8096 -0.3873 -1.8597
11354TIP3    H255554   6.744   5.934   5.883  0.8362  0.3401 -0.3384
11355TIP3   OH255555   1.370   5.684  11.705 -0.3152 -0.0550 -0.0976
11355TIP3    H155556   1.296   5.623  11.708 -1.7852  1.6660  1.2715
11355TIP3    H255557   1.430   5.645  11.642 -1.1391 -2.9105  0.6865
11356TIP3   OH255558   3.992   3.510   1.705 -0.1384 -0.3289 -0.2108
11356TIP3    H155559   4.052   3.487   1.775  0.5690 -0.3516 -0.8182
11356TIP3    H255560   3.905   3.502   1.745  0.0579 -3.4577 -0.1932
11357TIP3   OH255561   0.632   0.230  16.743  0.3229  0.1923  0.2785
11357TIP3    H155562   0.539   0.208  16.736  0.1958  0.8582 -0.2193
11357TIP3    H255563   0.667   0.166  16.804 -0.2742 -0.6512 -0.2383
11358TIP3   OH255564   4.320   4.885   4.570 -0.4853 -0.1241  0.3264
11358TIP3    H155565   4.351   4.898   4.481  2.3774 -3.2776  0.6329
11358TIP3    H255566   4.247   4.824   4.561  0.9096 -1.8639  0.0862
11359TIP3   OH255567   4.801   6.258  16.156  0.4707  0.6427 -0.3401
11359TIP3    H155568   4.801   6.270  16.061 -0.2208  1.4663 -0.2531
11359TIP3    H255569   4.745   6.183  16.172 -1.0513  1.7027 -0.4817
11360TIP3   OH255570   6.492   0.940  11.483 -0.1589  0.5252  0.2225
11360TIP3    H155571   6.441   1.013  11.517  1.3773  0.9099  1.8286
11360TIP3    H255572   6.519   0.968  11.396 -0.7974  1.2353  0.2368
11361TIP3   OH255573   4.221   2.871  14.814 -0.1547  0.4365  0.3860
11361TIP3    H155574   4.257   2.795  14.860 -3.1661 -1.5830 -0.2836
11361TIP3    H255575   4.235   2.851  14.721 -0.0574  1.2445  0.2185
11362TIP3   OH255576   6.291   3.778   1.845 -0.3648  0.6235 -0.5295
11362TIP3    H155577   6.224   3.807   1.783 -1.2594 -0.7016 -0.2307
11362TIP3    H255578   6.373   3.810   1.809 -1.0120  1.0148 -1.6983
11363TIP3   OH255579   3.623   0.221   6.443  0.2402 -0.2094 -0.1453
11363TIP3    H155580   3.638   0.268   6.525 -2.1552  0.5412 -0.0497
11363TIP3    H255581   3.631   0.289   6.375 -1.7213  0.1060 -0.1313
11364TIP3   OH255582   0.890   5.622  15.033 -0.0011 -0.3393 -0.4473
11364TIP3    H155583   0.927   5.695  15.083  0.0783 -0.1798 -0.7321
11364TIP3    H255584   0.856   5.562  15.099 -0.2823  0.0691 -0.2170
11365TIP3   OH255585   5.915   2.139  10.839  0.1659  0.1625 -0.1341
11365TIP3    H155586   5.959   2.105  10.761 -1.2626  1.4064 -1.5551
11365TIP3    H255587   5.961   2.220  10.860  0.8053 -0.3771  0.5848
11366TIP3   OH255588   0.093   4.090  11.571  0.4146 -0.3283 -0.1134
11366TIP3    H155589   0.135   4.142  11.503  0.4013  0.5630  0.5430
11366TIP3    H255590   0.154   4.092  11.645 -0.0785 -0.3249  0.3011
11367TIP3   OH255591   5.681   3.222  13.722  0.3853 -0.1972 -0.7582
11367TIP3    H155592   5.720   3.198  13.639 -1.6907 -1.1788 -1.5236
11367TIP3    H255593   5.589   3.241  13.702  0.3903  2.1038  0.9081
11368TIP3   OH255594   6.550   5.912  15.289  0.9955 -0.2223  0.8708
11368TIP3    H155595   6.546   5.990  15.234  0.4496 -0.7239  0.1881
11368TIP3    H255596   6.589   5.943  15.371  0.5474  0.8254  0.7079
11369TIP3   OH255597   3.705   2.442  11.022  0.0864  1.1762  0.1709
11369TIP3    H155598   3.652   2.370  11.057 -0.3321  2.0140  1.3500
11369TIP3    H255599   3.794   2.424  11.053  0.2398  0.4771 -0.6615
11370TIP3   OH255600   2.974   2.208  11.553  0.2125  0.0983 -0.0469
11370TIP3    H155601   3.010   2.270  11.490 -1.0998  0.8465 -0.0960
11370TIP3    H255602   2.963   2.259  11.633 -1.7519  0.2439 -0.3505
11371TIP3   OH255603   6.215   5.825   5.919 -0.0618  0.2667  0.2398
11371TIP3    H155604   6.298   5.784   5.943  0.0374  0.2054 -0.1988
11371TIP3    H255605   6.182   5.863   6.001 -0.5639 -1.3942  0.8481
11372TIP3   OH255606   4.084   0.893   2.454 -0.0729  0.7008 -0.0971
11372TIP3    H155607   4.048   0.889   2.365 -0.6404  0.4919  0.1428
11372TIP3    H255608   4.012   0.865   2.511  0.3565  0.6182  0.4115
11373TIP3   OH255609   6.503   2.321   4.044  0.1389  0.1042 -0.0104
11373TIP3    H155610   6.417   2.284   4.064  0.1495 -0.0492 -0.2374
11373TIP3    H255611   6.532   2.362   4.126  0.1572 -0.4530  0.2684
11374TIP3   OH255612   2.517   3.858   3.461 -0.0961  0.3382  0.5671
11374TIP3    H155613   2.456   3.879   3.390 -0.8396  0.2227  1.1525
11374TIP3    H255614   2.603   3.859   3.420 -0.6770 -2.7152 -1.0777
11375TIP3   OH255615   3.755   1.452  15.480  0.1349  0.3320 -0.1829
11375TIP3    H155616   3.711   1.522  15.528 -0.7962 -0.2775 -0.1288
11375TIP3    H255617   3.691   1.424  15.415  0.6838 -0.1398 -0.5227
11376TIP3   OH255618   6.063   0.988  12.495 -0.5056  0.7438 -0.5043
11376TIP3    H155619   6.128   0.925  12.526  0.3821  2.0858  0.4819
11376TIP3    H255620   5.983   0.936  12.484 -0.0204 -0.4192  1.0392
11377TIP3   OH255621   6.505   5.120   3.137  0.6019 -0.4018 -0.2412
11377TIP3    H155622   6.413   5.142   3.154  0.9001 -0.5363  1.9263
11377TIP3    H255623   6.536   5.186   3.075 -0.3814  1.0069  0.7146
11378TIP3   OH255624   3.818   3.686   3.386  0.1873  0.0946  0.1409
11378TIP3    H155625   3.726   3.714   3.390 -0.1368 -0.8481 -0.4261
11378TIP3    H255626   3.845   3.680   3.477  0.0734  1.5697  0.3001
11379TIP3   OH255627   3.355   5.373  11.167  0.1325  0.1508 -0.5277
11379TIP3    H155628   3.364   5.323  11.086  1.0117 -2.1888  0.9098
11379TIP3    H255629   3.442   5.368  11.208 -0.4541  0.7215  0.8508
11380TIP3   OH255630   6.308   2.597  16.958 -0.2183  0.6241  0.5681
11380TIP3    H155631   6.297   2.629  16.869  0.4951  1.3623  0.7269
11380TIP3    H255632   6.396   2.559  16.959  0.8013  2.8195  1.5560
11381TIP3   OH255633   6.609   2.891  13.102 -0.2682  0.2297  0.5175
11381TIP3    H155634   6.608   2.880  13.007  1.6284 -0.7423  0.5433
11381TIP3    H255635   6.702   2.894  13.124 -0.6718  0.4002  2.3531
11382TIP3   OH255636   5.659   3.814  12.422 -0.0027  0.0348 -0.3423
11382TIP3    H155637   5.590   3.770  12.471 -0.4513  1.1017  0.0173
11382TIP3    H255638   5.715   3.743  12.391  0.0866 -0.7197  1.3999
11383TIP3   OH255639   4.636   0.139   3.095  0.0489  0.5588 -0.1437
11383TIP3    H155640   4.581   0.084   3.152  0.6115  0.9905  0.8509
11383TIP3    H255641   4.639   0.092   3.012  0.8416 -1.1730  0.7860
11384TIP3   OH255642   2.652   0.394  15.450  0.5688 -0.0654 -0.1626
11384TIP3    H155643   2.592   0.358  15.384  0.7747  0.2258 -0.5086
11384TIP3    H255644   2.697   0.317  15.486 -0.4714 -0.3561  0.5651
11385TIP3   OH255645   5.591   6.416  11.935  0.4097 -0.1297  0.6553
11385TIP3    H155646   5.573   6.437  12.027 -1.6076 -1.0119  0.5141
11385TIP3    H255647   5.506   6.389  11.900  0.4224  3.1029 -2.3469
11386TIP3   OH255648   3.084   5.480   3.343  0.0237  0.0040  0.1754
11386TIP3    H155649   3.151   5.448   3.403  0.2738 -1.3136 -0.7666
11386TIP3    H255650   3.116   5.566   3.315 -1.9953  2.6634  4.8985
11387TIP3   OH255651   4.656   4.971  11.265  0.1872 -0.1896 -0.0710
11387TIP3    H155652   4.679   4.884  11.296  1.8045  0.2747  0.1322
11387TIP3    H255653   4.728   4.996  11.207  0.0617  1.2574  0.3539
11388TIP3   OH255654   5.323   4.188   5.479 -0.3667  0.3750  0.2141
11388TIP3    H155655   5.330   4.226   5.392  0.4936  1.8909  0.8958
11388TIP3    H255656   5.265   4.113   5.468 -0.6180  0.7809 -1.5692
11389TIP3   OH255657   4.955   4.794  15.726  0.2155 -0.2103 -0.3647
11389TIP3    H155658   5.032   4.845  15.751 -1.3790  1.5561  1.2794
11389TIP3    H255659   4.912   4.847  15.659  0.2157 -0.9968 -0.9941
11390TIP3   OH255660   5.647   1.526  11.482  0.1598  0.1668 -0.2784
11390TIP3    H155661   5.642   1.431  11.479 -0.7277  0.2081 -0.2992
11390TIP3    H255662   5.737   1.545  11.508  0.6730 -0.6536 -1.3771
11391TIP3   OH255663   0.287   3.681   2.718  0.5209 -0.6637 -0.0811
11391TIP3    H155664   0.269   3.772   2.696  2.8035 -0.2833 -0.5815
11391TIP3    H255665   0.219   3.631   2.672 -1.4445  0.7767  1.0864
11392TIP3   OH255666   2.444   1.406  16.975 -0.4099 -0.4240  0.1803
11392TIP3    H155667   2.412   1.334  17.029  2.0723 -1.3171  0.5616
11392TIP3    H255668   2.497   1.459  17.035 -0.9307  0.8717 -0.4667
11393TIP3   OH255669   4.291   3.944  15.946 -0.1086 -0.3318 -1.0611
11393TIP3    H155670   4.210   3.991  15.964  0.1909 -0.1756 -0.0278
11393TIP3    H255671   4.350   3.971  16.017  0.9467 -0.1928 -1.9654
11394TIP3   OH255672   3.002   6.572   6.473  0.1175  0.1063 -0.3498
11394TIP3    H155673   2.983   6.487   6.511  1.4048 -1.5663 -3.1283
11394TIP3    H255674   2.922   6.595   6.424  0.5678 -0.7132 -1.5227
11395TIP3   OH255675   0.924   6.502   4.448  0.5260  0.1859 -0.2325
11395TIP3    H155676   1.020   6.510   4.453  0.7855 -1.0146 -2.3378
11395TIP3    H255677   0.901   6.452   4.527  1.6744  0.1159  0.0852
11396TIP3   OH255678   4.074   0.628  14.777  0.1885  0.2726 -0.1896
11396TIP3    H155679   4.026   0.560  14.730  0.7976 -0.0578 -0.3445
11396TIP3    H255680   4.037   0.627  14.866 -0.6704  0.6092 -0.5254
11397TIP3   OH255681   1.829   5.898   2.255 -0.6715  0.8114 -0.4978
11397TIP3    H155682   1.793   5.820   2.296 -0.7693  0.5843 -1.0143
11397TIP3    H255683   1.820   5.966   2.322 -1.0917  0.5128 -0.2459
11398TIP3   OH255684   0.909   2.133   2.695 -0.4409  0.5275  0.1757
11398TIP3    H155685   0.870   2.161   2.778 -1.5291  1.1135 -0.5078
11398TIP3    H255686   0.989   2.186   2.688 -1.1211  1.5888  0.1523
11399TIP3   OH255687   0.769   0.216   1.871 -0.1661  0.2760  0.1117
11399TIP3    H155688   0.703   0.279   1.839  0.5690  0.4533 -1.1341
11399TIP3    H255689   0.846   0.234   1.817 -0.1143 -2.0952 -0.6858
11400TIP3   OH255690   4.694   0.822  11.302  0.1131  0.3050 -0.4505
11400TIP3    H155691   4.721   0.909  11.273  0.9160  0.5942  1.0557
11400TIP3    H255692   4.775   0.771  11.302  0.0383  0.1596  0.6411
11401TIP3   OH255693   3.346   4.995   1.248 -0.4810  0.0379 -1.1028
11401TIP3    H155694   3.422   4.940   1.271 -2.2079 -2.0107  0.0787
11401TIP3    H255695   3.351   5.003   1.153  1.0530 -0.2746 -1.0794
11402TIP3   OH255696   1.567   2.042  16.971  0.1056 -0.4435 -0.2702
11402TIP3    H155697   1.659   2.052  16.946  0.1004 -0.0356 -0.1327
11402TIP3    H255698   1.561   2.080  17.059  0.2630 -2.4521  0.6728
11403TIP3   OH255699   2.702   1.211   4.316  0.2296 -1.0988 -0.4819
11403TIP3    H155700   2.697   1.254   4.231 -0.3763  0.2823  0.2237
11403TIP3    H255701   2.796   1.208   4.336  0.2681  0.3822 -0.3338
11404TIP3   OH255702   3.353   1.452  12.977  0.0006 -0.2067  0.3047
11404TIP3    H155703   3.439   1.474  12.943  0.6929 -1.9275  0.8126
11404TIP3    H255704   3.296   1.451  12.900  0.7559 -0.4836 -0.2605
11405TIP3   OH255705   1.735   0.018  14.073  0.1908 -0.0245 -0.2708
11405TIP3    H155706   1.686  -0.051  14.028  0.9795 -0.8889  0.1707
11405TIP3    H255707   1.798  -0.028  14.128  0.4764  1.0434  0.3410
11406TIP3   OH255708   4.006   0.861  14.621  0.0899  0.2281  0.2792
11406TIP3    H155709   3.988   0.932  14.683  0.7263 -0.1814  0.9490
11406TIP3    H255710   4.032   0.787  14.676  0.1657 -0.3034 -0.4544
11407TIP3   OH255711   6.298   4.994   0.577 -0.2649 -0.1259 -0.0068
11407TIP3    H155712   6.330   5.023   0.663 -1.5461 -0.6103  0.6570
11407TIP3    H255713   6.374   5.002   0.520  0.4278  0.8851  1.0086
11408TIP3   OH255714   4.143   4.559   4.343  0.3118  0.0050  0.4811
11408TIP3    H155715   4.140   4.505   4.264 -1.5549 -0.9151  1.1001
11408TIP3    H255716   4.104   4.642   4.316  1.9778  0.6084 -0.1515
11409TIP3   OH255717   1.122   5.882  15.939 -0.4642  0.2100 -0.7642
11409TIP3    H155718   1.126   5.928  15.856  0.3957 -0.3343 -1.0373
11409TIP3    H255719   1.034   5.843  15.942 -0.3244 -0.1785 -1.6396
11410TIP3   OH255720   2.350   5.422  13.847 -0.3301  0.5236  0.2478
11410TIP3    H155721   2.368   5.401  13.755 -1.5255 -2.1592  0.5240
11410TIP3    H255722   2.416   5.372  13.895 -1.4768 -0.4257  0.8883
11411TIP3   OH255723   0.974   3.501  15.026  0.3879 -0.0063 -0.3745
11411TIP3    H155724   1.044   3.485  14.963  1.2314 -0.5394  0.6628
11411TIP3    H255725   0.996   3.586  15.065 -0.4704  0.6165 -1.2157
11412TIP3   OH255726   6.329   1.604   0.046 -0.1823  0.2666  0.4759
11412TIP3    H155727   6.267   1.580   0.115 -1.9260  0.4555 -0.9606
11412TIP3    H255728   6.326   1.699   0.042  0.0475  0.2657  0.2579
11413TIP3   OH255729   0.548   1.391  11.262  1.2732  0.2687  0.2779
11413TIP3    H155730   0.589   1.304  11.265  0.3085 -0.4365 -2.9405
11413TIP3    H255731   0.464   1.376  11.220  0.0714  2.5133  1.6943
11414TIP3   OH255732   6.267   2.574   4.297  0.0434 -0.1811  0.6858
11414TIP3    H155733   6.199   2.631   4.260 -0.1888  0.5982  2.2254
11414TIP3    H255734   6.224   2.489   4.305 -0.9385  0.3983  2.0237
11415TIP3   OH255735   0.337   1.044  16.285 -0.1712  0.1207  0.1561
11415TIP3    H155736   0.263   1.104  16.277 -0.4832 -0.3633 -0.9110
11415TIP3    H255737   0.343   1.023  16.378 -0.7059  0.9925  0.3904
11416TIP3   OH255738   3.704   1.120  12.405  0.3446  0.1912 -0.2820
11416TIP3    H155739   3.620   1.095  12.444 -1.5434  2.1911 -2.7200
11416TIP3    H255740   3.760   1.140  12.480 -2.2794  1.5333  1.4861
11417TIP3   OH255741   4.093   4.354   3.218  0.2542  0.1948  0.1502
11417TIP3    H155742   4.162   4.295   3.250 -0.4559 -0.7430  0.0256
11417TIP3    H255743   4.019   4.295   3.198 -0.7455  1.2146  0.7301
11418TIP3   OH255744   3.878   0.561  14.335  0.8101  0.0242  0.3748
11418TIP3    H155745   3.790   0.591  14.355  1.8429  3.2904  0.5378
11418TIP3    H255746   3.880   0.469  14.364 -2.5515 -0.2468  0.0691
11419TIP3   OH255747   4.527   2.937  11.934 -0.1394  0.8119 -0.1669
11419TIP3    H155748   4.558   2.875  11.868 -0.2418  0.6948 -0.1042
11419TIP3    H255749   4.594   2.936  12.002 -0.6241  0.0279  0.3107
11420TIP3   OH255750   6.473   2.319  11.682  0.5264 -0.2731 -0.3728
11420TIP3    H155751   6.453   2.226  11.672  1.0160 -0.5281  0.8296
11420TIP3    H255752   6.560   2.321  11.720 -0.2906  0.5991  1.6022
11421TIP3   OH255753   1.016   5.371   5.771 -0.8424  0.3604  1.0034
11421TIP3    H155754   0.993   5.279   5.771 -2.0255  0.6358  2.1048
11421TIP3    H255755   1.076   5.381   5.845 -1.0624  0.5665  1.1526
11422TIP3   OH255756   6.590   0.800  12.736  1.0242  0.5212 -0.5033
11422TIP3    H155757   6.676   0.794  12.776  0.7578  1.2671  0.2013
11422TIP3    H255758   6.531   0.824  12.808  0.6168  2.3885 -1.3909
11423TIP3   OH255759   6.108   3.023  13.123  0.0605  0.0003 -0.0791
11423TIP3    H155760   6.125   3.102  13.072  1.3070 -1.3819 -1.9622
11423TIP3    H255761   6.013   3.012  13.119  0.1627 -0.7726 -3.4372
11424TIP3   OH255762   5.608   4.383   2.540 -0.3676  0.3350 -0.3695
11424TIP3    H155763   5.524   4.354   2.503 -1.2610  1.1442  0.9226
11424TIP3    H255764   5.612   4.476   2.520  0.8790  0.0642 -1.5477
11425TIP3   OH255765   2.688   6.668  12.269 -0.5255  1.0999 -0.2690
11425TIP3    H155766   2.760   6.660  12.206  0.9179 -0.8257  1.4678
11425TIP3    H255767   2.620   6.611  12.234  1.1613 -1.8642  0.8983
11426TIP3   OH255768   6.718   3.696  11.390  0.2096  0.3660 -0.2512
11426TIP3    H155769   6.644   3.676  11.334  0.9119  3.3623 -2.4772
11426TIP3    H255770   6.703   3.786  11.419  1.8405  0.2352  1.1872
11427TIP3   OH255771   4.103   5.138   5.851 -0.0111  0.1212  0.6077
11427TIP3    H155772   4.097   5.052   5.892  1.0177 -0.5101 -0.4794
11427TIP3    H255773   4.176   5.181   5.896 -0.0085  0.1132  0.6112
11428TIP3   OH255774   5.575   0.661   4.463 -0.1898  0.0852  0.2769
11428TIP3    H155775   5.623   0.650   4.381 -1.3170  0.7939 -0.5094
11428TIP3    H255776   5.489   0.625   4.446 -0.0312 -1.0330  1.6179
11429TIP3   OH255777   1.624   5.873  15.906 -0.1583  0.0036 -0.5220
11429TIP3    H155778   1.686   5.814  15.948 -0.0858 -0.6257 -1.4691
11429TIP3    H255779   1.566   5.903  15.976 -0.8200 -1.9918 -0.1662
11430TIP3   OH255780   1.779   5.267  13.252  0.3376  0.1877 -0.4883
11430TIP3    H155781   1.729   5.300  13.178 -1.0748 -1.6434 -0.4222
11430TIP3    H255782   1.716   5.260  13.324  0.9396 -1.0140 -0.0416
11431TIP3   OH255783   4.775   5.831   6.261 -0.2104  0.3976 -0.0230
11431TIP3    H155784   4.840   5.857   6.327  0.0730 -0.0340 -0.1269
11431TIP3    H255785   4.712   5.778   6.309  1.3387 -2.0426 -0.5437
11432TIP3   OH255786   2.454   2.567  14.935 -0.1535  0.2023 -0.9284
11432TIP3    H155787   2.358   2.572  14.937 -0.3339 -2.1650 -0.7781
11432TIP3    H255788   2.475   2.545  14.845 -0.0004 -2.0611 -0.3909
11433TIP3   OH255789   5.408   5.879   2.958 -0.0598  0.4394 -0.2726
11433TIP3    H155790   5.407   5.790   2.994  0.5172  0.4823 -0.1504
11433TIP3    H255791   5.400   5.936   3.034  1.6194  0.5436 -0.1395
11434TIP3   OH255792   4.770   1.709   3.891 -0.4813  0.2979  0.0538
11434TIP3    H155793   4.710   1.675   3.958 -1.1443 -0.3439 -0.8387
11434TIP3    H255794   4.821   1.776   3.936 -1.0650  0.0357  1.1412
11435TIP3   OH255795   0.481   1.286   4.039 -0.1034 -0.1069 -0.4105
11435TIP3    H155796   0.407   1.339   4.008  0.4802  1.4497  0.7153
11435TIP3    H255797   0.539   1.280   3.964 -0.5557  0.1937 -0.7902
11436TIP3   OH255798   6.678   1.212   4.885 -0.4323  0.3451  0.4058
11436TIP3    H155799   6.757   1.242   4.930 -0.3651 -0.3557  0.7674
11436TIP3    H255800   6.654   1.131   4.930 -0.4146 -0.3388 -0.7630
11437TIP3   OH255801   2.883   1.101  14.086  0.0215 -0.3454 -0.6942
11437TIP3    H155802   2.901   1.043  14.012  2.2028  0.1476 -0.6427
11437TIP3    H255803   2.960   1.091  14.143 -0.6692  0.7849  0.4983
11438TIP3   OH255804   4.710   2.637  13.730  0.2588  0.0320 -0.0427
11438TIP3    H155805   4.668   2.552  13.719 -1.3758  0.8872 -0.8906
11438TIP3    H255806   4.670   2.673  13.810  0.6560  0.1604  0.0997
11439TIP3   OH255807   6.687   2.608   3.439  0.1944  0.4049 -0.4916
11439TIP3    H155808   6.675   2.636   3.530 -0.3988  0.8190 -0.6916
11439TIP3    H255809   6.714   2.687   3.393  0.1763  0.2684 -0.7371
11440TIP3   OH255810   4.517   2.959  11.293  0.2830  0.5605  0.0754
11440TIP3    H155811   4.563   3.020  11.350  0.4425 -0.8332  1.5131
11440TIP3    H255812   4.556   2.973  11.207  1.5235  1.2882  0.7244
11441TIP3   OH255813   6.632   6.071  12.394 -0.7239  0.0835  0.8449
11441TIP3    H155814   6.619   6.155  12.350  1.5811  0.1883  0.2194
11441TIP3    H255815   6.637   6.093  12.487  0.6629  0.8112  0.6306
11442TIP3   OH255816   4.902   3.030   3.179  0.5076  0.0477  0.6437
11442TIP3    H155817   4.862   3.051   3.095  0.3998  1.4205  1.0064
11442TIP3    H255818   4.979   2.978   3.157  0.3807  0.2316 -0.2858
11443TIP3   OH255819   2.055   2.533   4.611 -0.0828  0.3414  0.0084
11443TIP3    H155820   2.015   2.497   4.690  0.7107  0.0390  0.2861
11443TIP3    H255821   2.009   2.615   4.595  0.1805  0.7265  1.1658
11444TIP3   OH255822   4.258   2.631  15.163 -0.4421 -0.3025 -0.1667
11444TIP3    H155823   4.290   2.719  15.183  0.5962  0.3308 -3.8134
11444TIP3    H255824   4.308   2.573  15.221  1.2758  1.3241  0.0539
11445TIP3   OH255825   2.201   2.659   3.717 -0.4985 -0.3631  0.2591
11445TIP3    H155826   2.283   2.608   3.714 -0.7899 -0.8077 -0.7305
11445TIP3    H255827   2.140   2.603   3.765 -0.5193 -0.4848  0.0907
11446TIP3   OH255828   5.674   3.204  11.223  0.5653 -0.1897  0.1472
11446TIP3    H155829   5.723   3.282  11.197 -1.6836  0.3293 -3.2189
11446TIP3    H255830   5.726   3.131  11.190  1.2919  0.0285  0.7740
11447TIP3   OH255831   2.211   5.657   2.302 -0.0427 -0.3589  0.1615
11447TIP3    H155832   2.126   5.612   2.301  0.4982 -1.4009 -0.4693
11447TIP3    H255833   2.247   5.641   2.215  1.7153 -1.7111  1.0953
11448TIP3   OH255834   6.163   1.652  13.808  0.2628  0.0703  0.0885
11448TIP3    H155835   6.139   1.628  13.719 -0.8874 -0.0978  0.4268
11448TIP3    H255836   6.200   1.740  13.800 -0.5868  0.3907 -0.4525
11449TIP3   OH255837   0.345   4.441   4.201  0.3886  0.0243 -0.3324
11449TIP3    H155838   0.321   4.394   4.121  0.3153 -1.8462  0.7342
11449TIP3    H255839   0.440   4.442   4.201  0.3963  1.0364 -0.9719
11450TIP3   OH255840   1.963   1.922   0.975 -0.4623  0.4158 -0.4131
11450TIP3    H155841   2.036   1.900   0.918 -0.6982  0.8762 -0.9003
11450TIP3    H255842   2.001   1.925   1.063  0.2465  1.2697 -0.7376
11451TIP3   OH255843   5.843   3.974   2.744 -0.6572  0.2289 -0.2555
11451TIP3    H155844   5.822   4.066   2.729 -2.2774  0.0887  0.8545
11451TIP3    H255845   5.783   3.926   2.687  0.0678 -0.1672 -0.7088
11452TIP3   OH255846   1.607   1.029   2.156  0.2337  0.6357 -0.3789
11452TIP3    H155847   1.684   1.057   2.206  1.2815  1.3430 -2.2990
11452TIP3    H255848   1.589   0.941   2.188  0.9636  0.9859  1.1047
11453TIP3   OH255849   6.145   5.427  11.457  0.2779  0.0293  0.2146
11453TIP3    H155850   6.216   5.489  11.438  0.8652 -1.2028 -1.9147
11453TIP3    H255851   6.187   5.355  11.503  0.2658 -0.3263 -0.3223
11454TIP3   OH255852   4.389   3.439  14.995 -0.8512  0.2690  0.0770
11454TIP3    H155853   4.415   3.416  15.084  0.6700 -0.6905 -0.5623
11454TIP3    H255854   4.415   3.363  14.942 -1.4930  0.9182 -1.2186
11455TIP3   OH255855   4.935   4.052  11.682  0.1136 -0.0719 -0.0730
11455TIP3    H155856   4.848   4.047  11.642  0.9104  1.1884 -2.1295
11455TIP3    H255857   4.979   4.122  11.635  2.2091 -0.5663  1.0294
11456TIP3   OH255858   2.125   5.037  12.055  0.0132 -0.5643 -0.0225
11456TIP3    H155859   2.049   5.088  12.083 -0.6183 -0.8950 -1.1054
11456TIP3    H255860   2.112   4.951  12.093 -0.6445 -0.8961 -0.9659
11457TIP3   OH255861   6.100   0.022  16.970 -0.3788  0.3498 -0.0463
11457TIP3    H155862   6.131  -0.025  16.892 -0.7366 -1.0305  0.5974
11457TIP3    H255863   6.089   0.112  16.941 -1.5986 -0.3278 -1.9408
11458TIP3   OH255864   2.661   2.491  15.618 -0.3246  0.1368 -0.6547
11458TIP3    H155865   2.596   2.529  15.560 -1.5147 -0.6901  0.0860
11458TIP3    H255866   2.681   2.560  15.681 -1.4783 -0.0038 -0.1111
11459TIP3   OH255867   0.053   6.400   1.590  0.3312  0.2404  0.2020
11459TIP3    H155868   0.103   6.361   1.661 -0.5174 -1.7482 -0.2249
11459TIP3    H255869   0.118   6.418   1.522  0.7683 -0.2558  0.4803
11460TIP3   OH255870   6.096   6.774   4.342 -0.4334  0.0945  0.1007
11460TIP3    H155871   6.044   6.851   4.362 -0.8617  0.3474 -1.8016
11460TIP3    H255872   6.160   6.803   4.277 -2.0194 -1.5385 -2.3733
11461TIP3   OH255873   0.170   3.857  12.597 -0.2373  0.1226  0.2742
11461TIP3    H155874   0.255   3.831  12.562  0.4923  0.4742  1.7122
11461TIP3    H255875   0.109   3.794  12.560  0.5876 -0.0074 -0.9678
11462TIP3   OH255876   1.081   3.264  10.128 -0.3461  0.1134  0.2428
11462TIP3    H155877   1.119   3.198  10.186  0.0929 -1.2692 -1.5312
11462TIP3    H255878   1.156   3.316  10.099 -0.5963  0.9540  1.0776
11463TIP3   OH255879   6.728   6.638   1.644 -0.0785  0.1659  0.1494
11463TIP3    H155880   6.764   6.558   1.605 -0.1883 -0.2521  0.8739
11463TIP3    H255881   6.782   6.653   1.722  0.1803  1.0220 -0.1817
11464TIP3   OH255882   5.312   1.159   6.069 -0.1705  0.1853  0.0279
11464TIP3    H155883   5.358   1.151   6.153 -0.9074  1.4373  0.5774
11464TIP3    H255884   5.220   1.167   6.093 -0.3061  1.4506 -0.8336
11465TIP3   OH255885   2.986   0.360   1.940 -0.4231 -0.0900 -0.5811
11465TIP3    H155886   3.058   0.419   1.960 -1.2947  1.5901 -2.1172
11465TIP3    H255887   3.001   0.334   1.849  0.0077 -2.4297  0.0752
11466TIP3   OH255888   2.904   0.992   5.790  0.1389  0.0624 -0.4821
11466TIP3    H155889   2.942   0.904   5.799 -0.8741 -0.2639  0.7864
11466TIP3    H255890   2.813   0.977   5.764  0.3214  0.8012 -1.6555
11467TIP3   OH255891   2.472   6.164   2.462 -0.4560 -0.6325 -0.6291
11467TIP3    H155892   2.397   6.104   2.467  0.0502 -1.3202 -1.1976
11467TIP3    H255893   2.462   6.207   2.378 -0.0790 -0.8969 -0.8069
11468TIP3   OH255894   2.289   5.615  11.992  0.1433  0.3816 -0.6591
11468TIP3    H155895   2.357   5.578  12.048 -1.4467 -0.3776  0.8864
11468TIP3    H255896   2.294   5.565  11.910  1.4367  0.3751 -0.5857
11469TIP3   OH255897   5.117   1.629  12.202 -0.0330  0.0202 -0.1875
11469TIP3    H155898   5.144   1.706  12.152  1.5145 -1.8037 -2.3822
11469TIP3    H255899   5.085   1.568  12.135 -0.3066 -1.6049  1.3611
11470TIP3   OH255900   1.546   0.400  14.970  0.3819 -0.6088  0.0294
11470TIP3    H155901   1.525   0.410  15.063 -0.3689  0.0223 -0.1964
11470TIP3    H255902   1.632   0.358  14.969 -0.4119 -2.3501  0.9976
11471TIP3   OH255903   3.152   4.955   3.024 -0.0016  0.7375 -0.6701
11471TIP3    H155904   3.065   4.914   3.013  0.0922 -0.3811  1.8827
11471TIP3    H255905   3.136   5.048   3.013 -1.9750  0.7481  1.4518
11472TIP3   OH255906   3.529   0.057   6.044 -0.0859 -0.0048 -0.2152
11472TIP3    H155907   3.465   0.022   5.983 -0.0464 -0.5774  0.0643
11472TIP3    H255908   3.480   0.069   6.126  0.0141  0.1447 -0.1761
11473TIP3   OH255909   3.270   4.165   5.743  0.7899 -0.6104  0.2866
11473TIP3    H155910   3.195   4.108   5.762  0.0754  0.4002  0.6482
11473TIP3    H255911   3.293   4.204   5.828 -0.5446  1.7261 -0.3134
11474TIP3   OH255912   0.134   0.105  16.954  0.2473  0.1042 -0.0715
11474TIP3    H155913   0.155   0.053  16.877  0.3387 -1.0815  0.7255
11474TIP3    H255914   0.039   0.105  16.958  0.2633 -0.9252  0.5190
11475TIP3   OH255915   3.891   3.646  11.462  0.7977 -0.0115 -0.9395
11475TIP3    H155916   3.896   3.579  11.395  2.1026 -0.3963 -0.4905
11475TIP3    H255917   3.937   3.721  11.425 -0.0130  0.4023 -1.1462
11476TIP3   OH255918   6.324   3.698  12.818  0.2173 -0.0960 -0.2431
11476TIP3    H155919   6.332   3.678  12.724  3.2350 -0.0796 -0.0807
11476TIP3    H255920   6.298   3.790  12.821  1.5608  0.3406 -1.1143
11477TIP3   OH255921   2.414   2.202   4.820  0.0318 -0.2245  0.5124
11477TIP3    H155922   2.410   2.132   4.886 -1.3336 -0.7583 -0.0973
11477TIP3    H255923   2.395   2.158   4.737  0.2107  0.6929 -0.0310
11478TIP3   OH255924   2.226   2.789  14.206  0.8517 -0.3889 -0.1022
11478TIP3    H155925   2.314   2.781  14.168  1.0333  1.4401 -0.1815
11478TIP3    H255926   2.179   2.711  14.177  2.9290 -2.3109  1.3533
11479TIP3   OH255927   3.695   0.171  11.817  0.6632  0.4039  0.3105
11479TIP3    H155928   3.642   0.251  11.819  0.1445  0.1111 -0.8767
11479TIP3    H255929   3.698   0.146  11.725 -0.4183 -1.7429  0.7773
11480TIP3   OH255930   2.952   5.796  16.864  0.2214  0.3967  0.1262
11480TIP3    H155931   3.032   5.810  16.915  0.9791 -1.9297 -0.2727
11480TIP3    H255932   2.884   5.782  16.929  0.2197  1.8943  0.4728
11481TIP3   OH255933   2.675   6.638   2.694  0.0375 -0.2042 -0.1099
11481TIP3    H155934   2.665   6.700   2.766  0.2137  0.1876 -0.4181
11481TIP3    H255935   2.769   6.620   2.691  0.0954  0.1241 -0.5145
11482TIP3   OH255936   1.225   6.674  11.565  0.1566  0.1619  0.2531
11482TIP3    H155937   1.230   6.657  11.659  0.8442 -0.1337  0.1687
11482TIP3    H255938   1.313   6.703  11.542 -0.0001  0.1930 -0.3092
11483TIP3   OH255939   0.489   4.560  13.725 -0.2223 -0.0777 -0.7231
11483TIP3    H155940   0.454   4.491  13.669  1.1696 -0.9718 -0.5201
11483TIP3    H255941   0.584   4.554  13.716  0.0697 -0.2337  1.6756
11484TIP3   OH255942   6.696   0.735  14.963 -0.9669  0.1676 -0.5457
11484TIP3    H155943   6.683   0.706  15.053 -2.0232 -0.0886 -0.7664
11484TIP3    H255944   6.668   0.826  14.963 -2.5224 -0.2870 -0.9489
11485TIP3   OH255945   4.329   0.412  16.308 -0.2224  0.0815 -0.7072
11485TIP3    H155946   4.267   0.339  16.312 -0.1426 -0.0245 -1.2912
11485TIP3    H255947   4.311   0.454  16.224  0.1219  0.3847 -0.6298
11486TIP3   OH255948   0.592   1.078   4.165 -0.2279  0.6266  0.6775
11486TIP3    H155949   0.683   1.066   4.137 -0.2045 -1.1810  1.4267
11486TIP3    H255950   0.563   1.156   4.118  0.9736 -0.1198 -1.4183
11487TIP3   OH255951   3.868   3.896  16.309  0.2747  0.1491  0.4099
11487TIP3    H155952   3.947   3.844  16.328 -0.0037 -0.7592 -0.8367
11487TIP3    H255953   3.850   3.879  16.217 -1.1351  0.6987  0.5706
11488TIP3   OH255954   6.108   5.665  10.520  0.3300  0.1816  0.2969
11488TIP3    H155955   6.071   5.589  10.566 -0.9520  1.0839  0.8076
11488TIP3    H255956   6.050   5.738  10.543  1.4700  1.3064 -0.2682
11489TIP3   OH255957   2.514   4.178   3.502 -0.1187  0.0732 -0.0165
11489TIP3    H155958   2.544   4.088   3.515 -0.7677  0.1191  2.3756
11489TIP3    H255959   2.580   4.218   3.446 -0.8830 -2.3960 -2.9041
11490TIP3   OH255960   3.005   1.106   2.642  0.1677 -0.1280 -0.0823
11490TIP3    H155961   3.094   1.077   2.661  0.5152  1.9450  1.7599
11490TIP3    H255962   3.015   1.193   2.603 -1.0040 -0.8049 -2.0535
11491TIP3   OH255963   0.038   1.337   0.208 -0.1712 -0.0267 -0.0451
11491TIP3    H155964   0.038   1.318   0.114 -2.7054  0.8178 -0.3074
11491TIP3    H255965   0.083   1.263   0.248  0.0524 -0.9083 -1.8379
11492TIP3   OH255966   3.837   1.007  13.977  0.3416  0.2343 -0.2218
11492TIP3    H155967   3.770   1.022  13.911  1.4581 -0.4980 -1.5856
11492TIP3    H255968   3.877   1.093  13.991  0.1553  0.3804 -0.5842
11493TIP3   OH255969   4.712   3.116  15.060 -0.8511 -0.1769 -0.0970
11493TIP3    H155970   4.645   3.082  15.000 -0.6933 -0.7753  0.0596
11493TIP3    H255971   4.688   3.079  15.145 -0.2450 -0.4981 -0.0643
11494TIP3   OH255972   4.553   2.608   6.800  0.1209  0.3893  0.0647
11494TIP3    H155973   4.505   2.639   6.722 -2.7334 -1.2680  1.0399
11494TIP3    H255974   4.568   2.515   6.783 -2.9324 -0.6906  2.4566
11495TIP3   OH255975   6.593   4.088   4.570  0.1210  0.5948  0.3284
11495TIP3    H155976   6.628   4.005   4.540 -0.6896  0.6694 -0.9286
11495TIP3    H255977   6.635   4.154   4.515  2.1074  1.2690  2.4681
11496TIP3   OH255978   2.892   0.951  16.839  0.3367  0.8070  0.7410
11496TIP3    H155979   2.822   0.963  16.904 -0.1723 -0.3071  0.4412
11496TIP3    H255980   2.868   1.009  16.766 -1.1534 -0.6592 -0.0059
11497TIP3   OH255981   5.161   5.678  14.259 -0.5866  0.1340 -0.0482
11497TIP3    H155982   5.220   5.748  14.230 -0.0931 -0.9625 -1.8206
11497TIP3    H255983   5.115   5.716  14.334  0.5882  1.8951 -0.1458
11498TIP3   OH255984   0.906   3.648  15.386  0.4646 -0.1837  1.0344
11498TIP3    H155985   0.922   3.725  15.442 -0.5706 -0.9106  2.3878
11498TIP3    H255986   0.945   3.671  15.302 -1.5123  2.6598  0.7553
11499TIP3   OH255987   4.229   5.980  11.170 -0.2922 -0.1644  0.2479
11499TIP3    H155988   4.247   5.909  11.232  2.0690  0.6614  0.6387
11499TIP3    H255989   4.267   6.058  11.211 -0.7278  0.8639 -1.2070
11500TIP3   OH255990   6.389   1.720   0.825  0.8557 -0.1565 -0.2780
11500TIP3    H155991   6.417   1.635   0.858  0.5122  0.2507  1.1276
11500TIP3    H255992   6.369   1.771   0.903  1.1529  1.2607 -1.0848
11501TIP3   OH255993   0.108   4.689  14.366 -0.2149 -0.4926 -0.7602
11501TIP3    H155994   0.166   4.747  14.416 -1.8570  0.4437  0.1424
11501TIP3    H255995   0.157   4.607  14.358  1.3877  0.3944 -0.4032
11502TIP3   OH255996   3.674   2.906  11.740  0.2779  0.0328 -1.1837
11502TIP3    H155997   3.721   2.942  11.815  2.1384 -0.9884 -1.8087
11502TIP3    H255998   3.583   2.898  11.770  1.3377 -2.6974  1.9282
11503TIP3   OH255999   3.320   1.711   0.639  0.0249  0.2233  0.3546
11503TIP3    H156000   3.254   1.642   0.645  0.7317 -0.4905  0.0434
11503TIP3    H256001   3.278   1.780   0.588  0.4387 -1.3508 -2.2768
11504TIP3   OH256002   3.432   1.030   5.117 -0.1378 -0.4276  0.4875
11504TIP3    H156003   3.526   1.044   5.106 -0.5174  0.3234 -2.7265
11504TIP3    H256004   3.414   0.949   5.070 -1.2089 -0.0595  0.2314
11505TIP3   OH256005   0.495   3.923  13.052  0.5941  0.0798 -0.1680
11505TIP3    H156006   0.405   3.898  13.071  0.3047  0.2941 -1.1687
11505TIP3    H256007   0.498   3.930  12.956  1.7966 -0.3866 -0.1786
11506TIP3   OH256008   1.503   0.838  15.347 -0.1932  0.3944  0.2575
11506TIP3    H156009   1.472   0.779  15.416 -2.0504  1.5693  0.5052
11506TIP3    H256010   1.423   0.876  15.310  0.7637  0.2186 -2.2117
11507TIP3   OH256011   0.237   3.349   5.251  0.0205  0.3904 -0.1240
11507TIP3    H156012   0.259   3.262   5.284  1.8157  0.5010 -0.9244
11507TIP3    H256013   0.144   3.360   5.274  0.4339 -0.6284  2.3963
11508TIP3   OH256014   1.570   1.110  14.844  0.3776  0.9191 -0.8084
11508TIP3    H156015   1.656   1.108  14.801 -0.1483  0.4289 -1.8781
11508TIP3    H256016   1.529   1.027  14.819 -0.1882  0.9018  0.1541
11509TIP3   OH256017   0.956   5.093   5.835  0.0153 -0.2157  0.6110
11509TIP3    H156018   0.896   5.067   5.905 -0.0936 -1.8619 -0.0357
11509TIP3    H256019   0.943   5.027   5.767  1.8770 -0.0796  0.0623
11510TIP3   OH256020   2.831   5.360  15.567  0.0548 -0.4973 -0.4310
11510TIP3    H156021   2.904   5.377  15.508 -0.0271 -0.2058 -0.4516
11510TIP3    H256022   2.873   5.331  15.648  0.3176  1.2856  0.1364
11511TIP3   OH256023   5.615   2.058  11.433  0.1115  0.4264 -0.1954
11511TIP3    H156024   5.614   2.153  11.443  2.2893  0.5062 -0.2426
11511TIP3    H256025   5.565   2.041  11.354 -2.4882  1.2677  1.1466
11512TIP3   OH256026   6.785   2.623  13.155 -0.2008 -0.5595  0.5420
11512TIP3    H156027   6.747   2.539  13.131  0.4099 -0.0677 -2.5266
11512TIP3    H256028   6.842   2.647  13.081  0.8697  1.8343  1.9863
11513TIP3   OH256029   2.178   0.591   0.112 -0.2419  0.1277 -0.1689
11513TIP3    H156030   2.270   0.597   0.135 -0.2555  2.3050 -0.5342
11513TIP3    H256031   2.178   0.551   0.024  0.4589  1.3434 -0.7399
11514TIP3   OH256032   0.840   5.081   5.465 -0.1460 -0.1340  0.1264
11514TIP3    H156033   0.764   5.133   5.491 -0.4671 -0.3122 -0.4265
11514TIP3    H256034   0.816   5.047   5.378 -0.0973 -1.4938  0.6269
11515TIP3   OH256035   5.189   1.273  16.814  0.8515  0.4185 -0.1476
11515TIP3    H156036   5.166   1.244  16.902  3.2200  0.8723  0.6966
11515TIP3    H256037   5.105   1.278  16.767 -0.4030 -0.3356  1.9002
11516TIP3   OH256038   3.632   2.552  14.379  0.3832  0.4312  0.2643
11516TIP3    H156039   3.669   2.473  14.418 -0.0252  1.3706  2.7693
11516TIP3    H256040   3.635   2.537  14.285 -0.3031 -2.8467  0.6723
11517TIP3   OH256041   5.523   5.110   6.086  0.0736 -0.2649  0.2508
11517TIP3    H156042   5.451   5.142   6.141 -0.3230 -1.2020  0.2971
11517TIP3    H256043   5.482   5.046   6.028  0.2000  1.6786 -2.1385
11518TIP3   OH256044   1.131   3.835   3.297  0.3272 -0.0592  0.6799
11518TIP3    H156045   1.101   3.925   3.308  1.2693  0.4512 -0.6004
11518TIP3    H256046   1.054   3.781   3.316 -0.1801  0.9936  1.7246
11519TIP3   OH256047   2.849   0.012  14.232  0.2166  0.1271  0.2013
11519TIP3    H156048   2.817   0.023  14.321 -1.7599 -0.0665 -0.4431
11519TIP3    H256049   2.824   0.092  14.187  2.6137  0.9324  0.1493
11520TIP3   OH256050   6.304   6.520  11.710  0.3551  0.5587 -0.0541
11520TIP3    H156051   6.252   6.590  11.748 -2.5046 -2.2511  1.7772
11520TIP3    H256052   6.367   6.496  11.778 -0.0084  0.1198  0.1373
11521TIP3   OH256053   2.810   3.859   2.168 -0.0789 -0.2717 -0.0803
11521TIP3    H156054   2.884   3.799   2.155  0.1304  0.3839 -2.2883
11521TIP3    H256055   2.756   3.816   2.235  1.1045 -1.9107 -0.1087
11522TIP3   OH256056   3.129   5.572   0.346 -0.1616 -0.0363 -0.0924
11522TIP3    H156057   3.051   5.592   0.399 -1.6678 -0.6692 -1.9641
11522TIP3    H256058   3.172   5.656   0.333  0.3239  0.1336  2.1586
11523TIP3   OH256059   1.363   4.438  15.045  0.0604 -0.3122 -0.3459
11523TIP3    H156060   1.326   4.527  15.048  0.3320 -0.2248  0.4642
11523TIP3    H256061   1.316   4.396  14.973  1.8049  1.3261 -2.5851
11524TIP3   OH256062   1.160   4.151   2.835 -0.2980  0.0067 -0.2979
11524TIP3    H156063   1.163   4.237   2.877  0.5131  1.3990 -2.9616
11524TIP3    H256064   1.252   4.123   2.832 -0.5605 -0.9965  0.5709
11525TIP3   OH256065   1.647   0.521   1.653  0.6633 -0.1397  0.2374
11525TIP3    H156066   1.727   0.537   1.604  0.3067 -1.2502 -0.7574
11525TIP3    H256067   1.582   0.579   1.613  0.1721 -1.6136 -1.2075
11526TIP3   OH256068   4.083   2.816  17.078  0.5414  0.2082 -0.0176
11526TIP3    H156069   4.023   2.804  17.151  0.6351  0.8095  0.1584
11526TIP3    H256070   4.158   2.760  17.100  0.3670  0.0223  0.1108
11527TIP3   OH256071   3.843   0.902  13.148 -0.2464  0.5382 -0.0688
11527TIP3    H156072   3.790   0.971  13.186 -1.5247 -0.8341  0.7653
11527TIP3    H256073   3.933   0.928  13.167 -0.7655  0.3263  3.4246
11528TIP3   OH256074   5.041   1.415   5.178  0.1033  0.9243 -0.2028
11528TIP3    H156075   4.956   1.415   5.222 -0.8066  0.3553 -1.8737
11528TIP3    H256076   5.020   1.429   5.086  1.4334 -3.0846 -1.3012
11529TIP3   OH256077   4.776   4.060  13.681  0.5470  0.1842  0.0890
11529TIP3    H156078   4.866   4.030  13.690  0.1851 -0.6404  1.1797
11529TIP3    H256079   4.750   4.084  13.770  0.0399  1.4848 -0.3853
11530TIP3   OH256080   3.112   3.208   3.800 -0.1013  0.0461 -0.1187
11530TIP3    H156081   3.172   3.133   3.791  0.7298  0.5490  1.0067
11530TIP3    H256082   3.065   3.191   3.882 -0.9033  0.0902 -0.5585
11531TIP3   OH256083   0.474   3.473   0.510  0.3061 -0.5644 -0.0399
11531TIP3    H156084   0.491   3.517   0.427  1.7033  0.1182  0.5519
11531TIP3    H256085   0.560   3.442   0.538 -0.2846 -1.5564  0.7296
11532TIP3   OH256086   0.898   0.448   1.176 -0.1279  0.0288 -0.4660
11532TIP3    H156087   0.852   0.468   1.094  1.1178  1.1993 -0.9280
11532TIP3    H256088   0.986   0.422   1.148 -0.1993 -1.2892  0.4364
11533TIP3   OH256089   2.124   6.485   6.124 -0.1153  0.1086  0.3315
11533TIP3    H156090   2.047   6.470   6.069  1.2567 -2.9113 -1.0609
11533TIP3    H256091   2.098   6.452   6.210 -0.0826 -2.2333 -0.4639
11534TIP3   OH256092   2.121   6.069   1.269 -0.2006  0.5684 -0.3190
11534TIP3    H156093   2.065   6.024   1.331 -0.3448  0.1344 -0.7581
11534TIP3    H256094   2.065   6.136   1.229 -0.2357  0.5396 -0.3176
11535TIP3   OH256095   1.866   6.336   1.545  0.0936 -0.2669  0.2910
11535TIP3    H156096   1.822   6.409   1.502 -2.9716 -1.2828  1.4147
11535TIP3    H256097   1.885   6.368   1.633  0.1481 -0.3566  0.3124
11536TIP3   OH256098   6.364   1.745  16.294 -0.5694  1.0623 -0.0661
11536TIP3    H156099   6.359   1.691  16.215  0.5931 -0.1928  0.6625
11536TIP3    H256100   6.457   1.766  16.303 -0.4798  0.1528  1.5899
11537TIP3   OH256101   3.643   6.603  14.920 -0.4676 -0.3489 -0.1960
11537TIP3    H156102   3.670   6.585  15.010 -2.3694  0.9727  0.7290
11537TIP3    H256103   3.619   6.696  14.921  0.2479 -0.0953 -2.3045
11538TIP3   OH256104   5.797   2.085  12.937  0.2463 -0.0120  0.7976
11538TIP3    H156105   5.716   2.055  12.979 -0.0562  0.3577  0.4854
11538TIP3    H256106   5.835   2.146  13.000  1.5973 -2.0462  2.0790
11539TIP3   OH256107   2.551   1.409  12.414  0.4672 -0.5663 -0.3770
11539TIP3    H156108   2.581   1.455  12.336 -2.3746 -0.9759 -1.8225
11539TIP3    H256109   2.502   1.475  12.464 -0.2543 -1.0406 -0.4528
11540TIP3   OH256110   2.538   0.678  10.766 -0.0021  0.4366 -0.3705
11540TIP3    H156111   2.499   0.642  10.686 -0.0466 -0.2801 -0.0294
11540TIP3    H256112   2.628   0.700  10.740 -0.2019  0.7955 -0.7823
11541TIP3   OH256113   4.453   1.725   2.232  0.0624 -0.5798 -0.1091
11541TIP3    H156114   4.506   1.784   2.287  0.0871 -0.8473  0.1570
11541TIP3    H256115   4.518   1.672   2.185  0.0925  0.6688 -1.5645
11542TIP3   OH256116   1.340   1.134   1.810  0.4674 -0.5227 -0.0305
11542TIP3    H156117   1.399   1.084   1.755  1.3362  0.1473  0.2717
11542TIP3    H256118   1.270   1.162   1.751  0.8574 -0.6587 -0.5647
11543TIP3   OH256119   5.866   4.149   4.082 -0.6208  0.4890  0.0130
11543TIP3    H156120   5.919   4.103   4.017  1.7413  0.4632  1.8358
11543TIP3    H256121   5.795   4.088   4.103 -0.3198 -0.2708 -1.1178
11544TIP3   OH256122   3.054   5.892   0.447 -0.0546  0.2475  0.4141
11544TIP3    H156123   3.012   5.827   0.505 -0.4293 -0.2132 -0.3582
11544TIP3    H256124   3.039   5.976   0.491 -0.9872 -0.0108  0.6165
11545TIP3   OH256125   5.829   3.607  12.434 -0.3267  0.3859 -0.7018
11545TIP3    H156126   5.896   3.634  12.371 -1.5852 -1.3916 -2.9292
11545TIP3    H256127   5.856   3.520  12.462 -1.1467  0.0924 -0.7956
11546TIP3   OH256128   4.211   0.802  15.887 -0.1565 -0.6330  0.6490
11546TIP3    H156129   4.179   0.761  15.807  0.7814  1.1944 -0.7289
11546TIP3    H256130   4.303   0.775  15.892  0.4531  1.1405 -0.2372
11547TIP3   OH256131   6.457   2.264  14.278  0.8546 -0.5675  0.4964
11547TIP3    H156132   6.516   2.291  14.208  1.1892  0.7419  1.2559
11547TIP3    H256133   6.392   2.209  14.234  0.4821  1.0166 -1.0549
11548TIP3   OH256134   3.385   0.364   4.580 -0.4806  0.1444  0.0745
11548TIP3    H156135   3.479   0.381   4.571  0.0566 -2.7915 -0.7594
11548TIP3    H256136   3.344   0.448   4.558  1.8861  0.9797 -1.6048
11549TIP3   OH256137   1.621   5.385   1.101 -0.7167  0.0749 -0.4307
11549TIP3    H156138   1.670   5.465   1.081 -1.2412  0.0169 -2.1131
11549TIP3    H256139   1.684   5.314   1.087 -0.7157  0.1122 -0.6228
11550TIP3   OH256140   1.101   5.480   4.325  0.0103  0.3275 -0.1674
11550TIP3    H156141   1.014   5.495   4.360 -0.0283  0.8235 -0.4698
11550TIP3    H256142   1.102   5.387   4.301 -0.2540  0.1963  0.3196
11551TIP3   OH256143   0.361   2.006   3.474 -0.7684 -0.4686  0.7648
11551TIP3    H156144   0.278   1.958   3.472 -1.2227  0.3334 -0.6202
11551TIP3    H256145   0.399   1.991   3.388  1.1774 -1.8727  1.8019
11552TIP3   OH256146   2.795   5.516  13.705 -0.2502  0.6563 -0.4924
11552TIP3    H156147   2.820   5.597  13.660 -1.3366  0.9073 -0.6692
11552TIP3    H256148   2.715   5.539  13.753 -1.0191 -0.4944 -1.1608
11553TIP3   OH256149   2.771   6.789  14.537  0.5157  0.1615 -0.5389
11553TIP3    H156150   2.741   6.871  14.576  2.8004  0.5474  0.5373
11553TIP3    H256151   2.694   6.731  14.543 -1.1755  2.1816 -1.4150
11554TIP3   OH256152   0.683   5.642  13.522  0.0623  0.0849  0.6177
11554TIP3    H156153   0.724   5.728  13.530 -0.5746  0.4077  0.4432
11554TIP3    H256154   0.676   5.627  13.428  1.2703 -0.7000  0.6221
11555TIP3   OH256155   1.370   1.185   2.760  0.4611  0.0691 -0.1113
11555TIP3    H156156   1.381   1.230   2.844 -2.5727 -0.3429  0.6106
11555TIP3    H256157   1.309   1.240   2.711  3.0308  0.9136 -2.6416
11556TIP3   OH256158   4.703   3.824  14.815  0.2582  0.1953 -0.5451
11556TIP3    H156159   4.664   3.911  14.807 -0.1946  0.1347  0.8204
11556TIP3    H256160   4.790   3.833  14.776  1.4411  2.0991  2.2786
11557TIP3   OH256161   6.473   5.746   1.637 -0.2113 -0.7424 -0.2168
11557TIP3    H156162   6.530   5.676   1.603  0.6448 -0.5262  0.7225
11557TIP3    H256163   6.534   5.808   1.677 -0.8849  0.9303 -1.6571
11558TIP3   OH256164   3.387   6.474  16.305  0.5464  0.1405  0.2552
11558TIP3    H156165   3.339   6.423  16.241  0.9812  1.7450 -1.4360
11558TIP3    H256166   3.479   6.465  16.280  1.1701 -2.0579  2.8451
11559TIP3   OH256167   4.512   1.828   6.934  0.1156  0.3315  0.3038
11559TIP3    H156168   4.475   1.767   6.871  0.1946  1.3714 -0.7707
11559TIP3    H256169   4.562   1.891   6.881  1.2964  0.4571  1.5004
11560TIP3   OH256170   6.696   3.228  11.081  0.1086  0.7556  0.3273
11560TIP3    H156171   6.607   3.192  11.082  0.1960  0.4047 -1.5435
11560TIP3    H256172   6.753   3.152  11.092  0.2001  0.9388  1.1792
11561TIP3   OH256173   1.015   6.020   1.164  0.6082  0.3817  0.4853
11561TIP3    H156174   1.076   5.992   1.096  0.2707 -0.2972  0.4498
11561TIP3    H256175   0.953   6.078   1.118 -0.6409 -1.4045 -0.2137
11562TIP3   OH256176   4.394   1.954   0.317  0.2749  0.3393 -0.0424
11562TIP3    H156177   4.435   1.892   0.257 -0.1360  0.3097 -0.2940
11562TIP3    H256178   4.443   2.036   0.303  0.6390  0.1466  0.0950
11563TIP3   OH256179   4.516   4.295  15.906  0.1069 -0.5648  0.5525
11563TIP3    H156180   4.520   4.217  15.849  1.6055 -0.6267  0.7081
11563TIP3    H256181   4.472   4.361  15.852  0.9126 -0.8219 -0.4646
11564TIP3   OH256182   6.303   6.453   6.094  0.4121 -0.5298  0.0919
11564TIP3    H156183   6.338   6.506   6.166  0.1571 -0.0115 -0.1612
11564TIP3    H256184   6.282   6.369   6.134 -0.0404 -0.1357  0.7009
11565TIP3   OH256185   2.326   4.658  13.786  0.5086 -0.6531 -0.1335
11565TIP3    H156186   2.353   4.740  13.744 -0.0761 -1.0668 -1.3419
11565TIP3    H256187   2.242   4.678  13.826 -0.4468 -1.0678 -1.8367
11566TIP3   OH256188   5.293   2.208  16.562 -0.2592  0.3408  0.1455
11566TIP3    H156189   5.315   2.239  16.650 -0.4940 -1.0334  0.7080
11566TIP3    H256190   5.351   2.257  16.504  0.0714  1.0868  1.0855
11567TIP3   OH256191   1.663   1.772  15.446  0.1944  0.0959  0.2128
11567TIP3    H156192   1.623   1.849  15.405  2.8466  1.5703  0.2091
11567TIP3    H256193   1.741   1.806  15.489 -0.0251 -2.1791  2.6354
11568TIP3   OH256194   4.387   6.317   2.883 -0.2104  0.4013 -0.4017
11568TIP3    H156195   4.441   6.252   2.838 -0.0010  0.2578  0.0525
11568TIP3    H256196   4.332   6.265   2.941 -0.2262  0.6120 -0.2306
11569TIP3   OH256197   2.863   3.701  13.534 -0.2073  0.0223  0.1066
11569TIP3    H156198   2.830   3.751  13.609  0.2723  0.9825 -0.3126
11569TIP3    H256199   2.948   3.739  13.516  0.3061 -1.1515 -0.0453
11570TIP3   OH256200   0.676   2.373  10.475  0.0525  0.7234 -0.0939
11570TIP3    H156201   0.697   2.424  10.397  3.7024 -1.9524 -1.1565
11570TIP3    H256202   0.745   2.397  10.537 -1.8126  1.5343  1.7810
11571TIP3   OH256203   4.903   0.550  13.053  0.0184 -0.3890  0.2197
11571TIP3    H156204   4.960   0.502  12.994 -1.1475  0.1749 -1.4461
11571TIP3    H256205   4.850   0.482  13.096 -0.8841 -0.7154 -1.3220
11572TIP3   OH256206   5.006   5.812   2.269 -0.3145 -0.3010  0.2406
11572TIP3    H156207   5.052   5.823   2.186  1.2677  0.6634  1.1992
11572TIP3    H256208   4.932   5.754   2.248  0.6548 -0.9419 -1.5912
11573TIP3   OH256209   5.776   6.414  15.781 -0.0137  0.7582  0.0637
11573TIP3    H156210   5.771   6.321  15.759 -1.7911  0.8311  0.0544
11573TIP3    H256211   5.869   6.435  15.774  0.2524 -0.6955 -1.2516
11574TIP3   OH256212   1.151   2.341   0.302 -0.2167  0.2969  0.5519
11574TIP3    H156213   1.132   2.302   0.216 -1.1517  0.8214  0.5117
11574TIP3    H256214   1.232   2.391   0.288  1.8496 -2.6740  0.9439
11575TIP3   OH256215   2.193   1.963   0.227 -0.0861 -0.3131 -0.2440
11575TIP3    H156216   2.137   2.037   0.204  0.7177  0.5873  0.6340
11575TIP3    H256217   2.257   1.958   0.156 -1.3394 -1.4712 -1.3573
11576TIP3   OH256218   2.104   4.814   0.528  0.4301  0.3027  0.6507
11576TIP3    H156219   2.110   4.909   0.538  1.3087  0.4826 -1.1803
11576TIP3    H256220   2.195   4.784   0.527  0.2357 -0.3046 -0.7226
11577TIP3   OH256221   6.313   5.705   5.631 -0.6378 -0.0354 -0.5922
11577TIP3    H156222   6.368   5.779   5.655  0.3697 -0.8551 -0.3333
11577TIP3    H256223   6.247   5.743   5.572 -0.0459  1.0248 -0.6024
11578TIP3   OH256224   1.644   5.615  11.177 -0.0389 -0.0723  0.3956
11578TIP3    H156225   1.684   5.674  11.114  0.0700  0.0306  0.5600
11578TIP3    H256226   1.705   5.614  11.251  0.7855 -1.6411 -0.2619
11579TIP3   OH256227   0.311   0.660  14.456  0.3984 -0.1256  0.7241
11579TIP3    H156228   0.235   0.719  14.446 -0.3498 -0.8301  1.9847
11579TIP3    H256229   0.305   0.629  14.547 -0.9704 -4.4220 -0.5773
11580TIP3   OH256230   0.494   3.503   5.344 -0.3707 -0.4366 -0.2543
11580TIP3    H156231   0.454   3.445   5.279 -1.2555  2.2886 -2.3315
11580TIP3    H256232   0.587   3.502   5.324 -0.2962 -1.5220  0.1001
11581TIP3   OH256233   3.433   0.244  10.950 -0.4137 -0.4895 -0.2352
11581TIP3    H156234   3.449   0.180  10.880 -0.8446  0.7615 -1.5129
11581TIP3    H256235   3.511   0.299  10.950 -1.1608  0.5902 -0.9341
11582TIP3   OH256236   4.985   6.188   4.615  0.7831 -0.1562 -0.1072
11582TIP3    H156237   5.036   6.261   4.580  0.5541  0.9730  1.7806
11582TIP3    H256238   4.904   6.228   4.646  0.4083 -1.2979  0.4457
11583TIP3   OH256239   4.477   6.230  10.771  0.5901  0.4374 -0.4277
11583TIP3    H156240   4.431   6.167  10.826 -0.8184  2.8963  1.4008
11583TIP3    H256241   4.439   6.218  10.684 -0.2903 -0.5775  0.0772
11584TIP3   OH256242   6.717   1.564  12.941  0.6153 -0.5272 -0.1021
11584TIP3    H156243   6.635   1.531  12.904  1.1715 -0.3028 -1.5992
11584TIP3    H256244   6.690   1.627  13.008 -0.4377  0.0318 -1.0216
11585TIP3   OH256245   4.576   4.143  12.113 -0.1931  0.4006  0.2363
11585TIP3    H156246   4.613   4.055  12.111 -0.4062  0.2138  2.2141
11585TIP3    H256247   4.652   4.201  12.120 -0.0142  0.4676 -1.6923
11586TIP3   OH256248   5.146   2.923   0.081 -0.1608  0.1136 -0.4902
11586TIP3    H156249   5.145   2.956   0.171 -1.7578 -1.7300  0.2367
11586TIP3    H256250   5.162   3.000   0.027 -0.6851  1.5181  1.2677
11587TIP3   OH256251   3.676   2.683   1.334 -0.0353 -0.3019 -0.5190
11587TIP3    H156252   3.697   2.776   1.343 -0.9895 -0.2275  1.1402
11587TIP3    H256253   3.606   2.681   1.268 -0.3213  0.1976 -0.2367
11588TIP3   OH256254   6.685   3.551  13.628  0.6753 -0.6515  1.1147
11588TIP3    H156255   6.723   3.639  13.626  0.1085 -0.4068 -0.5216
11588TIP3    H256256   6.593   3.564  13.607  0.6898 -1.6763  0.3498
11589TIP3   OH256257   5.495   0.409  14.576 -0.5970 -0.4025  0.1778
11589TIP3    H156258   5.561   0.382  14.512 -0.1312  0.3907  0.3216
11589TIP3    H256259   5.477   0.329  14.626  3.5570  0.1857  3.1408
11590TIP3   OH256260   4.254   4.502   1.670 -0.1499 -0.1835 -0.3227
11590TIP3    H156261   4.299   4.546   1.742  1.6136  0.0199 -1.4669
11590TIP3    H256262   4.174   4.468   1.708 -0.6406  2.3071  1.0856
11591TIP3   OH256263   1.426   3.315  17.074 -0.0178  0.1437  0.6448
11591TIP3    H156264   1.374   3.235  17.073  0.4953 -0.1917  0.3681
11591TIP3    H256265   1.366   3.382  17.105 -0.5606 -0.2778  0.5234
11592TIP3   OH256266   5.434   3.352  15.061  0.1353  0.1728 -0.0156
11592TIP3    H156267   5.390   3.276  15.100 -0.1335  0.9763  1.3043
11592TIP3    H256268   5.462   3.321  14.975 -0.2651 -1.3182  0.3511
11593TIP3   OH256269   4.122   4.876  13.359  0.2531 -0.5447  0.7372
11593TIP3    H156270   4.062   4.950  13.368 -1.9210 -1.7853 -1.8980
11593TIP3    H256271   4.125   4.836  13.446  0.6926  1.9922  1.9698
11594TIP3   OH256272   0.704   0.912   3.229  0.5332  0.2923 -0.3291
11594TIP3    H156273   0.762   0.971   3.276  2.1405 -0.6501 -1.0456
11594TIP3    H256274   0.616   0.942   3.251  1.2790  1.9956  0.5038
11595TIP3   OH256275   2.627   1.024   2.243  0.1603  0.3973  0.0389
11595TIP3    H156276   2.650   1.087   2.175  2.9156  0.2831  0.7559
11595TIP3    H256277   2.696   1.033   2.309 -0.9510 -1.3558  1.5539
11596TIP3   OH256278   3.364   6.580   2.795 -0.3388  0.1361  0.3011
11596TIP3    H156279   3.357   6.675   2.792 -2.4548  0.0091 -1.3254
11596TIP3    H256280   3.355   6.559   2.888 -0.3010  1.5015  0.6377
11597TIP3   OH256281   2.959   5.165   5.725  0.1103 -0.3239  0.5674
11597TIP3    H156282   2.906   5.093   5.757  0.0696 -0.6112 -0.1299
11597TIP3    H256283   3.002   5.131   5.646 -0.2249  0.5281 -0.0013
11598TIP3   OH256284   5.908   6.260   5.727  0.0104 -0.0910  0.2562
11598TIP3    H156285   6.004   6.260   5.725  0.0224  0.4470  0.5887
11598TIP3    H256286   5.886   6.311   5.805 -0.5567  0.5315 -0.2986
11599TIP3   OH256287   2.727   3.842   1.683  0.3936 -0.3249 -0.1324
11599TIP3    H156288   2.734   3.870   1.774  1.3280  1.7203 -0.7605
11599TIP3    H256289   2.815   3.811   1.661  0.0342 -1.3361 -0.2218
11600TIP3   OH256290   1.984   5.984   0.431 -0.1368 -0.0916 -0.3446
11600TIP3    H156291   2.060   5.975   0.374 -0.0088 -1.6824  0.0391
11600TIP3    H256292   1.909   5.984   0.372  0.1403  2.4701 -0.8117
11601TIP3   OH256293   6.220   0.709  11.973  0.9548  0.1900 -0.1275
11601TIP3    H156294   6.159   0.659  11.920  1.5134 -0.0887 -0.5154
11601TIP3    H256295   6.254   0.776  11.914  0.7578  0.5759  0.1893
11602TIP3   OH256296   4.716   2.914  10.808  0.6693 -0.3905  0.2619
11602TIP3    H156297   4.682   2.884  10.724  1.1914 -1.7977  0.5208
11602TIP3    H256298   4.654   2.980  10.838  0.0264 -0.4826 -0.8320
11603TIP3   OH256299   4.185   6.241   3.084 -0.0410 -0.2397  0.2279
11603TIP3    H156300   4.212   6.283   3.166 -0.2807 -1.3795  0.9069
11603TIP3    H256301   4.209   6.149   3.095 -0.7951 -0.5584 -0.6605
11604TIP3   OH256302   6.702   5.891   3.224 -0.0478 -0.1231 -0.2202
11604TIP3    H156303   6.759   5.829   3.179  1.0942 -0.5392  1.7117
11604TIP3    H256304   6.726   5.976   3.187  0.7727 -0.4526 -0.4750
11605TIP3   OH256305   1.424   3.795  15.205 -0.0884 -0.0804  0.0583
11605TIP3    H156306   1.487   3.845  15.153  0.7637  1.5764  2.5456
11605TIP3    H256307   1.352   3.855  15.220 -1.4289 -1.3155 -1.0694
11606TIP3   OH256308   1.444   2.525  14.943 -0.0914  0.3836  0.4335
11606TIP3    H156309   1.425   2.470  14.867 -0.2887  1.0591 -0.0225
11606TIP3    H256310   1.449   2.614  14.907 -0.4890  0.7512  1.2617
11607TIP3   OH256311   6.194   0.320  16.642  0.0916 -0.1033  0.0579
11607TIP3    H156312   6.116   0.338  16.588  0.2195 -0.6460 -0.3154
11607TIP3    H256313   6.243   0.255  16.592  1.7928  1.6221 -0.6660
11608TIP3   OH256314   5.662   6.094   3.065 -0.0999  0.1839 -0.1681
11608TIP3    H156315   5.571   6.114   3.088 -0.3752  0.6063 -1.5421
11608TIP3    H256316   5.700   6.178   3.040  0.7452  0.0469  0.5787
11609TIP3   OH256317   3.898   1.168  13.673  0.2164 -0.0721  0.1674
11609TIP3    H156318   3.861   1.247  13.710 -0.4851 -1.2900  2.2555
11609TIP3    H256319   3.846   1.150  13.595 -0.1804  1.0241  0.1767
11610TIP3   OH256320   1.264   3.741  12.373 -0.2650 -0.0532 -0.3278
11610TIP3    H156321   1.171   3.723  12.381 -0.3380  0.5603  0.4318
11610TIP3    H256322   1.296   3.679  12.308 -1.1132 -0.5747 -0.2574
11611TIP3   OH256323   2.477   6.205  12.125  0.2248  0.0118 -0.7280
11611TIP3    H156324   2.558   6.155  12.116  0.2575  0.3215 -2.5106
11611TIP3    H256325   2.472   6.258  12.046 -0.7748  1.4288  0.2225
11612TIP3   OH256326   1.273   5.726  16.305  0.3822 -0.3609  0.5506
11612TIP3    H156327   1.271   5.671  16.227 -0.4321 -0.6332  0.7488
11612TIP3    H256328   1.194   5.780  16.299  0.2038 -0.5233  1.2726
11613TIP3   OH256329   3.866   2.795   2.289  0.1200 -0.2971  0.3385
11613TIP3    H156330   3.881   2.765   2.200  1.0054  0.4247  0.2242
11613TIP3    H256331   3.787   2.750   2.317 -0.1447 -0.5599 -0.7975
11614TIP3   OH256332   0.535   2.003   4.842 -1.3763 -0.1211  0.4135
11614TIP3    H156333   0.486   1.953   4.777 -1.1732 -0.4465  0.5090
11614TIP3    H256334   0.627   1.985   4.822 -1.3230 -1.1053  1.4630
11615TIP3   OH256335   1.759   1.971  16.232  0.1668  0.3809  0.1618
11615TIP3    H156336   1.830   1.974  16.168 -0.3851  0.4225 -0.4703
11615TIP3    H256337   1.709   1.892  16.209 -0.6235  0.9474 -0.1170
11616TIP3   OH256338   1.770   4.474  16.806 -0.6043 -0.1280 -0.2748
11616TIP3    H156339   1.713   4.398  16.815  0.9609 -1.0964  2.6938
11616TIP3    H256340   1.850   4.450  16.853  0.5517  2.7979 -0.5405
11617TIP3   OH256341   2.629   4.290   0.964 -0.4370  0.2817  0.1342
11617TIP3    H156342   2.623   4.366   1.022 -1.2854  1.0453 -0.9030
11617TIP3    H256343   2.541   4.253   0.964 -0.1428 -0.4273  0.2649
11618TIP3   OH256344   1.952   3.321  14.930  0.3093  0.2705 -0.6147
11618TIP3    H156345   1.984   3.352  15.015 -0.1351  0.6336 -0.5760
11618TIP3    H256346   1.959   3.398  14.873  2.1505 -0.3878 -1.3516
11619TIP3   OH256347   5.180   4.144   4.776 -0.0039  0.3097  0.6598
11619TIP3    H156348   5.218   4.058   4.795 -2.5499 -0.6193  2.0392
11619TIP3    H256349   5.134   4.168   4.857 -2.0209  1.4687 -0.7424
11620TIP3   OH256350   2.683   4.029  16.082 -0.2477 -0.1096  0.0767
11620TIP3    H156351   2.738   4.021  16.003  0.8975  0.9911  0.7261
11620TIP3    H256352   2.741   4.068  16.147 -1.3222 -0.5651  1.3330
11621TIP3   OH256353   1.961   2.165  10.575  0.7603 -0.2227  0.0858
11621TIP3    H156354   1.993   2.136  10.661 -0.5370  0.5674  0.8677
11621TIP3    H256355   1.866   2.164  10.584  0.6208  2.8534 -0.2943
11622TIP3   OH256356   6.336   1.145  11.789 -0.4847  0.0255 -0.5644
11622TIP3    H156357   6.336   1.175  11.698  0.3932 -0.3569 -0.6943
11622TIP3    H256358   6.277   1.205  11.834 -2.8710 -1.1871 -1.8471
11623TIP3   OH256359   0.736   0.164  12.872  0.2181 -0.0974  0.0629
11623TIP3    H156360   0.644   0.135  12.877  0.0380  0.6300  1.4432
11623TIP3    H256361   0.787   0.084  12.888 -0.2541  0.0603  2.7400
11624TIP3   OH256362   1.501   0.209  13.419  0.2585 -0.2147  0.0225
11624TIP3    H156363   1.520   0.266  13.494 -0.5894 -0.2281  0.2507
11624TIP3    H256364   1.536   0.256  13.343  1.9166 -0.5953  0.5039
11625TIP3   OH256365   4.673   3.217   1.728 -0.1411  0.7865  0.4422
11625TIP3    H156366   4.743   3.243   1.789  1.2131 -0.0419 -0.7119
11625TIP3    H256367   4.718   3.201   1.645 -1.6943  0.0502 -0.2927
11626TIP3   OH256368   1.618   1.766  11.257 -0.0973 -0.3550  0.6124
11626TIP3    H156369   1.577   1.766  11.170  0.6887  0.5893  0.2240
11626TIP3    H256370   1.587   1.847  11.297  0.2710 -0.3307  0.8496
11627TIP3   OH256371   1.731   1.158   5.964  0.3186 -0.1114 -0.2032
11627TIP3    H156372   1.800   1.166   6.029  2.0519 -0.5779 -1.8974
11627TIP3    H256373   1.651   1.145   6.015  1.6081 -0.5592  1.8011
11628TIP3   OH256374   0.640   2.497   2.651 -0.5956 -0.3643 -0.0842
11628TIP3    H156375   0.585   2.498   2.572  0.0582  0.3747 -0.5477
11628TIP3    H256376   0.723   2.535   2.622 -0.4040  0.0792  1.0096
11629TIP3   OH256377   6.628   0.034   5.426  0.9268 -0.2951 -0.3829
11629TIP3    H156378   6.607  -0.051   5.464 -1.0901  0.9878  1.6831
11629TIP3    H256379   6.563   0.046   5.357 -0.0025  0.2688  0.5528
11630TIP3   OH256380   5.865   1.395  13.741  0.0457 -0.1721  0.2296
11630TIP3    H156381   5.779   1.438  13.738 -0.3751 -1.0241 -0.5716
11630TIP3    H256382   5.900   1.416  13.827  0.3909  2.7608 -0.5189
11631TIP3   OH256383   4.140   4.864   2.600 -0.1927  0.4977  0.3125
11631TIP3    H156384   4.077   4.909   2.543 -0.8479 -0.4707  0.2664
11631TIP3    H256385   4.151   4.924   2.674 -1.5964  0.4459  0.6005
11632TIP3   OH256386   1.313   6.612   3.265  0.0441 -0.0863  0.3405
11632TIP3    H156387   1.391   6.567   3.296  1.9201  0.9237 -2.5486
11632TIP3    H256388   1.293   6.674   3.335  0.9238 -1.3328  1.7727
11633TIP3   OH256389   6.223   5.298  12.041  0.1613 -0.2037  0.4074
11633TIP3    H156390   6.268   5.215  12.027 -0.4824 -0.4120 -0.5958
11633TIP3    H256391   6.169   5.309  11.962 -0.0982  0.9467  0.7285
11634TIP3   OH256392   1.406   5.435   4.386  0.3501  0.2709  0.0153
11634TIP3    H156393   1.403   5.465   4.477  1.7736 -0.3183  0.2859
11634TIP3    H256394   1.429   5.513   4.335 -0.3689  0.5842  0.1596
11635TIP3   OH256395   2.023   1.055  10.264  0.4280 -0.6921  0.3758
11635TIP3    H156396   1.953   1.033  10.202  0.7231 -0.8841  0.1106
11635TIP3    H256397   1.977   1.099  10.336 -0.0622 -1.4588  0.5445
11636TIP3   OH256398   0.985   6.273  12.268  0.2423 -0.1087  0.3751
11636TIP3    H156399   0.944   6.358  12.283 -1.4744 -0.9512  0.7582
11636TIP3    H256400   1.079   6.288  12.280 -0.0288  1.7172  0.4158
11637TIP3   OH256401   6.289   3.396  14.628  0.3969  0.2577  0.3687
11637TIP3    H156402   6.295   3.470  14.567  0.1844 -0.1093 -0.0995
11637TIP3    H256403   6.360   3.337  14.600  0.7622  0.4212  0.9316
11638TIP3   OH256404   5.743   5.674   5.873  0.6799 -0.9433  0.2715
11638TIP3    H156405   5.733   5.764   5.906 -1.5654 -0.6401 -1.0299
11638TIP3    H256406   5.834   5.670   5.842  0.6732  1.0513 -0.1323
11639TIP3   OH256407   0.872   6.782   4.079 -0.6552 -0.0805 -0.5081
11639TIP3    H156408   0.939   6.715   4.088 -1.4576 -0.9466 -0.7747
11639TIP3    H256409   0.811   6.764   4.151  0.3143  1.8327  0.8731
11640TIP3   OH256410   6.725   6.199  13.875  0.1600 -0.2391 -0.0533
11640TIP3    H156411   6.716   6.278  13.821 -1.8809 -0.2855  0.1137
11640TIP3    H256412   6.659   6.139  13.840 -0.3236 -0.7564  1.6372
11641TIP3   OH256413   0.192   0.986  13.936 -0.2763  0.6339  0.5144
11641TIP3    H156414   0.157   0.982  13.847  0.2850  0.3099  0.3033
11641TIP3    H256415   0.208   1.079  13.952 -0.1965  0.6739  0.2052
11642TIP3   OH256416   4.591   4.509   4.015  0.3133 -0.1404 -0.3653
11642TIP3    H156417   4.616   4.598   3.991 -0.8060  0.6539  1.2608
11642TIP3    H256418   4.617   4.500   4.106 -0.2226 -1.2280 -0.3006
11643TIP3   OH256419   1.780   3.684   3.246  0.6214 -0.2191 -0.2732
11643TIP3    H156420   1.739   3.643   3.322 -1.0531  1.6526 -0.0869
11643TIP3    H256421   1.783   3.616   3.179  0.6496 -1.4359  0.9472
11644TIP3   OH256422   6.100   0.666   3.897  0.4389 -0.0891 -0.2888
11644TIP3    H156423   6.157   0.666   3.974 -0.4580  2.6063  0.4807
11644TIP3    H256424   6.106   0.754   3.862 -1.8727 -0.2250 -1.2400
11645TIP3   OH256425   0.750   6.404   3.736  0.1827 -0.2455 -0.2795
11645TIP3    H156426   0.734   6.342   3.808 -0.7964 -0.9546 -1.0911
11645TIP3    H256427   0.700   6.482   3.760  1.0857  0.1112  0.5399
11646TIP3   OH256428   0.488   2.590  11.478  0.0636  0.3162  0.0782
11646TIP3    H156429   0.488   2.587  11.383  0.4557 -1.2323  0.0941
11646TIP3    H256430   0.464   2.501  11.504  0.5655  0.5533  1.4229
11647TIP3   OH256431   6.642   1.727   3.032  0.3589  0.7562  0.0942
11647TIP3    H156432   6.559   1.688   3.004 -0.3193  1.6258  0.8547
11647TIP3    H256433   6.678   1.663   3.094 -0.0215  0.6455  0.2039
11648TIP3   OH256434   2.371   5.520  11.334  0.4821 -0.2448  0.3103
11648TIP3    H156435   2.365   5.526  11.239 -2.6060  0.4603  0.4366
11648TIP3    H256436   2.412   5.602  11.360 -1.4302  1.0071 -0.3522
11649TIP3   OH256437   2.827   2.002  11.675  0.4131 -0.6704 -0.4260
11649TIP3    H156438   2.868   1.989  11.761  0.1016 -0.8869 -0.3096
11649TIP3    H256439   2.885   2.064  11.631  0.9288 -1.0521 -0.3024
11650TIP3   OH256440   6.356   6.305   5.216 -0.0631  0.1283  0.2165
11650TIP3    H156441   6.376   6.256   5.296 -1.1135  0.8531  0.9436
11650TIP3    H256442   6.262   6.322   5.221  0.0982  1.3286 -0.5264
11651TIP3   OH256443   5.374   3.226  15.793  0.2704  0.0434 -0.2614
11651TIP3    H156444   5.428   3.280  15.735 -0.3995 -1.7642 -2.7163
11651TIP3    H256445   5.429   3.213  15.871  2.2579  0.5721 -1.4896
11652TIP3   OH256446   6.542   2.848  11.766  0.2280 -0.4575 -0.5987
11652TIP3    H156447   6.515   2.757  11.754 -0.4248 -0.1867 -1.2572
11652TIP3    H256448   6.589   2.870  11.686  0.2863 -0.1752 -0.4864
11653TIP3   OH256449   3.738   2.779  16.597 -0.4012  0.3653 -0.3515
11653TIP3    H156450   3.756   2.830  16.517 -1.5524  0.6958 -0.4096
11653TIP3    H256451   3.654   2.737  16.580 -0.1849 -0.3554  0.3138
11654TIP3   OH256452   4.883   0.852   3.851  0.0440  0.6537  0.2489
11654TIP3    H156453   4.861   0.943   3.867  2.3185  1.2217  0.4862
11654TIP3    H256454   4.852   0.806   3.929 -0.3557  1.3432  0.5057
11655TIP3   OH256455   2.180   1.728  15.187 -0.3962  0.4359 -0.3904
11655TIP3    H156456   2.186   1.636  15.161 -1.4431  0.1806  0.1913
11655TIP3    H256457   2.208   1.729  15.278 -2.1268  0.3556  0.1820
11656TIP3   OH256458   1.430   3.158   0.500  0.4548 -0.1551  0.5389
11656TIP3    H156459   1.430   3.243   0.456 -0.1813 -0.5673 -0.2915
11656TIP3    H256460   1.436   3.179   0.593  0.8035  0.7771  0.3169
11657TIP3   OH256461   5.288   6.088  16.858  0.0135  0.1352  0.1884
11657TIP3    H156462   5.380   6.108  16.878  0.3333  0.6345 -1.6358
11657TIP3    H256463   5.266   6.017  16.919  1.2125  0.8320  1.5029
11658TIP3   OH256464   1.225   5.628   4.120 -0.5509 -0.3887  0.0306
11658TIP3    H156465   1.190   5.589   4.200 -0.9359  2.6970  1.5132
11658TIP3    H256466   1.317   5.645   4.140 -0.2032 -1.1257 -0.8604
11659TIP3   OH256467   0.818   6.793   4.788  0.0341 -0.2118  0.0923
11659TIP3    H156468   0.913   6.792   4.780  0.2099  1.9085  1.3066
11659TIP3    H256469   0.795   6.886   4.797 -2.1296 -0.6871  0.0948
11660TIP3   OH256470   0.752   2.534  13.494 -0.0107 -0.1843 -0.2499
11660TIP3    H156471   0.663   2.508  13.469  0.7089  0.0384 -3.4671
11660TIP3    H256472   0.807   2.504  13.422  2.2879  1.2861  0.7742
11661TIP3   OH256473   5.401   6.434   2.521 -0.1552  0.2558 -0.5030
11661TIP3    H156474   5.398   6.340   2.506 -1.0613 -0.3188  2.5288
11661TIP3    H256475   5.347   6.471   2.452 -1.0748 -1.6187 -0.8612
11662TIP3   OH256476   6.390   3.233   5.294  0.2984  0.6381  0.0984
11662TIP3    H156477   6.366   3.140   5.297  0.0182  0.6347 -1.3151
11662TIP3    H256478   6.458   3.238   5.227  0.0240  1.5037 -0.1320
11663TIP3   OH256479   6.180   0.234   5.946 -0.1131  0.0902 -0.1519
11663TIP3    H156480   6.238   0.262   5.875  0.9486  1.2749  1.1316
11663TIP3    H256481   6.197   0.141   5.955  0.3990  0.1016 -0.8578
11664TIP3   OH256482   1.627   2.413   0.655  0.1006  0.0139  0.0070
11664TIP3    H156483   1.553   2.401   0.597 -0.2157  0.4879  0.3036
11664TIP3    H256484   1.693   2.350   0.624 -0.4251 -0.4223 -0.2457
11665TIP3   OH256485   6.378   6.560   5.322  0.2126 -0.0639 -0.4447
11665TIP3    H156486   6.458   6.578   5.372  0.4924  0.0272 -0.9213
11665TIP3    H256487   6.397   6.478   5.276 -0.4614 -0.7512  0.4666
11666TIP3   OH256488   6.450   5.387  17.051 -0.0555  0.1941 -0.7807
11666TIP3    H156489   6.510   5.461  17.041  0.3432  0.0823  0.6379
11666TIP3    H256490   6.486   5.337  17.124 -1.3045 -0.4494 -0.5912
11667TIP3   OH256491   3.156   6.294   3.006  0.0702  0.2698 -0.0858
11667TIP3    H156492   3.216   6.233   2.964  0.6420 -0.6240  1.9134
11667TIP3    H256493   3.084   6.304   2.944  0.9459 -0.8475 -1.3227
11668TIP3   OH256494   1.930   5.475   6.101 -0.2636  0.2620  0.4850
11668TIP3    H156495   1.868   5.499   6.170 -1.2259  0.5550 -0.4699
11668TIP3    H256496   1.926   5.379   6.097  0.4261  0.1799  1.3930
11669TIP3   OH256497   5.460   3.838  14.715 -0.3279 -0.0997  0.0195
11669TIP3    H156498   5.439   3.749  14.745  0.9780 -0.9745 -1.4922
11669TIP3    H256499   5.381   3.866  14.667 -0.3992 -0.8480 -0.3248
11670TIP3   OH256500   5.335   0.785  12.144 -0.1515 -0.1237  0.3026
11670TIP3    H156501   5.389   0.725  12.196  1.1855 -1.4127 -2.3894
11670TIP3    H256502   5.368   0.872  12.166  1.8815 -0.7805  0.0398
11671TIP3   OH256503   2.402   1.804  16.325 -0.3726 -0.2131  0.0684
11671TIP3    H156504   2.351   1.738  16.278  0.3886 -0.2666 -0.7035
11671TIP3    H256505   2.477   1.756  16.360 -0.1871  0.1065  0.1138
11672TIP3   OH256506   1.970   2.101  14.895  0.3146  0.2241  0.5252
11672TIP3    H156507   1.979   2.014  14.934 -1.0816 -0.0989  0.1923
11672TIP3    H256508   1.901   2.091  14.829  1.2925  1.1974 -0.7059
11673TIP3   OH256509   6.733   2.393  11.863 -0.6224 -0.5432  0.0997
11673TIP3    H156510   6.780   2.316  11.895 -1.6893 -2.1740 -1.9943
11673TIP3    H256511   6.796   2.440  11.809 -0.3242 -0.6455  0.3591
11674TIP3   OH256512   6.044   2.481  11.630  0.3649  0.7873  0.6171
11674TIP3    H156513   6.044   2.471  11.534  1.3652 -1.7205  0.7952
11674TIP3    H256514   5.952   2.468  11.655  0.5141 -1.5331  0.1626
11675TIP3   OH256515   6.381   6.267  16.805 -0.2962  0.0776  0.3878
11675TIP3    H156516   6.370   6.324  16.730  1.1652 -0.7420 -0.4910
11675TIP3    H256517   6.307   6.287  16.862 -0.0299  2.5717 -0.0387
11676TIP3   OH256518   1.908   5.202   4.394 -0.3933 -0.5365  0.3909
11676TIP3    H156519   1.857   5.123   4.379  0.0112 -0.9522  1.1804
11676TIP3    H256520   1.859   5.271   4.348 -1.3050 -1.0456  0.5768
11677TIP3   OH256521   2.403   6.214  16.291  0.3479 -0.5371 -0.3939
11677TIP3    H156522   2.349   6.292  16.288  0.0351 -0.7589 -0.6312
11677TIP3    H256523   2.421   6.200  16.384  1.3544  0.4523 -0.4214
11678TIP3   OH256524   5.198   0.671   1.702 -0.2924  0.2644 -0.7278
11678TIP3    H156525   5.119   0.618   1.715  0.4878 -0.8588 -0.3178
11678TIP3    H256526   5.254   0.647   1.776  1.0174 -0.0834 -1.8102
11679TIP3   OH256527   3.947   1.905   1.017  0.3759  0.0375 -0.0002
11679TIP3    H156528   3.998   1.838   0.971  0.0981 -0.4622  0.4032
11679TIP3    H256529   4.011   1.950   1.072  0.6116  0.2767 -0.4717
11680TIP3   OH256530   4.502   1.919  14.089 -0.2117 -0.4170  0.3773
11680TIP3    H156531   4.413   1.907  14.057  0.4824 -1.5339 -1.3161
11680TIP3    H256532   4.495   1.986  14.156 -2.1657  0.3052 -0.4720
11681TIP3   OH256533   0.810   0.647   1.344  0.2500 -0.0956 -0.2583
11681TIP3    H156534   0.839   0.559   1.321 -1.8001 -1.0526  0.4919
11681TIP3    H256535   0.757   0.675   1.270 -2.1839 -1.1074  0.9800
11682TIP3   OH256536   1.766   5.525  13.775  0.2547 -0.2480 -0.7471
11682TIP3    H156537   1.674   5.536  13.751  0.1597 -2.0016 -1.3399
11682TIP3    H256538   1.770   5.547  13.868 -0.3761  1.6611 -1.1421
11683TIP3   OH256539   5.541   5.870  11.899 -0.2703  0.4635  0.4772
11683TIP3    H156540   5.572   5.781  11.883 -2.6017 -0.7053  2.0160
11683TIP3    H256541   5.585   5.922  11.832  2.6589 -1.4619  0.6815
11684TIP3   OH256542   1.476   1.108  15.650 -0.0731  0.4813 -0.3374
11684TIP3    H156543   1.402   1.049  15.667 -0.1881  0.6081 -0.4002
11684TIP3    H256544   1.451   1.157  15.572 -0.4506  1.3918  0.3367
11685TIP3   OH256545   2.676   0.014   2.914 -0.0391  0.1615  0.3068
11685TIP3    H156546   2.762   0.029   2.953  1.3133  0.8462 -2.6466
11685TIP3    H256547   2.637   0.101   2.908 -0.0536  0.1246 -0.1861
11686TIP3   OH256548   5.205   1.646  15.969 -0.1296 -0.1915  0.4479
11686TIP3    H156549   5.188   1.658  16.063  0.2129  0.5520  0.4194
11686TIP3    H256550   5.289   1.689  15.954 -0.3436 -0.0143 -0.2661
11687TIP3   OH256551   3.368   3.724  10.809 -0.1875  0.0848  0.2598
11687TIP3    H156552   3.411   3.696  10.728  0.8460  0.9918  0.4736
11687TIP3    H256553   3.377   3.819  10.809 -0.7849  0.1491  1.1194
11688TIP3   OH256554   6.535   3.968   2.090 -0.2756 -0.6214  0.2610
11688TIP3    H156555   6.595   4.008   2.152  1.3315 -0.2879 -1.4159
11688TIP3    H256556   6.454   4.020   2.098  0.4775  0.5105  0.8468
11689TIP3   OH256557   6.362   4.318   1.152 -0.6563  0.5711 -0.2268
11689TIP3    H156558   6.268   4.313   1.138 -1.0161 -3.1646  2.1633
11689TIP3    H256559   6.372   4.359   1.238 -0.0441  1.2735 -0.6175
11690TIP3   OH256560   1.916   1.646   1.323 -0.0571  0.3608 -0.3443
11690TIP3    H156561   1.940   1.570   1.270  0.3279  0.5979 -0.5106
11690TIP3    H256562   1.893   1.713   1.259 -0.3155  0.4141 -0.1974
11691TIP3   OH256563   4.018   5.155  11.567 -0.1520  0.0787  0.1120
11691TIP3    H156564   4.030   5.129  11.476  0.7769 -2.1512  0.8046
11691TIP3    H256565   4.065   5.238  11.574 -2.0368  1.4337 -1.8831
11692TIP3   OH256566   6.815   3.249   2.915 -0.1200  0.5606  0.0258
11692TIP3    H156567   6.747   3.316   2.909  0.7809  1.3799 -2.1247
11692TIP3    H256568   6.897   3.297   2.903  0.6908 -0.7035  0.2842
11693TIP3   OH256569   4.915   2.178   5.137 -0.3035  0.2959  0.0570
11693TIP3    H156570   4.931   2.239   5.065  1.0842  1.1788  1.0505
11693TIP3    H256571   4.967   2.101   5.116 -2.4645 -0.8563 -1.4635
11694TIP3   OH256572   5.102   0.051   2.442  0.3094  0.4202  0.0070
11694TIP3    H156573   5.037  -0.018   2.424 -0.7722  1.5659 -0.6278
11694TIP3    H256574   5.059   0.107   2.507  1.2305  0.4566  0.6041
11695TIP3   OH256575   4.590   4.122   6.706  0.2740  0.2421 -0.2952
11695TIP3    H156576   4.608   4.216   6.697 -0.4626  0.1526 -4.1561
11695TIP3    H256577   4.671   4.079   6.679  1.0362 -0.3865  2.6152
11696TIP3   OH256578   2.147   0.243  14.698 -0.2923 -0.1075 -0.0213
11696TIP3    H156579   2.072   0.185  14.690 -0.8726  0.7179 -0.7141
11696TIP3    H256580   2.197   0.231  14.618  0.1871 -0.4606  0.3216
11697TIP3   OH256581   6.106   1.759   4.964  0.4399  0.0647 -0.1530
11697TIP3    H156582   6.146   1.702   4.898  4.2481  1.8667  0.2871
11697TIP3    H256583   6.141   1.846   4.944 -2.6638  1.7444  1.0316
11698TIP3   OH256584   2.437   1.528   2.137 -0.7996  0.4588  0.0593
11698TIP3    H156585   2.444   1.589   2.211  0.4931 -0.5677  0.8187
11698TIP3    H256586   2.429   1.442   2.177  1.4984 -0.2880 -0.9499
11699TIP3   OH256587   3.086   6.220   2.068 -0.1572  0.1119  0.2596
11699TIP3    H156588   3.070   6.272   2.147  0.6625  0.2868  0.3217
11699TIP3    H256589   3.154   6.268   2.021  0.0202 -0.4743 -0.0961
11700TIP3   OH256590   4.599   3.875   0.953 -1.0596  0.0790 -0.0785
11700TIP3    H156591   4.536   3.893   0.882 -1.5596 -1.9011 -0.1824
11700TIP3    H256592   4.582   3.785   0.978 -0.9871  0.7400  2.7007
11701TIP3   OH256593   1.104   1.568  10.677 -0.2451 -0.2748  0.1751
11701TIP3    H156594   1.034   1.586  10.741 -0.8365  0.8333 -0.7573
11701TIP3    H256595   1.168   1.637  10.691  0.5574 -1.1299  0.8350
11702TIP3   OH256596   5.003   3.390   2.226 -0.5701 -0.2550 -0.0297
11702TIP3    H156597   4.939   3.392   2.298 -3.2082 -1.2292 -2.1755
11702TIP3    H256598   4.969   3.453   2.162  2.2455  1.3307 -0.1170
11703TIP3   OH256599   4.307   1.644  12.646  0.2267 -0.1822 -0.3581
11703TIP3    H156600   4.284   1.641  12.553 -1.3475  0.2345 -0.0005
11703TIP3    H256601   4.254   1.576  12.686  0.0669  0.3786  0.4049
11704TIP3   OH256602   5.616   2.116   6.374  0.9377  0.1115 -0.0601
11704TIP3    H156603   5.598   2.022   6.370  1.5373  0.0159 -0.9450
11704TIP3    H256604   5.699   2.126   6.326  0.5057  1.1847 -0.6114
11705TIP3   OH256605   5.854   1.802  10.736 -0.0685 -0.2766 -0.3129
11705TIP3    H156606   5.893   1.715  10.736 -1.2306 -0.8949  2.1616
11705TIP3    H256607   5.802   1.805  10.816 -0.2912  2.6125 -0.4436
11706TIP3   OH256608   4.785   3.525   1.402 -0.4499  0.2284 -0.6682
11706TIP3    H156609   4.839   3.561   1.332  0.7638 -0.1302  0.0534
11706TIP3    H256610   4.697   3.556   1.383 -0.3197 -0.5440 -2.8196
11707TIP3   OH256611   1.649   0.016   5.423 -0.2019  0.2668  0.2736
11707TIP3    H156612   1.568   0.017   5.372  0.0423  0.2422 -0.1245
11707TIP3    H256613   1.644  -0.064   5.476  0.3657 -0.7216 -1.0942
11708TIP3   OH256614   6.120   3.147   6.619 -0.0450 -0.0005  0.6832
11708TIP3    H156615   6.132   3.075   6.558 -0.7176 -0.9729  1.6680
11708TIP3    H256616   6.194   3.206   6.602  0.2434 -0.6713 -0.4566
11709TIP3   OH256617   4.126   6.340   2.447 -0.2382  0.4896  0.4944
11709TIP3    H156618   4.114   6.332   2.352  1.6934 -1.8463  0.3510
11709TIP3    H256619   4.044   6.376   2.478 -1.1546  0.7887 -1.9990
11710TIP3   OH256620   1.431   6.564  15.638  0.1528  0.3889 -0.3640
11710TIP3    H156621   1.456   6.573  15.546 -1.4548  0.1753 -0.8428
11710TIP3    H256622   1.366   6.493  15.639 -0.5972  1.0540  0.7905
11711TIP3   OH256623   5.353   5.271  14.476  0.0914 -0.0112 -0.2437
11711TIP3    H156624   5.322   5.346  14.527  0.2407  1.1759 -1.8334
11711TIP3    H256625   5.293   5.200  14.499 -1.0341  1.0281  0.1215
11712TIP3   OH256626   4.237   1.015  13.704 -0.3385  0.1055  0.2446
11712TIP3    H156627   4.143   1.010  13.722 -0.4535  0.8068 -0.0789
11712TIP3    H256628   4.274   0.934  13.738 -1.3758 -1.1753 -1.5031
11713TIP3   OH256629   5.729   5.735  15.814  0.7543  0.1859  0.1314
11713TIP3    H156630   5.691   5.823  15.808 -1.9921 -0.8717  0.5787
11713TIP3    H256631   5.659   5.681  15.852  2.6912 -2.0088  0.8308
11714TIP3   OH256632   2.848   4.161   1.086  0.3076  0.7823 -0.0801
11714TIP3    H156633   2.776   4.158   1.023  1.9473 -0.0716 -2.0184
11714TIP3    H256634   2.807   4.186   1.168 -2.0631  1.1229 -1.2891
11715TIP3   OH256635   3.598   0.925   0.649 -0.6409 -0.8111 -0.3275
11715TIP3    H156636   3.637   0.844   0.681 -1.9978 -1.3301  0.0738
11715TIP3    H256637   3.526   0.898   0.592 -1.8498  0.0518  0.7028
11716TIP3   OH256638   3.715   4.480  16.727 -0.0535  1.0024  0.1041
11716TIP3    H156639   3.718   4.501  16.821  0.1021 -2.8694  1.1434
11716TIP3    H256640   3.630   4.512  16.698 -0.7456  0.9830  1.9434
11717TIP3   OH256641   3.392   6.546  10.365 -0.3177 -0.4333 -0.7550
11717TIP3    H156642   3.435   6.626  10.335 -0.4430  0.4055  1.1623
11717TIP3    H256643   3.465   6.484  10.377  0.3614  0.7028  1.6157
11718TIP3   OH256644   2.154   0.757  11.104  0.3464 -0.0326  0.5404
11718TIP3    H156645   2.170   0.662  11.109  0.6929 -0.1546 -1.7804
11718TIP3    H256646   2.233   0.792  11.064  0.5793  1.4014  2.1502
11719TIP3   OH256647   2.504   5.658   5.531  0.1621  0.0949 -0.6995
11719TIP3    H156648   2.525   5.648   5.624 -0.5548  0.3370 -0.5119
11719TIP3    H256649   2.420   5.703   5.530  0.3806  0.4867 -1.4762
11720TIP3   OH256650   3.772   4.043  14.355 -0.4182 -0.2206 -0.0655
11720TIP3    H156651   3.774   4.117  14.294 -1.3851 -1.2227 -1.3721
11720TIP3    H256652   3.695   3.992  14.329 -1.3002 -0.3456  2.4419
11721TIP3   OH256653   3.119   2.723  10.984 -0.7040 -0.1559  0.0065
11721TIP3    H156654   3.214   2.718  10.983 -0.7368 -1.6447 -2.1488
11721TIP3    H256655   3.099   2.804  10.936 -0.5470  0.5836  1.1564
11722TIP3   OH256656   6.032   2.180  13.739  0.1158  0.0152  0.7917
11722TIP3    H156657   5.944   2.180  13.775  0.0125  0.9445  0.5663
11722TIP3    H256658   6.022   2.213  13.650  0.5560 -0.8828  0.3934
11723TIP3   OH256659   6.108   6.661   5.363  0.2896 -0.1257 -0.3119
11723TIP3    H156660   6.189   6.614   5.343 -0.5817 -1.2782 -1.2861
11723TIP3    H256661   6.074   6.618   5.442  0.2586 -0.1500 -0.3381
11724TIP3   OH256662   3.262   1.895  13.042  0.0757  0.2586  0.3769
11724TIP3    H156663   3.329   1.936  12.988  2.0742 -0.6816  1.9862
11724TIP3    H256664   3.221   1.830  12.985  1.2022  0.1876 -0.3759
11725TIP3   OH256665   4.950   1.902   3.714 -0.1299  0.2390 -0.9405
11725TIP3    H156666   5.019   1.862   3.660  1.1048 -0.9786  1.3665
11725TIP3    H256667   4.888   1.831   3.729  0.3939  0.0538  0.5201
11726TIP3   OH256668   4.504   5.314  15.092  0.0572 -0.0515 -0.0756
11726TIP3    H156669   4.429   5.316  15.151 -1.1629  0.9964 -1.5725
11726TIP3    H256670   4.534   5.405  15.088  1.8144 -0.5506  0.9604
11727TIP3   OH256671   1.491   3.297   3.002 -0.1588  0.6540 -0.4393
11727TIP3    H156672   1.500   3.380   3.049 -1.1796  1.5309 -1.7394
11727TIP3    H256673   1.556   3.240   3.044 -0.0246  1.8216  1.0556
11728TIP3   OH256674   2.486   4.590   4.512  0.4010  0.3833  0.1719
11728TIP3    H156675   2.540   4.610   4.435  0.1133  0.2667 -0.0592
11728TIP3    H256676   2.441   4.509   4.489 -0.0761  0.6195  0.2643
11729TIP3   OH256677   2.746   0.732  13.787  0.5508  0.0553  0.1911
11729TIP3    H156678   2.774   0.647  13.753 -1.3026  0.0798 -1.6340
11729TIP3    H256679   2.714   0.714  13.875  0.1910 -1.1657 -0.1740
11730TIP3   OH256680   5.185   3.138  17.131  0.0615 -0.1078  0.2163
11730TIP3    H156681   5.185   3.173  17.042  0.8900 -0.5208  0.0490
11730TIP3    H256682   5.264   3.084  17.136  0.3727  0.4329  1.4060
11731TIP3   OH256683   6.438   0.590  10.653 -0.4687  0.1674  0.3770
11731TIP3    H156684   6.440   0.630  10.740 -0.3810 -0.5425  0.7085
11731TIP3    H256685   6.390   0.508  10.666 -1.8709  0.8147 -0.5793
11732TIP3   OH256686   2.726   3.951   4.106  0.1796 -0.0006 -0.2571
11732TIP3    H156687   2.697   3.970   4.017  0.5039  0.0883 -0.3451
11732TIP3    H256688   2.649   3.914   4.149 -0.3053  0.9596 -0.2514
11733TIP3   OH256689   1.563   2.738  16.194 -0.2253 -0.4929  0.1960
11733TIP3    H156690   1.497   2.717  16.128  0.2427  0.4310 -0.5950
11733TIP3    H256691   1.646   2.715  16.154  0.0398 -0.3392  0.6450
11734TIP3   OH256692   0.251   0.499   5.621  0.4376 -0.0639 -0.0282
11734TIP3    H156693   0.323   0.460   5.671  0.9407  0.4344 -0.3529
11734TIP3    H256694   0.172   0.479   5.672  0.9065  0.1418  0.7884
11735TIP3   OH256695   6.412   0.805   1.750  0.1180 -0.2008 -0.7164
11735TIP3    H156696   6.319   0.830   1.750  0.3187  0.6110  0.1440
11735TIP3    H256697   6.459   0.888   1.749  0.8079 -0.3880  2.9005
11736TIP3   OH256698   3.673   1.237  16.407  0.3326  0.3265  0.2993
11736TIP3    H156699   3.615   1.295  16.456 -1.3184  1.4634 -2.7502
11736TIP3    H256700   3.760   1.275  16.418  0.1488  0.2025  2.6824
11737TIP3   OH256701   2.237   0.265   5.822  0.3440 -0.0427  0.1796
11737TIP3    H156702   2.206   0.175   5.811  0.4293 -0.1186  0.5329
11737TIP3    H256703   2.191   0.315   5.754  0.4064 -0.3775 -0.1090
11738TIP3   OH256704   4.067   5.120  12.548  0.0952  0.3914  0.1548
11738TIP3    H156705   4.013   5.194  12.573 -0.6370  0.0731 -0.4329
11738TIP3    H256706   4.004   5.050  12.529  0.7712 -0.4058  0.7678
11739TIP3   OH256707   4.405   2.942  13.546  0.1599 -0.0467 -0.2882
11739TIP3    H156708   4.462   3.019  13.548 -0.0645  0.1339 -0.7470
11739TIP3    H256709   4.457   2.875  13.501  0.1947 -0.0352 -0.2650
11740TIP3   OH256710   2.873   6.630  12.099 -0.1071  0.1540 -0.2038
11740TIP3    H156711   2.910   6.654  12.014 -1.1409  1.6506 -0.2675
11740TIP3    H256712   2.940   6.575  12.139  0.7729  0.1177 -1.6239
11741TIP3   OH256713   2.471   6.585   4.800 -0.3973 -0.3434 -0.0488
11741TIP3    H156714   2.527   6.639   4.856 -1.7049  0.5672  0.4229
11741TIP3    H256715   2.511   6.591   4.713  0.2069  0.3454  0.2694
11742TIP3   OH256716   3.413   2.482  16.719  0.1554 -0.3645  0.6152
11742TIP3    H156717   3.372   2.508  16.636  0.1036 -3.1849 -0.3265
11742TIP3    H256718   3.507   2.487  16.702  0.1586 -2.2066 -0.1197
11743TIP3   OH256719   6.329   4.511  15.489 -0.0385 -0.0357 -0.1327
11743TIP3    H156720   6.382   4.452  15.436  0.7084  0.1253  0.4211
11743TIP3    H256721   6.387   4.584  15.510  0.7874 -1.5257  3.5254
11744TIP3   OH256722   4.529   3.513  11.497  0.1402 -0.1462  0.3252
11744TIP3    H156723   4.587   3.558  11.436 -0.1093  0.4390  0.5080
11744TIP3    H256724   4.447   3.562  11.492 -0.2511 -0.7986  0.2733
11745TIP3   OH256725   6.042   6.353  11.378  0.6260 -0.4110 -0.1396
11745TIP3    H156726   5.976   6.366  11.310 -1.3115 -2.5388  1.1684
11745TIP3    H256727   6.006   6.397  11.455  1.9360  0.4532  0.0135
11746TIP3   OH256728   5.100   6.048   5.430 -0.1792  0.4904 -0.5165
11746TIP3    H156729   5.034   6.030   5.497  0.8510 -1.4280  0.0678
11746TIP3    H256730   5.064   6.010   5.350 -0.9120  1.7939 -0.8364
11747TIP3   OH256731   4.901   0.888  11.874 -0.4297  0.0173  0.1949
11747TIP3    H156732   4.975   0.829  11.860 -0.6603 -0.3539  0.5221
11747TIP3    H256733   4.825   0.840  11.842 -0.5619  0.3071  0.0701
11748TIP3   OH256734   3.983   6.208   3.726  0.4912 -0.0325  0.5332
11748TIP3    H156735   3.998   6.297   3.695 -0.9440  0.1271  0.2295
11748TIP3    H256736   3.891   6.190   3.705  0.5955 -1.3800  1.0998
11749TIP3   OH256737   3.835   3.380   4.413 -0.1770 -0.0621 -0.3079
11749TIP3    H156738   3.836   3.438   4.489  0.2441 -0.4976  0.0275
11749TIP3    H256739   3.922   3.390   4.374 -0.6240  0.6846 -1.1474
11750TIP3   OH256740   0.479   2.534  16.384 -0.1045 -0.2970 -0.2753
11750TIP3    H156741   0.433   2.613  16.411 -0.1288 -0.7332  1.0405
11750TIP3    H256742   0.411   2.481  16.342 -0.5244 -0.3907  0.4986
11751TIP3   OH256743   6.655   3.818  14.186  1.1297 -0.1745  0.7500
11751TIP3    H156744   6.640   3.898  14.236  1.4513  0.0581  0.4828
11751TIP3    H256745   6.580   3.762  14.205  0.4199  0.5682  0.1968
11752TIP3   OH256746   1.360   2.779   1.301  0.4099  0.5001 -0.1652
11752TIP3    H156747   1.273   2.743   1.285  1.1405 -0.6516 -1.7659
11752TIP3    H256748   1.379   2.832   1.223  1.9648 -0.9860 -0.8552
11753TIP3   OH256749   3.455   4.712  17.208  0.7131  0.1676  0.0628
11753TIP3    H156750   3.486   4.801  17.194  0.5321  0.7323  2.7242
11753TIP3    H256751   3.462   4.698  17.303 -1.2234 -1.9128  0.0075
11754TIP3   OH256752   5.101   5.630  13.788 -0.1651 -0.1646 -0.0812
11754TIP3    H156753   5.009   5.604  13.796 -0.1868 -0.7221 -1.6726
11754TIP3    H256754   5.099   5.704  13.726  0.2455  1.4000  1.6913
11755TIP3   OH256755   1.634   4.157   3.994  1.0762 -0.1415  0.1418
11755TIP3    H156756   1.723   4.166   3.958  2.1778  0.4124  2.7573
11755TIP3    H256757   1.624   4.063   4.009  0.4645 -0.4221 -1.8059
11756TIP3   OH256758   2.748   3.304   3.652  0.8662  0.0720  0.6710
11756TIP3    H156759   2.719   3.215   3.631  0.2370  0.5346 -0.5921
11756TIP3    H256760   2.771   3.302   3.745 -0.4687 -1.0705  1.0063
11757TIP3   OH256761   0.742   1.888   1.789  0.2830 -1.0832  0.1995
11757TIP3    H156762   0.653   1.922   1.796  0.7176  0.1234  0.2862
11757TIP3    H256763   0.754   1.871   1.696  0.5441  0.5330 -0.0987
11758TIP3   OH256764   0.383   3.934   3.445 -0.2378 -0.5045  0.6069
11758TIP3    H156765   0.365   3.850   3.489  2.7524 -1.0555  0.9721
11758TIP3    H256766   0.409   3.993   3.516  0.4356 -0.1373  0.0675
11759TIP3   OH256767   3.456   2.850  12.243 -0.5586 -0.3575 -0.2985
11759TIP3    H156768   3.363   2.871  12.245 -0.4558  0.1734 -0.8860
11759TIP3    H256769   3.499   2.934  12.224  0.0479 -0.5768  0.0612
11760TIP3   OH256770   4.835   0.158  11.361 -0.1204  0.2302  0.4342
11760TIP3    H156771   4.913   0.211  11.344 -1.3056  2.1964  0.8111
11760TIP3    H256772   4.795   0.146  11.275  1.1683 -1.8214  0.0611
11761TIP3   OH256773   3.114   0.032  15.493 -0.2427 -0.4488 -0.6791
11761TIP3    H156774   3.148  -0.055  15.514 -1.6787 -0.9196 -0.1391
11761TIP3    H256775   3.088   0.069  15.577 -0.0678  0.3219 -0.9539
11762TIP3   OH256776   5.846   5.770  16.839  0.3526  0.0747 -0.6335
11762TIP3    H156777   5.893   5.752  16.921 -0.7643  0.2097  0.0631
11762TIP3    H256778   5.795   5.691  16.824 -1.8151  1.1524  0.5041
11763TIP3   OH256779   5.296   2.308   0.133 -0.7150 -0.0324  0.8559
11763TIP3    H156780   5.337   2.222   0.126 -0.3995  0.1471  0.3987
11763TIP3    H256781   5.368   2.367   0.155 -0.7175  0.2898  0.0277
11764TIP3   OH256782   0.665   3.638  10.833  0.0307  0.2929 -0.2368
11764TIP3    H156783   0.694   3.621  10.744  0.0154  2.5322 -0.7203
11764TIP3    H256784   0.740   3.615  10.888  0.0686 -1.0088 -0.8147
11765TIP3   OH256785   3.316   3.632   5.349  0.3823  0.4125  0.2390
11765TIP3    H156786   3.329   3.626   5.254 -0.8933  3.2275 -0.2310
11765TIP3    H256787   3.227   3.599   5.363  0.7524 -0.4770  0.5607
11766TIP3   OH256788   5.504   1.515  16.518 -0.0852  0.8294  0.3611
11766TIP3    H156789   5.575   1.496  16.457  1.0597  0.4948  1.7540
11766TIP3    H256790   5.487   1.432  16.562  0.7849  1.5875  2.2020
11767TIP3   OH256791   6.565   1.187   5.691  0.8088  0.2165  1.0890
11767TIP3    H156792   6.651   1.215   5.724  1.3988 -0.3998  0.1115
11767TIP3    H256793   6.581   1.102   5.652  0.1201  0.8700 -0.6926
11768TIP3   OH256794   2.024   0.939   0.525 -0.3653 -0.2975 -1.0035
11768TIP3    H156795   2.020   0.903   0.437  2.0925  0.9975 -1.7336
11768TIP3    H256796   1.971   1.018   0.521  0.3077  0.1430 -1.5713
11769TIP3   OH256797   6.409   6.415   1.284 -0.1763  0.1748 -0.5465
11769TIP3    H156798   6.361   6.387   1.206  0.2401 -1.4319 -0.2660
11769TIP3    H256799   6.350   6.476   1.328 -1.5609 -0.9503 -0.7533
11770TIP3   OH256800   3.075   2.732   3.406 -0.9181  0.0578  0.0863
11770TIP3    H156801   3.060   2.823   3.378 -2.3504  0.5181  2.1013
11770TIP3    H256802   3.137   2.739   3.479 -1.0895 -0.5550  0.3002
11771TIP3   OH256803   5.640   6.403  16.572  0.0261  0.0947 -0.0383
11771TIP3    H156804   5.613   6.480  16.522 -0.6262 -0.3634 -0.4109
11771TIP3    H256805   5.565   6.386  16.630 -0.5803 -1.2716 -1.1634
11772TIP3   OH256806   3.339   2.285   6.535  0.0093 -0.4308 -0.6769
11772TIP3    H156807   3.422   2.332   6.542 -0.0246 -0.4171 -0.3653
11772TIP3    H256808   3.358   2.212   6.476  0.2627 -0.4696 -0.5503
11773TIP3   OH256809   3.825   2.743   3.998  0.3930  0.3986  0.1870
11773TIP3    H156810   3.768   2.733   3.921  0.8029  0.5345 -0.1353
11773TIP3    H256811   3.854   2.834   3.995  0.7109  0.3004  0.2964
11774TIP3   OH256812   0.256   2.381   6.266 -0.2551  0.5184 -0.0923
11774TIP3    H156813   0.275   2.465   6.224 -0.6832  1.1691  0.9940
11774TIP3    H256814   0.324   2.371   6.332  0.3059 -0.4151 -0.7855
11775TIP3   OH256815   1.211   6.615   0.542 -0.2461 -0.1805 -0.5471
11775TIP3    H156816   1.167   6.640   0.624  1.0961  1.5474 -0.2973
11775TIP3    H256817   1.246   6.698   0.508 -0.4440 -0.9185 -2.6928
11776TIP3   OH256818   3.195   0.063   1.088  0.4847  0.7268  0.4666
11776TIP3    H156819   3.257   0.105   1.148  1.2991  0.6539 -0.3063
11776TIP3    H256820   3.150   0.135   1.045  0.3910  0.7842  0.6594
11777TIP3   OH256821   4.604   3.334  13.430  0.0762  0.1196 -0.7252
11777TIP3    H156822   4.572   3.268  13.492  1.9744 -0.1768 -0.0172
11777TIP3    H256823   4.542   3.407  13.439  0.6466  0.3484  2.0216
11778TIP3   OH256824   5.455   0.357  11.108 -0.0091  0.0421 -0.3690
11778TIP3    H156825   5.365   0.334  11.087 -0.3350 -1.0212  1.8883
11778TIP3    H256826   5.502   0.274  11.105  0.4912  0.2971  0.2711
11779TIP3   OH256827   3.183   0.023   3.147  0.1057  0.1017 -0.8088
11779TIP3    H156828   3.224   0.096   3.101 -1.5488  1.0865 -0.7906
11779TIP3    H256829   3.218   0.028   3.236  1.0231  0.0260 -1.1527
11780TIP3   OH256830   0.747   5.291   3.693 -0.1871 -0.8724  0.3256
11780TIP3    H156831   0.654   5.274   3.677 -1.0444  2.4278  1.0618
11780TIP3    H256832   0.782   5.314   3.607 -1.4957  3.2623  0.7050
11781TIP3   OH256833   1.182   1.817   4.623 -0.1990  0.3218 -0.0813
11781TIP3    H156834   1.247   1.788   4.687 -0.2638  0.8550  0.2399
11781TIP3    H256835   1.233   1.868   4.559 -0.0336 -0.7579 -0.8262
11782TIP3   OH256836   6.043   1.464  16.785  0.0476 -0.2635 -0.1596
11782TIP3    H156837   6.095   1.530  16.740 -1.0996 -0.5425 -2.0354
11782TIP3    H256838   6.107   1.407  16.828  1.0512  2.3052  1.9833
11783TIP3   OH256839   3.591   3.815   2.659  0.2211 -0.0238 -0.5222
11783TIP3    H156840   3.517   3.803   2.719  1.3864  2.5413  1.6196
11783TIP3    H256841   3.599   3.910   2.648  3.4330 -0.1302 -0.2619
11784TIP3   OH256842   1.117   3.902  14.481  0.4444 -0.1468 -0.4858
11784TIP3    H156843   1.118   3.997  14.473  0.1635 -0.1359 -0.3998
11784TIP3    H256844   1.141   3.871  14.393 -2.8993 -0.0232 -1.6066
11785TIP3   OH256845   1.706   3.788   6.550  0.4010  0.0901 -0.4712
11785TIP3    H156846   1.781   3.839   6.580  0.3478 -0.3375  0.4082
11785TIP3    H256847   1.742   3.701   6.530  0.5558  0.5148 -2.2873
11786TIP3   OH256848   6.003   3.768   0.203  0.3591  0.1999  0.3497
11786TIP3    H156849   6.075   3.711   0.176 -1.1463 -1.3137 -0.6640
11786TIP3    H256850   5.947   3.776   0.126 -2.8349 -2.3125  2.1465
11787TIP3   OH256851   4.729   0.496   4.257 -0.1274  0.2155  0.4795
11787TIP3    H156852   4.775   0.491   4.340 -0.4600 -1.8610  0.6075
11787TIP3    H256853   4.682   0.412   4.251 -0.8015  0.6775 -1.3938
11788TIP3   OH256854   1.074   6.617  13.185  0.2690  0.3140  0.1567
11788TIP3    H156855   1.147   6.617  13.246 -0.7301  0.8289  1.4062
11788TIP3    H256856   1.112   6.643  13.101  1.5841  0.0714  0.6495
11789TIP3   OH256857   2.507   4.370  13.193  0.3167  0.4266  0.1392
11789TIP3    H156858   2.524   4.406  13.281 -2.7220  0.6326  0.7568
11789TIP3    H256859   2.529   4.277  13.201  0.6551  0.5619  0.9294
11790TIP3   OH256860   0.132   0.884  14.373 -0.4244 -0.1953  0.2595
11790TIP3    H156861   0.121   0.832  14.293 -0.3215  0.8718 -0.4672
11790TIP3    H256862   0.049   0.931  14.383 -0.9537 -1.3389  1.5543
11791TIP3   OH256863   3.244   5.411   4.467 -0.2348  0.6623  0.1304
11791TIP3    H156864   3.329   5.408   4.422 -0.4822 -2.0963 -0.3520
11791TIP3    H256865   3.242   5.497   4.509  1.9630  1.5705 -1.3975
11792TIP3   OH256866   5.987   2.790  12.284 -0.4911  0.1860 -0.1477
11792TIP3    H156867   5.932   2.725  12.327 -0.8783  0.2685 -0.5155
11792TIP3    H256868   6.077   2.763  12.305 -0.6639 -0.0723  0.2714
11793TIP3   OH256869   6.729   3.289  14.385 -0.5678  0.1192 -0.0766
11793TIP3    H156870   6.651   3.236  14.369 -0.3800  0.2236 -1.4646
11793TIP3    H256871   6.697   3.379  14.381 -0.0689  0.2752 -3.0263
11794TIP3   OH256872   6.050   2.107   4.236 -0.0355 -0.3021 -0.0554
11794TIP3    H156873   6.059   2.196   4.270 -1.7869 -0.0335 -0.1968
11794TIP3    H256874   6.048   2.118   4.141  1.3273 -0.6787 -0.1421
11795TIP3   OH256875   5.831   3.491  12.898  0.1109  0.8665 -0.3759
11795TIP3    H156876   5.829   3.460  12.989  2.1797 -3.0464 -1.4144
11795TIP3    H256877   5.911   3.544  12.893 -0.1910  1.3838  0.1412
11796TIP3   OH256878   3.170   2.573   4.464  0.6461 -0.6869  0.8394
11796TIP3    H156879   3.225   2.496   4.447  1.9855  0.3441  0.3327
11796TIP3    H256880   3.208   2.613   4.542 -0.6119 -1.0028  1.6567
11797TIP3   OH256881   4.485   4.728  14.499 -0.2586  0.2500 -0.6082
11797TIP3    H156882   4.580   4.716  14.508 -0.0147  2.2749 -0.0603
11797TIP3    H256883   4.457   4.760  14.584 -1.5187 -0.6149 -0.6717
11798TIP3   OH256884   3.683   0.665   0.683  0.1978 -0.9052 -0.1228
11798TIP3    H156885   3.685   0.645   0.589 -1.0755 -0.7588 -0.2039
11798TIP3    H256886   3.628   0.596   0.721  0.2274 -0.6363  0.4156
11799TIP3   OH256887   0.577   6.420   5.054  0.4510  0.1717  0.2117
11799TIP3    H156888   0.666   6.414   5.090  1.1593  0.9418 -1.3031
11799TIP3    H256889   0.568   6.343   4.998  0.6472  0.7174 -0.5948
11800TIP3   OH256890   6.671   0.740  12.468  0.4831  0.3560 -0.0782
11800TIP3    H156891   6.635   0.652  12.456  0.3948  0.4180 -0.2741
11800TIP3    H256892   6.638   0.768  12.553  0.5108  0.1999 -0.0160
11801TIP3   OH256893   3.662   6.595  11.171 -0.9847  0.1083  0.5521
11801TIP3    H156894   3.735   6.585  11.232 -1.8861  1.3201  1.8863
11801TIP3    H256895   3.690   6.663  11.110 -1.0774  0.7597  1.2208
11802TIP3   OH256896   4.619   5.043   0.312  0.7626  0.3224 -0.0880
11802TIP3    H156897   4.575   5.009   0.234 -0.5344 -1.5175  1.3562
11802TIP3    H256898   4.556   5.105   0.350  0.4979 -0.3215  0.5540
11803TIP3   OH256899   1.477   5.229  14.872  0.5057 -0.4514 -0.1382
11803TIP3    H156900   1.443   5.272  14.950 -2.7976  0.1047 -1.7067
11803TIP3    H256901   1.474   5.136  14.893 -1.4004 -0.3753  0.1147
11804TIP3   OH256902   3.650   4.715   5.477 -0.2477 -0.2518  0.0575
11804TIP3    H156903   3.660   4.698   5.571  0.2719  0.2750  0.1028
11804TIP3    H256904   3.725   4.770   5.455 -0.5837 -0.0476 -0.5859
11805TIP3   OH256905   6.691   0.532  11.773 -0.0570 -0.2459  0.2513
11805TIP3    H156906   6.635   0.607  11.756 -1.3371 -0.7008  2.1743
11805TIP3    H256907   6.780   0.568  11.770 -0.5793  1.1034  0.0196
11806TIP3   OH256908   4.750   0.365  15.808  0.0565  0.1767 -1.0286
11806TIP3    H156909   4.797   0.448  15.798  2.4941 -0.4761  2.7010
11806TIP3    H256910   4.815   0.298  15.790 -0.2080 -0.8043  1.3033
11807TIP3   OH256911   1.456   4.353  12.861 -0.3425  0.6979 -0.2434
11807TIP3    H156912   1.524   4.415  12.836  0.2697  0.8460  1.6591
11807TIP3    H256913   1.503   4.277  12.894 -1.0524  0.8307  1.1727
11808TIP3   OH256914   0.891   1.968  11.981  0.1159  0.1659  0.2905
11808TIP3    H156915   0.796   1.964  11.997 -0.2248  0.0219 -1.5138
11808TIP3    H256916   0.911   2.061  11.975 -0.4471  0.1837 -1.9508
11809TIP3   OH256917   3.899   0.761   2.696  0.1610  0.2612  0.2771
11809TIP3    H156918   3.891   0.720   2.782  0.7332 -2.4451 -0.8725
11809TIP3    H256919   3.809   0.772   2.666 -0.0697  1.7262  1.3796
11810TIP3   OH256920   0.068   1.921   4.326  0.1570 -0.7122  0.1782
11810TIP3    H156921   0.097   1.860   4.394  0.1491 -0.3709  0.4871
11810TIP3    H256922   0.122   1.999   4.338 -0.6620 -0.1864  0.5618
11811TIP3   OH256923   3.525   3.560  14.402  0.0904 -0.1559  0.7105
11811TIP3    H156924   3.529   3.523  14.314  0.3180  0.2122  0.5617
11811TIP3    H256925   3.616   3.575  14.427 -0.0083  0.9211  0.4923
11812TIP3   OH256926   0.379   3.665   3.518  0.5857  0.1823 -0.4432
11812TIP3    H156927   0.368   3.570   3.516  0.1627  0.1993  0.6200
11812TIP3    H256928   0.453   3.680   3.576 -0.4921  0.5614  0.8943
11813TIP3   OH256929   5.907   5.015   1.553 -0.2659 -0.2344 -0.1799
11813TIP3    H156930   5.820   4.990   1.520 -0.3394 -2.1846  1.3692
11813TIP3    H256931   5.892   5.041   1.643  0.8772 -1.5302  0.4159
11814TIP3   OH256932   0.363   2.460  13.746  0.0988 -0.0472  0.1939
11814TIP3    H156933   0.300   2.428  13.810  1.8126 -0.0989  1.9242
11814TIP3    H256934   0.377   2.552  13.770  2.2686 -0.5902  1.2575
11815TIP3   OH256935   6.069   1.640   5.539 -0.0298  0.2079  0.1059
11815TIP3    H156936   6.058   1.707   5.607 -4.2229  0.4957 -0.5909
11815TIP3    H256937   6.124   1.682   5.473 -0.9427  2.2958  0.5766
11816TIP3   OH256938   0.081   6.136   5.630 -0.4806  0.4393  0.1730
11816TIP3    H156939   0.041   6.146   5.544  0.3911 -0.3929 -0.3454
11816TIP3    H256940   0.046   6.054   5.664 -0.7684  0.7292  0.5944
11817TIP3   OH256941   4.725   4.783   1.365  0.3456  0.0094 -0.0014
11817TIP3    H156942   4.817   4.796   1.387 -0.0039 -0.3351  1.8562
11817TIP3    H256943   4.702   4.700   1.406 -0.4127 -0.7366 -1.8234
11818TIP3   OH256944   5.273   3.566   6.261  0.4989  0.3783 -0.0487
11818TIP3    H156945   5.240   3.568   6.171  0.8854  0.3605 -0.1957
11818TIP3    H256946   5.246   3.481   6.295 -0.7508  0.8855  0.2845
11819TIP3   OH256947   5.983   0.605   5.812 -0.0977 -0.3131 -0.6086
11819TIP3    H156948   5.897   0.565   5.808 -0.1968 -0.4818  1.8240
11819TIP3    H256949   5.986   0.648   5.898  1.1079  2.3611 -1.8587
11820TIP3   OH256950   0.460   2.778  15.836 -0.1182 -0.3992 -0.1377
11820TIP3    H156951   0.503   2.862  15.823 -0.0391 -0.4049  0.0851
11820TIP3    H256952   0.501   2.741  15.914 -2.0605  0.5955  1.4534
11821TIP3   OH256953   4.661   0.988   1.068 -0.0692  0.3828 -0.5841
11821TIP3    H156954   4.616   1.066   1.101 -0.6381  0.1955 -0.8945
11821TIP3    H256955   4.712   1.019   0.994  0.8854  0.7277  0.1848
11822TIP3   OH256956   5.013   5.194   0.003 -0.5793  0.0002 -0.2112
11822TIP3    H156957   4.983   5.233   0.085  2.7739  0.1918  1.0547
11822TIP3    H256958   5.013   5.267  -0.060 -1.0932  0.3613  0.2024
11823TIP3   OH256959   0.903   6.085   0.239  0.3557 -0.9737 -0.1325
11823TIP3    H156960   0.994   6.113   0.225 -0.2702  1.9492  0.9715
11823TIP3    H256961   0.863   6.093   0.152 -0.0998  3.2894  0.2794
11824TIP3   OH256962   0.612   1.000   0.128 -0.3393  0.1138 -0.0958
11824TIP3    H156963   0.707   1.005   0.129 -0.3981  1.7259  0.6715
11824TIP3    H256964   0.592   0.907   0.145  1.0713 -0.0090  1.0323
11825TIP3   OH256965   0.608   3.376   2.662  0.2049 -0.2165  0.0098
11825TIP3    H156966   0.598   3.410   2.573  2.3383 -1.7093 -0.8829
11825TIP3    H256967   0.685   3.422   2.696  0.9670 -1.4989  0.0875
11826TIP3   OH256968   0.048   4.210  16.295  0.1903  0.1417  0.1591
11826TIP3    H156969   0.019   4.125  16.263  0.2318  0.6809 -1.3624
11826TIP3    H256970   0.137   4.194  16.327  1.4899  0.1984 -3.0688
11827TIP3   OH256971   1.702   5.126   1.080 -0.0279 -0.1312  0.0559
11827TIP3    H156972   1.656   5.131   1.164 -0.3932  0.2500 -0.1579
11827TIP3    H256973   1.631   5.127   1.015  0.2822  0.8101 -0.2907
11828TIP3   OH256974   2.829   6.455  16.809  0.6510  0.1455 -0.2380
11828TIP3    H156975   2.759   6.494  16.757  0.7990  1.7343  0.6712
11828TIP3    H256976   2.815   6.361  16.802 -1.6040  0.4053 -0.0830
11829TIP3   OH256977   0.530   2.508  11.205 -0.1440 -0.4702  0.7213
11829TIP3    H156978   0.453   2.452  11.199  0.1228 -0.7172 -0.6023
11829TIP3    H256979   0.550   2.531  11.115  1.9088 -1.1894  0.9541
11830TIP3   OH256980   3.464   6.000  13.279 -0.0670 -0.4829  0.3448
11830TIP3    H156981   3.445   5.908  13.299 -1.1054 -0.7416 -1.6235
11830TIP3    H256982   3.378   6.043  13.278  0.1007 -0.1045 -1.4239
11831TIP3   OH256983   4.454   1.206   5.909  0.2619  1.0495 -0.7473
11831TIP3    H156984   4.522   1.177   5.970  0.8094 -0.9242 -2.2025
11831TIP3    H256985   4.372   1.181   5.951  0.5857  0.5693 -0.3821
11832TIP3   OH256986   2.118   1.682   5.266 -0.4831  0.6610  0.7304
11832TIP3    H156987   2.092   1.666   5.357 -2.5579 -0.8169 -0.0522
11832TIP3    H256988   2.055   1.747   5.234  0.5101  1.5066  0.4476
11833TIP3   OH256989   0.576   1.148  13.792  0.2304 -0.0055  0.4367
11833TIP3    H156990   0.491   1.149  13.836  0.5813 -1.3278  1.2021
11833TIP3    H256991   0.597   1.055  13.783  1.8591  0.2978  0.7775
11834TIP3   OH256992   4.312   6.794   0.771  0.0327 -0.0619 -0.2647
11834TIP3    H156993   4.349   6.781   0.858 -0.6766 -1.3697 -0.1370
11834TIP3    H256994   4.218   6.785   0.783 -0.0308 -1.0532 -1.2690
11835TIP3   OH256995   1.237   4.965  13.917  0.4962 -0.0859 -0.9650
11835TIP3    H156996   1.247   4.939  13.825 -0.5725 -1.1639 -0.8064
11835TIP3    H256997   1.326   4.975  13.950  0.8953  0.3049 -2.1085
11836TIP3   OH256998   2.608   0.486   3.269 -0.6214  0.6723 -0.2775
11836TIP3    H156999   2.527   0.503   3.220 -1.5217 -0.0862  0.8839
11836TIP3    H257000   2.593   0.527   3.354  0.6076  1.3095 -0.3495
11837TIP3   OH257001   6.448   0.153   2.213  0.5083  0.0685 -0.5853
11837TIP3    H157002   6.512   0.169   2.283 -0.9090  1.2076  0.5188
11837TIP3    H257003   6.435   0.238   2.171 -0.3995 -0.0907 -0.6631
11838TIP3   OH257004   6.289   1.528  14.668 -0.2538 -0.1211  0.4121
11838TIP3    H157005   6.228   1.601  14.668 -1.7227 -1.1801 -2.5091
11838TIP3    H257006   6.240   1.456  14.707  0.2426 -0.2128  0.8734
11839TIP3   OH257007   5.046   1.526   3.702 -0.2725 -0.4629  0.0950
11839TIP3    H157008   5.116   1.482   3.654 -1.3867 -1.0002 -1.1174
11839TIP3    H257009   5.051   1.617   3.672  0.1735 -0.4070  0.3376
11840TIP3   OH257010   0.556   6.156   3.536  0.3506  0.1672 -0.0203
11840TIP3    H157011   0.482   6.152   3.596  0.3173 -2.7253 -0.1036
11840TIP3    H257012   0.606   6.233   3.563 -1.5205  0.9400  1.4077
11841TIP3   OH257013   6.363   4.275  11.962 -0.3947  0.3193  0.1245
11841TIP3    H157014   6.353   4.354  12.014  0.8657  0.6960 -0.1830
11841TIP3    H257015   6.449   4.241  11.986 -0.3719 -0.2432 -0.7068
11842TIP3   OH257016   4.477   0.712   4.468  0.3613 -0.8017 -0.4339
11842TIP3    H157017   4.383   0.724   4.454  0.1932  0.1911  1.1792
11842TIP3    H257018   4.485   0.697   4.563  1.8972  0.2470 -0.3574
11843TIP3   OH257019   0.697   4.274  12.495 -0.5008 -0.2438 -0.6581
11843TIP3    H157020   0.721   4.361  12.528 -0.0552 -0.6335  0.0743
11843TIP3    H257021   0.625   4.246  12.553  0.1149 -0.8260 -0.1583
11844TIP3   OH257022   2.635   0.115   2.400  0.5795 -0.5315 -0.2931
11844TIP3    H157023   2.676   0.181   2.456  0.1015 -0.6110  0.1639
11844TIP3    H257024   2.706   0.056   2.375  0.5532 -1.4130  1.5409
11845TIP3   OH257025   2.295   6.172  14.978  0.1220 -0.2833 -0.0052
11845TIP3    H157026   2.322   6.148  15.066  1.0879 -0.3802 -0.3232
11845TIP3    H257027   2.200   6.156  14.977 -0.1402  1.0801  1.4301
11846TIP3   OH257028   3.101   1.417   3.872  0.1611 -0.3197  0.1213
11846TIP3    H157029   3.153   1.386   3.798 -0.1005 -0.3217 -0.0652
11846TIP3    H257030   3.084   1.338   3.924 -0.8204 -0.5715 -0.5507
11847TIP3   OH257031   1.089   5.412  13.788  0.4256  0.3897  0.1878
11847TIP3    H157032   1.085   5.446  13.878  0.9997 -0.3959  0.5220
11847TIP3    H257033   1.011   5.449  13.745  1.0783  2.2064  0.4872
11848TIP3   OH257034   5.373   1.874  15.625 -0.0570  0.0307 -0.0749
11848TIP3    H157035   5.284   1.841  15.613 -0.5281  0.3868  2.1370
11848TIP3    H257036   5.371   1.961  15.585 -1.0749  0.5221  0.9867
11849TIP3   OH257037   6.636   1.503   3.172  0.1848  0.0162  0.4598
11849TIP3    H157038   6.544   1.479   3.188 -0.2346  1.6579  0.6725
11849TIP3    H257039   6.685   1.426   3.199 -1.0782 -0.5588  1.2518
11850TIP3   OH257040   3.396   3.858  16.418  0.3368  0.0765  0.1772
11850TIP3    H157041   3.405   3.938  16.470 -0.5847  0.3260 -0.0312
11850TIP3    H257042   3.447   3.793  16.466  2.0657  1.0478 -0.2508
11851TIP3   OH257043   4.359   5.239   4.098  0.2304 -0.0917  0.2153
11851TIP3    H157044   4.427   5.295   4.135  0.0594  0.8867 -0.9032
11851TIP3    H257045   4.404   5.185   4.033 -0.0081  0.4043 -0.3727
11852TIP3   OH257046   2.507   1.996  14.861 -0.2182 -0.0386 -0.0144
11852TIP3    H157047   2.553   1.918  14.892  0.6795  0.2790 -0.4948
11852TIP3    H257048   2.551   2.068  14.906  0.5485  0.3615 -1.3365
11853TIP3   OH257049   4.026   4.945   3.452  0.1854 -0.6960  0.7829
11853TIP3    H157050   4.005   5.000   3.528  0.9439 -1.4654  1.5691
11853TIP3    H257051   4.056   4.862   3.490 -0.6577 -1.5643 -0.3759
11854TIP3   OH257052   4.058   3.788  10.614  0.6666  0.3745  0.0782
11854TIP3    H157053   4.048   3.730  10.689  0.8795  0.4158  0.1371
11854TIP3    H257054   4.087   3.871  10.651 -1.0880  0.9945  0.1677
11855TIP3   OH257055   4.809   4.426   4.836 -0.2625  0.1361  0.2398
11855TIP3    H157056   4.823   4.382   4.752  0.7662  0.0704  0.4415
11855TIP3    H257057   4.715   4.414   4.853 -0.3906 -0.2515 -0.6704
11856TIP3   OH257058   6.470   6.466  16.385  0.3500  0.2189 -0.6335
11856TIP3    H157059   6.468   6.381  16.429 -0.3565  0.6317  0.1805
11856TIP3    H257060   6.382   6.477  16.349 -0.3276  1.5598  1.2495
11857TIP3   OH257061   4.314   1.048   1.476  0.3851  0.1717  0.6577
11857TIP3    H157062   4.251   1.057   1.404  0.9103  0.6896  0.2558
11857TIP3    H257063   4.299   0.959   1.509 -1.7196  0.8201  1.6746
11858TIP3   OH257064   5.136   5.043   0.414 -0.9048  0.0092  0.3376
11858TIP3    H157065   5.190   4.979   0.461 -0.1083  0.8222  0.5755
11858TIP3    H257066   5.199   5.095   0.365 -1.6698 -0.3358 -1.0576
11859TIP3   OH257067   5.210   6.755  11.778  0.1817  0.0902 -0.9289
11859TIP3    H157068   5.183   6.688  11.841  1.9054 -0.3442 -0.5987
11859TIP3    H257069   5.145   6.824  11.786  1.1523  0.7648  2.5122
11860TIP3   OH257070   2.757   1.955   1.356  0.6053  0.1857  0.0550
11860TIP3    H157071   2.704   2.034   1.364  1.6558  0.9091  0.1688
11860TIP3    H257072   2.784   1.936   1.446 -2.2226 -2.2060  0.5266
11861TIP3   OH257073   3.806   3.156  13.371  0.0225  0.1445 -0.0233
11861TIP3    H157074   3.789   3.233  13.425  1.0623 -0.2510  0.9204
11861TIP3    H257075   3.741   3.091  13.401 -1.7819  1.0437 -1.7827
11862TIP3   OH257076   2.803   4.290  15.634  0.3677 -0.2466 -0.0743
11862TIP3    H157077   2.778   4.277  15.725 -1.7571  2.3990 -0.1339
11862TIP3    H257078   2.759   4.219  15.586 -1.2566  0.2023  0.6715
11863TIP3   OH257079   6.780   2.279  12.365 -0.0604 -0.1491  0.3007
11863TIP3    H157080   6.791   2.271  12.460 -3.0964 -0.0767  0.7678
11863TIP3    H257081   6.714   2.213  12.343 -2.2300  2.2849 -1.0618
11864TIP3   OH257082   5.064   2.866   1.855  0.0213  0.2643 -0.0343
11864TIP3    H157083   5.138   2.925   1.842  0.1327  0.7142  2.1395
11864TIP3    H257084   5.094   2.782   1.822  0.8135  0.8585 -0.8525
11865TIP3   OH257085   1.001   4.582  13.789 -0.0967  0.3009  0.2452
11865TIP3    H157086   0.977   4.511  13.730 -1.2220  1.4598 -0.7423
11865TIP3    H257087   0.947   4.568  13.867  1.0293 -0.9434  0.8498
11866TIP3   OH257088   4.844   4.945  15.940 -0.0054 -0.1501 -0.1418
11866TIP3    H157089   4.900   4.880  15.982  1.9695  0.3110 -1.8799
11866TIP3    H257090   4.897   5.025  15.938 -0.2229  0.0239 -2.7644
11867TIP3   OH257091   4.919   5.429  12.220  0.3411 -0.2719 -0.1404
11867TIP3    H157092   4.946   5.377  12.144  3.2356 -2.7584  2.2880
11867TIP3    H257093   4.986   5.497  12.227 -0.4753  0.5738 -0.2997
11868TIP3   OH257094   4.391   4.547   3.793 -0.2813  0.0907  0.2995
11868TIP3    H157095   4.457   4.525   3.859 -0.4624  0.1460  0.5022
11868TIP3    H257096   4.360   4.463   3.761 -1.6332  0.0066  1.7334
11869TIP3   OH257097   6.089   4.540   6.283 -0.3266 -0.2729 -0.1584
11869TIP3    H157098   6.081   4.524   6.377 -1.8944  1.9826  0.1615
11869TIP3    H257099   6.028   4.611   6.265  0.7986  0.1654 -2.6933
11870TIP3   OH257100   5.188   4.124   3.283  0.7659  0.1591  0.2574
11870TIP3    H157101   5.154   4.214   3.289  0.5009  0.1032 -0.3366
11870TIP3    H257102   5.114   4.073   3.247  1.4129  0.0010 -0.8976
11871TIP3   OH257103   4.876   5.386   2.524  0.1276 -0.1517 -0.1852
11871TIP3    H157104   4.855   5.409   2.614 -0.2675  0.4888 -0.4397
11871TIP3    H257105   4.862   5.291   2.520 -0.6332 -0.0643  0.2190
11872TIP3   OH257106   4.108   5.489  11.862 -0.1016 -0.5291 -0.0888
11872TIP3    H157107   4.031   5.459  11.814 -0.0259  0.0018 -0.5582
11872TIP3    H257108   4.105   5.442  11.945 -1.0452 -0.3523 -0.0133
11873TIP3   OH257109   6.758   2.257  13.661  0.7345 -0.0398 -0.0062
11873TIP3    H157110   6.744   2.331  13.721  0.0308 -0.0648 -0.1271
11873TIP3    H257111   6.806   2.193  13.713 -0.2711 -0.2510  0.6915
11874TIP3   OH257112   2.955   3.818   5.249  0.0654 -0.2288  0.3318
11874TIP3    H157113   3.008   3.804   5.327 -3.0519 -2.2047  2.3573
11874TIP3    H257114   2.883   3.873   5.279  0.5862  2.0070 -2.1669
11875TIP3   OH257115   1.203   3.526  16.445 -0.2395  0.5295  0.0177
11875TIP3    H157116   1.157   3.443  16.433 -2.9540  1.7235  1.1948
11875TIP3    H257117   1.229   3.528  16.537  0.2645  0.7799 -0.1227
11876TIP3   OH257118   0.542   1.233  16.960  0.4731  0.0299  0.2969
11876TIP3    H157119   0.583   1.147  16.970  0.0542 -0.3454 -0.9499
11876TIP3    H257120   0.492   1.245  17.041 -1.0193 -1.7929 -0.2849
11877TIP3   OH257121   6.216   6.126  17.143  0.2208 -0.0490  0.1318
11877TIP3    H157122   6.287   6.099  17.085  0.6026  0.6681  0.2537
11877TIP3    H257123   6.185   6.044  17.182  0.6395 -0.4258 -0.3084
11878TIP3   OH257124   5.096   3.872   3.142  0.1431 -0.0275 -0.6420
11878TIP3    H157125   5.034   3.807   3.177 -0.4543  0.3835 -0.9307
11878TIP3    H257126   5.177   3.822   3.129  0.1089 -0.3977  0.4617
11879TIP3   OH257127   5.187   2.025  16.782 -0.1661 -0.1692  0.5461
11879TIP3    H157128   5.159   2.079  16.855  1.4512  1.4581  0.0280
11879TIP3    H257129   5.132   2.054  16.709 -0.2104 -0.1773  0.5760
11880TIP3   OH257130   3.434   1.063  15.698 -0.0892 -0.1155 -0.3134
11880TIP3    H157131   3.356   1.108  15.730  0.0634  0.0763 -0.2101
11880TIP3    H257132   3.490   1.053  15.775 -0.1932 -0.6362 -0.3002
11881TIP3   OH257133   5.701   0.457   1.554  0.1998  0.2792  0.1177
11881TIP3    H157134   5.634   0.475   1.620 -1.6023 -0.7409 -1.3369
11881TIP3    H257135   5.700   0.362   1.544  0.8917  0.3670 -0.9192
11882TIP3   OH257136   5.712   1.065  16.384 -0.9388 -0.0498 -0.3433
11882TIP3    H157137   5.624   1.035  16.406 -0.9981  1.6111  1.9665
11882TIP3    H257138   5.722   1.148  16.430  1.1974  0.7360 -2.0408
11883TIP3   OH257139   3.964   4.081   5.360 -0.3314 -0.2643  0.3756
11883TIP3    H157140   3.894   4.130   5.317 -0.3179  0.3804  1.0543
11883TIP3    H257141   3.932   3.991   5.365 -1.0002 -0.0270  0.4339
11884TIP3   OH257142   2.896   4.627   1.092 -0.2017  0.2445  0.1237
11884TIP3    H157143   2.946   4.547   1.106 -0.3803  0.4100  1.8478
11884TIP3    H257144   2.952   4.680   1.035  1.4929  0.3083  1.7755
11885TIP3   OH257145   5.906   3.996  16.799 -0.0208  0.3102 -0.0830
11885TIP3    H157146   5.860   3.984  16.882  1.8782 -0.4796  0.9086
11885TIP3    H257147   5.883   3.918  16.747  2.5721 -1.7559  1.6309
11886TIP3   OH257148   2.945   1.183  15.521  0.2701  0.2557 -0.5263
11886TIP3    H157149   2.915   1.096  15.494  0.9784  0.4627 -2.1487
11886TIP3    H257150   2.957   1.177  15.615 -0.2955 -1.2161 -0.5252
11887TIP3   OH257151   3.715   2.290  16.863  0.5143 -0.0501 -0.4472
11887TIP3    H157152   3.660   2.284  16.941  0.6017  0.9857 -0.2929
11887TIP3    H257153   3.803   2.302  16.897  0.5241  0.6238 -0.6989
11888TIP3   OH257154   2.537   0.428   0.916  0.8139  0.3360  0.0500
11888TIP3    H157155   2.449   0.438   0.954  1.1612  2.6103  0.4357
11888TIP3    H257156   2.593   0.408   0.990  0.5380 -2.2079 -0.3419
11889TIP3   OH257157   0.289   2.120   5.272  0.0127 -0.1206 -1.2354
11889TIP3    H157158   0.309   2.213   5.264 -1.6982  0.2351 -1.7549
11889TIP3    H257159   0.351   2.077   5.214  0.0714  0.8016 -1.8768
11890TIP3   OH257160   4.883   5.563  16.028 -0.4700  0.0657 -0.4925
11890TIP3    H157161   4.941   5.573  16.104 -1.0964 -0.9219  0.1364
11890TIP3    H257162   4.941   5.570  15.952 -0.2070  4.4810 -0.1745
11891TIP3   OH257163   0.041   6.118   2.855 -0.3451  0.0173 -0.2296
11891TIP3    H157164  -0.036   6.142   2.805  0.2647 -1.4411 -1.9491
11891TIP3    H257165   0.044   6.023   2.852  1.1124  0.0107  0.4493
11892TIP3   OH257166   6.297   5.378  16.494 -0.1785 -0.0445  0.3227
11892TIP3    H157167   6.303   5.368  16.399  1.0804 -0.5233  0.4351
11892TIP3    H257168   6.211   5.341  16.516 -0.7198  0.5822 -0.6802
11893TIP3   OH257169   0.974   5.423   2.553  0.5700 -0.1921 -0.5182
11893TIP3    H157170   0.907   5.356   2.537  0.6780  0.4545 -4.7085
11893TIP3    H257171   1.053   5.373   2.571 -0.3604 -1.0009  1.7191
11894TIP3   OH257172   2.797   2.472   0.586 -0.4227 -0.2140  0.0944
11894TIP3    H157173   2.888   2.501   0.581  0.3466 -2.2143  1.4943
11894TIP3    H257174   2.766   2.505   0.671 -1.4695  1.5585 -0.9159
11895TIP3   OH257175   0.699   0.212   4.490  0.1475 -0.3193 -0.1170
11895TIP3    H157176   0.766   0.144   4.499  1.2647  0.8914  1.0927
11895TIP3    H257177   0.618   0.163   4.474  0.6992 -2.0268  1.8604
11896TIP3   OH257178   3.081   6.273  12.007 -0.1265  0.5615  0.2309
11896TIP3    H157179   3.085   6.338  12.077  0.9585 -0.9837  1.7057
11896TIP3    H257180   3.108   6.320  11.928 -1.5618  2.4092  0.7692
11897TIP3   OH257181   1.237   5.806   5.211  0.9651  0.0584 -0.0552
11897TIP3    H157182   1.293   5.790   5.135  0.5740  1.3957 -0.6523
11897TIP3    H257183   1.278   5.757   5.282  2.8307  0.9338 -0.4903
11898TIP3   OH257184   0.088   4.427   3.896 -0.5131 -0.1549  0.3304
11898TIP3    H157185   0.126   4.494   3.840 -2.1050  1.1401  0.7486
11898TIP3    H257186  -0.006   4.434   3.883 -0.7933 -1.3674  1.4462
11899TIP3   OH257187   3.287   5.611  13.245  0.5000  0.0604 -0.7810
11899TIP3    H157188   3.309   5.518  13.247 -2.1986 -0.6560  1.0603
11899TIP3    H257189   3.226   5.619  13.171  0.3784  0.2529 -0.6604
11900TIP3   OH257190   1.252   5.014   3.861  0.2008 -0.2914 -0.7002
11900TIP3    H157191   1.222   4.969   3.782  0.0441 -1.3683 -0.0488
11900TIP3    H257192   1.270   5.103   3.832 -2.9843  0.2846 -1.2848
11901TIP3   OH257193   3.202   4.188  13.207 -0.3020 -0.0645  0.1823
11901TIP3    H157194   3.203   4.133  13.285  0.9788  1.2588  1.1401
11901TIP3    H257195   3.249   4.136  13.141 -1.0029 -1.0037  0.4009
11902TIP3   OH257196   2.251   0.399  13.540  0.4937 -0.4545  0.7643
11902TIP3    H157197   2.238   0.489  13.567 -0.6630 -0.1996 -0.5550
11902TIP3    H257198   2.188   0.348  13.591 -1.2730 -0.0456 -0.8759
11903TIP3   OH257199   6.185   2.602  16.246 -0.1309  0.5452  0.5566
11903TIP3    H157200   6.186   2.507  16.255 -0.1552  0.5362  0.4680
11903TIP3    H257201   6.110   2.620  16.188  0.0961  0.5886  0.2733
11904TIP3   OH257202   0.359   6.121   3.737  0.3210 -0.3791  0.5009
11904TIP3    H157203   0.311   6.040   3.754  0.5278 -0.4905  0.5580
11904TIP3    H257204   0.382   6.153   3.824 -0.3554  0.1037  0.5102
11905TIP3   OH257205   2.580   2.784   3.563 -0.2081  0.8575 -0.7654
11905TIP3    H157206   2.637   2.707   3.559 -0.5526  0.3718  1.9316
11905TIP3    H257207   2.635   2.855   3.530  1.1737 -0.0069 -0.4364
11906TIP3   OH257208   6.679   6.576  12.488  0.7636  0.1032  0.6728
11906TIP3    H157209   6.738   6.564  12.414  0.4900 -2.4578  0.7750
11906TIP3    H257210   6.711   6.655  12.531  2.1727  0.5258 -1.0232
11907TIP3   OH257211   1.975   1.296  16.253 -0.7378 -0.3702 -0.1616
11907TIP3    H157212   2.035   1.367  16.276 -0.0907 -1.0637  0.3389
11907TIP3    H257213   1.890   1.326  16.285 -0.7532  0.8041 -1.2459
11908TIP3   OH257214   3.468   3.472   1.652  0.1450 -0.1126 -0.7200
11908TIP3    H157215   3.532   3.446   1.586  1.3942 -0.7525  0.6842
11908TIP3    H257216   3.484   3.414   1.726  0.5391  2.1574  1.1218
11909TIP3   OH257217   6.230   5.104  14.110 -0.2285  0.1443  0.1163
11909TIP3    H157218   6.313   5.124  14.067 -0.0656 -0.6654  0.0476
11909TIP3    H257219   6.255   5.062  14.192 -0.4914  2.8464  1.6952
11910TIP3   OH257220   3.327   6.219  10.950 -0.3309  0.2430  0.2423
11910TIP3    H157221   3.235   6.225  10.978 -0.8370 -1.4984 -0.8757
11910TIP3    H257222   3.364   6.149  11.005 -0.2738 -0.4950 -0.7009
11911TIP3   OH257223   6.594   0.537  16.690 -0.0055 -0.4628  0.2587
11911TIP3    H157224   6.665   0.591  16.725  0.3142 -1.0543  0.5426
11911TIP3    H257225   6.625   0.508  16.605 -0.0273 -0.4865  0.2590
11912TIP3   OH257226   0.296   1.631  11.281  0.2099 -0.2574 -0.9614
11912TIP3    H157227   0.268   1.723  11.288  0.4367 -0.3192  2.6998
11912TIP3    H257228   0.227   1.589  11.230 -0.6244  1.6823 -1.5223
11913TIP3   OH257229   2.028   4.502   1.754 -0.5623 -0.0138  0.6762
11913TIP3    H157230   2.018   4.596   1.738 -0.1719  0.4238  2.8295
11913TIP3    H257231   1.947   4.476   1.797 -0.9506 -0.8504 -0.4844
11914TIP3   OH257232   4.900   0.830  14.161 -0.0299  0.0627 -0.5158
11914TIP3    H157233   4.971   0.887  14.188 -0.3441  0.5108 -0.6286
11914TIP3    H257234   4.824   0.888  14.152 -0.0417 -0.1437 -1.9284
11915TIP3   OH257235   5.894   0.894   2.411 -0.5784  0.4978 -0.2387
11915TIP3    H157236   5.871   0.823   2.472  0.8832  2.1124  2.3835
11915TIP3    H257237   5.940   0.849   2.339 -1.7731 -1.4201  0.1049
11916TIP3   OH257238   5.623   6.486  12.605  0.0861 -0.3841  0.4938
11916TIP3    H157239   5.684   6.555  12.580 -0.1781 -0.8858 -1.7511
11916TIP3    H257240   5.666   6.440  12.677 -0.2966  2.8331  2.9991
11917TIP3   OH257241   2.265   0.849  14.894 -0.1768  0.3509 -0.0513
11917TIP3    H157242   2.195   0.901  14.934 -0.0551 -0.0353  0.6844
11917TIP3    H257243   2.336   0.912  14.880 -0.4637  0.6293 -0.2919
11918TIP3   OH257244   2.815   3.519  14.673  0.0069  0.1342  0.0038
11918TIP3    H157245   2.795   3.441  14.725 -1.1745 -0.5133 -1.3555
11918TIP3    H257246   2.729   3.558  14.656  0.4726  0.9229 -0.5719
11919TIP3   OH257247   0.307   4.857  17.144  0.5686  0.3844 -0.2180
11919TIP3    H157248   0.336   4.802  17.071 -1.4335  0.1075 -0.8871
11919TIP3    H257249   0.339   4.812  17.222 -0.0488 -1.1559 -0.8086
11920TIP3   OH257250   1.768   1.916   2.027  1.0366  0.2773 -0.4071
11920TIP3    H157251   1.810   2.001   2.011  0.0429  0.7870 -0.4310
11920TIP3    H257252   1.726   1.895   1.943 -0.7359  0.9571  0.2492
11921TIP3   OH257253   4.767   2.500   6.466  0.0786 -0.1072 -0.2352
11921TIP3    H157254   4.707   2.452   6.524 -0.1892  0.2515 -0.2105
11921TIP3    H257255   4.768   2.589   6.501  0.1003  0.0541 -0.6421
11922TIP3   OH257256   4.832   0.384   1.434  0.0368 -0.6101 -0.2539
11922TIP3    H157257   4.798   0.329   1.504  3.1653  0.2307  2.1426
11922TIP3    H257258   4.848   0.324   1.361  1.4171 -2.5975  1.5673
11923TIP3   OH257259   4.373   2.740  16.585  0.2128 -0.2868 -0.1973
11923TIP3    H157260   4.388   2.702  16.671  0.9399 -1.9825 -1.0297
11923TIP3    H257261   4.298   2.692  16.550 -0.4277  0.7677 -0.3133
11924TIP3   OH257262   1.654   0.698  11.517 -0.0955  0.0732  0.5229
11924TIP3    H157263   1.583   0.744  11.562  0.0029  0.0966  0.6568
11924TIP3    H257264   1.705   0.768  11.476 -2.3057 -0.0925 -2.8927
11925TIP3   OH257265   4.687   0.160  12.279 -0.2203  0.3876 -0.0103
11925TIP3    H157266   4.741   0.108  12.219  0.1483  1.0406 -0.2581
11925TIP3    H257267   4.734   0.243  12.287  0.6250 -0.2517  2.5139
11926TIP3   OH257268   5.467   0.736   4.121 -0.0720  0.2252  0.1290
11926TIP3    H157269   5.560   0.717   4.135 -0.2203 -0.5336  0.1450
11926TIP3    H257270   5.428   0.651   4.102 -0.6208  0.6543 -0.7198
11927TIP3   OH257271   5.277   5.752   0.116 -0.4255  0.4480 -0.0538
11927TIP3    H157272   5.372   5.748   0.103 -0.5925  0.7843 -1.6403
11927TIP3    H257273   5.262   5.711   0.201  1.0089 -0.9098 -0.4131
11928TIP3   OH257274   6.486   3.118  13.181  0.2657 -0.1844  0.0825
11928TIP3    H157275   6.392   3.130  13.169 -0.6780 -1.9307  4.1668
11928TIP3    H257276   6.504   3.029  13.150  1.0169  0.6594 -2.1230
11929TIP3   OH257277   1.008   5.913  16.347 -0.4400 -0.1181 -0.1516
11929TIP3    H157278   1.037   5.976  16.281  3.7433 -1.3542  0.2269
11929TIP3    H257279   1.034   5.953  16.430  0.4086 -1.3794  0.2223
11930TIP3   OH257280   4.729   4.669  15.890  0.6779 -0.5656  0.3187
11930TIP3    H157281   4.745   4.644  15.799 -1.9431 -1.5951  0.0511
11930TIP3    H257282   4.795   4.736  15.909  1.0824 -0.0804 -2.4297
11931TIP3   OH257283   1.255   1.100   2.070  0.3961 -0.4505 -0.2635
11931TIP3    H157284   1.276   1.011   2.043 -2.2742 -0.5839 -2.3634
11931TIP3    H257285   1.305   1.156   2.010  0.2536 -0.6130 -0.5379
11932TIP3   OH257286   4.491   2.434  10.930 -0.2594  0.1162  0.0595
11932TIP3    H157287   4.524   2.353  10.891  1.0626 -0.4081  2.0532
11932TIP3    H257288   4.445   2.405  11.009  0.4957  1.3038  0.9699
11933TIP3   OH257289   1.111   1.868  16.190 -0.1774 -0.8204  0.9397
11933TIP3    H157290   1.051   1.802  16.157  0.1065 -0.5410 -0.1785
11933TIP3    H257291   1.197   1.841  16.158 -0.1889  0.6003 -0.4052
11934TIP3   OH257292   6.358   0.542   0.655  0.5498 -0.1511  0.2917
11934TIP3    H157293   6.353   0.596   0.735 -0.0897 -0.2697  0.3399
11934TIP3    H257294   6.270   0.547   0.618  0.7812 -0.2926 -0.2826
11935TIP3   OH257295   5.500   5.378  13.316  0.3524 -0.4268 -0.0016
11935TIP3    H157296   5.486   5.469  13.343 -1.1907 -0.8874  0.8936
11935TIP3    H257297   5.550   5.339  13.388 -0.1109 -0.5974  0.2330
11936TIP3   OH257298   6.259   3.374   0.285 -0.0741  0.3878 -0.4558
11936TIP3    H157299   6.292   3.315   0.353  0.4202 -0.0014 -1.0308
11936TIP3    H257300   6.228   3.317   0.216  0.3377  0.7946 -0.9846
11937TIP3   OH257301   5.105   2.918  12.851 -0.0912 -0.2752  0.6390
11937TIP3    H157302   5.025   2.878  12.887 -2.6121  0.9904 -2.9233
11937TIP3    H257303   5.097   3.011  12.874 -1.0463  0.2961 -1.6543
11938TIP3   OH257304   4.360   5.204  16.985  0.4199 -0.4957 -0.3454
11938TIP3    H157305   4.352   5.111  17.009  0.5984 -0.0430  1.6648
11938TIP3    H257306   4.417   5.241  17.052 -0.2894  1.2363 -0.6395
11939TIP3   OH257307   5.391   1.477  15.591 -0.1780  0.5983 -0.0416
11939TIP3    H157308   5.457   1.513  15.532  0.0310 -1.2689 -1.0278
11939TIP3    H257309   5.440   1.453  15.669  0.0388  0.5957 -0.1761
11940TIP3   OH257310   6.345   0.743   5.480 -0.2041 -0.6573 -0.0789
11940TIP3    H157311   6.309   0.682   5.416 -1.9101  0.2996 -0.0958
11940TIP3    H257312   6.319   0.707   5.565 -1.4795  0.1497 -0.0978
11941TIP3   OH257313   1.433   5.203   1.166 -0.5482 -0.1931  0.0363
11941TIP3    H157314   1.387   5.231   1.245 -0.3940 -0.2197  0.1351
11941TIP3    H257315   1.496   5.273   1.148  0.4140 -0.8507  0.7516
11942TIP3   OH257316   1.018   5.274   2.165  0.6519  0.0510 -0.0342
11942TIP3    H157317   0.998   5.352   2.218  0.1522  0.7878 -1.2585
11942TIP3    H257318   0.979   5.293   2.079  1.4036 -1.1263 -0.6569
11943TIP3   OH257319   0.946   5.643   1.461  0.0856  0.9157 -0.0600
11943TIP3    H157320   0.871   5.585   1.472 -0.6344  1.9693  0.8641
11943TIP3    H257321   0.917   5.708   1.398 -0.1033  1.7951  0.8962
11944TIP3   OH257322   4.484   0.600   5.745  0.0757 -0.1666  0.0203
11944TIP3    H157323   4.526   0.655   5.679  0.6644 -0.3532  0.2383
11944TIP3    H257324   4.536   0.613   5.824  0.6907 -1.6168 -0.1107
11945TIP3   OH257325   2.646   2.701  14.433  0.1424  0.2801  0.6357
11945TIP3    H157326   2.719   2.671  14.378 -0.1161  0.8726 -0.0282
11945TIP3    H257327   2.587   2.626  14.436  0.7126 -0.1717  1.0926
11946TIP3   OH257328   4.601   5.152  12.498 -0.2278 -0.4529  0.2715
11946TIP3    H157329   4.553   5.093  12.439  0.9090  0.0120 -1.1825
11946TIP3    H257330   4.669   5.098  12.537  1.0718 -0.0829 -1.3700
11947TIP3   OH257331   6.077   6.310  12.367  0.6479  0.2923 -0.6208
11947TIP3    H157332   6.075   6.379  12.434 -0.8611 -1.2504  1.0525
11947TIP3    H257333   6.101   6.355  12.286 -0.3991  2.7996  0.3700
11948TIP3   OH257334   2.079   0.924  13.809 -0.0455 -0.5142  0.3183
11948TIP3    H157335   2.057   1.016  13.821 -1.0811 -0.7280  0.1172
11948TIP3    H257336   2.010   0.889  13.753  0.2525 -1.4490  0.5081
11949TIP3   OH257337   1.097   1.965  16.469 -0.1350  0.0843 -0.0050
11949TIP3    H157338   1.101   2.043  16.412 -2.1215  0.7810  0.6978
11949TIP3    H257339   1.150   1.899  16.424  1.7497  1.8618 -0.5490
11950TIP3   OH257340   5.185   0.296  14.724 -0.3614  0.2400  0.1131
11950TIP3    H157341   5.258   0.238  14.744  0.1184  1.0556  0.7935
11950TIP3    H257342   5.170   0.285  14.630  0.3417 -0.2643  0.0536
11951TIP3   OH257343   1.202   0.843   2.486  0.6479 -0.2612 -0.5224
11951TIP3    H157344   1.256   0.916   2.517  0.6612 -0.4118 -0.1822
11951TIP3    H257345   1.116   0.880   2.472  0.6706 -0.1651 -0.4084
11952TIP3   OH257346   5.180   0.027  14.221 -0.0646  0.4464  0.2412
11952TIP3    H157347   5.187   0.014  14.127 -1.3286  0.1913  0.1690
11952TIP3    H257348   5.228   0.108  14.238  2.7116 -1.0084 -0.1719
11953TIP3   OH257349   4.118   1.228  16.960 -0.3243  0.1330  0.1738
11953TIP3    H157350   4.075   1.168  16.900  0.1444 -0.2869  0.2449
11953TIP3    H257351   4.160   1.293  16.904  1.2622 -1.0270 -0.0552
11954TIP3   OH257352   4.394   0.353   6.849 -0.3359 -0.9861 -0.6905
11954TIP3    H157353   4.328   0.389   6.790 -1.0368 -1.1270 -0.0115
11954TIP3    H257354   4.343   0.302   6.913  0.4355 -1.1236 -0.1802
11955TIP3   OH257355   1.279   3.000  12.078 -0.1973  0.0508  0.0046
11955TIP3    H157356   1.286   2.975  11.986  0.1885  1.2210 -0.2994
11955TIP3    H257357   1.231   2.928  12.119 -0.4288 -0.4532 -1.1175
11956TIP3   OH257358   5.782   5.051   0.463 -0.5644  0.1071 -0.4650
11956TIP3    H157359   5.801   4.989   0.533  0.3241 -0.0439 -0.8332
11956TIP3    H257360   5.734   4.999   0.398  1.5837 -0.6475 -1.5172
11957TIP3   OH257361   5.379   1.903  15.272  0.4091  0.0497  0.1825
11957TIP3    H157362   5.416   1.816  15.257  0.0799 -0.0115 -0.2848
11957TIP3    H257363   5.430   1.938  15.345  2.3089  0.4969 -1.2753
11958TIP3   OH257364   1.878   4.057  16.860  0.5640 -0.4515  0.1430
11958TIP3    H157365   1.891   4.108  16.780  1.6679  1.5421  1.4817
11958TIP3    H257366   1.965   4.022  16.880  0.1868 -1.3656  0.1951
11959TIP3   OH257367   5.162   3.325  12.055  0.0553  0.7396 -0.1124
11959TIP3    H157368   5.229   3.330  11.987 -2.1581 -0.0965 -2.5219
11959TIP3    H257369   5.194   3.257  12.116  1.4232  0.4443 -1.1164
11960TIP3   OH257370   3.990   3.652  16.769 -0.1626  0.0589  0.0899
11960TIP3    H157371   3.999   3.728  16.826 -0.1924 -0.2414  0.4976
11960TIP3    H257372   3.897   3.649  16.748 -0.2953 -0.3136  0.7047
11961TIP3   OH257373   0.109   2.103  12.821  0.6048  0.0504 -0.2682
11961TIP3    H157374   0.149   2.056  12.895 -1.6880  1.4866  2.0819
11961TIP3    H257375   0.052   2.039  12.780 -1.2394  0.2025  1.8781
11962TIP3   OH257376   6.399   3.304   6.058 -0.4594 -0.4512  0.6158
11962TIP3    H157377   6.435   3.327   6.144 -1.4434  1.7201  0.5073
11962TIP3    H257378   6.313   3.267   6.077 -0.8036  0.3089  0.5736
11963TIP3   OH257379   6.737   5.097   3.932  0.3265  0.1177 -0.0731
11963TIP3    H157380   6.805   5.040   3.967 -1.7444 -2.3333  0.3139
11963TIP3    H257381   6.711   5.151   4.006  0.5572 -0.3040  0.3242
11964TIP3   OH257382   4.924   1.355  16.749  0.4490  0.2362  0.5277
11964TIP3    H157383   4.897   1.398  16.668 -1.5697 -1.4280  0.2232
11964TIP3    H257384   4.903   1.419  16.818  0.7853  1.0875 -0.1417
11965TIP3   OH257385   3.473   2.374   0.795 -0.0629  0.2557 -0.5751
11965TIP3    H157386   3.516   2.322   0.727 -1.4700 -0.1060 -1.2153
11965TIP3    H257387   3.527   2.453   0.802  1.2320 -0.5904 -0.6764
11966TIP3   OH257388   2.759   5.513  11.552  0.1900  0.0323 -0.5999
11966TIP3    H157389   2.763   5.452  11.625 -0.2757  1.0540  0.3171
11966TIP3    H257390   2.696   5.580  11.580 -1.2033 -0.3554 -2.5770
11967TIP3   OH257391   4.477   6.141   3.585  0.3444 -0.4060  0.4074
11967TIP3    H157392   4.382   6.130   3.590  0.1986  0.6196  0.1046
11967TIP3    H257393   4.504   6.154   3.676  0.2750 -1.2592  0.5553
11968TIP3   OH257394   3.601   1.351   4.640  0.0885  0.0182 -0.3549
11968TIP3    H157395   3.552   1.279   4.602  2.0426 -1.1694 -0.7798
11968TIP3    H257396   3.561   1.430   4.603 -3.2248 -0.6564  1.4481
11969TIP3   OH257397   0.113   5.087  11.329 -0.4175 -0.0535  0.3602
11969TIP3    H157398   0.110   5.176  11.363  2.0159  0.2540 -0.0449
11969TIP3    H257399   0.185   5.045  11.377  0.2088 -0.9481 -1.2732
11970TIP3   OH257400   3.297   1.348  17.151  0.1598 -0.4255  0.4288
11970TIP3    H157401   3.320   1.255  17.154  0.7299 -0.2767  0.8670
11970TIP3    H257402   3.327   1.383  17.235  0.7566  0.3371 -0.0828
11971TIP3   OH257403   5.312   0.296   0.837 -0.4469 -0.2677  0.3152
11971TIP3    H157404   5.364   0.267   0.911  1.2065 -0.4610 -0.8677
11971TIP3    H257405   5.297   0.389   0.851  1.3518  0.0835  0.0586
11972TIP3   OH257406   5.762   0.272   4.053  0.1195 -0.1681  0.5482
11972TIP3    H157407   5.742   0.242   3.965 -1.4894  0.9024  0.5018
11972TIP3    H257408   5.839   0.222   4.079 -0.6360 -2.0483 -0.6433
11973TIP3   OH257409   4.377   5.449  11.150  0.1599  0.2082  0.3931
11973TIP3    H157410   4.431   5.486  11.080 -1.7724 -0.3225 -1.4520
11973TIP3    H257411   4.317   5.390  11.106 -0.0314 -1.4568  2.7294
11974TIP3   OH257412   3.960   0.100   2.415  0.3756  0.1827  0.3614
11974TIP3    H157413   4.041   0.054   2.393 -0.9759 -2.0223 -0.3570
11974TIP3    H257414   3.892   0.034   2.403 -1.4661  1.7632  1.6464
11975TIP3   OH257415   3.629   3.275   4.268  0.1044  0.3003  0.4260
11975TIP3    H157416   3.701   3.318   4.315  0.0047 -1.5241  2.4031
11975TIP3    H257417   3.550   3.309   4.310 -0.1687  1.0766 -0.6620
11976TIP3   OH257418   3.881   6.761   3.775 -0.4907  0.5673 -0.4739
11976TIP3    H157419   3.920   6.848   3.764  0.3834  0.5229  1.7650
11976TIP3    H257420   3.887   6.744   3.869 -2.9440 -0.8759 -0.4961
11977TIP3   OH257421   1.416   1.719   1.304  0.1426 -0.5568 -0.0280
11977TIP3    H157422   1.376   1.806   1.309 -0.2236 -0.6584 -0.9549
11977TIP3    H257423   1.410   1.696   1.211  0.4533 -1.4680  0.1742
11978TIP3   OH257424   1.202   4.343   0.572 -0.1878  0.4284 -0.5186
11978TIP3    H157425   1.216   4.394   0.492 -1.0182 -1.6940 -2.1167
11978TIP3    H257426   1.107   4.338   0.581 -0.1854 -1.7741 -1.1330
11979TIP3   OH257427   5.808   1.162   6.118  0.2358 -0.1527 -0.0117
11979TIP3    H157428   5.889   1.110   6.117  0.5401  0.3082 -1.0326
11979TIP3    H257429   5.774   1.154   6.028 -1.4450 -1.2258  0.6610
11980TIP3   OH257430   0.063   1.489  12.718 -0.0156  0.4484  0.3906
11980TIP3    H157431   0.024   1.509  12.803 -0.4997  0.1238  0.2501
11980TIP3    H257432   0.033   1.401  12.698  1.3337 -0.0645  0.5621
11981TIP3   OH257433   2.452   2.537  16.341  0.0300  0.2791  0.2552
11981TIP3    H157434   2.426   2.578  16.259 -1.4263 -0.4121  0.3326
11981TIP3    H257435   2.369   2.524  16.388  0.7979  0.3128  1.6650
11982TIP3   OH257436   4.979   4.339  15.491 -0.2298 -0.4205 -0.0844
11982TIP3    H157437   5.010   4.331  15.401 -1.0127  1.4445 -0.5521
11982TIP3    H257438   5.059   4.345  15.543  0.2417 -2.1972 -0.5482
11983TIP3   OH257439   4.032   4.184  14.025  0.4060  0.1501  0.4249
11983TIP3    H157440   3.939   4.183  14.047  0.8019  0.7095  2.3157
11983TIP3    H257441   4.075   4.143  14.100  1.5740 -2.1008 -1.3278
11984TIP3   OH257442   4.395   1.255  13.364 -0.1076  0.2704  0.2571
11984TIP3    H157443   4.379   1.184  13.425 -1.9621  0.1324 -0.3202
11984TIP3    H257444   4.429   1.212  13.285 -5.2378 -0.8172 -1.7772
11985TIP3   OH257445   2.024   5.668  13.678 -0.1550  0.3704  0.0913
11985TIP3    H157446   1.961   5.726  13.722 -0.7753 -0.5669  0.4524
11985TIP3    H257447   1.977   5.586  13.665  1.2574 -0.6876  1.2039
11986TIP3   OH257448   0.089   3.178  13.192 -0.3064 -0.4963 -0.2972
11986TIP3    H157449   0.102   3.085  13.173  1.3608 -0.1501 -1.0771
11986TIP3    H257450   0.177   3.211  13.212 -0.9176  0.8501  0.2988
11987TIP3   OH257451   0.960   3.000  15.307  0.1747  0.8016  0.3816
11987TIP3    H157452   1.011   3.062  15.254 -1.0676 -0.7757 -2.9572
11987TIP3    H257453   1.005   2.917  15.295 -1.8559 -0.1812 -0.8039
11988TIP3   OH257454   0.569   4.797   5.224  0.0675 -0.1177 -0.1616
11988TIP3    H157455   0.538   4.813   5.313 -0.8359 -0.3225 -0.4241
11988TIP3    H257456   0.490   4.773   5.175  0.5395  0.0400 -1.0294
11989TIP3   OH257457   0.431   2.216  13.615 -0.2435 -0.3775  0.8710
11989TIP3    H157458   0.446   2.149  13.681  0.7444 -1.3180 -0.2781
11989TIP3    H257459   0.423   2.297  13.665 -0.4299 -1.1835  2.2041
11990TIP3   OH257460   5.068   1.665   2.973  0.2849  0.6660 -0.1174
11990TIP3    H157461   5.025   1.717   2.905 -1.0928  1.0510  0.9819
11990TIP3    H257462   5.149   1.634   2.933 -0.8151  0.2653 -2.1596
11991TIP3   OH257463   2.044   4.915   4.629 -0.1296 -0.0733  0.3050
11991TIP3    H157464   2.041   4.907   4.534 -1.8172  1.2405  0.1990
11991TIP3    H257465   1.985   4.846   4.661  0.1947 -0.3164  0.3765
11992TIP3   OH257466   0.410   1.315  15.100 -0.1977  0.1580  0.1019
11992TIP3    H157467   0.410   1.256  15.025 -0.9879  1.2742 -0.8135
11992TIP3    H257468   0.415   1.403  15.061  1.9142  0.7017  1.4396
11993TIP3   OH257469   1.664   3.886  13.082 -0.2583  0.3942  0.2255
11993TIP3    H157470   1.661   3.982  13.085 -1.3189  0.3760  0.1640
11993TIP3    H257471   1.630   3.858  13.166  0.2233  0.0667  0.3125
11994TIP3   OH257472   2.071   0.069   6.287  0.1109 -0.3048  0.2283
11994TIP3    H157473   2.096  -0.005   6.342 -0.0750 -3.0391 -3.0036
11994TIP3    H257474   1.979   0.051   6.264 -0.1304  1.2935 -0.1613
11995TIP3   OH257475   6.376   6.154  13.742  0.2747  0.4748  0.2460
11995TIP3    H157476   6.388   6.095  13.667  0.1304 -0.9496  1.2994
11995TIP3    H257477   6.300   6.119  13.788  0.9342  0.7280  1.5842
11996TIP3   OH257478   5.781   5.416  12.551 -0.0478  0.0713  0.9987
11996TIP3    H157479   5.826   5.366  12.620  1.5260  0.3908  0.2509
11996TIP3    H257480   5.782   5.358  12.475 -1.9282 -0.3431  1.2580
11997TIP3   OH257481   2.312   1.158  13.307  0.0139  0.2460 -0.1209
11997TIP3    H157482   2.311   1.248  13.339 -0.3519 -0.2359  1.3126
11997TIP3    H257483   2.276   1.164  13.219 -0.6396  1.4365  0.1969
11998TIP3   OH257484   4.757   3.205  15.618  0.3128 -0.0647 -0.5016
11998TIP3    H157485   4.796   3.293  15.621  1.0814 -0.4157  1.0622
11998TIP3    H257486   4.830   3.147  15.641 -0.5060 -0.9815 -0.1668
11999TIP3   OH257487   2.823   6.780  16.537 -0.0126  0.0802 -0.1138
11999TIP3    H157488   2.808   6.688  16.521 -1.2024  0.3599 -0.6748
11999TIP3    H257489   2.804   6.792  16.630 -2.1744  0.1845 -0.5365
12000TIP3   OH257490   1.926   2.918  15.837 -0.3249 -0.5485  0.1507
12000TIP3    H157491   1.859   2.986  15.833 -1.3533 -1.5441 -0.6589
12000TIP3    H257492   1.909   2.864  15.759  1.4143 -0.8583 -0.0583
12001TIP3   OH257493   3.542   3.638   2.454 -0.3313 -0.1165 -0.3691
12001TIP3    H157494   3.552   3.702   2.525  0.3910 -0.0535 -0.5140
12001TIP3    H257495   3.632   3.614   2.431 -0.5802 -1.9930  0.4050
12002TIP3   OH257496   1.766   5.224  11.686 -0.1824 -0.2829 -0.3149
12002TIP3    H157497   1.715   5.177  11.620 -0.1436 -0.7585 -0.0048
12002TIP3    H257498   1.751   5.176  11.767 -0.4266  0.4410  0.0811
12003TIP3   OH257499   6.282   0.425  11.174  0.2278 -0.2820 -0.1301
12003TIP3    H157500   6.367   0.386  11.152 -0.1307 -0.8823 -0.4579
12003TIP3    H257501   6.234   0.427  11.092  0.0142  0.3042  0.0043
12004TIP3   OH257502   1.023   1.850  11.349  0.5606 -0.0036 -0.3328
12004TIP3    H157503   1.046   1.778  11.407  0.8694  0.9237  0.7398
12004TIP3    H257504   1.049   1.929  11.397 -0.3880  0.8578 -1.1671
12005TIP3   OH257505   2.274   4.997   1.928 -0.3832  0.2295 -0.6859
12005TIP3    H157506   2.288   4.911   1.966  0.2712 -0.3995 -2.2319
12005TIP3    H257507   2.269   5.057   2.002 -1.9863 -1.2769  0.4666
12006TIP3   OH257508   2.393   4.702  15.362  0.1945 -0.3774  0.2212
12006TIP3    H157509   2.396   4.683  15.456 -0.1138 -1.1066  0.0956
12006TIP3    H257510   2.330   4.638  15.327  0.4151 -0.2095 -0.5026
12007TIP3   OH257511   1.647   6.042  13.575 -0.4931  0.1663 -0.0396
12007TIP3    H157512   1.581   6.011  13.637  0.2838 -0.4993  0.4720
12007TIP3    H257513   1.623   6.000  13.492 -0.2116 -0.7584  0.3440
12008TIP3   OH257514   3.805   4.054  13.753 -0.6013  0.3713  0.2456
12008TIP3    H157515   3.730   4.006  13.788 -1.7764  0.5803 -1.8086
12008TIP3    H257516   3.795   4.143  13.786 -1.5810  0.5197 -0.4047
12009TIP3   OH257517   2.915   1.124  15.795 -0.3412 -0.1206  0.1756
12009TIP3    H157518   2.930   1.033  15.822  1.4200  0.3953  1.0697
12009TIP3    H257519   2.927   1.175  15.875  1.6826  1.1520 -0.8542
12010TIP3   OH257520   0.009   2.628  11.263  0.0418 -0.1611 -1.0948
12010TIP3    H157521  -0.068   2.655  11.312  0.6285 -0.3307 -0.0483
12010TIP3    H257522   0.076   2.692  11.287 -0.0526  0.6796 -2.8840
12011TIP3   OH257523   4.499   3.251   1.182  0.0204  0.4072 -0.5322
12011TIP3    H157524   4.433   3.308   1.142 -0.4434  1.7480  1.9223
12011TIP3    H257525   4.480   3.255   1.276  3.4331  0.6620  0.2725
12012TIP3   OH257526   5.411   4.862  16.874  0.0567  0.3207 -0.0770
12012TIP3    H157527   5.424   4.767  16.871 -1.7967  0.0410 -1.3597
12012TIP3    H257528   5.424   4.891  16.784  2.1844  1.5892  0.5704
12013TIP3   OH257529   1.376   3.759   4.531 -0.1953  0.3184 -0.0474
12013TIP3    H157530   1.419   3.702   4.467 -0.7224 -0.5154  0.3103
12013TIP3    H257531   1.447   3.792   4.586  0.4399  2.1332 -1.8469
12014TIP3   OH257532   0.070   3.948  13.410  0.0681  0.2451  0.5942
12014TIP3    H157533   0.071   3.853  13.413  0.7382  0.2211 -0.0433
12014TIP3    H257534   0.013   3.970  13.337  0.0848  0.3277  0.6055
12015TIP3   OH257535   6.564   2.462  12.336  0.0747  0.2506  0.1499
12015TIP3    H157536   6.592   2.551  12.354  0.6775  0.2786 -0.8260
12015TIP3    H257537   6.641   2.408  12.356  0.1635  0.1016 -0.5785
12016TIP3   OH257538   5.277   6.050   3.659 -0.1629  0.2477 -0.3320
12016TIP3    H157539   5.345   6.020   3.719 -0.6811 -1.7593 -0.7012
12016TIP3    H257540   5.325   6.076   3.580  0.2243 -0.5221 -0.3528
12017TIP3   OH257541   6.567   5.106   1.258 -0.0970 -0.5789  0.1747
12017TIP3    H157542   6.560   5.015   1.228 -0.3378  0.2507 -2.5862
12017TIP3    H257543   6.651   5.136   1.223 -0.3884  0.5032  0.3753
12018TIP3   OH257544   5.992   1.781  14.886  0.3884 -0.1866  0.5536
12018TIP3    H157545   5.975   1.780  14.980  0.5136  1.3562  0.6304
12018TIP3    H257546   6.019   1.692  14.864 -1.8108 -1.1730  1.5438
12019TIP3   OH257547   2.146   0.966   3.177 -0.3000 -0.9810  0.1924
12019TIP3    H157548   2.121   0.986   3.267 -0.0917 -2.1153  0.5264
12019TIP3    H257549   2.112   1.039   3.125  2.3317  1.3235  1.5270
12020TIP3   OH257550   6.700   3.206   1.879  0.0594 -0.8522 -0.3704
12020TIP3    H157551   6.629   3.269   1.893 -0.0215 -1.1997  0.9535
12020TIP3    H257552   6.665   3.144   1.814 -0.8562 -1.0061  0.2441
12021TIP3   OH257553   4.156   0.930  14.271  0.1002 -0.1974  0.7309
12021TIP3    H157554   4.221   0.880  14.320 -0.3978 -0.4110  1.1825
12021TIP3    H257555   4.136   0.876  14.195  2.0254  0.8245 -0.5748
12022TIP3   OH257556   1.269   5.731   0.956  0.0759  0.0077 -0.1806
12022TIP3    H157557   1.233   5.673   1.024  1.0608  1.3556  1.5762
12022TIP3    H257558   1.202   5.732   0.888 -0.9547 -1.4230  0.7370
12023TIP3   OH257559   2.562   5.349   2.666 -0.0614 -0.3253  0.3394
12023TIP3    H157560   2.646   5.332   2.622  0.5670 -0.9346  1.6930
12023TIP3    H257561   2.496   5.317   2.605  0.7582 -0.8612 -0.2960
12024TIP3   OH257562   2.737   1.280  17.121 -0.6198  0.7899 -0.6772
12024TIP3    H157563   2.792   1.265  17.198  0.1706 -0.1522 -1.3946
12024TIP3    H257564   2.727   1.375  17.117 -1.2895  0.8159  0.9894
12025TIP3   OH257565   1.858   2.298   1.588  0.0810 -0.0208 -0.2331
12025TIP3    H157566   1.869   2.204   1.571  1.5977 -0.1934  1.4498
12025TIP3    H257567   1.904   2.341   1.517 -0.7876 -0.5127 -1.1285
12026TIP3   OH257568   3.896   5.023  14.567 -0.1737  0.3059 -0.1241
12026TIP3    H157569   3.885   5.118  14.562 -0.5864  0.2501 -0.3225
12026TIP3    H257570   3.988   5.008  14.544 -0.4713  0.5425 -1.5572
12027TIP3   OH257571   3.890   1.945  13.107  0.6002  0.4321 -0.4357
12027TIP3    H157572   3.958   1.931  13.173  0.4521  0.5847 -0.2501
12027TIP3    H257573   3.938   1.945  13.024  0.8694  0.8219 -0.2862
12028TIP3   OH257574   6.220   4.154   6.029 -0.1595  0.2059 -0.1552
12028TIP3    H157575   6.223   4.136   5.935 -0.8989 -0.6668 -0.0260
12028TIP3    H257576   6.191   4.072   6.068 -0.4641  0.7431  0.7816
12029TIP3   OH257577   6.357   3.471  13.894 -0.2917 -0.3586  0.4343
12029TIP3    H157578   6.350   3.405  13.825  1.2678  0.5814 -0.6971
12029TIP3    H257579   6.267   3.497  13.912 -0.8128 -1.6054 -0.2635
12030TIP3   OH257580   5.780   5.515  15.118  0.2977 -0.1538  0.2544
12030TIP3    H157581   5.793   5.424  15.143 -2.0023 -1.0109 -1.3101
12030TIP3    H257582   5.784   5.564  15.200  1.3686 -1.6737  1.1481
12031TIP3   OH257583   2.259   1.173   0.689 -0.1660  0.5974  0.5420
12031TIP3    H157584   2.299   1.092   0.720  0.0554  0.4410 -0.1257
12031TIP3    H257585   2.170   1.171   0.724  0.1712  0.5800  1.4080
12032TIP3   OH257586   5.880   0.823   0.394 -0.3867  0.0907  0.5775
12032TIP3    H157587   5.887   0.728   0.401 -1.4557 -0.5127 -3.6762
12032TIP3    H257588   5.788   0.842   0.412 -0.7646 -0.0969 -1.0118
12033TIP3   OH257589   1.573   2.471   2.055  0.1136 -0.1607 -0.2011
12033TIP3    H157590   1.503   2.525   2.092 -0.6812 -1.4050  0.1515
12033TIP3    H257591   1.556   2.383   2.089  1.7666 -0.5201 -0.2200
12034TIP3   OH257592   6.743   6.065   0.635  0.2065  0.0377  0.4370
12034TIP3    H157593   6.818   6.052   0.577  0.3411  1.0751  0.3633
12034TIP3    H257594   6.667   6.053   0.577  0.2571 -1.9775  0.7113
12035TIP3   OH257595   4.461   5.999  16.548  0.4084  0.2075 -0.1135
12035TIP3    H157596   4.544   5.961  16.577 -1.2221 -2.2442  1.8709
12035TIP3    H257597   4.429   5.938  16.481 -0.0843  0.7395 -0.3673
12036TIP3   OH257598   0.718   1.137  16.067  0.0993 -0.0166  0.0311
12036TIP3    H157599   0.775   1.203  16.028  0.1852 -0.2592 -0.2564
12036TIP3    H257600   0.767   1.102  16.141 -0.5014  1.2133  1.0375
12037TIP3   OH257601   3.582   4.545  12.153 -0.1424  0.1467 -0.0363
12037TIP3    H157602   3.503   4.592  12.180  0.1897 -0.3644  2.0084
12037TIP3    H257603   3.644   4.614  12.129 -0.4744  0.6601  0.5573
12038TIP3   OH257604   0.201   5.737   0.839  0.0407  0.3303 -0.1824
12038TIP3    H157605   0.186   5.659   0.893  1.2728 -0.2069 -0.5976
12038TIP3    H257606   0.180   5.810   0.898 -0.0777 -0.2819  0.5567
12039TIP3   OH257607   1.554   0.399  15.241 -0.7520 -0.4143 -0.0335
12039TIP3    H157608   1.567   0.333  15.309 -0.6536 -0.1204  0.2364
12039TIP3    H257609   1.469   0.438  15.261 -0.6953 -0.2845 -0.0413
12040TIP3   OH257610   4.228   3.891   2.277  0.1379 -0.4675 -0.1889
12040TIP3    H157611   4.204   3.950   2.206 -0.1336  0.8589  0.9562
12040TIP3    H257612   4.323   3.887   2.275  0.1925  0.4630  0.0439
12041TIP3   OH257613   1.947   0.675  11.835 -0.1813 -0.4894  0.1125
12041TIP3    H157614   1.894   0.621  11.893  0.2622  0.1741  1.1783
12041TIP3    H257615   2.018   0.616  11.807 -1.9369 -1.6705 -2.1072
12042TIP3   OH257616   1.352   4.020  16.718  0.0405  0.6149  0.4206
12042TIP3    H157617   1.347   3.998  16.811  0.0281  0.4349  0.3777
12042TIP3    H257618   1.444   4.039  16.702  0.4646 -1.5577 -0.0230
12043TIP3   OH257619   4.847   5.016   1.611 -0.5100  0.3640 -0.1331
12043TIP3    H157620   4.800   5.094   1.639  0.2981  0.2322  1.7571
12043TIP3    H257621   4.899   4.990   1.688  2.3999  0.3102 -1.9628
12044TIP3   OH257622   0.446   0.476   4.683 -0.0604 -0.1312 -0.4614
12044TIP3    H157623   0.394   0.398   4.663  2.3774 -1.8678 -0.3619
12044TIP3    H257624   0.495   0.494   4.603  0.6159  0.3162  0.0438
12045TIP3   OH257625   4.598   1.562   5.361 -0.4941  0.3916  0.0362
12045TIP3    H157626   4.616   1.610   5.441 -2.1461 -1.5254  1.6609
12045TIP3    H257627   4.564   1.477   5.391 -0.7801 -0.5555 -2.6912
12046TIP3   OH257628   0.683   2.951   2.120 -0.3470  0.1730  0.7283
12046TIP3    H157629   0.676   3.002   2.040  0.2503  0.1764  0.6765
12046TIP3    H257630   0.640   2.868   2.099  1.8055 -0.7511 -0.3860
12047TIP3   OH257631   6.036   4.913  11.042 -0.0191  0.1332  0.0732
12047TIP3    H157632   6.033   4.931  10.948 -2.6415  0.2204  0.1045
12047TIP3    H257633   5.988   4.986  11.081  0.5882 -0.1845  1.4485
12048TIP3   OH257634   0.799   6.480   4.721 -0.3352 -0.2691 -0.1089
12048TIP3    H157635   0.760   6.565   4.742  0.7192  0.4831 -1.0640
12048TIP3    H257636   0.892   6.491   4.740 -0.3281 -1.5610  0.7429
12049TIP3   OH257637   3.245   0.344  11.365 -0.5501  0.0061 -0.0050
12049TIP3    H157638   3.323   0.292  11.345 -1.3643 -2.1431  1.8958
12049TIP3    H257639   3.222   0.386  11.282  0.7654 -1.8982 -1.4274
12050TIP3   OH257640   3.823   3.443   3.887  0.1487 -0.2782 -0.3533
12050TIP3    H157641   3.788   3.505   3.823  0.6932  0.7933  0.3465
12050TIP3    H257642   3.747   3.414   3.937  0.0081  0.6687  0.0084
12051TIP3   OH257643   3.533   3.986  13.816 -0.1572  0.3390  0.1545
12051TIP3    H157644   3.487   4.069  13.821  0.9697  0.9758  0.1661
12051TIP3    H257645   3.475   3.930  13.763  0.1104  1.8541 -1.8682
12052TIP3   OH257646   5.462   3.678  12.797 -0.2834  0.2526  0.7418
12052TIP3    H157647   5.427   3.598  12.836  0.6605 -0.8723 -0.6435
12052TIP3    H257648   5.545   3.652  12.759 -0.7836  1.4686 -1.3065
12053TIP3   OH257649   5.798   5.353  13.878  0.8170  0.5077 -0.1554
12053TIP3    H157650   5.734   5.286  13.853  0.6507  0.7248 -0.3223
12053TIP3    H257651   5.873   5.304  13.911  0.7764  0.2355 -0.4651
12054TIP3   OH257652   1.003   2.410   3.205  0.3958 -0.0600 -0.4349
12054TIP3    H157653   1.029   2.479   3.266  1.8723  0.5367 -1.6923
12054TIP3    H257654   0.935   2.361   3.252 -0.2649  1.8665  0.7149
12055TIP3   OH257655   6.606   2.896   5.033 -0.1068 -1.2101 -0.3264
12055TIP3    H157656   6.661   2.925   5.105  0.1810 -0.3500 -0.8824
12055TIP3    H257657   6.518   2.928   5.055 -0.3074 -2.1489  0.3110
12056TIP3   OH257658   5.608   1.862   1.800  0.0991 -0.4575 -0.2449
12056TIP3    H157659   5.650   1.898   1.878  2.1089  0.3469 -1.5957
12056TIP3    H257660   5.654   1.780   1.784  1.6327  0.6236 -1.9674
12057TIP3   OH257661   5.799   1.887   3.136  0.5885  0.5896 -0.7263
12057TIP3    H157662   5.832   1.960   3.083  1.7341  0.5121 -0.1288
12057TIP3    H257663   5.863   1.876   3.206 -0.4795  0.1572  0.2234
12058TIP3   OH257664   0.099   3.707  16.204 -0.3397 -0.0058  0.1082
12058TIP3    H157665   0.184   3.733  16.169 -0.9798  1.2164 -0.5880
12058TIP3    H257666   0.044   3.785  16.195 -1.7465 -0.9952 -0.1399
12059TIP3   OH257667   2.133   6.150  11.884 -0.5111  0.1684 -0.2167
12059TIP3    H157668   2.053   6.112  11.919 -0.2143 -2.0669 -1.7258
12059TIP3    H257669   2.135   6.121  11.792  1.6038  0.8400 -0.4317
12060TIP3   OH257670   5.037   1.663  11.931  0.2475  0.1179 -0.0271
12060TIP3    H157671   4.941   1.666  11.927  0.2599  1.0616  0.3424
12060TIP3    H257672   5.065   1.680  11.841  0.0941  1.5475  0.1773
12061TIP3   OH257673   3.641   4.676  10.758  0.6040 -0.1457 -0.2902
12061TIP3    H157674   3.555   4.718  10.755  1.1234  1.0370  0.5180
12061TIP3    H257675   3.662   4.658  10.666 -1.3508 -2.3269 -0.3967
12062TIP3   OH257676   2.759   2.743   4.421  0.5389 -0.5259 -0.6254
12062TIP3    H157677   2.677   2.702   4.395 -0.4254  0.9009  0.0618
12062TIP3    H257678   2.807   2.673   4.466 -0.8514 -1.0429  0.1187
12063TIP3   OH257679   1.542   1.646  16.311  0.4389 -0.0727 -0.3413
12063TIP3    H157680   1.626   1.659  16.267 -0.0831 -0.4522 -1.4656
12063TIP3    H257681   1.492   1.589  16.252 -0.0464 -1.1249  1.0270
12064TIP3   OH257682   0.927   5.578  11.490  0.0218  0.1260  0.3657
12064TIP3    H157683   0.998   5.588  11.553  0.0057  0.4237  0.3361
12064TIP3    H257684   0.868   5.651  11.508  0.6107  0.9186 -0.7645
12065TIP3   OH257685   3.296   4.639   0.572  0.2726  0.3560 -0.2848
12065TIP3    H157686   3.375   4.609   0.526  0.0990  0.6362 -0.7701
12065TIP3    H257687   3.234   4.660   0.503 -0.5686 -0.7394  0.1118
12066TIP3   OH257688   5.334   4.577   1.628  0.5711  0.3442 -0.0119
12066TIP3    H157689   5.419   4.596   1.668  0.6160 -1.1037  0.6414
12066TIP3    H257690   5.287   4.525   1.694 -0.2729 -0.0826 -0.9210
12067TIP3   OH257691   3.653   0.233  14.333 -0.1322  0.0830  0.4136
12067TIP3    H157692   3.729   0.175  14.329 -0.3232 -0.1234 -1.5635
12067TIP3    H257693   3.591   0.195  14.271  0.2144  3.0049 -1.9691
12068TIP3   OH257694   0.182   6.381  14.511 -0.4761 -0.2426 -0.0714
12068TIP3    H157695   0.237   6.430  14.572 -0.2426  0.0571 -0.5151
12068TIP3    H257696   0.221   6.293  14.510  0.5843  0.2118 -1.0767
12069TIP3   OH257697   4.802   3.337  11.314 -0.4968 -0.3481  0.6312
12069TIP3    H157698   4.764   3.383  11.240 -0.1837 -0.2838  0.5083
12069TIP3    H257699   4.809   3.246  11.286 -0.1073 -0.2713  0.4706
12070TIP3   OH257700   2.631   6.362  15.212  0.1666 -0.3078 -0.1227
12070TIP3    H157701   2.613   6.280  15.259 -1.5394  0.2496  0.2326
12070TIP3    H257702   2.581   6.355  15.131 -1.9248  1.3338  0.9480
12071TIP3   OH257703   1.885   0.633   1.474  0.0600 -0.5879 -0.3331
12071TIP3    H157704   1.854   0.693   1.541  0.8522 -1.2192  0.6293
12071TIP3    H257705   1.883   0.684   1.393  0.1169  0.5360  0.3492
12072TIP3   OH257706   4.799   2.832  12.386  0.0003 -0.0620  0.0896
12072TIP3    H157707   4.844   2.855  12.467 -1.3498  1.1602  0.5431
12072TIP3    H257708   4.832   2.896  12.322 -0.1629  0.0413  0.1077
12073TIP3   OH257709   5.755   4.190   5.326  0.4969  0.3560  0.4398
12073TIP3    H157710   5.835   4.148   5.294 -0.6074 -1.9776  0.5267
12073TIP3    H257711   5.689   4.121   5.324 -1.2830  1.9296  1.3650
12074TIP3   OH257712   4.182   5.394   3.750  0.6429 -0.3404 -0.0853
12074TIP3    H157713   4.238   5.452   3.802 -0.1451 -0.2979  0.7161
12074TIP3    H257714   4.236   5.317   3.735  0.9438 -0.2762  0.6370
12075TIP3   OH257715   1.256   4.304   3.859  0.1636  0.2637 -0.2067
12075TIP3    H157716   1.211   4.226   3.889 -0.6161  0.6717 -0.3022
12075TIP3    H257717   1.292   4.343   3.939 -0.0573  0.1943 -0.0738
12076TIP3   OH257718   0.588   6.690  13.008 -0.6529 -0.0014  0.3517
12076TIP3    H157719   0.671   6.724  12.975 -0.3841 -0.1599  0.8563
12076TIP3    H257720   0.604   6.597  13.024 -0.8139  0.0446  0.8071
12077TIP3   OH257721   6.373   6.213  11.183 -0.4564  1.1448 -0.1502
12077TIP3    H157722   6.311   6.219  11.110  0.7526  1.5931 -1.1696
12077TIP3    H257723   6.450   6.171  11.144 -0.6691 -0.9057  1.4739
12078TIP3   OH257724   4.084   6.386  16.476 -0.0602 -0.1781 -0.1693
12078TIP3    H157725   4.122   6.386  16.388 -0.2167 -1.5641 -0.2676
12078TIP3    H257726   4.149   6.429  16.531  2.0417 -3.0503 -0.2135
12079TIP3   OH257727   6.256   0.433  15.819 -0.5096  0.3050 -0.1550
12079TIP3    H157728   6.191   0.499  15.844  0.4184  0.2646  2.6432
12079TIP3    H257729   6.232   0.355  15.869  1.9658  0.4729  1.4836
12080TIP3   OH257730   5.433   4.870   1.967  0.4437  0.3648  0.0792
12080TIP3    H157731   5.428   4.780   1.998  0.6174  0.5626  0.6919
12080TIP3    H257732   5.434   4.923   2.047 -1.3100  1.0027 -0.2836
12081TIP3   OH257733   1.189   5.932   2.478 -0.5214  0.0060  0.8379
12081TIP3    H157734   1.278   5.959   2.455 -0.9380  0.5877 -0.1804
12081TIP3    H257735   1.172   5.858   2.419 -0.6246 -0.2629  1.2057
12082TIP3   OH257736   0.488   2.648  14.005 -0.1241  0.0989  0.4997
12082TIP3    H157737   0.542   2.569  13.996  0.8614  0.6401  1.3996
12082TIP3    H257738   0.505   2.699  13.926 -1.8286 -1.1689 -0.7632
12083TIP3   OH257739   4.169   6.792  12.641  0.2180 -0.2065 -0.3813
12083TIP3    H157740   4.213   6.747  12.713 -0.2519 -0.0658  0.0004
12083TIP3    H257741   4.193   6.884  12.652  0.9445 -0.3231 -0.9891
12084TIP3   OH257742   3.533   5.558  12.470  0.6854 -0.1344 -0.1837
12084TIP3    H157743   3.508   5.632  12.526 -1.5462 -1.2378  0.3983
12084TIP3    H257744   3.568   5.599  12.391  0.2120  1.5168  0.4023
12085TIP3   OH257745   0.702   2.869   6.419  0.0558 -0.0735  0.4085
12085TIP3    H157746   0.663   2.784   6.402  1.0496 -0.6258  0.8231
12085TIP3    H257747   0.766   2.853   6.488  0.9593  0.8144 -0.2005
12086TIP3   OH257748   4.602   4.470   5.144 -0.0841  0.6392 -0.3460
12086TIP3    H157749   4.558   4.440   5.064 -0.0063 -1.0006  0.1998
12086TIP3    H257750   4.587   4.565   5.145 -0.4318  0.6340 -2.0870
12087TIP3   OH257751   6.193   0.653   5.265  0.1543  0.0063 -0.0393
12087TIP3    H157752   6.190   0.563   5.234 -0.4131  0.3985 -1.1732
12087TIP3    H257753   6.101   0.682   5.264  0.4222  0.8715 -0.5359
12088TIP3   OH257754   0.969   1.683  12.569  0.0787 -0.0590 -0.6962
12088TIP3    H157755   1.059   1.671  12.537  1.0524  0.0334  1.7771
12088TIP3    H257756   0.914   1.669  12.492  2.1430 -1.4008 -2.0256
12089TIP3   OH257757   6.494   6.558   2.902 -0.6647 -0.0064  0.2151
12089TIP3    H157758   6.570   6.509   2.934 -0.7745  0.1255  0.6981
12089TIP3    H257759   6.519   6.586   2.814  0.0085  0.3540  0.5060
12090TIP3   OH257760   3.391   1.228  13.147 -0.2167 -0.3279  0.2648
12090TIP3    H157761   3.373   1.294  13.079  0.0619  0.6953  1.1628
12090TIP3    H257762   3.441   1.161  13.101  1.2579  1.0471 -0.2469
12091TIP3   OH257763   5.683   0.909   1.374 -0.0771 -0.2416  0.4415
12091TIP3    H157764   5.670   0.962   1.453  1.1031 -0.0244  0.5147
12091TIP3    H257765   5.658   0.821   1.399 -2.1676  0.2560  0.2969
12092TIP3   OH257766   2.704   6.583  17.084 -0.0775 -0.6401  0.0658
12092TIP3    H157767   2.747   6.563  17.001 -1.5582 -0.3589 -0.8022
12092TIP3    H257768   2.694   6.678  17.084 -0.8968 -0.7234  0.1484
12093TIP3   OH257769   5.491   4.651   6.084 -0.2963 -0.3716 -0.1188
12093TIP3    H157770   5.488   4.726   6.144  0.1249  1.6663 -2.4718
12093TIP3    H257771   5.504   4.575   6.141 -2.7911  1.0305  2.5818
12094TIP3   OH257772   5.384   6.338   4.028 -0.4600  0.5876 -0.2832
12094TIP3    H157773   5.476   6.358   4.045 -0.8810  1.9714  0.5442
12094TIP3    H257774   5.336   6.410   4.068 -1.8484  0.8250 -2.2286
12095TIP3   OH257775   2.103   5.600   0.473  0.2197 -0.8897 -0.2949
12095TIP3    H157776   2.064   5.615   0.386  1.9837  0.1762 -0.9507
12095TIP3    H257777   2.041   5.543   0.517 -2.6130  1.4277 -0.9185
12096TIP3   OH257778   4.701   5.002   4.785 -0.1504 -0.3709  0.2527
12096TIP3    H157779   4.742   5.042   4.862  0.7897 -0.3679 -0.2363
12096TIP3    H257780   4.770   4.949   4.746  0.5744  2.4370 -2.6503
12097TIP3   OH257781   2.046   2.954   6.457 -0.2369 -0.2749 -0.1421
12097TIP3    H157782   2.022   2.924   6.369  0.4899  0.8345 -0.7423
12097TIP3    H257783   2.002   3.038   6.466  0.9382  0.3528 -0.0709
12098TIP3   OH257784   1.829   6.272  12.823 -0.6026  0.4048  0.1253
12098TIP3    H157785   1.772   6.219  12.768  0.4854  0.1487 -0.7905
12098TIP3    H257786   1.834   6.356  12.778 -0.2244  0.4145  0.1826
12099TIP3   OH257787   2.977   2.747   4.008 -0.0882  0.1505 -0.4662
12099TIP3    H157788   3.000   2.718   4.096  0.8385 -0.3641 -0.8673
12099TIP3    H257789   3.014   2.681   3.950  0.3420  1.0929 -1.3058
12100TIP3   OH257790   5.499   6.448  13.581  0.4976  0.1883  0.2506
12100TIP3    H157791   5.529   6.359  13.566  1.0535  0.4037  0.0633
12100TIP3    H257792   5.559   6.484  13.646  2.1099  1.3521 -1.7652
12101TIP3   OH257793   0.604   1.521  16.926 -0.0905 -0.2204 -0.2945
12101TIP3    H157794   0.650   1.470  16.860 -3.6710 -2.1515 -1.5769
12101TIP3    H257795   0.594   1.461  17.000 -1.0495 -0.0705 -0.2938
12102TIP3   OH257796   1.128   2.427   5.317  0.7788  0.5714  0.3801
12102TIP3    H157797   1.033   2.416   5.311  1.1087 -2.2381 -3.1817
12102TIP3    H257798   1.140   2.519   5.339 -2.7295  0.7879  2.0632
12103TIP3   OH257799   4.767   3.809  10.924 -0.0278 -0.1850 -0.1179
12103TIP3    H157800   4.758   3.886  10.980 -3.2038 -0.1679 -0.5015
12103TIP3    H257801   4.806   3.742  10.981  1.3762  1.2265  0.6374
12104TIP3   OH257802   6.426   0.037   1.506  0.5316  0.4124  0.1017
12104TIP3    H157803   6.409   0.119   1.459  1.9717  1.2756  1.0092
12104TIP3    H257804   6.401   0.055   1.597 -1.5893 -1.0252 -0.1162
12105TIP3   OH257805   0.609   4.434   4.210 -0.5203 -0.4197  0.1380
12105TIP3    H157806   0.685   4.376   4.214  0.3757  0.6597 -0.6649
12105TIP3    H257807   0.620   4.493   4.284 -0.8335 -0.5513  0.2921
12106TIP3   OH257808   6.473   5.973  13.551 -0.6894 -0.0014 -0.7255
12106TIP3    H157809   6.453   5.901  13.492  1.4030 -1.5706  0.3216
12106TIP3    H257810   6.545   6.019  13.509  0.1523 -0.5348  0.0865
12107TIP3   OH257811   1.829   0.089   1.872  0.7652  0.0398  0.1807
12107TIP3    H157812   1.865   0.036   1.943  1.1706  0.5540  0.3644
12107TIP3    H257813   1.875   0.058   1.794 -1.3425 -2.1766 -0.2934
12108TIP3   OH257814   5.837   2.842   6.601 -0.2121 -0.7633  0.0777
12108TIP3    H157815   5.893   2.870   6.529 -0.0687  0.2160  0.5538
12108TIP3    H257816   5.797   2.922   6.634 -2.1226 -1.4597 -0.4070
12109TIP3   OH257817   4.769   6.782  14.509 -0.2551  0.3303  0.5985
12109TIP3    H157818   4.699   6.725  14.477  0.1053 -0.3826  1.0541
12109TIP3    H257819   4.749   6.868  14.473 -0.6846 -0.1334 -0.2933
12110TIP3   OH257820   2.752   3.255  12.496  0.2380 -0.4746  0.0737
12110TIP3    H157821   2.786   3.177  12.454 -2.6001 -1.3802 -0.8071
12110TIP3    H257822   2.795   3.328  12.451  0.2808 -1.4929 -1.6239
12111TIP3   OH257823   2.754   2.125   3.970 -0.0559  0.4885 -0.6483
12111TIP3    H157824   2.678   2.178   3.993 -0.2505 -0.1269  0.1762
12111TIP3    H257825   2.810   2.184   3.919  0.5372  2.0266  1.6345
12112TIP3   OH257826   0.472   5.491  13.506  0.1228 -0.1017 -0.4280
12112TIP3    H157827   0.540   5.536  13.557  1.6652 -2.2455 -0.4878
12112TIP3    H257828   0.503   5.496  13.416 -0.7399  0.4750 -0.6983
12113TIP3   OH257829   1.482   3.643   5.594  0.2457 -0.4241  0.3546
12113TIP3    H157830   1.536   3.711   5.634 -0.4685 -0.7162  1.9345
12113TIP3    H257831   1.538   3.566   5.589 -0.0345 -0.8033  2.2323
12114TIP3   OH257832   3.673   0.221   1.330 -0.3248 -0.2125 -0.0044
12114TIP3    H157833   3.599   0.204   1.387  1.2408  0.7336  2.4363
12114TIP3    H257834   3.703   0.134   1.303 -0.3863 -0.7572  1.6159
12115TIP3   OH257835   1.326   1.174   5.951  0.1530  0.1960 -0.8985
12115TIP3    H157836   1.326   1.215   5.864  0.0588  1.2063 -0.4413
12115TIP3    H257837   1.408   1.202   5.991 -0.0440  0.1777 -0.4672
12116TIP3   OH257838   0.857   2.269   1.999  0.1619 -0.0737  0.0523
12116TIP3    H157839   0.874   2.321   1.920  1.9549 -1.2530 -0.4140
12116TIP3    H257840   0.782   2.214   1.975 -0.6113  0.9909 -0.0706
12117TIP3   OH257841   4.996   5.502   1.978  0.3666 -0.3918 -0.7988
12117TIP3    H157842   4.917   5.472   1.932 -0.1941 -1.5487  0.8324
12117TIP3    H257843   5.064   5.440   1.951  0.8401  0.7487 -2.3960
12118TIP3   OH257844   2.743   2.833   3.863  0.2064 -0.1519  0.3809
12118TIP3    H157845   2.769   2.886   3.788  0.2551  0.6399  0.9446
12118TIP3    H257846   2.822   2.785   3.887  0.7185  0.9843  1.0495
12119TIP3   OH257847   3.897   4.076   5.047 -0.0699 -0.0801 -0.3376
12119TIP3    H157848   3.839   4.128   5.103  0.1001 -0.6788  0.4097
12119TIP3    H257849   3.894   4.120   4.962 -2.1648 -0.4698 -0.5265
12120TIP3   OH257850   0.503   0.959   0.486 -0.2542 -1.0070  0.3545
12120TIP3    H157851   0.493   0.903   0.563  1.2701  1.8765  2.9025
12120TIP3    H257852   0.594   0.946   0.458 -1.0425 -2.7012 -1.6544
12121TIP3   OH257853   0.054   6.371   4.820 -0.1523  0.1913  0.4512
12121TIP3    H157854   0.143   6.405   4.830  0.2162 -0.8520  0.7832
12121TIP3    H257855   0.006   6.443   4.779  1.2366  0.2085 -1.2808
12122TIP3   OH257856   1.691   5.817   1.243 -0.1784 -0.4529  0.6027
12122TIP3    H157857   1.625   5.752   1.217 -0.6624  0.3235 -0.2031
12122TIP3    H257858   1.772   5.786   1.204 -0.0957 -1.3229  1.4430
12123TIP3   OH257859   0.174   1.247  15.734 -0.5514 -0.6917 -0.0772
12123TIP3    H157860   0.241   1.274  15.671 -1.1520  0.4622 -0.2524
12123TIP3    H257861   0.144   1.161  15.702  1.6699 -1.8126  0.6977
12124TIP3   OH257862   3.719   3.840  13.600 -0.6233  0.2132  0.4926
12124TIP3    H157863   3.768   3.880  13.673 -1.6585 -0.0370  1.3487
12124TIP3    H257864   3.686   3.758  13.636  1.3384 -1.4428 -1.1770
12125TIP3   OH257865   3.074   6.380   5.868 -0.2261  0.5978 -0.1283
12125TIP3    H157866   3.012   6.426   5.923  0.2675  0.1933  0.7856
12125TIP3    H257867   3.024   6.308   5.830 -0.5321  0.7900 -0.0865
12126TIP3   OH257868   5.879   2.375  12.609 -0.3500 -0.4811  0.4531
12126TIP3    H157869   5.912   2.291  12.642 -0.0546 -0.4989  0.1220
12126TIP3    H257870   5.845   2.420  12.686 -2.4785 -1.7897  0.3623
12127TIP3   OH257871   3.416   5.297   1.314 -0.4810 -0.3975 -0.3142
12127TIP3    H157872   3.436   5.387   1.343 -0.7814 -0.6840  0.8479
12127TIP3    H257873   3.493   5.246   1.341 -0.5797 -0.5992 -0.4148
12128TIP3   OH257874   3.113   1.274  12.284  0.0516  0.0523  0.4728
12128TIP3    H157875   3.179   1.311  12.225 -0.7067  1.9755  0.7785
12128TIP3    H257876   3.065   1.212  12.230  0.7540  0.1887 -0.3293
12129TIP3   OH257877   4.040   4.596  15.357  0.1564  0.0534 -0.2249
12129TIP3    H157878   3.945   4.594  15.368  0.1447  0.6714 -0.1918
12129TIP3    H257879   4.060   4.686  15.331  0.6899 -0.1758 -0.6383
12130TIP3   OH257880   3.578   4.670   3.041  0.1268  0.1098 -0.3408
12130TIP3    H157881   3.663   4.706   3.062  2.4287 -0.8382 -6.0603
12130TIP3    H257882   3.589   4.575   3.048 -1.1486  0.0010  0.6472
12131TIP3   OH257883   5.125   0.001  10.717  0.0402  0.6847 -0.1580
12131TIP3    H157884   5.176  -0.016  10.638  2.8965  0.4218  1.5986
12131TIP3    H257885   5.136  -0.078  10.771 -1.0468  1.2147  0.9121
12132TIP3   OH257886   4.930   3.576  16.484 -0.2863 -0.0254  0.3186
12132TIP3    H157887   4.867   3.505  16.500 -0.3188 -0.2605 -0.7496
12132TIP3    H257888   4.889   3.654  16.520 -0.5693 -0.4251  0.8708
12133TIP3   OH257889   1.582   2.930  11.604  0.2565 -0.2409  0.2891
12133TIP3    H157890   1.600   2.967  11.517  0.5127 -1.3857 -0.1637
12133TIP3    H257891   1.567   2.837  11.588 -2.1741 -0.0746  1.1649
12134TIP3   OH257892   4.400   1.091   2.768 -0.1991  0.3751  0.2510
12134TIP3    H157893   4.410   0.996   2.760  1.0605  0.6021 -1.6582
12134TIP3    H257894   4.472   1.119   2.824 -0.0162  0.2706  0.0722
12135TIP3   OH257895   1.099   4.195   3.629  0.4899 -0.2966 -0.1584
12135TIP3    H157896   1.144   4.255   3.688 -0.7071 -0.1371  0.6037
12135TIP3    H257897   1.090   4.114   3.679 -0.2816 -0.2529 -0.2225
12136TIP3   OH257898   1.126   4.391  14.900  0.1373  0.1512  0.5492
12136TIP3    H157899   1.130   4.397  14.805 -1.0810 -0.8601  0.4198
12136TIP3    H257900   1.073   4.466  14.927  0.1361  0.2004  0.4110
12137TIP3   OH257901   5.401   3.576  12.276  0.0960 -0.1998  0.8610
12137TIP3    H157902   5.425   3.615  12.360  0.8025 -1.5993  1.3468
12137TIP3    H257903   5.453   3.495  12.271  1.8882  0.9764 -1.9915
12138TIP3   OH257904   6.746   4.228  14.938 -0.4281 -0.1584  0.4736
12138TIP3    H157905   6.767   4.136  14.957  1.2729  0.0374 -0.2040
12138TIP3    H257906   6.801   4.249  14.862 -0.7865  1.4287  0.6192
12139TIP3   OH257907   5.172   0.342  11.113 -0.1422  0.2910  0.5940
12139TIP3    H157908   5.156   0.258  11.071  3.1185 -0.7052  1.0547
12139TIP3    H257909   5.120   0.404  11.062  0.2679 -1.4671 -2.2147
12140TIP3   OH257910   1.041   3.012   1.776  0.3791 -0.6651 -0.1306
12140TIP3    H157911   1.004   3.020   1.688 -0.7519  0.7068  0.4295
12140TIP3    H257912   1.014   2.926   1.806 -0.1884 -0.6944 -0.7033
12141TIP3   OH257913   4.283   2.319   1.972 -0.1415  0.5946  0.1707
12141TIP3    H157914   4.277   2.247   2.035 -1.0584 -0.2299 -0.8302
12141TIP3    H257915   4.211   2.304   1.910  0.6972  1.3953 -1.0547
12142TIP3   OH257916   6.144   3.496   1.712 -0.4265  0.5140  0.0131
12142TIP3    H157917   6.052   3.520   1.727 -0.8946 -0.6940 -0.7938
12142TIP3    H257918   6.141   3.432   1.641  1.2176  1.9642 -1.4737
12143TIP3   OH257919   0.900   6.274  16.984 -0.3441  0.2479  0.1869
12143TIP3    H157920   0.994   6.278  16.997 -0.1598  1.9079 -1.1758
12143TIP3    H257921   0.870   6.364  17.000 -1.9480 -0.5454  2.0347
12144TIP3   OH257922   2.037   4.766  12.562  0.3844 -0.3311 -0.6346
12144TIP3    H157923   2.067   4.807  12.643 -1.1820  0.6275 -0.4979
12144TIP3    H257924   2.114   4.719  12.529  1.5086  0.5925  0.5559
12145TIP3   OH257925   5.119   3.551   4.002 -0.2604 -0.0282  0.0716
12145TIP3    H157926   5.203   3.507   3.991  1.0369  2.2198  0.4399
12145TIP3    H257927   5.089   3.569   3.913 -0.2535 -0.5973 -0.0515
12146TIP3   OH257928   6.098   6.457  12.138  0.7850  0.0087 -0.5881
12146TIP3    H157929   6.018   6.507  12.120 -0.6128 -1.5329  1.0236
12146TIP3    H257930   6.098   6.387  12.073 -0.1183 -0.9879  0.4545
12147TIP3   OH257931   4.403   3.383  17.163 -0.6061  0.2512 -0.5314
12147TIP3    H157932   4.414   3.464  17.113  0.7389  0.1793 -0.3713
12147TIP3    H257933   4.489   3.364  17.199 -1.3020 -0.2420  0.9968
12148TIP3   OH257934   0.846   2.493  10.679  1.1380  0.2921  0.0762
12148TIP3    H157935   0.899   2.429  10.726  1.6644  0.3417 -0.4486
12148TIP3    H257936   0.832   2.563  10.743  1.7961  0.3298  0.1848
12149TIP3   OH257937   3.069   5.861   0.862 -0.3388 -0.3300 -0.1453
12149TIP3    H157938   3.068   5.950   0.827  0.6110  0.1496  0.9821
12149TIP3    H257939   2.981   5.828   0.847  0.1825 -0.5173 -3.7862
12150TIP3   OH257940   0.259   2.820   3.614 -0.4244 -0.1341 -0.2305
12150TIP3    H157941   0.213   2.884   3.560 -0.1583  0.6197  0.4249
12150TIP3    H257942   0.290   2.754   3.552 -0.4595  0.5078 -0.9411
12151TIP3   OH257943   4.510   2.854  12.428 -0.1045 -0.5268  0.0910
12151TIP3    H157944   4.602   2.862  12.405 -0.6089  0.5050 -1.7106
12151TIP3    H257945   4.484   2.941  12.457  0.0633 -1.3757  3.2102
12152TIP3   OH257946   1.767   1.734   1.091 -0.8730 -0.2258 -0.4608
12152TIP3    H157947   1.720   1.682   1.025 -0.0019 -1.3440 -0.2221
12152TIP3    H257948   1.837   1.776   1.042 -1.7965  1.0673 -0.7255
12153TIP3   OH257949   6.245   4.591   1.006  0.4549  0.7393  0.3700
12153TIP3    H157950   6.263   4.508   1.049  1.9828  0.8781  0.0489
12153TIP3    H257951   6.179   4.633   1.061  0.6545 -0.1047  1.2699
12154TIP3   OH257952   0.513   0.188  13.622  0.0515  1.0079 -0.4596
12154TIP3    H157953   0.445   0.196  13.555 -0.0514  2.6843 -0.2014
12154TIP3    H257954   0.511   0.272  13.668  2.2794  1.1003 -0.4340
12155TIP3   OH257955   4.104   4.487  11.438 -0.3649  0.2896  0.8061
12155TIP3    H157956   4.107   4.583  11.445 -0.7386  0.4621 -0.9211
12155TIP3    H257957   4.188   4.458  11.475  0.6483  1.4465 -0.4878
12156TIP3   OH257958   4.547   1.339   5.488 -0.0816  0.1658  0.4054
12156TIP3    H157959   4.561   1.279   5.415  3.1256  2.3937 -1.0647
12156TIP3    H257960   4.570   1.288   5.566  1.4479 -0.8953 -0.6781
12157TIP3   OH257961   0.421   1.747   3.031 -0.2112  0.0174  0.5398
12157TIP3    H157962   0.474   1.813   3.076  0.3210 -1.9905  3.0869
12157TIP3    H257963   0.334   1.754   3.070  0.1689 -1.5332  1.7761
12158TIP3   OH257964   0.324   1.642  16.910 -0.0084  0.3991  0.5494
12158TIP3    H157965   0.298   1.631  16.818 -1.0834 -0.3121  0.9089
12158TIP3    H257966   0.412   1.607  16.914  0.8418  2.2157 -0.5893
12159TIP3   OH257967   6.318   1.911   0.052 -0.1529 -0.0125 -0.3012
12159TIP3    H157968   6.253   1.944   0.114 -0.5574 -1.3570  0.0322
12159TIP3    H257969   6.325   1.979  -0.015 -1.2648  0.5318  0.1172
12160TIP3   OH257970   4.137   0.747   0.167 -0.1607  0.2435 -0.2196
12160TIP3    H157971   4.156   0.667   0.216  0.0372 -0.1382 -0.9130
12160TIP3    H257972   4.106   0.808   0.233 -2.4572 -1.0892  0.0602
12161TIP3   OH257973   2.318   3.302   0.159  0.3467 -0.1926  0.3611
12161TIP3    H157974   2.287   3.225   0.207 -2.9593 -0.7139 -2.1931
12161TIP3    H257975   2.266   3.375   0.194  0.4571  0.0804 -0.0355
12162TIP3   OH257976   2.699   0.941   4.958 -0.1685  0.0589 -0.0152
12162TIP3    H157977   2.733   1.025   4.991  0.4299 -0.0339 -0.3948
12162TIP3    H257978   2.653   0.964   4.877 -0.4457  0.0861  0.1458
12163TIP3   OH257979   1.253   0.384  13.346  0.6798  0.2501  0.5207
12163TIP3    H157980   1.307   0.367  13.424 -0.3588  0.0741  1.2200
12163TIP3    H257981   1.316   0.389  13.274  1.9411  2.7188  1.6626
12164TIP3   OH257982   0.356   5.887   6.212 -0.8977 -0.0007 -0.4387
12164TIP3    H157983   0.269   5.918   6.235 -1.0081  0.9558 -1.9780
12164TIP3    H257984   0.413   5.962   6.229 -0.6506 -0.0384 -1.0638
12165TIP3   OH257985   5.343   0.908  12.852  0.3521  0.3505  0.1390
12165TIP3    H157986   5.349   0.998  12.820  0.8004  0.3511  0.2317
12165TIP3    H257987   5.303   0.916  12.939  1.4026  0.5584  0.6180
12166TIP3   OH257988   3.413   1.988  14.592 -0.3510 -0.0679  0.6443
12166TIP3    H157989   3.380   2.012  14.505  0.6042  0.9325  0.5355
12166TIP3    H257990   3.374   2.052  14.651  1.1121  0.9698  0.5485
12167TIP3   OH257991   2.399   5.255   2.999  0.0058  0.2530 -0.2082
12167TIP3    H157992   2.340   5.319   2.959  0.3559  1.8244  1.6051
12167TIP3    H257993   2.467   5.309   3.039  0.2443 -1.2710  1.5329
12168TIP3   OH257994   0.378   0.218   1.662  0.2863 -0.0358 -0.1610
12168TIP3    H157995   0.471   0.234   1.678 -0.1063  1.4264  0.8019
12168TIP3    H257996   0.376   0.139   1.607  2.0100 -1.2355  1.3934
12169TIP3   OH257997   2.619   1.145  15.880 -0.9012  0.5012 -0.3562
12169TIP3    H157998   2.668   1.189  15.811 -2.0651  0.7838 -1.0319
12169TIP3    H257999   2.528   1.146  15.849 -1.4681  0.7179  1.2207
12170TIP3   OH258000   6.317   4.970  13.140 -0.0669 -0.2338 -0.8320
12170TIP3    H158001   6.354   5.013  13.063 -1.1234  1.3069 -0.5308
12170TIP3    H258002   6.307   4.878  13.114  4.0961 -0.8416 -0.8212
12171TIP3   OH258003   5.207   1.395  15.785 -0.2667 -0.2215 -0.0479
12171TIP3    H158004   5.272   1.464  15.767  1.0267 -1.2425  0.5591
12171TIP3    H258005   5.197   1.397  15.881 -0.0851 -0.9948 -0.0124
12172TIP3   OH258006   4.896   5.288   0.794 -0.4449 -0.9259 -0.5557
12172TIP3    H158007   4.928   5.198   0.796 -0.9232 -1.0898  0.6615
12172TIP3    H258008   4.889   5.313   0.886 -2.8060 -0.5374 -0.7828
12173TIP3   OH258009   5.867   0.370   4.315  0.0956 -0.1649 -0.3707
12173TIP3    H158010   5.888   0.431   4.245  0.7883  0.6480  0.5276
12173TIP3    H258011   5.771   0.373   4.321 -0.0962 -1.2225 -2.1088
12174TIP3   OH258012   2.113   6.480   3.705  0.2609  0.0885  0.1636
12174TIP3    H158013   2.107   6.453   3.614 -0.5668  0.2232  0.1689
12174TIP3    H258014   2.135   6.400   3.753 -1.7495 -0.5456  0.1302
12175TIP3   OH258015   1.619   0.309   0.086  0.2730 -0.0768  0.0361
12175TIP3    H158016   1.708   0.275   0.087  0.4425  0.3523 -0.5413
12175TIP3    H258017   1.567   0.240   0.129  0.6182 -1.0473 -1.0449
12176TIP3   OH258018   4.305   4.874  11.695  0.1259 -0.3422 -0.4947
12176TIP3    H158019   4.359   4.802  11.662 -0.3275 -1.1804  0.5602
12176TIP3    H258020   4.276   4.919  11.616  0.5452 -1.2197 -1.1725
12177TIP3   OH258021   0.902   0.145  13.320 -0.2561 -0.0489 -0.1456
12177TIP3    H158022   0.845   0.201  13.267 -0.4553 -0.6691 -0.5897
12177TIP3    H258023   0.852   0.127  13.399 -1.1867 -1.5933 -1.0588
12178TIP3   OH258024   5.578   2.979  13.047 -0.2538 -0.1686  0.6756
12178TIP3    H158025   5.516   3.018  12.986 -0.2749 -1.0871  0.0769
12178TIP3    H258026   5.622   3.053  13.089 -2.0046  0.5162  1.3942
12179TIP3   OH258027   4.735   2.640  11.977 -0.0364 -0.2415 -0.2982
12179TIP3    H158028   4.718   2.605  11.889 -0.0080 -0.0015 -0.4027
12179TIP3    H258029   4.790   2.717  11.961 -0.6957  0.2750 -0.1339
12180TIP3   OH258030   1.537   2.067   0.585 -0.0739  0.4609  0.0858
12180TIP3    H158031   1.632   2.079   0.583 -0.0930  0.5937 -1.4410
12180TIP3    H258032   1.522   1.980   0.546 -0.6180  0.9718 -0.9103
12181TIP3   OH258033   5.218   1.276   1.203 -0.1962 -0.3104  0.4089
12181TIP3    H158034   5.220   1.302   1.295 -0.6336 -2.0413  0.9417
12181TIP3    H258035   5.151   1.331   1.164 -0.9170 -0.4373  1.4311
12182TIP3   OH258036   5.785   5.353  10.972 -0.2553 -0.2198 -0.4271
12182TIP3    H158037   5.758   5.288  11.038 -0.2817  0.0152 -0.2060
12182TIP3    H258038   5.869   5.319  10.939  0.3337  0.2393  0.5451
12183TIP3   OH258039   4.707   6.185   2.181 -0.0501  0.6825  0.3913
12183TIP3    H158040   4.747   6.115   2.131  1.4018  0.9692  1.1129
12183TIP3    H258041   4.640   6.142   2.235 -0.9410  0.2422 -1.0203
12184TIP3   OH258042   3.124   0.634   5.581  0.0939 -0.1564  0.3945
12184TIP3    H158043   3.184   0.695   5.538  0.9708  0.2662  2.1235
12184TIP3    H258044   3.102   0.676   5.664 -0.9435 -1.2756  0.7253
12185TIP3   OH258045   4.093   1.729   2.376 -0.3693 -0.4043 -0.0675
12185TIP3    H158046   4.101   1.646   2.424  0.0643 -0.9676 -1.0787
12185TIP3    H258047   3.999   1.739   2.362 -0.4777 -0.3810  0.6427
12186TIP3   OH258048   5.335   0.623  15.917 -0.1669  0.6281 -0.2368
12186TIP3    H158049   5.412   0.632  15.861  0.2793  2.0655  0.5579
12186TIP3    H258050   5.309   0.713  15.937 -2.8568  0.2419 -1.5213
12187TIP3   OH258051   4.351   4.221   1.392 -0.1883  0.0210  0.0780
12187TIP3    H158052   4.343   4.125   1.401 -1.1576 -0.2703 -2.9525
12187TIP3    H258053   4.411   4.234   1.320  0.0519  1.7529  0.5462
12188TIP3   OH258054   5.887   5.272  12.771  0.1511 -0.2342  0.3788
12188TIP3    H158055   5.969   5.267  12.820  0.4135  0.7850  0.0584
12188TIP3    H258056   5.849   5.184  12.780  1.6792 -0.9963 -0.1717
12189TIP3   OH258057   3.164   0.821  13.823 -0.5033  0.5715 -0.4990
12189TIP3    H158058   3.100   0.757  13.855  0.6459 -1.0728 -1.3344
12189TIP3    H258059   3.179   0.795  13.732  0.2291  1.8684 -0.7603
12190TIP3   OH258060   3.049   6.166   0.513 -0.5023 -0.0231  0.3180
12190TIP3    H158061   3.064   6.247   0.464 -1.7145 -0.1996 -0.3737
12190TIP3    H258062   3.097   6.179   0.595 -0.3997  1.2633  0.0750
12191TIP3   OH258063   1.976   0.695  12.221  0.1238  0.0246  0.9078
12191TIP3    H158064   1.990   0.674  12.313  2.0398 -0.5146  0.5296
12191TIP3    H258065   2.026   0.629  12.173 -0.8999  0.2446 -0.5382
12192TIP3   OH258066   3.317   3.391  14.724 -0.1292 -0.0006 -0.4600
12192TIP3    H158067   3.313   3.302  14.760  1.7839 -1.0570 -2.5816
12192TIP3    H258068   3.230   3.406  14.687 -1.6814  0.5671  3.0019
12193TIP3   OH258069   5.656   1.973  13.367  0.0753 -0.2914  0.4004
12193TIP3    H158070   5.658   2.068  13.381 -0.1802 -0.0076 -1.2497
12193TIP3    H258071   5.722   1.938  13.427 -0.7316  0.7765  1.9863
12194TIP3   OH258072   4.176   6.279   5.152  0.4266  0.0991 -0.1436
12194TIP3    H158073   4.177   6.297   5.058  0.7813  1.9249  0.1748
12194TIP3    H258074   4.092   6.313   5.182  0.1778 -0.7700  0.1553
12195TIP3   OH258075   1.136   4.768  13.178  0.3654  0.4582  0.1399
12195TIP3    H158076   1.183   4.774  13.262  0.4703  0.0586  0.1099
12195TIP3    H258077   1.083   4.847  13.175 -0.1859  0.1301  0.9166
12196TIP3   OH258078   6.473   3.585  16.344  0.6973  0.3644  0.5096
12196TIP3    H158079   6.471   3.673  16.382  1.5229  1.2185 -1.2878
12196TIP3    H258080   6.549   3.586  16.287 -0.2206 -0.9652 -0.8007
12197TIP3   OH258081   2.844   6.570   3.897  0.5262  0.0162  0.0419
12197TIP3    H158082   2.855   6.503   3.829 -1.1135  0.0710 -0.3353
12197TIP3    H258083   2.873   6.651   3.855 -0.1578 -0.0064 -0.4992
12198TIP3   OH258084   1.448   0.697   5.305  0.0564 -0.1574  0.1173
12198TIP3    H158085   1.541   0.675   5.304  0.3256  0.9267  0.1517
12198TIP3    H258086   1.437   0.758   5.232 -0.7376 -0.6784 -0.2111
12199TIP3   OH258087   4.788   3.085   3.461  0.2991  0.2835 -0.1566
12199TIP3    H158088   4.877   3.122   3.466  0.5121 -0.1202 -0.9675
12199TIP3    H258089   4.774   3.068   3.368 -1.4214  2.2551 -0.3372
12200TIP3   OH258090   0.432   1.597   3.760  0.4934  0.2530  0.6803
12200TIP3    H158091   0.455   1.558   3.675 -0.5804  0.2496  0.3794
12200TIP3    H258092   0.500   1.663   3.774 -0.1453  1.3077 -0.9053
12201TIP3   OH258093   4.057   3.042  13.981  0.2415 -0.2741  0.5379
12201TIP3    H158094   4.089   2.996  13.904  1.5228 -1.1320  1.5316
12201TIP3    H258095   4.136   3.081  14.020 -0.3553  0.0002  1.5020
12202TIP3   OH258096   0.638   0.662   5.552 -0.5611  0.0065  0.0774
12202TIP3    H158097   0.733   0.660   5.563 -0.6489  0.4352  0.9790
12202TIP3    H258098   0.615   0.755   5.550 -1.0431 -0.0831  0.7316
12203TIP3   OH258099   0.791   2.634   5.527 -0.5922  0.2446  0.2184
12203TIP3    H158100   0.838   2.696   5.472 -0.8949 -0.0795 -0.4180
12203TIP3    H258101   0.762   2.686   5.602  0.2360  0.5807  0.3098
12204TIP3   OH258102   3.625   5.265   3.503  0.5778  0.5779 -0.0520
12204TIP3    H158103   3.641   5.286   3.595  0.7214 -0.9846  0.3125
12204TIP3    H258104   3.533   5.239   3.500  1.3278 -2.4970  0.3513
12205TIP3   OH258105   0.186   2.510   3.135 -0.3873  0.0645  0.1221
12205TIP3    H158106   0.204   2.437   3.075 -0.9110  0.5438 -0.6403
12205TIP3    H258107   0.106   2.484   3.180 -0.9108  0.4285 -0.5882
12206TIP3   OH258108   5.206   6.286   4.300 -0.1254 -0.0938  0.3335
12206TIP3    H158109   5.148   6.234   4.244  0.2673 -0.6706  0.4608
12206TIP3    H258110   5.276   6.226   4.325  0.9110  0.7726 -0.3633
12207TIP3   OH258111   0.041   4.319   3.601  0.4058 -0.1858  0.0548
12207TIP3    H158112   0.050   4.262   3.525  0.3465 -0.1462  0.0181
12207TIP3    H258113  -0.050   4.307   3.630 -0.6890  2.3424 -1.9344
12208TIP3   OH258114   6.015   1.874   2.653  0.1551  0.4567  0.0440
12208TIP3    H158115   5.954   1.935   2.612 -0.2559 -0.5891 -0.9678
12208TIP3    H258116   6.064   1.837   2.580  0.6819 -0.1181  0.6743
12209TIP3   OH258117   6.041   1.424   4.904 -0.4475 -0.6946  0.5153
12209TIP3    H158118   6.019   1.443   4.995 -1.5045 -0.4039  0.2163
12209TIP3    H258119   6.134   1.443   4.897 -0.1972 -1.3964  1.7080
12210TIP3   OH258120   3.847   5.683   2.092 -0.0437  0.0968  0.1884
12210TIP3    H158121   3.789   5.737   2.038  0.3975 -0.5593 -0.9773
12210TIP3    H258122   3.873   5.611   2.034  1.9168  0.3605  0.6893
12211TIP3   OH258123   0.931   3.773  15.127 -0.4932  0.2523 -0.3210
12211TIP3    H158124   0.841   3.764  15.094 -0.4912 -0.6946 -0.1133
12211TIP3    H258125   0.967   3.847  15.079 -0.9099 -0.2778 -1.5038
12212TIP3   OH258126   4.221   5.128   2.152 -0.4077 -0.4605 -0.3576
12212TIP3    H158127   4.270   5.197   2.108 -1.6736 -0.0372 -1.1598
12212TIP3    H258128   4.256   5.047   2.116 -0.4465 -0.1582 -1.0860
12213TIP3   OH258129   3.855   3.089  16.150 -0.3652 -0.0030  0.2025
12213TIP3    H158130   3.824   3.017  16.095 -0.8157  0.7041 -0.4958
12213TIP3    H258131   3.831   3.168  16.101  1.0411  0.6059  0.4517
12214TIP3   OH258132   4.422   2.017   0.615  0.1395  0.3869  0.3261
12214TIP3    H158133   4.458   1.963   0.544 -0.2254  1.3585 -0.6416
12214TIP3    H258134   4.328   2.000   0.613  0.1101  0.5282  0.4855
12215TIP3   OH258135   2.389   2.794  12.540 -0.0379  0.5410  0.4100
12215TIP3    H158136   2.394   2.713  12.488 -0.2390  0.4909  0.4684
12215TIP3    H258137   2.429   2.861  12.484  1.4294  0.1289  0.9139
12216TIP3   OH258138   1.323   6.552   4.733 -0.0202  0.2849 -0.1536
12216TIP3    H158139   1.244   6.543   4.786  1.3455 -2.4674  1.6828
12216TIP3    H258140   1.293   6.541   4.643 -1.7548 -0.9712  0.5146
12217TIP3   OH258141   3.722   2.893  10.583  0.1448 -0.1274 -0.4854
12217TIP3    H158142   3.764   2.916  10.501  2.6960  0.3654  0.8556
12217TIP3    H258143   3.641   2.850  10.557  0.1013  1.3941 -3.1992
12218TIP3   OH258144   0.709   5.273   4.251  0.4420 -1.2629  0.0111
12218TIP3    H158145   0.639   5.213   4.275  0.4306 -1.4851 -0.5614
12218TIP3    H258146   0.684   5.307   4.166  0.2855 -0.1828  0.4714
12219TIP3   OH258147   0.307   6.746   5.340  0.0409 -0.1435 -0.5623
12219TIP3    H158148   0.265   6.730   5.255 -1.3164  0.0165  0.0552
12219TIP3    H258149   0.302   6.662   5.385 -2.8853  0.6672  0.8714
12220TIP3   OH258150   1.338   3.071   2.926  0.2665  0.4570  0.6813
12220TIP3    H158151   1.405   3.065   2.857  0.2790 -0.9534  0.7890
12220TIP3    H258152   1.375   3.133   2.989  0.3056  1.6837 -0.4987
12221TIP3   OH258153   6.207   6.733  11.849  0.4736 -0.0892  0.0946
12221TIP3    H158154   6.229   6.799  11.915  0.6570  0.0493 -0.1020
12221TIP3    H258155   6.132   6.769  11.803  0.6501  0.0394 -0.0937
12222TIP3   OH258156   2.064   6.526  14.186 -0.0363  0.1873 -0.6461
12222TIP3    H158157   2.039   6.438  14.155  0.1055 -0.2986  0.5732
12222TIP3    H258158   2.059   6.520  14.281  0.2478  1.4359 -0.5404
12223TIP3   OH258159   3.369   2.917   5.309 -1.1494  0.3264 -0.2661
12223TIP3    H158160   3.383   2.870   5.227 -0.5011  2.8900 -1.7557
12223TIP3    H258161   3.440   2.888   5.366 -1.2981 -1.1044 -0.7891
12224TIP3   OH258162   3.992   2.308   1.484 -0.1370  0.1410  0.2692
12224TIP3    H158163   3.922   2.372   1.499 -2.2681 -1.6823 -1.3406
12224TIP3    H258164   4.002   2.305   1.389  2.1601  0.2614  0.4316
12225TIP3   OH258165   3.486   6.387  11.461  0.4942 -0.1624  0.2498
12225TIP3    H158166   3.447   6.426  11.382 -0.2743 -0.7858  0.3064
12225TIP3    H258167   3.559   6.445  11.482  0.2097  0.4803 -0.4473
12226TIP3   OH258168   1.329   1.843   3.478 -0.2424 -0.0666  0.1329
12226TIP3    H158169   1.397   1.777   3.468 -0.5596 -0.3457 -0.1906
12226TIP3    H258170   1.253   1.795   3.512 -1.0941 -0.2637 -1.8971
12227TIP3   OH258171   4.472   3.646  13.341 -0.1904 -0.1139 -0.2546
12227TIP3    H158172   4.423   3.716  13.299 -0.8423  0.2751  1.0854
12227TIP3    H258173   4.405   3.594  13.387  0.2632 -1.6973 -1.3044
12228TIP3   OH258174   6.592   1.260  15.181  0.3174 -0.0024 -0.8423
12228TIP3    H158175   6.637   1.325  15.235  0.8172 -0.3435 -0.8332
12228TIP3    H258176   6.542   1.312  15.118 -2.4751  0.5040  1.5577
12229TIP3   OH258177   5.241   2.588  13.318 -0.4333 -0.1598 -0.0317
12229TIP3    H158178   5.182   2.662  13.312  0.1041  0.2138 -1.2420
12229TIP3    H258179   5.317   2.621  13.367 -2.0123 -1.2407  3.4007
12230TIP3   OH258180   4.559   2.583   5.746 -0.0649  0.6086  0.1953
12230TIP3    H158181   4.472   2.597   5.707 -0.0574  0.7041  0.2109
12230TIP3    H258182   4.606   2.530   5.682 -1.1684 -2.1641  1.5424
12231TIP3   OH258183   5.490   2.099  16.024 -0.2406  0.1645  0.1988
12231TIP3    H158184   5.443   2.180  16.004 -1.0309 -0.3516 -0.0864
12231TIP3    H258185   5.576   2.128  16.053 -0.3065  1.0902 -0.4779
12232TIP3   OH258186   2.887   1.448   2.149 -0.9059  0.0164 -0.1591
12232TIP3    H158187   2.809   1.454   2.093 -0.6307 -0.8806 -0.6503
12232TIP3    H258188   2.953   1.501   2.103 -0.8591 -0.2334 -0.3828
12233TIP3   OH258189   0.716   5.134   1.089  0.8857 -0.5326 -0.3603
12233TIP3    H158190   0.724   5.038   1.083  0.5215 -0.7720  1.8651
12233TIP3    H258191   0.692   5.162   1.001 -0.7730 -2.7248 -0.7040
12234TIP3   OH258192   3.222   3.723   5.731 -0.5876  0.0898  0.4475
12234TIP3    H158193   3.197   3.811   5.760 -0.7037  0.0070  0.6021
12234TIP3    H258194   3.192   3.665   5.801 -2.4987 -0.3019 -0.6013
12235TIP3   OH258195   5.959   5.221   2.348  0.0361 -0.8712 -0.2327
12235TIP3    H158196   5.959   5.267   2.264 -0.8083  1.5085  0.9870
12235TIP3    H258197   6.046   5.239   2.385 -0.2553 -0.3354  0.2001
12236TIP3   OH258198   6.595   0.863  16.778 -0.3971  1.0234  0.1437
12236TIP3    H158199   6.635   0.899  16.699  0.8293  0.5969  0.5487
12236TIP3    H258200   6.552   0.937  16.819 -1.0172  1.2574 -0.8985
12237TIP3   OH258201   0.601   0.193  15.906  0.2304  0.0305  0.0939
12237TIP3    H158202   0.527   0.243  15.940 -1.2325 -1.2627 -1.0733
12237TIP3    H258203   0.659   0.182  15.981  0.3316  2.8860  0.5587
12238TIP3   OH258204   5.014   1.248   2.822  0.3257 -0.4554  0.3642
12238TIP3    H158205   5.107   1.268   2.806 -0.4608  2.6399 -1.2773
12238TIP3    H258206   4.988   1.311   2.889 -1.0039  0.1732 -0.6906
12239TIP3   OH258207   3.191   6.211  12.906  0.6157 -0.1180 -0.5258
12239TIP3    H158208   3.109   6.231  12.952 -0.2545 -2.2114 -1.0218
12239TIP3    H258209   3.213   6.291  12.859 -3.0376 -0.3241 -3.0772
12240TIP3   OH258210   2.841   0.665  10.574  0.5082 -0.1076  0.3451
12240TIP3    H158211   2.830   0.577  10.612  0.3676  0.2974  1.2784
12240TIP3    H258212   2.933   0.667  10.546  0.5377 -0.5186  0.4008
12241TIP3   OH258213   6.747   2.954  17.140 -0.3946 -0.0093 -0.2148
12241TIP3    H158214   6.822   2.913  17.185 -0.7998  0.3382  0.8130
12241TIP3    H258215   6.752   3.046  17.165 -2.3423 -0.3114  1.6588
12242TIP3   OH258216   1.625   6.781  15.676 -0.3646 -0.0210 -0.4554
12242TIP3    H158217   1.580   6.865  15.666 -2.1334 -0.7637  0.6515
12242TIP3    H258218   1.554   6.717  15.677  0.6166 -1.1937  2.1614
12243TIP3   OH258219   6.130   0.293  16.918 -0.1040 -0.0179  0.3313
12243TIP3    H158220   6.128   0.319  16.826 -1.5354 -0.9534  0.0622
12243TIP3    H258221   6.217   0.318  16.948 -0.1277  1.6621 -0.8661
12244TIP3   OH258222   1.294   6.315   0.677 -0.0531  0.1675  0.5599
12244TIP3    H158223   1.213   6.309   0.626  1.6001 -1.5702 -2.1409
12244TIP3    H258224   1.277   6.266   0.757 -1.1567 -1.6721 -0.7439
12245TIP3   OH258225   2.306   5.867  16.341  0.1912  0.4270  0.4197
12245TIP3    H158226   2.342   5.795  16.393  1.4892 -0.4672 -1.5785
12245TIP3    H258227   2.297   5.939  16.403  3.5160  0.0483  1.5488
12246TIP3   OH258228   2.226   6.479   2.814  0.3101  0.6119 -0.2536
12246TIP3    H158229   2.288   6.446   2.748  1.7577 -0.1040  1.3898
12246TIP3    H258230   2.261   6.564   2.839  0.6609  0.1968  0.6928
12247TIP3   OH258231   1.494   1.241   4.009  0.4857  0.1396  0.4842
12247TIP3    H158232   1.519   1.159   4.052  2.2408  0.0534 -0.6159
12247TIP3    H258233   1.403   1.226   3.980  0.9932 -1.6950 -0.2986
12248TIP3   OH258234   4.279   3.942  11.689  0.0925 -0.1842 -0.0638
12248TIP3    H158235   4.289   3.976  11.778  0.7870  0.9770 -0.5687
12248TIP3    H258236   4.272   4.019  11.634  1.7346 -0.8226 -1.2413
12249TIP3   OH258237   6.303   6.201   3.105  0.4578  0.1542 -0.7609
12249TIP3    H158238   6.304   6.297   3.106  0.4326  0.1603 -1.1678
12249TIP3    H258239   6.365   6.175   3.173 -0.3094  0.4564  0.0686
12250TIP3   OH258240   4.948   2.423   0.051 -0.4789  0.5109 -0.2044
12250TIP3    H158241   4.995   2.506   0.058  0.1196  0.0346  2.0044
12250TIP3    H258242   4.982   2.369   0.123 -0.7045 -1.7475 -1.6927
12251TIP3   OH258243   4.413   6.407  12.081 -0.6289  0.2832  0.1786
12251TIP3    H158244   4.333   6.355  12.084 -0.8398  0.6546  2.0300
12251TIP3    H258245   4.475   6.359  12.137  0.9100 -0.6646 -2.1703
12252TIP3   OH258246   3.379   1.878  15.627  0.2219 -0.3637 -0.7016
12252TIP3    H158247   3.470   1.906  15.617  0.1020 -0.1967 -1.3562
12252TIP3    H258248   3.328   1.958  15.613  0.0208 -0.1075  1.2092
12253TIP3   OH258249   1.096   2.706   1.216 -0.3421  0.4602  0.0008
12253TIP3    H158250   1.075   2.699   1.123 -0.0451 -0.8410  0.0176
12253TIP3    H258251   1.128   2.619   1.240 -1.0424  0.5829  1.4729
12254TIP3   OH258252   2.161   5.113  11.178 -0.5375 -0.8271  0.1908
12254TIP3    H158253   2.135   5.093  11.088  1.8728 -2.2006 -0.2897
12254TIP3    H258254   2.173   5.208  11.179  0.4917 -0.9102 -1.3068
12255TIP3   OH258255   4.727   3.410   1.126 -0.6521 -0.0637 -0.7002
12255TIP3    H158256   4.690   3.322   1.136 -0.6514  0.0114 -0.0548
12255TIP3    H258257   4.663   3.457   1.072 -0.4009 -0.6109 -1.5090
12256TIP3   OH258258   1.841   3.612  16.829 -0.1099 -0.1081  0.4126
12256TIP3    H158259   1.827   3.568  16.912 -0.7261  0.3523  0.5578
12256TIP3    H258260   1.879   3.545  16.772  1.1306 -0.1861  1.3087
12257TIP3   OH258261   4.423   0.286   4.494  0.0973  0.1489 -0.2577
12257TIP3    H158262   4.430   0.216   4.428  0.2715  0.3519 -0.4577
12257TIP3    H258263   4.330   0.290   4.515  0.2831 -1.3365  1.0595
12258TIP3   OH258264   3.963   2.567  14.091 -0.1834 -0.2285 -0.3104
12258TIP3    H158265   3.950   2.533  14.003  0.3899 -1.6598  0.1234
12258TIP3    H258266   4.051   2.538  14.115 -0.9046 -1.2511  1.3104
12259TIP3   OH258267   2.027   0.022  16.008  0.4715  0.9772  0.2309
12259TIP3    H158268   1.983  -0.021  15.934  0.0140  0.0470  1.0161
12259TIP3    H258269   2.041  -0.049  16.071 -1.3161  2.1464  2.0636
12260TIP3   OH258270   6.805   0.649  16.838  0.9653  0.4472  0.2865
12260TIP3    H158271   6.839   0.601  16.913 -0.9785  2.3996  2.6030
12260TIP3    H258272   6.832   0.739  16.853 -0.3181  1.0454 -0.7957
12261TIP3   OH258273   6.355   3.545   4.856 -0.1035 -0.1026 -0.1642
12261TIP3    H158274   6.342   3.635   4.827  2.1957  0.0649 -0.8483
12261TIP3    H258275   6.356   3.550   4.951  0.7581  0.7287 -0.2083
12262TIP3   OH258276   2.998   5.843  11.895 -0.5255 -0.1248  0.4477
12262TIP3    H158277   3.067   5.882  11.949 -0.6924 -1.1181  1.4216
12262TIP3    H258278   3.009   5.884  11.809  0.0590  1.1327  1.0947
12263TIP3   OH258279   5.143   3.696  12.626  0.1078 -0.0802  0.2877
12263TIP3    H158280   5.154   3.730  12.538 -0.8997 -2.7316 -0.9507
12263TIP3    H258281   5.107   3.769  12.676 -0.0912  1.2332 -1.6770
12264TIP3   OH258282   1.107   6.766   5.697 -0.5578  0.1717 -0.1876
12264TIP3    H158283   1.019   6.802   5.703 -0.4311  0.6996 -1.3049
12264TIP3    H258284   1.145   6.780   5.784 -1.2591  0.7782  0.0260
12265TIP3   OH258285   1.118   2.565  16.753 -0.0457  0.1401 -0.9993
12265TIP3    H158286   1.182   2.538  16.818 -0.8541  0.9261  0.1774
12265TIP3    H258287   1.160   2.637  16.706  0.3948 -0.1544 -1.0564
12266TIP3   OH258288   0.382   2.910   0.957 -0.7450  0.5624 -0.5784
12266TIP3    H158289   0.453   2.920   1.020 -0.1921 -2.3549 -0.5960
12266TIP3    H258290   0.315   2.860   1.003 -0.2087 -1.8880 -2.2499
12267TIP3   OH258291   0.039   0.157  13.771  0.0171 -0.5462  0.0090
12267TIP3    H158292   0.032   0.062  13.782  0.5790 -0.8278 -1.6528
12267TIP3    H258293   0.106   0.168  13.703 -0.0854  1.0432  0.1263
12268TIP3   OH258294   3.834   6.605  13.331 -0.3713 -0.0516 -0.4459
12268TIP3    H158295   3.887   6.628  13.407  0.7485 -0.6407 -1.0402
12268TIP3    H258296   3.801   6.517  13.350  0.3988 -0.4438 -0.8951
12269TIP3   OH258297   6.744   2.226  10.859  0.2942  0.6157  0.0404
12269TIP3    H158298   6.777   2.308  10.894  0.5643  0.5351 -0.0278
12269TIP3    H258299   6.677   2.253  10.795  1.8930  0.8702 -1.5906
12270TIP3   OH258300   6.394   6.506  11.970  0.0967  0.3543  0.0671
12270TIP3    H158301   6.347   6.422  11.975  0.9283 -0.2422 -1.3472
12270TIP3    H258302   6.384   6.544  12.057 -0.4919 -1.1188  0.6872
12271TIP3   OH258303   5.874   5.240   5.289  0.2231 -0.3985 -0.1634
12271TIP3    H158304   5.822   5.274   5.217  2.7346 -0.6003 -2.1863
12271TIP3    H258305   5.930   5.313   5.315 -0.3134 -0.4774  1.3218
12272TIP3   OH258306   2.611   1.247  16.781  0.1171 -0.2231  0.2013
12272TIP3    H158307   2.582   1.329  16.821  1.4471  0.0312  0.7141
12272TIP3    H258308   2.531   1.197  16.766 -0.5895  0.5578  1.2664
12273TIP3   OH258309   5.740   4.366  15.689 -0.2800  0.6581 -0.0003
12273TIP3    H158310   5.798   4.386  15.615  2.1524  0.2498  1.6785
12273TIP3    H258311   5.695   4.286  15.664 -0.0367  0.9122 -1.3178
12274TIP3   OH258312   2.822   3.283  16.447 -0.8518 -0.1143  0.0434
12274TIP3    H158313   2.851   3.297  16.537  2.6616 -2.4599 -0.5161
12274TIP3    H258314   2.731   3.252  16.456 -0.8878  0.4699  2.6649
12275TIP3   OH258315   2.894   3.423  13.035  0.1453  0.2713 -0.1405
12275TIP3    H158316   2.963   3.361  13.012 -0.2484 -0.4117  0.4512
12275TIP3    H258317   2.937   3.508  13.036  0.9735 -0.1380  0.1737
12276TIP3   OH258318   6.694   0.151  11.890  0.1276  0.4249  0.4207
12276TIP3    H158319   6.771   0.095  11.876 -0.0668  0.1816  0.3145
12276TIP3    H258320   6.683   0.152  11.985  1.3885  2.0013  0.5875
12277TIP3   OH258321   4.986   1.288   0.588 -0.2015  0.0642  0.3994
12277TIP3    H158322   4.901   1.331   0.592  0.6500  2.2349 -1.9287
12277TIP3    H258323   5.046   1.350   0.631  0.3579 -1.0359  1.2447
12278TIP3   OH258324   4.578   4.414  11.904  0.3088  0.5678 -1.0090
12278TIP3    H158325   4.551   4.468  11.978 -1.7876  2.0953 -2.7335
12278TIP3    H258326   4.548   4.326  11.925 -2.2472  1.3959 -0.8992
12279TIP3   OH258327   4.278   3.761  11.337  0.4976  0.4573  0.4357
12279TIP3    H158328   4.270   3.695  11.405  1.3942  0.6445  0.7323
12279TIP3    H258329   4.189   3.769  11.301 -0.0497  0.5494  1.7475
12280TIP3   OH258330   2.360   2.938  15.072  0.3028  0.1728  0.2995
12280TIP3    H158331   2.285   2.934  15.013  0.5854 -3.6086 -0.0467
12280TIP3    H258332   2.321   2.950  15.159 -0.5120  0.4283 -0.0861
12281TIP3   OH258333   5.875   6.388  11.874 -0.0207  0.4500 -0.2199
12281TIP3    H158334   5.889   6.469  11.923  0.6357  1.9524 -2.7196
12281TIP3    H258335   5.781   6.372  11.881 -0.0474  0.9893  0.9336
12282TIP3   OH258336   2.911   0.072   3.331 -0.0750 -0.3968 -0.6270
12282TIP3    H158337   2.863   0.084   3.249  0.9832  0.7038 -1.1108
12282TIP3    H258338   2.983   0.013   3.309  1.7123  1.8448 -1.1839
12283TIP3   OH258339   6.638   0.439   0.678 -0.1845  0.0957 -0.5435
12283TIP3    H158340   6.544   0.427   0.664 -0.2355 -1.7005  0.9832
12283TIP3    H258341   6.647   0.531   0.702 -1.6738  0.1140  0.0626
12284TIP3   OH258342   3.008   6.641  12.593 -0.1061  0.8469 -0.0114
12284TIP3    H158343   2.947   6.572  12.567  0.2347  0.4702  0.1831
12284TIP3    H258344   3.013   6.698  12.516  0.0032  0.3767 -0.3622
12285TIP3   OH258345   1.947   6.796   4.495  0.2535 -0.0368  0.1055
12285TIP3    H158346   1.877   6.785   4.559 -0.3623  1.0719 -0.3513
12285TIP3    H258347   2.017   6.738   4.526 -0.2705  0.0004  1.4223
12286TIP3   OH258348   0.835   6.380  13.771  0.6012 -0.2436 -0.0554
12286TIP3    H158349   0.904   6.363  13.835  1.5749  0.9230 -0.7512
12286TIP3    H258350   0.754   6.379  13.822  1.1746 -1.0474  0.8769
12287TIP3   OH258351   5.522   3.954  13.194 -0.0637  0.0807 -0.1774
12287TIP3    H158352   5.489   4.035  13.234  0.6035  0.5253 -0.4998
12287TIP3    H258353   5.565   3.983  13.113 -0.8387 -0.7343 -0.9030
12288TIP3   OH258354   2.616   4.744  16.895 -0.5559 -0.1666  0.7752
12288TIP3    H158355   2.595   4.773  16.806  1.3706  2.1542  0.9888
12288TIP3    H258356   2.688   4.682  16.884 -0.7294 -0.3506  0.6774
12289TIP3   OH258357   2.019   4.857  10.775  0.0614 -0.0035 -0.4731
12289TIP3    H158358   1.961   4.904  10.715 -2.6299 -1.5378  0.7347
12289TIP3    H258359   2.034   4.773  10.732 -1.9280 -1.1331  0.8927
12290TIP3   OH258360   4.242   5.353  13.165  0.1506 -0.1407  0.6256
12290TIP3    H158361   4.268   5.282  13.106  0.5128  1.0355 -0.6901
12290TIP3    H258362   4.170   5.317  13.216 -0.3118 -1.1535 -0.6948
12291TIP3   OH258363   1.333   3.044  12.641  0.4582  0.0074 -0.3207
12291TIP3    H158364   1.275   2.969  12.654 -0.9904  0.8910 -1.3479
12291TIP3    H258365   1.294   3.092  12.568  0.5074  2.5223  1.1893
12292TIP3   OH258366   4.024   0.511   4.989  0.4282  0.2578  1.0733
12292TIP3    H158367   4.052   0.575   5.054  1.7710 -0.2130  0.9850
12292TIP3    H258368   4.083   0.437   5.001  0.5398  0.0476 -0.4936
12293TIP3   OH258369   3.434   1.990   0.505  0.3613  0.4064  0.2897
12293TIP3    H158370   3.400   1.940   0.579  0.7034  0.2645  0.3511
12293TIP3    H258371   3.418   1.933   0.429 -1.3113  1.1384  0.0292
12294TIP3   OH258372   0.315   2.377  15.440 -0.4783  1.2682  0.3203
12294TIP3    H158373   0.391   2.429  15.464 -0.5533  1.1176  0.8983
12294TIP3    H258374   0.269   2.361  15.523 -1.2719  1.5721 -0.0523
12295TIP3   OH258375   1.795   6.113  15.792  0.2554  0.1022  0.3130
12295TIP3    H158376   1.724   6.051  15.811  1.4072 -1.0439  1.0795
12295TIP3    H258377   1.778   6.142  15.703 -1.2547 -0.0200  0.5311
12296TIP3   OH258378   3.325   6.188  13.978  0.2573 -0.1017  0.0249
12296TIP3    H158379   3.329   6.279  14.008 -1.3307 -0.2231  0.7249
12296TIP3    H258380   3.288   6.194  13.890 -1.8003 -0.1469  0.8336
12297TIP3   OH258381   4.011   0.213   4.009 -0.6250  0.3029 -0.2361
12297TIP3    H158382   4.051   0.244   4.090  3.5732  0.7418 -2.2074
12297TIP3    H258383   4.011   0.117   4.017 -0.0234  0.3382  0.2149
12298TIP3   OH258384   3.158   4.002   3.924 -0.8487 -0.3334  0.3597
12298TIP3    H158385   3.109   4.083   3.935 -1.0163 -0.1679 -1.3062
12298TIP3    H258386   3.106   3.936   3.968 -2.4918 -0.1106 -1.1529
12299TIP3   OH258387   4.370   6.431  15.088  0.2914  0.1416  0.4323
12299TIP3    H158388   4.350   6.383  15.168  0.2558  0.7783  0.8115
12299TIP3    H258389   4.400   6.364  15.027 -0.4498 -0.4589  0.7127
12300TIP3   OH258390   2.403   2.328  12.288 -0.0539  0.4370 -0.4078
12300TIP3    H158391   2.470   2.262  12.271 -1.1277 -1.3840  1.9439
12300TIP3    H258392   2.335   2.310  12.223  1.1440  1.5709 -2.0609
12301TIP3   OH258393   1.229   6.771  16.658 -0.4749 -0.2418  0.7161
12301TIP3    H158394   1.170   6.836  16.620 -0.3119 -1.3437 -1.5983
12301TIP3    H258395   1.173   6.715  16.711 -1.2762 -0.4088 -0.2776
12302TIP3   OH258396   1.072   1.753   1.468  0.6148 -0.1884  0.1711
12302TIP3    H158397   1.054   1.659   1.467  0.3194 -0.1611  1.4095
12302TIP3    H258398   1.056   1.781   1.378  0.3975 -1.2625 -0.1415
12303TIP3   OH258399   5.562   6.564  11.711  0.7738  0.1602 -0.0200
12303TIP3    H158400   5.551   6.500  11.641  0.8115 -0.5049  0.5769
12303TIP3    H258401   5.581   6.512  11.789 -0.5187  0.7978  0.7580
12304TIP3   OH258402   4.714   3.766  14.277  0.5588 -0.2539  0.8306
12304TIP3    H158403   4.760   3.692  14.236  1.6037  0.5805  0.4735
12304TIP3    H258404   4.774   3.799  14.343 -0.7757 -1.0511  2.5406
12305TIP3   OH258405   6.795   4.250   2.326  0.3235 -0.0819  0.5468
12305TIP3    H158406   6.738   4.292   2.389 -0.8895  1.8592 -1.6959
12305TIP3    H258407   6.803   4.313   2.254  1.6805 -2.1212 -1.2294
12306TIP3   OH258408   0.778   3.585  14.857  0.3258  0.3358  0.5230
12306TIP3    H158409   0.821   3.548  14.935  0.5952 -0.2251  0.1135
12306TIP3    H258410   0.837   3.656  14.829 -0.3471  1.3224  1.4915
12307TIP3   OH258411   3.205   3.121  13.221  0.1602 -0.0607 -0.1129
12307TIP3    H158412   3.124   3.119  13.169 -0.0682  0.8764  0.1939
12307TIP3    H258413   3.271   3.153  13.160  0.2216 -0.4272 -0.2452
12308TIP3   OH258414   3.855   4.094   4.458  0.2429  0.7560  0.7139
12308TIP3    H158415   3.773   4.117   4.414  0.3851 -0.1933 -0.0761
12308TIP3    H258416   3.837   4.010   4.500  1.5274 -0.7673 -1.6139
12309TIP3   OH258417   0.417   5.063  11.783 -0.3397 -0.3743 -0.0915
12309TIP3    H158418   0.499   5.110  11.769 -0.3229 -0.9521 -2.2257
12309TIP3    H258419   0.352   5.131  11.798 -0.0119  0.2706 -1.4980
12310TIP3   OH258420   2.188   6.129   5.976 -0.0389 -0.4344 -0.4399
12310TIP3    H158421   2.143   6.174   6.047  1.2059 -0.2464  0.2529
12310TIP3    H258422   2.204   6.196   5.911 -1.1445 -0.5977 -0.9001
12311TIP3   OH258423   4.556   4.266  14.161  0.6859 -0.5494  0.3392
12311TIP3    H158424   4.486   4.201  14.166 -0.1551  0.3985  1.4478
12311TIP3    H258425   4.572   4.291  14.252  2.9590 -1.2110  0.1957
12312TIP3   OH258426   2.216   2.802  14.777 -0.4006 -0.2006  0.0640
12312TIP3    H158427   2.221   2.707  14.777  1.3013 -0.1307 -0.3310
12312TIP3    H258428   2.278   2.830  14.709 -1.3392  1.1739 -0.2835
12313TIP3   OH258429   6.580   1.797  15.518 -0.1542 -0.2334 -0.2925
12313TIP3    H158430   6.631   1.739  15.462  0.3055  0.3576 -0.5074
12313TIP3    H258431   6.549   1.741  15.589  1.1164 -0.5476  0.0532
12314TIP3   OH258432   4.135   3.259   4.723 -0.1364  0.2828  0.5676
12314TIP3    H158433   4.209   3.200   4.739  1.0391  1.5805  0.1663
12314TIP3    H258434   4.158   3.340   4.768 -0.6430  1.1869 -0.7180
12315TIP3   OH258435   5.542   0.601  11.228 -0.2057  0.5666 -0.5171
12315TIP3    H158436   5.499   0.543  11.165  2.2619  0.2631 -2.0452
12315TIP3    H258437   5.470   0.644  11.274 -2.1015 -0.7259 -2.1123
12316TIP3   OH258438   6.079   5.398   3.850 -0.0296  0.3838 -0.2123
12316TIP3    H158439   6.157   5.427   3.897 -0.4013 -0.6332  1.0853
12316TIP3    H258440   6.010   5.397   3.917 -1.2011  1.3635 -1.3427
12317TIP3   OH258441   4.882   4.985   3.966  0.0531  0.2981  0.1288
12317TIP3    H158442   4.795   4.945   3.962  0.3737 -0.5835  1.2789
12317TIP3    H258443   4.919   4.971   3.879 -1.1397  1.1754 -0.5510
12318TIP3   OH258444   5.089   6.654   5.512  0.5628  0.6289 -0.2486
12318TIP3    H158445   5.112   6.564   5.535  0.0217  0.7332  0.7757
12318TIP3    H258446   5.017   6.645   5.449  1.3915  0.3415 -1.1692
12319TIP3   OH258447   3.631   3.300  17.108  0.3830  0.1159  0.2771
12319TIP3    H158448   3.724   3.309  17.127  0.2528  0.5396  0.7157
12319TIP3    H258449   3.592   3.271  17.190  0.1045  0.0625  0.1303
12320TIP3   OH258450   1.337   5.959  15.547 -0.5055 -0.4051  0.1178
12320TIP3    H158451   1.381   5.888  15.594 -1.2975 -0.8651  0.1834
12320TIP3    H258452   1.287   6.005  15.615 -1.7273 -1.1304 -0.2814
12321TIP3   OH258453   0.649   1.317   3.810 -0.0799  0.1551 -0.2034
12321TIP3    H158454   0.709   1.357   3.873  1.3809  0.5191 -1.7433
12321TIP3    H258455   0.674   1.356   3.726 -0.4208 -1.9977 -1.3631
12322TIP3   OH258456   3.645   5.106  14.441  0.0060 -0.0571 -0.9608
12322TIP3    H158457   3.736   5.079  14.451  0.2153  0.3800 -1.6799
12322TIP3    H258458   3.604   5.036  14.391 -0.2476 -0.6319  0.0291
12323TIP3   OH258459   3.730   3.035   2.171 -0.2769 -0.4719  0.4388
12323TIP3    H158460   3.664   2.986   2.221  0.1514 -1.9508 -0.3983
12323TIP3    H258461   3.812   3.017   2.216 -0.4580  2.0324  1.9752
12324TIP3   OH258462   1.722   5.902   0.453  0.0301 -0.3648 -0.9044
12324TIP3    H158463   1.659   5.834   0.477 -1.2802  0.6336 -1.4184
12324TIP3    H258464   1.767   5.924   0.535 -2.2109  0.8210  0.0874
12325TIP3   OH258465   2.892   2.392   3.665 -0.5235 -0.1860 -0.2473
12325TIP3    H158466   2.925   2.415   3.578  0.4366  1.2358  0.4596
12325TIP3    H258467   2.837   2.315   3.650  0.0797 -0.3184 -2.0257
12326TIP3   OH258468   3.777   0.982   3.741  0.1436 -0.8479  0.4666
12326TIP3    H158469   3.700   1.026   3.776  0.6954  0.4388  0.1265
12326TIP3    H258470   3.777   0.896   3.782 -1.4879 -0.8869  0.4348
12327TIP3   OH258471   1.933   3.218   2.412 -0.2119 -0.1155  0.1459
12327TIP3    H158472   2.014   3.196   2.458 -0.4104  0.9281  1.0454
12327TIP3    H258473   1.924   3.150   2.345  0.8999 -0.7916  0.6506
12328TIP3   OH258474   4.656   1.783  11.425  0.4634  0.0738  0.3524
12328TIP3    H158475   4.564   1.798  11.444  0.3902  1.5907 -1.0029
12328TIP3    H258476   4.698   1.868  11.441  1.6764 -0.6361  1.1085
12329TIP3   OH258477   5.137   5.664   1.616  0.5719  1.2715 -0.0514
12329TIP3    H158478   5.211   5.683   1.673 -0.5061 -1.7928  2.7387
12329TIP3    H258479   5.147   5.572   1.594 -0.8861  1.5388 -2.1259
12330TIP3   OH258480   2.040   1.261  14.494  0.0000 -0.0292  0.0115
12330TIP3    H158481   2.016   1.258  14.587  0.7001  0.7634  0.2351
12330TIP3    H258482   2.135   1.246  14.493 -0.4701 -3.7722 -0.9084
12331TIP3   OH258483   2.394   4.791  11.915  0.3199  0.4100 -0.0771
12331TIP3    H158484   2.398   4.723  11.983 -0.6917  0.2071 -0.2155
12331TIP3    H258485   2.462   4.853  11.941  2.0074 -1.1368 -0.5050
12332TIP3   OH258486   2.941   2.564   5.574  0.2702 -0.7040  0.3190
12332TIP3    H158487   2.941   2.658   5.591 -1.0720 -0.8126  1.1297
12332TIP3    H258488   3.022   2.532   5.614  1.0607  0.1854 -0.5453
12333TIP3   OH258489   5.448   1.789   6.683 -0.4022  0.0691  0.0054
12333TIP3    H158490   5.352   1.790   6.678 -0.4134  1.3486  0.0512
12333TIP3    H258491   5.470   1.874   6.722  0.7457 -0.2735  0.1281
12334TIP3   OH258492   6.715   3.171  14.081 -0.5711  0.8528  0.2878
12334TIP3    H158493   6.677   3.083  14.084  0.8219  0.2452  0.7239
12334TIP3    H258494   6.763   3.179  14.163  0.3888  1.5205 -0.3183
12335TIP3   OH258495   6.792   4.687   0.014  0.2940 -0.0219 -0.0929
12335TIP3    H158496   6.699   4.709   0.008 -0.0416 -0.8107  1.5165
12335TIP3    H258497   6.837   4.765  -0.018 -0.9155  0.2261 -1.2763
12336TIP3   OH258498   3.412   0.144   1.474  0.4119  0.1247 -0.1004
12336TIP3    H158499   3.347   0.184   1.531  1.0136 -0.1422  0.7897
12336TIP3    H258500   3.393   0.050   1.477 -0.0926  0.1813 -1.0405
12337TIP3   OH258501   4.367   6.573  15.918  0.7490 -0.3752  0.3791
12337TIP3    H158502   4.439   6.536  15.867  0.1744 -0.1358 -0.6330
12337TIP3    H258503   4.372   6.529  16.002  1.0117 -1.6415 -0.2698
12338TIP3   OH258504   0.756   2.396  12.120 -0.3150 -0.3057  0.1474
12338TIP3    H158505   0.690   2.330  12.100 -1.4796  0.5779  0.9720
12338TIP3    H258506   0.707   2.475  12.142  1.0219  0.5296  0.2941
12339TIP3   OH258507   0.464   0.083  12.865  0.1330 -0.5097  0.0299
12339TIP3    H158508   0.461  -0.011  12.886 -0.2373 -0.5187 -0.0656
12339TIP3    H258509   0.416   0.125  12.936  0.4122 -0.3783  0.1426
12340TIP3   OH258510   1.112   4.197   5.230  0.5613  0.3439 -0.3980
12340TIP3    H158511   1.148   4.129   5.173 -2.7153 -0.6151 -1.5073
12340TIP3    H258512   1.119   4.161   5.318  1.1201 -0.3163 -0.6975
12341TIP3   OH258513   5.901   3.429   0.452 -0.0193 -0.4236  0.2792
12341TIP3    H158514   5.943   3.498   0.504 -0.0111 -1.0373  1.1050
12341TIP3    H258515   5.971   3.366   0.435 -0.4636 -1.1835  1.1962
12342TIP3   OH258516   0.301   4.304  11.977 -0.5689 -0.1636 -0.3633
12342TIP3    H158517   0.306   4.307  11.881 -2.9841 -0.8800 -0.5606
12342TIP3    H258518   0.389   4.329  12.006 -0.0134  0.9006 -2.7380
12343TIP3   OH258519   3.040   6.197   4.671  0.4290  0.4697 -0.1358
12343TIP3    H158520   3.077   6.272   4.719 -0.0310  0.6620 -0.0731
12343TIP3    H258521   2.971   6.165   4.729 -0.1040  0.6784 -0.6538
12344TIP3   OH258522   5.348   0.781  14.551  0.1953 -0.4211  0.1658
12344TIP3    H158523   5.263   0.823  14.538  0.7339  0.0001 -2.9297
12344TIP3    H258524   5.412   0.852  14.543  0.9682 -1.2505 -1.7527
12345TIP3   OH258525   5.971   5.104  16.903  0.0747 -0.4427  0.0116
12345TIP3    H158526   6.049   5.151  16.934  0.3906 -0.0138 -1.3697
12345TIP3    H258527   6.002   5.015  16.886 -0.1061 -0.6862  0.9336
12346TIP3   OH258528   1.295   0.681  13.527  0.2351  0.3223 -0.2291
12346TIP3    H158529   1.271   0.676  13.434 -4.7970 -0.4678  0.8116
12346TIP3    H258530   1.301   0.775  13.545  2.7759  0.4877 -1.5252
12347TIP3   OH258531   0.777   1.209   0.424  0.3236 -0.1168  0.5388
12347TIP3    H158532   0.705   1.211   0.360  2.3377 -1.7552 -2.0056
12347TIP3    H258533   0.784   1.299   0.455 -1.0355  0.6800 -1.2571
12348TIP3   OH258534   4.499   4.749  16.026  0.1018  0.0530  0.6071
12348TIP3    H158535   4.572   4.714  15.975 -1.0550 -1.1256 -0.3226
12348TIP3    H258536   4.474   4.829  15.979 -1.3152 -1.3091 -1.1355
12349TIP3   OH258537   3.715   5.800  16.096 -0.3778 -0.6222 -0.6465
12349TIP3    H158538   3.685   5.783  16.006  1.0485 -0.5642 -1.1721
12349TIP3    H258539   3.762   5.720  16.120  1.1142  0.1677 -0.8048
12350TIP3   OH258540   0.419   0.398   2.051 -0.3208  0.4152  0.4097
12350TIP3    H158541   0.349   0.361   1.997 -0.7155  0.3728  0.9388
12350TIP3    H258542   0.477   0.324   2.071 -1.8272 -0.2876  2.5962
12351TIP3   OH258543   3.606   0.189  13.566  0.3503  0.1345  0.5267
12351TIP3    H158544   3.669   0.214  13.499 -1.3550  1.5514 -0.6291
12351TIP3    H258545   3.528   0.242  13.548 -0.3986  0.1522  3.2756
12352TIP3   OH258546   4.212   1.817   2.158  0.0652  0.1639  0.0761
12352TIP3    H158547   4.297   1.777   2.176 -0.3768 -1.4141 -1.1138
12352TIP3    H258548   4.157   1.792   2.232  0.5605  0.9896  0.7324
12353TIP3   OH258549   5.973   4.775  13.395  0.4594  0.3725 -0.5648
12353TIP3    H158550   6.060   4.736  13.400  0.0656 -0.4674 -0.1748
12353TIP3    H258551   5.990   4.868  13.379  1.4065  0.0643 -1.4697
12354TIP3   OH258552   1.216   5.673  16.768 -0.3587  0.0702 -0.3820
12354TIP3    H158553   1.191   5.628  16.687 -0.5161 -4.2488  1.7806
12354TIP3    H258554   1.140   5.664  16.825  1.3796 -1.5792  1.8731
12355TIP3   OH258555   6.740   0.668  11.336 -0.2591 -0.0642 -0.0133
12355TIP3    H158556   6.727   0.757  11.369 -1.1039  0.5706 -1.9417
12355TIP3    H258557   6.693   0.612  11.397  0.1384  0.8103  1.1295
12356TIP3   OH258558   1.236   1.891   3.154  0.2221  0.3565 -0.0328
12356TIP3    H158559   1.286   1.955   3.104 -0.0681 -0.4125 -1.3389
12356TIP3    H258560   1.215   1.936   3.236  1.5173  1.3022 -0.1906
12357TIP3   OH258561   6.006   2.291  13.998  0.2255 -0.1960 -0.6101
12357TIP3    H158562   5.923   2.245  13.991  1.0633 -1.7741 -0.5449
12357TIP3    H258563   6.052   2.272  13.916  1.8757 -2.1706  0.6868
12358TIP3   OH258564   5.035   3.509   4.339 -0.1027 -0.3040  0.1200
12358TIP3    H158565   5.106   3.538   4.282  0.0831 -1.1443 -0.0807
12358TIP3    H258566   5.079   3.475   4.417 -0.2957 -0.5163  0.1377
12359TIP3   OH258567   2.765   1.925  16.189  0.2091  0.4858 -0.4525
12359TIP3    H158568   2.699   1.960  16.130 -0.3642 -0.7113 -0.5447
12359TIP3    H258569   2.760   1.830  16.178 -0.0361  0.2020  1.6421
12360TIP3   OH258570   3.259   5.014   2.598  0.5991 -0.1217  0.0626
12360TIP3    H158571   3.297   4.931   2.571  3.0623  0.8662  0.2015
12360TIP3    H258572   3.270   5.071   2.522  0.5005  0.5525  0.5487
12361TIP3   OH258573   0.570   0.831   4.837 -1.0542  0.3277  0.0268
12361TIP3    H158574   0.507   0.843   4.766 -0.0624  0.8299 -0.8035
12361TIP3    H258575   0.578   0.918   4.877 -0.1460  0.5347 -0.5513
12362TIP3   OH258576   6.673   4.468   0.735 -0.0169  0.4645 -0.3480
12362TIP3    H158577   6.617   4.399   0.771 -0.8991  2.3618  2.3124
12362TIP3    H258578   6.762   4.438   0.752 -0.2419 -1.2731 -1.9383
12363TIP3   OH258579   4.292   3.676   0.612 -0.0111 -0.1305  0.2987
12363TIP3    H158580   4.372   3.660   0.562  0.6694  2.0962  0.5444
12363TIP3    H258581   4.308   3.636   0.698  0.9591  0.4983  0.4239
12364TIP3   OH258582   1.559   6.316  16.042 -0.2667 -0.7355  0.0358
12364TIP3    H158583   1.588   6.366  15.966  0.0751  0.1950  0.7656
12364TIP3    H258584   1.465   6.336  16.049 -0.1703 -0.3502  0.2150
12365TIP3   OH258585   3.052   3.324  17.113  0.0694  0.0070  0.3593
12365TIP3    H158586   2.972   3.272  17.122  0.4452 -0.6734 -0.0915
12365TIP3    H258587   3.071   3.356  17.201 -0.1845 -0.6171  0.6435
12366TIP3   OH258588   0.906   5.780   4.736 -0.0377  0.4973 -0.3802
12366TIP3    H158589   0.929   5.688   4.725  0.9758  0.8259 -1.2407
12366TIP3    H258590   0.954   5.807   4.815  2.9802  1.2410 -2.3004
12367TIP3   OH258591   1.051   3.273  15.836 -0.7131  0.1885  0.1684
12367TIP3    H158592   1.084   3.201  15.783  0.0112  0.3117  0.4377
12367TIP3    H258593   1.127   3.331  15.849 -1.1804  0.7929  0.2922
12368TIP3   OH258594   3.500   1.470   6.281 -0.1299  0.0989 -0.5101
12368TIP3    H158595   3.566   1.460   6.349 -0.6241 -2.5663 -0.3006
12368TIP3    H258596   3.426   1.513   6.325 -0.7596 -2.2857  1.0089
12369TIP3   OH258597   3.060   0.941   4.034 -0.0351  0.1987 -0.2190
12369TIP3    H158598   3.150   0.947   4.004 -0.4878 -0.7650 -1.9185
12369TIP3    H258599   3.012   1.005   3.981 -0.6525 -0.6947 -0.7868
12370TIP3   OH258600   4.660   3.779   3.103 -0.1592  0.0146 -0.5241
12370TIP3    H158601   4.672   3.860   3.052 -1.7608  0.1838 -0.6848
12370TIP3    H258602   4.618   3.718   3.042 -2.0867  0.2127  0.5308
12371TIP3   OH258603   4.255   3.207  17.003  0.0016  0.1078 -0.0060
12371TIP3    H158604   4.311   3.261  17.058  0.3288  1.4044 -1.5455
12371TIP3    H258605   4.289   3.118  17.013  1.9124  0.7580 -0.3734
12372TIP3   OH258606   5.133   2.740  13.950  0.4467 -0.8088  0.5280
12372TIP3    H158607   5.131   2.830  13.917 -0.7306 -1.5906 -1.7050
12372TIP3    H258608   5.071   2.739  14.023 -0.3289 -0.0260 -0.1045
12373TIP3   OH258609   4.212   4.966  14.095 -0.4345  0.1606 -0.4360
12373TIP3    H158610   4.286   5.008  14.139 -1.3865  0.4470  0.9440
12373TIP3    H258611   4.247   4.885  14.059  0.3491 -0.1678  1.0107
12374TIP3   OH258612   5.851   3.856  16.515  0.0518  0.5378 -0.1140
12374TIP3    H158613   5.787   3.788  16.535  0.6668 -0.1694 -0.4880
12374TIP3    H258614   5.864   3.850  16.420  1.8392 -0.4266  0.1491
12375TIP3   OH258615   2.802   3.373  11.419  0.2341 -0.3972 -0.6051
12375TIP3    H158616   2.874   3.349  11.477 -1.0998  0.9474  1.7600
12375TIP3    H258617   2.829   3.457  11.381  0.3345 -0.3477 -0.4291
12376TIP3   OH258618   2.422   2.297   4.366 -0.4981  0.5724 -0.0741
12376TIP3    H158619   2.372   2.335   4.438 -0.3341  1.3134 -0.3467
12376TIP3    H258620   2.381   2.211   4.352 -0.7195  0.5371  0.6998
12377TIP3   OH258621   5.495   2.234   2.755 -0.4150 -0.2110 -0.5279
12377TIP3    H158622   5.413   2.188   2.771  1.3821 -3.0876  1.5398
12377TIP3    H258623   5.515   2.278   2.837  0.7376 -0.7357 -0.4967
12378TIP3   OH258624   6.386   1.441   0.856 -0.1617 -0.1086 -0.1555
12378TIP3    H158625   6.419   1.403   0.774 -1.1663 -1.0545 -0.1503
12378TIP3    H258626   6.291   1.446   0.844 -0.2833  0.1226  0.8018
12379TIP3   OH258627   5.442   5.656   3.144 -0.6685  0.1095 -0.4523
12379TIP3    H158628   5.509   5.707   3.189 -0.2576  1.0375 -2.0575
12379TIP3    H258629   5.414   5.591   3.209 -1.1552  2.2804  1.6437
12380TIP3   OH258630   4.347   2.304  12.203 -0.7438  0.3326 -0.2107
12380TIP3    H158631   4.417   2.350  12.157 -1.6169 -0.1842 -2.1885
12380TIP3    H258632   4.301   2.373  12.252  1.3660  0.6010  1.5592
12381TIP3   OH258633   0.806   4.932  13.999 -0.3763  0.1174  0.0230
12381TIP3    H158634   0.851   4.995  13.944 -0.1066 -1.1880 -1.3069
12381TIP3    H258635   0.874   4.870  14.025 -1.0485 -0.9240 -0.6248
12382TIP3   OH258636   1.222   0.036   0.848 -0.2665  0.0097  0.2173
12382TIP3    H158637   1.153   0.064   0.909 -1.2428 -0.6433 -0.5588
12382TIP3    H258638   1.283   0.110   0.847 -0.7921  0.4884  1.1440
12383TIP3   OH258639   6.065   6.157  16.499  0.0054 -0.5853  0.5884
12383TIP3    H158640   6.133   6.113  16.448  1.4420  2.3735 -0.3168
12383TIP3    H258641   5.988   6.155  16.442  0.3323 -1.0295  0.1500
12384TIP3   OH258642   0.923   2.247  11.944  0.1756  0.2839  0.0054
12384TIP3    H158643   0.909   2.304  11.868 -0.5266 -1.9815 -1.6558
12384TIP3    H258644   0.879   2.293  12.016  1.6756  2.9728 -0.6466
12385TIP3   OH258645   2.902   0.359  12.879 -0.1492 -0.0600  0.4686
12385TIP3    H158646   2.825   0.333  12.931 -1.1514  1.3474 -0.2367
12385TIP3    H258647   2.903   0.297  12.806 -2.3311  1.5058 -1.0351
12386TIP3   OH258648   5.625   5.112  16.730  0.2294  0.1288  0.0365
12386TIP3    H158649   5.699   5.127  16.672  1.0201 -1.9863  0.4125
12386TIP3    H258650   5.651   5.150  16.814  0.2791  0.6418 -0.2058
12387TIP3   OH258651   3.687   2.335   1.077 -0.9466 -0.0133  0.1884
12387TIP3    H158652   3.702   2.399   1.007  1.8834 -0.7026  0.0516
12387TIP3    H258653   3.625   2.273   1.039 -0.0147  0.0239 -1.4866
12388TIP3   OH258654   1.313   0.114  14.977 -0.9034  0.2270  0.0381
12388TIP3    H158655   1.220   0.135  14.985 -1.0102 -0.1175 -0.2875
12388TIP3    H258656   1.340   0.091  15.066 -1.2347 -0.1007  0.0554
12389TIP3   OH258657   2.189   0.572  11.815  0.0819  0.5441  0.4458
12389TIP3    H158658   2.222   0.510  11.749 -0.7726  1.4603 -0.8679
12389TIP3    H258659   2.258   0.638  11.821  0.0609  0.5796  0.3045
12390TIP3   OH258660   5.317   3.512   4.277  0.0007 -0.7847 -0.2460
12390TIP3    H158661   5.334   3.421   4.302 -3.0515 -1.1215  1.0472
12390TIP3    H258662   5.346   3.563   4.353 -0.2319 -0.8846 -0.0893
12391TIP3   OH258663   2.377   1.436  14.535 -0.6403 -0.8821 -0.4087
12391TIP3    H158664   2.457   1.392  14.564 -0.5138  0.1451  0.8738
12391TIP3    H258665   2.331   1.458  14.616 -2.7516 -2.3413 -1.1030
12392TIP3   OH258666   0.507   6.336   2.193 -0.5312 -0.4176  0.2317
12392TIP3    H158667   0.501   6.365   2.284 -0.5429 -1.8916  0.7352
12392TIP3    H258668   0.600   6.320   2.179 -0.4151  0.7103 -0.3261
12393TIP3   OH258669   1.389   1.333   1.108 -0.5034  0.1442  0.3696
12393TIP3    H158670   1.369   1.363   1.197 -0.7746 -0.1399  0.4086
12393TIP3    H258671   1.303   1.329   1.065 -0.2834  1.1673 -0.1919
12394TIP3   OH258672   4.717   2.538  15.364  0.2572 -0.2864 -0.0685
12394TIP3    H158673   4.683   2.538  15.274 -3.2874  0.8447  1.0886
12394TIP3    H258674   4.691   2.454  15.400  2.0577 -0.9222 -0.1483
12395TIP3   OH258675   0.888   5.937  15.672 -0.7533  0.0285 -0.6395
12395TIP3    H158676   0.808   5.910  15.626 -0.4083 -3.1681  0.3644
12395TIP3    H258677   0.949   5.865  15.657  0.7018  0.7108  1.5690
12396TIP3   OH258678   5.801   4.847  14.946 -0.4610  0.4646 -0.1745
12396TIP3    H158679   5.717   4.814  14.916  0.1758 -1.5336  0.1244
12396TIP3    H258680   5.822   4.793  15.022  0.5370  1.7581  0.5132
12397TIP3   OH258681   0.817   3.914   2.362 -0.2096  0.2887 -0.4233
12397TIP3    H158682   0.873   3.915   2.439  1.5659 -1.8795 -1.5640
12397TIP3    H258683   0.860   3.853   2.302 -2.3917  0.6210 -2.4716
12398TIP3   OH258684   4.010   1.014   5.135  0.1533  0.2376 -0.6152
12398TIP3    H158685   3.997   0.920   5.147  0.0090  0.4973  1.5254
12398TIP3    H258686   3.922   1.049   5.123  0.1389  0.1972 -0.6280
12399TIP3   OH258687   6.150   1.334  14.095  0.0126 -0.1784 -0.1839
12399TIP3    H158688   6.137   1.241  14.076 -0.5492  0.0283 -0.8275
12399TIP3    H258689   6.230   1.357  14.047  0.3057 -0.3933  0.2001
12400TIP3   OH258690   4.847   5.729   6.564  0.1430 -0.5486  0.3603
12400TIP3    H158691   4.760   5.754   6.596  0.3321  0.6511 -0.0196
12400TIP3    H258692   4.863   5.644   6.604 -1.5006 -1.1213 -0.0993
12401TIP3   OH258693   4.663   4.351  13.607  0.1732 -0.3691  0.0385
12401TIP3    H158694   4.622   4.384  13.686 -1.6773 -1.7086 -0.3024
12401TIP3    H258695   4.710   4.272  13.635  0.8275  0.0194  0.0594
12402TIP3   OH258696   3.766   2.944   1.309  0.5747  0.4528  0.1860
12402TIP3    H158697   3.763   2.966   1.216  1.0742  0.4694  0.1707
12402TIP3    H258698   3.721   3.016   1.352 -0.0785  0.2118 -0.0791
12403TIP3   OH258699   4.224   4.214  16.268 -0.5015  0.3863  0.1047
12403TIP3    H158700   4.240   4.302  16.303  0.2840  1.2285 -2.2151
12403TIP3    H258701   4.295   4.160  16.303  1.5089  1.6898 -1.7120
12404TIP3   OH258702   2.131   1.754  13.762 -0.2429  0.3038  0.0833
12404TIP3    H158703   2.195   1.775  13.694  0.8280  0.8309  1.2208
12404TIP3    H258704   2.059   1.815  13.747  0.9172  1.8955  0.6859
12405TIP3   OH258705   6.751   6.494   4.374 -0.5038  0.2402 -0.3362
12405TIP3    H158706   6.823   6.463   4.319 -1.8449 -1.9107 -0.9894
12405TIP3    H258707   6.726   6.418   4.427 -0.6406  1.6739  1.7726
12406TIP3   OH258708   5.429   5.235   1.488 -0.2026 -0.0934  0.0549
12406TIP3    H158709   5.516   5.248   1.451 -0.0184 -0.6952  0.2659
12406TIP3    H258710   5.390   5.165   1.435 -0.1882 -0.4956  0.5706
12407TIP3   OH258711   2.631   3.534   5.410  1.0803  0.5292  0.0219
12407TIP3    H158712   2.647   3.566   5.321  1.1016  2.3018  0.6239
12407TIP3    H258713   2.569   3.597   5.447  2.7068  1.0878  1.9670
12408TIP3   OH258714   1.338   2.943  17.063  0.4099 -0.1563 -0.5151
12408TIP3    H158715   1.318   2.987  17.146 -1.9249  1.8991 -2.0469
12408TIP3    H258716   1.322   2.851  17.081 -0.4418  0.2806  1.2183
12409TIP3   OH258717   4.967   4.534  14.239  0.1545 -0.0146  0.2237
12409TIP3    H158718   5.010   4.463  14.192 -2.1147 -2.0985  1.0852
12409TIP3    H258719   4.889   4.553  14.186 -1.2017 -0.7920  1.8343
12410TIP3   OH258720   5.165   0.326  12.443 -0.2077 -0.2287  0.2102
12410TIP3    H158721   5.218   0.249  12.424 -1.1545 -0.6565 -0.7835
12410TIP3    H258722   5.203   0.395  12.389 -0.0157 -0.2608  0.3028
12411TIP3   OH258723   5.508   2.516   4.690 -0.7866  0.2972 -0.3984
12411TIP3    H158724   5.464   2.564   4.620  0.0138  0.4646 -0.7939
12411TIP3    H258725   5.449   2.525   4.765 -1.7845 -0.1180 -1.1175
12412TIP3   OH258726   1.810   0.020   0.858  0.3193  0.0432  0.2119
12412TIP3    H158727   1.809  -0.056   0.916  1.2576  0.0422  0.2400
12412TIP3    H258728   1.860   0.086   0.905 -0.5319  0.7067  0.2078
12413TIP3   OH258729   5.215   5.834  12.691 -0.2846 -0.3189 -0.2045
12413TIP3    H158730   5.200   5.914  12.740 -1.8210 -0.2559 -0.7395
12413TIP3    H258731   5.131   5.814  12.651  0.8147 -0.4863 -2.6158
12414TIP3   OH258732   1.661   1.856   1.318  0.2542  0.2411 -0.2317
12414TIP3    H158733   1.604   1.796   1.366  0.2294  0.2305 -0.2745
12414TIP3    H258734   1.707   1.801   1.254  1.8449 -0.1346  1.1444
12415TIP3   OH258735   0.562   3.960  14.829 -0.4484 -0.3854 -0.0033
12415TIP3    H158736   0.614   4.019  14.773 -1.1865  0.7638  0.4718
12415TIP3    H258737   0.492   3.929  14.772  0.1697 -1.1540 -0.3681
12416TIP3   OH258738   0.392   6.025   3.049 -0.1484  0.5974 -0.2972
12416TIP3    H158739   0.463   6.059   2.995  0.5751  1.9049  1.3740
12416TIP3    H258740   0.436   5.988   3.126 -1.1575 -0.8938 -0.3764
12417TIP3   OH258741   4.790   6.339   2.394  0.3237 -0.0321  0.0356
12417TIP3    H158742   4.741   6.302   2.468 -1.1530  0.8043 -0.5062
12417TIP3    H258743   4.757   6.292   2.318  0.0179  0.8619 -0.3897
12418TIP3   OH258744   5.381   4.145  13.019  0.5497  0.9943 -0.3932
12418TIP3    H158745   5.300   4.095  13.014  1.0576  0.2035 -0.8465
12418TIP3    H258746   5.382   4.180  13.108  0.4487 -0.2609  0.1177
12419TIP3   OH258747   6.089   3.891   2.234 -0.4010 -0.5091  0.2366
12419TIP3    H158748   6.141   3.849   2.165 -2.6574 -2.3017 -0.4940
12419TIP3    H258749   6.152   3.908   2.304  1.2452 -2.2301 -0.7135
12420TIP3   OH258750   3.743   3.719   5.780  0.1030  0.1660 -0.0628
12420TIP3    H158751   3.665   3.722   5.724 -1.1426 -1.0626  1.4651
12420TIP3    H258752   3.775   3.809   5.783 -1.2282  0.6900 -0.8052
12421TIP3   OH258753   3.053   0.553   4.219  0.2121 -0.3173 -0.1883
12421TIP3    H158754   3.071   0.561   4.313 -0.0279 -0.4214 -0.1333
12421TIP3    H258755   2.975   0.606   4.204  0.2713 -0.2706 -0.3358
12422TIP3   OH258756   2.502   5.666   1.988 -0.9845 -0.2286 -0.1851
12422TIP3    H158757   2.423   5.641   2.035  0.5400 -0.0941  2.6614
12422TIP3    H258758   2.537   5.741   2.036  2.1288 -1.7682  0.2094
12423TIP3   OH258759   4.140   2.776  15.622  0.7594  0.0796 -0.0963
12423TIP3    H158760   4.228   2.746  15.598  1.5088  0.7737  1.6503
12423TIP3    H258761   4.114   2.719  15.695 -0.1187  0.0859 -0.3957
12424TIP3   OH258762   4.831   3.820   4.052 -0.4438  0.2764 -0.0882
12424TIP3    H158763   4.817   3.726   4.065  1.7841  0.1406  2.0788
12424TIP3    H258764   4.837   3.831   3.957 -1.7681 -1.5686 -0.4460
12425TIP3   OH258765   0.188   2.936  16.649 -0.3929 -0.3206 -0.0793
12425TIP3    H158766   0.165   2.913  16.559 -1.4140  0.3644 -0.0097
12425TIP3    H258767   0.153   2.864  16.701 -0.6787 -0.2330 -0.1476
12426TIP3   OH258768   1.791   6.004  13.121  0.2134  0.7189  0.0024
12426TIP3    H158769   1.866   6.025  13.177  0.6480 -1.1053  0.1839
12426TIP3    H258770   1.732   6.078  13.130  0.8224  1.0142  1.9393
12427TIP3   OH258771   0.912   4.822   3.772  0.1966 -0.2522  0.0058
12427TIP3    H158772   0.897   4.912   3.741 -0.8866 -0.0865  0.9348
12427TIP3    H258773   0.982   4.789   3.716 -0.5644  0.5829 -1.5100
12428TIP3   OH258774   3.088   1.854  17.150 -0.4096  0.4670 -0.7930
12428TIP3    H158775   3.120   1.897  17.071  0.5469  1.5807  0.1633
12428TIP3    H258776   3.081   1.761  17.126  0.8262  0.6288 -1.8816
12429TIP3   OH258777   6.375   2.796   3.915  0.2532 -0.1058 -0.2813
12429TIP3    H158778   6.356   2.703   3.931  1.9144 -0.4596 -0.2170
12429TIP3    H258779   6.306   2.824   3.854 -0.3486 -1.3446 -0.2086
12430TIP3   OH258780   6.758   3.618   3.127  0.2290  0.0426 -0.6616
12430TIP3    H158781   6.828   3.557   3.101 -0.4883 -1.1432  0.1121
12430TIP3    H258782   6.735   3.663   3.046  0.9046 -0.5786 -1.2205
12431TIP3   OH258783   6.177   5.205   0.173 -0.3852  0.2847 -0.5695
12431TIP3    H158784   6.168   5.122   0.220 -0.5968 -0.7684 -2.3502
12431TIP3    H258785   6.187   5.179   0.081  1.1121  2.1849 -1.0138
12432TIP3   OH258786   1.850   2.470  16.966  0.0395 -0.0515 -0.1681
12432TIP3    H158787   1.898   2.538  17.013  1.3708 -0.5097 -0.8142
12432TIP3    H258788   1.860   2.495  16.873 -0.7238 -0.3237 -0.3268
12433TIP3   OH258789   4.906   1.479  14.798 -0.1405 -0.3415  0.0271
12433TIP3    H158790   4.978   1.452  14.741  1.1764  0.5273  1.2083
12433TIP3    H258791   4.924   1.435  14.881 -1.5730 -0.9402  0.0360
12434TIP3   OH258792   3.000   6.262  13.591  0.0765 -0.1080 -0.1831
12434TIP3    H158793   2.916   6.225  13.568  0.7266 -1.4090 -0.5370
12434TIP3    H258794   3.005   6.256  13.687 -0.5952  0.8335 -0.0720
12435TIP3   OH258795   4.849   1.478  11.472  0.6168  0.2487  0.2622
12435TIP3    H158796   4.874   1.505  11.384  2.4612  0.7371  0.8743
12435TIP3    H258797   4.930   1.445  11.511 -0.6702 -2.2917  0.9778
12436TIP3   OH258798   0.469   1.639  15.608  0.1766  0.0952  0.1933
12436TIP3    H158799   0.449   1.675  15.694  0.2596 -0.5420  0.4814
12436TIP3    H258800   0.504   1.714  15.558 -0.6135  0.6415  0.4534
12437TIP3   OH258801   4.331   0.647   1.703 -0.0655  0.0651  0.3027
12437TIP3    H158802   4.420   0.680   1.708 -0.1090  0.3148 -0.4047
12437TIP3    H258803   4.293   0.692   1.627 -0.4845 -0.7402  0.0179
12438TIP3   OH258804   2.744   5.418  12.062 -0.0529 -0.0296 -0.8780
12438TIP3    H158805   2.812   5.435  11.997 -0.8901 -1.9326 -2.3383
12438TIP3    H258806   2.771   5.336  12.105  0.5591  1.2514  1.3623
12439TIP3   OH258807   2.004   1.532  13.177  0.6567  0.6980  0.2312
12439TIP3    H158808   1.913   1.561  13.181  0.6780  0.7131  0.7854
12439TIP3    H258809   2.052   1.600  13.225  1.2289  1.6572 -1.5957
12440TIP3   OH258810   6.545   1.975   4.951  0.3495 -0.2940  0.0689
12440TIP3    H158811   6.544   1.889   4.910  1.1361 -0.9024  1.2814
12440TIP3    H258812   6.609   1.968   5.021  0.5063  1.3152  0.1356
12441TIP3   OH258813   6.139   3.792  16.607  0.3199 -0.0200  0.2631
12441TIP3    H158814   6.113   3.789  16.515  2.1181  0.3554 -0.3020
12441TIP3    H258815   6.139   3.885  16.629 -0.7441 -0.1494  0.8616
12442TIP3   OH258816   2.214   3.307   2.850 -0.2035 -0.3813  0.3894
12442TIP3    H158817   2.141   3.255   2.814  0.9760 -2.3804  0.7221
12442TIP3    H258818   2.219   3.384   2.793 -0.8585 -1.5441 -1.3436
12443TIP3   OH258819   1.121   1.718   0.592 -0.1834  0.3854 -0.3339
12443TIP3    H158820   1.140   1.628   0.619 -1.1343 -0.2849 -1.8212
12443TIP3    H258821   1.184   1.771   0.642 -0.9264 -0.8731  2.1349
12444TIP3   OH258822   2.449   5.066   0.680  0.1687  0.0038 -0.5108
12444TIP3    H158823   2.445   5.022   0.765 -0.6160  0.2464 -0.4117
12444TIP3    H258824   2.470   5.157   0.702 -0.2740  0.1186 -0.5535
12445TIP3   OH258825   2.290   1.521  15.585  0.0229 -0.3861 -0.6380
12445TIP3    H158826   2.205   1.565  15.588  0.0447 -0.1826 -2.2616
12445TIP3    H258827   2.269   1.428  15.588 -0.1513 -0.3241  0.5129
12446TIP3   OH258828   3.637   6.408  17.034  0.0425 -0.2541 -0.2977
12446TIP3    H158829   3.641   6.313  17.037  1.5762 -0.1802  0.6931
12446TIP3    H258830   3.557   6.430  17.082  0.9292 -0.9835  1.6115
12447TIP3   OH258831   3.739   1.077   4.176 -0.7582 -0.7179  0.3016
12447TIP3    H158832   3.655   1.122   4.159 -0.3138 -0.3759 -1.1734
12447TIP3    H258833   3.761   1.101   4.266 -1.3265  0.7392  0.0814
12448TIP3   OH258834   2.246   3.352  11.270 -0.1305  0.0276 -0.1170
12448TIP3    H158835   2.329   3.304  11.265 -0.3350 -0.3987  0.5188
12448TIP3    H258836   2.271   3.444  11.256  0.1913 -0.3033 -2.0127
12449TIP3   OH258837   1.683   0.538  14.546  0.3882 -0.0291 -0.1348
12449TIP3    H158838   1.667   0.633  14.542  1.3866  0.1169 -1.4983
12449TIP3    H258839   1.682   0.510  14.454  1.7342 -1.0448  0.1258
12450TIP3   OH258840   6.562   2.200  16.974  0.1112 -0.3886 -0.8572
12450TIP3    H158841   6.621   2.274  16.960 -0.5319  0.0574 -1.2846
12450TIP3    H258842   6.607   2.146  17.038  0.8554  0.0810 -0.9632
12451TIP3   OH258843   2.882   2.551   0.197 -0.5420  0.0090  0.2443
12451TIP3    H158844   2.889   2.516   0.108  0.5726 -0.1233  0.3755
12451TIP3    H258845   2.789   2.573   0.206 -0.9318 -1.2043 -0.4857
12452TIP3   OH258846   3.867   1.254  15.654 -0.1298  0.4672  0.1767
12452TIP3    H158847   3.849   1.329  15.598  0.3449 -0.0975 -0.7429
12452TIP3    H258848   3.788   1.201  15.650  0.5756 -0.5473 -1.5460
12453TIP3   OH258849   5.052   5.507   3.616 -0.4105 -0.3496 -0.2958
12453TIP3    H158850   5.127   5.453   3.641  0.3906  0.4707 -0.8985
12453TIP3    H258851   5.076   5.544   3.531 -0.1906  2.2977  0.8268
12454TIP3   OH258852   0.238   3.600  12.087 -0.1224 -0.2703  0.9401
12454TIP3    H158853   0.158   3.639  12.122  0.4222  1.5180  0.2821
12454TIP3    H258854   0.290   3.674  12.057 -0.6366 -1.5442 -3.9358
12455TIP3   OH258855   0.283   1.315  11.709  0.3008  0.5800  0.5066
12455TIP3    H158856   0.324   1.401  11.721  0.4449  0.9136 -1.8832
12455TIP3    H258857   0.273   1.306  11.614  0.0067 -1.9287  0.7035
12456TIP3   OH258858   2.545   2.576   4.351  0.5548 -0.1618 -0.0245
12456TIP3    H158859   2.573   2.485   4.343  0.7385 -0.3760  2.4452
12456TIP3    H258860   2.450   2.571   4.366  0.7941 -0.0876  1.6754
12457TIP3   OH258861   1.111   5.731   1.680  0.2887  0.1366 -0.6916
12457TIP3    H158862   1.069   5.701   1.599  0.2344 -2.7211  0.2904
12457TIP3    H258863   1.205   5.731   1.659  0.3077 -0.9732 -0.7000
12458TIP3   OH258864   0.620   5.409  10.753  0.3446  0.0888 -0.3219
12458TIP3    H158865   0.593   5.499  10.736 -0.1584 -0.1116 -0.6003
12458TIP3    H258866   0.552   5.355  10.711 -1.3389 -0.4478  2.8167
12459TIP3   OH258867   1.422   3.298   0.735  0.1942  0.7474 -0.6282
12459TIP3    H158868   1.509   3.336   0.750  0.0399  0.6498  0.6506
12459TIP3    H258869   1.364   3.373   0.725  0.0218  0.8860  1.0939
12460TIP3   OH258870   2.486   4.610   3.696 -0.3377  0.3883  0.1648
12460TIP3    H158871   2.539   4.532   3.711 -1.0536 -0.2260 -0.3848
12460TIP3    H258872   2.490   4.623   3.601  0.2690  1.3895  0.3168
12461TIP3   OH258873   4.606   4.752   0.886  0.3663 -0.3805  0.4216
12461TIP3    H158874   4.685   4.710   0.920  0.5433  0.4500  1.0796
12461TIP3    H258875   4.535   4.709   0.933  0.4179 -1.1557 -0.1991
12462TIP3   OH258876   2.737   1.610   2.354 -0.5986  0.5484  0.3974
12462TIP3    H158877   2.779   1.682   2.308 -0.9858  0.8375  0.4929
12462TIP3    H258878   2.806   1.544   2.364  0.2310  1.5471  1.7118
12463TIP3   OH258879   5.589   4.973  10.454 -0.0146  0.1269 -1.1413
12463TIP3    H158880   5.627   4.886  10.445  3.2330  1.3220 -0.6286
12463TIP3    H258881   5.640   5.028  10.394 -1.8419  1.7327 -1.3405
12464TIP3   OH258882   0.775   1.634  12.336 -0.1038  0.1539 -0.5294
12464TIP3    H158883   0.717   1.704  12.307 -0.0533  0.9217  1.1107
12464TIP3    H258884   0.716   1.561  12.357 -0.5771  1.0813  1.5596
12465TIP3   OH258885   4.509   0.093  16.955  0.0278 -0.1905  0.4748
12465TIP3    H158886   4.578   0.063  17.016  0.6461  0.0952 -0.0688
12465TIP3    H258887   4.551   0.090  16.869 -0.7387 -0.2811  0.0981
12466TIP3   OH258888   1.599   0.357   5.293  0.7687 -0.1171 -0.2589
12466TIP3    H158889   1.657   0.431   5.309 -0.1349  0.4969  0.2776
12466TIP3    H258890   1.575   0.325   5.380 -0.1954  0.0518 -0.4490
12467TIP3   OH258891   0.061   4.003   5.369  0.5681  0.7191 -0.1579
12467TIP3    H158892   0.088   4.089   5.400  1.4207  0.2518  0.4321
12467TIP3    H258893   0.117   3.986   5.293  1.5614  0.0032  0.7087
12468TIP3   OH258894   2.368   4.827   5.333 -0.6826  0.5959  0.2674
12468TIP3    H158895   2.334   4.914   5.313 -1.7932 -0.4861 -3.3159
12468TIP3    H258896   2.300   4.767   5.302  2.1376 -1.5735 -2.3322
12469TIP3   OH258897   1.476   2.369  12.236  0.5273  0.5094 -0.2663
12469TIP3    H158898   1.479   2.464  12.221  2.3993  0.7517  1.3181
12469TIP3    H258899   1.461   2.359  12.330 -0.2162 -0.8002 -0.4925
12470TIP3   OH258900   5.991   3.152  12.106 -0.2519  0.0561  0.1941
12470TIP3    H158901   6.042   3.227  12.076  0.7993  0.3536  2.5278
12470TIP3    H258902   5.902   3.185  12.116 -0.7538 -0.1431 -2.7003
12471TIP3   OH258903   1.854   6.478   4.189  0.3393  0.3276  0.0175
12471TIP3    H158904   1.801   6.526   4.126 -1.5252 -2.3671 -0.6317
12471TIP3    H258905   1.820   6.504   4.275  1.7167  2.6711 -0.0460
12472TIP3   OH258906   5.035   1.518  13.077  1.0123 -0.2926  0.1497
12472TIP3    H158907   5.028   1.456  13.149  0.3738 -0.2318  0.1420
12472TIP3    H258908   4.946   1.526  13.042  1.1238  0.4577  0.0086
12473TIP3   OH258909   0.197   6.040   0.498 -0.9134  0.8066 -0.3212
12473TIP3    H158910   0.123   6.042   0.437 -1.4755  1.8371  0.3652
12473TIP3    H258911   0.253   6.112   0.471 -0.5024  0.4659 -0.3982
12474TIP3   OH258912   4.612   1.321  15.769 -0.2519 -0.3648 -0.5967
12474TIP3    H158913   4.548   1.390  15.788  0.4955 -0.1812  1.5129
12474TIP3    H258914   4.602   1.304  15.675 -0.7494  2.3053 -1.1042
12475TIP3   OH258915   1.718   2.566   4.044  0.1277 -0.3189 -0.6814
12475TIP3    H158916   1.631   2.586   4.010  0.4858 -0.7895 -1.9643
12475TIP3    H258917   1.765   2.650   4.043  0.0283 -0.2643 -1.0810
12476TIP3   OH258918   4.122   2.892  13.730 -0.0397 -0.2011 -0.5731
12476TIP3    H158919   4.109   2.965  13.669 -0.0942 -0.7330 -1.2094
12476TIP3    H258920   4.119   2.814  13.675 -2.4571 -0.8819  0.4103
12477TIP3   OH258921   2.429   1.568   4.886 -0.2190  0.3771 -0.1706
12477TIP3    H158922   2.515   1.596   4.917 -0.2591  1.5844 -1.0475
12477TIP3    H258923   2.369   1.636   4.916 -0.7465 -0.0600 -0.2113
12478TIP3   OH258924   6.423   0.821  14.336  0.1234 -0.0494  0.2447
12478TIP3    H158925   6.441   0.737  14.378  0.0773  0.7502  1.9162
12478TIP3    H258926   6.360   0.864  14.393 -1.7184  0.1799 -1.8127
12479TIP3   OH258927   4.780   3.844  16.425  0.1879  0.3562 -0.0634
12479TIP3    H158928   4.769   3.938  16.438  1.6933  0.7751 -1.5274
12479TIP3    H258929   4.735   3.826  16.342 -2.3029 -0.7530  1.4085
12480TIP3   OH258930   4.545   1.583   2.578 -0.2750 -0.1282  0.3156
12480TIP3    H158931   4.491   1.662   2.570 -1.5591 -0.6428  2.8671
12480TIP3    H258932   4.490   1.513   2.541 -0.3185 -0.2606  0.6299
12481TIP3   OH258933   0.057   2.462   0.100  0.4413 -0.6681 -0.2772
12481TIP3    H158934  -0.035   2.464   0.074  1.0799 -2.6706 -3.1917
12481TIP3    H258935   0.055   2.437   0.193 -1.9450 -1.1112 -0.3802
12482TIP3   OH258936   4.509   1.339   4.635 -0.0492 -0.2208 -0.0101
12482TIP3    H158937   4.597   1.355   4.603  0.2578  1.1309  1.3921
12482TIP3    H258938   4.469   1.283   4.569  1.0091  1.2298 -1.9819
12483TIP3   OH258939   2.655   5.736   1.506  0.6060  0.2597 -0.5291
12483TIP3    H158940   2.587   5.732   1.438  1.1887  1.5900 -1.2318
12483TIP3    H258941   2.678   5.645   1.523  1.2396 -0.0911 -2.9469
12484TIP3   OH258942   3.181   6.789  12.153  0.0690 -0.3928 -0.3694
12484TIP3    H158943   3.125   6.811  12.228  0.1568 -0.1320 -0.3765
12484TIP3    H258944   3.193   6.695  12.159  0.9869 -0.2469  0.6035
12485TIP3   OH258945   5.339   4.660  12.338  0.0011  0.2305 -0.3201
12485TIP3    H158946   5.252   4.668  12.376 -1.1654 -0.8228 -2.5299
12485TIP3    H258947   5.372   4.576  12.371 -0.4414 -0.0475 -0.5639
12486TIP3   OH258948   2.135   1.124   5.477 -0.1111 -0.1412  0.3231
12486TIP3    H158949   2.215   1.080   5.504 -0.2249 -0.9994 -0.6429
12486TIP3    H258950   2.101   1.069   5.406 -1.1524  0.6174  0.2129
12487TIP3   OH258951   6.441   4.279   3.916 -0.1395 -0.0408  0.1253
12487TIP3    H158952   6.372   4.338   3.947  0.5905  0.6064  0.5445
12487TIP3    H258953   6.453   4.215   3.986 -0.3907 -0.2283 -0.0002
12488TIP3   OH258954   1.578   5.376   5.878  0.9448 -0.3584  0.3542
12488TIP3    H158955   1.671   5.356   5.886  1.3015  1.0363 -0.1065
12488TIP3    H258956   1.575   5.467   5.849 -0.5444 -0.7484 -0.8396
12489TIP3   OH258957   5.606   4.103  10.690 -0.1098  0.2238  0.2471
12489TIP3    H158958   5.653   4.162  10.748 -2.4758  1.3740  1.1319
12489TIP3    H258959   5.542   4.060  10.746 -1.6216  0.4210 -1.2320
12490TIP3   OH258960   6.695   3.667   5.355 -0.8986 -0.1675 -0.2050
12490TIP3    H158961   6.751   3.620   5.417 -0.0797  0.9756 -0.0425
12490TIP3    H258962   6.708   3.621   5.272 -1.5248 -1.3281  0.3117
12491TIP3   OH258963   4.071   0.014   5.271 -0.0891  0.0260  0.5172
12491TIP3    H158964   4.103  -0.072   5.242  1.9228  1.4446 -1.8594
12491TIP3    H258965   4.149   0.057   5.307 -1.4312  0.3266  3.3832
12492TIP3   OH258966   1.951   5.982   4.982 -1.0904 -0.5883  0.0456
12492TIP3    H158967   1.967   5.943   4.896 -2.2476  0.1900 -0.5573
12492TIP3    H258968   2.018   5.945   5.038  0.8622  0.2511 -1.5957
12493TIP3   OH258969   4.213   3.790  15.077 -0.1092 -0.3082  0.0802
12493TIP3    H158970   4.171   3.723  15.023 -0.9879 -0.2309  0.6534
12493TIP3    H258971   4.235   3.744  15.158 -0.8672  0.1265  0.5433
12494TIP3   OH258972   5.852   3.718   0.570  0.1976  0.7739 -0.0040
12494TIP3    H158973   5.766   3.684   0.597  0.5667 -0.2119 -0.0147
12494TIP3    H258974   5.874   3.783   0.637  0.2040 -0.1992  0.9764
12495TIP3   OH258975   0.920   3.620  11.408 -0.9710 -0.4836 -0.1124
12495TIP3    H158976   0.878   3.663  11.333 -0.8080 -0.3185 -0.1083
12495TIP3    H258977   0.847   3.586  11.459 -1.1509  0.5818  0.3690
12496TIP3   OH258978   5.743   4.634  16.071  0.5924 -0.0742 -0.2746
12496TIP3    H158979   5.685   4.701  16.034 -0.0556  1.8239  3.7001
12496TIP3    H258980   5.829   4.675  16.074  0.8492 -0.5816 -0.5006
12497TIP3   OH258981   0.814   4.528  14.235 -0.4461 -0.0486  0.1129
12497TIP3    H158982   0.724   4.529  14.203 -0.0639  2.2649 -1.1261
12497TIP3    H258983   0.827   4.439  14.268 -2.6530 -0.9127 -1.1266
12498TIP3   OH258984   5.598   2.856   3.362 -0.1068 -0.2181  0.2356
12498TIP3    H158985   5.688   2.827   3.350  0.5721  0.9059  2.2070
12498TIP3    H258986   5.604   2.951   3.373 -1.3753 -0.2595  1.5956
12499TIP3   OH258987   2.150   0.143  15.585  0.6398  0.1375  0.3117
12499TIP3    H158988   2.240   0.164  15.560  1.0680 -1.2992  0.5773
12499TIP3    H258989   2.129   0.207  15.654  1.6626  0.1366  0.6429
12500TIP3   OH258990   3.474   6.065  11.722  0.1051 -0.1722  0.0111
12500TIP3    H158991   3.406   6.129  11.703  0.8252  0.4204 -0.6325
12500TIP3    H258992   3.555   6.116  11.728  0.3537 -0.7022  1.8895
12501TIP3   OH258993   2.847   6.434   5.256 -0.2302 -0.2632  0.2074
12501TIP3    H158994   2.882   6.346   5.271 -0.6310 -0.3326  0.7810
12501TIP3    H258995   2.786   6.448   5.329  1.4248  1.3587  1.3754
12502TIP3   OH258996   5.993   4.048   4.639  0.0793 -0.0840 -0.0904
12502TIP3    H158997   6.010   3.999   4.558 -1.6894  0.4136 -0.8347
12502TIP3    H258998   6.077   4.084   4.664  0.7592 -0.6362 -1.4772
12503TIP3   OH258999   3.463   2.910  12.968 -0.2434  0.2576  0.3241
12503TIP3    H159000   3.505   2.908  13.054 -0.3435  2.1288  0.4683
12503TIP3    H259001   3.398   2.840  12.970  0.5728 -0.5018  1.3095
12504TIP3   OH259002   0.206   5.637   6.187  0.0605 -0.2123 -0.0333
12504TIP3    H159003   0.180   5.684   6.108 -0.7602 -1.5839 -0.6111
12504TIP3    H259004   0.280   5.687   6.221  0.2128  0.5988 -1.4760
12505TIP3   OH259005   4.063   5.423  13.676  0.1874  0.1756 -0.3461
12505TIP3    H159006   4.094   5.354  13.618  0.0680  0.7432 -1.0966
12505TIP3    H259007   4.029   5.491  13.618  0.7617  1.0930  0.3474
12506TIP3   OH259008   6.158   2.068  10.722  0.1348 -0.3409  0.1731
12506TIP3    H159009   6.249   2.096  10.730  0.8077 -1.7790 -1.7206
12506TIP3    H259010   6.147   2.001  10.790 -0.0249  0.9269  1.4433
12507TIP3   OH259011   3.476   0.228  15.934  0.4389  0.0168  0.3199
12507TIP3    H159012   3.421   0.210  16.010  1.2366  1.2414  1.2207
12507TIP3    H259013   3.560   0.187  15.954  0.6893  0.4408  0.1520
12508TIP3   OH259014   5.897   2.159  17.054  0.3785  0.1724  0.5553
12508TIP3    H159015   5.903   2.069  17.024 -0.2106  0.1519  0.4950
12508TIP3    H259016   5.896   2.211  16.973  1.0950  0.2638  0.5967
12509TIP3   OH259017   3.425   5.291  10.910  0.5164  0.8828  0.0144
12509TIP3    H159018   3.512   5.282  10.951 -0.3219  0.7710  1.8790
12509TIP3    H259019   3.399   5.201  10.890 -0.3100  0.6169  2.0606
12510TIP3   OH259020   6.485   4.794   2.755 -0.3540 -0.2930 -0.1735
12510TIP3    H159021   6.391   4.807   2.745 -0.1854  0.8952 -0.3495
12510TIP3    H259022   6.493   4.714   2.808 -1.4303 -1.0233 -1.0712
12511TIP3   OH259023   1.725   1.107  16.055 -0.4580 -0.2218  0.0039
12511TIP3    H159024   1.655   1.107  16.121 -1.6881  0.0746 -1.2526
12511TIP3    H259025   1.702   1.178  15.996  1.5883  0.6782  0.1935
12512TIP3   OH259026   6.226   5.286   2.394 -0.0327 -0.7664  0.2508
12512TIP3    H159027   6.255   5.256   2.307 -0.6296  0.9783 -0.6089
12512TIP3    H259028   6.268   5.371   2.404 -1.3527 -0.1664  0.9019
12513TIP3   OH259029   5.725   3.972   4.212 -0.0384 -0.0172  0.4800
12513TIP3    H159030   5.737   4.048   4.269 -0.8456  0.5839 -0.1162
12513TIP3    H259031   5.778   3.903   4.252  0.9789  0.9457  0.8524
12514TIP3   OH259032   2.961   2.958  12.506 -0.5241  0.0726  0.4703
12514TIP3    H159033   2.906   2.918  12.573 -0.6605 -0.2201  0.1825
12514TIP3    H259034   3.034   2.996  12.556  0.2561 -1.5986  0.6572
12515TIP3   OH259035   3.127   6.088   0.183  0.4752 -0.0142  0.3394
12515TIP3    H159036   3.163   6.174   0.161 -0.5164  0.8871  1.9985
12515TIP3    H259037   3.125   6.087   0.278 -3.7347  0.0527  0.4494
12516TIP3   OH259038   2.402   4.951   0.954  0.5333 -0.6482 -0.6110
12516TIP3    H159039   2.418   5.044   0.966  1.7159 -0.7803 -1.0086
12516TIP3    H259040   2.307   4.942   0.952  0.3470  0.2839  1.5029
12517TIP3   OH259041   3.068   1.939  15.302  0.4128 -0.2271  0.6413
12517TIP3    H159042   3.028   2.026  15.296  0.4077 -0.0044  2.8224
12517TIP3    H259043   3.161   1.956  15.316  0.5227 -0.5967  0.3653
12518TIP3   OH259044   3.699   0.242  12.537 -0.0031  0.4895 -0.2294
12518TIP3    H159045   3.628   0.270  12.479  0.3972  2.0211 -0.0164
12518TIP3    H259046   3.745   0.323  12.559 -0.3751  0.0523  2.5484
12519TIP3   OH259047   4.059   1.746  13.886 -0.1041 -0.2069 -0.1688
12519TIP3    H159048   4.011   1.663  13.879 -1.1909  0.1948  1.7909
12519TIP3    H259049   4.112   1.735  13.966 -1.9274  1.7389  1.4103
12520TIP3   OH259050   3.977   5.721   0.743  0.6810 -0.4187  0.0164
12520TIP3    H159051   3.992   5.686   0.831 -1.3653  1.1402  1.0860
12520TIP3    H259052   3.958   5.814   0.757 -0.7780 -0.3462 -1.9197
12521TIP3   OH259053   4.732   2.664   3.479 -0.6060 -0.2625 -0.1036
12521TIP3    H159054   4.654   2.624   3.518  0.0594 -2.0235 -0.4866
12521TIP3    H259055   4.769   2.595   3.424  0.7226  0.8442 -0.6443
12522TIP3   OH259056   2.149   4.630   5.051  0.2766  0.2105 -0.4298
12522TIP3    H159057   2.173   4.660   4.963  0.8738 -0.0084 -0.3483
12522TIP3    H259058   2.065   4.587   5.039  0.8650 -0.7965 -1.1116
12523TIP3   OH259059   1.302   3.062   1.261  0.4320 -0.7555 -0.2648
12523TIP3    H159060   1.279   3.092   1.173 -2.3222  1.7653  1.1314
12523TIP3    H259061   1.362   3.129   1.294 -1.3764  0.3583  0.9356
12524TIP3   OH259062   6.209   2.143   1.377  0.3133 -0.0973  0.2768
12524TIP3    H159063   6.137   2.103   1.425  0.3746 -0.7561 -0.1718
12524TIP3    H259064   6.282   2.082   1.387  0.9519  0.7781  1.0954
12525TIP3   OH259065   5.532   2.417   2.316  0.3135 -0.0853  0.3639
12525TIP3    H159066   5.626   2.417   2.299  0.1596 -1.3630 -0.6159
12525TIP3    H259067   5.492   2.381   2.236 -1.2037  2.4393 -0.1260
12526TIP3   OH259068   0.462   6.379  12.314  0.0571  0.0896 -0.9725
12526TIP3    H159069   0.408   6.301  12.324  0.4222 -0.1490 -0.8442
12526TIP3    H259070   0.514   6.382  12.394  2.1488 -1.1633 -2.1879
12527TIP3   OH259071   4.643   0.682   1.677 -0.3898 -0.5640 -0.1465
12527TIP3    H159072   4.711   0.628   1.716 -0.7841  0.1705  1.6250
12527TIP3    H259073   4.648   0.765   1.724 -1.4214  0.0847 -1.1340
12528TIP3   OH259074   3.990   1.237  16.500 -0.2762 -0.0954 -0.2822
12528TIP3    H159075   4.068   1.188  16.526 -0.9607 -0.4171  1.2824
12528TIP3    H259076   3.993   1.316  16.553 -0.6969  0.1884 -0.6742
12529TIP3   OH259077   0.219   6.794   3.019  0.3105  0.0349 -0.0132
12529TIP3    H159078   0.294   6.838   2.979 -1.3464  2.4477 -0.7040
12529TIP3    H259079   0.201   6.846   3.098  0.0707 -1.2427  0.8002
12530TIP3   OH259080   4.174   2.745   3.755 -0.1078 -0.4852  0.1000
12530TIP3    H159081   4.084   2.718   3.775 -0.6922 -0.3410 -2.0937
12530TIP3    H259082   4.220   2.739   3.839 -2.8618  2.4138  2.0397
12531TIP3   OH259083   6.576   4.462  11.206  0.0997 -0.3054  0.1141
12531TIP3    H159084   6.632   4.402  11.256  1.3162  0.8961  0.2266
12531TIP3    H259085   6.582   4.545  11.252 -1.2039  0.0456 -0.3093
12532TIP3   OH259086   2.185   6.084  16.914 -1.1705  0.0818 -0.3781
12532TIP3    H159087   2.198   6.176  16.889 -1.4975 -0.6690 -3.8466
12532TIP3    H259088   2.272   6.054  16.942 -0.6674  1.0079 -0.8867
12533TIP3   OH259089   2.968   6.588  13.860 -0.3220 -0.4683  0.1573
12533TIP3    H159090   2.986   6.657  13.925 -0.6569  1.6019 -1.8409
12533TIP3    H259091   2.914   6.525  13.907  0.1734  0.4913  2.1426
12534TIP3   OH259092   6.421   6.467  12.473 -0.3356 -0.4202 -0.9749
12534TIP3    H159093   6.515   6.477  12.459 -0.1257  0.6708  0.8965
12534TIP3    H259094   6.413   6.407  12.546 -1.1855 -1.6375 -2.0139
12535TIP3   OH259095   2.973   2.627   0.920  0.5093 -0.3777 -0.1930
12535TIP3    H159096   2.958   2.701   0.978  2.0616 -0.8030  0.8082
12535TIP3    H259097   2.977   2.551   0.978  1.0584 -0.9608 -0.9702
12536TIP3   OH259098   5.574   3.793   5.589  0.0295  0.3249  0.1622
12536TIP3    H159099   5.578   3.856   5.660 -0.9578  2.0434 -1.2228
12536TIP3    H259100   5.490   3.750   5.599 -0.6669  1.4498 -0.6258
12537TIP3   OH259101   3.238   2.912  16.061  0.0539 -0.2343  0.0392
12537TIP3    H159102   3.229   2.819  16.039 -0.5171  0.3030 -2.2306
12537TIP3    H259103   3.295   2.948  15.993  1.4284  0.8520  1.6836
12538TIP3   OH259104   1.143   3.227   3.900  0.3315 -0.2815 -0.1997
12538TIP3    H159105   1.118   3.188   3.984 -0.4483 -0.9103 -0.7125
12538TIP3    H259106   1.209   3.292   3.923 -1.2406  0.9297  1.1495
12539TIP3   OH259107   2.483   3.939  14.459  0.1718 -0.3161  0.0734
12539TIP3    H159108   2.536   4.019  14.450 -2.7682  1.5441 -3.2154
12539TIP3    H259109   2.395   3.965  14.433 -0.8630 -4.7473 -1.8201
12540TIP3   OH259110   5.519   2.363   6.252 -0.4159 -0.8218 -0.0767
12540TIP3    H159111   5.554   2.285   6.293  0.4724 -0.0797  0.6168
12540TIP3    H259112   5.595   2.402   6.207 -0.9462 -0.5958 -0.7925
12541TIP3   OH259113   6.770   4.902   1.448  0.0126 -0.3644  0.4536
12541TIP3    H159114   6.751   4.818   1.407 -0.0969  0.4445 -1.2599
12541TIP3    H259115   6.704   4.910   1.517 -0.5967 -1.2474 -0.0056
12542TIP3   OH259116   1.931   0.558   0.578 -0.7822  0.8274 -0.4642
12542TIP3    H159117   1.945   0.637   0.526  0.4313  0.1215 -1.2510
12542TIP3    H259118   1.981   0.491   0.534 -1.0908 -0.2005  0.6874
12543TIP3   OH259119   0.414   0.984   0.907  0.0591 -0.2558 -0.7528
12543TIP3    H159120   0.445   0.978   0.997  1.8881 -2.7089 -1.4559
12543TIP3    H259121   0.464   1.056   0.869 -0.9951  1.0537  0.2039
12544TIP3   OH259122   2.496   4.408  15.800  0.1353 -0.0232 -0.0076
12544TIP3    H159123   2.532   4.334  15.848 -0.1858  0.7248  1.4506
12544TIP3    H259124   2.540   4.484  15.836 -1.6794  0.7602  0.6805
12545TIP3   OH259125   0.749   1.436   3.586 -0.0948  0.3398  0.5868
12545TIP3    H159126   0.810   1.474   3.524  1.2425 -0.4963  1.3394
12545TIP3    H259127   0.662   1.462   3.554  0.5056 -0.4064 -1.8531
12546TIP3   OH259128   3.907   5.299  13.863  0.2897  0.9511 -0.4164
12546TIP3    H159129   3.972   5.335  13.803  0.1589 -0.5314 -1.5033
12546TIP3    H259130   3.957   5.245  13.924  0.2825  1.4704  0.0615
12547TIP3   OH259131   0.693   3.038  12.041  0.4437  0.7962  0.0150
12547TIP3    H159132   0.703   3.011  11.950  0.0122 -1.3045  0.5370
12547TIP3    H259133   0.770   3.092  12.059  1.6569 -0.5203 -1.0017
12548TIP3   OH259134   1.866   6.682  10.594 -0.7041 -0.3380 -0.5818
12548TIP3    H159135   1.909   6.604  10.559  0.4851 -0.5702  1.2772
12548TIP3    H259136   1.880   6.749  10.528 -0.1655 -1.2238 -1.3874
12549TIP3   OH259137   1.396   4.472  11.354 -0.3172 -0.1975  0.0590
12549TIP3    H159138   1.455   4.493  11.282  0.6304 -1.4867  0.4151
12549TIP3    H259139   1.311   4.509  11.328  0.3091  0.4658 -1.1055
12550TIP3   OH259140   6.005   4.476   5.662 -0.2345 -0.1397  0.3477
12550TIP3    H159141   5.925   4.444   5.620  0.3754 -0.6948 -0.4189
12550TIP3    H259142   6.034   4.548   5.607  0.3684 -0.6314  0.0168
12551TIP3   OH259143   2.647   0.305  12.660 -0.2495  0.3578  0.6007
12551TIP3    H159144   2.672   0.359  12.736  1.4032 -2.0332  1.8653
12551TIP3    H259145   2.726   0.257  12.637 -1.5008 -1.1144 -0.8198
12552TIP3   OH259146   0.098   6.530   4.090  0.0991  0.3269 -0.0807
12552TIP3    H159147   0.052   6.459   4.046  3.1699 -0.8220 -1.6733
12552TIP3    H259148   0.117   6.593   4.020  1.6435  0.3460  0.3228
12553TIP3   OH259149   2.857   1.933   3.560 -0.4591  0.0877  0.2835
12553TIP3    H159150   2.885   1.859   3.507  1.0640  1.5525 -1.0829
12553TIP3    H259151   2.937   1.979   3.583 -1.3891  1.7329  0.4336
12554TIP3   OH259152   5.101   5.540   6.776 -0.6829  0.0695  0.5368
12554TIP3    H159153   5.093   5.635   6.771  0.1391  0.0782 -1.4054
12554TIP3    H259154   5.011   5.509   6.785 -0.9463  1.0199  1.3599
12555TIP3   OH259155   1.739   1.215   0.199  0.1496 -0.9779  0.0605
12555TIP3    H159156   1.684   1.155   0.250 -2.1278  0.7998 -0.2013
12555TIP3    H259157   1.735   1.181   0.110 -2.2911  0.2185 -0.3691
12556TIP3   OH259158   3.226   4.057  12.193 -0.0145 -0.6179  0.2735
12556TIP3    H159159   3.151   3.999  12.177 -1.0632  0.6176  0.5872
12556TIP3    H259160   3.287   4.037  12.122  0.0193 -2.6549  0.8144
12557TIP3   OH259161   6.177   1.498   5.200  0.2626  0.4921 -0.3159
12557TIP3    H159162   6.145   1.581   5.234 -2.2252 -0.4423 -0.1651
12557TIP3    H259163   6.258   1.520   5.154 -0.0112  2.8757  0.2343
12558TIP3   OH259164   1.237   1.697  10.411  0.8231 -0.6968 -0.0675
12558TIP3    H159165   1.159   1.643  10.405  0.8065 -0.6702 -0.0946
12558TIP3    H259166   1.238   1.729  10.501  0.1419  0.2830 -0.3910
12559TIP3   OH259167   1.351   1.905  13.659  0.2690 -0.4617 -0.2844
12559TIP3    H159168   1.362   1.863  13.745  0.4386 -0.7337 -0.4400
12559TIP3    H259169   1.327   1.996  13.680  0.1317 -0.5731  0.0513
12560TIP3   OH259170   5.673   4.752  13.121 -0.3551 -0.2901  0.2224
12560TIP3    H159171   5.684   4.765  13.215 -0.9148  0.0542  0.2427
12560TIP3    H259172   5.653   4.839  13.087 -1.7881 -0.6815  0.0158
12561TIP3   OH259173   6.249   6.220  15.127 -0.8164 -0.3537 -0.5383
12561TIP3    H159174   6.205   6.138  15.146 -2.1313  0.8401  2.0186
12561TIP3    H259175   6.193   6.261  15.060 -1.9022 -0.2241  0.4157
12562TIP3   OH259176   4.847   4.352   6.620 -0.4625 -0.6367 -0.2032
12562TIP3    H159177   4.827   4.444   6.635  0.6646 -0.1142 -1.7106
12562TIP3    H259178   4.943   4.349   6.610 -0.2800 -2.2377  1.5032
12563TIP3   OH259179   1.249   6.146  16.727  0.3924 -0.3567 -0.0225
12563TIP3    H159180   1.319   6.082  16.740 -0.5600 -1.2070  1.1247
12563TIP3    H259181   1.295   6.227  16.704  1.7666 -0.8752  0.7616
12564TIP3   OH259182   0.019   0.390   5.712  0.1663  0.0262 -0.8683
12564TIP3    H159183   0.011   0.352   5.625  0.0765  0.0223 -0.8581
12564TIP3    H259184  -0.043   0.340   5.766 -0.2301  0.4409 -0.9392
12565TIP3   OH259185   6.337   1.347   2.951 -0.1379  0.1414 -0.2900
12565TIP3    H159186   6.319   1.267   2.901  1.5806  1.8942 -4.2162
12565TIP3    H259187   6.431   1.341   2.971  0.1370  1.3049 -1.1065
12566TIP3   OH259188   6.576   4.287  16.360 -0.0852  0.0910 -0.2936
12566TIP3    H159189   6.546   4.234  16.433 -1.7763  0.2415 -0.8294
12566TIP3    H259190   6.644   4.235  16.318  0.4698 -0.2618  1.0009
12567TIP3   OH259191   0.447   3.049  10.961 -0.8970  0.4484  0.3800
12567TIP3    H159192   0.532   3.050  11.005 -0.5324  0.9615 -0.3159
12567TIP3    H259193   0.451   2.974  10.901 -1.6818 -0.7241  1.7331
12568TIP3   OH259194   3.532   2.328  15.262  0.2306 -0.2351  0.1008
12568TIP3    H159195   3.566   2.373  15.184  2.7641 -1.1552  0.5720
12568TIP3    H259196   3.492   2.248  15.228  0.6963 -0.2939 -0.3280
12569TIP3   OH259197   2.269   3.239  13.239 -0.2849  0.1111  0.3429
12569TIP3    H159198   2.308   3.183  13.172 -0.6747  1.2731 -0.9010
12569TIP3    H259199   2.310   3.210  13.321  1.4394 -0.2762 -0.5987
12570TIP3   OH259200   0.272   3.117   4.253  0.0281  0.0711 -0.3884
12570TIP3    H159201   0.329   3.186   4.221 -2.8483  2.0559 -1.7282
12570TIP3    H259202   0.307   3.037   4.215  2.3675  1.0067 -0.3608
12571TIP3   OH259203   6.394   1.078   5.129 -0.0257  0.4203  0.2212
12571TIP3    H159204   6.444   1.135   5.187 -0.7440  2.5701 -1.1578
12571TIP3    H259205   6.461   1.026   5.083  0.7464  1.0431  0.6216
12572TIP3   OH259206   2.657   1.672  10.295 -0.4397  0.1427  0.2543
12572TIP3    H159207   2.690   1.748  10.247 -1.2930  1.0426  1.0542
12572TIP3    H259208   2.733   1.637  10.341  0.4501 -0.8594 -1.8490
12573TIP3   OH259209   1.275   5.774   4.756  0.2663 -0.0530 -0.2055
12573TIP3    H159210   1.300   5.852   4.705 -0.2171  0.1014 -0.2102
12573TIP3    H259211   1.258   5.707   4.690 -0.4405  0.1705 -0.2605
12574TIP3   OH259212   0.033   2.910  13.545 -0.1908  0.1238 -0.1492
12574TIP3    H159213  -0.033   2.885  13.610 -1.5759  1.8900 -0.7827
12574TIP3    H259214   0.054   3.000  13.567  2.0196 -0.3890 -0.0112
12575TIP3   OH259215   1.835   1.750  15.196 -0.0856  0.3891 -0.5261
12575TIP3    H159216   1.859   1.839  15.170 -1.1071  0.6254 -0.7150
12575TIP3    H259217   1.766   1.762  15.261 -0.0413 -0.2653 -0.3476
12576TIP3   OH259218   2.802   3.415  13.431 -0.1108  0.2728 -0.0656
12576TIP3    H159219   2.843   3.492  13.472 -0.6579  1.2139 -1.2393
12576TIP3    H259220   2.868   3.346  13.440  1.1267  1.3440 -0.5309
12577TIP3   OH259221   4.458   5.624   6.673  0.0902  0.3910 -0.4323
12577TIP3    H159222   4.426   5.616   6.763  2.1174 -1.3505  0.2093
12577TIP3    H259223   4.503   5.709   6.671  0.2380  0.3361  0.2842
12578TIP3   OH259224   2.153   1.515  13.643 -0.0118 -0.2404 -0.0557
12578TIP3    H159225   2.071   1.492  13.600  0.1291  0.0860 -0.5096
12578TIP3    H259226   2.133   1.595  13.693  0.1606  0.1518 -0.6036
12579TIP3   OH259227   1.704   5.303   6.174  0.0195  0.2242  0.0637
12579TIP3    H159228   1.670   5.388   6.147  0.0485  1.1222  2.5645
12579TIP3    H259229   1.629   5.259   6.213  0.3750 -0.2295  0.2379
12580TIP3   OH259230   0.818   0.598   1.842  0.2005 -0.4260  0.0618
12580TIP3    H159231   0.838   0.676   1.895 -0.6023  0.0521 -0.3201
12580TIP3    H259232   0.862   0.614   1.759 -0.6546  0.0178 -0.3139
12581TIP3   OH259233   4.086   6.544   6.824 -0.3166 -0.2342  0.2124
12581TIP3    H159234   4.051   6.596   6.752 -0.2849  0.0609  0.4121
12581TIP3    H259235   4.132   6.472   6.781 -0.4019 -0.1280 -0.0601
12582TIP3   OH259236   6.226   5.269  16.955  0.1306 -0.3526 -0.3293
12582TIP3    H159237   6.307   5.318  16.968 -0.5292  0.5538  0.4409
12582TIP3    H259238   6.233   5.194  17.014 -0.0799  0.3465  0.6061
12583TIP3   OH259239   0.166   3.090   3.989 -0.2426  0.3660  0.6128
12583TIP3    H159240   0.180   3.045   4.072  1.2644  0.8215  0.6447
12583TIP3    H259241   0.120   3.027   3.934  0.6202 -0.7273  1.1058
12584TIP3   OH259242   3.440   0.432   4.275 -0.2010  0.7330 -0.0781
12584TIP3    H159243   3.360   0.431   4.222  0.9817  2.1589 -2.0082
12584TIP3    H259244   3.446   0.521   4.308  0.3913  0.5280  0.3924
12585TIP3   OH259245   4.321   4.123   4.187  0.1917  0.6250 -0.6041
12585TIP3    H159246   4.235   4.130   4.229  0.2526  1.7192 -0.6429
12585TIP3    H259247   4.353   4.036   4.213 -0.7105  0.4014 -0.1938
12586TIP3   OH259248   6.691   5.958  14.813  0.1954  0.2507 -0.1000
12586TIP3    H159249   6.664   5.915  14.732  0.0820  1.1313 -0.5416
12586TIP3    H259250   6.680   6.051  14.795  3.0328  0.6720 -0.1616
12587TIP3   OH259251   6.236   4.501   5.267 -0.2332  0.7268  0.2508
12587TIP3    H159252   6.277   4.520   5.351 -0.9646 -1.7526  1.2687
12587TIP3    H259253   6.202   4.411   5.276  0.2303  0.0937 -2.9071
12588TIP3   OH259254   2.001   0.397  14.958 -0.1614 -0.4885  0.4600
12588TIP3    H159255   1.906   0.385  14.966 -0.2244 -0.8336 -0.6213
12588TIP3    H259256   2.037   0.349  15.033 -0.8654  0.4380  1.4279
12589TIP3   OH259257   3.917   0.958   6.222 -0.1015 -1.0194 -0.3829
12589TIP3    H159258   3.831   0.919   6.235 -0.6788 -0.0264 -1.0966
12589TIP3    H259259   3.952   0.967   6.311 -2.1325  1.5890  0.2898
12590TIP3   OH259260   0.626   2.020   5.757 -0.1511 -0.0149 -0.0354
12590TIP3    H159261   0.697   2.081   5.740 -1.1190  1.5186  1.1247
12590TIP3    H259262   0.667   1.933   5.754  1.4097  0.7052 -0.9901
12591TIP3   OH259263   5.957   3.393   2.335  0.2313 -0.4280  0.0743
12591TIP3    H159264   5.996   3.475   2.366 -0.6238 -0.2375  0.7051
12591TIP3    H259265   6.004   3.373   2.255  1.2819  0.0355  0.5497
12592TIP3   OH259266   1.493   1.792   0.537 -0.5986  0.4342 -0.0647
12592TIP3    H159267   1.543   1.726   0.489  0.8746  0.7057  1.0299
12592TIP3    H259268   1.459   1.746   0.614 -0.7452  0.6132 -0.0202
12593TIP3   OH259269   5.988   6.412   2.628  0.1836  0.4304  0.7269
12593TIP3    H159270   6.028   6.389   2.712  0.2084 -0.5227  0.4589
12593TIP3    H259271   6.039   6.488   2.599  2.5407 -1.3287 -0.0809
12594TIP3   OH259272   4.866   0.653  11.145 -0.5679  0.3049 -0.9415
12594TIP3    H159273   4.838   0.575  11.097 -1.0965  0.9306 -1.6854
12594TIP3    H259274   4.954   0.671  11.111  0.1402 -0.7493  0.2481
12595TIP3   OH259275   2.301   1.676   0.205 -0.2732  0.4334  0.2690
12595TIP3    H159276   2.294   1.750   0.265 -0.0672  0.1445  0.6569
12595TIP3    H259277   2.294   1.599   0.261  1.2974  0.1370  0.1112
12596TIP3   OH259278   0.458   5.313  11.547 -0.0511  0.0946  0.7682
12596TIP3    H159279   0.488   5.383  11.489 -0.1082  0.2970  0.9818
12596TIP3    H259280   0.409   5.359  11.616 -0.9122 -0.2350  0.3864
12597TIP3   OH259281   6.178   3.305  10.804 -0.3006  0.0019 -0.0762
12597TIP3    H159282   6.093   3.261  10.808  0.0321 -0.5708  2.8436
12597TIP3    H259283   6.188   3.346  10.890  2.1438  0.5266 -0.5243
12598TIP3   OH259284   3.355   1.970  13.929  0.5294  0.0492  0.2295
12598TIP3    H159285   3.297   1.923  13.988  0.9918  1.4568  1.8700
12598TIP3    H259286   3.400   1.901  13.880  1.3546 -1.3091  2.7008
12599TIP3   OH259287   6.122   1.408   0.794  0.1922  0.0109 -0.0228
12599TIP3    H159288   6.039   1.366   0.774  0.3278 -1.4778  2.1344
12599TIP3    H259289   6.109   1.500   0.773 -1.7598 -0.3092 -0.3489
12600TIP3   OH259290   0.974   1.524  14.477  0.0854  0.0907  0.4310
12600TIP3    H159291   0.952   1.455  14.415 -0.5132  1.3467 -0.7814
12600TIP3    H259292   1.067   1.541  14.462  0.0003  0.2209  0.0431
12601TIP3   OH259293   4.676   3.447  13.825 -0.2557 -0.7368  0.5680
12601TIP3    H159294   4.598   3.484  13.784 -0.0636 -0.5187  0.3978
12601TIP3    H259295   4.749   3.486  13.777  0.0379  1.0125  2.3527
12602TIP3   OH259296   1.451   3.178  14.206  0.5701 -0.2269  0.2680
12602TIP3    H159297   1.418   3.212  14.122  0.6828  0.7370  0.6026
12602TIP3    H259298   1.519   3.116  14.181 -0.2719 -0.9149 -0.3921
12603TIP3   OH259299   2.931   1.602   4.219 -0.0015  0.6547  0.2555
12603TIP3    H159300   2.843   1.567   4.232  0.4331 -0.9748 -0.8770
12603TIP3    H259301   2.924   1.656   4.140 -0.3732  2.1311  1.2535
12604TIP3   OH259302   5.661   2.024   2.030  0.5244  0.4633 -0.2610
12604TIP3    H159303   5.626   2.110   2.006 -2.3256 -0.7073 -0.6711
12604TIP3    H259304   5.610   1.998   2.107  0.1433 -1.5460 -1.1347
12605TIP3   OH259305   4.457   3.747  14.863 -0.0583  0.3519 -0.2895
12605TIP3    H159306   4.521   3.774  14.797  1.3353  1.4083  1.3889
12605TIP3    H259307   4.431   3.828  14.906 -1.2815 -0.2615  0.1543
12606TIP3   OH259308   3.962   3.142   5.298  0.3068 -0.0065 -0.3161
12606TIP3    H159309   3.968   3.145   5.394 -0.4742 -2.5179 -0.1268
12606TIP3    H259310   4.052   3.130   5.268  0.4207 -0.3962  0.1724
12607TIP3   OH259311   3.508   1.861   3.421  0.3779 -0.3991 -0.0873
12607TIP3    H159312   3.534   1.770   3.436  0.0956 -0.1294  2.4362
12607TIP3    H259313   3.415   1.856   3.399  0.2128 -0.7160  0.6339
12608TIP3   OH259314   3.359   6.165   4.579  0.1308  0.1749  0.3021
12608TIP3    H159315   3.421   6.112   4.529 -0.4669  0.5790 -0.9165
12608TIP3    H259316   3.273   6.135   4.551 -0.2197  0.3912  1.1245
12609TIP3   OH259317   4.892   3.382   0.683 -0.1162 -0.5825 -0.5899
12609TIP3    H159318   4.851   3.388   0.770 -1.2546 -3.5008 -0.8215
12609TIP3    H259319   4.874   3.293   0.654  1.4315 -0.1248 -3.2792
12610TIP3   OH259320   0.032   3.641  16.648  0.6368 -0.6844  0.2363
12610TIP3    H159321  -0.008   3.660  16.733  1.2254 -2.6912  1.0285
12610TIP3    H259322   0.112   3.593  16.670  0.0347 -2.5987 -1.4695
12611TIP3   OH259323   1.589   2.458   4.645  0.1021  0.1627  0.0225
12611TIP3    H159324   1.494   2.451   4.653  0.2019 -0.0262  1.1943
12611TIP3    H259325   1.620   2.466   4.735  1.1517  0.9048 -0.3838
12612TIP3   OH259326   5.661   2.667  11.275  0.6401 -0.3131 -0.4493
12612TIP3    H159327   5.614   2.732  11.223 -0.7565 -1.1932 -0.3211
12612TIP3    H259328   5.716   2.620  11.212 -0.4502 -0.8567 -1.0163
12613TIP3   OH259329   1.560   2.118  10.478 -0.4840  0.2061  0.2365
12613TIP3    H159330   1.547   2.049  10.413 -1.9179 -0.2914  1.0064
12613TIP3    H259331   1.561   2.199  10.427 -0.0354 -0.2793 -0.5504
12614TIP3   OH259332   0.933   6.319  14.083 -0.0945  0.1198  0.4176
12614TIP3    H159333   0.956   6.234  14.045  1.6532  0.6915  0.1116
12614TIP3    H259334   1.015   6.368  14.084 -1.1349  1.9564  0.2442
12615TIP3   OH259335   4.735   0.309   0.862 -0.4872  0.4076  0.2963
12615TIP3    H159336   4.799   0.376   0.838  0.5653  0.1785  2.2481
12615TIP3    H259337   4.768   0.228   0.824 -0.1368  0.4605  0.4878
12616TIP3   OH259338   3.817   1.505   0.932  0.0488  0.1600  0.3341
12616TIP3    H159339   3.828   1.456   1.014 -1.1004 -1.2900 -0.3160
12616TIP3    H259340   3.723   1.501   0.914  0.1528  1.2603 -0.5853
12617TIP3   OH259341   2.369   6.003   4.566  0.1685  0.5618  0.2461
12617TIP3    H159342   2.370   6.099   4.564 -0.9592  0.5950  0.6300
12617TIP3    H259343   2.366   5.982   4.659 -3.6918  0.2753  0.2115
12618TIP3   OH259344   1.795   3.395  12.424  0.2543 -0.4267  0.0443
12618TIP3    H159345   1.824   3.486  12.430  1.7284 -0.9159  0.7602
12618TIP3    H259346   1.787   3.366  12.515 -1.1115 -0.7628 -0.1558
12619TIP3   OH259347   2.710   2.037   1.848  0.3213  0.2815 -0.5220
12619TIP3    H159348   2.787   2.082   1.883  0.0818  1.1946 -1.1240
12619TIP3    H259349   2.684   2.091   1.773 -2.6056  1.6622  1.3006
12620TIP3   OH259350   0.552   5.935  11.494 -0.3990 -0.3304 -0.0091
12620TIP3    H159351   0.504   5.902  11.418  0.3641 -0.2798 -0.5157
12620TIP3    H259352   0.602   6.009  11.461  0.2020 -0.5178  0.4637
12621TIP3   OH259353   5.936   4.928  15.624  0.0547 -0.0603  0.4608
12621TIP3    H159354   5.938   5.022  15.609 -1.3935 -0.1575 -0.4751
12621TIP3    H259355   6.012   4.912  15.680  1.2297  1.4315 -0.6003
12622TIP3   OH259356   6.782   5.830  11.036  0.0396 -0.3053 -0.0635
12622TIP3    H159357   6.813   5.739  11.031 -0.9706 -0.8662  2.4519
12622TIP3    H259358   6.704   5.831  10.980  0.4400 -0.7885 -0.6479
12623TIP3   OH259359   0.997   2.119  12.332 -0.2616 -0.6429  0.0447
12623TIP3    H159360   1.067   2.184  12.325  1.3363 -2.1805  0.9413
12623TIP3    H259361   1.025   2.047  12.276 -1.1979 -1.2272  0.3049
12624TIP3   OH259362   6.275   4.547  16.999 -0.1249 -0.3593  0.1198
12624TIP3    H159363   6.265   4.637  16.969 -2.2598 -0.2812  0.8575
12624TIP3    H259364   6.258   4.493  16.922  0.7358 -0.1417 -0.2255
12625TIP3   OH259365   1.971   1.398  12.308  0.4060 -0.4114  0.2493
12625TIP3    H159366   2.055   1.413  12.351 -0.9261  0.2984  2.7944
12625TIP3    H259367   1.940   1.315  12.344 -0.9016  0.3682  1.0054
12626TIP3   OH259368   4.642   2.004   5.664 -0.5370  0.2306  0.3348
12626TIP3    H159369   4.615   2.071   5.602  0.3693 -0.3983 -0.7836
12626TIP3    H259370   4.623   2.041   5.750  0.1385  2.0090 -0.2316
12627TIP3   OH259371   6.599   0.795   2.807 -0.3094  0.1193  0.2231
12627TIP3    H159372   6.566   0.790   2.896  0.7198 -2.6750  0.5556
12627TIP3    H259373   6.679   0.742   2.808  1.9051  3.0756 -1.5168
12628TIP3   OH259374   4.913   3.111  14.334 -0.2046  0.3329 -0.3669
12628TIP3    H159375   4.840   3.137  14.278 -0.9060  1.1499  0.8599
12628TIP3    H259376   4.872   3.062  14.406  0.6143 -0.3422 -0.3464
12629TIP3   OH259377   3.919   6.285  16.652  0.1081  0.4647 -0.0116
12629TIP3    H159378   3.980   6.316  16.585  0.6455 -0.3327  0.0938
12629TIP3    H259379   3.933   6.343  16.726 -0.0588  0.9751 -0.3732
12630TIP3   OH259380   5.495   5.978   3.835  0.3704  0.0694  0.4033
12630TIP3    H159381   5.487   5.883   3.842  1.6589 -0.2313 -1.4750
12630TIP3    H259382   5.575   5.999   3.884  0.2787  0.1324  0.5252
12631TIP3   OH259383   5.879   3.371   0.742  0.0166  0.5604 -0.2649
12631TIP3    H159384   5.856   3.369   0.649  0.1789  1.0653 -0.3182
12631TIP3    H259385   5.825   3.441   0.779  0.4403  0.8050 -0.1089
12632TIP3   OH259386   0.315   4.220  12.420  0.1037 -0.2438  0.3195
12632TIP3    H159387   0.253   4.178  12.479  0.6838 -1.0510  0.3712
12632TIP3    H259388   0.261   4.276  12.364 -0.5840 -0.3999  0.8102
12633TIP3   OH259389   0.864   4.740  15.875  0.0506  0.7857 -0.2630
12633TIP3    H159390   0.905   4.699  15.799 -0.9817 -0.4922 -0.1504
12633TIP3    H259391   0.874   4.676  15.946  2.0041  2.3919  1.0403
12634TIP3   OH259392   0.493   5.295  15.051 -0.1806 -0.1593 -0.2552
12634TIP3    H159393   0.426   5.238  15.014  0.2739  0.3158 -1.9170
12634TIP3    H259394   0.527   5.344  14.976 -0.2042  1.9462  1.0115
12635TIP3   OH259395   0.954   5.980  14.096  0.2382 -0.1457  0.0816
12635TIP3    H159396   0.946   5.884  14.098 -0.4490 -0.0740  1.1723
12635TIP3    H259397   0.924   6.004  14.008 -0.0545 -0.8911 -0.0355
12636TIP3   OH259398   4.718   0.659   3.285  0.0941 -0.0425  0.1486
12636TIP3    H159399   4.801   0.653   3.237  0.6189 -0.0188  1.0432
12636TIP3    H259400   4.652   0.631   3.221  0.9738 -1.8220 -0.0483
12637TIP3   OH259401   4.171   5.267  11.153 -1.1142 -0.4003 -0.5537
12637TIP3    H159402   4.158   5.192  11.211 -1.4701 -0.7183 -1.0362
12637TIP3    H259403   4.083   5.293  11.127 -0.9662 -0.1367 -0.7957
12638TIP3   OH259404   0.487   0.228   2.314 -0.4311 -0.1876 -0.1313
12638TIP3    H159405   0.509   0.197   2.402  3.1651  1.4821 -0.2784
12638TIP3    H259406   0.428   0.302   2.328  0.3872  0.2883  0.9277
12639TIP3   OH259407   2.027   1.192   4.167 -0.3966  0.4934 -0.6427
12639TIP3    H159408   2.019   1.251   4.242 -0.9431  0.9203 -1.0249
12639TIP3    H259409   2.069   1.114   4.202 -1.3859  0.3568  0.2778
12640TIP3   OH259410   4.284   0.154  15.114  0.2382 -0.0486  0.0214
12640TIP3    H159411   4.201   0.110  15.092  0.2223  0.6310 -1.3354
12640TIP3    H259412   4.340   0.083  15.147 -1.3621 -0.2860  2.4862
12641TIP3   OH259413   2.050   6.166   0.651  0.8015  0.4120  0.4182
12641TIP3    H159414   2.118   6.224   0.617 -0.0563  0.9624 -0.4194
12641TIP3    H259415   2.053   6.089   0.593 -1.4068  1.8249 -1.7715
12642TIP3   OH259416   4.890   5.651  17.015 -0.0210 -0.4000 -0.1884
12642TIP3    H159417   4.862   5.595  17.087 -2.9616  2.1735  0.8964
12642TIP3    H259418   4.815   5.653  16.955  0.4557  1.3000 -0.8141
12643TIP3   OH259419   4.305   5.925   4.058  0.4198  0.2462  0.1694
12643TIP3    H159420   4.384   5.939   4.110 -0.4271  0.4323  1.4244
12643TIP3    H259421   4.252   6.003   4.072 -0.0764  0.0541 -0.5362
12644TIP3   OH259422   5.275   3.179  16.129  0.2054  0.1660  0.0069
12644TIP3    H159423   5.275   3.112  16.197 -1.1832 -0.1473 -0.2564
12644TIP3    H259424   5.353   3.162  16.077 -0.0200 -1.1467  0.0580
12645TIP3   OH259425   2.929   6.732  12.983 -0.7310  0.1897 -0.3946
12645TIP3    H159426   2.941   6.792  13.057 -0.5342 -0.3241 -0.0044
12645TIP3    H259427   2.979   6.772  12.911  1.9779 -0.9848  0.6867
12646TIP3   OH259428   3.156   5.270  12.782 -0.2486 -0.4463  0.2471
12646TIP3    H159429   3.205   5.192  12.755 -2.1148 -1.6583  0.1358
12646TIP3    H259430   3.098   5.239  12.851 -0.1324  1.1726  1.1149
12647TIP3   OH259431   6.310   5.288  13.015 -0.2296  0.0596 -0.1055
12647TIP3    H159432   6.318   5.378  13.048  1.0066 -0.2758  0.5977
12647TIP3    H259433   6.304   5.298  12.920 -3.4017  1.0244  0.0926
12648TIP3   OH259434   2.137   0.555   5.950 -0.1560 -0.0123  0.3430
12648TIP3    H159435   2.204   0.512   6.002 -0.2907  1.5415  1.8835
12648TIP3    H259436   2.169   0.645   5.939 -1.1266  0.2527 -0.4909
12649TIP3   OH259437   1.207   4.815  11.195 -0.4114  0.0549 -0.5862
12649TIP3    H159438   1.239   4.816  11.104  0.1905 -0.9750 -0.4006
12649TIP3    H259439   1.170   4.902  11.208 -1.4399 -0.0905 -2.1517
12650TIP3   OH259440   2.582   5.469  15.554  0.1838  0.0456 -0.0191
12650TIP3    H159441   2.539   5.462  15.639  0.3289  2.2631  0.2794
12650TIP3    H259442   2.670   5.434  15.568 -0.5685 -1.9564  0.0530
12651TIP3   OH259443   0.035   0.902   3.517 -0.2485  0.0076 -0.3106
12651TIP3    H159444   0.055   0.994   3.504 -0.9162  0.7026  2.8583
12651TIP3    H259445   0.117   0.863   3.548  0.5819 -1.0099 -3.4223
12652TIP3   OH259446   0.768   3.600  10.574 -0.1537 -0.3114  0.2090
12652TIP3    H159447   0.733   3.656  10.505 -1.2701 -1.2031  0.0187
12652TIP3    H259448   0.825   3.538  10.529 -1.4230 -1.3339 -0.0405
12653TIP3   OH259449   2.985   5.661   1.889  0.1158  0.1616  0.3745
12653TIP3    H159450   2.901   5.620   1.908  0.0596 -0.8830 -1.7660
12653TIP3    H259451   2.971   5.706   1.806  1.3956  0.8407  0.5022
12654TIP3   OH259452   1.724   4.429   4.183  0.8745  0.2718 -0.1290
12654TIP3    H159453   1.761   4.375   4.113  0.5959  0.7769 -0.6824
12654TIP3    H259454   1.780   4.507   4.185  1.7473 -0.3572  1.1891
12655TIP3   OH259455   6.560   3.910  12.613 -0.0683  0.4018  0.8198
12655TIP3    H159456   6.626   3.972  12.581 -0.0861 -0.3253 -0.6671
12655TIP3    H259457   6.566   3.835  12.554 -0.5109 -0.7511  2.1901
12656TIP3   OH259458   6.200   3.985  13.568  0.2512  0.0706  0.6390
12656TIP3    H159459   6.112   3.996  13.604  0.1355  1.0141  0.1104
12656TIP3    H259460   6.205   3.892  13.545 -1.5496  0.4409 -1.6052
12657TIP3   OH259461   3.593   5.544  10.859  0.3246 -0.4375 -0.0768
12657TIP3    H159462   3.499   5.543  10.845  0.4863 -1.0171 -1.3570
12657TIP3    H259463   3.613   5.459  10.898  0.2584 -0.1086  0.6786
12658TIP3   OH259464   2.682   0.671  14.180  0.1494 -0.0420  0.3022
12658TIP3    H159465   2.760   0.617  14.171 -0.1587 -0.6354  1.0812
12658TIP3    H259466   2.692   0.713  14.266  0.8346  1.9042 -0.6429
12659TIP3   OH259467   5.268   5.634  15.753  0.2625  0.3355  0.4063
12659TIP3    H159468   5.216   5.596  15.682 -0.8055  0.5841  1.0313
12659TIP3    H259469   5.223   5.716  15.774  2.0684  1.5873 -0.3822
12660TIP3   OH259470   5.987   1.523  13.971 -0.0908  0.6118  0.0135
12660TIP3    H159471   6.033   1.451  14.014 -0.7705 -0.8602 -1.6511
12660TIP3    H259472   6.052   1.561  13.912  0.0846  1.0279  0.4571
12661TIP3   OH259473   5.769   5.565   2.288  0.0939 -0.0339 -0.4441
12661TIP3    H159474   5.764   5.517   2.371  0.6077  0.3328 -0.1981
12661TIP3    H259475   5.859   5.596   2.283 -0.2687  1.0426 -0.5298
12662TIP3   OH259476   3.203   0.120  13.742  0.4135 -0.3562  1.2679
12662TIP3    H159477   3.145   0.133  13.817 -0.7692  1.5924  0.0915
12662TIP3    H259478   3.198   0.026  13.724 -0.4226 -0.6219  2.7065
12663TIP3   OH259479   2.616   6.302  11.712 -0.0648  0.4993 -0.2677
12663TIP3    H159480   2.707   6.274  11.714 -0.3249 -0.3699  2.0089
12663TIP3    H259481   2.566   6.221  11.702 -0.6577  0.6307  1.3990
12664TIP3   OH259482   4.810   1.985   3.099  0.2240 -0.1055 -0.2400
12664TIP3    H159483   4.845   2.070   3.127 -1.3997  0.3365  0.5828
12664TIP3    H259484   4.749   2.006   3.029 -0.5135 -0.5288  0.2601
12665TIP3   OH259485   4.092   6.153  16.944 -0.5294 -0.2999  0.4616
12665TIP3    H159486   4.147   6.181  16.871  0.9910  0.8677  1.9609
12665TIP3    H259487   4.033   6.226  16.959 -0.7878 -0.5028  0.4318
12666TIP3   OH259488   5.236   1.356  12.000  0.1785  0.0679  0.7832
12666TIP3    H159489   5.268   1.338  12.088  1.3810 -1.5475  0.0822
12666TIP3    H259490   5.259   1.447  11.984  2.4149 -0.3592  1.1959
12667TIP3   OH259491   2.994   3.976  11.866 -0.2311 -0.1282  0.1320
12667TIP3    H159492   2.910   3.951  11.904 -1.5391  1.2376 -1.6651
12667TIP3    H259493   2.998   3.929  11.783  0.6172  0.0846  0.0415
12668TIP3   OH259494   0.955   5.416  12.710 -0.6160  0.2908 -0.2517
12668TIP3    H159495   0.915   5.504  12.710 -1.2367  0.0525  1.3525
12668TIP3    H259496   0.973   5.399  12.803  1.3450 -0.4796 -0.7346
12669TIP3   OH259497   1.733   5.123  17.076  0.4797 -0.3282 -0.5806
12669TIP3    H159498   1.792   5.056  17.110 -0.1663 -0.4850  0.2757
12669TIP3    H259499   1.772   5.206  17.105  0.9718 -0.3620 -1.1437
12670TIP3   OH259500   6.621   5.785   0.403  0.2597 -0.3981 -0.3737
12670TIP3    H159501   6.583   5.868   0.434  1.2725 -0.2049  0.3904
12670TIP3    H259502   6.621   5.728   0.479  1.5954 -0.3559 -0.3284
12671TIP3   OH259503   6.055   5.145   4.623  0.0814  0.5939  0.4366
12671TIP3    H159504   6.077   5.059   4.659 -2.3838 -0.6240 -0.7716
12671TIP3    H259505   5.961   5.154   4.637 -0.1387  2.0562 -1.5703
12672TIP3   OH259506   4.692   2.936   4.337 -0.1014  0.2511 -0.2288
12672TIP3    H159507   4.737   2.854   4.316 -0.7811 -0.1286 -0.2243
12672TIP3    H259508   4.761   3.001   4.339  0.2927 -0.1114 -1.4196
12673TIP3   OH259509   6.650   6.576   0.021  0.0100 -0.0693  0.1765
12673TIP3    H159510   6.669   6.547  -0.068 -0.5046 -0.5588  0.2233
12673TIP3    H259511   6.667   6.498   0.075  0.7884  0.3594  0.5666
12674TIP3   OH259512   6.725   2.522  13.769 -0.1284  0.1760  0.0916
12674TIP3    H159513   6.639   2.556  13.744 -1.1378 -0.1841  2.7741
12674TIP3    H259514   6.750   2.573  13.846  0.0175 -2.5788  2.0149
12675TIP3   OH259515   5.685   4.710   1.325  0.1616  0.3939 -0.3169
12675TIP3    H159516   5.641   4.728   1.241  1.0385 -0.1080 -0.9002
12675TIP3    H259517   5.664   4.786   1.379  2.4686  2.5431 -2.1828
12676TIP3   OH259518   5.824   5.287   4.021  0.1450 -0.2893 -0.2341
12676TIP3    H159519   5.882   5.219   3.987  0.5099  0.1033 -0.4090
12676TIP3    H259520   5.776   5.245   4.092  1.5490 -0.2926  0.7619
12677TIP3   OH259521   5.568   5.162  15.070 -0.2485 -0.4035 -0.1610
12677TIP3    H159522   5.560   5.241  15.017  1.7247  0.1063  0.2298
12677TIP3    H259523   5.510   5.099  15.027 -1.2546  0.9832 -0.9491
12678TIP3   OH259524   1.664   3.626   4.758 -0.3503 -0.1690  0.9225
12678TIP3    H159525   1.680   3.582   4.674  0.8729 -0.0506  1.0794
12678TIP3    H259526   1.728   3.588   4.817 -0.0302  1.0179  1.3585
12679TIP3   OH259527   0.809   0.440   0.346 -0.5051  0.5590  0.1944
12679TIP3    H159528   0.819   0.457   0.440  1.4275  0.7216  0.0000
12679TIP3    H259529   0.799   0.345   0.339 -2.3007  0.6647  0.6327
12680TIP3   OH259530   5.963   1.942   0.421  0.1668  0.4656 -0.6582
12680TIP3    H159531   5.913   2.023   0.432  0.5054  0.7911 -1.4364
12680TIP3    H259532   6.042   1.955   0.472 -0.2244  0.2279  0.0145
12681TIP3   OH259533   0.615   0.432  11.734 -0.1746  0.7085  0.5915
12681TIP3    H159534   0.645   0.415  11.823  0.9416  1.1985  0.3334
12681TIP3    H259535   0.665   0.510  11.706  1.1942 -0.7193 -1.2263
12682TIP3   OH259536   5.481   2.666   3.492 -0.1090 -0.2804 -0.0044
12682TIP3    H159537   5.525   2.742   3.456  0.1660 -0.8141 -0.8166
12682TIP3    H259538   5.407   2.651   3.433 -0.0628 -0.7397  0.0477
12683TIP3   OH259539   5.058   0.954  12.204  0.3505 -0.7721  0.3165
12683TIP3    H159540   5.104   1.000  12.273 -1.9809  1.5227  0.4875
12683TIP3    H259541   5.127   0.926  12.143  2.0607  1.2929  1.2003
12684TIP3   OH259542   6.519   3.623   1.926  0.1385 -0.0633  0.2295
12684TIP3    H159543   6.439   3.646   1.973 -0.5397 -0.1253 -0.8583
12684TIP3    H259544   6.507   3.659   1.838  0.3892 -1.8396 -0.5819
12685TIP3   OH259545   1.614   2.635  17.237 -0.0968 -0.6430 -0.7666
12685TIP3    H159546   1.707   2.655  17.229  0.0654 -0.2789  1.5059
12685TIP3    H259547   1.602   2.555  17.185  1.1485  0.0865 -2.2653
12686TIP3   OH259548   3.787   3.548  14.730  0.0071 -0.5180 -0.1891
12686TIP3    H159549   3.731   3.492  14.677  1.2119 -0.9027 -1.1176
12686TIP3    H259550   3.748   3.635  14.722 -0.2397 -0.7006 -1.1510
12687TIP3   OH259551   0.559   5.731  12.473  0.0818 -0.4874  0.1535
12687TIP3    H159552   0.531   5.811  12.518 -1.2874 -0.8289 -0.0611
12687TIP3    H259553   0.522   5.660  12.525 -1.1480 -0.8992 -1.2104
12688TIP3   OH259554   4.531   1.671   6.656  0.1879  0.0263 -0.0384
12688TIP3    H159555   4.551   1.579   6.672  1.2036 -0.2280 -2.4189
12688TIP3    H259556   4.517   1.677   6.562 -2.0015  1.9505  0.3328
12689TIP3   OH259557   6.185   5.585  15.277 -0.1399 -0.6151 -0.2028
12689TIP3    H159558   6.115   5.647  15.259 -0.4644 -1.1961 -0.9941
12689TIP3    H259559   6.263   5.640  15.290 -0.8842  0.0961  1.6329
12690TIP3   OH259560   4.927   0.010   2.840 -0.6976  0.6720  0.6517
12690TIP3    H159561   5.023   0.002   2.837 -0.7681 -0.6114  0.9439
12690TIP3    H259562   4.903   0.041   2.753 -0.1321 -0.9125 -0.1258
12691TIP3   OH259563   3.060   6.396  16.607  1.1037 -0.6662 -0.1207
12691TIP3    H159564   3.098   6.308  16.615  0.9737 -0.6206  1.1417
12691TIP3    H259565   3.008   6.407  16.687 -0.2736 -0.0985 -1.0654
12692TIP3   OH259566   2.640   2.565   5.635  0.4202  0.3011 -0.2014
12692TIP3    H159567   2.734   2.546   5.637  0.7863  1.7129 -1.8535
12692TIP3    H259568   2.608   2.521   5.557  0.2084  1.7902 -0.9821
12693TIP3   OH259569   3.186   0.077  14.461  0.0109 -0.1084 -0.1044
12693TIP3    H159570   3.226   0.086  14.374  0.6378 -1.1831  0.0553
12693TIP3    H259571   3.245   0.126  14.519  0.0959 -0.1560 -0.1502
12694TIP3   OH259572   1.077   3.501  12.158 -0.6693  0.1417 -0.1699
12694TIP3    H159573   1.150   3.559  12.140 -0.2511  0.4242  2.0697
12694TIP3    H259574   1.112   3.413  12.145  0.4677  0.2239  1.8512
12695TIP3   OH259575   2.971   3.935  12.620 -0.1516  0.6883 -0.5297
12695TIP3    H159576   3.046   3.927  12.561 -0.1875  1.2687 -0.6606
12695TIP3    H259577   2.911   3.995  12.575  0.1665  1.7705  0.4292
12696TIP3   OH259578   5.389   4.963   1.344 -0.2953  0.2534 -0.3553
12696TIP3    H159579   5.319   4.905   1.377  0.3459 -0.3624 -0.0529
12696TIP3    H259580   5.416   4.922   1.262  0.6480 -0.3035  0.2057
12697TIP3   OH259581   2.776   1.625   4.554  0.1644  0.4401 -0.0954
12697TIP3    H159582   2.849   1.670   4.512  0.9101  0.9068  1.6213
12697TIP3    H259583   2.802   1.533   4.556  0.4463  0.5202 -0.0308
12698TIP3   OH259584   6.029   4.933  14.549 -0.7890 -0.2602 -0.1293
12698TIP3    H159585   6.080   5.008  14.579  1.1816 -1.5927  0.0475
12698TIP3    H259586   5.951   4.934  14.604  1.1921 -0.7529  2.8956
12699TIP3   OH259587   1.967   0.671  16.855  0.2891 -0.2586 -0.7353
12699TIP3    H159588   1.887   0.718  16.832 -0.2538 -0.8317 -0.0499
12699TIP3    H259589   2.003   0.721  16.928 -1.5197 -2.1263  1.5779
12700TIP3   OH259590   4.154   4.386  12.524  0.1267 -0.5148 -0.2441
12700TIP3    H159591   4.109   4.390  12.439 -1.1853 -0.2146  0.4248
12700TIP3    H259592   4.238   4.345  12.505 -0.3896 -1.0178 -1.5843
12701TIP3   OH259593   1.478   1.563  11.461 -0.1717 -0.3717  0.1923
12701TIP3    H159594   1.401   1.507  11.467 -0.2153 -0.4677 -0.9734
12701TIP3    H259595   1.502   1.560  11.368  1.1314 -0.2033  0.5115
12702TIP3   OH259596   4.083   6.673   2.514 -0.2257 -0.1491  0.1748
12702TIP3    H159597   4.158   6.622   2.483  0.2316  0.6278 -0.0262
12702TIP3    H259598   4.091   6.673   2.609  0.3988  0.4739  0.1260
12703TIP3   OH259599   3.465   4.739   1.583  0.8462 -0.1014  0.3856
12703TIP3    H159600   3.369   4.746   1.577  0.9564  0.7060 -1.0094
12703TIP3    H259601   3.484   4.647   1.568  0.4512  0.2889 -3.5448
12704TIP3   OH259602   1.684   6.618  11.144  0.0276 -0.3357 -0.9012
12704TIP3    H159603   1.747   6.582  11.082  0.0666  0.5090 -1.3626
12704TIP3    H259604   1.600   6.610  11.099  0.1890  1.3513 -1.6000
12705TIP3   OH259605   3.265   6.433   4.426  0.3468 -0.5943  0.3626
12705TIP3    H159606   3.316   6.439   4.507 -0.0004  1.4736  0.4950
12705TIP3    H259607   3.208   6.357   4.439  2.4651 -2.2355  0.7032
12706TIP3   OH259608   1.111   5.039  13.132  0.4786 -0.6148 -0.7133
12706TIP3    H159609   1.088   5.010  13.044  0.1158 -2.1511 -0.1320
12706TIP3    H259610   1.027   5.048  13.177  0.6973 -0.4400 -0.3366
12707TIP3   OH259611   3.447   0.197   0.068 -0.1684 -0.2206 -0.0314
12707TIP3    H159612   3.354   0.193   0.090 -0.6343  0.0701 -1.7447
12707TIP3    H259613   3.459   0.130   0.001  0.5498  0.6103 -0.7651
12708TIP3   OH259614   1.316   5.270  13.762 -0.0046 -0.0458 -0.2952
12708TIP3    H159615   1.354   5.265  13.850 -1.5281  1.3932  0.4987
12708TIP3    H259616   1.233   5.317  13.774 -0.9149 -1.0042 -2.3043
12709TIP3   OH259617   0.869   3.009   4.263  0.4051 -0.0029 -0.3826
12709TIP3    H159618   0.858   3.042   4.352 -1.4583  0.1475 -0.6394
12709TIP3    H259619   0.864   3.087   4.208  0.4949 -0.2215 -0.6996
12710TIP3   OH259620   0.858   6.011   0.514  0.2614  0.2185 -0.2926
12710TIP3    H159621   0.878   6.047   0.428  2.9132  1.6255  0.8034
12710TIP3    H259622   0.833   6.087   0.567  0.5356 -0.3323  0.6597
12711TIP3   OH259623   3.403   0.630  13.225  0.0879  0.2184  0.1090
12711TIP3    H159624   3.324   0.682  13.241  1.3493  2.2736 -0.0553
12711TIP3    H259625   3.459   0.648  13.300 -0.3544 -2.9810  1.4087
12712TIP3   OH259626   2.332   5.373   2.325 -0.4220 -0.4464  0.2874
12712TIP3    H159627   2.255   5.429   2.334 -0.2706 -0.0070 -0.8779
12712TIP3    H259628   2.404   5.434   2.305  0.2072 -0.8644  1.1926
12713TIP3   OH259629   5.651   3.354  10.567  0.4616 -0.4612 -0.0081
12713TIP3    H159630   5.712   3.392  10.503  1.2803  0.0530  1.0465
12713TIP3    H259631   5.578   3.415  10.571  1.0003  0.1625  0.4613
12714TIP3   OH259632   0.866   3.714  11.774 -0.2709  0.0239  0.4802
12714TIP3    H159633   0.916   3.646  11.820 -0.6538 -0.1898  0.5872
12714TIP3    H259634   0.783   3.672  11.752  0.3353 -0.2517 -1.4562
12715TIP3   OH259635   3.598   5.627  15.455  0.1269  0.1707 -0.2204
12715TIP3    H159636   3.597   5.608  15.361 -0.0323  0.8077 -0.3522
12715TIP3    H259637   3.690   5.636  15.477  0.1344  0.7632 -0.4762
12716TIP3   OH259638   5.635   0.786  10.681 -0.5416 -0.7137 -0.1989
12716TIP3    H159639   5.639   0.794  10.586 -2.3154  1.6531 -0.1674
12716TIP3    H259640   5.721   0.818  10.711 -0.8202  0.8508 -0.9673
12717TIP3   OH259641   4.532   4.531  17.176  0.4437 -0.1048  0.1287
12717TIP3    H159642   4.617   4.571  17.193  0.1398 -0.0183  1.6093
12717TIP3    H259643   4.477   4.604  17.146  0.7089 -0.0311 -0.1833
12718TIP3   OH259644   4.955   6.593  13.259  0.0588  0.8649  0.0519
12718TIP3    H159645   4.903   6.643  13.322  0.0915 -1.0488  1.7264
12718TIP3    H259646   4.926   6.503  13.272 -0.3152  0.4408 -3.1405
12719TIP3   OH259647   4.978   5.977  14.873  0.9305 -0.3681  0.3420
12719TIP3    H159648   5.012   5.898  14.913 -1.8023 -1.2542  1.1560
12719TIP3    H259649   4.883   5.974  14.890  0.5165  2.3262 -0.8906
12720TIP3   OH259650   4.158   0.834   1.961 -0.0312 -0.7137  0.0685
12720TIP3    H159651   4.197   0.764   2.013  1.4452  0.2232  0.2851
12720TIP3    H259652   4.086   0.866   2.015  0.6552 -0.6274  0.9644
12721TIP3   OH259653   0.203   2.998  13.907 -0.0257  0.2638  0.7350
12721TIP3    H159654   0.163   3.085  13.902 -2.1715 -0.7165 -1.5264
12721TIP3    H259655   0.293   3.012  13.877 -0.8152  1.5113 -1.2993
12722TIP3   OH259656   3.206   2.370  13.702  0.2128 -0.4214 -0.3610
12722TIP3    H159657   3.186   2.378  13.609 -2.2016  0.8944  0.1820
12722TIP3    H259658   3.286   2.421  13.714  1.1548 -1.4717 -1.8492
12723TIP3   OH259659   3.758   5.279  16.794 -0.6318 -0.7443  0.2443
12723TIP3    H159660   3.794   5.195  16.767  1.4793  0.1708  0.0234
12723TIP3    H259661   3.772   5.337  16.719  1.7611  0.8286  1.7669
12724TIP3   OH259662   5.806   4.475  14.860 -1.0251 -0.1531 -0.4128
12724TIP3    H159663   5.823   4.533  14.935  0.7524  1.7987 -2.2031
12724TIP3    H259664   5.763   4.531  14.796 -1.2285 -1.4163 -1.4062
12725TIP3   OH259665   0.628   5.856  13.223  0.1303  0.0913  0.6462
12725TIP3    H159666   0.613   5.762  13.214  0.3779  0.1643 -0.7827
12725TIP3    H259667   0.573   5.895  13.155 -0.2474  1.0156  1.4615
12726TIP3   OH259668   3.063   6.751   5.445  0.3748  0.4099 -0.2595
12726TIP3    H159669   3.082   6.805   5.521 -0.7023 -0.1500  0.4213
12726TIP3    H259670   2.971   6.767   5.426  0.8375  1.2724 -2.0526
12727TIP3   OH259671   6.478   6.693  15.909 -0.0754  0.4181  0.0706
12727TIP3    H159672   6.528   6.719  15.987  0.3004 -0.3376  0.0872
12727TIP3    H259673   6.500   6.760  15.844  1.8945 -0.5212 -0.2886
12728TIP3   OH259674   4.591   6.677   5.846 -0.3344  0.2312  0.1556
12728TIP3    H159675   4.653   6.750   5.838  1.0122 -0.8439  0.3121
12728TIP3    H259676   4.522   6.697   5.783  1.6521  0.0639 -2.2347
12729TIP3   OH259677   3.524   6.320  11.985  0.2496  0.0494 -0.5134
12729TIP3    H159678   3.498   6.369  12.063  1.0025  0.0946 -0.2774
12729TIP3    H259679   3.489   6.371  11.912  0.7241  0.7631 -0.2547
12730TIP3   OH259680   3.233   2.735  12.578  0.1854 -0.3342 -0.3594
12730TIP3    H159681   3.225   2.700  12.489  0.2562 -0.3250 -0.3691
12730TIP3    H259682   3.190   2.670  12.633  0.3127 -0.4330 -0.3780
12731TIP3   OH259683   1.947   6.037   5.568 -0.2800 -0.1765 -0.3920
12731TIP3    H159684   2.023   6.091   5.591 -1.3534  1.3369 -0.2044
12731TIP3    H259685   1.899   6.091   5.505 -1.5049 -0.8399 -0.0487
12732TIP3   OH259686   3.646   0.603   5.311 -0.1015  0.3351 -0.3693
12732TIP3    H159687   3.553   0.608   5.335 -0.2247  1.0700 -0.9951
12732TIP3    H259688   3.656   0.516   5.273 -0.7038  0.5378 -1.0053
12733TIP3   OH259689   2.802   1.463   5.843 -0.3084 -0.3776 -0.4504
12733TIP3    H159690   2.802   1.377   5.884 -1.3581 -0.0138  0.3613
12733TIP3    H259691   2.783   1.446   5.751  0.2025 -1.0583 -0.4409
12734TIP3   OH259692   3.791   3.928   1.509 -0.0201 -0.2633  0.2018
12734TIP3    H159693   3.740   4.007   1.531  0.9480  0.2859  0.5724
12734TIP3    H259694   3.739   3.882   1.444 -0.9167  0.3550  0.4719
12735TIP3   OH259695   3.705   0.079  11.557  0.2091  0.1462  0.2890
12735TIP3    H159696   3.662   0.144  11.501 -0.5366 -0.6867 -0.1190
12735TIP3    H259697   3.789   0.063  11.514 -0.3851 -0.5421 -0.6690
12736TIP3   OH259698   6.503   6.135   3.478  0.2638 -0.2136 -0.6059
12736TIP3    H159699   6.535   6.182   3.401 -0.6130  0.6412 -0.4673
12736TIP3    H259700   6.479   6.204   3.540  0.3002 -0.8775  0.1665
12737TIP3   OH259701   3.413   6.784  14.921  0.4509  0.3013  0.4055
12737TIP3    H159702   3.338   6.770  14.864  0.6266  0.9784 -0.0075
12737TIP3    H259703   3.384   6.755  15.008 -0.5684  1.3294  0.4277
12738TIP3   OH259704   5.457   2.953  17.029  0.2640  0.0790 -0.3217
12738TIP3    H159705   5.533   2.901  17.001  0.5407  0.8459 -1.0610
12738TIP3    H259706   5.382   2.909  16.991  0.3654 -0.4757  0.1013
12739TIP3   OH259707   5.087   1.101  14.040  0.4370  0.1137 -0.3514
12739TIP3    H159708   5.118   1.012  14.058 -0.6421 -0.0811  0.7420
12739TIP3    H259709   5.146   1.135  13.973  1.6335 -0.9764  0.1209
12740TIP3   OH259710   5.769   2.314   4.445 -0.0294  0.0520  0.3942
12740TIP3    H159711   5.749   2.284   4.356  0.2717  0.2265  0.2623
12740TIP3    H259712   5.850   2.267   4.468  2.1431  2.8195 -0.9408
12741TIP3   OH259713   0.022   2.384   3.335  0.0930  0.3031 -0.8217
12741TIP3    H159714  -0.052   2.411   3.389 -0.6894 -0.8736 -1.2615
12741TIP3    H259715   0.062   2.311   3.384  2.2561  2.1780  0.4238
12742TIP3   OH259716   4.088   4.823   0.143 -0.2453 -0.1112 -0.0361
12742TIP3    H159717   4.159   4.882   0.170 -1.0103  0.1654  1.4737
12742TIP3    H259718   4.068   4.773   0.222 -1.5043 -0.4300 -0.5452
12743TIP3   OH259719   4.215   4.035   0.280 -0.4092  0.1231 -0.3364
12743TIP3    H159720   4.267   3.985   0.217 -2.0975 -2.4859  0.1936
12743TIP3    H259721   4.136   4.059   0.232 -0.5412  0.4214  0.0276
12744TIP3   OH259722   6.775   3.467   3.425  0.6943 -0.2699  0.1393
12744TIP3    H159723   6.705   3.528   3.399  0.2107 -1.0037 -0.3232
12744TIP3    H259724   6.807   3.502   3.508  0.5587  0.7221 -0.2128
12745TIP3   OH259725   3.448   2.769  17.039  0.3449 -0.3191  0.4104
12745TIP3    H159726   3.481   2.801  17.122  0.4418 -0.9824  0.6329
12745TIP3    H259727   3.523   2.726  16.997 -0.0280 -1.1501  0.5764
12746TIP3   OH259728   5.791   6.297   4.769 -0.3185  0.5730 -0.2871
12746TIP3    H159729   5.874   6.250   4.766 -0.4102  0.3964 -0.0816
12746TIP3    H259730   5.809   6.380   4.724  0.1993  0.8861  0.4781
12747TIP3   OH259731   0.208   6.619  13.593 -0.7081 -0.5194  0.0555
12747TIP3    H159732   0.259   6.652  13.519 -0.8221 -0.9523 -0.2185
12747TIP3    H259733   0.255   6.650  13.670 -0.6929  0.1029 -0.1936
12748TIP3   OH259734   3.411   2.591  11.225  0.4832  0.5636  0.5341
12748TIP3    H159735   3.383   2.641  11.148  1.0793  2.4505  1.4592
12748TIP3    H259736   3.438   2.506  11.191 -0.3557  0.9444 -1.1713
12749TIP3   OH259737   2.982   2.851   5.587  0.5115  0.4545  0.3977
12749TIP3    H159738   2.957   2.885   5.501  0.8987 -1.4118 -0.5212
12749TIP3    H259739   2.909   2.872   5.644 -0.5367  0.2430 -0.8249
12750TIP3   OH259740   4.879   4.876  13.345 -0.3152 -0.1026  0.2456
12750TIP3    H159741   4.895   4.782  13.339  0.5267  0.0932 -0.8351
12750TIP3    H259742   4.806   4.892  13.285  0.3004  0.0982 -0.4568
12751TIP3   OH259743   6.527   1.003   2.623  0.3010 -0.2375 -0.2481
12751TIP3    H159744   6.535   0.933   2.688 -1.9219 -0.5360 -0.2125
12751TIP3    H259745   6.616   1.037   2.613  0.7356 -0.0659  3.0921
12752TIP3   OH259746   3.933   4.407   0.207  0.4212 -0.3389 -0.3191
12752TIP3    H159747   3.932   4.493   0.165 -3.6881  1.6531  3.1098
12752TIP3    H259748   4.016   4.405   0.255  0.1049  2.4204  0.5246
12753TIP3   OH259749   2.457   3.952  13.029  0.5212 -0.1326 -0.5557
12753TIP3    H159750   2.496   3.909  13.104  0.9050 -2.0142 -1.7667
12753TIP3    H259751   2.364   3.961  13.051  0.2424 -2.4047 -0.5504
12754TIP3   OH259752   3.427   4.829   6.311  0.0486 -0.0794 -0.1236
12754TIP3    H159753   3.385   4.743   6.313  0.2949 -0.2203 -0.8829
12754TIP3    H259754   3.362   4.887   6.271  0.6062 -0.3296 -1.4417
12755TIP3   OH259755   4.238   1.277  16.195  0.5132 -0.2223  0.3324
12755TIP3    H159756   4.312   1.309  16.247 -0.0354  0.8577  0.4719
12755TIP3    H259757   4.261   1.300  16.105 -1.0589  3.1779  0.6450
12756TIP3   OH259758   5.883   4.726   4.248 -0.0223  0.4012 -0.4575
12756TIP3    H159759   5.930   4.681   4.318 -0.4803 -2.0652 -1.6036
12756TIP3    H259760   5.950   4.750   4.185 -0.0107 -1.5718 -1.2833
12757TIP3   OH259761   4.073   2.692  10.836 -0.6194 -0.3755 -0.3625
12757TIP3    H159762   4.168   2.677  10.828 -0.4764 -0.5045  1.2458
12757TIP3    H259763   4.045   2.629  10.902 -1.5586  0.6939  0.2735
12758TIP3   OH259764   4.302   0.664   1.190 -0.2576  0.1755  0.4890
12758TIP3    H159765   4.242   0.699   1.124 -0.2881  1.5762  1.2164
12758TIP3    H259766   4.316   0.573   1.165  1.2921  1.1354 -2.6406
12759TIP3   OH259767   4.190   0.224   3.667  0.3995  0.2777 -0.6567
12759TIP3    H159768   4.103   0.262   3.674  0.6171  0.8956 -1.1449
12759TIP3    H259769   4.245   0.296   3.634  1.2810  0.1824  0.5202
12760TIP3   OH259770   6.451   0.069   0.167 -0.5317 -0.2550  0.1855
12760TIP3    H159771   6.511   0.072   0.093  1.5419  0.9419  1.7908
12760TIP3    H259772   6.393   0.145   0.155  1.2218  1.2718  0.8191
12761TIP3   OH259773   1.476   0.154   3.313 -0.1569 -0.8549  0.3303
12761TIP3    H159774   1.529   0.201   3.249 -0.1908  1.2116  1.7032
12761TIP3    H259775   1.420   0.096   3.261 -0.3444  0.8825 -1.5325
12762TIP3   OH259776   3.968   1.940  10.581 -1.0138 -0.0276  0.4626
12762TIP3    H159777   4.004   2.015  10.534 -1.4095  0.5734  1.1169
12762TIP3    H259778   3.881   1.928  10.544  0.0106 -1.9278 -1.6334
12763TIP3   OH259779   2.693   0.208  13.011  0.3607  0.0985 -0.3836
12763TIP3    H159780   2.731   0.185  13.095 -0.1457  1.3071  0.2030
12763TIP3    H259781   2.620   0.266  13.033  0.2044  0.4100 -1.6561
12764TIP3   OH259782   1.717   5.152   6.638 -0.2709 -0.7140  0.3939
12764TIP3    H159783   1.797   5.204   6.637 -1.7266  1.6725 -0.4646
12764TIP3    H259784   1.683   5.161   6.727 -1.0806  0.8140 -0.0394
12765TIP3   OH259785   6.730   1.609   5.103  0.1036 -0.6744  0.1790
12765TIP3    H159786   6.756   1.672   5.170  0.9098 -0.8064  0.0019
12765TIP3    H259787   6.639   1.590   5.122 -0.4917  1.3430 -0.3740
12766TIP3   OH259788   1.691   2.044  13.801  0.1988  0.0255 -0.9148
12766TIP3    H159789   1.662   1.993  13.877  0.5551 -1.4944 -1.7641
12766TIP3    H259790   1.694   2.134  13.833 -1.1120 -0.3706  0.4456
12767TIP3   OH259791   5.041   3.348  13.353 -0.0928 -0.0655  0.0750
12767TIP3    H159792   5.106   3.352  13.423  1.0009  0.7113 -0.9537
12767TIP3    H259793   4.967   3.302  13.392  0.8641 -0.5118  1.4387
12768TIP3   OH259794   2.441   0.448   0.149 -0.4939  0.2535  0.4437
12768TIP3    H159795   2.517   0.417   0.199 -0.3039  0.4186  0.2600
12768TIP3    H259796   2.365   0.419   0.200 -0.3036  0.2844  0.7499
12769TIP3   OH259797   3.115   2.327   4.900 -0.1719  0.1538 -0.3081
12769TIP3    H159798   3.033   2.339   4.948  1.2640  0.8740  2.1227
12769TIP3    H259799   3.168   2.404   4.923  2.1399 -1.5016  0.2982
12770TIP3   OH259800   1.357   3.639  14.509  0.1780  0.2316  0.1339
12770TIP3    H159801   1.313   3.676  14.432  0.9717 -1.6203 -1.2898
12770TIP3    H259802   1.338   3.546  14.505 -0.0409  0.1222  2.4363
12771TIP3   OH259803   6.395   4.182  13.646  0.1901 -0.5230 -0.5015
12771TIP3    H159804   6.342   4.106  13.622  0.8853 -1.6312  1.3368
12771TIP3    H259805   6.335   4.238  13.696  0.0029 -0.4137 -0.8442
12772TIP3   OH259806   3.969   6.404  12.899 -0.3104  0.2976  0.8378
12772TIP3    H159807   3.953   6.493  12.869 -1.2561 -0.0639  0.2378
12772TIP3    H259808   4.033   6.414  12.970 -0.7905  1.4972  1.1256
12773TIP3   OH259809   0.230   0.796   4.433  0.7169  0.3294  0.2091
12773TIP3    H159810   0.232   0.865   4.367 -0.7897 -0.0450 -0.2724
12773TIP3    H259811   0.260   0.718   4.387 -2.2048 -0.3958 -0.7223
12774TIP3   OH259812   5.125   0.835   5.599  0.5200 -0.1160  0.0283
12774TIP3    H159813   5.201   0.797   5.642  0.9370  0.2430 -0.3753
12774TIP3    H259814   5.157   0.859   5.512 -0.1174 -0.1714 -0.2229
12775TIP3   OH259815   2.622   1.057  15.354 -0.0421 -0.3032 -0.8079
12775TIP3    H159816   2.528   1.042  15.355 -0.2112  0.4522 -2.3531
12775TIP3    H259817   2.641   1.087  15.265  1.5334  0.3173 -0.3056
12776TIP3   OH259818   2.517   6.413   5.286  0.3520 -0.1604 -0.7586
12776TIP3    H159819   2.471   6.426   5.204  1.5303  0.4767 -1.3489
12776TIP3    H259820   2.541   6.501   5.315  0.0096 -0.3766  0.2485
12777TIP3   OH259821   2.986   6.097  16.324 -0.0076 -0.1178 -0.0807
12777TIP3    H159822   3.071   6.097  16.368  0.3062 -1.1540 -0.6585
12777TIP3    H259823   2.933   6.160  16.375  0.5631 -0.7209  1.3220
12778TIP3   OH259824   5.138   1.283   2.330 -0.2731  0.3167 -0.2973
12778TIP3    H159825   5.154   1.288   2.236  1.6294  0.5366  0.0008
12778TIP3    H259826   5.138   1.189   2.350  2.0094  0.2838 -0.1631
12779TIP3   OH259827   6.584   4.457   4.590  0.8525 -0.2127  0.4797
12779TIP3    H159828   6.620   4.539   4.556  1.1930 -0.6081 -0.1374
12779TIP3    H259829   6.646   4.390   4.562 -0.8983 -1.0882 -1.6757
12780TIP3   OH259830   6.012   0.223   5.129 -0.4234 -0.4727  0.2808
12780TIP3    H159831   5.979   0.253   5.044 -1.6747  1.2626  1.3156
12780TIP3    H259832   5.935   0.186   5.173 -0.0882 -0.1462  1.1677
12781TIP3   OH259833   5.491   2.019  12.747 -0.2648  0.0484 -0.1563
12781TIP3    H159834   5.474   2.095  12.802 -0.2811 -1.3426  1.8893
12781TIP3    H259835   5.558   2.049  12.685 -1.7497  2.2691 -0.8303
12782TIP3   OH259836   6.106   3.271  11.382  0.2920 -0.2268 -0.2246
12782TIP3    H159837   6.194   3.306  11.370  0.4724 -0.4089  0.5622
12782TIP3    H259838   6.049   3.347  11.371  0.4549 -0.3080 -1.8811
12783TIP3   OH259839   4.822   6.513  13.680 -0.6556  0.1695 -0.0427
12783TIP3    H159840   4.877   6.437  13.662  0.5409  1.7009 -3.5599
12783TIP3    H259841   4.844   6.537  13.770  0.2674 -2.4931  0.5399
12784TIP3   OH259842   5.706   3.822   2.519  0.2837 -0.0767 -0.1650
12784TIP3    H159843   5.721   3.829   2.424  0.7584 -1.0037 -0.1639
12784TIP3    H259844   5.626   3.770   2.527 -0.3005  0.8073 -0.0613
12785TIP3   OH259845   2.191   6.677   6.409 -0.3108  0.4077 -0.3461
12785TIP3    H159846   2.137   6.619   6.463 -0.6275 -0.0665 -1.1532
12785TIP3    H259847   2.271   6.626   6.391 -0.7612  0.0275 -1.3954
12786TIP3   OH259848   6.096   6.528   5.654  0.6754  0.0722 -0.3000
12786TIP3    H159849   6.072   6.612   5.693  2.1387  0.0350  0.7884
12786TIP3    H259850   6.117   6.473   5.730  1.1648 -0.8096 -1.0627
12787TIP3   OH259851   6.000   0.105  12.996  0.3792 -0.3561  0.0121
12787TIP3    H159852   6.077   0.150  12.960 -0.2107 -0.2492 -1.1581
12787TIP3    H259853   5.948   0.175  13.036  0.0682 -0.1592 -0.7150
12788TIP3   OH259854   3.512   2.994   4.933  0.1861  0.1975  0.0986
12788TIP3    H159855   3.460   3.075   4.934 -2.5829 -1.4344 -0.9699
12788TIP3    H259856   3.574   3.006   4.861 -0.1823  1.3537 -0.0472
12789TIP3   OH259857   5.928   5.796   2.820 -0.7122  0.9643  0.1864
12789TIP3    H159858   5.839   5.822   2.797 -0.6826  1.1441  0.2739
12789TIP3    H259859   5.932   5.802   2.915 -0.2287  2.2043  0.1038
12790TIP3   OH259860   4.298   1.911  15.732  0.0736  0.6737 -0.5442
12790TIP3    H159861   4.304   1.903  15.827 -0.2418  1.4713 -0.4449
12790TIP3    H259862   4.291   2.006  15.716 -1.4478  0.4823 -1.2509
12791TIP3   OH259863   0.185   1.364  16.908  0.3639 -0.5596 -0.7371
12791TIP3    H159864   0.257   1.337  16.850  0.0457 -0.7075 -1.0668
12791TIP3    H259865   0.106   1.351  16.856 -0.0167 -1.7151  0.0917
12792TIP3   OH259866   4.961   6.507  14.745 -0.0888  0.0047 -0.1259
12792TIP3    H159867   4.889   6.563  14.774  0.0644 -0.1739  0.6174
12792TIP3    H259868   5.039   6.552  14.775  0.0449 -0.5161  0.3080
12793TIP3   OH259869   1.220   4.696   1.467 -0.2025 -0.2799  0.6102
12793TIP3    H159870   1.205   4.724   1.377  0.4949  4.0750  1.6043
12793TIP3    H259871   1.135   4.709   1.510 -0.3125 -1.5289  0.8110
12794TIP3   OH259872   3.420   2.947  13.291  0.1514  0.1677  0.0937
12794TIP3    H159873   3.357   2.876  13.279  1.2068 -0.5377 -1.5276
12794TIP3    H259874   3.366   3.023  13.311 -1.2945 -0.2639 -1.8530
12795TIP3   OH259875   1.750   4.436  12.006 -0.5703 -0.3973 -0.3384
12795TIP3    H159876   1.761   4.531  12.002  2.6484 -0.6786 -1.4307
12795TIP3    H259877   1.706   4.414  11.923 -2.1160  0.1580  0.3017
12796TIP3   OH259878   5.094   4.696   1.639 -0.0898  0.2232 -0.0176
12796TIP3    H159879   5.047   4.701   1.556 -0.3798  0.5695  0.1632
12796TIP3    H259880   5.186   4.685   1.614 -0.4533 -2.6503 -0.3822
12797TIP3   OH259881   3.320   3.950  13.660  0.3428 -0.5171 -0.6812
12797TIP3    H159882   3.264   3.891  13.610  1.5460 -1.0601 -1.4436
12797TIP3    H259883   3.299   4.037  13.626 -2.7743 -0.1827  1.7281
12798TIP3   OH259884   2.690   0.556  13.110  0.5913 -0.0677 -0.1414
12798TIP3    H159885   2.768   0.594  13.068  1.9998 -0.6888  1.7511
12798TIP3    H259886   2.705   0.571  13.203 -0.2517 -2.6152  0.4637
12799TIP3   OH259887   4.542   2.252  13.338 -0.2798 -0.3927 -0.1993
12799TIP3    H159888   4.470   2.213  13.388  0.8218 -1.1100  0.8841
12799TIP3    H259889   4.618   2.200  13.361  0.5108  0.0089 -1.7455
12800TIP3   OH259890   2.224   3.639  10.636 -0.0744 -0.1624 -0.0429
12800TIP3    H159891   2.248   3.718  10.686 -0.5846 -0.3047  0.4392
12800TIP3    H259892   2.206   3.573  10.703  0.6598 -0.7884 -0.4517
12801TIP3   OH259893   3.914   4.423  12.646  0.0686  0.0959 -0.5780
12801TIP3    H159894   3.998   4.418  12.601 -0.2650 -0.1947 -1.1844
12801TIP3    H259895   3.849   4.409  12.577 -0.4998  0.9527 -0.2255
12802TIP3   OH259896   6.262   6.199  11.699  0.0505 -0.4163  0.6912
12802TIP3    H159897   6.245   6.244  11.616  0.8049 -1.3368  0.0009
12802TIP3    H259898   6.220   6.253  11.766  1.3798  1.6214 -0.0222
12803TIP3   OH259899   6.526   3.953   3.483 -0.3011 -0.2472 -0.3718
12803TIP3    H159900   6.501   3.886   3.419  0.1934  0.7653 -1.6844
12803TIP3    H259901   6.619   3.967   3.467  0.2634 -1.1752  1.7662
12804TIP3   OH259902   1.026   4.789  12.805  0.2991 -0.0311  0.2820
12804TIP3    H159903   1.070   4.868  12.838 -0.8175  0.9730 -0.5381
12804TIP3    H259904   1.002   4.811  12.715  1.6374 -2.0286 -0.6135
12805TIP3   OH259905   3.638   5.387  14.216  0.4335 -0.1840  0.5399
12805TIP3    H159906   3.656   5.312  14.160  1.7090 -0.5454  1.3812
12805TIP3    H259907   3.546   5.406  14.202  0.3585 -1.2184 -0.5151
12806TIP3   OH259908   6.143   3.113   2.660  0.0471 -0.1514 -0.1359
12806TIP3    H159909   6.177   3.073   2.740  0.1523 -2.0980 -1.0876
12806TIP3    H259910   6.214   3.170   2.630  1.2799 -1.7946 -0.4586
12807TIP3   OH259911   5.553   3.718  13.701 -0.6162  0.1614 -0.5308
12807TIP3    H159912   5.533   3.744  13.790  0.4860  0.6509 -0.4124
12807TIP3    H259913   5.476   3.669  13.672 -0.8484 -0.2880  0.7945
12808TIP3   OH259914   2.791   0.968   0.024 -0.3206  0.5536  0.5024
12808TIP3    H159915   2.762   1.007  -0.058 -0.8371  1.3458  1.0450
12808TIP3    H259916   2.711   0.954   0.074  0.0420  0.7590  1.1581
12809TIP3   OH259917   4.036   2.927  11.149 -0.2088 -0.2112  0.1369
12809TIP3    H159918   3.955   2.880  11.166  0.1616 -0.8791  0.0810
12809TIP3    H259919   4.101   2.859  11.134  0.6531  0.2757  1.4546
12810TIP3   OH259920   1.899   1.429   4.201  0.1185 -0.2112  0.2462
12810TIP3    H159921   1.806   1.424   4.180  0.1872 -1.2392  0.1257
12810TIP3    H259922   1.940   1.460   4.120  0.0214 -1.0597 -0.1397
12811TIP3   OH259923   0.856   3.877  16.976  1.0250 -0.0414  0.1999
12811TIP3    H159924   0.838   3.793  16.934 -0.8611 -0.2306  1.2809
12811TIP3    H259925   0.825   3.866  17.066  0.9119  1.7406  0.4217
12812TIP3   OH259926   4.927   0.899  15.741 -0.4342 -0.1340 -0.0701
12812TIP3    H159927   5.002   0.864  15.789  0.3411  2.5288  0.8181
12812TIP3    H259928   4.853   0.847  15.772  0.8639 -2.4138 -0.4847
12813TIP3   OH259929   4.807   6.734  11.955 -0.2391 -0.0871  0.5642
12813TIP3    H159930   4.720   6.771  11.945 -0.5142 -0.7088  0.6334
12813TIP3    H259931   4.817   6.719  12.049 -0.0145  0.0844  0.5698
12814TIP3   OH259932   3.555   2.996   2.675 -0.0445  0.6574 -0.1834
12814TIP3    H159933   3.495   3.017   2.747 -0.9420  0.0972 -0.7309
12814TIP3    H259934   3.500   3.002   2.597 -0.2391 -2.8278 -0.4650
12815TIP3   OH259935   6.348   5.948  14.151 -0.8186  0.0671 -0.3891
12815TIP3    H159936   6.430   5.933  14.104  0.1856  0.8140  1.0452
12815TIP3    H259937   6.323   5.863  14.186  1.2748  0.3671  2.1077
12816TIP3   OH259938   1.473   5.132  13.027  0.5153  0.7316 -0.1593
12816TIP3    H159939   1.513   5.215  13.052 -2.3822  2.4155 -0.6857
12816TIP3    H259940   1.424   5.104  13.104 -0.2849  0.6507 -0.6901
12817TIP3   OH259941   5.937   5.891  16.276  0.3377  0.2575  0.5981
12817TIP3    H159942   5.956   5.970  16.227 -2.9738  1.0136  0.3099
12817TIP3    H259943   5.946   5.820  16.212 -1.7715  1.0143 -0.6387
12818TIP3   OH259944   0.224   2.004   0.835  0.1098 -0.3382  0.3978
12818TIP3    H159945   0.210   1.967   0.922 -0.3349 -1.5459 -0.1680
12818TIP3    H259946   0.319   2.013   0.827  0.1494 -0.1341  1.0331
12819TIP3   OH259947   0.180   3.707  14.454  0.4714 -0.1078 -0.1269
12819TIP3    H159948   0.212   3.632  14.403  0.4033  1.5040 -2.7145
12819TIP3    H259949   0.109   3.672  14.506 -0.7347 -1.5716 -2.5648
12820TIP3   OH259950   0.269   1.610  13.980  0.1304  0.0672 -0.8055
12820TIP3    H159951   0.258   1.625  14.074  0.2426  0.0428 -0.7878
12820TIP3    H259952   0.358   1.641  13.961 -0.0223  0.4035 -0.9716
12821TIP3   OH259953   6.555   2.544  14.194  0.5067  0.1590 -0.1347
12821TIP3    H159954   6.472   2.520  14.235  0.0902 -1.1206 -1.6629
12821TIP3    H259955   6.622   2.501  14.248  0.0803 -0.0649  0.2202
12822TIP3   OH259956   6.105   1.029  14.139 -0.2297  0.6632  0.3398
12822TIP3    H159957   6.070   0.992  14.220 -0.9520  0.5744 -0.0023
12822TIP3    H259958   6.170   0.966  14.110  0.8990  1.2717  1.4618
12823TIP3   OH259959   1.050   6.562  10.726  0.0201 -0.3055 -0.3723
12823TIP3    H159960   1.010   6.578  10.640  1.5239 -0.4335 -1.1314
12823TIP3    H259961   1.093   6.477  10.717 -0.2076 -0.5493  0.6871
12824TIP3   OH259962   4.454   3.223   0.329 -0.5718 -0.4012  0.0796
12824TIP3    H159963   4.430   3.132   0.313  0.5878 -0.9487  1.1941
12824TIP3    H259964   4.538   3.234   0.284 -0.7471  0.1451 -0.1203
12825TIP3   OH259965   4.509   6.740  14.758  0.3572 -0.1131  0.2120
12825TIP3    H159966   4.516   6.828  14.719 -0.6504  0.9287  2.2258
12825TIP3    H259967   4.415   6.723  14.762  0.4297 -0.2793  1.8914
12826TIP3   OH259968   0.868   5.803   2.375 -0.0698 -0.0914  0.4166
12826TIP3    H159969   0.815   5.724   2.376  1.6146 -1.2741  0.2325
12826TIP3    H259970   0.887   5.820   2.283  1.4183 -0.8013  0.5644
12827TIP3   OH259971   1.058   0.256  16.952 -0.1848  0.8008  0.8198
12827TIP3    H159972   1.000   0.327  16.980  0.2925  1.3365  0.4754
12827TIP3    H259973   1.138   0.300  16.923 -0.0146  0.1492  0.2663
12828TIP3   OH259974   5.530   3.060   1.933 -0.5314 -0.2285 -0.1035
12828TIP3    H159975   5.579   3.053   2.014  0.9910  0.0422 -0.9695
12828TIP3    H259976   5.582   3.012   1.869 -2.7166 -2.2353 -0.5216
12829TIP3   OH259977   5.880   4.602  15.408 -0.2263  0.2451  0.5823
12829TIP3    H159978   5.797   4.556  15.398 -0.5944  1.0880 -0.3111
12829TIP3    H259979   5.857   4.690  15.436  0.3601  0.5035  0.2788
12830TIP3   OH259980   3.514   2.509  12.292 -0.2819  0.0946 -0.0035
12830TIP3    H159981   3.531   2.508  12.198 -0.4067  1.9201 -0.0731
12830TIP3    H259982   3.575   2.574  12.327 -0.1475 -0.6455  1.2087
12831TIP3   OH259983   3.279   0.354   6.351 -0.2029  0.4259 -0.1105
12831TIP3    H159984   3.256   0.319   6.265 -0.7751 -0.7430  0.4980
12831TIP3    H259985   3.274   0.449   6.340 -0.3657  0.2918 -1.3375
12832TIP3   OH259986   1.531   5.500   6.135 -0.5108 -0.6224 -0.5503
12832TIP3    H159987   1.503   5.489   6.044 -0.7002 -0.9225 -0.4558
12832TIP3    H259988   1.464   5.555   6.175  1.1629  2.2732 -1.4015
12833TIP3   OH259989   3.651   0.628   0.394 -0.1611 -0.2762  0.2749
12833TIP3    H159990   3.594   0.699   0.425  2.1707  1.9310 -0.1385
12833TIP3    H259991   3.668   0.649   0.303  1.3382 -0.8075  0.3986
12834TIP3   OH259992   5.951   5.917   4.682  0.0419  0.4119 -0.7671
12834TIP3    H159993   5.998   5.835   4.699  1.1043  1.3439  1.1219
12834TIP3    H259994   6.020   5.982   4.671 -0.7704  0.9428 -3.2309
12835TIP3   OH259995   4.075   1.759   1.928  0.4094  0.5116  0.2527
12835TIP3    H159996   4.030   1.676   1.941  2.1904 -0.6953 -0.8129
12835TIP3    H259997   4.126   1.771   2.009  0.2124  0.5143  0.3755
12836TIP3   OH259998   5.250   5.546  11.114 -0.3653 -0.3301  0.2951
12836TIP3    H159999   5.234   5.589  11.197  1.9135  0.0291  0.6172
12836TIP3    H260000   5.258   5.617  11.051  0.6508 -0.4176  0.3104
12837TIP3   OH260001   0.398   2.511   4.983 -0.9128  0.0927 -0.4018
12837TIP3    H160002   0.310   2.490   4.951 -0.9802 -0.3230  0.0533
12837TIP3    H260003   0.416   2.444   5.049 -0.5405  0.6081  0.0187
12838TIP3   OH260004   5.910   5.233  15.457  0.1104  0.6880 -0.2043
12838TIP3    H160005   5.990   5.276  15.426  1.0623 -0.7753  0.1377
12838TIP3    H260006   5.864   5.301  15.506  0.4350  1.9563 -1.5879
12839TIP3   OH260007   0.689   1.301  16.707 -0.2695  0.0722  0.7676
12839TIP3    H160008   0.673   1.263  16.794 -2.3494 -0.5776  0.1637
12839TIP3    H260009   0.752   1.241  16.667 -1.3867 -1.2212  0.8584
12840TIP3   OH260010   4.649   2.424  14.675 -0.3454  0.1672 -0.0402
12840TIP3    H160011   4.719   2.379  14.629 -1.5476 -0.8672 -0.8996
12840TIP3    H260012   4.575   2.364  14.673 -1.3023  1.2546  0.7869
12841TIP3   OH260013   3.105   5.657   4.275 -0.3467 -0.7715 -0.2575
12841TIP3    H160014   3.073   5.641   4.186  0.4365 -1.5632 -0.4204
12841TIP3    H260015   3.188   5.609   4.279 -0.0641 -0.2287  0.7046
12842TIP3   OH260016   6.377   1.261   2.528  0.3345  0.4882  0.1071
12842TIP3    H160017   6.286   1.266   2.558  0.8554  1.3356  1.6827
12842TIP3    H260018   6.393   1.168   2.514 -1.2746  0.4660 -1.9111
12843TIP3   OH260019   2.903   0.576   4.745 -0.7898 -0.1631 -0.5713
12843TIP3    H160020   2.813   0.561   4.716 -1.5227 -0.0346  1.5188
12843TIP3    H260021   2.895   0.635   4.819  1.0507 -0.0319 -0.4414
12844TIP3   OH260022   1.565   1.018   0.185  0.0409 -0.2204 -0.2690
12844TIP3    H160023   1.506   1.046   0.116 -2.6647 -0.8386  1.5966
12844TIP3    H260024   1.509   1.010   0.262  2.3018 -2.3278  1.3244
12845TIP3   OH260025   4.374   5.632   4.355  0.0909  0.5086 -0.4065
12845TIP3    H160026   4.419   5.583   4.287 -0.9615  0.3264 -0.9947
12845TIP3    H260027   4.444   5.674   4.405  0.9981 -1.2055 -0.1742
12846TIP3   OH260028   1.012   1.257  11.605 -0.0339 -0.4113 -0.4629
12846TIP3    H160029   1.060   1.278  11.525 -0.4797  2.4440 -0.0818
12846TIP3    H260030   1.079   1.251  11.673  0.1096 -0.2427 -0.5889
12847TIP3   OH260031   6.301   0.612   3.009  0.7614  0.1789  0.3253
12847TIP3    H160032   6.332   0.576   2.926 -1.5931  1.0656 -1.0103
12847TIP3    H260033   6.365   0.680   3.031  1.7351 -0.4760 -0.4146
12848TIP3   OH260034   5.419   6.562   0.527 -0.5525  0.3941 -0.0664
12848TIP3    H160035   5.334   6.604   0.539 -0.2603  0.5287  1.8904
12848TIP3    H260036   5.482   6.624   0.565  0.0811 -0.8996  1.1106
12849TIP3   OH260037   4.509   6.554  16.922 -0.3881  0.1707 -0.3691
12849TIP3    H160038   4.539   6.463  16.920  1.1810  0.6433 -2.6413
12849TIP3    H260039   4.535   6.587  17.008  1.0427 -0.9156 -0.3522
12850TIP3   OH260040   0.731   2.419   3.915 -0.4971  0.2637 -0.7440
12850TIP3    H160041   0.673   2.491   3.890 -0.8404 -0.2244 -1.3722
12850TIP3    H260042   0.711   2.403   4.008 -0.1724  1.1959 -0.5019
12851TIP3   OH260043   1.239   0.013   4.525 -0.2069 -0.2443 -0.7583
12851TIP3    H160044   1.277   0.100   4.531 -1.6282  0.3068  1.6310
12851TIP3    H260045   1.177   0.018   4.452 -0.2228  0.7221 -0.6837
12852TIP3   OH260046   1.197   0.388   0.507  0.0364 -0.0858  0.4655
12852TIP3    H160047   1.110   0.350   0.520  0.1842 -0.0143  1.8595
12852TIP3    H260048   1.196   0.468   0.561  0.9218 -0.0274  0.4031
12853TIP3   OH260049   5.963   6.284   2.396 -0.0250 -0.3795 -0.4688
12853TIP3    H160050   5.874   6.253   2.379  0.0357 -0.3896 -0.7759
12853TIP3    H260051   5.960   6.321   2.485 -0.4966  0.2198 -0.7311
12854TIP3   OH260052   1.672   3.467  10.480 -0.1468 -0.2795  0.2420
12854TIP3    H160053   1.691   3.439  10.391  0.6353  0.9280  0.0010
12854TIP3    H260054   1.732   3.416  10.535  1.5994  1.1382 -0.2321
12855TIP3   OH260055   1.505   1.566   5.501  0.0844 -0.2509 -0.0353
12855TIP3    H160056   1.600   1.579   5.506 -0.0627  0.4422  1.6417
12855TIP3    H260057   1.468   1.639   5.551 -1.1208 -2.5693  2.7450
12856TIP3   OH260058   6.722   4.344   1.621  0.5923  0.4768  0.4822
12856TIP3    H160059   6.635   4.372   1.593  0.8093  0.0359 -0.6956
12856TIP3    H260060   6.709   4.311   1.710 -0.4503  0.3800  0.3082
12857TIP3   OH260061   4.321   4.911  14.381  0.0982 -0.0334 -0.0140
12857TIP3    H160062   4.398   4.966  14.370 -0.8970  1.6480  0.9756
12857TIP3    H260063   4.352   4.833  14.426  1.0590  1.0563  1.2656
12858TIP3   OH260064   2.638   3.364   0.087  0.2339  0.3732  0.2846
12858TIP3    H160065   2.549   3.334   0.106  0.7128 -0.1077  1.9443
12858TIP3    H260066   2.687   3.348   0.168  1.9892  0.0748 -0.7751
12859TIP3   OH260067   6.111   5.218   1.414  0.3191  0.5113 -0.0254
12859TIP3    H160068   6.054   5.187   1.485  0.1769 -1.0881 -0.7716
12859TIP3    H260069   6.185   5.157   1.415  0.9808  1.2922 -0.4124
12860TIP3   OH260070   0.840   0.417  17.008 -0.3710 -0.2028  0.0117
12860TIP3    H160071   0.838   0.494  17.064  0.4832 -0.5908  0.5921
12860TIP3    H260072   0.757   0.420  16.960  0.9657  2.9855 -2.5737
12861TIP3   OH260073   1.308   2.812   5.884 -0.4808  0.1171  0.7646
12861TIP3    H160074   1.382   2.870   5.863  0.5690 -0.6534  2.1915
12861TIP3    H260075   1.348   2.728   5.906 -1.6139  0.0772  3.0419
12862TIP3   OH260076   4.006   2.957  12.208 -0.2535  0.1859 -0.1268
12862TIP3    H160077   4.080   3.011  12.179  0.7982 -1.0873  0.0939
12862TIP3    H260078   3.986   2.989  12.296  2.0261 -1.3846  1.0398
12863TIP3   OH260079   4.700   5.371   0.616  0.1566 -0.1101 -0.3870
12863TIP3    H160080   4.793   5.358   0.635  0.0994  1.2454  0.9807
12863TIP3    H260081   4.697   5.386   0.521  1.6265  1.9000 -0.1863
12864TIP3   OH260082   6.398   5.393  11.288  0.2516 -0.2149 -0.4509
12864TIP3    H160083   6.343   5.377  11.211 -3.7039 -0.2205  2.0727
12864TIP3    H260084   6.487   5.377  11.257 -0.9185  0.7330 -5.2218
12865TIP3   OH260085   4.384   2.676  16.866 -0.6142  0.2543 -0.2609
12865TIP3    H160086   4.396   2.720  16.950  1.8926 -0.9429  0.0793
12865TIP3    H260087   4.313   2.613  16.882 -0.6671  0.5518  0.7388
12866TIP3   OH260088   6.209   3.874  15.439 -0.5436 -0.0961  0.0078
12866TIP3    H160089   6.115   3.865  15.454 -0.6330  0.0759 -0.4371
12866TIP3    H260090   6.224   3.830  15.355 -0.0636 -0.9880  0.5565
12867TIP3   OH260091   3.131   4.694  11.636 -0.2973  0.1410 -0.1807
12867TIP3    H160092   3.166   4.780  11.663 -0.1305  0.0514 -0.1078
12867TIP3    H260093   3.037   4.702  11.649 -0.2770  0.2946 -0.1161
12868TIP3   OH260094   2.772   5.240  12.496 -0.0469  0.3704  0.6370
12868TIP3    H160095   2.860   5.274  12.510 -0.9663  3.1310  0.3900
12868TIP3    H260096   2.769   5.216  12.403  0.8228 -1.0876  0.9652
12869TIP3   OH260097   3.791   6.348   3.255  0.0934  0.0852 -0.2967
12869TIP3    H160098   3.748   6.344   3.340  0.3274 -2.2675 -0.2283
12869TIP3    H260099   3.719   6.365   3.193 -0.3450  0.0736  0.2004
12870TIP3   OH260100   3.107   1.840  14.361  0.6189 -0.3054 -0.2149
12870TIP3    H160101   3.062   1.759  14.336 -0.9559  0.9430 -1.7094
12870TIP3    H260102   3.063   1.909  14.311  2.1588  1.4534  0.6865
12871TIP3   OH260103   0.219   2.713  14.457  0.1287  0.3545  0.3250
12871TIP3    H160104   0.209   2.803  14.425 -0.3452 -0.2166 -1.2066
12871TIP3    H260105   0.241   2.662  14.379 -1.4705 -1.1847  0.8112
12872TIP3   OH260106   2.413   1.734   2.619  0.2460 -0.1166 -0.0994
12872TIP3    H160107   2.442   1.712   2.530 -0.4971  0.7593 -0.5791
12872TIP3    H260108   2.376   1.822   2.610  1.0774  0.4087  1.2889
12873TIP3   OH260109   4.920   4.510  13.892 -0.5478  0.1091  0.3482
12873TIP3    H160110   4.829   4.531  13.874 -0.7942 -0.4292  0.9201
12873TIP3    H260111   4.969   4.548  13.819 -1.2072  0.5745  0.1437
12874TIP3   OH260112   6.288   6.066   3.787 -0.0850 -0.1648 -0.5482
12874TIP3    H160113   6.340   5.999   3.742 -0.2856 -2.1233  1.8647
12874TIP3    H260114   6.338   6.085   3.866 -0.8598  1.3478 -0.4036
12875TIP3   OH260115   2.209   3.960  14.918  0.3015  0.1289  0.0549
12875TIP3    H160116   2.133   3.925  14.870  0.8399 -1.6052  0.3933
12875TIP3    H260117   2.262   4.002  14.850  0.1677 -0.7158 -0.6014
12876TIP3   OH260118   6.437   3.807  11.296  0.0913 -0.3364 -0.0953
12876TIP3    H160119   6.361   3.806  11.237 -2.0184  0.0584  2.4430
12876TIP3    H260120   6.452   3.899  11.314  3.2128 -0.1131 -2.7853
12877TIP3   OH260121   4.840   1.702   1.339  0.0612 -0.2116 -0.4756
12877TIP3    H160122   4.856   1.659   1.254 -1.7234  0.7968 -1.3714
12877TIP3    H260123   4.773   1.767   1.320  0.6390  1.0096  1.4542
12878TIP3   OH260124   1.452   0.472  13.642 -0.6412  0.3368  0.0295
12878TIP3    H160125   1.433   0.561  13.612  0.8830  0.6348 -0.1461
12878TIP3    H260126   1.367   0.435  13.664 -1.2987  1.8462  0.1318
12879TIP3   OH260127   4.963   6.466   2.909  0.3443 -0.6909 -0.0029
12879TIP3    H160128   4.933   6.376   2.899 -2.4856  0.2089 -0.5745
12879TIP3    H260129   4.973   6.498   2.819  0.4458 -0.1972  0.1787
12880TIP3   OH260130   0.337   3.978   5.866  1.2352 -0.1184  0.0307
12880TIP3    H160131   0.276   3.908   5.888  2.4391 -1.1939  0.0857
12880TIP3    H260132   0.294   4.058   5.897  0.3369 -0.9506  1.0302
12881TIP3   OH260133   0.393   1.368   2.348  0.2394  0.5050 -0.1203
12881TIP3    H160134   0.466   1.388   2.289  1.9638 -1.3602  1.2302
12881TIP3    H260135   0.415   1.413   2.429 -0.1327 -0.0172  0.2753
12882TIP3   OH260136   0.322   5.631  16.756 -0.5408  0.4237 -0.0534
12882TIP3    H160137   0.268   5.556  16.778  0.3592 -0.1740  0.1780
12882TIP3    H260138   0.366   5.607  16.675  2.1917 -0.6873  1.6212
12883TIP3   OH260139   4.545   0.037  13.661  0.2358  0.2949 -0.3076
12883TIP3    H160140   4.516   0.005  13.746 -0.9779 -3.4265 -1.9502
12883TIP3    H260141   4.474   0.094  13.632 -0.6316 -0.5785  0.0444
12884TIP3   OH260142   2.513   0.314  15.211 -0.3988 -0.0912 -0.2697
12884TIP3    H160143   2.548   0.352  15.131  2.9503 -1.7960  0.2172
12884TIP3    H260144   2.510   0.220  15.194  0.9570 -0.5567  1.6904
12885TIP3   OH260145   6.423   6.232  11.981 -0.1057 -0.1221  0.6333
12885TIP3    H160146   6.453   6.188  11.901  1.0340  1.6027  0.0511
12885TIP3    H260147   6.444   6.170  12.051  0.5772 -0.9137 -0.2387
12886TIP3   OH260148   0.888   1.063  12.183  0.2815 -0.3548 -0.2271
12886TIP3    H160149   0.903   0.970  12.203 -1.3734 -0.1546  2.4607
12886TIP3    H260150   0.976   1.100  12.175  1.0147 -1.8092  0.5551
12887TIP3   OH260151   1.731   3.045  13.664  0.1390  0.5088  0.6415
12887TIP3    H160152   1.646   3.007  13.640  0.0131 -0.1932  2.0536
12887TIP3    H260153   1.715   3.087  13.749  1.3236 -0.1330  1.2077
12888TIP3   OH260154   5.476   6.646  15.173  0.3200  0.0730 -0.5886
12888TIP3    H160155   5.396   6.680  15.132  0.3418  1.9120  0.7632
12888TIP3    H260156   5.445   6.598  15.250  0.4752 -0.1637 -0.6714
12889TIP3   OH260157   2.917   3.155  10.985  0.2085 -0.1782  0.2646
12889TIP3    H160158   2.852   3.140  11.054 -0.0968  1.5121  0.3945
12889TIP3    H260159   2.982   3.212  11.026  0.7836 -0.3291 -0.4274
12890TIP3   OH260160   3.588   4.200   4.646  0.9980  0.1213 -0.2374
12890TIP3    H160161   3.515   4.155   4.602  1.9476 -0.7808 -0.9321
12890TIP3    H260162   3.648   4.129   4.670  1.4001  0.8029  0.8043
12891TIP3   OH260163   0.931   2.943  14.757 -0.0331 -0.2559 -1.0149
12891TIP3    H160164   0.877   2.927  14.835 -0.2667 -1.0427 -1.3324
12891TIP3    H260165   1.018   2.911  14.780 -0.1852 -0.8011 -1.1956
12892TIP3   OH260166   1.116   0.872  12.706 -0.0386  0.1955 -0.3743
12892TIP3    H160167   1.045   0.901  12.649  0.9426  0.6346 -1.3878
12892TIP3    H260168   1.195   0.881  12.654  0.7878 -0.2461  0.7558
12893TIP3   OH260169   1.039   6.199   4.878  0.0326 -0.2587 -0.3537
12893TIP3    H160170   1.099   6.125   4.886  0.8967  0.5739  2.1106
12893TIP3    H260171   0.952   6.160   4.882  0.4429 -1.2634 -0.8494
12894TIP3   OH260172   3.296   4.743   2.546  0.5807  0.4286 -0.0167
12894TIP3    H160173   3.377   4.704   2.580  0.3274  0.5128  0.6887
12894TIP3    H260174   3.252   4.670   2.502  0.2817 -0.0182  0.9878
12895TIP3   OH260175   2.991   3.325   0.882  0.3367  0.3725 -0.2835
12895TIP3    H160176   2.935   3.383   0.933 -2.2754 -1.0495 -1.3293
12895TIP3    H260177   3.000   3.368   0.797  0.5048  0.3933 -0.2565
12896TIP3   OH260178   1.080   0.139  16.452 -0.4324 -0.5142 -0.7711
12896TIP3    H160179   1.058   0.178  16.367 -1.3741 -0.1056 -0.3544
12896TIP3    H260180   1.107   0.213  16.506 -1.5483 -0.5112 -0.1905
12897TIP3   OH260181   3.652   1.862   2.114  0.2573  0.1462  0.1420
12897TIP3    H160182   3.650   1.956   2.130 -0.7469  0.0099  0.9402
12897TIP3    H260183   3.692   1.825   2.193 -1.6377 -0.2634  0.9847
12898TIP3   OH260184   3.997   3.710   4.750 -0.1462  0.0003 -0.2128
12898TIP3    H160185   3.919   3.654   4.749 -0.7060  0.7602  0.5089
12898TIP3    H260186   4.052   3.673   4.818 -0.1313 -0.1875 -0.3260
12899TIP3   OH260187   3.345   3.749  15.342 -0.6508  0.2543 -0.0499
12899TIP3    H160188   3.301   3.668  15.365 -1.9899  0.9972  0.1310
12899TIP3    H260189   3.399   3.727  15.267 -0.2911 -0.9956  0.5536
12900TIP3   OH260190   2.395   2.236  14.578  0.0410  0.2503  0.0602
12900TIP3    H160191   2.457   2.163  14.577 -0.7269 -0.4241  0.1725
12900TIP3    H260192   2.338   2.220  14.503 -1.9322 -0.9036  1.7027
12901TIP3   OH260193   5.931   4.373   3.032 -0.2399 -0.2498  0.2785
12901TIP3    H160194   5.851   4.386   3.083 -1.0293 -0.9916 -0.7318
12901TIP3    H260195   5.903   4.382   2.941  1.4288  2.6337 -0.0708
12902TIP3   OH260196   0.372   3.022  16.353  0.0542  0.5568  0.3147
12902TIP3    H160197   0.399   2.936  16.322  0.1854  0.5521  0.4423
12902TIP3    H260198   0.422   3.084  16.300  1.2520  0.5412  1.3794
12903TIP3   OH260199   1.087   1.804   1.177 -0.0784 -0.6376  0.2751
12903TIP3    H160200   1.158   1.859   1.209 -0.1307 -0.0709 -0.5419
12903TIP3    H260201   1.051   1.852   1.102 -0.3461 -1.6230 -0.2527
12904TIP3   OH260202   4.964   6.606  15.057  0.0455  0.1161 -0.0887
12904TIP3    H160203   5.019   6.683  15.043  0.9266 -0.6665 -1.0185
12904TIP3    H260204   4.879   6.629  15.018  0.0276  0.9292  0.4142
12905TIP3   OH260205   2.072   0.630   1.812  0.1773  0.0818  0.5755
12905TIP3    H160206   2.088   0.545   1.852 -0.1318 -0.8547 -1.1963
12905TIP3    H260207   2.127   0.631   1.733 -1.4344  0.5962 -0.6106
12906TIP3   OH260208   3.009   4.502   0.564  0.5112 -0.0896 -0.1711
12906TIP3    H160209   2.952   4.439   0.607  0.6041  0.2308  0.4366
12906TIP3    H260210   2.967   4.587   0.580  1.2545  0.1705  0.4539
12907TIP3   OH260211   1.029   1.000  15.105 -0.2542  0.6802 -0.6434
12907TIP3    H160212   0.964   1.069  15.110 -1.3071 -0.1819 -1.6900
12907TIP3    H260213   1.050   0.993  15.011 -1.7480 -1.7504 -0.9001
12908TIP3   OH260214   3.943   0.191  12.307  0.2710  0.8287  0.5022
12908TIP3    H160215   3.866   0.231  12.348 -1.0312 -0.8867 -0.1507
12908TIP3    H260216   3.982   0.262  12.255 -1.8696  1.3260 -0.5185
12909TIP3   OH260217   2.035   2.003   3.973  0.0122 -0.2594  0.2206
12909TIP3    H160218   2.020   2.001   4.067  1.1720  2.0247  0.5317
12909TIP3    H260219   1.952   2.031   3.935 -0.4405 -1.1331  0.5311
12910TIP3   OH260220   5.787   1.157  11.914  0.1469  0.0590 -0.3191
12910TIP3    H160221   5.768   1.247  11.887 -0.2393 -0.1035 -0.6071
12910TIP3    H260222   5.864   1.133  11.863  0.1927  0.1961 -0.3139
12911TIP3   OH260223   1.407   3.382   1.611  0.6346 -0.4404  0.0998
12911TIP3    H160224   1.387   3.371   1.704 -0.0468 -0.8563 -0.0832
12911TIP3    H260225   1.501   3.401   1.608  0.3185  1.5249  1.0084
12912TIP3   OH260226   3.833   2.683  14.911 -0.2995 -0.1056  0.1529
12912TIP3    H160227   3.890   2.639  14.974 -0.0559  0.3516  0.2537
12912TIP3    H260228   3.889   2.701  14.836 -0.9551 -2.0504 -0.8728
12913TIP3   OH260229   2.881   1.373   3.561 -0.0683 -0.0889  0.2565
12913TIP3    H160230   2.954   1.315   3.586 -0.7407 -0.8962  0.3884
12913TIP3    H260231   2.912   1.461   3.583  1.1782 -0.3365 -0.4354
12914TIP3   OH260232   0.205   5.549  11.804  0.4682  0.3268  0.2595
12914TIP3    H160233   0.208   5.456  11.825 -0.1062  0.1892 -0.2228
12914TIP3    H260234   0.290   5.568  11.764  0.9508  0.2315  1.2319
12915TIP3   OH260235   2.427   0.465  14.685 -0.1622  0.6898 -0.1382
12915TIP3    H160236   2.368   0.539  14.700 -0.2489  0.3560  1.3030
12915TIP3    H260237   2.412   0.406  14.759  0.3554 -0.4837 -0.9299
12916TIP3   OH260238   4.977   5.337  15.716  0.0916 -0.3199 -0.2480
12916TIP3    H160239   4.999   5.307  15.804 -1.2593 -0.3343  0.1139
12916TIP3    H260240   4.978   5.432  15.721  1.8801 -0.2839 -0.7350
12917TIP3   OH260241   0.102   4.887  14.951 -0.3956 -0.1350  0.3335
12917TIP3    H160242   0.016   4.925  14.969  0.2876  1.6045  0.1427
12917TIP3    H260243   0.105   4.877  14.856 -0.8317 -1.3844  0.4318
12918TIP3   OH260244   3.626   4.708  12.949 -0.6780  0.5131 -0.3063
12918TIP3    H160245   3.632   4.655  12.870  2.1788 -1.6913  1.2121
12918TIP3    H260246   3.553   4.670  12.998  1.2218 -2.1339  0.6855
12919TIP3   OH260247   3.083   5.047   4.409  0.3037  0.0619  0.0192
12919TIP3    H160248   3.129   5.114   4.461 -0.9674  1.0577 -0.0924
12919TIP3    H260249   3.104   4.965   4.454  1.3726  0.5893  0.5500
12920TIP3   OH260250   2.335   5.132   1.492  0.6402 -0.5803  0.1552
12920TIP3    H160251   2.375   5.107   1.409 -3.0993 -1.0745 -1.7064
12920TIP3    H260252   2.362   5.063   1.553  3.1641 -0.4184 -0.6457
12921TIP3   OH260253   6.713   3.211  12.965  0.2598 -0.2259  0.0156
12921TIP3    H160254   6.730   3.119  12.943  1.3084  0.0294 -0.3132
12921TIP3    H260255   6.773   3.260  12.908 -0.6927  0.6918 -0.2229
12922TIP3   OH260256   4.927   3.725  17.164  0.2353 -0.2487 -0.0075
12922TIP3    H160257   5.022   3.715  17.172  0.0157 -1.4341  1.4330
12922TIP3    H260258   4.891   3.641  17.194 -1.3000  0.5129  0.3786
12923TIP3   OH260259   0.818   2.706  10.898  0.3144  0.4765  0.1623
12923TIP3    H160260   0.867   2.736  10.822 -0.7294 -0.2958 -0.8583
12923TIP3    H260261   0.777   2.784  10.934  0.4510  0.7800 -0.3443
12924TIP3   OH260262   6.258   3.221  14.850  0.3763 -0.3042 -0.1767
12924TIP3    H160263   6.194   3.169  14.802  1.2965 -0.5359 -1.1847
12924TIP3    H260264   6.299   3.276  14.783  1.9564 -0.9056  0.2536
12925TIP3   OH260265   2.843   2.176   1.144 -0.0306  0.1053 -0.0389
12925TIP3    H160266   2.767   2.165   1.201 -1.4484  0.1981 -1.8261
12925TIP3    H260267   2.910   2.120   1.182 -1.5911 -1.4368  0.5565
12926TIP3   OH260268   6.100   6.322  15.475  0.1069 -0.3985  0.0652
12926TIP3    H160269   6.154   6.385  15.426 -2.2972 -0.2644 -2.6342
12926TIP3    H260270   6.132   6.236  15.447 -1.0883 -0.3209 -1.6782
12927TIP3   OH260271   5.983   1.725   2.979  0.0535  0.0788 -0.9194
12927TIP3    H160272   5.996   1.646   2.927 -1.0165  0.7120 -2.2039
12927TIP3    H260273   6.009   1.797   2.921  0.9780  0.6942  0.2116
12928TIP3   OH260274   6.526   3.540   4.361  0.0861 -0.1514  0.9877
12928TIP3    H160275   6.484   3.472   4.308 -2.2289  0.2103  2.2415
12928TIP3    H260276   6.569   3.597   4.298  0.8542 -1.9155 -0.1904
12929TIP3   OH260277   0.651   4.409   6.280 -0.6172  0.2381  0.2976
12929TIP3    H160278   0.594   4.371   6.213  2.1047  0.5163 -2.3803
12929TIP3    H260279   0.680   4.335   6.332 -0.1307 -0.5391 -1.0250
12930TIP3   OH260280   1.439   1.191   4.630 -0.2676  0.5053 -0.4521
12930TIP3    H160281   1.407   1.264   4.683 -0.7611  0.4634 -0.6807
12930TIP3    H260282   1.434   1.222   4.540 -0.5862  0.1554 -0.5606
12931TIP3   OH260283   1.500   0.488   1.167  0.1415 -0.0402  0.1817
12931TIP3    H160284   1.485   0.570   1.214 -0.3271 -1.7449  3.2807
12931TIP3    H260285   1.591   0.465   1.186 -0.3087 -1.1859  1.0725
12932TIP3   OH260286   5.026   3.614   4.761  0.3227 -0.3674  0.6687
12932TIP3    H160287   5.075   3.606   4.679 -0.7593  0.4825 -0.0893
12932TIP3    H260288   4.949   3.558   4.748  0.1118 -0.1739  1.0834
12933TIP3   OH260289   5.903   4.068  14.329 -0.5232  0.1495  0.0644
12933TIP3    H160290   5.870   4.124  14.399 -0.3797 -1.2451  1.2901
12933TIP3    H260291   5.836   4.001  14.318  1.3598 -2.2455  2.0190
12934TIP3   OH260292   5.916   3.063   3.800 -0.3502  0.4714  0.0147
12934TIP3    H160293   5.941   3.151   3.772 -1.6916  0.8213 -0.1358
12934TIP3    H260294   5.946   3.006   3.730  4.2256  0.1928  1.8531
12935TIP3   OH260295   5.533   6.001   4.757 -0.5426 -0.6909 -0.2684
12935TIP3    H160296   5.518   5.945   4.833 -1.6005 -0.8946 -0.6150
12935TIP3    H260297   5.495   5.953   4.684  1.9508 -1.2980 -1.2764
12936TIP3   OH260298   0.414   4.188   1.698 -0.1468 -0.4420 -0.4639
12936TIP3    H160299   0.366   4.266   1.671  0.8220  0.2356 -0.2525
12936TIP3    H260300   0.349   4.118   1.695 -1.4757  0.6785  1.0479
12937TIP3   OH260301   5.405   3.643  11.333 -0.1883  0.5500 -0.0472
12937TIP3    H160302   5.433   3.693  11.409 -0.1692  1.3771 -0.5770
12937TIP3    H260303   5.451   3.560  11.340 -0.7338  0.3326  1.2087
12938TIP3   OH260304   4.699   6.589  14.212  0.0466 -0.1109  0.6140
12938TIP3    H160305   4.736   6.676  14.195  1.0855 -0.4691  0.9617
12938TIP3    H260306   4.612   6.592  14.172 -0.0286  1.1640  0.8332
12939TIP3   OH260307   4.991   5.186  15.975  0.3505 -0.2949 -0.6702
12939TIP3    H160308   5.080   5.222  15.976  0.5215 -0.6039 -2.1272
12939TIP3    H260309   4.965   5.183  16.067  2.1369 -0.8979 -0.1401
12940TIP3   OH260310   5.028   6.272  15.398  0.0567 -0.1454  0.1936
12940TIP3    H160311   5.013   6.356  15.442 -0.6041 -0.1526 -0.0104
12940TIP3    H260312   4.993   6.285  15.309 -1.5526 -1.1482  0.6482
12941TIP3   OH260313   0.186   4.971   0.173  0.1440  0.1381 -0.0338
12941TIP3    H160314   0.182   4.911   0.248  0.2023 -0.3245 -0.3976
12941TIP3    H260315   0.276   4.965   0.143 -0.4985 -1.8243 -1.8545
12942TIP3   OH260316   4.338   5.986   2.137  0.2296  0.1310 -0.7533
12942TIP3    H160317   4.409   5.982   2.201 -0.0122 -0.0576 -0.4988
12942TIP3    H260318   4.347   6.073   2.097 -0.8053  1.0489  0.8983
12943TIP3   OH260319   0.892   4.996   0.701  0.4599 -0.0189  0.4514
12943TIP3    H160320   0.817   4.942   0.675 -1.6626  2.7825  0.3075
12943TIP3    H260321   0.857   5.085   0.706  3.5829  1.2884  1.4051
12944TIP3   OH260322   0.680   5.992  11.993 -0.8156 -0.4820 -0.1581
12944TIP3    H160323   0.648   5.959  12.077  0.8120  1.1077  1.1709
12944TIP3    H260324   0.770   6.019  12.011 -0.9686  1.4883 -1.9739
12945TIP3   OH260325   5.766   4.067   0.157 -0.0174 -0.3164  0.1911
12945TIP3    H160326   5.798   3.995   0.211  1.3996  1.3732  1.7524
12945TIP3    H260327   5.814   4.059   0.075 -1.9461 -2.7192 -0.8413
12946TIP3   OH260328   0.968   5.639   1.124  0.3530 -0.2490  0.2970
12946TIP3    H160329   0.925   5.695   1.188  1.3807  0.4940  0.3498
12946TIP3    H260330   0.898   5.580   1.094 -0.2880 -0.2045  1.6202
12947TIP3   OH260331   2.610   2.359   2.121 -0.1628 -0.1753 -0.3762
12947TIP3    H160332   2.694   2.404   2.117  0.8361 -1.9701 -0.7238
12947TIP3    H260333   2.563   2.388   2.043  0.0864  0.8941 -0.1460
12948TIP3   OH260334   4.204   2.530  12.294  0.5157  0.1081  0.2782
12948TIP3    H160335   4.222   2.622  12.315  0.2263  0.1004  0.5800
12948TIP3    H260336   4.140   2.534  12.223  0.4075  0.1411  0.3767
12949TIP3   OH260337   2.048   1.886  13.153  0.3003  0.1008 -0.7877
12949TIP3    H160338   1.963   1.843  13.140  0.4003 -0.0716 -0.8691
12949TIP3    H260339   2.032   1.977  13.131 -0.0287  0.1998 -0.1740
12950TIP3   OH260340   5.765   2.404   5.333  0.2262  0.1843 -0.0196
12950TIP3    H160341   5.860   2.408   5.338  0.2573 -0.3880 -0.0240
12950TIP3    H260342   5.747   2.329   5.276 -0.2214 -0.3773  0.8247
12951TIP3   OH260343   4.977   5.008   1.874  0.2445  0.0843  0.1923
12951TIP3    H160344   5.044   5.073   1.895  0.2412  0.5955 -1.2403
12951TIP3    H260345   5.021   4.924   1.884  0.6529  0.3624  0.7551
12952TIP3   OH260346   3.611   5.956  13.844  0.3299  0.0539  0.1172
12952TIP3    H160347   3.690   5.986  13.890  0.7106  2.0873 -1.6876
12952TIP3    H260348   3.608   6.009  13.765 -3.0398  0.2442  0.2420
12953TIP3   OH260349   5.377   3.355  11.897 -0.7871  0.5030  0.2462
12953TIP3    H160350   5.352   3.417  11.829 -0.4567  0.5076  0.1271
12953TIP3    H260351   5.436   3.293  11.853 -0.7703  0.3597  0.4679
12954TIP3   OH260352   5.900   0.389   0.722  0.5836  0.6612 -0.0160
12954TIP3    H160353   5.934   0.305   0.693  0.6477  0.8562 -0.5072
12954TIP3    H260354   5.823   0.367   0.775  0.8993  0.2717  0.2839
12955TIP3   OH260355   6.273   6.518   4.595 -0.0545  0.6341 -0.1887
12955TIP3    H160356   6.183   6.542   4.619 -0.3303 -1.1953  0.8121
12955TIP3    H260357   6.262   6.446   4.533  0.7531  1.3723 -1.2391
12956TIP3   OH260358   0.651   6.516  13.949 -0.0157  0.3385 -0.1206
12956TIP3    H160359   0.678   6.599  13.911  1.5000  0.2316  0.6392
12956TIP3    H260360   0.671   6.525  14.042  0.2746 -0.9192 -0.0507
12957TIP3   OH260361   0.646   4.248  15.229  0.2870 -0.0577 -0.1591
12957TIP3    H160362   0.737   4.259  15.202  0.5750 -0.3927  0.6386
12957TIP3    H260363   0.646   4.166  15.279 -0.0958  0.8326  1.3616
12958TIP3   OH260364   1.680   6.465  15.423 -0.6357  0.2211  0.9650
12958TIP3    H160365   1.716   6.414  15.351 -1.9257 -0.4581  0.7830
12958TIP3    H260366   1.710   6.555  15.405  0.4160 -0.2128  0.4877
12959TIP3   OH260367   0.229   2.011   4.880 -0.1250  0.3653  0.0695
12959TIP3    H160368   0.192   2.092   4.844 -2.0783  0.0889  1.2996
12959TIP3    H260369   0.304   1.991   4.824 -0.8160  1.9339 -1.4794
12960TIP3   OH260370   6.246   1.311  16.912 -0.2271  0.5162 -0.2957
12960TIP3    H160371   6.216   1.229  16.953 -0.2767  0.0470 -1.2510
12960TIP3    H260372   6.278   1.363  16.986  0.9042 -0.8276  0.2296
12961TIP3   OH260373   4.932   5.854  10.855  0.3200 -0.2939  0.4330
12961TIP3    H160374   4.966   5.935  10.893  2.2166 -0.7718 -0.1605
12961TIP3    H260375   4.893   5.881  10.772 -0.8353  0.2555  1.1160
12962TIP3   OH260376   3.124   5.852  14.511  0.0187 -0.4234 -0.0377
12962TIP3    H160377   3.048   5.803  14.477  0.7866 -1.9010  0.2950
12962TIP3    H260378   3.085   5.919  14.567 -1.0886 -0.4950 -0.6816
12963TIP3   OH260379   0.540   6.265   5.629  0.3893  0.2552 -0.6083
12963TIP3    H160380   0.605   6.280   5.697  1.3012  0.2004 -1.4463
12963TIP3    H260381   0.460   6.241   5.676  0.8763  0.6740  0.4469
12964TIP3   OH260382   4.391   1.089  11.616 -0.4904  0.5186  0.1578
12964TIP3    H160383   4.423   1.169  11.573 -0.5079  0.8332  0.7148
12964TIP3    H260384   4.357   1.120  11.700 -0.7650 -0.0401  0.2537
12965TIP3   OH260385   4.826   1.483  17.134 -0.0470  0.8874  0.8144
12965TIP3    H160386   4.765   1.416  17.164 -0.7176  0.7734 -0.7008
12965TIP3    H260387   4.861   1.522  17.214 -3.5289  2.2719  1.8528
12966TIP3   OH260388   1.154   5.215  15.687  0.3547 -0.1787  0.5432
12966TIP3    H160389   1.242   5.198  15.653  1.0998  0.6897  1.9360
12966TIP3    H260390   1.155   5.175  15.775 -0.2211  0.8787  1.0438
12967TIP3   OH260391   5.025   4.047   2.047 -0.6529 -0.4966  0.5779
12967TIP3    H160392   4.943   4.097   2.044 -0.1706  0.6126  3.2159
12967TIP3    H260393   4.997   3.956   2.061 -1.4742 -0.1539  1.2860
12968TIP3   OH260394   3.684   0.353  14.673  0.2504  0.9624 -0.1588
12968TIP3    H160395   3.776   0.354  14.698  0.8008 -1.5854 -1.7683
12968TIP3    H260396   3.653   0.265  14.698 -1.2758  1.1701 -1.1649
12969TIP3   OH260397   6.613   6.162   2.778  0.0074 -0.2062 -0.2089
12969TIP3    H160398   6.585   6.246   2.742 -0.0688 -0.5117 -0.8939
12969TIP3    H260399   6.540   6.132   2.831  0.4143  0.6028  0.8292
12970TIP3   OH260400   3.587   2.214   4.577 -0.0278 -0.2069 -0.2358
12970TIP3    H160401   3.609   2.295   4.531  1.6478  0.8494  2.2155
12970TIP3    H260402   3.567   2.241   4.667 -1.4987 -2.3192  0.1628
12971TIP3   OH260403   1.574   4.533   5.008 -0.0120  0.1172  0.0220
12971TIP3    H160404   1.489   4.500   4.979 -0.8591  0.7820  1.6206
12971TIP3    H260405   1.579   4.621   4.973  0.8663 -0.5403 -1.6087
12972TIP3   OH260406   1.873   0.254  15.449 -0.7798  0.1342 -0.2155
12972TIP3    H160407   1.930   0.261  15.526 -0.5643  0.8044 -0.4305
12972TIP3    H260408   1.920   0.298  15.380 -0.5555 -1.2688 -0.9990
12973TIP3   OH260409   1.310   3.170  13.602  0.4661 -0.0015  0.0819
12973TIP3    H160410   1.228   3.135  13.636 -0.6136  0.7930 -1.5670
12973TIP3    H260411   1.367   3.094  13.593 -0.0788 -0.5665  1.2478
12974TIP3   OH260412   3.980   1.663   0.521  0.2208  0.4783 -0.6541
12974TIP3    H160413   3.936   1.723   0.581  0.9460  0.9217 -0.5559
12974TIP3    H260414   4.045   1.717   0.476  2.0173 -0.5289  0.5865
12975TIP3   OH260415   5.779   1.872   0.151 -0.2021 -0.6245 -0.2274
12975TIP3    H160416   5.786   1.847   0.244  1.3586  0.4281 -0.0098
12975TIP3    H260417   5.723   1.949   0.151  3.7242  2.5688  0.6489
12976TIP3   OH260418   5.087   5.782   5.808  0.3029 -0.0985  0.3082
12976TIP3    H160419   5.105   5.876   5.818 -1.1432  0.1404  1.0667
12976TIP3    H260420   5.040   5.759   5.888 -0.8587 -1.0780 -0.6170
12977TIP3   OH260421   3.166   5.215  14.289 -0.2073 -0.1293 -0.6777
12977TIP3    H160422   3.244   5.211  14.233 -0.2600 -0.5621 -0.7249
12977TIP3    H260423   3.105   5.271  14.241  0.6827  1.5898  0.1361
12978TIP3   OH260424   6.503   0.398   1.066 -0.0164 -0.5388 -0.0754
12978TIP3    H160425   6.561   0.458   1.112 -0.1565 -0.4238 -0.0458
12978TIP3    H260426   6.561   0.335   1.025  0.1241 -0.4802  0.0322
12979TIP3   OH260427   4.046   5.542  16.578  0.7936 -0.4478  0.0130
12979TIP3    H160428   4.101   5.482  16.529  2.8687 -0.5414  2.2663
12979TIP3    H260429   4.096   5.624  16.582 -0.7748  0.5972 -0.7130
12980TIP3   OH260430   1.129   2.800  15.204  0.1172  0.0349  0.2400
12980TIP3    H160431   1.202   2.849  15.167 -0.3962  0.4559 -0.2414
12980TIP3    H260432   1.120   2.723  15.148 -0.9826  0.9267 -0.8692
12981TIP3   OH260433   3.049   3.917  15.234 -0.6877  0.9500  0.2097
12981TIP3    H160434   3.033   3.831  15.196 -0.6732  0.6024  0.9604
12981TIP3    H260435   3.117   3.956  15.180 -2.0944  1.3343 -1.3865
12982TIP3   OH260436   1.053   3.618   4.829 -0.3606 -0.3101  0.1626
12982TIP3    H160437   1.054   3.699   4.879  2.1826 -0.1995  0.0266
12982TIP3    H260438   1.002   3.640   4.750 -0.7504  0.7643  0.6883
12983TIP3   OH260439   2.079   5.669  16.547  0.3973  0.2731  0.1283
12983TIP3    H160440   2.029   5.734  16.497  1.0016  0.4993 -0.2039
12983TIP3    H260441   2.131   5.721  16.608  1.2830  0.1622 -0.4961
12984TIP3   OH260442   6.484   0.998  15.883  0.2781 -0.2803  0.1335
12984TIP3    H160443   6.472   0.904  15.895 -0.5597 -0.0748  1.0447
12984TIP3    H260444   6.451   1.016  15.795  1.0091 -0.9258 -0.2788
12985TIP3   OH260445   1.239   2.612   3.996  0.5018 -0.7074  0.7129
12985TIP3    H160446   1.243   2.707   4.001 -1.4323 -0.6258  1.5836
12985TIP3    H260447   1.277   2.581   4.077  0.2426 -0.6234  0.8691
12986TIP3   OH260448   0.695   4.039   5.756  0.1023  0.8586 -0.2722
12986TIP3    H160449   0.698   4.095   5.834  1.7668 -0.5924  0.7834
12986TIP3    H260450   0.716   3.951   5.789 -1.6737 -0.2929 -1.9797
12987TIP3   OH260451   2.637   6.276  14.262  0.4249 -0.3083 -0.0234
12987TIP3    H160452   2.617   6.360  14.221 -0.3879 -0.2756  0.4127
12987TIP3    H260453   2.595   6.211  14.205  1.7247 -0.5114 -0.8075
12988TIP3   OH260454   1.078   0.187  12.400  0.0759 -0.4400  0.2314
12988TIP3    H160455   1.043   0.100  12.382 -0.1780 -0.3975  0.5102
12988TIP3    H260456   1.133   0.207  12.325 -1.8062  0.1939 -1.0306
12989TIP3   OH260457   1.242   5.353  14.779 -0.0431 -0.1847  0.0038
12989TIP3    H160458   1.334   5.327  14.785 -0.4119 -1.2208  2.1860
12989TIP3    H260459   1.201   5.285  14.726  0.6601  1.0827 -2.2773
12990TIP3   OH260460   0.740   1.144   5.649 -0.0681  0.2262  0.2303
12990TIP3    H160461   0.739   1.174   5.740 -0.0326 -0.1760  0.3643
12990TIP3    H260462   0.657   1.174   5.612  0.3618  1.3225  0.0855
12991TIP3   OH260463   5.170   2.990   1.586  0.0548 -0.5898  0.3161
12991TIP3    H160464   5.147   2.996   1.493 -1.0188 -0.9078  0.5416
12991TIP3    H260465   5.262   2.963   1.587 -0.0157 -0.9071 -0.6546
12992TIP3   OH260466   1.831   5.409  16.952 -0.8438 -1.0288 -0.8358
12992TIP3    H160467   1.823   5.384  17.043  1.0628  0.0969 -0.2936
12992TIP3    H260468   1.770   5.482  16.942 -0.0560 -0.2266 -0.0354
12993TIP3   OH260469   2.542   6.449  14.515 -0.1297  0.0872  0.1912
12993TIP3    H160470   2.476   6.390  14.552 -1.3773 -0.2814 -2.3955
12993TIP3    H260471   2.603   6.391  14.470  0.7197  0.5652  0.7201
12994TIP3   OH260472   6.322   3.967   0.621  0.0514  0.0146 -0.4801
12994TIP3    H160473   6.301   3.996   0.709  0.0268 -0.9408 -0.1583
12994TIP3    H260474   6.271   3.887   0.609  0.5476 -0.2203 -1.1171
12995TIP3   OH260475   0.610   5.175   4.580 -0.2570  0.4046 -0.1395
12995TIP3    H160476   0.614   5.085   4.615 -0.8390  0.7913  0.9721
12995TIP3    H260477   0.640   5.167   4.490 -1.1022 -1.0487 -0.3180
12996TIP3   OH260478   1.369   4.322   5.047  0.3768  0.2672 -0.1276
12996TIP3    H160479   1.328   4.299   5.130  1.8884 -0.8022  0.3712
12996TIP3    H260480   1.320   4.273   4.981 -0.8658  1.1667  0.0839
12997TIP3   OH260481   0.250   6.007  13.683  0.0767 -0.1109  0.6237
12997TIP3    H160482   0.335   5.964  13.678  0.8135  0.9276  3.0944
12997TIP3    H260483   0.270   6.099  13.697 -1.4611  0.1588  1.2019
12998TIP3   OH260484   1.655   1.654  14.843  0.1294 -0.0077 -0.2152
12998TIP3    H160485   1.685   1.579  14.792 -0.0084 -0.9228  1.0323
12998TIP3    H260486   1.721   1.722  14.826  1.0639 -0.8874 -0.1723
12999TIP3   OH260487   5.837   3.784   0.014 -0.2260 -0.3722  0.4716
12999TIP3    H160488   5.871   3.754  -0.070  1.1976 -0.0850  0.9175
12999TIP3    H260489   5.751   3.743   0.021 -0.1046 -0.8923 -0.8472
13000TIP3   OH260490   4.154   1.664  16.785  0.3356  0.4284  0.0688
13000TIP3    H160491   4.204   1.725  16.839 -2.5585  2.2679  0.8599
13000TIP3    H260492   4.112   1.719  16.719  1.5612 -1.4199 -2.4169
13001TIP3   OH260493   4.886   4.066  16.667 -0.7811  0.0818 -0.1185
13001TIP3    H160494   4.943   3.991  16.658 -2.2001 -1.1553  0.7890
13001TIP3    H260495   4.881   4.083  16.761  0.7515  2.3544 -0.3513
13002TIP3   OH260496   4.632   2.206   5.842 -0.0450  0.0050  0.0893
13002TIP3    H160497   4.685   2.258   5.782 -0.5099 -0.3857 -0.6701
13002TIP3    H260498   4.552   2.257   5.854 -0.1827 -0.1780 -0.0543
13003TIP3   OH260499   5.134   3.886  11.536  0.4085  0.5884 -0.9330
13003TIP3    H160500   5.086   3.805  11.549  3.2747 -1.1587 -0.2980
13003TIP3    H260501   5.088   3.951  11.589 -0.0122 -1.4873  1.4395
13004TIP3   OH260502   5.919   1.365   0.462 -0.3793 -0.4580 -0.0419
13004TIP3    H160503   5.941   1.456   0.440  0.1444 -0.1466  1.6066
13004TIP3    H260504   5.920   1.363   0.558 -1.1679 -2.0285 -0.0375
13005TIP3   OH260505   5.347   3.140  14.332 -0.5393 -0.1563 -0.2187
13005TIP3    H160506   5.358   3.045  14.331  0.7101 -0.0382  0.4700
13005TIP3    H260507   5.312   3.160  14.419  2.4348  0.2727  1.0160
13006TIP3   OH260508   4.171   3.972   0.786 -0.3181  0.4553 -0.1521
13006TIP3    H160509   4.145   4.051   0.833  1.2237  1.0451 -0.2148
13006TIP3    H260510   4.195   4.002   0.699  1.7268  0.2156  0.2679
13007TIP3   OH260511   6.443   1.612  15.670  0.0358  0.4811 -0.3343
13007TIP3    H160512   6.395   1.541  15.627  0.1728 -0.8211  1.5487
13007TIP3    H260513   6.389   1.635  15.746  0.6089  1.5355 -0.2235
13008TIP3   OH260514   3.084   6.708   3.390 -0.3544 -0.5734  0.6527
13008TIP3    H160515   3.009   6.671   3.437 -0.0305 -2.2979 -0.1139
13008TIP3    H260516   3.108   6.641   3.326  1.7296  0.0095  0.7446
13009TIP3   OH260517   1.570   2.175   1.635  0.3505 -0.1839 -0.1451
13009TIP3    H160518   1.538   2.235   1.702 -0.2507 -0.5934 -0.0653
13009TIP3    H260519   1.653   2.214   1.606 -0.2038  0.8819 -0.3512
13010TIP3   OH260520   0.160   5.417   3.484  0.0796  0.1123  0.4115
13010TIP3    H160521   0.229   5.364   3.445 -0.0452  0.8801 -0.9513
13010TIP3    H260522   0.139   5.482   3.416 -1.2541  0.5409  1.1882
13011TIP3   OH260523   3.625   3.698  10.985 -0.1688 -0.1855 -0.6625
13011TIP3    H160524   3.569   3.769  11.017  1.5116  0.4870  0.9972
13011TIP3    H260525   3.566   3.641  10.936 -2.0146  1.1740 -0.1466
13012TIP3   OH260526   6.813   3.821   0.368 -0.1847 -0.7336  0.1470
13012TIP3    H160527   6.847   3.888   0.428  0.9538 -2.8437  1.9959
13012TIP3    H260528   6.732   3.791   0.411 -0.8501 -0.3919 -0.8267
13013TIP3   OH260529   3.112   4.651  13.422 -0.0530  0.2026 -0.2853
13013TIP3    H160530   3.025   4.622  13.396 -0.0779  1.1219 -1.3005
13013TIP3    H260531   3.104   4.746  13.432  0.5540  0.1618  0.7842
13014TIP3   OH260532   3.183   3.215   2.744  0.1948  0.4491 -0.2187
13014TIP3    H160533   3.136   3.298   2.740  1.2465  1.1740  1.3176
13014TIP3    H260534   3.254   3.224   2.681  0.0967  0.5654 -0.3124
13015TIP3   OH260535   6.218   2.713   1.111 -0.1615  0.2183 -0.5872
13015TIP3    H160536   6.179   2.779   1.054 -0.4068  1.8850  1.3967
13015TIP3    H260537   6.182   2.630   1.079 -2.6929  1.3634 -0.9638
13016TIP3   OH260538   3.464   5.423   4.275  0.2429  0.1114 -0.4947
13016TIP3    H160539   3.442   5.386   4.190 -2.1765  1.4790 -0.5884
13016TIP3    H260540   3.542   5.477   4.259  0.3187 -0.3230 -1.6483
13017TIP3   OH260541   0.412   4.836   0.433 -0.0996  0.5890 -0.3860
13017TIP3    H160542   0.399   4.882   0.515  0.4471  0.7691 -0.3987
13017TIP3    H260543   0.421   4.744   0.458 -0.9969  0.5068 -0.3447
13018TIP3   OH260544   4.368   3.560   5.669  0.0712 -0.3743  0.3957
13018TIP3    H160545   4.311   3.619   5.620  0.7994 -0.1777 -0.2356
13018TIP3    H260546   4.413   3.617   5.733 -1.2004 -0.6997  1.6247
13019TIP3   OH260547   1.638   6.385   2.747  0.1993 -0.3996 -0.0069
13019TIP3    H160548   1.585   6.377   2.668  2.8206 -1.9805 -1.7619
13019TIP3    H260549   1.727   6.363   2.719  1.3857 -0.4086  3.2808
13020TIP3   OH260550   5.444   3.349   5.685 -0.2656 -0.1065 -0.0187
13020TIP3    H160551   5.385   3.283   5.648 -0.3532  0.5215 -1.0309
13020TIP3    H260552   5.522   3.345   5.630 -0.5036  1.0382 -0.4552
13021TIP3   OH260553   3.501   1.696  11.622  0.1151  0.2009 -0.5709
13021TIP3    H160554   3.471   1.778  11.583  1.2751  1.5167  1.1325
13021TIP3    H260555   3.558   1.723  11.694  1.9158 -2.1065 -0.9851
13022TIP3   OH260556   0.594   4.479   5.295  0.0164 -0.3106  0.5647
13022TIP3    H160557   0.672   4.501   5.244 -0.3300  0.6761  0.4373
13022TIP3    H260558   0.555   4.564   5.316 -1.5591 -0.7975 -0.2089
13023TIP3   OH260559   2.974   4.158  14.091 -0.0478  0.6125  0.3494
13023TIP3    H160560   3.058   4.133  14.053  0.0891  2.4868 -0.7257
13023TIP3    H260561   2.909   4.131  14.027 -0.1115  0.7935  0.3374
13024TIP3   OH260562   0.729   5.567  12.638  0.2750  0.2782  0.1152
13024TIP3    H160563   0.733   5.613  12.554 -2.3047  0.4721  0.0226
13024TIP3    H260564   0.667   5.496  12.625 -0.2028  0.3172  1.8665
13025TIP3   OH260565   4.498   0.340  15.065 -0.1221  0.2699  0.2103
13025TIP3    H160566   4.423   0.281  15.054 -0.5192  0.8840 -0.3783
13025TIP3    H260567   4.534   0.351  14.977  2.4522 -2.2876  0.7730
13026TIP3   OH260568   4.474   6.107   3.872 -0.1247 -0.5658 -0.3266
13026TIP3    H160569   4.489   6.031   3.928 -1.5062 -0.6598 -0.0576
13026TIP3    H260570   4.456   6.179   3.932  2.0167  0.2311 -0.5414
13027TIP3   OH260571   1.048   4.795   6.607 -0.0300 -0.2692  0.0177
13027TIP3    H160572   1.126   4.741   6.602  0.2740  0.2389 -0.8124
13027TIP3    H260573   1.075   4.880   6.573 -0.2260  0.7439  2.2040
13028TIP3   OH260574   4.437   2.395  15.289 -0.1603  0.4318  0.2708
13028TIP3    H160575   4.369   2.336  15.320 -1.2494  2.1408  1.2846
13028TIP3    H260576   4.503   2.395  15.359 -1.4116  2.3463  1.5323
13029TIP3   OH260577   0.927   4.107  12.184  0.4560  0.0301 -0.0627
13029TIP3    H160578   0.892   4.183  12.230  1.7361 -0.1091  1.2199
13029TIP3    H260579   0.851   4.058  12.156 -0.5586  2.9291 -3.0550
13030TIP3   OH260580   3.698   1.282   0.187  0.4260 -0.2283 -0.5947
13030TIP3    H160581   3.750   1.250   0.113  0.9943  2.3810 -1.4145
13030TIP3    H260582   3.757   1.277   0.262  1.1740  0.7163 -1.1054
13031TIP3   OH260583   6.185   4.235   3.663 -0.7377  0.0978 -0.1753
13031TIP3    H160584   6.192   4.271   3.574  0.3611 -1.8483 -0.9241
13031TIP3    H260585   6.109   4.177   3.660  0.2408 -1.2224 -0.3507
13032TIP3   OH260586   3.234   4.228   4.406 -0.0896 -0.2261 -0.1784
13032TIP3    H160587   3.269   4.160   4.349 -0.5653 -1.4344  0.9182
13032TIP3    H260588   3.174   4.182   4.465  1.8589  0.5245  2.6388
13033TIP3   OH260589   0.126   5.457  15.807 -0.4175 -0.1313 -0.0332
13033TIP3    H160590   0.031   5.455  15.800 -0.5990  0.5566  1.6276
13033TIP3    H260591   0.144   5.428  15.896  0.9418 -0.3974 -0.3700
13034TIP3   OH260592   0.138   3.217   1.207  0.3590  0.1437 -0.0706
13034TIP3    H160593   0.100   3.131   1.188  1.1495  0.1695 -2.0202
13034TIP3    H260594   0.063   3.274   1.223 -0.2488 -0.5328 -0.4710
13035TIP3   OH260595   5.946   0.011   2.846 -0.0713  0.1147 -0.4772
13035TIP3    H160596   6.002  -0.046   2.898 -0.5780  0.0794  0.0486
13035TIP3    H260597   5.900  -0.048   2.787  0.9578  0.2200 -1.4182
13036TIP3   OH260598   5.805   0.774   6.812  0.5863 -0.3573 -0.1643
13036TIP3    H160599   5.800   0.687   6.853  0.0078  0.2266  1.0654
13036TIP3    H260600   5.729   0.821   6.847  0.7976  0.5903 -0.9528
13037TIP3   OH260601   2.457   6.558  10.996 -0.0790 -0.1471  0.0690
13037TIP3    H160602   2.475   6.593  10.909  2.2912 -0.0266  0.5416
13037TIP3    H260603   2.435   6.466  10.981 -1.5004  0.2870 -0.7583
13038TIP3   OH260604   4.099   3.870   4.249 -0.8237  0.0831  0.3141
13038TIP3    H160605   4.180   3.838   4.209 -0.4005  1.4975 -0.0179
13038TIP3    H260606   4.083   3.809   4.321  0.4104 -0.3671  0.2406
13039TIP3   OH260607   3.528   5.091   4.049 -0.1386 -0.5316 -0.0621
13039TIP3    H160608   3.576   5.168   4.019 -2.9122  0.6993 -1.8032
13039TIP3    H260609   3.480   5.062   3.972 -3.4822 -0.5505  1.8442
13040TIP3   OH260610   4.685   3.745  13.473 -0.5145  0.2953  0.1936
13040TIP3    H160611   4.752   3.765  13.408 -1.5893  1.4689 -0.6094
13040TIP3    H260612   4.606   3.727  13.421 -1.3610  1.1076  1.1450
13041TIP3   OH260613   6.715   5.839   6.220 -0.0622 -0.5941 -0.7216
13041TIP3    H160614   6.640   5.868   6.272  0.8189 -1.1178  0.9367
13041TIP3    H260615   6.791   5.873   6.267  0.7610  0.3573 -2.6416
13042TIP3   OH260616   5.291   2.196  13.834  0.3765 -0.1293  0.0743
13042TIP3    H160617   5.221   2.197  13.769  1.5370  3.5142 -1.3764
13042TIP3    H260618   5.256   2.245  13.908  0.6076 -0.3150  0.3087
13043TIP3   OH260619   5.665   4.916  13.811 -0.0198  0.5716  0.6196
13043TIP3    H160620   5.679   4.961  13.728 -0.6624  1.7495  1.1342
13043TIP3    H260621   5.660   4.985  13.876 -1.4110 -0.2071  1.3852
13044TIP3   OH260622   4.004   2.856   5.085  0.3462 -0.8897 -0.1554
13044TIP3    H160623   4.081   2.824   5.133  1.4181  1.5233 -0.1024
13044TIP3    H260624   3.998   2.948   5.109 -4.0738 -1.4484  1.7256
13045TIP3   OH260625   5.210   2.608   1.432  0.1344  0.3423  0.3562
13045TIP3    H160626   5.121   2.638   1.415  0.1309  1.9186  2.7511
13045TIP3    H260627   5.200   2.526   1.479  0.0204 -0.1638 -0.5189
13046TIP3   OH260628   1.267   4.638  13.844  0.2784  0.6468 -0.3373
13046TIP3    H160629   1.293   4.698  13.774  4.0485  2.2663  2.0773
13046TIP3    H260630   1.171   4.640  13.844  0.1353  5.1532 -1.7984
13047TIP3   OH260631   4.921   6.532   2.223  0.2708  0.3110 -0.3236
13047TIP3    H160632   4.839   6.580   2.211 -0.5337 -0.5600  1.3259
13047TIP3    H260633   4.907   6.481   2.303  2.5539  0.4185  0.2216
13048TIP3   OH260634   3.657   5.493   0.550  0.0767  0.1366  0.0629
13048TIP3    H160635   3.718   5.549   0.502 -0.0657  0.0830 -0.1843
13048TIP3    H260636   3.571   5.519   0.518  0.0262 -0.4333 -0.2830
13049TIP3   OH260637   6.372   2.569  15.904  0.0536  0.1716 -0.0121
13049TIP3    H160638   6.291   2.520  15.894  1.8596 -3.3350  1.0676
13049TIP3    H260639   6.435   2.525  15.846  1.6531  1.6513  0.4961
13050TIP3   OH260640   2.835   3.225   5.299 -0.1976  0.2447 -0.0144
13050TIP3    H160641   2.858   3.261   5.385  1.2633  0.3603 -0.4248
13050TIP3    H260642   2.853   3.296   5.238 -1.2428  0.1676 -0.4330
13051TIP3   OH260643   0.007   1.932   0.270  0.1418 -0.3373 -0.0363
13051TIP3    H160644   0.032   1.842   0.251  0.4272 -0.1652 -0.4929
13051TIP3    H260645  -0.074   1.945   0.222  0.7275  0.0167 -0.9604
13052TIP3   OH260646   6.054   2.859  11.028  0.0616  0.4275 -0.4220
13052TIP3    H160647   6.082   2.944  11.062  0.0127  0.2513  0.0598
13052TIP3    H260648   6.003   2.881  10.950 -1.4569  0.9640  0.6624
13053TIP3   OH260649   3.727   3.871   0.461  0.5299 -0.5085 -0.9315
13053TIP3    H160650   3.775   3.932   0.517  3.4279 -1.2430 -2.4156
13053TIP3    H260651   3.650   3.845   0.513  0.3814  2.6008  0.6177
13054TIP3   OH260652   6.404   1.793  14.773 -0.7740  0.4403  0.4105
13054TIP3    H160653   6.499   1.805  14.778 -0.5587 -0.6802 -0.5905
13054TIP3    H260654   6.381   1.749  14.854 -0.4164  0.6073  0.6051
13055TIP3   OH260655   5.001   6.292   5.411 -0.5329  0.0122 -0.3072
13055TIP3    H160656   5.016   6.344   5.490 -1.1383  0.6921 -0.6325
13055TIP3    H260657   5.050   6.211   5.426 -1.8676 -0.5464  1.4573
13056TIP3   OH260658   4.393   2.172  15.553 -0.1174 -0.1605  0.1221
13056TIP3    H160659   4.400   2.156  15.458 -1.0162 -0.1749  0.0547
13056TIP3    H260660   4.458   2.240  15.570  1.6454 -1.7032 -0.1095
13057TIP3   OH260661   6.465   3.350   4.177 -0.5301 -0.3542 -0.5961
13057TIP3    H160662   6.539   3.368   4.120 -0.2713 -2.9139 -1.1812
13057TIP3    H260663   6.437   3.261   4.154 -1.0391 -1.1498  2.5612
13058TIP3   OH260664   1.246   5.279  14.410 -0.3014  0.0984 -0.0592
13058TIP3    H160665   1.249   5.207  14.347 -1.2689  0.6307 -0.7324
13058TIP3    H260666   1.200   5.243  14.486  1.0402 -0.6052  0.4564
13059TIP3   OH260667   6.216   5.303   4.897  0.2663  0.2510 -0.2748
13059TIP3    H160668   6.298   5.351   4.899  0.1028  0.5835 -1.1924
13059TIP3    H260669   6.148   5.370   4.901  0.0336  0.0140 -0.2044
13060TIP3   OH260670   2.200   0.989   4.798 -0.1702 -0.4086  0.0402
13060TIP3    H160671   2.176   1.077   4.827  1.1268 -0.9947  3.3981
13060TIP3    H260672   2.239   1.002   4.712  1.3355  2.5758  1.0324
13061TIP3   OH260673   0.464   3.805  11.826 -0.1197 -0.1882  0.8940
13061TIP3    H160674   0.482   3.877  11.765 -0.8541 -0.2810  0.5654
13061TIP3    H260675   0.442   3.731  11.770  2.4493 -1.2407  1.1294
13062TIP3   OH260676   5.433   5.891   5.655 -0.0036 -0.5878  0.0364
13062TIP3    H160677   5.482   5.813   5.628 -0.4079 -0.6730 -0.4547
13062TIP3    H260678   5.491   5.934   5.718  0.8168 -0.5688 -0.7032
13063TIP3   OH260679   1.811   3.632  13.080 -0.4808 -0.0038  0.9039
13063TIP3    H160680   1.882   3.689  13.051  0.8951 -0.0419  3.8531
13063TIP3    H260681   1.739   3.692  13.102  0.2484  0.4822  2.0757
13064TIP3   OH260682   5.076   0.090  13.222  0.1338  0.4892  0.3878
13064TIP3    H160683   4.981   0.081  13.215  0.2770 -0.5044 -0.5438
13064TIP3    H260684   5.105   0.104  13.132  0.7136  2.8047  0.8703
13065TIP3   OH260685   3.021   4.506  15.582  0.0838  0.5308  0.2605
13065TIP3    H160686   2.952   4.443  15.604 -0.5135  0.9613 -0.3160
13065TIP3    H260687   3.082   4.457  15.527  0.9047 -0.1957  1.7847
13066TIP3   OH260688   4.315   1.860  16.026  0.1196  0.4331  0.0148
13066TIP3    H160689   4.317   1.773  16.066  0.6224  1.1763  1.6832
13066TIP3    H260690   4.222   1.883  16.023  0.1106  0.6594  1.4691
13067TIP3   OH260691   6.509   1.319  14.206 -0.2829 -0.1216  0.1129
13067TIP3    H160692   6.553   1.377  14.144  2.0701 -2.7122 -0.8853
13067TIP3    H260693   6.527   1.357  14.292  1.1664  0.6685 -0.5102
13068TIP3   OH260694   2.881   3.222   4.256 -0.1852  0.7101  0.1366
13068TIP3    H160695   2.881   3.290   4.323 -3.5340  0.3546  0.6846
13068TIP3    H260696   2.869   3.141   4.304 -1.2478  0.3042 -0.7632
13069TIP3   OH260697   2.099   5.889  16.746 -0.2351  0.0025 -0.3001
13069TIP3    H160698   2.063   5.950  16.681  0.5670 -2.1670 -2.9750
13069TIP3    H260699   2.154   5.944  16.802 -0.1135  1.8639 -2.1115
13070TIP3   OH260700   0.942   1.185  13.569  0.6073  0.0677 -0.1747
13070TIP3    H160701   1.034   1.164  13.584  0.5052 -0.0502  0.2905
13070TIP3    H260702   0.894   1.133  13.633  0.1191 -0.8384 -1.2514
13071TIP3   OH260703   6.405   2.338   4.496  0.7821 -0.0754 -0.2968
13071TIP3    H160704   6.477   2.315   4.555  1.1588 -0.1890 -0.7951
13071TIP3    H260705   6.348   2.261   4.498  1.0091 -0.2474 -0.4031
13072TIP3   OH260706   5.618   0.612  14.695 -0.5705 -0.0422  0.0348
13072TIP3    H160707   5.583   0.534  14.651 -0.0910 -1.1498  1.5503
13072TIP3    H260708   5.541   0.655  14.731 -0.8724  0.3805 -1.0830
13073TIP3   OH260709   2.069   0.309  15.249 -0.1005 -0.1576 -0.2728
13073TIP3    H160710   1.999   0.371  15.228 -1.3613 -1.3757  0.1531
13073TIP3    H260711   2.146   0.363  15.265 -1.3182  1.3527  0.7457
13074TIP3   OH260712   5.739   1.438  16.383  0.0282 -0.4283 -0.2033
13074TIP3    H160713   5.772   1.523  16.412 -1.6377 -0.1437  0.9680
13074TIP3    H260714   5.781   1.375  16.443 -1.9942 -0.0008  1.7977
13075TIP3   OH260715   4.426   1.675  11.519  0.0170  0.6849  0.4339
13075TIP3    H160716   4.391   1.744  11.575  1.1776  2.1440 -0.5707
13075TIP3    H260717   4.351   1.646  11.467 -0.6869  0.5009  1.5165
13076TIP3   OH260718   0.506   0.798   0.734 -0.5388 -0.2181  0.5374
13076TIP3    H160719   0.597   0.798   0.764 -0.8747 -1.3180  1.6824
13076TIP3    H260720   0.462   0.862   0.790 -0.3422  0.9076 -0.5502
13077TIP3   OH260721   0.840   2.142   2.438  0.4425  0.5671 -0.7343
13077TIP3    H160722   0.854   2.130   2.532 -1.7993 -3.5867 -0.6923
13077TIP3    H260723   0.764   2.200   2.432 -2.5967 -2.8569  0.5075
13078TIP3   OH260724   3.485   5.043   2.244 -0.2126  0.5213 -0.5619
13078TIP3    H160725   3.545   5.090   2.186  2.9155 -0.4707  1.6185
13078TIP3    H260726   3.446   5.111   2.299  0.8170  0.9835 -0.3893
13079TIP3   OH260727   5.800   4.366  13.382 -0.2149 -0.7440  0.2317
13079TIP3    H160728   5.724   4.419  13.358 -0.4843 -2.0047 -1.9167
13079TIP3    H260729   5.841   4.415  13.454 -3.0249 -0.0500  1.4731
13080TIP3   OH260730   4.726   1.208   0.845 -0.3554 -0.7341  0.5907
13080TIP3    H160731   4.649   1.262   0.862  0.3411  0.1987  0.8559
13080TIP3    H260732   4.754   1.234   0.757  1.4601  1.2455  1.6684
13081TIP3   OH260733   5.483   0.368  16.692  0.1056  0.0547  0.2287
13081TIP3    H160734   5.398   0.412  16.698  1.2141  2.4116 -0.2683
13081TIP3    H260735   5.525   0.387  16.776  1.4535  1.9147 -0.8080
13082TIP3   OH260736   4.900   5.452  12.974 -0.3645  0.3379  0.1109
13082TIP3    H160737   4.982   5.423  12.934  0.1435 -0.7452  1.8378
13082TIP3    H260738   4.922   5.466  13.066 -1.2837  3.5867 -0.0706
13083TIP3   OH260739   1.808   1.277   4.766  0.4601 -0.4076  0.2317
13083TIP3    H160740   1.767   1.276   4.852  0.0389  1.1600  0.0811
13083TIP3    H260741   1.753   1.220   4.713 -0.0208 -0.3799  0.6912
13084TIP3   OH260742   4.741   5.955   5.034  0.2518 -0.4628  0.1300
13084TIP3    H160743   4.753   5.895   5.108  0.7190 -1.9285 -1.0954
13084TIP3    H260744   4.828   5.993   5.020 -0.4955  2.5223  2.4579
13085TIP3   OH260745   3.242   2.771  16.809  0.5090 -0.3092  0.4427
13085TIP3    H160746   3.323   2.750  16.856  2.0161  1.6584 -1.0942
13085TIP3    H260747   3.267   2.768  16.717 -1.1907  0.3781 -0.0668
13086TIP3   OH260748   2.783   1.772  11.207  0.8577  0.3348  0.1865
13086TIP3    H160749   2.858   1.817  11.168 -0.1008  2.5717  0.7894
13086TIP3    H260750   2.805   1.765  11.300  1.1295 -0.8386  0.0627
13087TIP3   OH260751   5.919   4.229  14.928 -0.0387  0.3773 -0.0143
13087TIP3    H160752   5.848   4.277  14.886  1.1777  2.5709  0.2954
13087TIP3    H260753   5.945   4.284  15.002 -0.1478 -1.9564  1.8690
13088TIP3   OH260754   0.530   4.198  12.155  0.4017 -0.3048  0.0671
13088TIP3    H160755   0.448   4.193  12.204  0.5463  3.3919  0.9731
13088TIP3    H260756   0.585   4.130  12.195 -0.9383 -0.3211  2.0744
13089TIP3   OH260757   0.163   2.144  17.095 -0.1289  0.3085 -0.0259
13089TIP3    H160758   0.203   2.057  17.104  0.0967  0.1590 -2.0422
13089TIP3    H260759   0.085   2.141  17.150  0.1942 -0.9652  0.3900
13090TIP3   OH260760   2.057   0.903   0.046 -0.7523  0.4033 -0.1945
13090TIP3    H160761   1.971   0.866   0.062 -0.5901  0.4870  0.8946
13090TIP3    H260762   2.066   0.973   0.110  0.5444 -0.2834  0.4032
13091TIP3   OH260763   5.777   5.298   1.674 -0.1036  0.6470 -0.0119
13091TIP3    H160764   5.840   5.347   1.620 -0.8802 -0.0551 -1.6103
13091TIP3    H260765   5.832   5.242   1.729  0.7104  0.3610 -1.0789
13092TIP3   OH260766   3.576   3.011   5.955 -0.3519  0.2803 -0.1644
13092TIP3    H160767   3.534   2.997   6.040 -1.2509  0.7981 -0.5121
13092TIP3    H260768   3.662   2.970   5.964 -0.3492  0.5023  1.0684
13093TIP3   OH260769   2.065   5.658   6.321 -0.1229  0.3124 -0.3032
13093TIP3    H160770   1.971   5.642   6.314 -0.1298 -1.2746  2.3376
13093TIP3    H260771   2.075   5.748   6.288 -2.2124 -0.1225 -2.4706
13094TIP3   OH260772   5.795   4.411   2.138 -0.2274  0.4816  0.0429
13094TIP3    H160773   5.711   4.381   2.104 -0.3767  1.0583 -0.0936
13094TIP3    H260774   5.824   4.478   2.077  1.5838 -1.4956 -1.3975
13095TIP3   OH260775   4.084   4.492   4.905  0.3819 -0.7248  0.0201
13095TIP3    H160776   4.037   4.522   4.827  2.6905  1.5618 -0.6406
13095TIP3    H260777   4.020   4.502   4.976 -1.0059 -0.4783 -1.2071
13096TIP3   OH260778   3.121   0.710  13.241 -0.4110 -0.1189  0.4486
13096TIP3    H160779   3.049   0.743  13.296  0.0388  1.5683  0.0989
13096TIP3    H260780   3.090   0.626  13.209 -2.2777  0.5913  0.2535
13097TIP3   OH260781   2.552   0.497   4.332 -0.0413  0.1449  0.4617
13097TIP3    H160782   2.481   0.441   4.300  0.1432  0.3263 -0.2903
13097TIP3    H260783   2.632   0.455   4.299  0.2919 -0.5956  2.1127
13098TIP3   OH260784   1.827   0.105  16.785  0.0703  0.4753  0.9074
13098TIP3    H160785   1.790   0.167  16.722  0.1267  0.2947  0.6948
13098TIP3    H260786   1.823   0.151  16.869 -1.0556  0.2946  0.9721
13099TIP3   OH260787   2.663   2.171  15.017 -0.0298 -1.0868  0.8031
13099TIP3    H160788   2.671   2.265  15.036  0.7455 -1.0274  0.2579
13099TIP3    H260789   2.666   2.129  15.103  0.1143 -0.6392  1.0240
13100TIP3   OH260790   0.172   2.595  15.286 -0.6015 -0.7303  0.0316
13100TIP3    H160791   0.239   2.625  15.223 -0.2293  0.1860  0.8380
13100TIP3    H260792   0.211   2.518  15.326  0.5460  0.4802  1.3658
13101TIP3   OH260793   3.653   3.962   3.614 -0.5601 -0.3460 -0.2641
13101TIP3    H160794   3.607   4.036   3.655 -0.1674 -1.1483  1.7675
13101TIP3    H260795   3.737   3.957   3.660  1.2205  0.4445 -3.2067
13102TIP3   OH260796   2.088   5.492   4.630  0.9440 -1.0493  1.1929
13102TIP3    H160797   2.057   5.454   4.548  0.1761 -1.2743  1.5779
13102TIP3    H260798   2.065   5.428   4.697  0.6727 -0.4248  1.7103
13103TIP3   OH260799   3.445   5.469  17.105 -0.7412 -0.4838  1.1082
13103TIP3    H160800   3.459   5.563  17.090 -0.0345 -0.6377  0.7557
13103TIP3    H260801   3.379   5.444  17.040  0.2252 -0.5540  0.1295
13104TIP3   OH260802   1.292   6.353  10.605  0.0917  0.3487 -0.6255
13104TIP3    H160803   1.326   6.438  10.636  1.1806 -0.3722  0.2376
13104TIP3    H260804   1.371   6.303  10.583 -0.4371 -0.9815  0.3602
13105TIP3   OH260805   0.227   2.846   0.260 -0.2165 -0.3185 -0.0615
13105TIP3    H160806   0.321   2.828   0.256 -0.4440 -2.1688  1.4232
13105TIP3    H260807   0.214   2.890   0.343 -0.7989 -1.3086  0.3975
13106TIP3   OH260808   4.034   1.132  14.703  0.3886  0.0973  0.0488
13106TIP3    H160809   4.061   1.112  14.613 -0.9430 -2.1150  0.0670
13106TIP3    H260810   4.023   1.227  14.704  0.6080  0.1936 -2.0787
13107TIP3   OH260811   6.110   2.797  14.033 -1.0018  0.0453 -0.4298
13107TIP3    H160812   6.126   2.851  14.111  3.9933  0.0792 -1.1625
13107TIP3    H260813   6.111   2.707  14.066 -1.8891  0.1259 -0.1483
13108TIP3   OH260814   3.374   3.275  13.069  0.5457  0.3046  0.3196
13108TIP3    H160815   3.364   3.365  13.036 -0.5438  0.8757  2.0970
13108TIP3    H260816   3.464   3.251  13.044  0.0119  0.8614 -2.5058
13109TIP3   OH260817   1.573   2.964   6.201  0.0030  0.2322 -0.1175
13109TIP3    H160818   1.624   3.032   6.157  0.7319  1.6495  2.7285
13109TIP3    H260819   1.636   2.919   6.257 -1.1671 -0.5230  0.6235
13110TIP3   OH260820   5.558   5.687  13.022  0.1605 -0.2632  0.5583
13110TIP3    H160821   5.484   5.628  13.003  0.6303 -0.6043 -0.2468
13110TIP3    H260822   5.554   5.701  13.116 -0.6692 -0.6376  0.5845
13111TIP3   OH260823   0.630   6.066  11.054  0.3822 -0.7571  0.4541
13111TIP3    H160824   0.709   6.051  11.105 -0.2053 -1.2515  1.2424
13111TIP3    H260825   0.640   6.010  10.977  2.1833  1.4605 -1.0501
13112TIP3   OH260826   0.906   6.469  11.738  0.0951 -1.1643  0.4317
13112TIP3    H160827   0.829   6.413  11.744 -1.3406  0.8547  1.8668
13112TIP3    H260828   0.962   6.442  11.811 -0.1234 -1.3803  0.5196
13113TIP3   OH260829   6.455   3.874  14.810  0.4774 -0.1523 -0.7715
13113TIP3    H160830   6.448   3.914  14.724  2.4504  1.2522 -0.3450
13113TIP3    H260831   6.449   3.780  14.793 -1.6950  0.1433 -2.0933
13114TIP3   OH260832   2.520   0.030   5.968 -0.1055 -0.5007 -0.0030
13114TIP3    H160833   2.598   0.015   6.021  0.4923  0.4834 -0.5664
13114TIP3    H260834   2.446   0.010   6.026  0.5506 -1.4985  0.5160
13115TIP3   OH260835   3.512   6.528  15.575 -0.4173  0.2865  0.4464
13115TIP3    H160836   3.590   6.510  15.628 -1.0248 -0.2372  1.1719
13115TIP3    H260837   3.440   6.489  15.624 -0.9643 -0.4582 -0.9150
13116TIP3   OH260838   5.371   2.938   1.099  0.8649  0.3942 -0.1124
13116TIP3    H160839   5.323   2.866   1.058 -0.5127  1.5021 -0.5475
13116TIP3    H260840   5.460   2.905   1.110  0.2132 -1.4543 -0.0440
13117TIP3   OH260841   0.404   1.329  16.720 -0.0420 -0.0539  0.3273
13117TIP3    H160842   0.479   1.329  16.661  1.0949 -0.7235  1.7217
13117TIP3    H260843   0.439   1.304  16.805 -2.1772 -2.4620  0.6278
13118TIP3   OH260844   4.306   4.793  16.408 -0.0154  0.1907 -0.1178
13118TIP3    H160845   4.323   4.872  16.358  0.4523  0.2012  0.0471
13118TIP3    H260846   4.371   4.730  16.377  0.2192  0.1675  0.4005
13119TIP3   OH260847   6.709   4.037   6.097  0.0051 -0.4749  0.4232
13119TIP3    H160848   6.654   4.038   6.176  0.0566 -1.4260  0.4832
13119TIP3    H260849   6.771   4.109   6.110 -1.1395  0.5505  0.4017
13120TIP3   OH260850   6.291   4.426  14.489  0.1224  0.1901  0.2931
13120TIP3    H160851   6.363   4.455  14.434 -0.1958  2.2437  0.8822
13120TIP3    H260852   6.242   4.364  14.434 -0.3155  2.3060 -1.8765
13121TIP3   OH260853   3.076   1.235   4.098  0.1637  0.0493 -0.1857
13121TIP3    H160854   3.009   1.212   4.161  0.4719 -1.1095 -0.2548
13121TIP3    H260855   3.121   1.310   4.136 -0.3204  0.0030  0.4795
13122TIP3   OH260856   2.404   1.325   2.781  0.1668  0.1629 -0.1117
13122TIP3    H160857   2.458   1.277   2.844 -1.7744 -2.2444 -0.1797
13122TIP3    H260858   2.399   1.268   2.704 -4.4302 -1.0721  0.8000
13123TIP3   OH260859   6.010   3.744  15.162  0.1312  0.3668  0.1736
13123TIP3    H160860   5.939   3.708  15.108  2.3254 -1.1589 -1.8663
13123TIP3    H260861   6.059   3.801  15.102  2.8202 -1.6190  0.2962
13124TIP3   OH260862   0.251   2.319   5.769 -0.4300 -0.5013 -0.0693
13124TIP3    H160863   0.270   2.399   5.819 -2.4544  0.3379 -0.5395
13124TIP3    H260864   0.235   2.252   5.835  0.6161 -0.3728  0.3365
13125TIP3   OH260865   0.621   6.002   5.872 -0.2513 -0.1798  0.1176
13125TIP3    H160866   0.546   5.942   5.867  0.7462 -1.5151  0.7751
13125TIP3    H260867   0.657   5.989   5.960  1.8685 -0.9681 -0.8040
13126TIP3   OH260868   0.626   4.146  14.247  0.0094 -0.1744 -0.2389
13126TIP3    H160869   0.638   4.109  14.160  1.9037  2.6408 -1.3207
13126TIP3    H260870   0.541   4.190  14.243  0.5196  0.7730 -1.0502
13127TIP3   OH260871   6.793   5.138   1.058  0.0486 -0.1253 -0.2786
13127TIP3    H160872   6.851   5.172   0.990 -2.7867  1.1538 -2.2423
13127TIP3    H260873   6.793   5.205   1.126  1.1967 -0.3988  0.0270
13128TIP3   OH260874   1.904   1.281   6.162  0.1045  0.0252  0.2087
13128TIP3    H160875   1.994   1.260   6.137  0.8315  1.2300  1.6285
13128TIP3    H260876   1.908   1.293   6.257 -1.0882  2.2161  0.0380
13129TIP3   OH260877   2.506   3.966   6.009 -0.1120  0.3850  0.1537
13129TIP3    H160878   2.468   3.999   5.928  0.5670 -1.0490 -0.7886
13129TIP3    H260879   2.562   4.037   6.039 -0.7649  1.1364 -0.3409
13130TIP3   OH260880   2.975   6.131   2.599 -0.2464  0.3956  0.3187
13130TIP3    H160881   3.005   6.176   2.520 -2.6051 -0.7774 -1.3494
13130TIP3    H260882   2.897   6.178   2.626  0.1170  0.3246  1.5784
13131TIP3   OH260883   2.593   6.552  14.783  0.4516  0.2978 -0.3995
13131TIP3    H160884   2.586   6.508  14.699 -0.7707  0.4310 -0.3912
13131TIP3    H260885   2.529   6.623  14.778 -0.9492 -0.7646  1.2828
13132TIP3   OH260886   1.760   0.240  14.913  0.4234  0.0723  0.0564
13132TIP3    H160887   1.790   0.245  14.822  2.1494 -0.6790  0.5334
13132TIP3    H260888   1.744   0.147  14.928 -2.0561  0.4062 -0.0854
13133TIP3   OH260889   6.013   0.244  13.353  0.5442  0.2253  0.3707
13133TIP3    H160890   5.968   0.297  13.287 -0.3827 -0.6963  0.2397
13133TIP3    H260891   6.090   0.209  13.308 -0.2492 -0.6535 -0.3495
13134TIP3   OH260892   0.303   3.351  13.045  0.1744  0.0454 -0.1124
13134TIP3    H160893   0.337   3.439  13.025  0.0137  0.2130  0.3539
13134TIP3    H260894   0.285   3.353  13.139 -1.7195  0.1562 -0.4491
13135TIP3   OH260895   3.704   4.501  17.182  0.3210 -0.2559  0.3043
13135TIP3    H160896   3.798   4.503  17.163  0.0328  0.7465 -1.1409
13135TIP3    H260897   3.690   4.576  17.241  0.5009 -0.7208  0.9472
13136TIP3   OH260898   6.119   6.077   0.884 -0.4708 -0.0541  0.5016
13136TIP3    H160899   6.173   6.138   0.834  0.0187 -0.0775  0.9940
13136TIP3    H260900   6.039   6.069   0.833  0.8820 -1.8417 -1.4781
13137TIP3   OH260901   3.989   5.151  13.418  0.0234 -0.2024 -0.1837
13137TIP3    H160902   4.048   5.199  13.476  0.0832 -0.1978 -0.2482
13137TIP3    H260903   3.958   5.217  13.356 -1.6511  0.2843  1.0695
13138TIP3   OH260904   1.376   5.247  14.017 -0.5728 -0.5425 -0.7548
13138TIP3    H160905   1.286   5.244  14.049 -0.3116 -1.4528 -0.0738
13138TIP3    H260906   1.402   5.155  14.007  0.9868 -0.3840  1.1109
13139TIP3   OH260907   1.643   2.914   6.514  0.2652  0.0371  0.0292
13139TIP3    H160908   1.691   2.854   6.571 -1.1795 -1.1808  0.0430
13139TIP3    H260909   1.650   2.874   6.427 -0.2939  0.1121 -0.0536
13140TIP3   OH260910   1.208   3.947  16.946  0.2426 -0.4293 -0.4581
13140TIP3    H160911   1.118   3.919  16.926 -0.8759  1.2546  1.7428
13140TIP3    H260912   1.211   3.948  17.042  2.8492 -1.0006 -0.4706
13141TIP3   OH260913   2.862   2.515   4.521 -0.1320 -0.1248  0.6800
13141TIP3    H160914   2.809   2.470   4.456 -0.2481 -0.8783  1.2803
13141TIP3    H260915   2.924   2.449   4.552  0.6502  0.5367  0.5360
13142TIP3   OH260916   3.245   6.030  16.075 -0.1932  0.1315 -0.5592
13142TIP3    H160917   3.322   6.017  16.130 -0.4920 -1.7381 -0.5206
13142TIP3    H260918   3.212   5.941  16.058 -2.9471  0.8702  0.2985
13143TIP3   OH260919   1.079   6.489   5.657 -0.5468  0.2789  0.2003
13143TIP3    H160920   1.106   6.578   5.680 -0.1539 -0.3327  2.3311
13143TIP3    H260921   0.984   6.491   5.659 -0.5385  0.6457  0.2985
13144TIP3   OH260922   0.690   0.814  13.345 -0.0928  0.0581 -0.0411
13144TIP3    H160923   0.719   0.729  13.310 -0.3945 -0.4049  0.8089
13144TIP3    H260924   0.768   0.869  13.341  0.5597 -0.7570  0.9370
13145TIP3   OH260925   5.226   2.990  12.444  0.1689 -0.0081  0.0450
13145TIP3    H160926   5.279   2.929  12.393  0.3590  0.3372 -0.1790
13145TIP3    H260927   5.262   3.076  12.423 -0.7632  0.2739 -0.4631
13146TIP3   OH260928   1.971   3.817   3.609  0.2224 -0.3479 -0.1680
13146TIP3    H160929   2.038   3.764   3.653  0.4308 -2.0909 -2.4151
13146TIP3    H260930   2.016   3.854   3.533 -0.4062  1.6975  0.4069
13147TIP3   OH260931   2.502   1.922   0.936  0.0315 -0.0894  0.6546
13147TIP3    H160932   2.495   1.834   0.899 -3.0784  0.3034  0.0651
13147TIP3    H260933   2.507   1.980   0.860  0.5493  0.3619  1.0191
13148TIP3   OH260934   2.381   1.486   0.026 -0.4170 -0.0941 -0.1699
13148TIP3    H160935   2.355   1.571   0.059 -1.9630 -1.1181  1.3767
13148TIP3    H260936   2.300   1.436   0.020  0.2324 -0.9955 -2.5762
13149TIP3   OH260937   0.129   4.185  15.986  0.1831 -0.0392 -0.0278
13149TIP3    H160938   0.063   4.209  16.051 -0.7915 -1.6478 -0.3643
13149TIP3    H260939   0.193   4.257  15.989 -1.4499  1.4689  0.4519
13150TIP3   OH260940   4.100   1.897  14.996  0.2457 -0.1039 -0.8390
13150TIP3    H160941   4.039   1.838  14.952 -0.6495  1.2471 -1.4992
13150TIP3    H260942   4.147   1.842  15.058 -0.6921 -1.4501 -1.2789
13151TIP3   OH260943   2.589   5.928   4.396  0.2093  0.4909 -1.1200
13151TIP3    H160944   2.572   5.836   4.375 -0.9995  0.6349 -0.8250
13151TIP3    H260945   2.541   5.943   4.478  0.7061  1.2861 -0.9658
13152TIP3   OH260946   1.982   5.024   5.078 -0.1261 -0.6864  0.3072
13152TIP3    H160947   1.909   4.967   5.103 -0.5483  0.1669  1.1073
13152TIP3    H260948   1.947   5.113   5.089  0.5760 -0.2636 -0.7198
13153TIP3   OH260949   1.411   2.497   6.386  0.6301 -0.2288  0.1968
13153TIP3    H160950   1.344   2.432   6.408  0.8548 -0.2601  0.8256
13153TIP3    H260951   1.416   2.553   6.464  0.6266  0.3838 -0.2381
13154TIP3   OH260952   6.507   6.548  13.454  0.2672 -0.1174  0.0388
13154TIP3    H160953   6.463   6.628  13.483 -0.4940 -0.5272  0.0290
13154TIP3    H260954   6.596   6.577  13.432  0.2329  0.5802  0.7711
13155TIP3   OH260955   3.867   3.913  11.372 -0.1168  0.7803 -0.4032
13155TIP3    H160956   3.886   3.995  11.416 -0.8049  0.5371  0.3803
13155TIP3    H260957   3.771   3.911  11.365 -0.3513 -1.0783  1.9000
13156TIP3   OH260958   3.790   5.743  11.943 -0.0960 -0.1207  0.3308
13156TIP3    H160959   3.718   5.704  11.993 -2.2328  0.4344 -2.1035
13156TIP3    H260960   3.794   5.692  11.862 -0.4997  2.3031 -1.3292
13157TIP3   OH260961   5.608   5.798   4.059 -0.4683  0.3730 -0.2060
13157TIP3    H160962   5.648   5.716   4.087 -1.3639  0.3605  1.1095
13157TIP3    H260963   5.515   5.777   4.046 -0.5834  1.0274 -0.5093
13158TIP3   OH260964   3.110   4.544  11.973  0.0605 -0.1681  0.4243
13158TIP3    H160965   3.175   4.596  11.926 -0.9181 -0.1885 -1.0266
13158TIP3    H260966   3.102   4.463  11.922 -1.1046 -0.1522  0.5481
13159TIP3   OH260967   4.232   1.882  13.719 -0.0820 -0.1167  0.7244
13159TIP3    H160968   4.220   1.859  13.627 -1.0204  3.2998 -0.1549
13159TIP3    H260969   4.155   1.845  13.763  0.3986 -1.8132  0.1892
13160TIP3   OH260970   4.927   3.173   1.613  0.0752  0.0096  0.8569
13160TIP3    H160971   4.928   3.208   1.524 -0.0532  0.1037  0.8918
13160TIP3    H260972   5.014   3.136   1.625  0.1786  0.2220  0.7806
13161TIP3   OH260973   6.023   5.518   1.678  0.5583 -0.1696 -0.0654
13161TIP3    H160974   6.021   5.592   1.739 -1.9274 -0.7348  0.6397
13161TIP3    H260975   5.958   5.540   1.611 -1.3350 -2.2748  0.9670
13162TIP3   OH260976   4.272   2.205   5.048  0.2999 -0.7511  0.0166
13162TIP3    H160977   4.271   2.300   5.058 -1.0796 -0.7603  0.1829
13162TIP3    H260978   4.312   2.173   5.129  0.3826 -0.3332  0.1438
13163TIP3   OH260979   2.423   0.769  14.356 -0.3718  0.3600  0.1381
13163TIP3    H160980   2.489   0.806  14.415 -1.1401  0.9990  0.6160
13163TIP3    H260981   2.350   0.744  14.413 -1.1574  1.0444 -0.5349
13164TIP3   OH260982   5.279   3.244   6.589  0.7538  0.0802 -0.1589
13164TIP3    H160983   5.241   3.169   6.543 -0.3225  0.5349 -0.0309
13164TIP3    H260984   5.242   3.321   6.545  0.7853  0.5269  0.5800
13165TIP3   OH260985   2.100   1.711   0.025 -0.1368  0.4265  0.3702
13165TIP3    H160986   2.131   1.794  -0.012 -0.2286  0.7493  1.0052
13165TIP3    H260987   2.174   1.681   0.079  0.2400 -0.3551 -0.5452
13166TIP3   OH260988   1.784   6.094  17.063 -0.0150  0.5332 -0.1486
13166TIP3    H160989   1.765   6.174  17.114  0.1077  0.6427 -0.2753
13166TIP3    H260990   1.703   6.077  17.015 -0.3483  0.0749  0.5603
13167TIP3   OH260991   1.160   4.324   2.042 -0.3449 -0.0100 -0.3065
13167TIP3    H160992   1.074   4.314   2.082 -0.0018  1.0037  0.7403
13167TIP3    H260993   1.221   4.323   2.116  0.3603  1.2850 -0.8375
13168TIP3   OH260994   6.370   0.827   3.785 -0.1053 -0.5507  0.2466
13168TIP3    H160995   6.402   0.768   3.853 -1.3964 -2.0352 -0.3727
13168TIP3    H260996   6.442   0.888   3.770  1.6170 -2.4706  0.3194
13169TIP3   OH260997   5.732   0.079   2.177 -0.3927 -0.2020 -0.1495
13169TIP3    H160998   5.725   0.089   2.271 -0.7134  0.1610 -0.2119
13169TIP3    H260999   5.803   0.138   2.151 -0.4417 -0.1482 -0.1618
13170TIP3   OH261000   5.487   2.978   3.907 -0.3846 -0.3262 -0.0444
13170TIP3    H161001   5.508   2.885   3.898 -2.1152 -0.6779 -0.8111
13170TIP3    H261002   5.572   3.022   3.910  0.4536 -1.8228 -0.9157
13171TIP3   OH261003   4.624   1.204  12.531  0.1728  0.2467  0.1681
13171TIP3    H161004   4.651   1.280  12.582 -0.2557  0.2812  0.3435
13171TIP3    H261005   4.690   1.137  12.549  0.5757  0.5926 -0.0260
13172TIP3   OH261006   4.464   5.547   0.350 -0.7338 -0.0203 -0.1298
13172TIP3    H161007   4.528   5.484   0.318  0.3348  0.0208  1.7814
13172TIP3    H261008   4.381   5.521   0.309 -0.0650 -1.8694 -0.3694
13173TIP3   OH261009   3.988   2.539  17.094 -0.0291 -0.7374  0.1411
13173TIP3    H161010   3.896   2.527  17.070 -0.2588 -1.3420  1.2631
13173TIP3    H261011   4.003   2.633  17.086 -1.3632 -0.3210  2.0353
13174TIP3   OH261012   6.756   4.616   1.825 -0.3792 -0.1822 -0.2119
13174TIP3    H161013   6.677   4.623   1.771 -1.5510 -0.5084  1.3674
13174TIP3    H261014   6.816   4.682   1.790 -1.7807  0.8382 -0.7870
13175TIP3   OH261015   0.634   0.162  11.830  0.3920 -0.1300 -0.1412
13175TIP3    H161016   0.579   0.108  11.773  0.9200 -0.1267 -0.6670
13175TIP3    H261017   0.722   0.154  11.792  1.0325 -1.2322  1.4607
13176TIP3   OH261018   0.814   5.907  16.856 -0.5301 -0.7367  0.2487
13176TIP3    H161019   0.780   5.855  16.783  0.8591 -1.3707  0.0133
13176TIP3    H261020   0.788   5.997  16.837  1.7895 -0.4775 -2.3221
13177TIP3   OH261021   3.124   2.161   0.432  0.3619 -0.0958 -0.1630
13177TIP3    H161022   3.176   2.211   0.495  1.1573 -0.5077 -0.4623
13177TIP3    H261023   3.034   2.185   0.450  0.6352  0.4221  0.5808
13178TIP3   OH261024   0.964   4.596   5.829 -0.8114 -0.1593 -0.1672
13178TIP3    H161025   0.999   4.680   5.858 -1.6842  0.9570 -2.1102
13178TIP3    H261026   1.006   4.581   5.744 -1.6423 -1.0228 -0.4426
13179TIP3   OH261027   1.109   3.449   3.464  0.0443 -0.2182 -0.4536
13179TIP3    H161028   1.082   3.425   3.552 -0.2417 -0.4967 -0.6195
13179TIP3    H261029   1.138   3.367   3.424  0.4571 -0.0446 -0.5221
13180TIP3   OH261030   5.787   6.019   3.342  0.1572 -0.1901  0.3617
13180TIP3    H161031   5.864   6.071   3.364 -0.2570  0.4982  0.2239
13180TIP3    H261032   5.785   6.018   3.246  0.3345 -0.7227  0.3616
13181TIP3   OH261033   2.263   5.350  10.964  0.3420  0.0068 -0.5461
13181TIP3    H161034   2.284   5.442  10.979  0.4252 -0.0840 -0.0944
13181TIP3    H261035   2.169   5.350  10.944  0.5380  0.2908 -1.4806
13182TIP3   OH261036   4.311   5.730   2.840  0.1224  0.3075 -0.0812
13182TIP3    H161037   4.320   5.674   2.918 -1.5653 -0.0931 -0.1422
13182TIP3    H261038   4.240   5.690   2.790  1.0800  0.6528 -1.7760
13183TIP3   OH261039   0.123   3.034   3.473 -0.2059  0.2907  0.7268
13183TIP3    H161040   0.161   3.116   3.441 -4.3709  1.5048 -2.0197
13183TIP3    H261041   0.089   3.056   3.559  0.0912  0.9792  0.6792
13184TIP3   OH261042   0.127   0.204   0.974  0.0289 -0.1617 -0.2345
13184TIP3    H161043   0.179   0.153   0.913 -2.3505 -3.3645  0.1682
13184TIP3    H261044   0.041   0.210   0.934 -0.5707  0.9601  1.1227
13185TIP3   OH261045   4.914   5.429   5.791  0.4057 -0.5699  0.3827
13185TIP3    H161046   4.879   5.345   5.821 -0.6843 -0.7355 -1.2109
13185TIP3    H261047   4.935   5.414   5.699  1.6963  0.4750  0.4834
13186TIP3   OH261048   4.274   6.179  16.670  0.2255  0.2053 -0.7406
13186TIP3    H161049   4.247   6.267  16.643  0.4324  0.7862  0.7778
13186TIP3    H261050   4.338   6.152  16.605  2.5310  2.5292  0.3431
13187TIP3   OH261051   4.911   4.792  10.896 -0.0155 -0.6236 -0.0551
13187TIP3    H161052   4.973   4.782  10.824  0.0085  1.3846 -0.3768
13187TIP3    H261053   4.909   4.886  10.913 -0.9898 -0.9178  1.7272
13188TIP3   OH261054   0.422   4.271  12.655 -0.2985  0.3974  0.1677
13188TIP3    H161055   0.368   4.259  12.577  0.1130  1.0332 -0.2283
13188TIP3    H261056   0.430   4.366  12.664  0.0207  0.3191  0.7294
13189TIP3   OH261057   5.119   0.669  13.588  0.5200  0.1470 -0.8191
13189TIP3    H161058   5.193   0.622  13.550  0.9062 -0.4078  0.5716
13189TIP3    H261059   5.151   0.758  13.601  0.4552  0.2851 -1.5510
13190TIP3   OH261060   3.404   4.786  12.215 -0.2007 -0.3758 -0.5809
13190TIP3    H161061   3.356   4.861  12.249  1.3454  0.6013 -0.4401
13190TIP3    H261062   3.492   4.820  12.199  0.6003 -2.2192 -0.3090
13191TIP3   OH261063   0.605   0.778  16.756 -0.4475  0.7916  0.0978
13191TIP3    H161064   0.651   0.712  16.705 -1.7914 -0.4747  0.4527
13191TIP3    H261065   0.600   0.854  16.698  1.1397  0.6229 -0.3136
13192TIP3   OH261066   5.079   6.037  15.575  0.0180  0.2506 -0.0672
13192TIP3    H161067   5.101   5.997  15.491 -0.4026  0.8664 -0.4762
13192TIP3    H261068   5.162   6.044  15.621 -0.0156 -2.2230  0.5496
13193TIP3   OH261069   5.129   1.571  16.579 -0.3412  0.2344 -0.6512
13193TIP3    H161070   5.164   1.575  16.668  1.5692  3.1284 -1.3841
13193TIP3    H261071   5.162   1.489  16.544 -0.3548 -0.5204  0.9943
13194TIP3   OH261072   5.645   3.372   1.729  0.0019 -0.2340  0.2438
13194TIP3    H161073   5.674   3.364   1.820 -1.5378 -0.4249  0.7618
13194TIP3    H261074   5.554   3.341   1.731 -0.8196  1.9291 -0.9149
13195TIP3   OH261075   2.770   4.778  12.564  0.1896 -0.6057  0.1701
13195TIP3    H161076   2.739   4.749  12.650  0.3714 -0.6372  0.2245
13195TIP3    H261077   2.769   4.698  12.511 -0.3533 -0.5034  0.0131
13196TIP3   OH261078   6.620   0.680   5.215  0.0479  0.5311 -0.2714
13196TIP3    H161079   6.659   0.762   5.247 -0.1372  0.3361  0.4786
13196TIP3    H261080   6.603   0.629   5.294  0.3451 -0.3242 -0.7442
13197TIP3   OH261081   0.503   1.282   1.270 -0.0708 -0.2028  0.1593
13197TIP3    H161082   0.452   1.339   1.212  0.1905  0.6561  0.7627
13197TIP3    H261083   0.468   1.298   1.357  1.3345  0.5591  0.6226
13198TIP3   OH261084   3.867   5.668  15.135 -0.2640 -0.3570  0.1848
13198TIP3    H161085   3.845   5.738  15.197 -0.7432 -0.1651 -0.1998
13198TIP3    H261086   3.873   5.712  15.050 -0.2950 -0.7355 -0.0167
13199TIP3   OH261087   2.352   0.366  10.367  0.0074  0.1059  0.5056
13199TIP3    H161088   2.435   0.321  10.353  0.3228  1.0769 -0.9841
13199TIP3    H261089   2.322   0.336  10.453  1.3562 -1.0840  0.5911
13200TIP3   OH261090   5.663   0.326  11.349 -0.1043  0.0714  0.0236
13200TIP3    H161091   5.677   0.280  11.266 -0.9835 -1.4964  0.6991
13200TIP3    H261092   5.750   0.354  11.376  0.2758  0.0056 -1.0777
13201TIP3   OH261093   5.325   5.484   6.274  0.8049 -0.4473 -0.5835
13201TIP3    H161094   5.375   5.554   6.316  0.4203 -0.6855  0.3008
13201TIP3    H261095   5.334   5.501   6.180  0.0183  1.3065 -0.3899
13202TIP3   OH261096   6.781   0.243   5.940  0.3365  0.5739  0.1640
13202TIP3    H161097   6.689   0.227   5.957 -0.1933  1.0815 -1.9430
13202TIP3    H261098   6.817   0.157   5.916  0.7815  0.1132  2.2830
13203TIP3   OH261099   4.219   0.149  17.233 -0.1695 -0.0252  0.0452
13203TIP3    H161100   4.194   0.184  17.319  1.4766  0.4664  0.3602
13203TIP3    H261101   4.274   0.217  17.194 -0.8862 -0.2436 -1.4199
13204TIP3   OH261102   1.109   3.288   1.142 -0.3649  0.8094 -0.1370
13204TIP3    H161103   1.073   3.200   1.137 -1.5746  1.3381 -1.3262
13204TIP3    H261104   1.183   3.281   1.203 -0.9005 -0.8495  0.3576
13205TIP3   OH261105   6.079   2.078   2.027 -0.1880 -0.0064  0.5505
13205TIP3    H161106   6.022   2.105   1.956  0.2618 -1.3641 -0.3635
13205TIP3    H261107   6.128   2.157   2.051 -1.5402  0.8722  0.5286
13206TIP3   OH261108   0.076   5.021  12.056  0.9244 -0.2545  0.2309
13206TIP3    H161109   0.141   4.992  12.119  1.1371  0.0323  0.1467
13206TIP3    H261110   0.100   5.112  12.037  1.6179 -0.6960 -1.1934
13207TIP3   OH261111   1.045   6.665  12.638 -0.2594  0.3405  0.1143
13207TIP3    H161112   1.110   6.652  12.570  0.1294 -3.4324  0.9793
13207TIP3    H261113   1.095   6.692  12.715  0.3390 -1.8162  0.5696
13208TIP3   OH261114   1.440   1.771   5.025  0.5253 -0.5744 -0.2205
13208TIP3    H161115   1.508   1.769   5.092  1.3503 -0.1313 -1.0269
13208TIP3    H261116   1.366   1.814   5.067  1.0912 -0.1397  0.3537
13209TIP3   OH261117   4.291   3.879  16.438 -1.1647  0.4878 -0.1763
13209TIP3    H161118   4.367   3.903  16.383 -0.4938 -0.5026  0.2883
13209TIP3    H261119   4.269   3.960  16.484 -1.0260  1.0494 -1.0642
13210TIP3   OH261120   5.046   0.125  16.369 -0.1159  0.9175  0.4693
13210TIP3    H161121   4.987   0.058  16.334  0.2678  0.7864  0.0654
13210TIP3    H261122   5.060   0.185  16.296  1.1748  0.3152  0.1989
13211TIP3   OH261123   0.374   2.760   2.237 -0.0508 -0.0792  0.0435
13211TIP3    H161124   0.349   2.828   2.174 -1.8766  0.2411  1.0381
13211TIP3    H261125   0.320   2.777   2.314  0.3582 -1.9037  0.7950
13212TIP3   OH261126   6.080   2.269  12.020 -0.3336  0.3544 -0.4076
13212TIP3    H161127   6.143   2.298  11.955 -0.5147  1.1210 -0.2555
13212TIP3    H261128   6.057   2.348  12.068 -0.8923 -0.0365 -0.0119
13213TIP3   OH261129   5.422   4.084   5.150 -0.2262  0.1977  0.2220
13213TIP3    H161130   5.485   4.135   5.099  0.9193 -0.5231  0.8728
13213TIP3    H261131   5.468   4.064   5.231 -1.8868  1.0649  1.4542
13214TIP3   OH261132   3.098   0.250   5.237  0.3441  0.3247 -0.1403
13214TIP3    H161133   3.175   0.198   5.263 -0.1143 -0.1738  0.2332
13214TIP3    H261134   3.024   0.190   5.248 -0.2845  1.2672  1.0012
13215TIP3   OH261135   1.785   3.769  11.645 -0.0391 -0.1117 -0.0659
13215TIP3    H161136   1.694   3.784  11.669 -0.6444 -2.0113 -0.9633
13215TIP3    H261137   1.791   3.795  11.553  0.8053  1.6807  0.4598
13216TIP3   OH261138   3.169   2.430  16.831  0.7154 -0.1078 -0.5828
13216TIP3    H161139   3.098   2.427  16.767  0.8101 -1.8678 -0.6712
13216TIP3    H261140   3.241   2.474  16.786 -0.1188  1.1910 -0.6806
13217TIP3   OH261141   5.459   2.318  11.824 -0.0179  0.2840  0.4815
13217TIP3    H161142   5.504   2.265  11.759 -1.1700 -1.1579  0.8035
13217TIP3    H261143   5.528   2.369  11.866  0.7341  1.2892 -1.8706
13218TIP3   OH261144   0.818   6.351  16.212  0.5236 -0.1357  0.0448
13218TIP3    H161145   0.744   6.411  16.208 -0.1207 -0.9693 -0.7585
13218TIP3    H261146   0.866   6.378  16.291  1.6810  3.0615 -1.5517
13219TIP3   OH261147   1.317   5.302   5.833  0.7082  0.1295 -0.0023
13219TIP3    H161148   1.292   5.335   5.920  1.1926 -0.2132  0.2730
13219TIP3    H261149   1.412   5.317   5.828  0.7182 -0.0542 -0.3817
13220TIP3   OH261150   0.264   0.859   1.695  0.3534  0.3550 -0.5872
13220TIP3    H161151   0.225   0.772   1.701 -4.4819  2.1716 -1.4186
13220TIP3    H261152   0.264   0.892   1.785  0.5863  0.1256 -0.5015
13221TIP3   OH261153   2.113   4.930   5.304 -0.5661 -0.0128 -0.1554
13221TIP3    H161154   2.073   5.013   5.332  2.8366  2.4988 -1.9597
13221TIP3    H261155   2.110   4.934   5.208  0.1203 -1.7945 -0.2834
13222TIP3   OH261156   3.074   4.882   5.885  0.3295  0.1609 -0.5281
13222TIP3    H161157   3.163   4.877   5.850 -0.1351 -0.1295 -1.7361
13222TIP3    H261158   3.061   4.799   5.931  0.3446 -0.2379 -1.2291
13223TIP3   OH261159   5.556   3.019  15.250 -0.2787  0.4229 -0.0283
13223TIP3    H161160   5.507   2.938  15.267 -0.9465  0.4368 -1.7106
13223TIP3    H261161   5.493   3.076  15.205  0.9429  0.8997 -1.1788
13224TIP3   OH261162   3.592   3.805   4.775 -0.4551 -0.0321 -0.1961
13224TIP3    H161163   3.552   3.792   4.689 -0.2166  0.9463 -0.4674
13224TIP3    H261164   3.518   3.824   4.833 -0.5990 -0.4994 -0.2256
13225TIP3   OH261165   6.774   5.615  16.713 -0.4989  0.1286  0.6147
13225TIP3    H161166   6.743   5.702  16.739 -1.4822 -0.6839  2.3446
13225TIP3    H261167   6.695   5.561  16.713  0.0907 -0.7695 -0.4817
13226TIP3   OH261168   0.741   1.036  14.110 -0.0482  0.3562  0.2852
13226TIP3    H161169   0.751   0.960  14.052  1.3480  0.0052  0.9555
13226TIP3    H261170   0.823   1.084  14.100 -0.1220  0.7073  1.3708
13227TIP3   OH261171   6.466   4.595   2.418  0.0224 -0.2040 -0.1916
13227TIP3    H161172   6.498   4.544   2.344 -0.5990 -2.1032  0.7770
13227TIP3    H261173   6.374   4.612   2.398  0.0846  0.0638 -0.2563
13228TIP3   OH261174   2.879   5.294   3.275  0.0661 -0.9096 -0.7390
13228TIP3    H161175   2.894   5.226   3.340  1.2221 -0.3830 -0.4315
13228TIP3    H261176   2.950   5.357   3.289  0.2780 -0.7174 -2.4079
13229TIP3   OH261177   2.922   3.190   3.160  0.5732 -0.3387 -0.4128
13229TIP3    H161178   2.836   3.159   3.133  0.6765  0.1961 -1.4041
13229TIP3    H261179   2.971   3.201   3.079  1.8143 -1.2775  0.1725
13230TIP3   OH261180   6.008   6.757   0.365  0.5093 -0.1657 -0.4259
13230TIP3    H161181   5.912   6.756   0.365  0.5120 -0.4552 -0.9944
13230TIP3    H261182   6.031   6.838   0.319  0.5367 -0.9000 -1.7456
13231TIP3   OH261183   2.351   0.055  12.315 -0.6261  0.3558  0.4340
13231TIP3    H161184   2.309  -0.016  12.364 -0.0489 -0.2891  0.0240
13231TIP3    H261185   2.386   0.012  12.237  0.1757  0.9974  0.4237
13232TIP3   OH261186   6.466   0.655  12.234 -0.1127 -0.3712  0.1512
13232TIP3    H161187   6.530   0.720  12.203 -1.6200  1.6835  1.1413
13232TIP3    H261188   6.381   0.690  12.207 -1.0243 -1.6904  1.1733
13233TIP3   OH261189   3.311   1.482   0.866 -0.0341 -0.4050  0.0186
13233TIP3    H161190   3.288   1.575   0.878  1.5677  0.1862 -1.1171
13233TIP3    H261191   3.315   1.446   0.954  2.9934  1.5851  0.8445
13234TIP3   OH261192   0.270   6.775   1.057  0.1196 -0.2275  0.0100
13234TIP3    H161193   0.221   6.763   0.975  0.3355  1.5224 -0.4113
13234TIP3    H261194   0.242   6.702   1.112 -0.6831 -0.9595 -1.3091
13235TIP3   OH261195   3.991   3.363  14.864  0.2559  0.3882  0.4934
13235TIP3    H161196   3.897   3.357  14.850  0.2914  0.4800  0.2024
13235TIP3    H261197   4.018   3.273  14.884  0.2354  0.2020 -0.2726
13236TIP3   OH261198   6.714   2.482  14.395 -0.6842  0.2778  0.7497
13236TIP3    H161199   6.662   2.423  14.450  0.8439  0.1032  2.0764
13236TIP3    H261200   6.734   2.557  14.452 -0.3422  0.8120 -0.0547
13237TIP3   OH261201   5.571   3.985   0.751  0.7525 -0.3252  0.1063
13237TIP3    H161202   5.501   3.972   0.816  0.7760 -3.7009 -0.3687
13237TIP3    H261203   5.536   4.051   0.691 -0.6934  0.3348  1.5872
13238TIP3   OH261204   5.574   2.598  11.558 -0.6018 -0.0324  0.0757
13238TIP3    H161205   5.540   2.650  11.631 -1.3234  0.3439 -0.5249
13238TIP3    H261206   5.587   2.661  11.488 -0.1625 -0.4403 -0.2143
13239TIP3   OH261207   2.676   4.392  12.129  0.2898 -0.3728 -0.3573
13239TIP3    H161208   2.677   4.324  12.061 -1.2058 -1.6265  0.7880
13239TIP3    H261209   2.761   4.434  12.122  1.2322 -2.2763 -1.2228
13240TIP3   OH261210   0.965   4.135  17.012  0.1357 -0.5727  0.2751
13240TIP3    H161211   0.973   4.143  17.108  3.0504 -3.7404  0.4935
13240TIP3    H261212   0.916   4.055  16.999  1.8050 -1.4861 -0.7683
13241TIP3   OH261213   1.497   6.002   1.645  0.6215  0.1752 -0.3927
13241TIP3    H161214   1.412   6.018   1.686  0.4699  1.6851 -1.1935
13241TIP3    H261215   1.507   6.075   1.583  2.0055 -0.5882 -1.1092
13242TIP3   OH261216   2.643   4.420  14.753  0.3605  0.2631 -0.0222
13242TIP3    H161217   2.710   4.353  14.746  0.4737  0.3990 -0.2368
13242TIP3    H261218   2.657   4.459  14.840  2.2202  2.0364 -1.0394
13243TIP3   OH261219   6.586   3.594  12.013 -0.4983 -0.8675 -0.0693
13243TIP3    H161220   6.629   3.519  12.052  0.8811  0.8338  1.9291
13243TIP3    H261221   6.500   3.561  11.986  0.8204 -3.6074 -1.2596
13244TIP3   OH261222   4.580   1.706   5.121  0.4446  0.0149 -0.2381
13244TIP3    H161223   4.537   1.638   5.069  0.9944  0.3128 -1.1075
13244TIP3    H261224   4.590   1.668   5.208  2.1082 -1.6304 -1.0762
13245TIP3   OH261225   1.346   2.552  15.546 -0.5081 -0.6014  0.4857
13245TIP3    H161226   1.371   2.601  15.467  0.0415 -1.0629  0.3644
13245TIP3    H261227   1.344   2.618  15.615 -0.7694 -0.2313  0.1286
13246TIP3   OH261228   3.875   2.277   0.665  0.1043 -0.5133 -0.1082
13246TIP3    H161229   3.845   2.237   0.746  0.3743 -0.1797  0.1598
13246TIP3    H261230   3.898   2.203   0.608  2.3085 -0.7739  1.0092
13247TIP3   OH261231   1.223   3.984  15.236  0.5863 -0.8258 -0.6435
13247TIP3    H161232   1.214   4.030  15.152 -1.0491  1.5000  0.6854
13247TIP3    H261233   1.281   4.039  15.288  1.5618 -2.2238 -0.1921
13248TIP3   OH261234   2.084   4.762  13.572  0.2297 -0.0804 -0.1106
13248TIP3    H161235   1.996   4.772  13.608 -0.6599 -0.8094 -1.9393
13248TIP3    H261236   2.140   4.815  13.629 -1.4662  0.8287  0.7798
13249TIP3   OH261237   1.967   5.034  14.746  0.5628  0.5597 -0.1419
13249TIP3    H161238   1.993   5.073  14.662  1.1611  2.5935  0.9385
13249TIP3    H261239   1.872   5.049  14.751  0.6617  1.1693 -0.0878
13250TIP3   OH261240   4.529   1.277  16.564 -0.0946  0.1749 -0.6713
13250TIP3    H161241   4.467   1.273  16.637 -0.3042 -0.6439 -0.8836
13250TIP3    H261242   4.576   1.359  16.577 -1.1447  0.7497 -0.4420
13251TIP3   OH261243   5.406   6.186  13.831  0.1457  0.2607 -0.5826
13251TIP3    H161244   5.355   6.267  13.833  0.9591  0.7734  0.7399
13251TIP3    H261245   5.452   6.190  13.747 -1.0500  0.3578 -1.2609
13252TIP3   OH261246   5.173   3.425   0.711 -1.0913 -0.3424 -0.3287
13252TIP3    H161247   5.084   3.428   0.744 -1.0480  0.3897 -0.2742
13252TIP3    H261248   5.166   3.453   0.620 -0.9818 -0.7824 -0.4784
13253TIP3   OH261249   6.539   5.678  11.862 -0.1783 -0.4526  0.2694
13253TIP3    H161250   6.472   5.642  11.921  0.5055 -1.8282  0.2519
13253TIP3    H261251   6.615   5.691  11.919 -0.0225 -0.2279  0.0084
13254TIP3   OH261252   1.933   5.095   1.984  0.2728 -0.0095  0.8177
13254TIP3    H161253   1.933   5.030   2.054 -1.9305 -2.1043 -0.9335
13254TIP3    H261254   1.842   5.124   1.978 -0.0034 -1.1684 -2.1665
13255TIP3   OH261255   1.288   5.033  16.329  0.2985 -0.1330 -0.0299
13255TIP3    H161256   1.320   5.040  16.240  2.3921 -1.7198  0.5379
13255TIP3    H261257   1.331   4.956  16.365 -1.3619 -0.2033  2.0223
13256TIP3   OH261258   1.005   1.398   4.859  0.2572 -0.9672  0.2254
13256TIP3    H161259   0.975   1.307   4.853 -1.6514 -0.2871 -1.8815
13256TIP3    H261260   0.939   1.441   4.913 -0.5974 -0.2524 -1.3140
13257TIP3   OH261261   3.943   5.461  14.785 -1.0146 -0.1769  0.0709
13257TIP3    H161262   3.992   5.539  14.810 -1.1012 -0.2077  0.3432
13257TIP3    H261263   3.852   5.491  14.776 -1.0697 -0.2724  0.3044
13258TIP3   OH261264   3.458   0.830   0.393 -0.2160  0.9629  0.2341
13258TIP3    H161265   3.383   0.773   0.411  1.2337 -1.2151 -0.1577
13258TIP3    H261266   3.420   0.915   0.373 -2.5356  0.0814  0.5968
13259TIP3   OH261267   0.951   0.573  16.215  0.3404 -0.0706 -0.1453
13259TIP3    H161268   0.896   0.568  16.294 -0.3441 -1.1858 -0.6646
13259TIP3    H261269   0.900   0.627  16.154  0.9393  0.9190  0.2214
13260TIP3   OH261270   3.012   5.401   5.008  0.0035 -0.4607 -1.1271
13260TIP3    H161271   2.992   5.309   5.023  0.1365 -0.4860 -1.1061
13260TIP3    H261272   2.987   5.417   4.917 -1.9269 -0.0163 -0.5818
13261TIP3   OH261273   0.980   2.274  13.719  0.1087 -0.0673  0.0581
13261TIP3    H161274   1.069   2.309  13.721  0.4256 -0.7563 -1.2745
13261TIP3    H261275   0.925   2.348  13.745  1.0081  0.5894  0.1284
13262TIP3   OH261276   0.040   1.943  15.855  0.5586  0.2327  0.1732
13262TIP3    H161277  -0.051   1.913  15.866 -0.0474  1.7066 -0.4989
13262TIP3    H261278   0.087   1.865  15.825 -1.1522  0.0926 -2.5462
13263TIP3   OH261279   0.200   4.889  14.557 -0.1523 -0.0512 -0.0045
13263TIP3    H161280   0.182   4.980  14.582 -0.7423  0.1380 -1.0578
13263TIP3    H261281   0.295   4.884  14.552 -0.1458  1.1091 -1.9755
13264TIP3   OH261282   0.822   3.171  16.296 -0.1439  0.2541  0.6288
13264TIP3    H161283   0.784   3.114  16.230  0.5159 -0.7290  1.0735
13264TIP3    H261284   0.914   3.144  16.302  0.7036  2.6036 -0.4709
13265TIP3   OH261285   6.618   3.428  11.534 -0.5244 -0.1377  0.1985
13265TIP3    H161286   6.565   3.505  11.556  1.0061  0.4490  2.0072
13265TIP3    H261287   6.656   3.449  11.449 -1.7251  0.1878 -0.2912
13266TIP3   OH261288   5.591   6.782  11.883 -0.2204  0.1931 -0.1402
13266TIP3    H161289   5.565   6.708  11.828  0.3956  1.1426 -1.7783
13266TIP3    H261290   5.685   6.791  11.869 -0.2238  1.0879  0.3008
13267TIP3   OH261291   0.341   5.074   3.740  0.3154  0.0496 -0.1841
13267TIP3    H161292   0.391   5.070   3.822 -0.5147 -0.7601  0.3045
13267TIP3    H261293   0.379   5.005   3.686  1.2761  0.9867 -0.7494
13268TIP3   OH261294   4.272   4.927   0.766  0.4341 -0.2496  0.2387
13268TIP3    H161295   4.270   4.921   0.861  0.9662 -1.0671  0.2068
13268TIP3    H261296   4.184   4.957   0.742  0.3398  0.0857  0.9901
13269TIP3   OH261297   3.548   4.581  16.243 -0.0747 -0.0760 -0.0620
13269TIP3    H161298   3.594   4.598  16.325 -1.9649  1.2676  0.7995
13269TIP3    H261299   3.479   4.648  16.240 -1.7671 -1.7568 -1.3971
13270TIP3   OH261300   1.325   2.781   4.697 -0.1534 -0.5582 -0.1884
13270TIP3    H161301   1.368   2.773   4.782  1.6101 -0.6240 -1.0397
13270TIP3    H261302   1.362   2.861   4.659 -0.8143 -0.6035 -0.9531
13271TIP3   OH261303   5.376   0.534  17.114  0.1086  0.2762 -0.0632
13271TIP3    H161304   5.384   0.579  17.199  0.1774 -0.3883  0.2938
13271TIP3    H261305   5.291   0.561  17.081  0.4946  1.3155 -0.2475
13272TIP3   OH261306   5.116   0.139  10.942  0.1537 -0.1021 -0.5914
13272TIP3    H161307   5.025   0.111  10.949  0.0267  0.5906  0.8561
13272TIP3    H261308   5.148   0.097  10.862 -1.2239 -0.9223 -0.7406
13273TIP3   OH261309   3.482   1.574   0.357  0.0420 -0.2204  0.3255
13273TIP3    H161310   3.571   1.602   0.334  0.2623 -1.0333  0.1442
13273TIP3    H261311   3.437   1.654   0.383  1.3024 -0.0117  2.0034
13274TIP3   OH261312   6.517   2.484   4.255  0.1491 -0.3108  0.1818
13274TIP3    H161313   6.445   2.545   4.244  0.6626  0.2903  0.0757
13274TIP3    H261314   6.485   2.419   4.317 -0.0987  0.5750  1.0089
13275TIP3   OH261315   5.299   6.344   6.067  0.2921 -0.3948 -0.1514
13275TIP3    H161316   5.310   6.395   6.147 -1.4766 -1.7665  1.0269
13275TIP3    H261317   5.221   6.380   6.025 -0.2730 -1.3169  0.0809
13276TIP3   OH261318   5.693   6.099  10.699  0.5808 -0.5057 -0.0677
13276TIP3    H161319   5.746   6.108  10.621  0.3236  0.6849 -0.1209
13276TIP3    H261320   5.678   6.005  10.707 -0.0668 -0.5984 -1.9096
13277TIP3   OH261321   5.793   3.095   5.029  0.3699  0.1047 -0.1712
13277TIP3    H161322   5.861   3.124   4.969 -0.7645 -0.3765 -1.7457
13277TIP3    H261323   5.758   3.015   4.990 -0.7102  0.0111  0.9047
13278TIP3   OH261324   0.759   3.919  13.115 -0.0017 -0.2941  0.3610
13278TIP3    H161325   0.664   3.917  13.100  0.2200 -0.1003 -1.2030
13278TIP3    H261326   0.797   3.907  13.028  1.4055  0.2885  0.8744
13279TIP3   OH261327   0.414   0.157   6.478  0.4174  0.3955 -0.5777
13279TIP3    H161328   0.382   0.111   6.556  0.3033  1.5019  0.0451
13279TIP3    H261329   0.420   0.248   6.505  1.1242  0.6765 -1.6420
13280TIP3   OH261330   4.881   5.609  14.690  0.7316  0.1784 -0.4426
13280TIP3    H161331   4.909   5.518  14.677  1.7319 -0.0061  2.2664
13280TIP3    H261332   4.953   5.661  14.656  0.5406 -0.0588 -1.2242
13281TIP3   OH261333   2.005   1.680  12.518 -0.1050  0.1320 -0.0815
13281TIP3    H161334   1.925   1.732  12.512 -0.1116 -0.0088 -1.3500
13281TIP3    H261335   1.982   1.606  12.575 -0.3922  0.9428  0.8893
13282TIP3   OH261336   2.982   5.957  13.101  0.2857 -0.4946  0.0306
13282TIP3    H161337   2.964   5.873  13.061  1.0311 -0.6322 -0.0401
13282TIP3    H261338   2.950   6.022  13.038  0.6071 -0.7210 -0.3717
13283TIP3   OH261339   4.890   3.996   1.675 -0.0115 -0.5533  0.3506
13283TIP3    H161340   4.869   3.957   1.590 -0.2795  0.0038  0.1551
13283TIP3    H261341   4.834   3.949   1.737 -1.4568  0.5068 -0.0846
13284TIP3   OH261342   4.613   0.513   6.598 -0.7328 -0.3915 -0.2002
13284TIP3    H161343   4.630   0.598   6.638  1.2197 -1.4715  1.4677
13284TIP3    H261344   4.670   0.510   6.521 -2.1567  0.4592 -1.3379
13285TIP3   OH261345   3.277   2.834   4.879  0.0507 -0.6352  0.4902
13285TIP3    H161346   3.223   2.870   4.949 -0.7619 -1.4433  0.2872
13285TIP3    H261347   3.362   2.877   4.890  0.0326 -0.9815  2.1655
13286TIP3   OH261348   0.506   3.363   3.238 -0.0944 -0.5924 -0.2931
13286TIP3    H161349   0.559   3.437   3.209 -0.0556 -0.8963 -1.0052
13286TIP3    H261350   0.482   3.385   3.328  0.7053 -0.1599 -0.1788
13287TIP3   OH261351   2.193   3.963   1.538 -0.2399  0.0575 -0.2253
13287TIP3    H161352   2.100   3.977   1.520 -0.1803  1.6597  0.5326
13287TIP3    H261353   2.196   3.879   1.585 -1.1132 -0.7600 -1.5626
13288TIP3   OH261354   6.521   3.705   0.408  0.0564  0.8113  0.5199
13288TIP3    H161355   6.549   3.643   0.476  1.5949  1.6969  0.7523
13288TIP3    H261356   6.426   3.698   0.407  0.1627 -1.5014  0.5661
13289TIP3   OH261357   5.366   4.139   6.591 -0.2630  0.3483  0.2770
13289TIP3    H161358   5.419   4.074   6.545  0.2459  0.6640  0.4096
13289TIP3    H261359   5.413   4.222   6.578  0.8393  0.1972  2.7773
13290TIP3   OH261360   6.241   4.870   5.237  0.3601  0.4301 -0.4111
13290TIP3    H161361   6.322   4.821   5.219  1.4455  2.3241 -0.9939
13290TIP3    H261362   6.238   4.936   5.168 -1.3036  0.8826  0.0602
13291TIP3   OH261363   1.860   0.508  15.265 -0.2924  0.3371  0.0510
13291TIP3    H161364   1.874   0.600  15.285  0.2546 -0.1781  2.3404
13291TIP3    H261365   1.765   0.500  15.252 -0.4140  1.1147  0.4086
13292TIP3   OH261366   5.514   4.569  16.804 -0.2685 -0.4113  0.1909
13292TIP3    H161367   5.421   4.545  16.800  0.0422 -1.8122  0.9141
13292TIP3    H261368   5.555   4.500  16.856  1.1840  0.2105 -0.0718
13293TIP3   OH261369   4.170   6.602   4.335  0.1472  0.0233  0.0470
13293TIP3    H161370   4.088   6.554   4.332  0.7141 -0.9618 -0.2803
13293TIP3    H261371   4.148   6.687   4.373 -1.0620 -0.1254 -0.3061
13294TIP3   OH261372   1.946   0.503   3.929 -0.5851  0.0195 -0.0624
13294TIP3    H161373   1.893   0.470   3.857 -0.0947 -1.5923  0.2629
13294TIP3    H261374   1.932   0.440   4.000  0.4920  0.4625  0.5736
13295TIP3   OH261375   0.715   2.463  14.060 -0.5735  0.1660  0.2744
13295TIP3    H161376   0.666   2.400  14.113 -0.5289 -0.9936 -1.0166
13295TIP3    H261377   0.705   2.433  13.970  1.7099  0.4464 -0.1482
13296TIP3   OH261378   4.461   0.162   2.505 -0.2667 -0.3063  1.0052
13296TIP3    H161379   4.403   0.126   2.573 -0.9793  0.8644  1.0442
13296TIP3    H261380   4.471   0.254   2.529  1.1939 -0.3572  0.6850
13297TIP3   OH261381   6.552   1.580  13.769  0.2535 -0.9384  0.3139
13297TIP3    H161382   6.510   1.658  13.808  0.8695 -0.8253  0.7590
13297TIP3    H261383   6.638   1.576  13.811  0.8447 -0.9404 -0.8840
13298TIP3   OH261384   5.801   2.350  12.163 -0.2968 -0.2005  0.0934
13298TIP3    H161385   5.844   2.401  12.094 -0.4965 -0.3245 -0.1213
13298TIP3    H261386   5.777   2.415  12.229 -0.5781 -0.0116 -0.1946
13299TIP3   OH261387   0.194   1.315   6.121 -0.2667 -0.2541  0.5950
13299TIP3    H161388   0.244   1.378   6.172 -0.7404 -0.0906  0.8594
13299TIP3    H261389   0.256   1.243   6.106  1.0404  1.2201 -1.6542
13300TIP3   OH261390   3.919   1.966   1.894 -0.3354 -0.4682 -0.7524
13300TIP3    H161391   3.987   1.899   1.908  0.0301 -0.4365 -2.2436
13300TIP3    H261392   3.837   1.917   1.892 -0.1945 -0.7129 -0.5619
13301TIP3   OH261393   1.617   5.325   4.902 -0.2040 -0.5780 -0.2253
13301TIP3    H161394   1.646   5.324   4.810  0.0122 -0.6353 -0.1567
13301TIP3    H261395   1.667   5.396   4.942 -1.5949  0.6663 -0.5620
13302TIP3   OH261396   4.259   3.301   3.821 -0.4451  0.0612 -0.4189
13302TIP3    H161397   4.338   3.265   3.782  2.4461  2.8392  2.3081
13302TIP3    H261398   4.255   3.391   3.789 -1.4539  0.5352  0.9422
13303TIP3   OH261399   1.708   5.638  10.895 -0.4942  0.3055 -0.6798
13303TIP3    H161400   1.714   5.718  10.843  0.5027  1.3205  0.8960
13303TIP3    H261401   1.614   5.619  10.900 -0.7885  1.6418 -0.7257
13304TIP3   OH261402   1.631   1.319  11.505 -0.2600  0.3937  0.3974
13304TIP3    H161403   1.714   1.305  11.552  0.3037  0.4215 -0.5636
13304TIP3    H261404   1.598   1.402  11.538 -0.1443  0.1644  1.1202
13305TIP3   OH261405   0.624   6.143   2.947 -0.0885  0.2401  0.1223
13305TIP3    H161406   0.704   6.114   2.990 -0.2398 -1.0519 -0.4153
13305TIP3    H261407   0.646   6.228   2.910  0.7356  0.3242  0.7812
13306TIP3   OH261408   2.997   2.370  11.806 -0.0469 -0.3225  0.8483
13306TIP3    H161409   2.950   2.453  11.795  1.5896  0.7784  1.7155
13306TIP3    H261410   2.947   2.323  11.872 -0.8810  0.0562  0.5034
13307TIP3   OH261411   3.725   1.435   3.492 -0.0640 -0.0629 -0.0333
13307TIP3    H161412   3.718   1.466   3.582 -1.2302  0.2975 -0.2307
13307TIP3    H261413   3.707   1.341   3.498 -1.3146  0.1575 -0.0130
13308TIP3   OH261414   6.237   5.189   3.180 -0.2583  0.2179  0.0793
13308TIP3    H161415   6.218   5.157   3.093  1.5960 -2.4065  0.5296
13308TIP3    H261416   6.289   5.268   3.166 -1.8269  1.1048 -1.0973
13309TIP3   OH261417   3.120   5.516  13.675  0.3273 -0.0511 -0.6075
13309TIP3    H161418   3.138   5.542  13.585  0.1287  0.0192 -0.6280
13309TIP3    H261419   3.190   5.557  13.726 -0.4285  1.2269 -0.5337
13310TIP3   OH261420   4.444   4.970   2.875 -0.3275 -0.2870  0.5972
13310TIP3    H161421   4.368   5.022   2.851 -0.6019 -0.4996  0.9847
13310TIP3    H261422   4.485   4.947   2.791 -1.0534 -0.7057  0.3453
13311TIP3   OH261423   5.091   6.039  12.848 -0.4040 -0.1525 -0.5716
13311TIP3    H161424   5.114   6.056  12.940  0.6408 -1.5577 -0.5491
13311TIP3    H261425   5.005   6.080  12.838  0.0988  1.2968  0.6199
13312TIP3   OH261426   4.495   1.171  14.303 -0.2304  0.0092  0.0645
13312TIP3    H161427   4.438   1.111  14.352 -1.5231  1.0941 -0.0432
13312TIP3    H261428   4.546   1.216  14.369  0.3994 -0.8332  0.1757
13313TIP3   OH261429   0.451   1.217   4.554 -0.1839 -0.6283 -0.4606
13313TIP3    H161430   0.480   1.286   4.493 -0.0648 -0.2779 -0.0149
13313TIP3    H261431   0.356   1.220   4.551 -0.5342  3.4914  3.7287
13314TIP3   OH261432   2.305   5.791   2.973 -0.3625 -0.0251  0.2269
13314TIP3    H161433   2.384   5.802   3.027 -2.0391  2.3152  2.4949
13314TIP3    H261434   2.323   5.840   2.893  1.5373 -2.0934 -0.7133
13315TIP3   OH261435   1.915   6.499  12.573 -0.2105 -0.0943  0.1984
13315TIP3    H161436   1.931   6.592  12.558 -0.2377  0.0402  0.9682
13315TIP3    H261437   1.821   6.492  12.586 -0.1653 -0.1800  0.4826
13316TIP3   OH261438   3.834   4.159   6.204  0.3138 -0.0636 -0.3940
13316TIP3    H161439   3.895   4.152   6.277  0.1141 -0.4511 -0.2619
13316TIP3    H261440   3.815   4.069   6.180  0.1696  0.0601 -0.7525
13317TIP3   OH261441   6.195   5.786  16.993  0.4495  0.1650 -0.0888
13317TIP3    H161442   6.172   5.842  16.919 -0.6417  0.5340  0.5169
13317TIP3    H261443   6.205   5.699  16.955 -1.0452  0.1676 -0.5268
13318TIP3   OH261444   0.292   2.898   1.299  0.7523 -0.2346 -0.1948
13318TIP3    H161445   0.374   2.917   1.253  0.2269  0.4034 -0.9019
13318TIP3    H261446   0.229   2.881   1.229 -0.0560  0.7074  0.2753
13319TIP3   OH261447   5.257   2.101   4.166  0.7175  0.0491 -0.1464
13319TIP3    H161448   5.208   2.151   4.101 -1.1980 -0.2580  0.9773
13319TIP3    H261449   5.319   2.163   4.203 -0.1022  0.9845 -0.3175
13320TIP3   OH261450   2.507   4.119  15.639  0.4367  0.1235  0.2178
13320TIP3    H161451   2.508   4.205  15.599 -1.9150 -1.1858 -3.0838
13320TIP3    H261452   2.564   4.066  15.584 -1.0688 -1.2407 -0.0993
13321TIP3   OH261453   2.388   3.992   1.768  0.4660  0.0358 -0.3529
13321TIP3    H161454   2.416   3.919   1.713  0.3470  0.9497 -1.7055
13321TIP3    H261455   2.353   4.056   1.705 -2.6023 -0.1096  1.0306
13322TIP3   OH261456   6.515   4.649   0.972 -0.2001 -0.2921 -0.6166
13322TIP3    H161457   6.549   4.562   0.953  0.0807 -0.1632 -0.6941
13322TIP3    H261458   6.420   4.641   0.958 -0.3156 -0.8664  0.3992
13323TIP3   OH261459   5.934   2.623  10.823  0.0355  0.1064 -0.2003
13323TIP3    H161460   5.954   2.716  10.828  0.2755  0.0714 -0.4973
13323TIP3    H261461   5.840   2.617  10.844  0.5593  0.1485  2.4073
13324TIP3   OH261462   3.701   3.832  12.982 -0.2795  0.1891 -0.2209
13324TIP3    H161463   3.702   3.881  13.065 -0.6852  0.4733 -0.3788
13324TIP3    H261464   3.765   3.878  12.927 -0.5323  0.4431 -0.3084
13325TIP3   OH261465   1.723   2.321   4.432  0.5180 -0.3004 -0.3554
13325TIP3    H161466   1.699   2.229   4.438 -0.8096  0.0573  0.1288
13325TIP3    H261467   1.733   2.349   4.524 -0.1937  0.3050 -0.4541
13326TIP3   OH261468   5.791   5.544  13.692 -0.2344 -0.2434  0.2127
13326TIP3    H161469   5.848   5.586  13.756  0.5706 -2.0927  0.7586
13326TIP3    H261470   5.763   5.463  13.734 -1.4162 -0.4860 -0.9651
13327TIP3   OH261471   1.492   3.275   2.217  0.7764  0.2059 -0.2162
13327TIP3    H161472   1.535   3.199   2.256  1.2086  0.2247 -0.6481
13327TIP3    H261473   1.487   3.339   2.288  0.8276 -0.0513  0.0235
13328TIP3   OH261474   3.084   5.579   0.883  0.1516  0.1530  0.2883
13328TIP3    H161475   3.076   5.675   0.883  1.1374  0.2713  1.7867
13328TIP3    H261476   3.173   5.563   0.852 -0.3144 -0.3405 -0.8318
13329TIP3   OH261477   5.219   3.684  17.208  0.8814  0.1537 -0.0518
13329TIP3    H161478   5.274   3.629  17.264 -0.6120 -0.9917  0.3767
13329TIP3    H261479   5.256   3.674  17.121 -0.0011 -2.5817 -0.2111
13330TIP3   OH261480   4.080   5.417  12.127  0.3846  0.1834 -1.4279
13330TIP3    H161481   4.010   5.397  12.189 -1.0751  0.4106 -2.9292
13330TIP3    H261482   4.146   5.349  12.141 -0.3002 -0.2560 -0.2399
13331TIP3   OH261483   2.616   2.398  16.533 -0.4104 -0.3590 -0.1495
13331TIP3    H161484   2.569   2.458  16.475 -0.8821 -1.0247 -0.4577
13331TIP3    H261485   2.552   2.330  16.555 -0.3533  0.0466  1.4185
13332TIP3   OH261486   6.583   3.777  15.956 -0.2849 -0.2628 -0.2804
13332TIP3    H161487   6.639   3.711  15.915 -1.2124 -1.3934  0.2496
13332TIP3    H261488   6.634   3.858  15.948  0.4832 -0.8415 -1.7404
13333TIP3   OH261489   1.249   1.155   3.406  0.4614 -0.4598 -0.5440
13333TIP3    H161490   1.284   1.112   3.484  1.5781  0.9495 -0.2333
13333TIP3    H261491   1.175   1.207   3.438  0.3388 -0.6063 -0.5880
13334TIP3   OH261492   0.195   0.504   5.068  0.2177 -0.6958 -0.3906
13334TIP3    H161493   0.228   0.574   5.124 -4.2407  1.5478 -0.1289
13334TIP3    H261494   0.203   0.539   4.979 -0.2791 -0.6298 -0.4142
13335TIP3   OH261495   1.372   6.567  13.679  0.2842  0.3515  0.4572
13335TIP3    H161496   1.288   6.522  13.666  0.0970  0.8813 -0.2111
13335TIP3    H261497   1.369   6.641  13.619  0.3399  1.6254  1.9614
13336TIP3   OH261498   1.546   4.417   0.908  0.2410 -0.6296  0.0392
13336TIP3    H161499   1.453   4.426   0.926  0.5532  1.8695  0.7289
13336TIP3    H261500   1.556   4.445   0.817  0.4612  0.5150  0.3954
13337TIP3   OH261501   0.072   6.493  12.300  0.2537  0.0800  0.5999
13337TIP3    H161502   0.160   6.530  12.294 -0.1824  1.1742  0.8312
13337TIP3    H261503   0.068   6.428  12.230  2.0124 -1.6167  1.9639
13338TIP3   OH261504   2.648   2.446  15.078 -0.0081  0.3229  0.6352
13338TIP3    H161505   2.585   2.501  15.031  0.2911 -0.3484 -0.5787
13338TIP3    H261506   2.702   2.508  15.127  0.7293  1.1995 -1.1918
13339TIP3   OH261507   6.652   6.132  13.097  0.1400  0.1758 -0.7037
13339TIP3    H161508   6.632   6.225  13.106 -0.7829 -0.0849  0.0402
13339TIP3    H261509   6.626   6.094  13.181  2.3835 -0.4449 -0.2149
13340TIP3   OH261510   4.113   5.823  12.952  0.2001 -0.5110 -0.2595
13340TIP3    H161511   4.055   5.883  12.904 -0.1935 -2.1850 -1.9572
13340TIP3    H261512   4.198   5.868  12.953 -0.5765  1.0236  0.4200
13341TIP3   OH261513   2.349   2.194  12.802  0.2070  0.1929 -0.9274
13341TIP3    H161514   2.271   2.249  12.799 -0.6635 -1.0328 -2.1486
13341TIP3    H261515   2.422   2.255  12.797 -0.7056  1.2857 -1.1954
13342TIP3   OH261516   6.209   5.496  17.187 -0.3793  0.4447 -0.3967
13342TIP3    H161517   6.278   5.516  17.124 -0.3108  1.1654 -0.1050
13342TIP3    H261518   6.252   5.505  17.273 -0.5216 -0.3216 -0.2391
13343TIP3   OH261519   4.151   5.718  13.264  0.5020 -0.7157 -0.1006
13343TIP3    H161520   4.066   5.757  13.284  0.8629 -1.2034  2.7569
13343TIP3    H261521   4.159   5.727  13.169 -1.6294  1.5527 -0.1806
13344TIP3   OH261522   5.549   2.330  15.262  0.2851 -0.0274  0.1576
13344TIP3    H161523   5.626   2.291  15.221  0.4788  0.5053  0.0030
13344TIP3    H261524   5.475   2.293  15.214  0.4637 -0.2224  0.0296
13345TIP3   OH261525   1.434   4.218   2.489 -0.1398 -0.0365 -0.5034
13345TIP3    H161526   1.459   4.236   2.579  0.4051 -1.0604 -0.4350
13345TIP3    H261527   1.517   4.211   2.442 -0.3414 -1.2954 -0.7165
13346TIP3   OH261528   4.501   4.673  13.259  0.6046  0.3960 -0.4489
13346TIP3    H161529   4.447   4.722  13.197 -0.7911 -1.6481 -0.9599
13346TIP3    H261530   4.573   4.639  13.207  1.6811  1.9401 -0.0565
13347TIP3   OH261531   0.586   5.027   3.457 -0.4204 -0.3953 -0.0243
13347TIP3    H161532   0.528   5.091   3.416 -0.9964 -0.8855  0.0065
13347TIP3    H261533   0.528   4.973   3.511  0.1285 -0.6209  0.3520
13348TIP3   OH261534   5.211   2.679   1.018 -0.2724  0.4985 -0.1960
13348TIP3    H161535   5.158   2.673   0.939 -1.3220  0.1932  0.5039
13348TIP3    H261536   5.149   2.665   1.090  1.0683 -2.1572  0.6062
13349TIP3   OH261537   3.817   4.048   1.154  0.3456 -0.1714 -0.2831
13349TIP3    H161538   3.912   4.061   1.153  0.3979 -0.4501 -2.1689
13349TIP3    H261539   3.805   3.962   1.193  0.7742  0.2825  0.9090
13350TIP3   OH261540   5.962   6.133   2.833 -0.3001 -0.2555 -0.3797
13350TIP3    H161541   6.003   6.051   2.861  1.1631  0.6355  0.1951
13350TIP3    H261542   5.892   6.106   2.773  1.1711 -1.8327 -1.4557
13351TIP3   OH261543   4.220   6.274  12.708 -0.2233  0.6704 -0.6466
13351TIP3    H161544   4.129   6.305  12.716 -0.2459  0.8670 -1.6302
13351TIP3    H261545   4.214   6.179  12.719 -0.3730  0.8009  0.6015
13352TIP3   OH261546   1.987   2.498   0.851 -0.5945  0.3425 -0.5811
13352TIP3    H161547   1.916   2.511   0.914 -0.2296 -0.3692 -0.0089
13352TIP3    H261548   2.054   2.451   0.900  0.3315  1.1050 -1.0832
13353TIP3   OH261549   2.718   4.269  11.608 -0.2102  0.1669  1.7488
13353TIP3    H161550   2.673   4.350  11.632 -0.1388  0.8824 -0.3110
13353TIP3    H261551   2.694   4.255  11.517  2.7527 -0.0355  0.8969
13354TIP3   OH261552   5.275   1.415  12.905  0.1752  0.6386 -0.3066
13354TIP3    H161553   5.290   1.492  12.850 -1.1249 -0.7383 -2.7677
13354TIP3    H261554   5.179   1.407  12.909  0.2798 -0.3967  0.5649
13355TIP3   OH261555   3.710   0.597  16.215  0.0302 -0.2425  0.2884
13355TIP3    H161556   3.722   0.543  16.293  0.9668 -2.3910 -1.2424
13355TIP3    H261557   3.737   0.541  16.143 -1.0541  1.5662 -1.6341
13356TIP3   OH261558   4.073   4.931  12.202 -0.3634 -0.1172  0.3523
13356TIP3    H161559   4.145   4.983  12.164  1.2551 -1.6375  1.1840
13356TIP3    H261560   4.055   4.865  12.135  0.7725 -1.2669  1.1485
13357TIP3   OH261561   5.721   4.731  10.447 -0.2145 -0.4849  0.2599
13357TIP3    H161562   5.790   4.773  10.498 -2.7812  1.4239  2.4113
13357TIP3    H261563   5.749   4.640  10.439  2.9018  0.3735  0.2599
13358TIP3   OH261564   4.940   1.069  16.857  0.0055  0.4273  0.4405
13358TIP3    H161565   4.983   1.133  16.914 -0.1006 -0.2246  1.2758
13358TIP3    H261566   4.893   1.122  16.792 -1.0169  1.2643  1.7964
13359TIP3   OH261567   6.792   2.938  10.284  0.0186  0.4279 -0.4506
13359TIP3    H161568   6.715   2.924  10.339 -0.5498  0.6070 -1.1763
13359TIP3    H261569   6.822   2.850  10.262  2.3091  0.2235  2.8491
13360TIP3   OH261570   5.028   2.050   0.700  0.1521 -0.5474  0.5884
13360TIP3    H161571   5.026   1.976   0.760  0.0993 -0.4152  0.7506
13360TIP3    H261572   5.036   2.010   0.613  0.0826 -0.7436  0.6715
13361TIP3   OH261573   6.648   0.177   5.012  0.0147  0.7523 -0.0384
13361TIP3    H161574   6.649   0.089   5.048 -1.6810  0.0571 -1.5468
13361TIP3    H261575   6.725   0.220   5.051 -0.5522 -0.5255  2.7137
13362TIP3   OH261576   2.055   2.308  16.707 -0.5728  0.3313  0.1197
13362TIP3    H161577   2.118   2.295  16.778 -0.2771 -0.1587 -0.2231
13362TIP3    H261578   2.002   2.228  16.706 -1.4328  0.8800  0.6237
13363TIP3   OH261579   5.981   2.979  13.520  0.2392  0.1452 -0.6592
13363TIP3    H161580   5.905   2.923  13.528  0.9449 -0.6909  0.6101
13363TIP3    H261581   6.046   2.926  13.473  1.2761 -0.5887  1.4563
13364TIP3   OH261582   2.765   2.313  13.142 -0.1462  0.4820  0.7278
13364TIP3    H161583   2.761   2.408  13.157 -2.6713  0.5220  0.3120
13364TIP3    H261584   2.824   2.281  13.210  2.2783  2.5101 -0.2578
13365TIP3   OH261585   2.401   4.414   4.210  0.2051  0.3551  1.0030
13365TIP3    H161586   2.450   4.352   4.157  1.8152  0.8585  1.8249
13365TIP3    H261587   2.399   4.494   4.159  0.2895  0.3446  0.9836
13366TIP3   OH261588   3.934   0.910  15.890  0.3242  0.1611  0.0930
13366TIP3    H161589   4.020   0.892  15.850  0.6724 -0.0583  0.9301
13366TIP3    H261590   3.872   0.865  15.833  0.4757  2.4086 -2.0166
13367TIP3   OH261591   0.520   0.608   5.054  0.1045 -0.1110  0.3333
13367TIP3    H161592   0.574   0.613   4.975  0.4991  1.6668  0.6546
13367TIP3    H261593   0.482   0.521   5.053  1.7726 -0.8667 -0.7187
13368TIP3   OH261594   1.755   4.733  16.945 -0.1313 -0.0875 -0.0446
13368TIP3    H161595   1.722   4.663  16.888 -2.0072 -0.1827  1.0695
13368TIP3    H261596   1.686   4.799  16.944 -0.0723  0.0591  1.8237
13369TIP3   OH261597   4.843   5.330   1.060  0.4310 -0.5637  0.5882
13369TIP3    H161598   4.792   5.252   1.083  0.4853 -0.5141  0.8855
13369TIP3    H261599   4.799   5.402   1.106 -1.8612  0.2515 -2.5524
13370TIP3   OH261600   2.903   3.327   3.412 -0.9488 -0.2548  0.5863
13370TIP3    H161601   2.917   3.284   3.328 -2.5752 -0.1135  0.2083
13370TIP3    H261602   2.846   3.266   3.460 -4.9480  2.1345 -0.6855
13371TIP3   OH261603   5.146   5.966   4.625  0.6322 -0.0266 -0.3053
13371TIP3    H161604   5.187   5.997   4.544 -1.2370  1.5213 -0.7433
13371TIP3    H261605   5.073   6.027   4.640 -0.7973 -1.9324  1.0209
13372TIP3   OH261606   5.183   6.627  12.500  0.3843 -0.2297 -0.7104
13372TIP3    H161607   5.109   6.567  12.485  0.7031 -1.1630  1.1641
13372TIP3    H261608   5.230   6.589  12.574  0.8711  2.1023  0.2650
13373TIP3   OH261609   2.837   5.515  15.206  0.1038 -0.4531 -0.1873
13373TIP3    H161610   2.869   5.441  15.156 -2.7257 -1.8892 -0.0510
13373TIP3    H261611   2.844   5.590  15.146  1.3359 -1.1406 -0.9424
13374TIP3   OH261612   2.834   1.599  15.127 -0.4121  0.1560  0.2138
13374TIP3    H161613   2.893   1.674  15.128 -1.2398  0.8838 -1.4274
13374TIP3    H261614   2.753   1.632  15.167 -0.2919 -0.3211  0.8659
13375TIP3   OH261615   5.825   0.771  11.807 -0.2887  0.3956 -0.0542
13375TIP3    H161616   5.850   0.693  11.757  0.4079  1.0549 -0.7720
13375TIP3    H261617   5.761   0.740  11.871  1.0426 -1.0283  0.6295
13376TIP3   OH261618   5.046   1.677  16.190 -0.2630 -0.1177  0.2999
13376TIP3    H161619   4.993   1.597  16.195  0.9187 -0.8729  1.1537
13376TIP3    H261620   5.119   1.661  16.249 -0.0052  1.6155  0.4888
13377TIP3   OH261621   1.387   0.406   3.423 -0.2397  0.3758  0.1845
13377TIP3    H161622   1.370   0.321   3.382 -1.4803  0.5557  0.2796
13377TIP3    H261623   1.385   0.468   3.350 -1.0232  0.5204  0.3210
13378TIP3   OH261624   4.180   1.707  11.691 -0.8637 -0.0116 -0.0064
13378TIP3    H161625   4.172   1.680  11.599  0.3951 -0.6632  0.0638
13378TIP3    H261626   4.133   1.791  11.695  1.0181  1.2291 -1.7846
13379TIP3   OH261627   5.341   0.839  13.847 -0.4596  0.4933  0.3532
13379TIP3    H161628   5.335   0.761  13.792  0.9546  1.0141 -0.5711
13379TIP3    H261629   5.257   0.841  13.894 -0.8315 -1.1372 -0.1791
13380TIP3   OH261630   2.434   1.313  14.119 -0.3736 -0.2546  0.1515
13380TIP3    H161631   2.380   1.297  14.042  2.0525 -2.8962 -1.1995
13380TIP3    H261632   2.467   1.402  14.107  0.6770 -0.8804 -2.4897
13381TIP3   OH261633   4.954   2.704   1.457  0.0449  0.6215  0.0734
13381TIP3    H161634   4.881   2.644   1.476 -1.6426  2.5488 -0.0153
13381TIP3    H261635   4.949   2.770   1.526  0.0915  2.1822 -1.3628
13382TIP3   OH261636   3.016   1.179   5.641  0.0509  0.4813  0.2565
13382TIP3    H161637   2.999   1.128   5.720  1.1800 -0.1058  0.1378
13382TIP3    H261638   3.104   1.154   5.615 -0.3431  0.5741 -1.2576
13383TIP3   OH261639   1.699   2.502   1.256 -0.3953  0.2340 -0.0195
13383TIP3    H161640   1.746   2.585   1.264 -0.3977  0.1855  0.5797
13383TIP3    H261641   1.756   2.446   1.205  0.2414  0.1495  0.7674
13384TIP3   OH261642   4.324   0.722  14.738  0.3310 -0.6146 -0.4682
13384TIP3    H161643   4.341   0.708  14.831 -0.1419 -1.2902 -0.4783
13384TIP3    H261644   4.230   0.705  14.728  0.1243  0.6444 -0.8504
13385TIP3   OH261645   0.131   5.886  15.304  0.2039 -0.0158 -0.0220
13385TIP3    H161646   0.224   5.873  15.322  0.3807 -0.7547 -1.3356
13385TIP3    H261647   0.117   5.845  15.218 -0.5596  3.1855 -1.5769
13386TIP3   OH261648   4.759   5.166   5.854 -0.2878 -0.2346  0.5830
13386TIP3    H161649   4.735   5.075   5.838 -1.3043  0.2155 -0.5686
13386TIP3    H261650   4.744   5.178   5.948  0.7607 -1.4927  0.9319
13387TIP3   OH261651   5.135   0.969   3.188 -0.6448  0.1289 -0.5920
13387TIP3    H161652   5.076   1.044   3.196 -0.1693  0.4091  0.5055
13387TIP3    H261653   5.142   0.935   3.277 -0.1564 -0.6833 -0.9308
13388TIP3   OH261654   5.237   4.403  17.141  0.5482 -0.4276 -0.3535
13388TIP3    H161655   5.163   4.463  17.147 -1.0160 -2.0578 -2.0488
13388TIP3    H261656   5.259   4.383  17.232  1.0632  2.5197  0.2652
13389TIP3   OH261657   4.363   4.980  15.586 -0.1604 -0.9577 -0.1578
13389TIP3    H161658   4.416   5.038  15.532 -0.8842  0.2368  0.3860
13389TIP3    H261659   4.273   5.007  15.570 -0.6942 -3.0977 -1.2363
13390TIP3   OH261660   4.732   0.410   3.936 -0.1013 -0.3374 -0.5318
13390TIP3    H161661   4.704   0.429   4.026 -0.0372 -0.9579 -0.3746
13390TIP3    H261662   4.731   0.495   3.892  1.4245  0.2364  0.4818
13391TIP3   OH261663   3.063   1.878  12.743  0.3471 -0.3626 -0.4154
13391TIP3    H161664   2.972   1.883  12.772  0.8260  1.7949  0.9675
13391TIP3    H261665   3.102   1.811  12.798  0.0137  0.0356  0.3196
13392TIP3   OH261666   1.201   1.845   1.692  0.2418 -0.6761 -0.0508
13392TIP3    H161667   1.151   1.800   1.624 -1.1413  0.3836  0.2222
13392TIP3    H261668   1.219   1.778   1.758 -1.8216 -0.8830  0.3730
13393TIP3   OH261669   5.334   3.994  10.524 -0.6986  0.1234 -0.2016
13393TIP3    H161670   5.390   4.022  10.452  0.1352  0.2937  0.5059
13393TIP3    H261671   5.263   4.059  10.525 -0.4854  0.3656 -0.5892
13394TIP3   OH261672   1.525   2.793   1.056 -0.5909 -0.0027 -0.0490
13394TIP3    H161673   1.573   2.870   1.087 -1.0682  0.2995 -0.0490
13394TIP3    H261674   1.585   2.751   0.994  0.1254 -0.2623  0.7971
13395TIP3   OH261675   0.016   1.562  14.323 -0.1884 -0.8106  0.6605
13395TIP3    H161676  -0.040   1.635  14.295  1.7040  0.5565  0.2112
13395TIP3    H261677  -0.016   1.539  14.410 -3.2357 -2.0484 -0.6629
13396TIP3   OH261678   2.380   5.536   4.612  0.0983 -0.1429  0.2099
13396TIP3    H161679   2.291   5.502   4.615 -0.2375  0.6832 -0.1550
13396TIP3    H261680   2.432   5.471   4.660 -0.7147 -0.5628  0.5428
13397TIP3   OH261681   1.982   0.337   2.392  0.1048 -0.2893  0.0690
13397TIP3    H161682   1.914   0.378   2.338  0.7593 -1.0447 -1.3861
13397TIP3    H261683   2.020   0.269   2.336  1.0160 -0.9243  1.3966
13398TIP3   OH261684   5.708   3.955   1.047  0.2712  0.3088  0.1320
13398TIP3    H161685   5.655   4.035   1.051 -0.1102  0.0368  0.5962
13398TIP3    H261686   5.785   3.976   1.100 -0.1035  0.1754  0.7473
13399TIP3   OH261687   2.622   2.274  16.287  0.4335 -0.1168 -0.1819
13399TIP3    H161688   2.558   2.337  16.320  1.3180  0.9060 -0.3200
13399TIP3    H261689   2.571   2.199  16.258 -0.7983  1.0989 -1.2564
13400TIP3   OH261690   2.119   2.100   5.300 -0.0183  0.2368  0.0415
13400TIP3    H161691   2.070   2.019   5.283  0.8224 -0.4753  0.8339
13400TIP3    H261692   2.053   2.164   5.325 -0.6692 -0.3234 -0.2200
13401TIP3   OH261693   1.823   6.475   3.277  0.6259 -0.1501 -0.4317
13401TIP3    H161694   1.813   6.559   3.233 -1.0768  0.2064  0.5517
13401TIP3    H261695   1.742   6.427   3.256  0.5191 -0.6010  0.9272
13402TIP3   OH261696   6.556   5.370   2.566 -0.8368  0.4499 -0.0774
13402TIP3    H161697   6.515   5.316   2.499 -1.3466  0.9125 -0.1435
13402TIP3    H261698   6.597   5.442   2.518 -1.1718  0.7631  0.0995
13403TIP3   OH261699   2.048   3.683   2.029 -0.6036  0.0443  0.5802
13403TIP3    H161700   2.028   3.722   2.114  0.7210  1.4614  0.2867
13403TIP3    H261701   1.996   3.733   1.967  1.6248  1.9716  0.1205
13404TIP3   OH261702   1.995   0.751  16.418 -0.9680  0.2488  0.3311
13404TIP3    H161703   2.031   0.720  16.335 -1.5054 -0.7599  0.4494
13404TIP3    H261704   2.000   0.846  16.412 -0.2467  0.1788 -0.5154
13405TIP3   OH261705   3.810   4.964   2.386 -0.1494 -0.1418 -0.1601
13405TIP3    H161706   3.730   4.970   2.335  0.3544  0.2147 -0.9251
13405TIP3    H261707   3.802   4.882   2.433 -1.4201  0.3618  0.5683
13406TIP3   OH261708   4.554   3.992  13.517  0.5170  0.1668 -0.5808
13406TIP3    H161709   4.576   3.909  13.474  0.9948  0.8075 -1.6318
13406TIP3    H261710   4.623   4.004  13.582 -0.2111 -0.8188  0.4039
13407TIP3   OH261711   2.736   4.369  16.185 -0.3408  0.6889  0.0972
13407TIP3    H161712   2.762   4.460  16.203  1.8243  0.3544 -0.9420
13407TIP3    H261713   2.801   4.316  16.232 -1.1246 -0.3139  0.0830
13408TIP3   OH261714   1.878   1.493   2.337 -0.2359 -0.2662  0.0997
13408TIP3    H161715   1.935   1.430   2.291  1.2573  1.2881 -0.2813
13408TIP3    H261716   1.831   1.538   2.267  0.1968  0.4008  0.2294
13409TIP3   OH261717   6.075   6.022   2.124 -0.2754  0.1716  0.3288
13409TIP3    H161718   6.089   5.981   2.209 -2.1433 -1.1483  0.0432
13409TIP3    H261719   6.141   5.982   2.067 -1.3493 -1.6989  0.3246
13410TIP3   OH261720   3.801   2.752   0.435  0.7656 -0.8272  0.1004
13410TIP3    H161721   3.706   2.745   0.422  0.3871 -2.9841  3.0099
13410TIP3    H261722   3.810   2.819   0.503  1.2149 -1.5668  0.7690
13411TIP3   OH261723   5.369   0.091  17.161  0.1367 -0.1527 -0.5770
13411TIP3    H161724   5.346   0.122  17.074 -0.2819  1.9578  0.2249
13411TIP3    H261725   5.461   0.067  17.154  0.3588  0.8534 -1.4082
13412TIP3   OH261726   5.973   3.046   4.452  0.1585  0.2507  0.6984
13412TIP3    H161727   5.892   3.096   4.453  0.3471  0.6235 -0.7316
13412TIP3    H261728   6.033   3.097   4.507  0.4497  1.8420 -0.9892
13413TIP3   OH261729   4.656   2.724  15.576  0.1659  0.1461 -0.1538
13413TIP3    H161730   4.581   2.699  15.630  0.5459  0.0970  0.3579
13413TIP3    H261731   4.634   2.692  15.489 -0.8713  1.0641 -0.2349
13414TIP3   OH261732   3.481   4.727  14.593  0.3566  0.1075 -0.3104
13414TIP3    H161733   3.399   4.704  14.549  0.2051 -1.2539  0.6152
13414TIP3    H261734   3.473   4.821  14.612 -0.8018  0.0866 -0.6224
13415TIP3   OH261735   2.913   3.301   5.835 -0.3464 -0.8340 -0.5107
13415TIP3    H161736   2.910   3.390   5.869  1.7366 -0.3125 -1.5101
13415TIP3    H261737   2.951   3.250   5.906 -2.0290 -1.0704  0.2586
13416TIP3   OH261738   2.132   5.595   5.791 -0.6116  0.0932  0.2048
13416TIP3    H161739   2.152   5.624   5.881  1.1858  0.0252 -0.1407
13416TIP3    H261740   2.188   5.649   5.736 -1.0504 -0.4867 -0.8240
13417TIP3   OH261741   1.974   0.857   6.207  0.1391  0.1018 -0.4366
13417TIP3    H161742   1.945   0.832   6.119 -0.2433  1.0547 -0.5929
13417TIP3    H261743   1.920   0.804   6.266 -1.5282  1.3963 -0.7361
13418TIP3   OH261744   0.723   3.936   3.127  0.4227  0.2589 -0.3033
13418TIP3    H161745   0.816   3.947   3.144  0.0525  1.6163  1.0985
13418TIP3    H261746   0.701   4.005   3.064  0.1837  0.6463  0.1911
13419TIP3   OH261747   0.172   1.626   5.372 -0.4449 -0.5544  0.2370
13419TIP3    H161748   0.259   1.665   5.381  0.0845 -1.6179 -0.0309
13419TIP3    H261749   0.117   1.697   5.339  0.4794 -0.0355 -0.2356
13420TIP3   OH261750   5.453   4.569   4.118  0.3037 -0.1822 -0.3454
13420TIP3    H161751   5.363   4.537   4.110  0.6639 -0.8847 -2.0166
13420TIP3    H261752   5.455   4.648   4.063  0.5035  0.3037  0.3515
13421TIP3   OH261753   3.335   0.851  14.553 -0.2187 -0.5426 -0.0443
13421TIP3    H161754   3.345   0.816  14.641 -0.2139 -1.2900 -0.3411
13421TIP3    H261755   3.359   0.779  14.495  2.7307  0.7704 -0.6478
13422TIP3   OH261756   0.296   3.749   1.774 -0.5033 -0.2938  0.6538
13422TIP3    H161757   0.389   3.728   1.776 -0.3367  0.2830 -0.1315
13422TIP3    H261758   0.293   3.840   1.744 -1.2870 -0.0214  1.5031
13423TIP3   OH261759   0.621   3.035   2.365  0.0052  0.4413  0.1222
13423TIP3    H161760   0.529   3.059   2.349 -1.0122 -2.1858  1.4489
13423TIP3    H261761   0.654   3.007   2.280 -0.8311  0.2541 -0.1468
13424TIP3   OH261762   0.828   3.633  12.934 -0.0859  0.8189  0.7490
13424TIP3    H161763   0.881   3.557  12.958  1.0962  1.3997  0.1161
13424TIP3    H261764   0.780   3.656  13.013  0.9658  0.5291  1.4857
13425TIP3   OH261765   3.809   6.029   4.241  0.0311 -0.3011 -0.6110
13425TIP3    H161766   3.826   6.082   4.318 -1.5953  0.8975 -1.0201
13425TIP3    H261767   3.851   6.076   4.169 -0.3360 -0.2356 -0.7846
13426TIP3   OH261768   1.811   5.492  15.342 -0.0283  0.1367 -0.3396
13426TIP3    H161769   1.773   5.515  15.427  3.2188  1.9784  0.8082
13426TIP3    H261770   1.851   5.407  15.357  0.0527  0.1995 -0.1913
13427TIP3   OH261771   1.983   4.379   0.910 -0.0998  0.7123  0.6558
13427TIP3    H161772   1.998   4.286   0.928 -0.6145  0.6854  0.9495
13427TIP3    H261773   1.924   4.408   0.979  0.8238  1.5044  1.1383
13428TIP3   OH261774   3.897   1.035  11.890 -0.2074 -0.0502  0.4105
13428TIP3    H161775   3.973   0.977  11.890  0.7033  1.1048 -0.0821
13428TIP3    H261776   3.865   1.031  11.980  0.9065  0.0423  0.8291
13429TIP3   OH261777   5.496   6.263   4.620 -0.1129 -0.3716  0.4970
13429TIP3    H161778   5.522   6.263   4.528 -0.8838 -0.8096  0.2735
13429TIP3    H261779   5.527   6.179   4.653  0.7077  0.0357  0.8118
13430TIP3   OH261780   5.378   1.203   5.462 -0.5461  0.7432  0.1928
13430TIP3    H161781   5.359   1.272   5.399 -1.9462 -0.5153 -0.8306
13430TIP3    H261782   5.292   1.176   5.494 -0.3110 -2.1648 -1.2778
13431TIP3   OH261783   0.404   5.999  14.400 -0.1309 -0.3844  0.5387
13431TIP3    H161784   0.365   6.074  14.444  2.8281  0.8052  1.3519
13431TIP3    H261785   0.465   5.962  14.464  0.3253 -1.9747 -0.7269
13432TIP3   OH261786   2.524   1.070  13.888 -0.6424  0.2747 -0.2224
13432TIP3    H161787   2.432   1.045  13.901 -0.2410 -1.4202 -0.4865
13432TIP3    H261788   2.538   1.062  13.794 -0.4712  1.5061 -0.3159
13433TIP3   OH261789   2.712   4.431   4.367  0.2829 -0.4147 -0.0130
13433TIP3    H161790   2.738   4.443   4.458 -2.2205 -1.6016  0.9455
13433TIP3    H261791   2.696   4.337   4.359  0.4585 -0.3223 -1.6997
13434TIP3   OH261792   4.290   3.069  15.384 -0.1068 -0.3284  0.1887
13434TIP3    H161793   4.352   3.118  15.438 -1.2210 -0.2409  1.4554
13434TIP3    H261794   4.206   3.113  15.398 -1.0689 -2.3179  1.0270
13435TIP3   OH261795   1.372   1.370   0.675  0.2779  0.2562  0.3380
13435TIP3    H161796   1.351   1.398   0.586 -0.6112  0.2471  0.5317
13435TIP3    H261797   1.378   1.451   0.725 -1.6831  0.1934  0.7686
13436TIP3   OH261798   4.691   4.209   1.476 -0.1393 -0.1639 -0.4557
13436TIP3    H161799   4.734   4.123   1.473  1.0299  0.3520  0.4168
13436TIP3    H261800   4.659   4.216   1.566 -0.1115  0.3600 -0.4820
13437TIP3   OH261801   3.845   0.546  12.017  0.3715  0.2379  0.3571
13437TIP3    H161802   3.816   0.593  11.939 -0.7184 -0.0942  0.5407
13437TIP3    H261803   3.875   0.616  12.076 -0.7052  0.6778  0.4125
13438TIP3   OH261804   2.189   5.871  11.975 -0.3389 -0.1958  0.7013
13438TIP3    H161805   2.204   5.776  11.983 -0.6723 -0.1895  1.4916
13438TIP3    H261806   2.249   5.910  12.039  0.0285  0.1571  0.1548
13439TIP3   OH261807   0.306   2.280  12.139  0.1100  0.3442 -0.8051
13439TIP3    H161808   0.289   2.216  12.208 -0.3705  2.1800  0.8984
13439TIP3    H261809   0.398   2.268  12.117  0.3851 -0.0305  0.4604
13440TIP3   OH261810   2.892   2.167  14.125 -0.0629  0.2966 -0.2260
13440TIP3    H161811   2.988   2.167  14.125 -0.0608  1.1163 -0.3226
13440TIP3    H261812   2.869   2.090  14.178  0.6520  0.8854  0.9846
13441TIP3   OH261813   2.438   6.752   4.555 -0.2786  0.0254  0.3092
13441TIP3    H161814   2.379   6.757   4.480 -0.3476 -0.1068  0.3550
13441TIP3    H261815   2.386   6.781   4.629  0.3998  2.3544 -0.0283
13442TIP3   OH261816   5.829   0.813  12.586  0.6028 -0.2537  0.4185
13442TIP3    H161817   5.788   0.756  12.521  1.4892 -0.3070 -0.1153
13442TIP3    H261818   5.757   0.866  12.620 -0.2634 -1.7810  1.0377
13443TIP3   OH261819   2.010   4.736  15.222  0.4938 -0.1505 -0.1857
13443TIP3    H161820   2.030   4.829  15.231 -0.3451 -0.0508  0.9014
13443TIP3    H261821   1.989   4.707  15.311 -0.2725 -1.1270 -0.6574
13444TIP3   OH261822   4.628   0.228   1.585  0.2147 -0.3337 -0.1391
13444TIP3    H161823   4.549   0.255   1.538  1.0419  1.3377 -0.6665
13444TIP3    H261824   4.666   0.159   1.531  0.6070  0.8477 -1.4584
13445TIP3   OH261825   4.281   0.203   1.854  0.5266  0.7207  0.0678
13445TIP3    H161826   4.327   0.266   1.910 -0.9135  1.2623  0.6729
13445TIP3    H261827   4.225   0.256   1.798  1.3054  0.1239 -1.3390
13446TIP3   OH261828   5.855   3.597  11.277  0.3804 -0.2739  0.0554
13446TIP3    H161829   5.946   3.609  11.249  0.8401  0.2818  1.6875
13446TIP3    H261830   5.807   3.669  11.235  0.4373 -1.1696 -1.6758
13447TIP3   OH261831   0.322   0.758  11.681  0.0360  0.3750  0.5748
13447TIP3    H161832   0.296   0.848  11.701  0.1400  0.3583  0.7831
13447TIP3    H261833   0.403   0.767  11.631  0.1353  0.3894  0.7398
13448TIP3   OH261834   0.024   3.987  14.591 -0.7017 -0.2059 -0.1202
13448TIP3    H161835   0.076   3.967  14.514  1.2263 -0.5302  1.1909
13448TIP3    H261836   0.002   4.079  14.583  0.8705  0.1801 -0.3081
13449TIP3   OH261837   1.084   4.180  10.162  0.0774  0.1176 -0.5339
13449TIP3    H161838   0.998   4.213  10.186  0.1026  1.1187 -1.7054
13449TIP3    H261839   1.067   4.096  10.119 -0.0306 -1.2490  2.0184
13450TIP3   OH261840   3.305   5.158  13.137 -0.6042  0.0931 -0.9649
13450TIP3    H161841   3.229   5.132  13.084  0.0290 -1.8256 -0.9981
13450TIP3    H261842   3.380   5.150  13.077 -0.1102 -0.2146 -0.3101
13451TIP3   OH261843   1.626   5.107  11.479 -0.5321  0.4094  0.2363
13451TIP3    H161844   1.554   5.047  11.459  0.4415 -1.3600  1.7628
13451TIP3    H261845   1.673   5.116  11.396 -0.5038 -1.2213  0.0518
13452TIP3   OH261846   5.952   4.692  12.109 -0.2655 -0.2274  0.4506
13452TIP3    H161847   5.953   4.691  12.013 -2.8497  1.5863  0.3131
13452TIP3    H261848   6.042   4.671  12.134  1.0890  1.5363 -2.4302
13453TIP3   OH261849   0.378   0.669   3.840 -0.2480  0.3571 -0.1347
13453TIP3    H161850   0.292   0.647   3.875 -0.1682 -0.0280 -0.1782
13453TIP3    H261851   0.397   0.756   3.876 -1.9882  1.8517 -2.5868
13454TIP3   OH261852   3.618   0.552  11.445  0.3392  0.1032  0.0199
13454TIP3    H161853   3.525   0.576  11.453  0.2517 -0.7167  2.0814
13454TIP3    H261854   3.621   0.492  11.371 -1.2644 -1.8855  1.4598
13455TIP3   OH261855   3.241   4.667   2.026 -0.8325 -0.2144  0.2628
13455TIP3    H161856   3.300   4.632   1.960 -0.4386  0.3086  0.3298
13455TIP3    H261857   3.295   4.728   2.076 -1.5773  0.7112 -0.0402
13456TIP3   OH261858   5.766   5.376  15.627 -0.2824  0.0925 -0.4241
13456TIP3    H161859   5.744   5.319  15.701 -0.7507  0.0070 -0.6228
13456TIP3    H261860   5.779   5.462  15.667  0.5872 -0.1787 -0.1026
13457TIP3   OH261861   1.102   4.515   1.077 -0.6490  0.1303 -0.1054
13457TIP3    H161862   1.153   4.470   1.145  0.1164  1.0367 -0.0646
13457TIP3    H261863   1.125   4.468   0.996  0.4920  0.6878 -0.1327
13458TIP3   OH261864   6.171   2.440  13.298  0.1462 -0.4326  0.0465
13458TIP3    H161865   6.241   2.450  13.234 -1.5338 -1.1241 -2.0019
13458TIP3    H261866   6.095   2.482  13.258 -0.5774  0.7314  2.4057
13459TIP3   OH261867   3.430   3.406  13.630 -0.7287  0.4038 -0.7371
13459TIP3    H161868   3.486   3.481  13.649 -1.4876  1.2067 -1.5380
13459TIP3    H261869   3.414   3.411  13.536 -1.0841 -0.5535 -0.7371
13460TIP3   OH261870   5.426   4.167   0.040 -0.1929  0.5407  0.0024
13460TIP3    H161871   5.477   4.086   0.034  0.1527  0.8051 -0.8137
13460TIP3    H261872   5.338   4.139   0.062 -0.0309 -0.0491 -0.0965
13461TIP3   OH261873   6.239   1.990   4.912 -0.6091  0.3713 -0.2108
13461TIP3    H161874   6.224   2.038   4.831 -0.5644 -0.1761 -0.5513
13461TIP3    H261875   6.326   1.951   4.901 -1.7029 -2.0236 -1.1247
13462TIP3   OH261876   2.710   3.261   1.503  0.2110 -0.1438 -0.1749
13462TIP3    H161877   2.653   3.190   1.471  0.9004  0.5249 -3.1706
13462TIP3    H261878   2.705   3.328   1.435  2.5445  1.0593  0.7485
13463TIP3   OH261879   6.195   0.602  13.465 -0.1855 -0.9441 -0.4460
13463TIP3    H161880   6.203   0.687  13.508  0.6221 -0.9952 -0.4747
13463TIP3    H261881   6.225   0.539  13.531  0.3852 -1.0861 -0.8313
13464TIP3   OH261882   0.205   4.767   3.121  0.1127  0.0461 -0.0638
13464TIP3    H161883   0.236   4.684   3.156  0.7637  1.0327  1.8259
13464TIP3    H261884   0.253   4.834   3.169  1.7113  1.5818 -3.4246
13465TIP3   OH261885   0.131   4.770   5.017 -0.3332 -0.6916 -0.4532
13465TIP3    H161886   0.131   4.834   5.088 -1.6461 -0.7878 -0.3253
13465TIP3    H261887   0.214   4.723   5.027  0.8802  1.2602 -0.8334
13466TIP3   OH261888   3.464   4.619   6.057  0.1217 -0.4570 -0.3299
13466TIP3    H161889   3.496   4.574   5.978 -1.1986 -2.2410  0.0921
13466TIP3    H261890   3.510   4.577   6.129  0.4494  0.3592 -0.0531
13467TIP3   OH261891   2.700   0.536  11.238 -0.1461  0.2477 -0.4081
13467TIP3    H161892   2.789   0.501  11.231 -0.5834 -0.8524 -0.6900
13467TIP3    H261893   2.675   0.521  11.329  0.4699  1.9148  0.0823
13468TIP3   OH261894   5.830   6.597   4.135 -0.6488 -0.3671 -0.1915
13468TIP3    H161895   5.810   6.598   4.228  0.3986 -0.8399  0.0536
13468TIP3    H261896   5.920   6.565   4.130  0.5273  2.7106 -1.1253
13469TIP3   OH261897   6.417   0.629  13.200 -0.8694 -0.2062  0.1856
13469TIP3    H161898   6.483   0.694  13.222  0.3553 -1.2342 -0.3026
13469TIP3    H261899   6.400   0.583  13.282  0.6750 -1.3532 -0.0759
13470TIP3   OH261900   3.845   5.627   5.956  0.0572  0.1598  0.9068
13470TIP3    H161901   3.925   5.589   5.920 -0.2074  0.7154 -0.3168
13470TIP3    H261902   3.787   5.552   5.969  0.3400 -0.1112  0.6230
13471TIP3   OH261903   5.946   1.132   2.182  0.0354 -0.1466 -0.1063
13471TIP3    H161904   5.916   1.073   2.112  0.5092 -1.2558  0.6041
13471TIP3    H261905   5.912   1.218   2.156 -2.8404 -1.1118  0.0774
13472TIP3   OH261906   2.618   6.216   5.070  0.5201  0.2211 -0.2066
13472TIP3    H161907   2.597   6.244   5.159  1.0061  0.5500 -0.1896
13472TIP3    H261908   2.596   6.123   5.068  1.5137 -0.0411  0.5806
13473TIP3   OH261909   3.270   5.494   5.018  0.0186  0.0046 -0.1090
13473TIP3    H161910   3.285   5.581   4.982 -1.4547  0.6750  0.7960
13473TIP3    H261911   3.176   5.481   5.012 -0.1072 -0.4589  2.0557
13474TIP3   OH261912   1.376   0.215  17.103 -0.2079  0.0728 -0.6353
13474TIP3    H161913   1.328   0.270  17.041  1.9646  0.9822 -1.6222
13474TIP3    H261914   1.390   0.271  17.179  0.0131  0.1197 -0.7083
13475TIP3   OH261915   3.829   2.664  11.133  0.5878  0.0264 -0.0894
13475TIP3    H161916   3.746   2.617  11.123  0.5770  0.0131  0.0559
13475TIP3    H261917   3.886   2.625  11.066  0.2007  0.6648 -0.8044
13476TIP3   OH261918   5.350   5.114  11.927  0.2289  0.8675  0.1101
13476TIP3    H161919   5.324   5.023  11.943  0.4910  1.1988  2.8335
13476TIP3    H261920   5.290   5.144  11.859  1.5637 -1.9333 -2.5436
13477TIP3   OH261921   0.873   0.816  11.575  0.5169  0.1104 -0.1188
13477TIP3    H161922   0.856   0.736  11.625  0.3840 -0.6519 -1.3329
13477TIP3    H261923   0.963   0.840  11.596  0.2936  0.1139  0.8767
13478TIP3   OH261924   2.492   5.450  12.062  0.1758  0.6010  0.5849
13478TIP3    H161925   2.490   5.407  12.147  0.4781  0.8915  0.7374
13478TIP3    H261926   2.584   5.452  12.037 -0.1067 -2.9325 -1.5108
13479TIP3   OH261927   1.693   3.947   2.187  0.0666 -0.8080  0.6045
13479TIP3    H161928   1.612   3.924   2.234  0.0115 -0.3982  0.7120
13479TIP3    H261929   1.666   3.961   2.097 -0.6743  2.9404  1.2560
13480TIP3   OH261930   5.699   6.463   2.597 -0.2445  0.0956  0.5175
13480TIP3    H161931   5.785   6.426   2.619 -0.2590  0.3147  0.9445
13480TIP3    H261932   5.638   6.390   2.606 -0.1517  0.0216  0.5515
13481TIP3   OH261933   5.401   2.335  10.881 -0.1615 -0.3686  0.1491
13481TIP3    H161934   5.455   2.348  10.802 -0.4613 -0.9667 -0.1624
13481TIP3    H261935   5.461   2.300  10.946  0.0387 -0.0859  0.1191
13482TIP3   OH261936   6.182   4.653  15.079  0.2288 -0.7141 -0.2976
13482TIP3    H161937   6.154   4.580  15.024  0.3219 -2.2782  1.6309
13482TIP3    H261938   6.262   4.622  15.121 -0.9180 -0.4494  2.2824
13483TIP3   OH261939   1.593   5.089   0.228  0.0575 -0.2524 -0.2477
13483TIP3    H161940   1.550   5.138   0.158 -0.6619  0.8233  0.9045
13483TIP3    H261941   1.597   5.150   0.301  1.7697 -0.9927  0.3353
13484TIP3   OH261942   5.292   3.083   3.526 -0.0162  0.8661  0.0900
13484TIP3    H161943   5.320   3.078   3.435 -0.8959  2.2637 -0.2882
13484TIP3    H261944   5.366   3.123   3.572  0.3305  0.3907 -0.0466
13485TIP3   OH261945   6.561   2.256  14.021 -0.5852 -0.2336 -0.4912
13485TIP3    H161946   6.509   2.179  13.998 -1.2460  0.0012  0.1496
13485TIP3    H261947   6.516   2.329  13.978 -0.3887 -0.1179 -0.4990
13486TIP3   OH261948   5.563   4.743  14.978  0.2854  0.0489  0.3432
13486TIP3    H161949   5.513   4.809  15.026  0.2100 -0.5419  1.0991
13486TIP3    H261950   5.558   4.664  15.033  0.6269 -0.5000 -0.3922
13487TIP3   OH261951   5.913   5.571   3.111 -0.0077  0.0803  0.0831
13487TIP3    H161952   5.921   5.511   3.186 -0.9202 -0.1784 -0.0158
13487TIP3    H261953   5.878   5.652   3.148 -1.6355 -0.4473 -0.2212
13488TIP3   OH261954   4.575   2.634   0.377 -0.0329  0.5746  0.1772
13488TIP3    H161955   4.613   2.585   0.450 -0.7041 -1.6090 -0.8556
13488TIP3    H261956   4.651   2.667   0.329  0.5341 -1.1061 -0.1529
13489TIP3   OH261957   1.122   3.487  12.507 -0.2107  0.0352  0.3081
13489TIP3    H161958   1.192   3.449  12.454  0.6814  0.3504  1.2211
13489TIP3    H261959   1.074   3.543  12.447  2.7444  3.0497  0.4115
13490TIP3   OH261960   1.215   6.746  14.684  0.4514  0.3666  0.7245
13490TIP3    H161961   1.130   6.780  14.655  0.5657  0.8232  0.9182
13490TIP3    H261962   1.244   6.807  14.752  0.7827  0.0277  0.8913
13491TIP3   OH261963   6.603   3.305  16.555 -0.4779  0.0346  0.1792
13491TIP3    H161964   6.528   3.320  16.611 -0.3393  0.0854  0.3528
13491TIP3    H261965   6.642   3.224  16.587  0.3877  0.7647  1.0331
13492TIP3   OH261966   3.249   3.404   0.397 -0.0031 -0.3989  0.6247
13492TIP3    H161967   3.245   3.472   0.329  0.3869 -0.0818  0.9158
13492TIP3    H261968   3.158   3.378   0.410 -0.0310 -0.8772 -0.4350
13493TIP3   OH261969   5.148   6.398   4.526  0.3442 -0.5349  0.1371
13493TIP3    H161970   5.118   6.488   4.511  0.3709 -0.6019 -0.3533
13493TIP3    H261971   5.152   6.360   4.438  1.5142 -0.6413  0.2317
13494TIP3   OH261972   1.407   0.197  14.518  0.2279  0.2764 -0.3322
13494TIP3    H161973   1.461   0.218  14.594  0.1022  0.2544 -0.2380
13494TIP3    H261974   1.391   0.103  14.526 -0.9545  0.5163  0.3671
13495TIP3   OH261975   5.535   5.509  17.030  0.0164 -0.3244  0.1795
13495TIP3    H161976   5.513   5.577  16.966  0.1377 -0.7458 -0.3116
13495TIP3    H261977   5.631   5.507  17.032  0.0131 -0.3350  0.3522
13496TIP3   OH261978   3.452   2.734   3.112  0.2481 -0.0880  0.5795
13496TIP3    H161979   3.472   2.642   3.125 -1.8025 -0.7866 -0.7144
13496TIP3    H261980   3.449   2.745   3.017  1.9648  1.7145  0.6655
13497TIP3   OH261981   4.113   0.048  11.220  0.1370  0.4755  0.3557
13497TIP3    H161982   4.195   0.099  11.222 -0.8669  2.2377  3.7587
13497TIP3    H261983   4.087   0.050  11.128  2.1788  2.8216 -0.3033
13498TIP3   OH261984   6.588   0.156  15.066 -0.1143 -0.1246 -0.3210
13498TIP3    H161985   6.526   0.166  14.993  0.5963 -1.4218 -1.1428
13498TIP3    H261986   6.615   0.246  15.086 -2.7855  0.5684  0.5915
13499TIP3   OH261987   4.644   4.897   0.555 -0.1714  0.3939  0.6575
13499TIP3    H161988   4.602   4.978   0.525 -0.0880 -0.6486 -2.6871
13499TIP3    H261989   4.728   4.926   0.591 -1.4968  2.0106  2.6988
13500TIP3   OH261990   1.163   5.680  14.471  0.1054  0.4642 -0.2356
13500TIP3    H161991   1.167   5.773  14.495 -0.2209  0.2705  0.5986
13500TIP3    H261992   1.096   5.643  14.529 -0.4194 -0.1054 -1.1832
13501TIP3   OH261993   4.503   0.991  12.151 -0.3738 -0.2838  0.6244
13501TIP3    H161994   4.556   1.003  12.073 -1.7239 -0.6209 -0.3678
13501TIP3    H261995   4.507   1.076  12.196 -0.5624  0.2935 -0.4317
13502TIP3   OH261996   0.610   1.195   3.111 -0.0834  0.4695  0.2093
13502TIP3    H161997   0.560   1.276   3.101 -0.5763 -0.0327 -1.7565
13502TIP3    H261998   0.637   1.195   3.203 -1.3478  2.1118  0.6270
13503TIP3   OH261999   3.556   2.449  11.582 -0.0107 -0.5957 -0.1180
13503TIP3    H162000   3.496   2.383  11.547  0.5452 -0.5607 -1.1806
13503TIP3    H262001   3.644   2.414  11.564  0.2954 -0.3043  0.7517
13504TIP3   OH262002   2.693   2.974  12.382  0.1398  0.1477  0.5009
13504TIP3    H162003   2.648   2.929  12.453  0.3479  1.0822  1.2437
13504TIP3    H262004   2.738   2.905  12.334 -2.7060 -0.9797 -0.8057
13505TIP3   OH262005   4.485   4.606   4.358  0.0424  0.2488  0.3753
13505TIP3    H162006   4.450   4.599   4.269 -0.3657  4.5426 -0.0035
13505TIP3    H262007   4.410   4.629   4.412  1.0495  2.9760  0.7538
13506TIP3   OH262008   0.259   2.634  15.682  0.1571 -0.2886  0.6882
13506TIP3    H162009   0.249   2.540  15.691 -1.1446 -0.2444 -0.0390
13506TIP3    H262010   0.347   2.652  15.714  0.1140 -1.6310  1.6421
13507TIP3   OH262011   6.795   6.611   3.538 -0.3896  0.6374 -0.3056
13507TIP3    H162012   6.868   6.621   3.478  0.1205  2.4261  0.5185
13507TIP3    H262013   6.744   6.692   3.527 -0.2167  1.0749  1.6802
13508TIP3   OH262014   0.358   1.095   0.227 -0.2363 -0.4845  0.6750
13508TIP3    H162015   0.427   1.034   0.199  0.4539  0.1505  0.9612
13508TIP3    H262016   0.281   1.069   0.177  0.2047 -1.2283  0.3706
13509TIP3   OH262017   3.915   4.267   0.759 -0.2145 -0.0443 -0.0763
13509TIP3    H162018   3.954   4.239   0.842  0.1571  1.0395  0.1247
13509TIP3    H262019   3.967   4.343   0.733 -0.9871  0.2471 -0.7807
13510TIP3   OH262020   6.059   2.794  11.627 -0.1935  0.2475  0.3898
13510TIP3    H162021   6.004   2.832  11.695 -1.4672  0.2452 -0.6036
13510TIP3    H262022   5.998   2.750  11.569  1.0723 -1.6474  0.4238
13511TIP3   OH262023   1.796   5.412   3.878 -0.4544 -0.3125 -0.3599
13511TIP3    H162024   1.808   5.318   3.886 -0.8185 -0.2077  1.9793
13511TIP3    H262025   1.736   5.422   3.804 -0.0112 -1.8497 -0.9722
13512TIP3   OH262026   0.915   3.519  10.152 -0.0153  0.0861  0.2818
13512TIP3    H162027   0.952   3.444  10.106 -1.9119 -0.6358 -0.1672
13512TIP3    H262028   0.909   3.491  10.243 -2.5592 -1.1859 -0.1743
13513TIP3   OH262029   0.844   0.589  13.272 -0.0945  0.4044 -0.4398
13513TIP3    H162030   0.789   0.543  13.335  0.4591 -1.9058 -1.5296
13513TIP3    H262031   0.932   0.556  13.288  0.2055  0.4718 -1.7846
13514TIP3   OH262032   1.893   0.474  16.068  0.2794 -0.2649 -0.5213
13514TIP3    H162033   1.812   0.482  16.118 -0.1311 -0.4596 -1.1475
13514TIP3    H262034   1.924   0.386  16.087  1.2533  0.3687  1.0547
13515TIP3   OH262035   6.498   0.357   5.114  0.0059  0.3791  0.1398
13515TIP3    H162036   6.504   0.435   5.059  0.5483 -0.5916 -1.2299
13515TIP3    H262037   6.539   0.287   5.062 -1.4269 -1.0765  0.8642
13516TIP3   OH262038   4.814   0.880  13.119  0.0167  0.1860 -0.0296
13516TIP3    H162039   4.733   0.840  13.152  0.6489 -0.5729  0.6457
13516TIP3    H262040   4.875   0.872  13.192  1.1036 -0.4268 -0.9856
13517TIP3   OH262041   4.296   4.800   5.554  0.2227 -0.5949 -0.3032
13517TIP3    H162042   4.336   4.732   5.607  0.7674 -0.7861 -0.9347
13517TIP3    H262043   4.264   4.865   5.617  1.2075 -0.6194  0.2372
13518TIP3   OH262044   6.469   2.909   1.609 -0.4308  0.2625  0.2275
13518TIP3    H162045   6.536   2.841   1.620  0.8524  1.7424  2.3109
13518TIP3    H262046   6.476   2.936   1.518  0.9955 -0.4506  0.1094
13519TIP3   OH262047   4.435   5.238   0.379  0.1633 -0.6646  0.0005
13519TIP3    H162048   4.428   5.210   0.470 -1.0503 -0.6772 -0.0838
13519TIP3    H262049   4.345   5.237   0.346  0.1589  2.2267 -0.3402
13520TIP3   OH262050   0.087   4.038   4.980  0.4250 -0.7654  0.2241
13520TIP3    H162051   0.115   3.962   4.931  1.3556  0.8833 -1.9737
13520TIP3    H262052  -0.001   4.017   5.009  0.1929 -2.2073 -1.3679
13521TIP3   OH262053   4.351   4.615   5.745 -0.0042  0.2874  0.1458
13521TIP3    H162054   4.323   4.524   5.737 -0.0991  0.3255  0.0336
13521TIP3    H262055   4.442   4.615   5.715 -1.1284  0.8914 -3.8139
13522TIP3   OH262056   1.296   3.388  15.898  0.6455  0.2032 -0.1676
13522TIP3    H162057   1.327   3.344  15.819  0.6500  0.2347 -0.1833
13522TIP3    H262058   1.355   3.462  15.909  1.5075 -0.5724  0.6272
13523TIP3   OH262059   3.684   5.433   3.721 -0.4820 -0.3930  0.1877
13523TIP3    H162060   3.665   5.482   3.640  1.1806 -2.7906 -1.7976
13523TIP3    H262061   3.779   5.422   3.721 -0.6088 -1.8832  1.6025
13524TIP3   OH262062   5.490   5.247   1.748 -0.8024 -0.3394 -0.2990
13524TIP3    H162063   5.441   5.227   1.668 -0.7520  0.7559 -0.6122
13524TIP3    H262064   5.580   5.259   1.718 -0.8029  0.1894 -0.0998
13525TIP3   OH262065   3.508   2.302  11.159 -0.1075  0.0010  0.7909
13525TIP3    H162066   3.433   2.261  11.117 -0.9343  1.4153  0.8260
13525TIP3    H262067   3.492   2.293  11.253 -0.4165  0.5852  0.8010
13526TIP3   OH262068   4.266   5.577  13.824  0.0792  0.4434 -0.7367
13526TIP3    H162069   4.205   5.510  13.792  1.5811 -0.9351 -0.9023
13526TIP3    H262070   4.297   5.620  13.744  2.1153 -1.4545 -1.0679
13527TIP3   OH262071   1.072   2.581  15.044 -0.1200 -0.3772 -0.2064
13527TIP3    H162072   1.060   2.494  15.081  0.5263 -0.1889  0.4725
13527TIP3    H262073   1.126   2.567  14.966 -2.7124 -0.9593 -2.0497
13528TIP3   OH262074   3.483   2.143  13.268  0.0777  0.2231 -0.4347
13528TIP3    H162075   3.439   2.131  13.184  0.1932 -0.9899 -0.3452
13528TIP3    H262076   3.569   2.178  13.245  0.2828 -0.5360 -0.8664
13529TIP3   OH262077   6.355   1.897   1.424  0.3749  0.3464  0.4023
13529TIP3    H162078   6.354   1.851   1.340  3.1064 -1.5519  1.2628
13529TIP3    H262079   6.319   1.834   1.486  2.4661 -0.0734  1.2987
13530TIP3   OH262080   0.480   6.124  15.681  0.1293 -0.4680  0.3783
13530TIP3    H162081   0.507   6.145  15.771 -0.4672 -1.0100  0.6929
13530TIP3    H262082   0.538   6.177  15.626 -0.3210  0.8407  1.1052
13531TIP3   OH262083   5.396   3.869  10.799  0.3406 -0.4814  0.1805
13531TIP3    H162084   5.408   3.947  10.853 -0.0808 -0.8439  0.8066
13531TIP3    H262085   5.357   3.902  10.718 -2.0806 -0.2676  1.3292
13532TIP3   OH262086   6.650   3.937  14.979 -0.3672 -0.0396  0.0818
13532TIP3    H162087   6.609   3.976  15.057 -1.0273 -2.5877  1.1144
13532TIP3    H262088   6.577   3.900  14.930  0.2498 -0.2779 -0.6763
13533TIP3   OH262089   5.283   3.635   3.407  0.1676  0.1957 -0.0776
13533TIP3    H162090   5.288   3.572   3.479 -0.7173  1.3636  1.0533
13533TIP3    H262091   5.213   3.695   3.433 -1.8881 -0.6969 -3.0190
13534TIP3   OH262092   1.942   5.239  15.404 -0.0358  0.2507 -0.2104
13534TIP3    H162093   1.981   5.256  15.490  2.8631 -1.3214 -1.0966
13534TIP3    H262094   2.015   5.213  15.348 -1.9490  0.2786 -2.9514
13535TIP3   OH262095   1.315   2.690  17.102  0.2279  0.1963 -0.3199
13535TIP3    H162096   1.332   2.724  17.190 -0.3110 -1.0816  0.3040
13535TIP3    H262097   1.240   2.632  17.113 -0.3380  0.5991 -1.7791
13536TIP3   OH262098   4.421   1.628  13.914 -0.0678  0.0158 -0.7044
13536TIP3    H162099   4.472   1.550  13.934 -0.6790 -0.6638 -1.7248
13536TIP3    H262100   4.405   1.623  13.820  1.4353  2.3196 -1.1643
13537TIP3   OH262101   4.870   1.132   5.342 -0.1863 -0.4557  0.3367
13537TIP3    H162102   4.855   1.069   5.271 -1.6361  0.8747 -0.5976
13537TIP3    H262103   4.857   1.217   5.301  1.3064  0.4717  1.6802
13538TIP3   OH262104   1.147   5.724   2.324 -0.2236 -0.3996  0.1867
13538TIP3    H162105   1.060   5.759   2.304 -0.4852 -1.1232  0.0270
13538TIP3    H262106   1.162   5.657   2.258  0.2298 -0.6474  0.5354
13539TIP3   OH262107   3.549   6.427  10.840 -0.2932 -1.1478  0.2566
13539TIP3    H162108   3.507   6.436  10.926 -0.7488 -2.0804  0.1415
13539TIP3    H262109   3.566   6.517  10.812  1.1199 -0.8238  1.9394
13540TIP3   OH262110   6.284   0.821  15.679  0.0050  0.6205 -0.3475
13540TIP3    H162111   6.294   0.745  15.621 -0.7813 -0.6662  1.1203
13540TIP3    H262112   6.201   0.805  15.723  1.1496  0.9022  2.0241
13541TIP3   OH262113   0.531   4.066  16.171 -0.2902 -0.5292  0.5299
13541TIP3    H162114   0.524   4.159  16.151 -0.5352 -0.5019  0.7395
13541TIP3    H262115   0.563   4.026  16.090 -0.1063 -0.2529  0.4657
13542TIP3   OH262116   0.752   1.916   2.256  0.7754  0.4128  0.1361
13542TIP3    H162117   0.797   1.971   2.320 -0.9355  0.6524  1.1904
13542TIP3    H262118   0.777   1.952   2.171  1.5386  1.3328  0.7311
13543TIP3   OH262119   3.614   3.159   4.718  0.1557  0.6344 -0.4004
13543TIP3    H162120   3.690   3.158   4.660 -0.7528  0.4664 -1.6248
13543TIP3    H262121   3.589   3.251   4.723  1.8332  1.0575  1.9606
13544TIP3   OH262122   0.463   5.489  13.047 -0.8022  0.3914 -0.4155
13544TIP3    H162123   0.411   5.422  13.093 -1.8489  0.7802 -0.9779
13544TIP3    H262124   0.481   5.449  12.961  0.0529  0.1661 -0.1383
13545TIP3   OH262125   1.642   6.306   5.646 -0.5188  0.1756 -0.2608
13545TIP3    H162126   1.663   6.246   5.575  1.5218  1.0080 -0.4557
13545TIP3    H262127   1.580   6.259   5.701 -0.9330 -1.0861 -1.7494
13546TIP3   OH262128   5.087   2.864  16.021 -0.0417 -0.3407  0.1668
13546TIP3    H162129   4.995   2.879  16.044 -0.4258 -1.5003 -0.4886
13546TIP3    H262130   5.098   2.912  15.938 -0.4273 -1.1986 -0.3995
13547TIP3   OH262131   3.010   0.603  17.099 -0.1717 -0.0548  0.5170
13547TIP3    H162132   3.105   0.607  17.112 -0.1741  1.5393  0.2627
13547TIP3    H262133   2.973   0.628  17.184 -0.3183  1.2946  0.0741
13548TIP3   OH262134   6.390   5.961   3.256 -0.6209 -0.9899  0.1851
13548TIP3    H162135   6.438   6.007   3.324 -0.5462 -0.0160 -0.5038
13548TIP3    H262136   6.456   5.938   3.191 -0.9973 -0.0561 -0.5462
13549TIP3   OH262137   5.406   6.235   2.912 -0.3798 -0.1030  0.1600
13549TIP3    H162138   5.328   6.281   2.880  0.2530  0.3194 -0.8490
13549TIP3    H262139   5.461   6.305   2.948 -0.2394 -0.3222  0.3669
13550TIP3   OH262140   6.151   1.850   5.731  0.7937  0.4059 -0.0610
13550TIP3    H162141   6.186   1.782   5.788  1.2560 -0.2968 -1.1513
13550TIP3    H262142   6.073   1.882   5.777 -1.0406 -2.7400 -0.6744
13551TIP3   OH262143   5.512   3.124  17.220  0.3566  0.6714 -0.4538
13551TIP3    H162144   5.498   3.055  17.155 -2.0033 -0.6112  1.2608
13551TIP3    H262145   5.538   3.077  17.299 -0.9212  1.7592  0.6574
13552TIP3   OH262146   5.754   2.693   1.908  0.3858 -0.5179  0.1983
13552TIP3    H162147   5.682   2.696   1.971  1.5243 -0.7826  1.5646
13552TIP3    H262148   5.783   2.783   1.899 -0.5706 -0.2933 -0.9538
13553TIP3   OH262149   6.124   6.518   3.299  0.2092 -0.6564 -0.9386
13553TIP3    H162150   6.206   6.502   3.251  0.3311  1.6592 -1.6070
13553TIP3    H262151   6.142   6.486   3.387  2.9125  2.1711 -0.2876
13554TIP3   OH262152   4.023   2.521   3.324  0.6444 -0.1558  0.2316
13554TIP3    H162153   3.995   2.541   3.413  2.7363  0.7348  0.7559
13554TIP3    H262154   4.119   2.521   3.328  0.7976 -0.5280 -1.9362
13555TIP3   OH262155   0.144   5.091   3.562 -0.4754  0.1618 -0.4833
13555TIP3    H162156   0.205   5.139   3.506 -0.8488  1.2364 -0.0045
13555TIP3    H262157   0.190   5.080   3.645  0.1961 -1.7002 -1.0389
13556TIP3   OH262158   1.485   5.499  13.743 -0.2774 -0.1517 -0.5118
13556TIP3    H162159   1.443   5.573  13.698 -0.0296  1.5722  1.9125
13556TIP3    H262160   1.413   5.439  13.760 -0.7455  0.1688 -1.2592
13557TIP3   OH262161   6.663   1.479   4.702  0.2139 -0.0302 -0.0421
13557TIP3    H162162   6.697   1.556   4.747  0.1844 -0.3777  0.5742
13557TIP3    H262163   6.641   1.417   4.771 -0.0055 -0.4986 -0.5194
13558TIP3   OH262164   3.971   2.609  15.167  0.0450  0.2372  0.3656
13558TIP3    H162165   4.065   2.626  15.175  0.3424 -1.2483  0.3520
13558TIP3    H262166   3.966   2.520  15.133 -1.3771  0.4166  0.0527
13559TIP3   OH262167   2.974   4.385   5.874  0.6848  0.3156 -0.6720
13559TIP3    H162168   2.960   4.305   5.824  0.6803  0.9896 -1.7981
13559TIP3    H262169   2.886   4.420   5.887  0.6971  0.2111 -0.3184
13560TIP3   OH262170   1.853   5.860   0.920 -0.6930 -0.0107 -0.0661
13560TIP3    H162171   1.828   5.919   0.849  0.8014  0.4213 -0.2690
13560TIP3    H262172   1.902   5.790   0.876 -0.3788 -0.1231  0.4506
13561TIP3   OH262173   3.221   1.277   0.647 -0.1753 -0.2231  0.5924
13561TIP3    H162174   3.190   1.221   0.718  0.1100 -0.3077  0.6493
13561TIP3    H262175   3.272   1.345   0.690 -1.0385  0.4541  0.5845
13562TIP3   OH262176   2.053   0.340   3.105 -0.4731 -0.1955  0.2316
13562TIP3    H162177   2.102   0.384   3.174 -0.3078 -1.0843  0.6992
13562TIP3    H262178   2.034   0.409   3.041 -0.8121  0.6917  1.2537
13563TIP3   OH262179   2.776   3.609  16.401  0.1563 -0.3013 -0.1112
13563TIP3    H162180   2.817   3.558  16.471  0.9306 -0.3855 -0.6096
13563TIP3    H262181   2.847   3.663  16.366 -0.8035  1.8247  0.9889
13564TIP3   OH262182   3.370   5.081  14.808 -0.4922  0.1449  0.3570
13564TIP3    H162183   3.448   5.131  14.831  0.5914 -1.7154  1.0059
13564TIP3    H262184   3.329   5.062  14.892 -1.1547  0.3427  0.0824
13565TIP3   OH262185   6.127   5.364  13.678 -0.5611  0.1884  0.2061
13565TIP3    H162186   6.211   5.398  13.708  0.1239 -0.8966 -0.3923
13565TIP3    H262187   6.103   5.420  13.605  0.6907 -0.6985 -0.9497
13566TIP3   OH262188   2.119   3.213  15.963 -0.2233 -0.1454  0.0389
13566TIP3    H162189   2.158   3.135  15.923 -1.2518 -1.7372  1.9329
13566TIP3    H262190   2.027   3.210  15.937 -0.5400 -0.2912  1.0918
13567TIP3   OH262191   3.599   5.424   0.805  0.0745  0.2523  0.2128
13567TIP3    H162192   3.645   5.442   0.723  0.9340  0.3397  0.6951
13567TIP3    H262193   3.543   5.349   0.786  1.1041 -0.4496 -0.1686
13568TIP3   OH262194   4.162   1.543   2.613 -0.3236 -0.0476 -0.4147
13568TIP3    H162195   4.235   1.482   2.601 -0.3911 -0.9108  2.8668
13568TIP3    H262196   4.204   1.629   2.616  0.6432 -0.5275  1.4010
13569TIP3   OH262197   0.470   1.481   3.461 -0.1973 -0.7633 -0.0989
13569TIP3    H162198   0.487   1.569   3.429  0.6563  0.2775  2.9085
13569TIP3    H262199   0.377   1.467   3.443 -0.2277  0.5093 -1.0925
13570TIP3   OH262200   4.187   2.400   0.640 -0.1466  0.2983  0.3163
13570TIP3    H162201   4.261   2.449   0.604  0.0218  1.0089  1.5709
13570TIP3    H262202   4.164   2.337   0.572  0.7954  0.9232 -0.6036
13571TIP3   OH262203   2.708   1.630   0.139 -0.0446  0.3497  0.7914
13571TIP3    H162204   2.633   1.661   0.189  0.6270  0.1255  1.9773
13571TIP3    H262205   2.772   1.603   0.205  0.5707 -0.7173 -0.1889
13572TIP3   OH262206   5.501   2.427  14.433 -0.3057 -0.2116  0.3266
13572TIP3    H162207   5.436   2.403  14.499  0.4968 -0.0204  1.2266
13572TIP3    H262208   5.540   2.344  14.406 -1.4555 -0.4016 -0.8124
13573TIP3   OH262209   0.626   4.856  11.369  0.4881 -0.1114 -0.0585
13573TIP3    H162210   0.677   4.879  11.447 -2.3995  1.9197  1.4648
13573TIP3    H262211   0.591   4.939  11.338  1.0494 -0.9628 -3.2547
13574TIP3   OH262212   5.616   1.056   4.049  0.3972  0.0639 -0.4059
13574TIP3    H162213   5.578   0.969   4.048  0.6527 -0.0869  1.0588
13574TIP3    H262214   5.705   1.044   4.080  0.1841  0.9177  0.6158
13575TIP3   OH262215   0.260   6.462   1.449 -0.1010  0.5666  0.5475
13575TIP3    H162216   0.350   6.471   1.481 -0.2900  0.9081  0.9900
13575TIP3    H262217   0.235   6.550   1.421  0.0786  0.2634 -0.6123
13576TIP3   OH262218   4.489   3.420  11.755 -0.1284  1.1876 -0.1965
13576TIP3    H162219   4.481   3.498  11.810  2.6787  0.6937  1.0608
13576TIP3    H262220   4.514   3.454  11.669  1.8722  1.7221  0.5351
13577TIP3   OH262221   1.688   4.803  11.314  0.0820 -0.0048  0.7493
13577TIP3    H162222   1.667   4.821  11.223 -0.7950 -3.3336  0.1366
13577TIP3    H262223   1.777   4.835  11.326  0.3415  0.1784 -1.3908
13578TIP3   OH262224   3.117   3.949   5.050  0.0208  0.2782  0.7200
13578TIP3    H162225   3.176   3.986   5.115  0.2271  1.2325  0.0068
13578TIP3    H262226   3.031   3.983   5.073  0.3263  1.8921 -0.3932
13579TIP3   OH262227   5.424   2.472   2.652  0.1527 -0.2710 -0.0340
13579TIP3    H162228   5.501   2.525   2.668  0.1980 -0.7972  1.6511
13579TIP3    H262229   5.451   2.382   2.672 -0.6536 -0.5729 -0.2390
13580TIP3   OH262230   6.652   3.935   0.179 -0.1665  0.5889  0.3511
13580TIP3    H162231   6.590   3.943   0.251 -0.7999  1.2657 -0.2526
13580TIP3    H262232   6.737   3.922   0.222 -0.2711  2.5389  1.2896
13581TIP3   OH262233   2.176   1.698  13.312  0.4006 -0.3543  0.3437
13581TIP3    H162234   2.194   1.747  13.393  3.1312 -0.2104 -0.2535
13581TIP3    H262235   2.134   1.762  13.255 -1.7641 -0.5097  1.6107
13582TIP3   OH262236   2.267   3.096   1.505  0.4814  0.2678 -0.4641
13582TIP3    H162237   2.192   3.127   1.556  0.7183  1.6441 -0.9195
13582TIP3    H262238   2.274   3.157   1.432  1.3385 -0.5317 -1.0786
13583TIP3   OH262239   2.976   0.284  14.467  0.3358  0.1588 -0.1965
13583TIP3    H162240   3.018   0.200  14.482 -0.0325  0.2070  1.3315
13583TIP3    H262241   2.942   0.309  14.553  0.4209  1.8585 -0.6187
13584TIP3   OH262242   3.671   1.081  15.558 -0.5461  0.0155 -0.9070
13584TIP3    H162243   3.610   1.091  15.630 -0.6098 -0.1986 -0.9302
13584TIP3    H262244   3.630   1.016  15.500 -0.5143  0.2130 -1.1539
13585TIP3   OH262245   3.758   1.485   3.046 -0.4767  0.4143 -0.4335
13585TIP3    H162246   3.834   1.494   3.103 -0.6437  1.8618 -0.4071
13585TIP3    H262247   3.788   1.430   2.973  1.0261  2.1263 -1.1557
13586TIP3   OH262248   2.087   3.816   0.326 -0.2972 -0.1462  0.0594
13586TIP3    H162249   2.067   3.750   0.392 -0.7185  0.5835  0.6847
13586TIP3    H262250   2.182   3.812   0.316 -0.2336 -0.2976  0.6831
13587TIP3   OH262251   0.462   6.030   2.173  0.4628  0.0268 -0.6216
13587TIP3    H162252   0.510   6.112   2.180 -0.9556  0.7919  1.2620
13587TIP3    H262253   0.452   6.001   2.264  0.0780 -1.7281 -1.1802
13588TIP3   OH262254   4.817   1.710   2.566 -0.2412 -0.3983 -0.0733
13588TIP3    H162255   4.737   1.658   2.567 -1.2304  1.0359 -1.0271
13588TIP3    H262256   4.867   1.675   2.492  0.7332 -2.2289  1.3530
13589TIP3   OH262257   4.254   2.783   0.152  0.3726  0.3198  0.6399
13589TIP3    H162258   4.162   2.802   0.132  0.7335 -0.2628 -1.9795
13589TIP3    H262259   4.251   2.727   0.229 -1.4677  0.3374  0.6272
13590TIP3   OH262260   0.660   4.272   1.530 -0.5582  0.0251 -0.0504
13590TIP3    H162261   0.621   4.360   1.532 -0.1331  0.2192 -0.1600
13590TIP3    H262262   0.597   4.217   1.576 -0.7475  0.4228  0.1712
13591TIP3   OH262263   6.671   1.787   2.007  0.0553 -0.5922 -0.4246
13591TIP3    H162264   6.608   1.836   1.954  1.3617  0.2753 -1.2659
13591TIP3    H262265   6.630   1.777   2.092 -1.1184  0.1213 -0.8876
13592TIP3   OH262266   3.979   6.357   4.303  0.4707 -0.6862  0.1743
13592TIP3    H162267   3.901   6.366   4.249  0.8046 -3.2693 -0.9119
13592TIP3    H262268   3.949   6.371   4.393 -0.2499  2.9329 -0.4735
13593TIP3   OH262269   3.273   0.610   3.328  0.0556 -0.1209 -0.9297
13593TIP3    H162270   3.303   0.590   3.416  0.0442 -0.1517 -0.9329
13593TIP3    H262271   3.185   0.645   3.340 -0.2665 -0.9069 -1.0001
13594TIP3   OH262272   1.592   5.548   4.595  0.4600 -0.1272  0.1336
13594TIP3    H162273   1.639   5.605   4.534 -0.2008 -0.9245 -1.1815
13594TIP3    H262274   1.569   5.604   4.669 -1.3084  1.7054 -1.6597
13595TIP3   OH262275   6.350   6.771   0.705 -0.9251 -0.4520  0.4658
13595TIP3    H162276   6.391   6.808   0.783 -1.0204 -1.2249  0.8941
13595TIP3    H262277   6.414   6.784   0.635 -1.0649  0.7468  0.5417
13596TIP3   OH262278   2.642   1.536   5.293 -0.1611  0.4779 -0.0184
13596TIP3    H162279   2.588   1.494   5.227 -0.8322  0.2633  0.6531
13596TIP3    H262280   2.582   1.552   5.367  0.8170 -0.3250  0.9797
13597TIP3   OH262281   2.540   1.764  13.444  0.1215 -0.7119  0.1889
13597TIP3    H162282   2.595   1.830  13.402 -0.1705 -0.3140  0.4122
13597TIP3    H262283   2.601   1.705  13.487  0.3947 -0.7022 -0.1800
13598TIP3   OH262284   3.333   1.833   0.318 -0.3445 -0.2696  0.3825
13598TIP3    H162285   3.317   1.776   0.242  0.0616  0.1868 -0.0571
13598TIP3    H262286   3.274   1.907   0.304  0.5518  0.3618 -0.0899
13599TIP3   OH262287   0.789   3.630   1.020  0.3434  0.1254 -0.7659
13599TIP3    H162288   0.799   3.638   1.115 -0.5110  0.8778 -0.7223
13599TIP3    H262289   0.760   3.717   0.992 -0.1552 -0.3015 -1.6081
13600TIP3   OH262290   4.300   5.779   6.244  0.3325  0.2914  0.7352
13600TIP3    H162291   4.302   5.700   6.190  0.6172  0.1748  0.9134
13600TIP3    H262292   4.234   5.834   6.204  0.6550  0.2725  0.1703
13601TIP3   OH262293   1.366   6.083  12.916  0.0378  0.2329 -0.2502
13601TIP3    H162294   1.430   6.127  12.973 -0.2223  0.8626 -0.4402
13601TIP3    H262295   1.419   6.046  12.845  0.3199 -0.2271  0.1925
13602TIP3   OH262296   3.007   6.723  16.209 -0.3339  0.0962  0.5279
13602TIP3    H162297   3.063   6.686  16.278 -0.1099 -1.4232 -0.4130
13602TIP3    H262298   3.029   6.816  16.208  1.1731 -0.2198  1.1157
13603TIP3   OH262299   5.886   5.408  11.542 -0.4531  0.1993 -0.5136
13603TIP3    H162300   5.865   5.501  11.543  0.2501  0.3675  0.4341
13603TIP3    H262301   5.980   5.404  11.522 -0.7419 -0.3856 -1.8658
13604TIP3   OH262302   5.282   4.674   0.882  0.2275 -0.0183 -0.1188
13604TIP3    H162303   5.206   4.731   0.877 -0.7057 -1.2805 -1.2859
13604TIP3    H262304   5.338   4.701   0.809  1.2711  1.3649  1.1532
13605TIP3   OH262305   1.325   2.559   0.717  0.1218  0.0680  0.0649
13605TIP3    H162306   1.242   2.523   0.749 -0.1903  2.1397  1.8472
13605TIP3    H262307   1.391   2.513   0.769 -0.0343 -0.3344 -0.0894
13606TIP3   OH262308   2.984   4.462   5.214 -0.1598  1.0090 -0.0070
13606TIP3    H162309   2.900   4.493   5.250 -0.8536  0.1051 -0.7854
13606TIP3    H262310   2.970   4.368   5.200  0.9347  0.8878 -0.3076
13607TIP3   OH262311   1.172   5.475   4.900  0.3385  0.4830 -0.6760
13607TIP3    H162312   1.227   5.507   4.829 -0.4229  1.7028 -0.7563
13607TIP3    H262313   1.225   5.487   4.979  0.3584  1.2492 -0.7996
13608TIP3   OH262314   2.673   5.412   1.401 -0.1810 -0.7023 -0.2175
13608TIP3    H162315   2.769   5.418   1.401 -0.2177 -0.0851 -0.3750
13608TIP3    H262316   2.652   5.377   1.487  0.0274  2.1180  1.0946
13609TIP3   OH262317   2.299   6.453   2.294 -0.1135 -0.5763 -0.0932
13609TIP3    H162318   2.276   6.360   2.286  1.0055 -0.8145 -0.6709
13609TIP3    H262319   2.367   6.467   2.228  2.3233 -0.2190  2.3264
13610TIP3   OH262320   3.665   1.985   3.938  0.4219  0.0854 -0.2315
13610TIP3    H162321   3.607   1.993   3.863 -1.7685 -0.0497  1.3657
13610TIP3    H262322   3.720   2.063   3.935 -1.1791  1.2262 -0.7106
13611TIP3   OH262323   6.279   4.555   4.676  0.1474  0.2213  0.2143
13611TIP3    H162324   6.216   4.543   4.747  1.1628  0.7103  1.2358
13611TIP3    H262325   6.271   4.476   4.622  1.0195 -1.3276  2.2301
13612TIP3   OH262326   2.630   6.227  10.961  1.0641  0.0545  0.5911
13612TIP3    H162327   2.559   6.250  10.901 -0.1925 -3.0520  0.6546
13612TIP3    H262328   2.615   6.281  11.038 -0.7932  0.0916  0.2619
13613TIP3   OH262329   2.782   2.113   2.559  0.0304 -0.1211 -0.2910
13613TIP3    H162330   2.791   2.110   2.464 -0.1171 -2.9332 -0.2756
13613TIP3    H262331   2.823   2.196   2.584 -2.6041  2.2504 -3.0071
13614TIP3   OH262332   2.699   4.240  11.900  0.3064 -0.1099 -0.6287
13614TIP3    H162333   2.606   4.257  11.887  0.2810  0.3419  0.0986
13614TIP3    H262334   2.732   4.222  11.812 -0.1357  1.4114 -1.1342
13615TIP3   OH262335   4.471   5.331  12.710  0.0112  0.3497  0.2950
13615TIP3    H162336   4.510   5.300  12.628  0.4831  0.7290  0.3752
13615TIP3    H262337   4.543   5.329  12.773 -0.7175 -1.5758  1.1492
13616TIP3   OH262338   2.790   0.447  11.895  0.4673 -0.7825  0.1927
13616TIP3    H162339   2.884   0.463  11.904  0.0446  1.5517  0.9722
13616TIP3    H262340   2.752   0.481  11.975 -1.1240 -1.1764 -0.3674
13617TIP3   OH262341   5.501   6.367  11.549  0.3139  0.2236 -0.1556
13617TIP3    H162342   5.523   6.286  11.595  1.7572  0.4983 -0.3058
13617TIP3    H262343   5.566   6.373  11.478  0.4721  1.6912  0.0788
13618TIP3   OH262344   0.643   0.804   6.026 -0.3301 -0.4473  0.4108
13618TIP3    H162345   0.674   0.714   6.019 -0.1677 -0.5343  1.8590
13618TIP3    H262346   0.549   0.796   6.046 -0.4441 -0.2676 -0.0226
13619TIP3   OH262347   0.347   4.236  14.974 -0.6795  0.4254  0.1675
13619TIP3    H162348   0.279   4.241  14.907 -1.9395 -1.5591  1.2391
13619TIP3    H262349   0.398   4.158  14.952 -0.8755 -0.0396  1.2975
13620TIP3   OH262350   2.276   5.853  14.343 -0.2695  0.0470  0.0730
13620TIP3    H162351   2.206   5.804  14.387 -0.5206  0.7195  0.4342
13620TIP3    H262352   2.278   5.816  14.254  0.9530 -2.0568  0.8959
13621TIP3   OH262353   4.773   0.481  15.434  0.9049  0.1523 -0.6317
13621TIP3    H162354   4.731   0.563  15.409 -0.6164 -0.5076 -0.3363
13621TIP3    H262355   4.840   0.507  15.497  1.2750  1.2709 -1.4461
13622TIP3   OH262356   5.306   2.807   2.808 -0.4030 -0.0421  0.0610
13622TIP3    H162357   5.270   2.718   2.798  0.9452 -0.4940 -0.9951
13622TIP3    H262358   5.267   2.856   2.736  1.6666 -0.7578 -1.6327
13623TIP3   OH262359   6.319   6.364  11.401  0.9802  0.1914 -0.3877
13623TIP3    H162360   6.225   6.354  11.412  1.1901 -0.7328  0.7366
13623TIP3    H262361   6.341   6.306  11.328  0.7298  0.2122 -0.4825
13624TIP3   OH262362   3.719   5.888   1.058  0.5120 -0.3000  0.5441
13624TIP3    H162363   3.753   5.799   1.065 -2.3214 -1.5139  0.4426
13624TIP3    H262364   3.681   5.891   0.970 -1.2855  0.2246  1.2945
13625TIP3   OH262365   4.461   6.437   4.672  0.3475 -0.2582 -0.1313
13625TIP3    H162366   4.462   6.368   4.738  0.3573 -1.6018 -1.4764
13625TIP3    H262367   4.444   6.391   4.589  2.3777  1.0549 -1.3886
13626TIP3   OH262368   4.187   4.793   5.857 -0.0771  0.3687 -0.6524
13626TIP3    H162369   4.246   4.723   5.828  1.9243  1.6697  0.0327
13626TIP3    H262370   4.164   4.768   5.947 -0.4966 -0.0892 -0.8829
13627TIP3   OH262371   0.975   3.021   2.604  0.1430 -1.0990 -0.2029
13627TIP3    H162372   0.883   3.030   2.628  0.4859  0.4516  0.6656
13627TIP3    H262373   1.021   3.004   2.686  0.8421  0.1521 -0.2963
13628TIP3   OH262374   0.499   5.965   4.060  0.1018  0.1830  0.3300
13628TIP3    H162375   0.466   5.991   4.146 -0.7001  1.3289 -0.3125
13628TIP3    H262376   0.462   5.878   4.046 -0.2285  0.2282  0.8946
13629TIP3   OH262377   1.844   5.523  16.349 -0.1560  0.3642  0.3373
13629TIP3    H162378   1.847   5.611  16.386 -0.3154  0.8537 -0.7602
13629TIP3    H262379   1.811   5.536  16.260 -3.3420 -1.1341  1.1598
13630TIP3   OH262380   3.015   1.455  12.847  0.2055 -0.6241  0.1480
13630TIP3    H162381   2.978   1.368  12.858 -0.6669 -0.6343 -2.2330
13630TIP3    H262382   3.096   1.440  12.798  0.1901 -0.1295 -0.0374
13631TIP3   OH262383   1.024   0.726   1.083 -0.4149 -0.1834 -0.5659
13631TIP3    H162384   1.010   0.640   1.043  0.3444 -1.4314  1.7012
13631TIP3    H262385   0.946   0.742   1.136  0.2667 -0.3816  0.5256
13632TIP3   OH262386   5.930   4.778  12.756  0.2351 -0.3169 -0.0099
13632TIP3    H162387   5.887   4.751  12.674  0.1968 -0.2536 -0.0109
13632TIP3    H262388   5.984   4.703  12.780 -0.1762 -0.5476  0.1954
13633TIP3   OH262389   6.076   3.394  13.976 -0.6015 -0.2317 -0.3104
13633TIP3    H162390   6.017   3.321  13.958  2.3343 -2.3680 -2.2503
13633TIP3    H262391   6.097   3.385  14.070 -0.7465 -1.5614 -0.3834
13634TIP3   OH262392   3.525   0.501  14.856  0.8679 -0.0575  0.1668
13634TIP3    H162393   3.563   0.477  14.771  0.2986 -1.7093  0.3362
13634TIP3    H262394   3.445   0.449  14.861  0.1110  1.1502  1.0847
13635TIP3   OH262395   0.529   0.474   3.708 -0.3085 -0.2643 -0.1423
13635TIP3    H162396   0.579   0.518   3.640 -2.1867  0.9812 -0.8144
13635TIP3    H262397   0.493   0.545   3.761  0.0751 -1.1750  1.4165
13636TIP3   OH262398   5.998   3.761   4.085 -0.4500 -0.4569  0.6243
13636TIP3    H162399   5.972   3.698   4.019  0.4040 -0.4120  0.2353
13636TIP3    H262400   5.977   3.846   4.046  1.0980 -0.3772 -0.0763
13637TIP3   OH262401   6.734   0.991   1.765  0.1362 -0.3482 -0.0861
13637TIP3    H162402   6.727   1.039   1.847  2.1187  0.0468 -0.0841
13637TIP3    H262403   6.759   0.902   1.791  0.8923 -0.1908 -0.2351
13638TIP3   OH262404   0.547   2.884  14.163  1.1121 -0.0993  0.0620
13638TIP3    H162405   0.526   2.805  14.113 -0.2075 -1.2318  2.2370
13638TIP3    H262406   0.580   2.851  14.247 -1.7079  1.4965  1.9940
13639TIP3   OH262407   3.530   2.097   3.232 -0.5701  0.5949 -0.0076
13639TIP3    H162408   3.548   2.015   3.278 -0.7262  0.7068  0.2571
13639TIP3    H262409   3.540   2.165   3.299 -0.7183  0.7661 -0.1571
13640TIP3   OH262410   4.259   0.792   3.700 -0.4446 -0.5928 -0.2517
13640TIP3    H162411   4.258   0.782   3.605  0.7692 -0.2437 -0.3200
13640TIP3    H262412   4.252   0.703   3.734  2.1918 -1.0691 -0.7428
13641TIP3   OH262413   5.994   5.705   5.778  0.2353 -0.3529  0.1389
13641TIP3    H162414   6.075   5.734   5.818  0.3610 -0.4542 -0.0407
13641TIP3    H262415   6.003   5.728   5.685  0.7046 -1.7424 -0.1816
13642TIP3   OH262416   1.069   1.769  15.658  0.8677  0.5776 -0.6424
13642TIP3    H162417   1.142   1.829  15.641 -1.7156  4.0898 -0.4205
13642TIP3    H262418   1.025   1.807  15.734 -0.6262 -2.0188 -0.1079
13643TIP3   OH262419   5.599   6.137   1.509  0.7464 -0.0039  0.2639
13643TIP3    H162420   5.565   6.084   1.437  0.5791  0.1812  0.2056
13643TIP3    H262421   5.546   6.111   1.585  0.8978 -0.1720  0.3108
13644TIP3   OH262422   5.845   5.286   2.983 -0.0953 -0.0012 -0.3733
13644TIP3    H162423   5.911   5.353   2.997 -0.5073  0.2161  0.6575
13644TIP3    H262424   5.775   5.331   2.936  0.6655 -0.3484 -1.8780
13645TIP3   OH262425   5.884   3.592   5.028 -0.9685 -0.4941  0.2513
13645TIP3    H162426   5.875   3.684   5.001 -1.1064  0.0431  2.0077
13645TIP3    H262427   5.905   3.545   4.947 -0.5899  1.1267 -0.6331
13646TIP3   OH262428   5.199   6.276  17.189 -0.1447 -0.3288  0.2709
13646TIP3    H162429   5.255   6.353  17.193  1.5418 -1.4449 -0.6712
13646TIP3    H262430   5.226   6.222  17.263 -0.7985 -0.3777  0.4889
13647TIP3   OH262431   6.634   6.548   0.595  0.5544  0.4162  0.5701
13647TIP3    H162432   6.683   6.527   0.515  0.5244  0.9851  0.3921
13647TIP3    H262433   6.574   6.475   0.607 -0.5304  1.0396 -0.8098
13648TIP3   OH262434   2.763   5.337   3.040 -0.7487  0.5334  0.6794
13648TIP3    H162435   2.792   5.316   3.129 -2.3970 -1.6191  0.8005
13648TIP3    H262436   2.803   5.269   2.986  0.3663  1.9140 -0.3083
13649TIP3   OH262437   5.204   2.980   0.338  0.3682 -0.2122 -0.3497
13649TIP3    H162438   5.167   3.020   0.417  0.0404 -1.6721  0.2795
13649TIP3    H262439   5.289   3.022   0.326  0.4012  0.0596  0.7689
13650TIP3   OH262440   5.137   0.141   0.680 -0.1355 -0.4781  0.4917
13650TIP3    H162441   5.134   0.183   0.594  0.2016 -0.7872  0.3248
13650TIP3    H262442   5.197   0.195   0.731 -0.7553  0.0192  0.7107
13651TIP3   OH262443   0.981   4.391   6.009  0.4783  0.0330  0.7107
13651TIP3    H162444   0.952   4.446   5.937  1.2390 -1.8862 -1.1817
13651TIP3    H262445   0.955   4.438   6.088 -0.5912  2.1190 -0.7994
13652TIP3   OH262446   2.127   5.428  11.381 -0.4232  0.0360 -0.1626
13652TIP3    H162447   2.218   5.456  11.384 -0.5303  0.4587 -0.6215
13652TIP3    H262448   2.084   5.493  11.325 -1.0561 -0.0237  0.2446
13653TIP3   OH262449   3.218   0.236  16.658  0.1504  0.3083 -0.1903
13653TIP3    H162450   3.139   0.290  16.668 -0.3009 -0.1505 -1.1470
13653TIP3    H262451   3.194   0.171  16.592  1.1865 -0.1164 -0.1597
13654TIP3   OH262452   4.657   5.138   0.771  0.4475 -0.6550  0.0708
13654TIP3    H162453   4.724   5.120   0.837 -0.0783 -0.0426  0.7840
13654TIP3    H262454   4.701   5.195   0.708  0.8236 -0.8685  0.1385
13655TIP3   OH262455   2.900   6.482   1.745 -0.2625 -0.0321 -0.1470
13655TIP3    H162456   2.937   6.534   1.817  0.2830  0.5321 -0.8070
13655TIP3    H262457   2.917   6.391   1.769 -1.1864  0.0777  1.0098
13656TIP3   OH262458   0.528   1.279  14.257 -0.0833 -0.4237  0.2645
13656TIP3    H162459   0.583   1.201  14.264  0.3590 -0.0799  0.7692
13656TIP3    H262460   0.545   1.312  14.169 -0.9665 -1.3925 -0.2843
13657TIP3   OH262461   5.663   0.104  15.693 -0.3291 -0.1234 -0.4770
13657TIP3    H162462   5.574   0.136  15.708 -0.5711 -0.8877 -0.1953
13657TIP3    H262463   5.670   0.027  15.749  0.4854 -0.1219 -0.5636
13658TIP3   OH262464   1.480   1.932  10.731  0.2030  0.7946  0.3935
13658TIP3    H162465   1.509   1.952  10.642 -4.4772 -1.4660 -2.0229
13658TIP3    H262466   1.450   2.016  10.765 -0.5200  1.3349 -1.4044
13659TIP3   OH262467   2.826   5.271   6.302 -0.1029  0.3709  0.3263
13659TIP3    H162468   2.841   5.364   6.288 -1.1227  0.2646 -1.8167
13659TIP3    H262469   2.912   5.237   6.329  0.9716  1.4957 -1.4779
13660TIP3   OH262470   1.956   3.688   4.509 -0.1186  0.2266  0.4793
13660TIP3    H162471   2.008   3.732   4.576  2.1114 -1.2336 -0.2072
13660TIP3    H262472   1.955   3.596   4.536 -1.7947  0.0846  0.0791
13661TIP3   OH262473   4.664   0.013   1.814  0.4761 -0.0162  0.5053
13661TIP3    H162474   4.709   0.017   1.730  1.7333 -2.4771  0.9725
13661TIP3    H262475   4.615  -0.069   1.810  1.7086 -0.9342  2.6673
13662TIP3   OH262476   1.593   2.417   5.073 -0.5124  0.0659  0.0159
13662TIP3    H162477   1.609   2.507   5.046  1.6466  0.0535  1.0433
13662TIP3    H262478   1.549   2.424   5.157  0.6889  0.2238  0.6598
13663TIP3   OH262479   3.008   1.810   2.366  0.8954  0.6716  0.1710
13663TIP3    H162480   3.032   1.880   2.426 -0.1789  0.0440  1.3907
13663TIP3    H262481   3.091   1.782   2.327  1.5506  1.4697  0.9590
13664TIP3   OH262482   3.357   5.204  14.557 -0.2357 -0.4901 -0.3670
13664TIP3    H162483   3.407   5.125  14.576 -0.3868 -1.2262 -2.7270
13664TIP3    H262484   3.268   5.172  14.542 -0.4232  0.2088 -0.7692
13665TIP3   OH262485   5.214   6.638   3.407 -0.2637  0.0095 -0.2969
13665TIP3    H162486   5.165   6.721   3.404  0.0485  0.1861 -0.5513
13665TIP3    H262487   5.152   6.575   3.444 -0.2485  0.5419  0.6892
13666TIP3   OH262488   0.258   2.685  11.635 -0.3388  0.0868  0.4340
13666TIP3    H162489   0.347   2.649  11.630 -0.7983 -1.0033 -0.0794
13666TIP3    H262490   0.243   2.723  11.549 -1.1001 -1.5105 -0.1586
13667TIP3   OH262491   3.025   2.139  15.823  0.0669  0.3154  0.7041
13667TIP3    H162492   3.052   2.218  15.868 -0.6721  1.0075 -0.0344
13667TIP3    H262493   2.961   2.168  15.758  0.7498 -0.7007 -0.4875
13668TIP3   OH262494   0.973   4.229  16.062  0.0389  0.1530  0.0382
13668TIP3    H162495   0.920   4.295  16.107 -0.5498  0.8830 -1.6077
13668TIP3    H262496   0.943   4.145  16.097 -2.1580  0.5498 -0.7240
13669TIP3   OH262497   3.967   5.535  16.268  0.3411 -0.2950 -0.5399
13669TIP3    H162498   4.052   5.545  16.310 -0.1130 -0.5207  0.4585
13669TIP3    H262499   3.975   5.585  16.186  1.4109 -0.2842 -0.4480
13670TIP3   OH262500   5.725   6.676  14.202  0.2552  0.1812 -0.0878
13670TIP3    H162501   5.661   6.631  14.147  2.1250 -3.2713  0.3013
13670TIP3    H262502   5.758   6.747  14.146 -0.0633 -1.3436 -2.3552
13671TIP3   OH262503   0.218   5.213   3.068 -0.2110  0.1559 -0.2278
13671TIP3    H162504   0.218   5.309   3.063 -1.8443  0.1840 -0.4922
13671TIP3    H262505   0.261   5.193   3.151  0.6595  1.0814 -0.4341
13672TIP3   OH262506   4.664   3.406  17.218  0.1275  0.6390  0.1440
13672TIP3    H162507   4.759   3.399  17.222  0.1004 -0.9515 -1.0690
13672TIP3    H262508   4.644   3.427  17.127 -0.7578 -2.2323 -0.4437
13673TIP3   OH262509   1.867   1.145   0.506 -0.0520 -0.2492 -0.1305
13673TIP3    H162510   1.774   1.138   0.486 -0.2364  0.1644  0.5426
13673TIP3    H262511   1.896   1.223   0.458  0.1411 -0.8386 -0.9947
13674TIP3   OH262512   4.003   1.461  16.687  0.3127 -0.1056  0.0170
13674TIP3    H162513   4.043   1.522  16.749 -1.2689 -0.1011  1.0869
13674TIP3    H262514   3.910   1.485  16.685 -0.6036 -3.0430  1.2603
13675TIP3   OH262515   6.154   1.553   3.209 -0.3749 -0.5513 -0.0252
13675TIP3    H162516   6.130   1.522   3.121  1.6679  0.4871 -1.0135
13675TIP3    H262517   6.214   1.626   3.193  0.5060 -0.7026  2.2429
13676TIP3   OH262518   4.704   1.814  16.822  0.2757 -0.6820  0.4374
13676TIP3    H162519   4.788   1.770  16.832  0.9559  0.7556  1.3501
13676TIP3    H262520   4.664   1.809  16.909  0.1216  0.0205  0.4109
13677TIP3   OH262521   3.129   4.990  11.707 -0.1957  0.4388  0.2719
13677TIP3    H162522   3.140   5.084  11.715 -1.0742  0.6378 -0.7186
13677TIP3    H262523   3.201   4.962  11.649  0.5172  0.3659  1.1612
13678TIP3   OH262524   5.396   4.174   0.566 -0.0010 -0.0076  0.2591
13678TIP3    H162525   5.453   4.202   0.494 -0.8767 -0.8530 -0.7916
13678TIP3    H262526   5.321   4.134   0.523 -0.5195 -0.5919  1.6593
13679TIP3   OH262527   5.582   0.778   0.742 -0.1611 -0.2914  0.4603
13679TIP3    H162528   5.656   0.725   0.713 -0.7750 -1.0218  0.1830
13679TIP3    H262529   5.518   0.714   0.774 -0.4200  0.3631  1.2959
13680TIP3   OH262530   2.771   0.361   2.692  0.4330  0.0478 -0.3708
13680TIP3    H162531   2.797   0.438   2.641  0.1862  0.9924  0.8656
13680TIP3    H262532   2.842   0.350   2.756  0.0343 -0.1953  0.0341
13681TIP3   OH262533   2.587   4.418  13.969 -0.1988  0.3860  0.0681
13681TIP3    H162534   2.644   4.352  13.930 -0.4230 -0.8852  1.7498
13681TIP3    H262535   2.504   4.372  13.986 -0.3945  1.0944  1.1848
13682TIP3   OH262536   6.749   6.521  16.436  0.6424 -0.3933  0.4482
13682TIP3    H162537   6.769   6.536  16.343 -0.3897  2.2967  0.5516
13682TIP3    H262538   6.661   6.483  16.435  0.4914 -0.0478  0.3173
13683TIP3   OH262539   3.895   2.107   5.514  0.2464 -0.8546  0.1695
13683TIP3    H162540   3.941   2.026   5.493 -0.3985 -1.7626  2.0598
13683TIP3    H262541   3.840   2.085   5.589 -0.5523  1.1337  0.2283
13684TIP3   OH262542   2.955   1.376  13.682 -0.1835  0.3387  0.4656
13684TIP3    H162543   2.921   1.313  13.619  0.5832  1.2196 -0.8858
13684TIP3    H262544   2.989   1.448  13.628 -0.4107  1.6009  1.9230
13685TIP3   OH262545   6.168   0.740   1.385  0.3779 -0.1989 -0.2915
13685TIP3    H162546   6.148   0.833   1.390 -0.8042 -0.4707  0.7560
13685TIP3    H262547   6.090   0.701   1.344  1.3015 -0.6104 -1.6910
13686TIP3   OH262548   1.414   2.917   2.395  0.0570 -0.0484  0.1637
13686TIP3    H162549   1.439   2.900   2.304  1.7834 -0.1185  0.6279
13686TIP3    H262550   1.318   2.911   2.394 -0.0282  0.8296 -1.8153
13687TIP3   OH262551   4.822   4.233   4.632  0.2916 -0.4022 -0.2581
13687TIP3    H162552   4.737   4.206   4.668 -0.2530  0.7087 -0.6650
13687TIP3    H262553   4.855   4.155   4.587 -0.8009 -0.6756 -0.6222
13688TIP3   OH262554   3.633   5.676   2.988  0.6004  0.0522 -0.1610
13688TIP3    H162555   3.575   5.746   2.958  0.2113  0.9059  2.3941
13688TIP3    H262556   3.584   5.595   2.972  0.0632  0.5224 -0.9365
13689TIP3   OH262557   4.341   5.351  15.653 -0.2683 -0.1560  0.1978
13689TIP3    H162558   4.378   5.304  15.579  0.4652 -1.6413  1.4423
13689TIP3    H262559   4.407   5.344  15.722 -1.9682 -1.1324  1.8291
13690TIP3   OH262560   4.171   4.555  12.745 -0.0755  0.8520 -0.1228
13690TIP3    H162561   4.094   4.606  12.772  0.1496  0.4404  1.4080
13690TIP3    H262562   4.142   4.507  12.667 -1.4569  0.5358  0.5503
13691TIP3   OH262563   4.312   6.045  14.129 -0.1388 -0.1025  0.3473
13691TIP3    H162564   4.304   6.128  14.176 -1.8668 -1.3498  2.4571
13691TIP3    H262565   4.404   6.020  14.140  0.0590  0.8366  0.9642
13692TIP3   OH262566   3.877   1.709  15.510  0.1963  0.3204 -0.1640
13692TIP3    H162567   3.848   1.788  15.463 -0.5512 -0.8563 -1.7768
13692TIP3    H262568   3.882   1.642  15.442  3.3630 -0.4316  0.6866
13693TIP3   OH262569   1.522   6.196   0.571  0.2371  0.2431 -0.1361
13693TIP3    H162570   1.452   6.244   0.614  0.5108  0.2460  0.3127
13693TIP3    H262571   1.600   6.249   0.586  0.5936 -0.4616  0.5998
13694TIP3   OH262572   1.779   5.311  15.958  0.2004 -0.2035 -0.0750
13694TIP3    H162573   1.812   5.401  15.957 -1.0249  0.2628  0.1222
13694TIP3    H262574   1.857   5.257  15.972  0.9143  0.8426  0.0870
13695TIP3   OH262575   6.716   6.401   3.008  0.3659 -0.0535 -0.4709
13695TIP3    H162576   6.723   6.316   3.051  0.0516  0.8202  1.4173
13695TIP3    H262577   6.792   6.451   3.040 -0.1495  0.7888 -0.5262
13696TIP3   OH262578   6.272   1.091  15.432  0.1602 -0.1951 -0.1420
13696TIP3    H162579   6.332   1.162  15.457  1.0132 -0.6703 -0.7632
13696TIP3    H262580   6.295   1.018  15.490 -1.7511  0.4601  1.5563
13697TIP3   OH262581   1.394   2.154   1.884  0.3765 -0.2932 -0.3118
13697TIP3    H162582   1.353   2.180   1.967 -1.6804 -2.0634 -0.6733
13697TIP3    H262583   1.433   2.234   1.851  2.0636  0.3088  2.7551
13698TIP3   OH262584   1.064   6.602  16.777 -0.0177  0.4286 -0.4663
13698TIP3    H162585   0.976   6.627  16.805  0.4098  1.2074  0.2361
13698TIP3    H262586   1.051   6.525  16.721 -1.0565 -0.1658  0.5465
13699TIP3   OH262587   5.818   2.142   1.074  0.2505 -0.2557  0.7645
13699TIP3    H162588   5.798   2.232   1.101 -0.9206  0.7620 -2.8820
13699TIP3    H262589   5.913   2.136   1.082  0.3141  1.1674  1.4764
13700TIP3   OH262590   0.899   1.214  12.546  0.8441 -0.4273  0.7908
13700TIP3    H162591   0.825   1.201  12.487  2.4235  0.0361 -1.4166
13700TIP3    H262592   0.861   1.204  12.633 -2.3370  2.2272 -0.0570
13701TIP3   OH262593   6.554   6.556   6.013 -0.8047 -0.7930 -0.3822
13701TIP3    H162594   6.485   6.507   6.058 -1.6028  1.7057  1.3622
13701TIP3    H262595   6.586   6.618   6.079  0.6940  0.4793 -2.1823
13702TIP3   OH262596   1.788   1.270  15.149  0.2958  0.0096 -0.4106
13702TIP3    H162597   1.806   1.319  15.068 -1.1971  0.5572 -0.4396
13702TIP3    H262598   1.696   1.243  15.141  0.3145 -0.4853  0.8201
13703TIP3   OH262599   5.272   1.115   4.748  0.1245  0.2364 -0.2253
13703TIP3    H162600   5.333   1.168   4.800 -0.3449  0.0242  0.5586
13703TIP3    H262601   5.211   1.080   4.812 -0.8723  0.5117 -1.0075
13704TIP3   OH262602   3.796   2.750   3.369  0.0821 -0.3228 -0.1513
13704TIP3    H162603   3.749   2.807   3.431  0.7044 -0.0501  0.0868
13704TIP3    H262604   3.781   2.662   3.402 -0.7941 -0.2931 -0.4531
13705TIP3   OH262605   4.713   1.596   2.161  0.2668  0.5948 -0.3232
13705TIP3    H162606   4.788   1.595   2.221  0.6245  1.5100 -0.7459
13705TIP3    H262607   4.747   1.558   2.080 -1.0557 -3.9316  0.9303
13706TIP3   OH262608   0.256   4.057  12.125 -0.1515 -0.5509  0.0464
13706TIP3    H162609   0.191   4.081  12.191 -0.6332 -2.2948  0.2617
13706TIP3    H262610   0.269   4.137  12.074 -2.0971 -0.0029  0.3220
13707TIP3   OH262611   1.125   3.291   2.992 -0.1578  0.3317  0.0821
13707TIP3    H162612   1.153   3.344   3.066  0.3248  0.0877  0.0790
13707TIP3    H262613   1.199   3.294   2.931 -0.3469  0.1113 -0.1603
13708TIP3   OH262614   6.581   0.448   4.142  0.1976 -0.2062  0.0605
13708TIP3    H162615   6.536   0.442   4.058  0.1316 -0.0837  0.0862
13708TIP3    H262616   6.539   0.522   4.187  0.3928 -0.1170  0.1012
13709TIP3   OH262617   5.307   1.169  14.687  0.4811  0.3095 -0.3118
13709TIP3    H162618   5.372   1.107  14.653 -0.7730 -0.4930 -1.3292
13709TIP3    H262619   5.298   1.235  14.619 -0.1399  0.1422 -0.3917
13710TIP3   OH262620   3.125   1.528   2.013  0.3183 -0.6038 -0.0799
13710TIP3    H162621   3.089   1.446   1.979 -1.5965  0.5562 -0.9960
13710TIP3    H262622   3.184   1.558   1.943 -0.1772 -0.4323 -0.4264
13711TIP3   OH262623   3.985   4.079  13.299  0.1384  0.0701 -0.2012
13711TIP3    H162624   4.032   4.111  13.376  2.1527 -0.1404 -1.2848
13711TIP3    H262625   4.002   3.985  13.297  0.4159  0.1305 -1.0902
13712TIP3   OH262626   1.608   0.806   2.972  0.3220  0.2470 -0.2841
13712TIP3    H162627   1.561   0.840   2.896  0.0540  1.2396  0.2968
13712TIP3    H262628   1.587   0.868   3.042 -0.0124 -1.0347  0.7864
13713TIP3   OH262629   3.727   1.807   4.984 -0.0798 -0.2572 -0.1258
13713TIP3    H162630   3.660   1.859   5.027 -1.6035 -2.0095 -0.2349
13713TIP3    H262631   3.791   1.787   5.053 -1.1243 -0.8476  0.6922
13714TIP3   OH262632   0.232   5.335   5.979  0.0752 -0.5421 -0.2927
13714TIP3    H162633   0.315   5.338   5.931 -0.7027 -1.2945 -1.7606
13714TIP3    H262634   0.253   5.291   6.061  1.5501  1.2274  0.3344
13715TIP3   OH262635   6.324   6.571  12.233  0.3628  0.0024 -0.5150
13715TIP3    H162636   6.353   6.525  12.312 -1.5891 -1.8815 -0.7925
13715TIP3    H262637   6.255   6.515  12.197  0.4382  1.3474 -2.9744
13716TIP3   OH262638   3.016   4.798  15.190 -0.2339 -0.1524  0.1550
13716TIP3    H162639   2.981   4.802  15.101  1.2700 -0.4669 -0.4744
13716TIP3    H262640   3.057   4.712  15.197  1.4595  0.6187  0.4127
13717TIP3   OH262641   1.253   1.426   6.492  0.4753 -0.0443 -0.4896
13717TIP3    H162642   1.277   1.506   6.540  0.1841  0.0689 -0.5294
13717TIP3    H262643   1.158   1.433   6.482 -0.1315 -2.0158  2.5158
13718TIP3   OH262644   5.104   0.932  13.033 -0.5123  0.0475 -0.1881
13718TIP3    H162645   5.009   0.929  13.023 -0.4022 -0.3910 -1.2450
13718TIP3    H262646   5.129   0.840  13.045 -0.1320  0.0554 -0.8934
13719TIP3   OH262647   3.749   5.984  14.089  0.3342  0.9864  0.6936
13719TIP3    H162648   3.827   5.929  14.079 -0.0880  0.4261  0.4372
13719TIP3    H262649   3.769   6.039  14.165  0.2678 -0.3797  1.7536
13720TIP3   OH262650   4.758   1.068  11.169 -0.1630 -0.2794 -0.2519
13720TIP3    H162651   4.767   1.139  11.232 -1.5597 -0.7896  0.5747
13720TIP3    H262652   4.831   1.080  11.108  1.1254  0.3211  1.3484
13721TIP3   OH262653   6.173   3.748  16.950  0.2444 -0.1812 -0.0637
13721TIP3    H162654   6.181   3.762  16.856 -0.6651 -1.2454 -0.3159
13721TIP3    H262655   6.223   3.820  16.989 -0.7381  1.2534 -1.3299
13722TIP3   OH262656   2.054   5.219   2.254  0.0434 -0.0720 -0.3109
13722TIP3    H162657   2.040   5.191   2.163 -0.4839 -0.0052 -0.2564
13722TIP3    H262658   2.034   5.142   2.306  0.2481 -0.0814 -0.2470
13723TIP3   OH262659   5.921   5.338  13.433  0.2816 -0.4364  0.3933
13723TIP3    H162660   5.943   5.278  13.504  0.7636 -0.8257 -0.0739
13723TIP3    H262661   6.000   5.392  13.423  0.5119 -0.9029 -0.3592
13724TIP3   OH262662   1.310   5.075  10.215  0.1179  0.3180  0.5379
13724TIP3    H162663   1.233   5.107  10.167  0.6610  0.8731  0.0207
13724TIP3    H262664   1.316   4.982  10.191  0.0830  0.4673 -0.0636
13725TIP3   OH262665   4.746   5.214  15.198 -0.5189 -0.6977 -0.5354
13725TIP3    H162666   4.663   5.235  15.157 -0.6394  0.4267  0.2373
13725TIP3    H262667   4.747   5.119  15.203 -2.9590 -0.7027  1.7849
13726TIP3   OH262668   0.341   5.319  13.210 -0.6438 -1.0428  0.0570
13726TIP3    H162669   0.335   5.224  13.220  0.4819 -1.1932 -0.5114
13726TIP3    H262670   0.250   5.349  13.211 -1.0783 -2.2508 -0.9576
13727TIP3   OH262671   1.630   6.308  11.115 -0.0393 -0.2337 -0.4804
13727TIP3    H162672   1.586   6.297  11.200 -1.0334  0.4261 -0.8913
13727TIP3    H262673   1.566   6.355  11.061  0.6070 -0.5908 -1.5799
13728TIP3   OH262674   2.782   6.108   0.221  0.1154  0.2611  0.4395
13728TIP3    H162675   2.809   6.059   0.143  0.5864  0.9962  0.1346
13728TIP3    H262676   2.699   6.068   0.246  0.8811 -1.2747  0.7010
13729TIP3   OH262677   4.536   3.209  12.637 -0.4387 -0.3719  0.2782
13729TIP3    H162678   4.604   3.184  12.573  1.3972  2.0913  1.1110
13729TIP3    H262679   4.581   3.207  12.721 -1.4092  1.3240  0.8660
13730TIP3   OH262680   2.422   0.338   6.269  0.1252  0.2244  0.3241
13730TIP3    H162681   2.384   0.279   6.334  2.1022 -0.2652  1.1109
13730TIP3    H262682   2.351   0.396   6.244 -1.6071 -1.7862  0.3518
13731TIP3   OH262683   4.180   4.145   3.440 -0.5058  0.2379 -0.2475
13731TIP3    H162684   4.251   4.084   3.419  0.8477  1.2476  1.1651
13731TIP3    H262685   4.115   4.091   3.484 -0.2539 -0.5659 -0.8399
13732TIP3   OH262686   6.808   1.222  12.650 -0.5287  0.3714 -0.4012
13732TIP3    H162687   6.802   1.156  12.719  1.2411 -2.0148 -2.3484
13732TIP3    H262688   6.747   1.192  12.583 -0.2758  1.1547 -0.9898
13733TIP3   OH262689   4.329   5.697  16.119 -0.7882 -0.9430 -0.6964
13733TIP3    H162690   4.300   5.613  16.084 -1.0199 -1.8621  1.5392
13733TIP3    H262691   4.327   5.756  16.044 -1.2943 -2.7460 -2.1829
13734TIP3   OH262692   2.501   1.496   3.074 -0.1778 -0.2733 -0.1501
13734TIP3    H162693   2.527   1.410   3.042 -2.1839 -1.4263  1.1045
13734TIP3    H262694   2.447   1.533   3.004  0.2064 -0.2833 -0.4526
13735TIP3   OH262695   5.336   0.476  16.179  0.0303 -0.2170  0.0809
13735TIP3    H162696   5.361   0.508  16.093 -0.9485 -0.6419 -0.3829
13735TIP3    H262697   5.362   0.545  16.240 -0.0835  0.4900 -0.6569
13736TIP3   OH262698   1.176   4.787   1.038 -0.5236 -0.3046  0.4240
13736TIP3    H162699   1.116   4.842   1.088  0.0413 -0.0483  0.8237
13736TIP3    H262700   1.131   4.702   1.033 -2.0204  0.5035 -1.3329
13737TIP3   OH262701   3.003   3.555   4.759  0.3702  0.0879  0.3599
13737TIP3    H162702   2.917   3.529   4.727  0.1250  0.4429  0.7262
13737TIP3    H262703   3.003   3.650   4.753  0.6431  0.1048  0.5962
13738TIP3   OH262704   1.099   3.079   1.460  0.5800  0.2169  0.3006
13738TIP3    H162705   1.040   3.018   1.416  1.1801 -0.5093  0.4749
13738TIP3    H262706   1.184   3.064   1.418  0.6681  1.1854  0.1084
13739TIP3   OH262707   1.533   3.827  12.815  0.2813  0.1707  0.3153
13739TIP3    H162708   1.538   3.733  12.832 -1.5042 -0.0388 -0.1321
13739TIP3    H262709   1.559   3.868  12.897  2.1680 -0.6688  0.1892
13740TIP3   OH262710   1.260   4.494   4.516  0.6706 -0.2394  0.2752
13740TIP3    H162711   1.193   4.556   4.544 -0.5820 -0.7838 -1.3471
13740TIP3    H262712   1.317   4.545   4.459 -1.2286 -0.7580 -2.3159
13741TIP3   OH262713   2.938   0.613   6.348  0.3994 -0.3799  0.1183
13741TIP3    H162714   2.913   0.530   6.308  0.8228 -1.7027  2.3842
13741TIP3    H262715   3.023   0.634   6.309 -0.1678 -0.4575 -1.2080
13742TIP3   OH262716   2.878   0.357  10.680  0.0518  0.0024 -0.1138
13742TIP3    H162717   2.862   0.318  10.594  0.2969 -1.0137  0.2936
13742TIP3    H262718   2.959   0.317  10.710 -0.0239  0.3632  0.5850
13743TIP3   OH262719   4.042   4.466   0.522 -0.3541  0.3807  0.2091
13743TIP3    H162720   4.114   4.518   0.559 -0.4193  0.1358  0.6856
13743TIP3    H262721   4.085   4.406   0.462 -0.2195  0.6119  0.0702
13744TIP3   OH262722   2.838   0.422  14.647  0.1653 -0.3473 -0.1647
13744TIP3    H162723   2.777   0.496  14.647  1.2982  0.6263  0.9738
13744TIP3    H262724   2.788   0.350  14.687 -0.3251  0.3733  0.5605
13745TIP3   OH262725   2.345   2.436   5.602 -1.2240 -0.4825  0.7474
13745TIP3    H162726   2.328   2.528   5.581 -2.8472 -0.7562  0.7108
13745TIP3    H262727   2.388   2.401   5.524 -1.2771  0.0564  0.4686
13746TIP3   OH262728   2.296   3.296   1.955  0.2257 -0.3335 -0.1768
13746TIP3    H162729   2.250   3.339   1.882 -0.2985  1.1254  0.9679
13746TIP3    H262730   2.384   3.333   1.953  0.0331  0.1598  0.2805
13747TIP3   OH262731   2.640   4.643  15.902  0.0908  0.7311  0.2406
13747TIP3    H162732   2.612   4.735  15.909  0.8369  1.3611 -3.2703
13747TIP3    H262733   2.720   4.639  15.954  1.3340  2.7823 -1.3280
13748TIP3   OH262734   6.756   5.559  12.450 -0.8141 -0.0985  0.1613
13748TIP3    H162735   6.769   5.644  12.409 -1.0317 -0.6176 -1.0332
13748TIP3    H262736   6.669   5.531  12.422 -1.3251 -0.1363  1.6581
13749TIP3   OH262737   5.266   2.484  11.584  0.1880 -0.2600 -0.0029
13749TIP3    H162738   5.206   2.411  11.603 -2.4560  1.4283 -1.2420
13749TIP3    H262739   5.338   2.444  11.535 -0.6687 -2.1682  0.1999
13750TIP3   OH262740   2.413   5.757  15.428  0.3611 -0.2404  0.1245
13750TIP3    H162741   2.485   5.733  15.370 -2.0469 -2.8321 -2.1360
13750TIP3    H262742   2.413   5.853  15.428  2.8961 -0.1613 -0.8686
13751TIP3   OH262743   4.962   0.049   3.895 -0.1159  0.0806 -0.0876
13751TIP3    H162744   5.016   0.091   3.828 -0.8589 -1.4797 -1.7486
13751TIP3    H262745   4.955   0.114   3.964  1.1102  1.5728 -1.2883
13752TIP3   OH262746   4.483   0.143   2.230 -0.4161  0.4360  0.2065
13752TIP3    H162747   4.499   0.049   2.218 -1.4342  0.4440 -1.5148
13752TIP3    H262748   4.465   0.152   2.324  0.9004 -0.8775  0.6287
13753TIP3   OH262749   0.411   4.909  11.149 -0.0861 -0.3808  0.3675
13753TIP3    H162750   0.397   4.837  11.211  0.5184  0.2363  1.2513
13753TIP3    H262751   0.461   4.973  11.199 -0.9245  0.8104 -0.2943
13754TIP3   OH262752   1.790   6.356  16.405 -0.1584  0.0782  0.3612
13754TIP3    H162753   1.850   6.402  16.464  1.1851 -0.1701 -0.7595
13754TIP3    H262754   1.703   6.375  16.441  0.4172  2.3042  0.7716
13755TIP3   OH262755   0.152   5.964   5.097 -0.4277 -0.3313  0.3332
13755TIP3    H162756   0.175   6.046   5.052  2.1951 -0.3047  1.5640
13755TIP3    H262757   0.135   5.991   5.187  0.9879 -1.1448  0.8780
13756TIP3   OH262758   1.628   3.525   2.772 -0.2925 -0.1512 -0.3470
13756TIP3    H162759   1.707   3.472   2.782 -0.8715 -0.9218  0.2563
13756TIP3    H262760   1.628   3.583   2.849 -1.4868 -1.7609  0.9579
13757TIP3   OH262761   6.470   5.390   4.980 -0.4756  0.3919  0.0243
13757TIP3    H162762   6.462   5.474   5.025 -1.1011  1.0742 -1.3319
13757TIP3    H262763   6.537   5.405   4.913 -0.8168 -0.0903 -0.4340
13758TIP3   OH262764   3.192   2.055   3.579 -0.9648  0.2600  0.2362
13758TIP3    H162765   3.204   2.143   3.545  1.2263 -0.6659 -1.6812
13758TIP3    H262766   3.191   1.999   3.501  2.7752 -1.8612  1.4494
13759TIP3   OH262767   1.468   4.498   4.327  0.4464  0.4506  0.1565
13759TIP3    H162768   1.402   4.490   4.258  0.5247  0.6817  0.0549
13759TIP3    H262769   1.525   4.422   4.313  0.4076  0.4437  0.0267
13760TIP3   OH262770   5.200   4.816  13.508 -0.2547 -0.0200 -0.1230
13760TIP3    H162771   5.263   4.884  13.535  0.3621 -0.5395 -0.2288
13760TIP3    H262772   5.155   4.854  13.433 -0.0170  0.3288 -0.0933
13761TIP3   OH262773   3.960   3.201   5.742 -0.6247 -0.4612 -0.1607
13761TIP3    H162774   3.958   3.290   5.708  0.6502 -0.1363  0.5575
13761TIP3    H262775   3.975   3.211   5.836  0.4748 -1.4409 -0.2087
13762TIP3   OH262776   2.398   3.626  11.436 -0.3282 -0.2441 -0.0503
13762TIP3    H162777   2.373   3.606  11.526  0.8767  2.0381  0.8631
13762TIP3    H262778   2.493   3.638  11.439 -0.3974  0.9130 -1.3859
13763TIP3   OH262779   0.751   1.621   4.479 -0.0766  0.1019  0.2717
13763TIP3    H162780   0.704   1.668   4.410  2.0781  0.9054 -0.7339
13763TIP3    H262781   0.754   1.530   4.448  2.0703  0.6923 -1.4836
13764TIP3   OH262782   4.904   3.066  11.322 -0.1546 -0.7214  0.3553
13764TIP3    H162783   4.856   3.024  11.251 -0.7412 -0.0391  0.3434
13764TIP3    H262784   4.989   3.021  11.323 -0.5922 -1.5728  0.0364
13765TIP3   OH262785   5.675   0.000  12.828 -0.6806  0.0147 -0.0222
13765TIP3    H162786   5.672   0.079  12.882 -0.8468  1.1284 -1.6138
13765TIP3    H262787   5.702   0.030  12.742  1.1343 -1.9462 -0.2213
13766TIP3   OH262788   3.264   4.488   5.214 -0.0733  0.5553 -0.4376
13766TIP3    H162789   3.169   4.490   5.203 -0.5741  0.3124  2.8789
13766TIP3    H262790   3.293   4.416   5.157 -1.7216  1.1652 -2.1264
13767TIP3   OH262791   3.732   3.483   0.577 -0.1058 -0.3790 -0.2034
13767TIP3    H162792   3.732   3.418   0.506 -0.0739  0.0441 -0.5987
13767TIP3    H262793   3.820   3.520   0.575  0.1680 -0.9487  0.6155
13768TIP3   OH262794   0.551   3.184   5.582 -0.0706 -0.6572 -0.0942
13768TIP3    H162795   0.570   3.267   5.626  0.3947  0.0265 -1.5027
13768TIP3    H262796   0.584   3.197   5.493 -0.7551 -2.0630 -0.5762
13769TIP3   OH262797   0.612   2.865   0.539 -0.0255  0.3660 -0.2675
13769TIP3    H162798   0.582   2.776   0.559  1.6143 -0.0550  0.5762
13769TIP3    H262799   0.559   2.922   0.594 -1.0630 -0.0791 -0.7830
13770TIP3   OH262800   5.790   4.400   5.553 -0.0758  0.5312  0.0310
13770TIP3    H162801   5.769   4.307   5.541  2.7142 -0.0552 -1.0164
13770TIP3    H262802   5.705   4.445   5.546 -1.3654 -1.8219 -0.5081
13771TIP3   OH262803   0.088   6.009  12.546 -0.7221  0.4887 -0.1696
13771TIP3    H162804   0.095   5.931  12.491  1.2136  1.4128 -1.3528
13771TIP3    H262805  -0.006   6.028  12.549 -1.0797 -0.9446 -1.1972
13772TIP3   OH262806   1.790   1.841  14.626  0.2495  0.2494 -0.2164
13772TIP3    H162807   1.754   1.763  14.582  1.6510 -0.6408  0.1516
13772TIP3    H262808   1.873   1.811  14.664 -0.4121  1.2353  2.2019
13773TIP3   OH262809   3.198   6.444  11.825 -0.1987 -0.2210 -0.0089
13773TIP3    H162810   3.282   6.482  11.848  0.0863 -1.5483  1.2552
13773TIP3    H262811   3.211   6.408  11.737  0.4659 -0.1736  0.0671
13774TIP3   OH262812   1.297   3.355  16.176  0.4018 -0.0460 -0.1246
13774TIP3    H162813   1.282   3.351  16.081 -1.8434 -1.5145  0.2347
13774TIP3    H262814   1.323   3.446  16.192 -1.0756  0.7453 -1.9005
13775TIP3   OH262815   1.512   5.069   4.518 -0.4397  0.3128 -0.0528
13775TIP3    H162816   1.563   5.146   4.546  0.5894  0.2797 -1.6838
13775TIP3    H262817   1.438   5.106   4.470 -2.6516  0.4046  3.1076
13776TIP3   OH262818   5.147   6.167   1.287  0.0431  0.7292  0.0952
13776TIP3    H162819   5.117   6.076   1.281 -1.2279  1.0838  0.8013
13776TIP3    H262820   5.234   6.160   1.326 -0.7314 -0.1079  1.7700
13777TIP3   OH262821   0.675   6.283   5.844  0.1958  0.3724  0.1094
13777TIP3    H162822   0.759   6.292   5.800  1.1655  0.8615  1.9584
13777TIP3    H262823   0.667   6.189   5.862  0.4900  0.3593  0.1762
13778TIP3   OH262824   3.402   3.789  13.352 -0.0670 -0.2535  0.1918
13778TIP3    H162825   3.492   3.757  13.360  0.2105  0.6783  0.8791
13778TIP3    H262826   3.405   3.877  13.387 -1.4101 -0.4711  0.8735
13779TIP3   OH262827   5.151   6.755  14.492 -0.6092  0.4202 -0.1991
13779TIP3    H162828   5.105   6.810  14.556  1.0337  1.5163  0.1039
13779TIP3    H262829   5.118   6.785  14.407 -0.3048  1.3371 -0.0007
13780TIP3   OH262830   5.860   0.460  15.192 -0.3003 -0.4420 -0.1189
13780TIP3    H162831   5.840   0.444  15.100 -0.4004  1.0832 -0.3833
13780TIP3    H262832   5.780   0.500  15.227  0.1915  0.1852  0.2987
13781TIP3   OH262833   5.553   0.045  12.150 -0.2158 -0.2101 -0.4990
13781TIP3    H162834   5.603  -0.037  12.154  0.1074 -0.1221 -2.0313
13781TIP3    H262835   5.538   0.059  12.057 -2.2411  0.3147 -0.1398
13782TIP3   OH262836   4.201   2.139   4.806 -0.3725 -0.3444 -0.1179
13782TIP3    H162837   4.213   2.205   4.738 -0.1687 -0.8817 -0.6152
13782TIP3    H262838   4.256   2.169   4.879  0.5508 -0.5080 -0.7350
13783TIP3   OH262839   0.120   0.320  15.836 -0.2173 -0.0982  0.1296
13783TIP3    H162840   0.167   0.354  15.759 -1.5836  0.6680 -0.4008
13783TIP3    H262841   0.030   0.349  15.824 -0.7693 -1.2057  1.3096
13784TIP3   OH262842   2.014   0.248   4.419  0.8382  0.9059  0.1354
13784TIP3    H162843   2.044   0.263   4.508  0.1394  2.6456  0.1165
13784TIP3    H262844   1.961   0.168   4.424  1.3687  0.6086  1.1284
13785TIP3   OH262845   3.722   1.908  13.365  0.3013 -0.5505  0.0071
13785TIP3    H162846   3.772   1.901  13.284 -1.1093  0.1208 -0.9524
13785TIP3    H262847   3.631   1.908  13.338 -0.2010  0.3108  1.5383
13786TIP3   OH262848   2.742   3.490  14.062 -0.2578  0.1161  0.0298
13786TIP3    H162849   2.718   3.582  14.079 -1.1257  0.5388 -3.0100
13786TIP3    H262850   2.674   3.458  14.003  1.4761 -1.6894 -1.0869
13787TIP3   OH262851   2.379   0.134   3.791  0.2443  0.0666  0.0057
13787TIP3    H162852   2.334   0.071   3.847  0.9499 -0.1491  0.3353
13787TIP3    H262853   2.316   0.151   3.720 -0.3804 -0.1794  0.4861
13788TIP3   OH262854   4.398   6.209   2.003  0.0808 -0.3105  0.2199
13788TIP3    H162855   4.474   6.261   2.027  0.9797 -1.1764 -0.6608
13788TIP3    H262856   4.352   6.262   1.938 -0.0660  0.2053  0.7368
13789TIP3   OH262857   1.413   2.175  10.804  0.6671  0.0915 -0.2659
13789TIP3    H162858   1.468   2.235  10.854  0.2577 -1.1476  1.7663
13789TIP3    H262859   1.325   2.210  10.813  0.7456  0.5805 -1.2583
13790TIP3   OH262860   3.774   5.831  12.358 -0.0776  0.1214  0.1977
13790TIP3    H162861   3.868   5.840  12.340 -0.4727  1.3888 -1.3890
13790TIP3    H262862   3.744   5.920  12.376 -0.8869 -0.3513  1.3126
13791TIP3   OH262863   2.246   0.421   3.268  0.2906  0.3022 -0.1988
13791TIP3    H162864   2.265   0.328   3.283  0.8085  0.3325 -0.6505
13791TIP3    H262865   2.318   0.452   3.214 -0.0296  0.9034 -0.2896
13792TIP3   OH262866   1.833   3.836  16.066  0.3789 -0.3604 -0.4069
13792TIP3    H162867   1.829   3.741  16.049  1.3101 -0.2651 -1.2444
13792TIP3    H262868   1.833   3.875  15.979 -1.7202  0.5205 -0.0707
13793TIP3   OH262869   2.945   0.891   3.126 -0.3803 -0.1125  0.4195
13793TIP3    H162870   2.909   0.804   3.108 -0.9651  0.2303 -0.1206
13793TIP3    H262871   3.038   0.883   3.107 -0.3819 -0.6861  0.6234
13794TIP3   OH262872   6.574   2.651   1.613  0.3956 -0.1401  0.0994
13794TIP3    H162873   6.537   2.623   1.697  1.9716 -1.5672  0.3849
13794TIP3    H262874   6.524   2.602   1.547 -1.2013  1.3801  0.1186
13795TIP3   OH262875   4.918   6.485  11.828 -0.1240 -0.1330 -0.5274
13795TIP3    H162876   4.951   6.457  11.914  1.2484  0.2790 -0.8894
13795TIP3    H262877   4.891   6.576  11.841  0.1350 -0.0529 -0.5376
13796TIP3   OH262878   3.205   5.787  15.720  1.0285 -0.1678  0.1335
13796TIP3    H162879   3.162   5.871  15.737  2.0390  1.0147 -2.5231
13796TIP3    H262880   3.137   5.721  15.735 -0.0165  1.1560  1.4937
13797TIP3   OH262881   3.761   4.223   0.325  0.7168  0.4194  0.0425
13797TIP3    H162882   3.795   4.297   0.276  1.2615 -0.5281 -1.0692
13797TIP3    H262883   3.839   4.182   0.363  0.4288  0.3783  0.5988
13798TIP3   OH262884   1.689   0.534   0.673 -0.6545  0.1804  0.3056
13798TIP3    H162885   1.677   0.443   0.646 -0.2973 -0.2997  1.6566
13798TIP3    H262886   1.780   0.554   0.650 -0.8004  0.2834 -0.1998
13799TIP3   OH262887   4.953   1.761   5.719 -0.0971 -0.4302  0.6300
13799TIP3    H162888   4.911   1.677   5.698 -1.4558  0.3966 -0.1261
13799TIP3    H262889   4.925   1.780   5.808 -0.1603 -0.5641  0.6394
13800TIP3   OH262890   5.393   1.768  16.608 -0.1691  0.1275  0.0568
13800TIP3    H162891   5.307   1.778  16.567  0.2808  0.6787 -0.7640
13800TIP3    H262892   5.427   1.685  16.573  0.0865  0.4477 -0.4649
13801TIP3   OH262893   3.542   4.916  14.267 -0.3751 -0.0595  0.0735
13801TIP3    H162894   3.457   4.932  14.309  0.5950 -1.1199  2.6166
13801TIP3    H262895   3.528   4.836  14.216 -1.0677  0.1553 -0.0920
13802TIP3   OH262896   6.420   3.327  11.357 -0.4880  0.1776 -0.0813
13802TIP3    H162897   6.461   3.338  11.271 -0.3022  2.7061  0.2676
13802TIP3    H262898   6.491   3.345  11.419  0.3045 -4.6689  0.8576
13803TIP3   OH262899   4.941   6.209  13.686 -0.1422  0.2294 -0.1315
13803TIP3    H162900   5.000   6.240  13.754 -0.2215 -0.0024  0.0462
13803TIP3    H262901   4.997   6.197  13.609 -0.3676  2.2429 -0.6626
13804TIP3   OH262902   6.472   6.306   0.149  0.3447  0.5361  0.4639
13804TIP3    H162903   6.406   6.278   0.212 -0.9165  0.5281 -0.8162
13804TIP3    H262904   6.424   6.316   0.066  2.2326 -1.1348 -0.9308
13805TIP3   OH262905   6.220   0.319   3.146 -0.4951  0.0302 -0.7422
13805TIP3    H162906   6.197   0.282   3.231 -0.8356 -1.1130 -1.3155
13805TIP3    H262907   6.240   0.411   3.165 -2.9653  0.4368  0.1883
13806TIP3   OH262908   3.525   2.921   0.866 -0.3184  0.1971 -0.7019
13806TIP3    H162909   3.567   2.855   0.810  0.3092  0.0537 -0.0703
13806TIP3    H262910   3.496   2.873   0.943 -1.1843  0.3957 -0.8938
13807TIP3   OH262911   1.722   6.125   4.931  0.2253 -0.0781  0.3641
13807TIP3    H162912   1.814   6.104   4.948  0.6085  1.4981  0.3561
13807TIP3    H262913   1.725   6.195   4.866 -1.0567 -1.2293 -1.0047
13808TIP3   OH262914   5.272   6.564  13.704  0.0921 -0.3358  0.5459
13808TIP3    H162915   5.351   6.525  13.669  0.3404 -1.0714  1.8413
13808TIP3    H262916   5.297   6.654  13.727 -0.1205  0.2157 -1.2089
13809TIP3   OH262917   4.542   1.544   4.276 -0.2040  0.0132 -0.0431
13809TIP3    H162918   4.497   1.460   4.272 -0.0120 -0.0282 -2.3155
13809TIP3    H262919   4.593   1.540   4.357 -2.3623 -0.8979  1.3499
13810TIP3   OH262920   1.747   3.483  15.702  0.2849  0.2893  0.0673
13810TIP3    H162921   1.725   3.439  15.784  1.2775  0.3855  0.3997
13810TIP3    H262922   1.713   3.572  15.713 -2.1125 -0.4329 -0.7743
13811TIP3   OH262923   1.594   4.819   2.445  0.7822  0.2281  0.4248
13811TIP3    H162924   1.601   4.867   2.363  0.0663 -1.2926 -0.5825
13811TIP3    H262925   1.679   4.774   2.453  0.4333 -0.5628 -0.1362
13812TIP3   OH262926   6.501   0.423  15.211 -0.4232  0.2155 -0.3177
13812TIP3    H162927   6.429   0.460  15.160 -1.5949 -1.7776 -0.1986
13812TIP3    H262928   6.468   0.422  15.301 -0.0504 -0.2625 -0.1880
13813TIP3   OH262929   6.562   3.591  17.002 -0.4519 -0.3846  0.0847
13813TIP3    H162930   6.481   3.540  16.995 -0.5829 -0.0379 -1.1760
13813TIP3    H262931   6.556   3.633  17.088 -1.1411 -1.1404  0.4274
13814TIP3   OH262932   3.202   1.744   3.673 -0.1828 -0.2523  0.3136
13814TIP3    H162933   3.214   1.784   3.587 -1.7685  0.5965  0.4546
13814TIP3    H262934   3.291   1.735   3.708  0.4555 -0.2115 -1.2205
13815TIP3   OH262935   3.062   2.635   1.429 -0.2024 -0.1483 -0.4255
13815TIP3    H162936   3.134   2.650   1.490  0.1102 -0.4995 -0.7140
13815TIP3    H262937   3.052   2.719   1.383  0.7268 -0.4280 -1.1469
13816TIP3   OH262938   1.676   3.003  14.318  0.2291 -0.2700 -0.2102
13816TIP3    H162939   1.646   2.948  14.245 -1.2657  0.5002 -0.2147
13816TIP3    H262940   1.770   2.985  14.324  0.4231 -0.2905 -2.3861
13817TIP3   OH262941   0.505   5.011   2.126 -0.5053 -0.2602  0.2696
13817TIP3    H162942   0.491   5.055   2.042 -1.0983  1.9934  1.4472
13817TIP3    H262943   0.420   4.971   2.146 -0.3115 -0.9530 -0.2661
13818TIP3   OH262944   0.393   1.969  14.190 -0.1630  0.5037 -0.3820
13818TIP3    H162945   0.450   1.894  14.206  1.2527  1.6709  0.1918
13818TIP3    H262946   0.446   2.045  14.210 -1.3475  1.7170 -1.6165
13819TIP3   OH262947   4.695   6.687  16.506  0.0270 -0.7073  0.8186
13819TIP3    H162948   4.718   6.685  16.413  0.3451  0.5433  0.8458
13819TIP3    H262949   4.778   6.681  16.552  0.0386  0.4238  0.9752
13820TIP3   OH262950   5.545   6.219   1.160  0.7161 -0.2157  1.2544
13820TIP3    H162951   5.496   6.206   1.079 -1.2889 -1.4619  2.5813
13820TIP3    H262952   5.564   6.313   1.162  3.8690 -0.5540 -2.2218
13821TIP3   OH262953   3.951   0.051  13.331  0.5420  0.2036  0.0658
13821TIP3    H162954   3.921  -0.026  13.282  2.0460 -0.3613 -0.0323
13821TIP3    H262955   3.968   0.018  13.419  1.0799  0.4465  0.0559
13822TIP3   OH262956   0.615   5.522   5.929  0.4240  0.3227 -0.0031
13822TIP3    H162957   0.571   5.438   5.913  1.9400 -0.0888 -2.6439
13822TIP3    H262958   0.678   5.503   5.998  0.4097 -0.5942 -0.2275
13823TIP3   OH262959   2.890   4.508  11.364  0.3116  0.1798  0.9006
13823TIP3    H162960   2.940   4.441  11.409 -0.7348 -0.7595  0.7260
13823TIP3    H262961   2.841   4.460  11.297 -1.3795  0.9184  1.5390
13824TIP3   OH262962   1.726   1.546  12.438 -0.2196  0.4285  0.1555
13824TIP3    H162963   1.817   1.517  12.427  0.0525  0.8513  1.1653
13824TIP3    H262964   1.676   1.465  12.447  0.1672  0.2102  0.3564
13825TIP3   OH262965   6.550   1.661  13.498 -0.1819 -0.2152  0.3370
13825TIP3    H162966   6.551   1.637  13.590 -0.5789  0.6591  0.5814
13825TIP3    H262967   6.617   1.729  13.491 -0.8174  0.4091  0.1873
13826TIP3   OH262968   3.223   3.462  15.355  0.7913 -0.2248 -0.4432
13826TIP3    H162969   3.306   3.416  15.362  1.5444  1.0975 -0.3687
13826TIP3    H262970   3.157   3.393  15.357  1.8579 -1.2630 -0.0130
13827TIP3   OH262971   2.477   2.706  14.091 -0.0240 -0.5018 -0.2326
13827TIP3    H162972   2.547   2.644  14.073  0.2044 -0.4196  0.3474
13827TIP3    H262973   2.469   2.758  14.011  1.4811  0.3543  0.1363
13828TIP3   OH262974   6.401   0.777  15.235  0.3026 -0.1603 -0.3640
13828TIP3    H162975   6.406   0.867  15.203 -0.0371  0.9284  2.3847
13828TIP3    H262976   6.491   0.753  15.257  0.1568  0.2856  0.7787
13829TIP3   OH262977   1.795   5.378   0.241  0.3544 -0.2782  0.4865
13829TIP3    H162978   1.831   5.429   0.314  0.5525  1.1468 -0.5764
13829TIP3    H262979   1.701   5.395   0.244 -0.0768 -2.5062  2.1085
13830TIP3   OH262980   3.600   3.898  11.323 -0.4333 -0.1117  0.2783
13830TIP3    H162981   3.563   3.972  11.371  1.6875  1.0259  0.2423
13830TIP3    H262982   3.555   3.900  11.238 -1.3151  0.3216  0.7407
13831TIP3   OH262983   0.859   0.687  16.596  0.1978  0.1806 -0.1637
13831TIP3    H162984   0.953   0.700  16.582  0.1017 -1.0820 -2.4315
13831TIP3    H262985   0.818   0.719  16.515 -1.0498 -1.8635 -0.4190
13832TIP3   OH262986   0.673   2.654  16.007  0.3503 -0.9071  0.3549
13832TIP3    H162987   0.720   2.612  16.079 -0.8476 -1.9255  0.5898
13832TIP3    H262988   0.738   2.709  15.964  1.3951 -1.2302  1.4694
13833TIP3   OH262989   4.800   2.908  13.884 -0.4267 -0.0232 -0.3360
13833TIP3    H162990   4.893   2.924  13.902 -0.3591 -0.9907  0.2246
13833TIP3    H262991   4.764   2.995  13.866 -0.0861  0.8073  2.5762
13834TIP3   OH262992   6.443   4.061  12.293 -0.0265 -0.4585 -0.2368
13834TIP3    H162993   6.479   4.125  12.232 -0.9320  0.1743 -0.1220
13834TIP3    H262994   6.487   4.078  12.376  0.6035 -0.7789 -0.4984
13835TIP3   OH262995   0.137   2.928   5.574  0.4940 -0.2927  0.1255
13835TIP3    H162996   0.230   2.922   5.596  0.9989 -0.4404 -1.8604
13835TIP3    H262997   0.102   2.842   5.595  1.0338 -0.5514 -0.0107
13836TIP3   OH262998   6.356   4.981  16.732 -0.0627 -0.0157 -0.4372
13836TIP3    H162999   6.382   4.915  16.668  1.2464 -1.4254  1.4074
13836TIP3    H263000   6.273   5.015  16.699  0.7469 -0.3301 -3.0608
13837TIP3   OH263001   2.856   3.496   1.671  0.0553  0.4137 -0.6824
13837TIP3    H163002   2.928   3.433   1.657  0.2155  0.8999 -2.1849
13837TIP3    H263003   2.825   3.477   1.760  2.2657  0.4218  0.1521
13838TIP3   OH263004   2.986   1.533  16.175  0.3899  0.0262 -0.2234
13838TIP3    H163005   2.999   1.482  16.254  1.4955 -0.1672 -0.5104
13838TIP3    H263006   3.062   1.592  16.172 -0.4946  1.1951 -0.2689
13839TIP3   OH263007   5.069   0.572   4.806 -0.6554  0.2740 -0.1347
13839TIP3    H163008   5.018   0.646   4.774 -0.4419  0.0996 -0.8988
13839TIP3    H263009   5.007   0.520   4.857 -0.6066  1.4036  1.1283
13840TIP3   OH263010   6.327   3.132   3.503  0.3001  0.1507  0.1613
13840TIP3    H163011   6.414   3.097   3.484  0.6855  1.2377 -0.1195
13840TIP3    H263012   6.315   3.119   3.597  0.1963 -1.2267 -0.0146
13841TIP3   OH263013   5.091   6.393  13.848 -0.0883  0.0425  0.4314
13841TIP3    H163014   5.143   6.443  13.785 -0.5967 -0.3608 -0.3329
13841TIP3    H263015   5.054   6.460  13.906  0.4114  0.4201  0.3266
13842TIP3   OH263016   4.517   4.483   2.318 -0.5524 -0.5605 -0.3595
13842TIP3    H163017   4.510   4.479   2.414  3.0200 -0.6490  0.0179
13842TIP3    H263018   4.426   4.474   2.288 -1.8234 -0.5462  2.9799
13843TIP3   OH263019   2.788   4.409   6.654 -0.4849  0.3416 -0.1386
13843TIP3    H163020   2.838   4.486   6.629 -0.3023  0.0735 -0.6081
13843TIP3    H263021   2.744   4.382   6.573  3.2531 -2.9466 -1.3923
13844TIP3   OH263022   5.382   1.170  15.732  0.5050  0.0582 -0.4101
13844TIP3    H163023   5.432   1.201  15.808  0.0310  0.7144 -0.3599
13844TIP3    H263024   5.312   1.234  15.722  0.4252 -0.1585 -1.2616
13845TIP3   OH263025   2.977   0.247   4.363  0.2105  0.1992  0.1569
13845TIP3    H163026   3.059   0.215   4.324  0.6074  0.6493  0.6052
13845TIP3    H263027   3.000   0.333   4.398 -0.1517 -0.1801  1.3508
13846TIP3   OH263028   3.730   3.019   0.543 -0.1255 -0.5664 -0.2570
13846TIP3    H163029   3.718   3.077   0.618  0.2881 -1.1634  0.2695
13846TIP3    H263030   3.641   3.000   0.513 -0.2871 -0.2244 -0.0033
13847TIP3   OH263031   5.947   3.615   3.855 -0.9803  0.2641 -0.5427
13847TIP3    H163032   6.014   3.603   3.787  0.0885 -1.3426  0.7349
13847TIP3    H263033   5.864   3.604   3.809 -0.4195  1.9975 -2.1034
13848TIP3   OH263034   4.694   5.676  12.367 -0.2056  0.2396  0.3191
13848TIP3    H163035   4.690   5.731  12.446  0.1955  1.5802 -0.5567
13848TIP3    H263036   4.653   5.594  12.393 -0.0776  0.6456  1.9274
13849TIP3   OH263037   4.972   2.975  15.096  0.1350 -0.2768 -0.3212
13849TIP3    H163038   4.898   2.976  15.035  0.1184 -1.6177 -0.3535
13849TIP3    H263039   5.027   2.903  15.066  0.2193 -0.8635  1.1358
13850TIP3   OH263040   4.759   0.508  13.869  0.2438 -0.1711 -0.0139
13850TIP3    H163041   4.721   0.501  13.956  0.4456 -0.2457  0.0686
13850TIP3    H263042   4.707   0.447  13.816 -1.2246  1.3479 -0.4278
13851TIP3   OH263043   3.822   0.608  13.188  0.3196 -0.1277  0.5959
13851TIP3    H163044   3.908   0.571  13.208 -0.3569 -1.1081  1.7883
13851TIP3    H263045   3.839   0.702  13.175  1.4386 -0.1646  1.6388
13852TIP3   OH263046   0.611   5.615  16.270  0.1655  0.0237 -0.0703
13852TIP3    H163047   0.692   5.599  16.223  0.8177  2.0884  0.2690
13852TIP3    H263048   0.630   5.690  16.326 -1.8892  0.3747  0.2326
13853TIP3   OH263049   1.009   2.783  16.871 -0.1846 -0.3225 -0.1944
13853TIP3    H163050   1.000   2.782  16.966 -0.2013 -1.1114 -0.1992
13853TIP3    H263051   1.068   2.710  16.851 -0.0363 -0.0501 -0.7750
13854TIP3   OH263052   1.811   4.276  15.962  0.5037 -0.4535  0.1615
13854TIP3    H163053   1.838   4.250  15.874 -0.9091  0.3897 -0.5554
13854TIP3    H263054   1.863   4.354  15.981  0.9016 -0.7091  0.1417
13855TIP3   OH263055   2.028   4.694  14.965 -0.2402 -0.1929 -0.3008
13855TIP3    H163056   2.002   4.673  15.055 -3.4364 -0.4141 -1.1361
13855TIP3    H263057   2.086   4.622  14.940  1.8439  0.5781  1.9333
13856TIP3   OH263058   0.541   3.350   3.721  0.0672 -0.1546  0.0986
13856TIP3    H163059   0.553   3.255   3.722 -1.3151 -0.3593  2.0049
13856TIP3    H263060   0.604   3.381   3.656  0.7756 -2.3303 -0.3447
13857TIP3   OH263061   0.622   4.292   1.922 -0.8045  0.2352  0.5348
13857TIP3    H163062   0.656   4.205   1.942 -1.5918 -0.0056  0.8630
13857TIP3    H263063   0.565   4.278   1.846 -0.3215  0.6008  0.1007
13858TIP3   OH263064   3.551   4.535   0.413  0.3302  0.0621 -0.0112
13858TIP3    H163065   3.637   4.497   0.435  1.3374  0.7828 -2.3481
13858TIP3    H263066   3.503   4.463   0.373  0.3514  0.0110  0.0538
13859TIP3   OH263067   4.133   0.618   2.531 -0.4156  0.1945 -0.1835
13859TIP3    H163068   4.122   0.712   2.550  2.2983  0.7763 -1.0805
13859TIP3    H263069   4.180   0.616   2.448 -1.5573 -2.0520 -0.8540
13860TIP3   OH263070   0.123   0.571   2.037  0.6582  0.1925 -0.2836
13860TIP3    H163071   0.191   0.631   2.067  2.0758 -1.3293 -0.2885
13860TIP3    H263072   0.171   0.495   2.004 -1.0075 -0.3404 -1.6764
13861TIP3   OH263073   2.572   6.506   0.517  0.5177  0.5360  0.0935
13861TIP3    H163074   2.541   6.580   0.465  0.7910 -0.0193 -0.8703
13861TIP3    H263075   2.495   6.476   0.565 -0.2531 -0.2443 -1.5750
13862TIP3   OH263076   0.757   6.596  15.667  0.1578 -0.1124  0.4108
13862TIP3    H163077   0.676   6.628  15.627  0.4133 -1.4212 -1.2305
13862TIP3    H263078   0.730   6.523  15.722 -0.0047  0.7883  1.5823
13863TIP3   OH263079   5.856   3.971   0.768 -0.1927  0.0275 -0.1264
13863TIP3    H163080   5.836   3.957   0.860 -3.0612  2.2630 -0.2488
13863TIP3    H263081   5.770   3.969   0.725  0.8452  1.0703 -2.4265
13864TIP3   OH263082   1.822   4.265  11.731  0.2312  0.4034  0.1431
13864TIP3    H163083   1.803   4.194  11.670 -3.4895 -0.4043  1.9434
13864TIP3    H263084   1.897   4.234  11.782  0.8717 -0.6236 -1.3355
13865TIP3   OH263085   5.407   3.978   3.310  0.0731 -0.4023  0.0768
13865TIP3    H163086   5.335   4.041   3.314  0.6653  0.3761 -0.8856
13865TIP3    H263087   5.442   3.976   3.399 -2.2859 -2.2550  1.0675
13866TIP3   OH263088   1.705   1.621  16.726  0.2395  0.5962 -0.2178
13866TIP3    H163089   1.632   1.583  16.677  1.1562 -0.5985 -0.6807
13866TIP3    H263090   1.731   1.698  16.675 -0.3863  0.7595 -0.2958
13867TIP3   OH263091   5.167   5.556   5.213  0.0744  0.1861  1.2604
13867TIP3    H163092   5.092   5.573   5.271 -1.8044 -2.8749 -0.0115
13867TIP3    H263093   5.204   5.474   5.245  0.8680 -0.0080 -0.0690
13868TIP3   OH263094   2.888   4.334   0.759 -0.4905 -0.2569 -0.2488
13868TIP3    H163095   2.983   4.346   0.767 -0.5481 -0.0175  0.1344
13868TIP3    H263096   2.856   4.346   0.848 -0.7459 -1.6104 -0.1364
13869TIP3   OH263097   2.229   4.109  15.536 -0.1507  0.2482  0.2870
13869TIP3    H163098   2.218   4.155  15.620  0.2291 -0.6482  0.8343
13869TIP3    H263099   2.323   4.111  15.520 -0.4004  3.1950 -1.7328
13870TIP3   OH263100   2.976   3.675  12.419 -1.0227 -0.1331 -0.7327
13870TIP3    H163101   2.883   3.669  12.441 -1.1502 -1.7811 -1.5073
13870TIP3    H263102   3.019   3.616  12.481 -0.4225  0.9200 -0.1211
13871TIP3   OH263103   6.006   6.027  15.252 -0.3772  0.4489  0.4387
13871TIP3    H163104   5.956   6.068  15.181  1.9282  1.5782 -0.6420
13871TIP3    H263105   6.060   5.961  15.209  1.5915  1.6343  0.9401
13872TIP3   OH263106   4.446   0.884   1.880  0.5875 -0.2077  0.2116
13872TIP3    H163107   4.537   0.912   1.869  0.6156 -0.2239  0.4036
13872TIP3    H263108   4.451   0.801   1.927  0.4717 -0.1902  0.2558
13873TIP3   OH263109   4.737   0.336  13.117  0.1766 -0.3902 -0.4088
13873TIP3    H163110   4.741   0.244  13.091 -0.7812 -0.7677  0.7061
13873TIP3    H263111   4.652   0.345  13.159  0.5496  0.8448  0.1120
13874TIP3   OH263112   6.677   0.158   0.536 -0.2560  0.2832 -0.4539
13874TIP3    H163113   6.599   0.103   0.544  0.2706 -0.3739  0.3610
13874TIP3    H263114   6.642   0.247   0.523 -1.2705  0.5158  2.8144
13875TIP3   OH263115   0.943   1.224   6.024 -0.1347 -0.2045  0.4829
13875TIP3    H163116   0.870   1.286   6.028 -0.3369 -0.3765 -0.4522
13875TIP3    H263117   1.021   1.279   6.030 -0.2577 -0.1802  4.2668
13876TIP3   OH263118   2.582   1.841  15.447 -0.5641  0.2506  0.4374
13876TIP3    H163119   2.493   1.809  15.464 -0.3016 -0.7746 -0.0205
13876TIP3    H263120   2.635   1.762  15.443  0.2129  0.7924 -0.2105
13877TIP3   OH263121   0.638   3.347   5.869  0.0084 -0.8257 -0.4658
13877TIP3    H163122   0.564   3.349   5.807 -0.2277 -1.3709 -0.2139
13877TIP3    H263123   0.714   3.374   5.817 -0.6443  1.5327 -0.2997
13878TIP3   OH263124   0.553   4.880  14.860 -0.3149 -0.5588 -0.4305
13878TIP3    H163125   0.561   4.964  14.816  0.1189 -1.2012 -1.6158
13878TIP3    H263126   0.554   4.815  14.790  1.7060 -1.7062  0.5637
13879TIP3   OH263127   1.033   4.144  15.786 -0.0907  0.8199  0.5172
13879TIP3    H163128   1.001   4.063  15.826 -0.5102  1.6066  1.8655
13879TIP3    H263129   1.043   4.204  15.860  3.0707  1.1217 -0.0116
13880TIP3   OH263130   6.062   5.024  13.299  0.4483 -0.1868  0.2592
13880TIP3    H163131   6.150   5.022  13.263 -0.1708 -1.2222 -1.3038
13880TIP3    H263132   6.018   5.095  13.253  0.7286  1.0601  1.8137
13881TIP3   OH263133   6.415   3.513   5.885 -0.0274  0.0803 -0.3290
13881TIP3    H163134   6.380   3.448   5.947  2.2390 -3.0961 -2.0750
13881TIP3    H263135   6.425   3.593   5.937 -1.7300 -1.2765  2.3467
13882TIP3   OH263136   0.664   4.864   4.441  0.0825 -0.2924 -0.2118
13882TIP3    H163137   0.733   4.914   4.396 -0.6482  0.3054 -0.6977
13882TIP3    H263138   0.583   4.902   4.408 -0.5058 -2.0501 -0.8738
13883TIP3   OH263139   0.249   5.529   4.510 -0.0892  0.5764 -0.4599
13883TIP3    H163140   0.172   5.585   4.516 -1.8880 -1.8725  0.9707
13883TIP3    H263141   0.268   5.503   4.600  0.3960 -1.3821 -1.0564
13884TIP3   OH263142   4.217   5.613  11.638  0.0719 -0.0899 -0.1952
13884TIP3    H163143   4.144   5.587  11.580 -0.5289 -0.5140  0.7219
13884TIP3    H263144   4.200   5.566  11.719  1.5971 -0.4924 -0.0878
13885TIP3   OH263145   2.373   5.124   0.273 -0.1100 -0.6148 -0.4302
13885TIP3    H163146   2.331   5.204   0.242 -0.3938  0.0871  1.6290
13885TIP3    H263147   2.303   5.076   0.317 -0.1865 -2.5290 -2.4490
13886TIP3   OH263148   5.155   0.663  13.064 -0.7512 -0.0749 -0.1290
13886TIP3    H163149   5.086   0.626  13.118 -0.6828 -0.2343 -0.1501
13886TIP3    H263150   5.158   0.608  12.986  0.6142 -1.1985  0.6704
13887TIP3   OH263151   3.631   0.203   5.390 -0.0532  0.0436  0.4507
13887TIP3    H163152   3.600   0.131   5.445 -0.2731  0.5909  1.0539
13887TIP3    H263153   3.696   0.163   5.333 -0.2590 -0.6596  0.7032
13888TIP3   OH263154   5.224   0.552   3.802  0.4680 -0.2353 -0.1686
13888TIP3    H163155   5.188   0.576   3.888  2.7008  2.1076  0.2543
13888TIP3    H263156   5.264   0.633   3.770  0.5747 -1.3080 -3.0146
13889TIP3   OH263157   4.093   0.691  13.824 -0.0847  0.2523 -0.1095
13889TIP3    H163158   4.073   0.601  13.851 -0.9566  0.5757  0.3943
13889TIP3    H263159   4.013   0.720  13.779  0.2112  0.7556 -0.3127
13890TIP3   OH263160   3.701   6.450   0.776  0.3560  0.0400 -0.1651
13890TIP3    H163161   3.701   6.432   0.870  0.2265  3.4433  0.6074
13890TIP3    H263162   3.794   6.452   0.752  0.4675  0.7705  0.2942
13891TIP3   OH263163   3.446   0.740  14.042  0.1213  0.2386  0.7244
13891TIP3    H163164   3.469   0.652  14.071 -2.1708 -0.9989 -0.8332
13891TIP3    H263165   3.490   0.751  13.958 -0.6521  0.0253  0.2845
13892TIP3   OH263166   5.295   0.181   1.997  0.0595  0.0424 -0.2926
13892TIP3    H163167   5.348   0.195   2.075 -0.4118  0.7190 -0.0832
13892TIP3    H263168   5.326   0.098   1.961  0.1895 -0.3420  0.6798
13893TIP3   OH263169   5.623   4.997  14.679  0.3689 -0.0602 -0.0416
13893TIP3    H163170   5.536   4.978  14.715  0.6459  1.1452  1.3741
13893TIP3    H263171   5.612   5.082  14.635  0.5633 -0.4833 -0.9244
13894TIP3   OH263172   0.985   6.460   0.305  0.1210 -0.1805  0.4901
13894TIP3    H163173   0.956   6.549   0.285  2.1260  0.5957  0.7979
13894TIP3    H263174   0.941   6.405   0.240  1.1669  1.4149 -1.6947
13895TIP3   OH263175   4.391   2.540   1.543 -0.0798  0.0984  0.0225
13895TIP3    H163176   4.433   2.514   1.461 -0.3716 -0.4514  0.0414
13895TIP3    H263177   4.462   2.539   1.608  0.4414  1.8479 -0.4647
13896TIP3   OH263178   5.964   5.481   0.961 -0.5646  0.1625 -0.5764
13896TIP3    H163179   6.005   5.444   1.039  0.0805  0.3099 -0.8408
13896TIP3    H263180   6.016   5.449   0.888 -0.4691  0.9462 -0.8646
13897TIP3   OH263181   2.744   2.391  12.264 -0.3333 -0.2769  0.3253
13897TIP3    H163182   2.762   2.313  12.317 -3.2679 -2.3856 -1.4722
13897TIP3    H263183   2.784   2.372  12.179  1.7774  1.7697  0.7456
13898TIP3   OH263184   4.790   1.015  14.497  0.0855 -0.5958 -0.2468
13898TIP3    H163185   4.726   1.086  14.497 -1.3349 -1.8200  0.1573
13898TIP3    H263186   4.822   1.012  14.406 -0.2276  0.2077 -0.3904
13899TIP3   OH263187   1.585   1.031   4.190  0.4934 -0.3349 -0.5367
13899TIP3    H163188   1.502   1.031   4.237  0.3157  0.1861 -0.8433
13899TIP3    H263189   1.601   0.939   4.169 -1.1876 -0.2299 -2.5373
13900TIP3   OH263190   4.311   0.956  16.970  0.0949  0.6979  0.3156
13900TIP3    H163191   4.363   1.004  16.906 -0.7796 -0.2799 -1.1833
13900TIP3    H263192   4.328   1.000  17.053  3.5672  0.2615 -0.0136
13901TIP3   OH263193   6.307   4.581   2.951 -0.3476  0.1885  0.2585
13901TIP3    H163194   6.390   4.568   2.998 -0.3029  0.5845  0.2927
13901TIP3    H263195   6.312   4.522   2.877 -0.3538 -0.3364  0.6726
13902TIP3   OH263196   4.312   3.089   3.524 -0.0833 -0.0358 -0.0911
13902TIP3    H163197   4.365   3.143   3.583  1.2425 -0.0644 -1.1896
13902TIP3    H263198   4.352   3.102   3.437 -2.3994  0.5693 -1.1479
13903TIP3   OH263199   1.472   6.054  15.325 -0.3999 -0.1763  0.2058
13903TIP3    H163200   1.441   6.024  15.410 -0.1158 -0.8042  0.0917
13903TIP3    H263201   1.543   5.994  15.302  0.0239  0.4369 -0.1361
13904TIP3   OH263202   3.399   2.011   5.766 -0.1704 -0.2040 -0.2083
13904TIP3    H163203   3.486   1.999   5.728  0.2678 -0.2163  0.7702
13904TIP3    H263204   3.355   1.927   5.753  0.1673 -0.3818 -0.2073
13905TIP3   OH263205   3.731   0.548   2.370 -0.7091 -0.4274 -0.0392
13905TIP3    H163206   3.818   0.507   2.362 -0.0914  0.8442 -0.0892
13905TIP3    H263207   3.709   0.575   2.281 -0.2468  1.0083  0.2555
13906TIP3   OH263208   4.338   4.630   4.994 -0.7138 -0.3720  0.1845
13906TIP3    H163209   4.315   4.712   4.950 -0.2241 -0.8879 -1.0881
13906TIP3    H263210   4.255   4.586   5.009 -1.1373  1.0348  2.3421
13907TIP3   OH263211   5.025   1.546  12.693  0.1877  0.0296  0.1752
13907TIP3    H163212   5.085   1.478  12.661  1.7987  0.9868  0.9988
13907TIP3    H263213   5.045   1.623  12.639 -0.5946  0.2626  0.2020
13908TIP3   OH263214   4.008   0.618  15.935  0.3801 -0.3981  0.0671
13908TIP3    H163215   4.046   0.705  15.947  0.2352 -0.1740 -0.9277
13908TIP3    H263216   3.999   0.610  15.840 -4.4171  0.6231  0.1958
13909TIP3   OH263217   0.413   2.386   5.228 -0.2343 -0.0582  0.4625
13909TIP3    H163218   0.389   2.417   5.315  1.5307 -1.3939  1.4823
13909TIP3    H263219   0.498   2.427   5.210 -1.5394  1.9735 -1.6501
13910TIP3   OH263220   2.158   2.841  12.692  0.7804  0.4098 -0.4864
13910TIP3    H163221   2.240   2.808  12.655  0.5797  1.4980 -1.9813
13910TIP3    H263222   2.099   2.847  12.618 -0.7673 -0.5763  0.6028
13911TIP3   OH263223   4.489   1.198   1.955  0.0159  0.4652 -0.2421
13911TIP3    H163224   4.533   1.257   1.894 -0.6436  1.4951  0.2502
13911TIP3    H263225   4.560   1.163   2.010  0.4326  0.6954 -0.6289
13912TIP3   OH263226   5.528   1.776  11.535 -0.5431 -0.6914  0.1348
13912TIP3    H163227   5.591   1.705  11.526  1.0264  0.8320 -1.6358
13912TIP3    H263228   5.579   1.851  11.564 -1.8090  0.2188  0.1279
13913TIP3   OH263229   5.151   0.078   1.725 -0.1697  0.3759  0.1278
13913TIP3    H163230   5.235   0.118   1.750 -0.6135  1.1693  0.4001
13913TIP3    H263231   5.145  -0.001   1.779 -0.2650  1.0955  1.2065
13914TIP3   OH263232   6.261   2.006   5.366 -0.5968  0.1201 -0.3907
13914TIP3    H163233   6.353   1.982   5.377 -0.6378 -1.3808 -2.6601
13914TIP3    H263234   6.219   1.980   5.447  0.4238 -2.3279 -0.5799
13915TIP3   OH263235   2.005   1.637  17.000 -0.0075  0.2893 -0.1924
13915TIP3    H163236   1.934   1.580  17.030  0.6460  0.2490  1.3545
13915TIP3    H263237   2.056   1.656  17.079  1.4926  0.6236 -1.1990
13916TIP3   OH263238   6.391   2.173   2.192 -0.0485 -0.2110  0.4193
13916TIP3    H163239   6.368   2.090   2.233  0.3603 -0.3804  0.3127
13916TIP3    H263240   6.458   2.210   2.249 -1.3475  0.8074  1.3463
13917TIP3   OH263241   5.510   0.168  12.446 -0.3923  0.1168  0.3241
13917TIP3    H163242   5.523   0.138  12.357 -0.4917 -0.2213  0.4219
13917TIP3    H263243   5.417   0.153  12.464  0.0812 -2.0187  1.2753
13918TIP3   OH263244   5.061   5.007   6.344 -0.2275 -0.4850 -0.1703
13918TIP3    H163245   5.064   4.927   6.291  0.9748 -1.0257  0.6761
13918TIP3    H263246   4.970   5.035   6.340 -0.3875 -1.1158 -1.6250
13919TIP3   OH263247   1.967   2.036   0.736  0.3008 -0.0589  0.1320
13919TIP3    H163248   2.038   1.984   0.699 -0.8428 -0.5742 -1.4692
13919TIP3    H263249   1.968   2.016   0.829  0.3728 -2.4457 -0.3199
13920TIP3   OH263250   2.138   6.271   6.462 -0.4362 -0.2214 -0.0324
13920TIP3    H163251   2.230   6.253   6.441 -0.0367 -0.6826  1.9360
13920TIP3    H263252   2.090   6.248   6.382  1.3539  2.6659 -2.1383
13921TIP3   OH263253   2.106   2.073   2.501 -0.2466 -0.2146  1.0713
13921TIP3    H163254   2.100   2.166   2.478 -0.5646 -0.7394 -1.1869
13921TIP3    H263255   2.020   2.037   2.479  0.4247 -1.3580  0.2229
13922TIP3   OH263256   0.069   5.734  10.708 -0.4001 -0.4077 -0.2590
13922TIP3    H163257   0.025   5.687  10.638  2.0586 -2.3760 -0.6323
13922TIP3    H263258   0.143   5.678  10.732  1.3081  2.1685  1.0040
13923TIP3   OH263259   5.689   2.075  14.948 -0.2608  0.0782 -0.5793
13923TIP3    H163260   5.594   2.089  14.946 -0.2786  0.1458  0.3615
13923TIP3    H263261   5.701   1.985  14.918 -0.8866 -1.0205  2.1587
13924TIP3   OH263262   1.652   2.738  13.892 -0.2333  0.0650  0.7890
13924TIP3    H163263   1.733   2.700  13.858 -1.1169 -1.4209  0.2410
13924TIP3    H263264   1.615   2.786  13.819 -0.0938  0.3338  0.8938
13925TIP3   OH263265   0.188   5.378   2.621  0.3871  0.2713  0.7209
13925TIP3    H163266   0.259   5.329   2.579  1.4781  1.8046  0.6623
13925TIP3    H263267   0.176   5.454   2.564 -1.4558 -0.0437  0.6520
13926TIP3   OH263268   1.051   4.145  13.376 -0.4324 -0.0149 -0.3897
13926TIP3    H163269   1.104   4.179  13.448  0.6335 -3.5880  0.6901
13926TIP3    H263270   1.091   4.182  13.297  0.7866  0.9487  0.6457
13927TIP3   OH263271   2.681   3.542   3.497 -0.4908 -0.1247  0.0975
13927TIP3    H163272   2.696   3.455   3.534 -0.4927  0.0438  0.4983
13927TIP3    H263273   2.627   3.526   3.419  1.1136 -0.6533 -0.9397
13928TIP3   OH263274   5.944   4.124  13.317 -0.3860 -0.3547  0.7796
13928TIP3    H163275   5.907   4.202  13.358 -2.5303  0.9292 -3.1252
13928TIP3    H263276   6.037   4.144  13.306 -1.1688  2.5936 -1.6912
13929TIP3   OH263277   6.388   2.879  15.611  0.3708 -0.2717  0.0981
13929TIP3    H163278   6.352   2.917  15.531 -0.4938  0.7187  0.9331
13929TIP3    H263279   6.441   2.805  15.580  1.1307  0.8675 -1.4848
13930TIP3   OH263280   4.941   3.533   6.105  0.3945  0.4489 -0.4292
13930TIP3    H163281   5.028   3.528   6.066  0.6721  0.0808  0.2322
13930TIP3    H263282   4.956   3.544   6.198 -0.2693  2.3508 -0.5129
13931TIP3   OH263283   5.186   0.899  11.257 -0.4871  0.2372  0.4649
13931TIP3    H163284   5.215   0.818  11.300  1.7287 -0.2938 -1.8150
13931TIP3    H263285   5.184   0.877  11.164  3.0210  3.4679 -0.5970
13932TIP3   OH263286   0.339   5.679   5.280  0.2550 -0.0781 -0.1596
13932TIP3    H163287   0.297   5.763   5.300  0.9667  0.6422 -1.5439
13932TIP3    H263288   0.405   5.701   5.214  1.4109 -1.5135  0.4677
13933TIP3   OH263289   3.511   1.875   4.781 -0.0809 -0.2981 -0.3969
13933TIP3    H163290   3.519   1.918   4.696 -0.6086  0.4826 -0.0641
13933TIP3    H263291   3.597   1.888   4.822  0.0729 -0.4067 -0.6794
13934TIP3   OH263292   4.468   3.929   5.041  0.3654  0.9706 -0.6459
13934TIP3    H163293   4.434   3.866   5.104 -2.0665  0.0076 -2.7801
13934TIP3    H263294   4.437   4.014   5.073  0.9511  0.7632  0.5287
13935TIP3   OH263295   0.688   2.790  10.475 -0.1785  0.1348  0.7115
13935TIP3    H163296   0.705   2.845  10.551  0.1585 -0.2377  0.9057
13935TIP3    H263297   0.594   2.775  10.477 -0.3926  1.2555  0.2783
13936TIP3   OH263298   6.529   4.154  11.494  0.1235 -0.0861 -0.4743
13936TIP3    H163299   6.596   4.095  11.458 -1.4479 -1.2157 -1.6817
13936TIP3    H263300   6.528   4.135  11.588  0.8412 -0.7425 -0.5880
13937TIP3   OH263301   1.894   0.193  16.150 -0.3380 -0.6345  0.0721
13937TIP3    H163302   1.803   0.164  16.139 -0.4514  0.0191 -0.8968
13937TIP3    H263303   1.943   0.140  16.087  0.1281 -1.7248  1.3306
13938TIP3   OH263304   3.345   0.939  11.675 -0.5377  0.0614 -0.4703
13938TIP3    H163305   3.288   0.878  11.722 -0.6594 -0.0636 -0.7765
13938TIP3    H263306   3.431   0.895  11.674 -0.5747 -0.0097 -0.5113
13939TIP3   OH263307   0.716   2.441   5.881  0.0444 -0.3188 -0.3082
13939TIP3    H163308   0.801   2.440   5.924 -1.2364 -2.4811  2.5281
13939TIP3    H263309   0.681   2.529   5.898  0.6027 -0.3217  0.9520
13940TIP3   OH263310   1.147   4.953  15.407 -0.0547 -0.2996 -0.1953
13940TIP3    H163311   1.090   4.974  15.481 -1.2087 -2.7664 -0.3047
13940TIP3    H263312   1.157   5.036  15.361 -2.0482  0.6059  0.8716
13941TIP3   OH263313   0.110   1.576  12.173  0.6112 -0.1153 -0.3607
13941TIP3    H163314   0.127   1.571  12.267  0.7439 -1.0695 -0.4233
13941TIP3    H263315   0.174   1.517  12.134 -0.8055 -1.4023 -0.8638
13942TIP3   OH263316   6.481   6.539   6.310 -0.2869  0.0878 -0.5832
13942TIP3    H163317   6.530   6.461   6.334 -0.4086  0.5272  1.2082
13942TIP3    H263318   6.547   6.608   6.301 -0.4771  0.6060  1.5191
13943TIP3   OH263319   2.238   2.324   2.060 -0.1556  0.0428  0.2641
13943TIP3    H163320   2.284   2.408   2.054 -0.7063  0.4138  1.0796
13943TIP3    H263321   2.212   2.317   2.152 -0.9261 -0.5911  0.0096
13944TIP3   OH263322   3.225   0.556  11.177  0.9126  0.2117  0.0461
13944TIP3    H163323   3.241   0.579  11.086 -0.8087  1.2113 -0.0417
13944TIP3    H263324   3.284   0.612  11.227  0.3616  1.1828 -0.3796
13945TIP3   OH263325   3.766   5.018   5.415 -0.0140  0.7005 -0.4095
13945TIP3    H163326   3.779   5.113   5.420 -2.0274  1.0015  0.6959
13945TIP3    H263327   3.727   5.004   5.329 -0.1040  0.9508 -0.4127
13946TIP3   OH263328   5.039   3.185   2.773  0.1103 -0.0609  0.4778
13946TIP3    H163329   5.052   3.238   2.695 -2.2933  1.7463  1.1968
13946TIP3    H263330   5.089   3.230   2.841 -0.8905  0.5948  0.7995
13947TIP3   OH263331   0.585   4.706   3.265 -0.3318  0.2667 -0.1577
13947TIP3    H163332   0.508   4.762   3.280  0.9248  1.6230  1.6764
13947TIP3    H263333   0.657   4.768   3.253  0.7320 -0.9907 -0.3872
13948TIP3   OH263334   3.327   3.180   1.470  0.5103  0.5016  0.4524
13948TIP3    H163335   3.336   3.130   1.551  0.2608  0.2692  0.3376
13948TIP3    H263336   3.414   3.177   1.430  0.6323  0.6104  0.7041
13949TIP3   OH263337   3.701   1.937   5.368 -0.2659  0.3981  0.2769
13949TIP3    H163338   3.760   1.878   5.414 -0.3864  0.6601  0.7801
13949TIP3    H263339   3.753   2.015   5.349 -0.1491  0.1968 -0.2528
13950TIP3   OH263340   1.095   0.845   4.705  0.3545  0.2075 -0.6086
13950TIP3    H163341   1.181   0.860   4.744 -0.4998  2.1368  0.6782
13950TIP3    H263342   1.087   0.749   4.701  1.8698 -0.0181  0.8457
13951TIP3   OH263343   3.840   1.074   1.346  0.2626  0.2227  0.5816
13951TIP3    H163344   3.764   1.082   1.403  1.0574 -0.6169  1.8218
13951TIP3    H263345   3.877   1.162   1.343  0.8672  0.0808  2.3728
13952TIP3   OH263346   1.777   1.572  11.364  0.3269 -0.2222 -0.1586
13952TIP3    H163347   1.739   1.494  11.324 -0.0495 -0.2310  0.2058
13952TIP3    H263348   1.737   1.645  11.316  0.6845 -0.2523 -0.5036
13953TIP3   OH263349   4.922   3.637  11.208 -0.0582  0.1660 -0.8443
13953TIP3    H163350   4.970   3.640  11.126  0.3496 -0.0402 -0.6120
13953TIP3    H263351   4.964   3.704  11.263 -0.0206 -0.0311 -0.6332
13954TIP3   OH263352   6.580   0.306  16.828 -0.8206 -0.2449 -0.2170
13954TIP3    H163353   6.509   0.324  16.889 -0.8759  2.0653 -0.8438
13954TIP3    H263354   6.614   0.393  16.805  1.7198 -1.2312 -0.5271
13955TIP3   OH263355   6.336   1.108   2.806  0.0898 -0.2038 -0.1286
13955TIP3    H163356   6.409   1.097   2.745 -0.3531  1.6012 -1.0622
13955TIP3    H263357   6.265   1.057   2.768  0.9179 -2.3610  1.0297
13956TIP3   OH263358   4.702   5.984   5.379 -0.1771  0.4117 -0.0123
13956TIP3    H163359   4.706   5.906   5.323 -0.7443  0.8261 -0.6477
13956TIP3    H263360   4.728   6.056   5.322 -0.0627  0.7483  0.4577
13957TIP3   OH263361   0.495   2.263   4.739  0.0369 -0.6178  0.7345
13957TIP3    H163362   0.403   2.252   4.763 -0.3132 -1.1008 -0.7223
13957TIP3    H263363   0.534   2.177   4.757 -0.7369 -1.7657 -2.3412
13958TIP3   OH263364   4.600   1.710  14.252 -0.0310 -0.2391  0.3738
13958TIP3    H163365   4.642   1.791  14.281  0.1947 -0.2496  0.0898
13958TIP3    H263366   4.577   1.726  14.160  0.6867 -0.7490  0.0909
13959TIP3   OH263367   4.717   1.775  16.462 -0.3436 -0.5488 -0.5266
13959TIP3    H163368   4.806   1.764  16.496  0.0358 -0.2751 -1.4068
13959TIP3    H263369   4.714   1.865  16.430 -0.7329 -0.7615 -1.0965
13960TIP3   OH263370   1.931   2.189   2.049  0.5514  0.5489 -0.0686
13960TIP3    H163371   1.887   2.192   2.134 -0.3887 -0.7775 -0.4870
13960TIP3    H263372   1.988   2.113   2.054 -3.0324 -2.6103 -2.1951
13961TIP3   OH263373   4.605   0.679  13.074 -0.3875  0.3358 -0.2768
13961TIP3    H163374   4.582   0.699  13.165 -2.6023 -0.6693 -0.5685
13961TIP3    H263375   4.648   0.594  13.078  1.8070  1.3778  0.0441
13962TIP3   OH263376   5.366   3.129   2.965  0.0877  0.2677  0.0816
13962TIP3    H163377   5.459   3.122   2.943  0.1722  1.3640  0.0322
13962TIP3    H263378   5.365   3.160   3.056 -0.2059  1.3444 -0.2718
13963TIP3   OH263379   1.492   5.269  12.662  0.5461  0.3097 -0.6303
13963TIP3    H163380   1.411   5.316  12.683  1.1186  0.9299  0.2828
13963TIP3    H263381   1.465   5.199  12.604 -0.5594  0.8719 -0.8182
13964TIP3   OH263382   0.078   0.075  12.842 -0.2266  0.2566  0.0708
13964TIP3    H163383   0.039   0.152  12.884  0.0589 -0.0644  0.9265
13964TIP3    H263384   0.169   0.100  12.826 -0.2604  0.2707 -0.1087
13965TIP3   OH263385   0.222   5.600  16.406 -0.5676  0.2050  0.2248
13965TIP3    H163386   0.141   5.554  16.428 -0.2055  0.2056  1.7123
13965TIP3    H263387   0.201   5.652  16.329 -1.1581 -1.9665 -1.1787
13966TIP3   OH263388   5.179   2.350  14.871 -0.1237  0.1848  0.2586
13966TIP3    H163389   5.093   2.371  14.907  0.1006 -0.8958  1.5362
13966TIP3    H263390   5.234   2.333  14.948  0.8483 -0.5337 -0.5556
13967TIP3   OH263391   2.937   6.797   3.035 -0.4587  0.0579 -0.2950
13967TIP3    H163392   3.028   6.804   3.063 -0.3650  1.1212 -0.7977
13967TIP3    H263393   2.940   6.739   2.959 -0.1713  0.2065 -0.3988
13968TIP3   OH263394   5.688   1.831   3.628  0.1862 -0.2703  0.1424
13968TIP3    H163395   5.768   1.780   3.634 -0.2942 -1.1586 -0.6589
13968TIP3    H263396   5.626   1.774   3.582 -1.0537  0.2070  1.1397
13969TIP3   OH263397   5.123   0.033  14.925  0.2208  0.3449  0.6196
13969TIP3    H163398   5.090   0.049  14.837  0.4065 -1.0110  0.2709
13969TIP3    H263399   5.112   0.116  14.971 -0.4752  0.8866 -0.4884
13970TIP3   OH263400   2.773   5.674   4.524 -0.7045 -0.4023  0.1580
13970TIP3    H163401   2.825   5.601   4.490 -1.3133 -1.3012  1.0931
13970TIP3    H263402   2.693   5.674   4.471 -0.3882  0.0761 -0.3342
13971TIP3   OH263403   6.088   6.446  16.753  0.0953  0.3034 -0.5916
13971TIP3    H163404   6.091   6.435  16.658  2.4218 -0.4080 -0.5025
13971TIP3    H263405   6.151   6.517  16.771 -0.2500  0.3706  0.4356
13972TIP3   OH263406   3.446   1.285   3.663 -0.0500  0.5190  0.0239
13972TIP3    H163407   3.359   1.247   3.653 -0.2041  1.1289 -1.1122
13972TIP3    H263408   3.441   1.371   3.621  1.5129 -0.0970 -1.5909
13973TIP3   OH263409   3.138   2.524  13.099  0.7474 -0.2728 -0.0196
13973TIP3    H163410   3.108   2.462  13.165  1.7148 -1.8139 -0.9916
13973TIP3    H263411   3.081   2.509  13.024  0.4152  0.6629  0.0228
13974TIP3   OH263412   6.728   1.263  15.485  0.0571 -0.0393 -0.0494
13974TIP3    H163413   6.756   1.200  15.551 -0.1380  0.3441  0.3969
13974TIP3    H263414   6.785   1.339  15.498  0.5446 -0.2472 -0.8292
13975TIP3   OH263415   0.482   0.714  12.292  0.1430  0.4350  0.2138
13975TIP3    H163416   0.507   0.663  12.369  2.0691 -0.3350 -0.8523
13975TIP3    H263417   0.402   0.674  12.260  0.9820 -1.2083  0.0843
13976TIP3   OH263418   2.754   4.454   1.577  0.2950  0.0324 -1.0675
13976TIP3    H163419   2.768   4.375   1.524  1.7128  0.6289 -1.6482
13976TIP3    H263420   2.707   4.423   1.654  0.8576 -1.3917 -1.2630
13977TIP3   OH263421   6.151   1.219   1.074 -0.0944 -0.5402 -0.4990
13977TIP3    H163422   6.195   1.221   1.160  0.2302  0.2112 -0.6724
13977TIP3    H263423   6.174   1.303   1.034 -0.6227 -0.6968 -1.1380
13978TIP3   OH263424   6.060   6.078  11.429  0.2250 -0.3433 -0.2013
13978TIP3    H163425   5.989   6.068  11.493  1.0541 -0.3358  0.7469
13978TIP3    H263426   6.055   6.169  11.401  0.3791 -0.1184  0.4965
13979TIP3   OH263427   5.006   4.876   4.758  0.1144 -0.0559 -0.8165
13979TIP3    H163428   5.020   4.806   4.694 -1.5361 -0.5652 -0.6454
13979TIP3    H263429   5.021   4.834   4.843 -0.3500 -0.0569 -0.7374
13980TIP3   OH263430   5.389   0.980   0.107 -0.0418 -0.0452  0.1594
13980TIP3    H163431   5.332   1.027   0.168  2.0159  2.2729  0.4538
13980TIP3    H263432   5.405   1.042   0.036 -0.2192 -1.7183 -1.4120
13981TIP3   OH263433   4.777   0.351   5.177  0.0743 -0.0473 -0.5214
13981TIP3    H163434   4.786   0.312   5.263 -0.0751 -0.4872 -0.6984
13981TIP3    H263435   4.771   0.276   5.117  0.7996  0.2514 -0.9828
13982TIP3   OH263436   0.332   1.428  15.521  0.0670  0.0500  0.0642
13982TIP3    H163437   0.370   1.503  15.566 -0.3698  0.9146 -0.9601
13982TIP3    H263438   0.396   1.405  15.453 -0.1624  0.0122 -0.1434
13983TIP3   OH263439   0.076   0.296   6.675 -0.2215 -0.1508 -0.0486
13983TIP3    H163440   0.136   0.370   6.678  0.7344 -0.8305 -1.4705
13983TIP3    H263441  -0.011   0.335   6.666  0.3875  0.8032 -2.2909
13984TIP3   OH263442   5.088   4.296   0.396  0.0564 -0.4894 -0.5143
13984TIP3    H163443   5.124   4.208   0.397 -2.7421 -1.7638 -0.4242
13984TIP3    H263444   5.118   4.336   0.478  1.3127 -1.3703 -0.5279
13985TIP3   OH263445   0.986   3.627   3.100 -0.1905  0.0804 -0.3620
13985TIP3    H163446   0.972   3.620   3.194  1.8923  1.3218  0.0789
13985TIP3    H263447   0.905   3.667   3.067 -0.6508  0.3119  0.9881
13986TIP3   OH263448   5.720   6.713  13.219 -0.0148 -0.3084  1.1698
13986TIP3    H163449   5.626   6.707  13.236  0.0447  1.8559  2.7289
13986TIP3    H263450   5.731   6.800  13.180  1.3091 -0.6358  0.7774
13987TIP3   OH263451   4.444   1.477   5.841 -0.1309  0.2857 -0.3314
13987TIP3    H163452   4.349   1.479   5.853  0.2271  1.1360  5.0397
13987TIP3    H263453   4.470   1.389   5.868  0.6762  0.7516  0.4946
13988TIP3   OH263454   6.329   1.144  16.055  0.2546 -0.1470 -0.6692
13988TIP3    H163455   6.380   1.096  15.989  1.3215  0.3208 -0.1999
13988TIP3    H263456   6.373   1.228  16.063 -1.2662  0.7208 -1.0571
13989TIP3   OH263457   0.932   5.501  15.291 -0.3942  0.0210  0.7312
13989TIP3    H163458   1.024   5.492  15.315 -0.4230 -0.4350  0.6846
13989TIP3    H263459   0.911   5.418  15.247 -0.3278  0.8411 -0.9114
13990TIP3   OH263460   2.969   5.918  15.737  0.3880 -0.2126  0.3800
13990TIP3    H163461   2.947   5.933  15.829 -1.1806  2.4692 -0.3369
13990TIP3    H263462   2.910   5.847  15.710 -1.0904  0.8185  0.8002
13991TIP3   OH263463   3.664   4.758  11.896  0.9901 -0.8174 -0.0256
13991TIP3    H163464   3.637   4.667  11.903  0.9225 -0.7199  1.1823
13991TIP3    H263465   3.614   4.792  11.822  0.0466 -1.4248  0.3112
13992TIP3   OH263466   0.362   1.469   1.033  0.7004  0.2444 -0.0701
13992TIP3    H163467   0.429   1.538   1.027  1.2664 -0.3407 -0.8339
13992TIP3    H263468   0.281   1.516   1.053  1.6518  0.7894  3.0203
13993TIP3   OH263469   5.656   3.652   0.748  0.7850  0.3307 -0.4250
13993TIP3    H163470   5.589   3.714   0.775  0.2290 -0.1427 -0.7002
13993TIP3    H263471   5.680   3.605   0.828 -1.4867 -1.6845 -0.8171
13994TIP3   OH263472   2.033   4.666  11.477 -0.2081 -0.5159  1.1326
13994TIP3    H163473   1.989   4.628  11.553 -0.0046 -1.3307  0.8486
13994TIP3    H263474   2.125   4.641  11.487 -0.1709 -0.5841  0.6519
13995TIP3   OH263475   0.589   0.477  16.846 -0.3194 -0.1839  0.1974
13995TIP3    H163476   0.587   0.390  16.805 -0.2041 -0.4014  0.6474
13995TIP3    H263477   0.497   0.504  16.847 -0.1286  0.8035 -2.2237
13996TIP3   OH263478   0.604   2.202   1.272 -0.5104  0.1212 -0.6280
13996TIP3    H163479   0.639   2.190   1.184  1.1777  1.5040 -0.2129
13996TIP3    H263480   0.566   2.290   1.271 -1.1501 -0.1461 -0.1940
13997TIP3   OH263481   1.868   6.059   1.494  0.3681 -0.0274 -0.0833
13997TIP3    H163482   1.780   6.023   1.499 -0.0300  0.4542 -2.3716
13997TIP3    H263483   1.857   6.153   1.508  0.6534 -0.0814  0.5309
13998TIP3   OH263484   5.365   6.364   0.338 -0.6981 -0.5185  0.3440
13998TIP3    H163485   5.438   6.386   0.280  0.4518 -2.5601  0.9015
13998TIP3    H263486   5.367   6.431   0.406  1.2346 -1.0163  0.8217
13999TIP3   OH263487   3.153   3.983   2.630  0.3978  0.0603  0.0723
13999TIP3    H163488   3.128   3.910   2.573 -0.3986  0.4349 -0.0690
13999TIP3    H263489   3.144   4.061   2.575  0.0906  0.3782  0.5614
14000TIP3   OH263490   0.765   5.777  11.588  0.9172  0.0464  0.2418
14000TIP3    H163491   0.690   5.826  11.553  1.7116  1.7052  0.7611
14000TIP3    H263492   0.811   5.840  11.644  2.5026 -1.0433  0.2322
14001TIP3   OH263493   2.381   2.052   0.030 -0.1323  0.1485 -0.2673
14001TIP3    H163494   2.407   2.138  -0.006 -0.2079  0.9640  1.5389
14001TIP3    H263495   2.433   2.042   0.109 -0.0940 -1.5294 -0.4690
14002TIP3   OH263496   0.525   5.056  16.018  0.6892 -0.4111  0.6243
14002TIP3    H163497   0.588   5.128  16.014 -1.0200  1.1354  0.3994
14002TIP3    H263498   0.565   4.993  16.078  0.5389  2.5302  4.1273
14003TIP3   OH263499   3.812   2.550  10.627  0.0776 -0.3977 -0.3471
14003TIP3    H163500   3.860   2.468  10.628  0.2339 -0.3943  3.2812
14003TIP3    H263501   3.869   2.613  10.670 -0.9365  1.0937 -1.0575
14004TIP3   OH263502   4.129   0.231  13.175 -0.4493  0.3836  0.7859
14004TIP3    H163503   4.087   0.176  13.242  0.3135 -1.6578 -0.3231
14004TIP3    H263504   4.058   0.253  13.115 -0.5332 -0.4943  0.5513
14005TIP3   OH263505   0.833   0.982   5.270 -0.1950 -0.0393  0.7215
14005TIP3    H163506   0.773   0.999   5.197 -0.5605  0.5271  1.1435
14005TIP3    H263507   0.920   0.983   5.230 -0.4080 -0.0417  0.2416
14006TIP3   OH263508   3.865   1.653  14.895 -0.3072 -0.1664 -0.0725
14006TIP3    H163509   3.944   1.635  14.844 -0.8490 -0.8892 -0.6835
14006TIP3    H263510   3.794   1.646  14.831 -0.6640  3.8997 -0.3661
14007TIP3   OH263511   3.721   5.224   4.660 -0.1802 -0.1773  0.2403
14007TIP3    H163512   3.678   5.224   4.575 -0.3594 -0.7418  0.3244
14007TIP3    H263513   3.750   5.133   4.673  0.4485  0.0503  0.4806
14008TIP3   OH263514   5.091   2.839  13.333  0.1839 -0.3829  0.2709
14008TIP3    H163515   5.003   2.819  13.301  0.6715  0.4461 -1.7715
14008TIP3    H263516   5.078   2.903  13.403 -0.8677 -0.9568  0.6173
14009TIP3   OH263517   3.741   5.867  14.543 -0.2128 -0.2523  0.1172
14009TIP3    H163518   3.831   5.888  14.518  0.3301 -2.0717  0.3661
14009TIP3    H263519   3.694   5.856  14.460 -0.9508  3.1832 -0.0840
14010TIP3   OH263520   0.369   0.185  13.916  0.7033 -0.0194 -0.1740
14010TIP3    H163521   0.399   0.206  14.004  0.9682  1.0954 -0.5196
14010TIP3    H263522   0.346   0.269  13.877 -1.2806 -0.6648 -0.5192
14011TIP3   OH263523   3.502   3.456  14.145  0.5139 -0.1716 -0.2550
14011TIP3    H163524   3.432   3.519  14.125  1.1777  0.8685  0.6660
14011TIP3    H263525   3.544   3.440  14.060  0.1332  0.3507 -0.5485
14012TIP3   OH263526   4.006   6.534   4.741  0.3731  0.1273  0.6001
14012TIP3    H163527   3.963   6.450   4.755  1.9700 -1.0434 -0.9546
14012TIP3    H263528   4.092   6.524   4.781  0.4001  1.2184  0.8362
14013TIP3   OH263529   4.705   1.132  15.005  0.0188  0.4054  0.8894
14013TIP3    H163530   4.764   1.194  15.047  1.6798  0.0923 -0.8487
14013TIP3    H263531   4.746   1.113  14.920 -1.8476 -0.9590  0.2181
14014TIP3   OH263532   0.998   4.075   4.840  0.2056 -0.4470 -0.1978
14014TIP3    H163533   1.073   4.063   4.782  1.2972  0.3777  0.9727
14014TIP3    H263534   1.018   4.020   4.916 -0.9842 -1.1704 -0.3795
14015TIP3   OH263535   4.486   4.506   2.600 -0.2648 -0.0493  0.1725
14015TIP3    H163536   4.537   4.551   2.668  0.2178  0.1786 -0.3274
14015TIP3    H263537   4.405   4.558   2.593 -0.1418  0.1612  0.2926
14016TIP3   OH263538   0.469   3.869  13.627 -0.0892  0.3910 -0.1807
14016TIP3    H163539   0.448   3.880  13.535 -0.6640 -0.2794 -0.1443
14016TIP3    H263540   0.563   3.851  13.629 -0.3861 -1.5024 -0.8366
14017TIP3   OH263541   1.858   0.733   3.015  0.0422  0.1447  0.4375
14017TIP3    H163542   1.766   0.750   2.997 -0.5054 -1.7573  1.1510
14017TIP3    H263543   1.901   0.818   3.007 -1.7680  1.0622  0.0882
14018TIP3   OH263544   6.194   4.613   2.436 -0.3542 -0.4521  0.0324
14018TIP3    H163545   6.113   4.570   2.408 -0.2862 -2.0316  2.0544
14018TIP3    H263546   6.167   4.702   2.458 -1.9153 -1.3531  2.0735
14019TIP3   OH263547   0.496   0.965  14.227 -0.2954 -0.1834 -0.0134
14019TIP3    H163548   0.496   0.872  14.202  2.6723 -0.6185  1.1681
14019TIP3    H263549   0.572   1.002  14.182 -0.1728  1.1430  1.2147
14020TIP3   OH263550   5.402   3.305  13.644 -0.0954  0.1924  0.2001
14020TIP3    H163551   5.383   3.398  13.651  0.1021  0.2915 -0.4619
14020TIP3    H263552   5.317   3.263  13.635 -0.1101  0.5497 -1.9006
14021TIP3   OH263553   1.209   5.064   3.151  0.1703  0.3752 -0.3522
14021TIP3    H163554   1.245   5.006   3.084 -1.1250  0.1913 -0.9353
14021TIP3    H263555   1.120   5.031   3.165  0.0255  1.1230  0.6302
14022TIP3   OH263556   5.024   3.237   1.238  0.2803  0.4789 -0.5241
14022TIP3    H163557   4.970   3.252   1.316  1.5311  2.2094  0.0641
14022TIP3    H263558   4.986   3.295   1.171  0.2366  0.2563 -0.6921
14023TIP3   OH263559   3.462   5.316  12.204  0.3358 -0.4876 -0.0360
14023TIP3    H163560   3.532   5.293  12.266  0.6174  1.8348  0.6296
14023TIP3    H263561   3.381   5.303  12.253  0.4321 -0.9445  0.0005
14024TIP3   OH263562   3.878   4.081  11.906  0.8267  0.0247  0.3450
14024TIP3    H163563   3.796   4.123  11.879  0.7954  0.0317  0.4534
14024TIP3    H263564   3.940   4.153  11.914  0.3348  0.2942  2.2648
14025TIP3   OH263565   2.289   4.383  15.612  0.7067 -0.5872 -0.2044
14025TIP3    H163566   2.351   4.354  15.545  1.5592 -0.9918  0.7359
14025TIP3    H263567   2.339   4.384  15.693 -0.9023 -2.4927  0.9037
14026TIP3   OH263568   1.630   1.169  14.235  0.0968  0.1250  0.1336
14026TIP3    H163569   1.721   1.163  14.206  0.1666  1.1770  0.1107
14026TIP3    H263570   1.579   1.148  14.158  0.2853 -3.1522  0.7613
14027TIP3   OH263571   4.137   5.253  14.837 -0.1129 -0.3453  0.2869
14027TIP3    H163572   4.068   5.319  14.844 -0.2260 -0.4034 -0.2034
14027TIP3    H263573   4.198   5.274  14.907 -0.2933  0.1105  0.3116
14028TIP3   OH263574   1.803   2.102  14.651  0.2721  0.2969  0.1514
14028TIP3    H163575   1.798   2.008  14.630 -1.1247 -0.0993  1.9430
14028TIP3    H263576   1.715   2.135  14.635  0.5168  1.0972  0.3993
14029TIP3   OH263577   4.271   2.964  12.061  0.8624  0.6242 -0.2927
14029TIP3    H163578   4.337   2.978  11.993  0.5746 -0.5248 -0.8362
14029TIP3    H263579   4.212   2.897  12.024  0.7589 -0.1052  1.1193
14030TIP3   OH263580   3.333   6.475  14.030 -0.1028 -0.4137  0.1992
14030TIP3    H163581   3.271   6.529  14.078 -0.7843 -0.1272 -0.9695
14030TIP3    H263582   3.338   6.514  13.943  1.3407 -0.7364  0.1091
14031TIP3   OH263583   6.578   5.368   5.349 -0.4395 -0.3898  0.3858
14031TIP3    H163584   6.531   5.375   5.432 -0.8792  1.9518  0.0095
14031TIP3    H263585   6.514   5.391   5.282  0.4413 -0.1423 -0.4023
14032TIP3   OH263586   6.454   1.892   1.854  0.1910  0.1992 -0.1597
14032TIP3    H163587   6.480   1.851   1.771  0.3815 -0.1741  0.0845
14032TIP3    H263588   6.363   1.863   1.867 -0.6134  1.9821 -1.3156
14033TIP3   OH263589   6.587   4.061   2.340  0.2202  0.3147 -0.1426
14033TIP3    H163590   6.541   4.079   2.422  0.7875 -0.8701  0.4626
14033TIP3    H263591   6.662   4.120   2.342 -0.2868  0.9814 -0.2867
14034TIP3   OH263592   5.940   6.209   5.068  0.0154 -0.2130  0.1746
14034TIP3    H163593   5.990   6.152   5.126 -0.5972 -0.6528  0.2806
14034TIP3    H263594   5.982   6.295   5.078 -0.3407 -0.1749  1.6097
14035TIP3   OH263595   1.225   3.646  15.383 -0.1923  0.0290 -0.0815
14035TIP3    H163596   1.294   3.701  15.346  0.2320  0.5177  1.3692
14035TIP3    H263597   1.166   3.708  15.426 -0.6259 -0.5282  0.1401
14036TIP3   OH263598   2.014   3.398   5.630  0.1850 -0.1434  0.0589
14036TIP3    H163599   1.997   3.444   5.712 -1.3957 -0.6105  0.0397
14036TIP3    H263600   1.937   3.416   5.576  2.2423  2.2151 -2.3659
14037TIP3   OH263601   1.751   0.316  11.417  1.2489 -0.0194 -0.3300
14037TIP3    H163602   1.747   0.394  11.361 -0.1494 -0.3781 -0.7697
14037TIP3    H263603   1.765   0.243  11.357  1.8506 -0.1892  0.0104
14038TIP3   OH263604   5.050   2.264   0.262 -0.1256  0.5254  0.0241
14038TIP3    H163605   5.130   2.288   0.215 -0.4823  0.4908 -0.6198
14038TIP3    H263606   5.070   2.280   0.354  0.8670 -0.1821 -0.0537
14039TIP3   OH263607   5.679   4.890   5.878 -0.0644  0.7414 -0.7403
14039TIP3    H163608   5.760   4.851   5.844  1.0880  1.7989  0.6770
14039TIP3    H263609   5.680   4.871   5.971 -0.7171  1.9951 -0.4506
14040TIP3   OH263610   5.833   6.605  15.532 -0.4431  0.8670  0.2826
14040TIP3    H163611   5.820   6.523  15.580 -0.2741  0.8317  0.2698
14040TIP3    H263612   5.866   6.666  15.597  1.0743  0.4467 -0.0571
14041TIP3   OH263613   1.308   1.755  13.456  0.4195 -0.2172  0.7315
14041TIP3    H163614   1.396   1.724  13.433 -0.2723 -1.4125 -0.4156
14041TIP3    H263615   1.324   1.822  13.523  2.3428  1.2520 -1.0553
14042TIP3   OH263616   0.981   6.364  10.385 -0.0137 -0.3638  0.1444
14042TIP3    H163617   0.946   6.453  10.393  0.3110 -0.0906 -1.2619
14042TIP3    H263618   0.963   6.324  10.470 -1.5549  0.5404  0.2854
14043TIP3   OH263619   4.375   4.401  13.056 -0.1257 -0.2355 -0.7966
14043TIP3    H163620   4.460   4.360  13.044  0.0177 -0.2569  0.2023
14043TIP3    H263621   4.381   4.483  13.007  1.0311  0.4985  0.4883
14044TIP3   OH263622   1.539   6.356   2.501  0.0552 -0.0171 -0.1969
14044TIP3    H163623   1.512   6.317   2.418  2.5539 -2.0366 -0.1850
14044TIP3    H263624   1.613   6.412   2.479  0.7497 -0.5718  0.6590
14045TIP3   OH263625   0.710   2.469  14.528 -0.1448  0.2872  0.2963
14045TIP3    H163626   0.625   2.508  14.504  0.1087  1.3300  1.0047
14045TIP3    H263627   0.762   2.544  14.559  0.9387 -0.3884  0.1314
14046TIP3   OH263628   0.647   3.278  13.992  0.1029 -0.2903 -0.2162
14046TIP3    H163629   0.740   3.292  13.975 -0.0432  0.9612 -0.0433
14046TIP3    H263630   0.646   3.212  14.062  0.8152 -1.2911 -1.1223
14047TIP3   OH263631   5.693   2.709   5.268  0.1087  0.2345 -0.3054
14047TIP3    H163632   5.735   2.794   5.266 -1.1462  0.8764 -1.2689
14047TIP3    H263633   5.655   2.699   5.180 -2.1556 -0.0463  0.6382
14048TIP3   OH263634   3.450   5.542   1.529 -0.5029 -0.1473  0.2487
14048TIP3    H163635   3.386   5.608   1.554  0.0629  0.3026  0.5232
14048TIP3    H263636   3.527   5.591   1.503  0.8053 -0.6907  2.7605
14049TIP3   OH263637   5.742   3.729  15.095  0.0806  0.4205 -0.1049
14049TIP3    H163638   5.658   3.695  15.126 -0.7714  0.2169 -2.4444
14049TIP3    H263639   5.726   3.822  15.081 -0.4623  0.0226 -2.5352
14050TIP3   OH263640   4.107   2.497  12.012 -0.0842 -0.3493 -0.0356
14050TIP3    H163641   4.201   2.489  11.994 -0.0431 -1.2794  0.5264
14050TIP3    H263642   4.065   2.452  11.939  0.0249 -2.4586  1.1122
14051TIP3   OH263643   0.425   0.115   0.568 -0.3862  0.1004 -0.0620
14051TIP3    H163644   0.378   0.197   0.577  0.0008  0.4609 -1.1388
14051TIP3    H263645   0.362   0.047   0.592 -0.4015  0.7414  1.8658
14052TIP3   OH263646   1.063   2.065   4.569 -0.0130  0.0605 -0.7936
14052TIP3    H163647   1.026   2.023   4.492  1.6762  0.5068 -1.8918
14052TIP3    H263648   1.079   1.994   4.631 -0.2448 -0.4651 -1.3357
14053TIP3   OH263649   5.686   1.497  12.238 -0.3238 -0.5870 -0.0013
14053TIP3    H163650   5.728   1.437  12.177  2.0589  2.5883 -1.7683
14053TIP3    H263651   5.648   1.565  12.183 -0.7290  0.8639  1.9420
14054TIP3   OH263652   3.921   4.128   1.760  0.1200 -0.0984 -1.1555
14054TIP3    H163653   3.835   4.137   1.801  0.2179  0.1095 -0.9933
14054TIP3    H263654   3.920   4.042   1.719  0.3046 -0.6372 -0.0670
14055TIP3   OH263655   3.777   3.046   2.463 -0.0699  0.0558  0.2992
14055TIP3    H163656   3.734   3.053   2.549  2.1907  2.4023  1.3641
14055TIP3    H263657   3.802   2.953   2.457  1.3473  0.1454  3.0796
14056TIP3   OH263658   2.553   0.218   0.738 -0.1830 -0.2436  0.1761
14056TIP3    H163659   2.486   0.153   0.759 -0.7818  0.1193 -0.5890
14056TIP3    H263660   2.537   0.290   0.800  0.5846 -0.8684  1.1361
14057TIP3   OH263661   5.494   5.325   0.028 -0.5247 -0.2666  0.3827
14057TIP3    H163662   5.407   5.353   0.058 -0.3240  0.2526  0.4945
14057TIP3    H263663   5.515   5.386  -0.042 -0.6956 -1.0546 -0.3599
14058TIP3   OH263664   0.474   6.399  10.405  0.2510  0.6736  0.2905
14058TIP3    H163665   0.425   6.346  10.342  2.2378 -2.8513  1.4023
14058TIP3    H263666   0.422   6.396  10.485  0.3064  0.4798  0.3197
14059TIP3   OH263667   5.135   4.772   1.913 -0.3556  0.1598 -0.1473
14059TIP3    H163668   5.223   4.742   1.938 -1.0798 -1.1082  1.0453
14059TIP3    H263669   5.122   4.738   1.825  0.1116 -0.2348 -0.0694
14060TIP3   OH263670   3.005   0.574   1.363  0.2098  0.4360  1.1227
14060TIP3    H163671   3.004   0.583   1.267 -2.9305  1.6657  1.1633
14060TIP3    H263672   3.026   0.482   1.378  0.0503  0.0478 -0.7799
14061TIP3   OH263673   1.947   4.047   1.462 -0.5052 -0.2676  0.2285
14061TIP3    H163674   1.982   4.068   1.375 -2.6954 -2.4781 -1.3385
14061TIP3    H263675   1.864   4.094   1.466 -0.6862 -0.6347  0.9013
14062TIP3   OH263676   0.447   0.031  15.765  0.1575 -0.2898  0.8033
14062TIP3    H163677   0.404  -0.034  15.819 -0.5236 -0.6612 -0.1575
14062TIP3    H263678   0.510   0.073  15.823 -0.1701 -1.0457  1.7243
14063TIP3   OH263679   3.073   1.156  11.688  0.2479  0.2034  0.6463
14063TIP3    H163680   3.050   1.249  11.685 -0.2129  0.0644 -1.6903
14063TIP3    H263681   3.150   1.149  11.633  0.0795 -0.8523  0.5361
14064TIP3   OH263682   4.092   5.032   4.153  0.4028  0.1443 -0.1677
14064TIP3    H163683   4.133   5.037   4.067 -0.7257 -0.6684 -0.7804
14064TIP3    H263684   4.035   5.109   4.157  1.5576  0.9920  0.4745
14065TIP3   OH263685   3.454   3.964   1.335 -0.5730 -0.4824  0.2996
14065TIP3    H163686   3.487   3.881   1.369  0.4165  0.2327  1.1483
14065TIP3    H263687   3.425   4.011   1.412 -0.7390  0.1260 -0.1296
14066TIP3   OH263688   5.437   1.966   3.995 -0.2142  0.6593  0.7830
14066TIP3    H163689   5.380   2.000   4.064 -2.1643 -1.7528  0.4862
14066TIP3    H263690   5.449   1.874   4.018  1.0828  0.3843 -0.8445
14067TIP3   OH263691   4.619   2.246  11.621  0.3645  0.1753 -0.3190
14067TIP3    H163692   4.608   2.240  11.716  0.8946 -0.7375 -0.3003
14067TIP3    H263693   4.699   2.297  11.610  0.8377 -0.5258 -0.2349
14068TIP3   OH263694   2.869   6.502  13.128 -0.3794 -0.4960 -0.6968
14068TIP3    H163695   2.856   6.556  13.051 -0.1589  1.0480  0.3012
14068TIP3    H263696   2.832   6.553  13.200  0.7502 -1.2130  0.4433
14069TIP3   OH263697   1.595   1.396  17.155 -1.0053  0.2964  0.0118
14069TIP3    H163698   1.629   1.465  17.099  0.8214  0.5293  1.3470
14069TIP3    H263699   1.606   1.429  17.244 -3.4628 -0.2340  0.5925
14070TIP3   OH263700   2.070   0.744   3.861 -0.3071 -0.3812 -0.3360
14070TIP3    H163701   2.080   0.776   3.772 -1.8270  0.3837 -0.2719
14070TIP3    H263702   2.004   0.675   3.854  1.1479 -1.8481 -0.1006
14071TIP3   OH263703   5.175   4.501   4.120 -0.1346 -0.2475 -0.9507
14071TIP3    H163704   5.116   4.538   4.054 -1.4393 -1.0060 -0.2523
14071TIP3    H263705   5.163   4.406   4.111  2.3113 -0.5299 -1.9731
14072TIP3   OH263706   0.795   2.508  15.239  0.5708 -0.0833  0.1896
14072TIP3    H163707   0.878   2.464  15.220  1.4158  2.1248 -1.6190
14072TIP3    H263708   0.733   2.468  15.178  1.3036  1.0852 -1.3637
14073TIP3   OH263709   2.564   2.894  11.312  0.6805  0.2502  0.1892
14073TIP3    H163710   2.575   2.801  11.296  1.2537  0.5065 -1.0862
14073TIP3    H263711   2.649   2.933  11.290 -0.1086  1.2774 -1.2502
14074TIP3   OH263712   0.004   0.773   3.861  0.2119  0.1014  0.5073
14074TIP3    H163713  -0.011   0.770   3.955 -1.6270  1.9093  0.3318
14074TIP3    H263714   0.062   0.848   3.849 -0.3051  0.4501  0.1410
14075TIP3   OH263715   3.753   1.197   0.445  0.1229  0.0600 -0.5518
14075TIP3    H163716   3.766   1.266   0.510  1.3962 -0.0287 -0.6935
14075TIP3    H263717   3.660   1.202   0.422 -0.1525  0.6450  0.6482
14076TIP3   OH263718   0.321   6.720   2.303  0.2025  0.3489 -0.2993
14076TIP3    H163719   0.408   6.753   2.281  0.7376 -0.1858  0.8979
14076TIP3    H263720   0.303   6.755   2.390  0.5280 -1.9069  0.7534
14077TIP3   OH263721   4.785   2.247  13.698 -0.3984  0.0718  0.3110
14077TIP3    H163722   4.766   2.162  13.737 -1.6607  0.4827  0.6371
14077TIP3    H263723   4.834   2.294  13.766 -0.6187 -0.0146  0.5303
14078TIP3   OH263724   6.519   1.751   5.979  0.9809  0.1240  0.0544
14078TIP3    H163725   6.549   1.733   6.068  0.2783 -1.2429  0.0349
14078TIP3    H263726   6.590   1.719   5.923  1.5314  1.2082  0.1126
14079TIP3   OH263727   5.480   5.445  11.251 -0.1226  0.1106 -0.4802
14079TIP3    H163728   5.549   5.481  11.195  0.6866  0.0680  0.4625
14079TIP3    H263729   5.399   5.464  11.204  0.6384 -2.3843 -3.0810
14080TIP3   OH263730   5.046   1.045  12.758  0.0892 -0.3814 -0.7340
14080TIP3    H163731   4.973   1.073  12.813  1.9034  1.8442  0.7555
14080TIP3    H263732   5.056   0.952  12.775 -3.1171 -1.0873 -1.9888
14081TIP3   OH263733   4.880   2.062   2.734 -0.8188  0.2630  0.6330
14081TIP3    H163734   4.865   1.980   2.780  1.4413 -0.5018  0.1403
14081TIP3    H263735   4.816   2.123   2.771 -2.0972 -1.5118  1.4919
14082TIP3   OH263736   5.687   2.214   3.366 -1.4610 -0.2928 -0.6532
14082TIP3    H163737   5.763   2.166   3.399 -1.3840  0.1695 -0.1436
14082TIP3    H263738   5.620   2.204   3.433 -2.8148 -2.9107 -2.2370
14083TIP3   OH263739   6.530   5.316  16.087  0.0871  0.3109  0.3669
14083TIP3    H163740   6.614   5.303  16.132 -0.0034 -1.1242  0.1624
14083TIP3    H263741   6.554   5.356  16.003  0.5831 -0.1830  0.2667
14084TIP3   OH263742   6.746   1.053   0.626  0.1125  0.0681  0.1870
14084TIP3    H163743   6.664   1.092   0.657  0.5551  1.1635  0.0332
14084TIP3    H263744   6.813   1.117   0.651  0.6357  0.3969 -1.9113
14085TIP3   OH263745   5.559   6.462   5.375 -0.1074  0.1756 -0.3627
14085TIP3    H163746   5.587   6.376   5.345  0.9035  0.0366  0.8802
14085TIP3    H263747   5.464   6.455   5.382 -0.0516 -0.8124 -0.3905
14086TIP3   OH263748   4.829   4.867  14.253 -0.6422 -0.0202  0.1670
14086TIP3    H163749   4.854   4.804  14.322  1.7114 -0.0685 -0.6527
14086TIP3    H263750   4.901   4.930  14.251 -1.2400  0.6508 -1.4749
14087TIP3   OH263751   5.186   1.669  12.460  0.6890 -0.1329 -0.2707
14087TIP3    H163752   5.162   1.660  12.368 -2.0367  0.1664  0.3228
14087TIP3    H263753   5.202   1.763  12.471  1.7498 -0.2652 -0.5586
14088TIP3   OH263754   6.346   6.227  14.224  0.0603  0.4951  0.2172
14088TIP3    H163755   6.347   6.132  14.219 -3.7278  0.3443 -1.3841
14088TIP3    H263756   6.343   6.247  14.317  0.4017 -0.9804  0.5591
14089TIP3   OH263757   3.552   6.090  16.771  0.0135 -0.0775  0.3249
14089TIP3    H163758   3.585   6.130  16.690 -0.6195 -0.2069  0.0009
14089TIP3    H263759   3.472   6.139  16.790 -0.6043 -0.9793  0.0947
14090TIP3   OH263760   2.263   0.001   2.340  0.5606  0.0996 -0.3506
14090TIP3    H163761   2.206   0.069   2.305  0.7784  0.1503 -0.6129
14090TIP3    H263762   2.250   0.004   2.435  1.7765  1.5959 -0.2046
14091TIP3   OH263763   2.993   2.876  16.676  0.2709 -0.4094  0.1401
14091TIP3    H163764   2.914   2.912  16.636  0.4667  0.0509  0.1687
14091TIP3    H263765   2.991   2.783  16.654  0.1201 -0.2519 -0.5203
14092TIP3   OH263766   6.161   4.925   4.758  0.2988 -0.0353  0.0955
14092TIP3    H163767   6.162   4.969   4.843  0.6559 -1.2483  0.7415
14092TIP3    H263768   6.233   4.862   4.762 -2.2109 -3.1273  0.5427
14093TIP3   OH263769   3.471   5.901   1.183 -0.3582  0.6066  0.2153
14093TIP3    H163770   3.559   5.894   1.147 -0.2127 -0.0371  0.6943
14093TIP3    H263771   3.440   5.987   1.153 -0.7295 -0.3736 -2.5165
14094TIP3   OH263772   0.629   5.765  15.791 -0.8953  0.1676 -0.5549
14094TIP3    H163773   0.604   5.825  15.861 -0.1674  0.3577 -0.4530
14094TIP3    H263774   0.580   5.685  15.810 -0.3129  0.0404  0.4778
14095TIP3   OH263775   5.922   4.329   4.691 -0.3559 -0.3725 -0.2837
14095TIP3    H163776   5.845   4.354   4.639 -0.7996 -0.8230  0.1400
14095TIP3    H263777   5.945   4.242   4.658 -0.8864 -0.8373  0.5295
14096TIP3   OH263778   6.722   1.599   2.402  0.3206 -0.1689 -0.4704
14096TIP3    H163779   6.803   1.554   2.377  1.0726  0.1132  1.2888
14096TIP3    H263780   6.743   1.640   2.486 -1.4308  0.5495 -0.3513
14097TIP3   OH263781   5.646   3.847   3.742 -0.2643 -0.4514 -0.4084
14097TIP3    H163782   5.737   3.831   3.719  0.0203  1.3993 -0.6558
14097TIP3    H263783   5.608   3.759   3.751  1.5426 -1.2495 -0.1963
14098TIP3   OH263784   4.070   4.550  13.992 -0.2540  0.1696  0.2701
14098TIP3    H163785   4.070   4.529  13.899  0.7655  1.1523  0.0279
14098TIP3    H263786   4.146   4.503  14.027 -0.0610  0.5835  0.4131
14099TIP3   OH263787   5.985   1.889  14.404 -0.9449 -0.1882 -0.2343
14099TIP3    H163788   5.892   1.911  14.409 -1.2468 -1.0939 -1.3730
14099TIP3    H263789   6.018   1.939  14.329 -0.4117  0.4130  0.3842
14100TIP3   OH263790   0.563   2.527  11.840  0.0757 -0.2210  0.0321
14100TIP3    H163791   0.474   2.496  11.828  0.3605 -0.5848 -1.3122
14100TIP3    H263792   0.617   2.448  11.839  0.6163  0.1305 -1.4939
14101TIP3   OH263793   6.624   2.714   2.452 -0.8618 -0.1978 -0.1444
14101TIP3    H163794   6.582   2.791   2.489  2.0708  1.4189  0.0916
14101TIP3    H263795   6.656   2.666   2.529 -2.2502 -1.4835 -0.3154
14102TIP3   OH263796   6.504   6.744  16.668 -0.1095 -0.3423  0.0990
14102TIP3    H163797   6.532   6.711  16.583  0.2928 -0.4065  0.2549
14102TIP3    H263798   6.546   6.686  16.732  1.5511  1.0930  0.4122
14103TIP3   OH263799   5.036   5.744  15.021 -0.2473 -0.1834  0.0268
14103TIP3    H163800   5.123   5.754  14.982  0.3119  0.2025  1.3115
14103TIP3    H263801   5.054   5.709  15.108 -1.4511 -0.9635 -0.0295
14104TIP3   OH263802   1.539   2.632  12.217  0.5086  0.1544 -0.3994
14104TIP3    H163803   1.618   2.648  12.269  0.1712  0.9742 -0.1325
14104TIP3    H263804   1.469   2.673  12.267 -0.0375 -0.2771 -0.8086
14105TIP3   OH263805   3.671   5.601  15.914 -0.8390  0.1451  0.5709
14105TIP3    H163806   3.694   5.517  15.874 -0.7072  0.4564 -0.0264
14105TIP3    H263807   3.644   5.579  16.003 -3.6984 -0.8893 -0.4611
14106TIP3   OH263808   0.538   0.939  16.124  0.4344 -0.5461  0.1719
14106TIP3    H163809   0.463   0.969  16.176 -0.1429 -1.1695 -0.2852
14106TIP3    H263810   0.589   1.019  16.109 -0.2686 -0.0625  0.2734
14107TIP3   OH263811   6.571   0.462   3.091 -0.0170 -0.6388  0.0993
14107TIP3    H163812   6.582   0.461   3.186  1.7964 -0.1756 -0.0651
14107TIP3    H263813   6.549   0.371   3.069 -0.1126 -0.8239  0.9258
14108TIP3   OH263814   3.883   2.810  16.078 -0.4002 -0.2242 -0.2582
14108TIP3    H163815   3.870   2.762  15.996 -0.3682  1.5398 -1.3492
14108TIP3    H263816   3.808   2.785  16.132 -1.6141  0.2370 -1.6735
14109TIP3   OH263817   1.431   4.393  10.787 -0.1225  0.0343 -0.4359
14109TIP3    H163818   1.360   4.427  10.842  0.9993  0.3398  0.8526
14109TIP3    H263819   1.484   4.340  10.846  1.0633  0.3016 -1.2392
14110TIP3   OH263820   4.987   1.712   4.584  0.1153  0.0036  0.1769
14110TIP3    H163821   5.071   1.691   4.625  1.1036  2.5391 -0.3718
14110TIP3    H263822   4.946   1.775   4.644 -0.1591  0.8008 -0.8169
14111TIP3   OH263823   4.189   4.924  11.436  0.5186  0.1903  0.1405
14111TIP3    H163824   4.204   4.903  11.344 -0.6457  1.8446 -0.4868
14111TIP3    H263825   4.257   4.988  11.457 -0.8513  1.9629 -0.4783
14112TIP3   OH263826   5.278   3.107   1.988  0.4222 -0.6854  0.0251
14112TIP3    H163827   5.273   3.198   1.957  0.3470 -1.3322 -1.9853
14112TIP3    H263828   5.369   3.082   1.975  0.4168 -0.9488  0.4633
14113TIP3   OH263829   3.121   0.824   0.608  0.3774  0.1392  0.8308
14113TIP3    H163830   3.068   0.790   0.535  0.7624 -1.7386  1.3607
14113TIP3    H263831   3.088   0.912   0.623 -1.3322 -0.3056 -0.0582
14114TIP3   OH263832   3.557   0.167  10.553 -0.1536 -0.0639 -0.1273
14114TIP3    H163833   3.617   0.216  10.609 -1.0268  0.4906  0.3421
14114TIP3    H263834   3.470   0.193  10.583 -0.6316 -1.1288 -0.5627
14115TIP3   OH263835   6.234   1.577   2.586  0.2353  0.3048  0.0628
14115TIP3    H163836   6.152   1.528   2.592 -0.1086  0.5610 -1.7818
14115TIP3    H263837   6.284   1.532   2.518  0.4935  1.6688 -0.7021
14116TIP3   OH263838   0.467   3.550  11.015  0.5229 -0.7240 -0.1810
14116TIP3    H163839   0.553   3.570  10.977  1.7947  0.3864  3.0153
14116TIP3    H263840   0.438   3.632  11.054 -1.6970 -1.2898 -0.5035
14117TIP3   OH263841   3.061   4.127   1.588  0.4007  0.1013 -0.6016
14117TIP3    H163842   2.990   4.143   1.651  0.6358 -0.3216 -0.2276
14117TIP3    H263843   3.046   4.037   1.557  0.8751 -0.0538 -0.3899
14118TIP3   OH263844   2.714   5.744   4.782  0.4651  0.1881 -0.1427
14118TIP3    H163845   2.714   5.728   4.687  0.4468  0.7279 -0.2409
14118TIP3    H263846   2.622   5.735   4.808  0.5851 -0.7543 -0.0293
14119TIP3   OH263847   3.633   1.252  15.785 -0.1354  0.4834  0.2414
14119TIP3    H163848   3.611   1.199  15.861 -0.6139 -0.9972 -0.8837
14119TIP3    H263849   3.552   1.256  15.734  0.3097  1.0246 -0.4403
14120TIP3   OH263850   6.080   1.752  12.211  0.3844 -0.1125 -0.2362
14120TIP3    H163851   6.135   1.711  12.278  0.0973  0.6852  0.5032
14120TIP3    H263852   6.068   1.842  12.241 -1.2942 -0.2509 -0.4045
14121TIP3   OH263853   0.202   5.963  11.863  0.3144  0.6138 -0.4713
14121TIP3    H163854   0.189   5.890  11.803 -0.6234 -0.6508  1.1940
14121TIP3    H263855   0.159   6.037  11.821  0.1334 -0.1030 -1.5785
14122TIP3   OH263856   4.590   3.130  11.007  0.5355 -0.5557  0.1653
14122TIP3    H163857   4.534   3.207  10.998  0.0898 -0.8104  0.7097
14122TIP3    H263858   4.679   3.164  11.001  0.3304 -0.0832 -0.2374
14123TIP3   OH263859   6.787   3.008   3.785 -0.8724 -0.3893 -0.2147
14123TIP3    H163860   6.767   2.927   3.739 -0.1575 -0.4094 -0.5099
14123TIP3    H263861   6.714   3.021   3.846 -1.6180 -0.5859 -1.0551
14124TIP3   OH263862   0.470   3.099   1.638  0.1104 -0.0119  0.2429
14124TIP3    H163863   0.443   3.134   1.553  2.9719  2.5701  0.2208
14124TIP3    H263864   0.425   3.154   1.702  2.6264  2.2933  0.2174
14125TIP3   OH263865   0.813   3.853   4.247 -0.1224 -0.0723  0.6668
14125TIP3    H163866   0.784   3.866   4.337  0.8544 -0.6866  1.0840
14125TIP3    H263867   0.802   3.939   4.206 -0.0649  0.3556  1.5210
14126TIP3   OH263868   3.559   4.128   1.113 -0.0845  0.5377  0.5933
14126TIP3    H163869   3.523   4.078   1.187 -0.4253 -0.8746 -0.4827
14126TIP3    H263870   3.651   4.103   1.110 -0.2117  0.1159  0.1689
14127TIP3   OH263871   5.279   0.916  16.059 -0.1764  0.5441  0.6266
14127TIP3    H163872   5.230   0.902  16.139  0.4526  0.9378  1.0922
14127TIP3    H263873   5.284   1.011  16.050 -2.3081  0.5617 -1.1859
14128TIP3   OH263874   5.163   2.715  15.597  0.2542 -0.1326 -0.5609
14128TIP3    H163875   5.101   2.669  15.540 -1.1633  1.4378 -0.3597
14128TIP3    H263876   5.109   2.777  15.646  1.8677  0.6180  0.3397
14129TIP3   OH263877   1.752   5.973  12.269  0.2421  0.5607 -0.1355
14129TIP3    H163878   1.777   5.944  12.357 -1.3871  0.8766  0.4701
14129TIP3    H263879   1.676   5.919  12.247  0.0787  1.1151 -0.9729
14130TIP3   OH263880   3.576   3.181  12.884 -0.1670 -0.0827  0.3511
14130TIP3    H163881   3.663   3.164  12.846  0.2792  1.2609  0.7305
14130TIP3    H263882   3.553   3.099  12.928  2.3670  0.4901  3.0383
14131TIP3   OH263883   2.747   4.826  12.161  0.1252  0.0405  0.1781
14131TIP3    H163884   2.814   4.851  12.226 -1.1910 -0.3556  1.7474
14131TIP3    H263885   2.666   4.823  12.211 -0.8305 -0.9759 -1.3806
14132TIP3   OH263886   3.774   0.596  11.764  0.3969  0.0076  0.1438
14132TIP3    H163887   3.790   0.521  11.707 -0.1370 -0.4646  0.5994
14132TIP3    H263888   3.818   0.669  11.721 -0.4468 -0.2182 -1.1776
14133TIP3   OH263889   4.480   1.339   0.881  0.1601 -0.5605 -0.3162
14133TIP3    H163890   4.424   1.262   0.892 -0.6584 -0.0351 -0.6600
14133TIP3    H263891   4.455   1.374   0.796  2.1323 -1.1812 -1.2010
14134TIP3   OH263892   2.484   3.365   0.753  0.1342  0.1352 -0.2848
14134TIP3    H163893   2.463   3.290   0.698 -1.3793 -1.1874  1.9530
14134TIP3    H263894   2.428   3.435   0.720 -2.8085 -1.3794  1.0737
14135TIP3   OH263895   2.046   2.630  15.718  0.1557  0.2851 -0.1807
14135TIP3    H163896   2.035   2.597  15.629 -0.7700  0.5676 -0.1800
14135TIP3    H263897   2.140   2.625  15.733  0.0688 -2.7978  0.0117
14136TIP3   OH263898   5.623   2.128   1.716 -0.2273  0.2378  0.1955
14136TIP3    H163899   5.686   2.151   1.647 -0.2533  0.1133  0.1289
14136TIP3    H263900   5.643   2.036   1.736 -0.0333  0.3555  0.5547
14137TIP3   OH263901   1.575   5.538   0.263  0.2990 -0.2754 -0.0702
14137TIP3    H163902   1.573   5.591   0.342  1.3228  0.9005 -0.7968
14137TIP3    H263903   1.488   5.499   0.258 -0.4131  1.1542  0.6101
14138TIP3   OH263904   6.371   5.534   5.995 -0.3901  0.2813 -0.1627
14138TIP3    H163905   6.300   5.531   6.059 -0.2308  0.5012  0.0257
14138TIP3    H263906   6.451   5.542   6.047 -0.3540  1.9076 -0.4056
14139TIP3   OH263907   0.809   3.576   4.214 -0.0151  0.3006  0.4573
14139TIP3    H163908   0.729   3.530   4.187  0.1999 -1.1995  2.1792
14139TIP3    H263909   0.780   3.665   4.234 -1.2447 -0.1887  0.9793
14140TIP3   OH263910   0.145   1.587   1.335  0.3275  0.3085 -0.4850
14140TIP3    H163911   0.101   1.672   1.337  1.1138  0.7876 -1.8722
14140TIP3    H263912   0.100   1.538   1.267 -0.4647 -0.6050  0.6769
14141TIP3   OH263913   3.197   5.661  14.040  0.1698  0.3002 -0.0652
14141TIP3    H163914   3.255   5.721  14.087 -1.2483  2.3675 -0.8343
14141TIP3    H263915   3.133   5.717  13.998  0.4998 -1.5500 -3.3385
14142TIP3   OH263916   6.686   2.360  13.267 -1.0322  0.3115 -0.1664
14142TIP3    H163917   6.733   2.413  13.332 -1.9713 -0.4758  1.2065
14142TIP3    H263918   6.755   2.309  13.224 -0.2883  1.5260 -0.4670
14143TIP3   OH263919   0.798   6.110  17.228 -0.1799 -0.1208 -0.3238
14143TIP3    H163920   0.819   6.148  17.142 -0.8658  0.4083 -0.2674
14143TIP3    H263921   0.733   6.043  17.209  1.3465 -1.6507 -0.4789
14144TIP3   OH263922   1.382   0.947  13.585  0.2327 -0.1468  0.3811
14144TIP3    H163923   1.448   0.937  13.516  0.1016 -1.7949  0.4511
14144TIP3    H263924   1.347   1.036  13.572  1.3611  0.1843 -0.6283
14145TIP3   OH263925   3.430   6.359  13.066  0.1942 -0.0694  0.4692
14145TIP3    H163926   3.446   6.414  12.989  0.9393 -2.2476 -1.0476
14145TIP3    H263927   3.344   6.387  13.098  1.7842  4.0502  1.7882
14146TIP3   OH263928   4.777   0.066  16.747 -0.0199 -0.3014 -0.1647
14146TIP3    H163929   4.790   0.160  16.761  0.2784 -0.4071  0.2852
14146TIP3    H263930   4.786   0.027  16.834  0.2190 -0.7826 -0.3999
14147TIP3   OH263931   5.896   1.466  11.297 -0.1295 -0.1116  0.1486
14147TIP3    H163932   5.831   1.514  11.348  0.3299 -1.0666  1.7191
14147TIP3    H263933   5.846   1.419  11.231 -1.0171 -0.6554  1.1911
14148TIP3   OH263934   6.644   5.425  15.842  0.0571  0.3481 -0.4711
14148TIP3    H163935   6.586   5.500  15.854 -2.7413 -1.8289  0.8615
14148TIP3    H263936   6.615   5.386  15.759 -1.9447 -1.8805  1.1604
14149TIP3   OH263937   3.279   3.350   6.378  0.3721 -0.3208 -0.3718
14149TIP3    H163938   3.332   3.296   6.319  0.2194  0.5047 -1.2776
14149TIP3    H263939   3.341   3.413   6.415  0.3808 -0.5573  0.0273
14150TIP3   OH263940   3.721   6.523   4.273 -0.2156 -0.5841  0.2999
14150TIP3    H163941   3.768   6.555   4.350  1.4654  0.3556 -1.0547
14150TIP3    H263942   3.660   6.593   4.250  1.2620  0.3990 -0.8194
14151TIP3   OH263943   0.269   2.585  14.203 -0.0201  0.0596 -0.0847
14151TIP3    H163944   0.208   2.651  14.171 -0.9892 -0.4518  0.6598
14151TIP3    H263945   0.350   2.602  14.155 -0.1255  2.0056  0.3209
14152TIP3   OH263946   6.661   3.621   5.074  0.3909  0.3120 -0.1180
14152TIP3    H163947   6.622   3.611   4.987  0.3870  1.0786 -0.2056
14152TIP3    H263948   6.729   3.553   5.077 -0.1263 -0.2263 -0.4204
14153TIP3   OH263949   3.597   2.270   2.614 -0.1671  0.2863 -1.0325
14153TIP3    H163950   3.514   2.317   2.601 -0.3458  1.1019  2.3139
14153TIP3    H263951   3.640   2.316   2.686  1.6503 -2.1687 -0.4333
14154TIP3   OH263952   6.404   3.237  10.996 -0.2292 -0.4590 -0.1402
14154TIP3    H163953   6.327   3.274  11.039  0.0555 -1.1100  0.9682
14154TIP3    H263954   6.424   3.298  10.925 -1.9830 -0.4806 -0.6807
14155TIP3   OH263955   0.937   4.233   1.564  0.2206  0.0745 -0.1585
14155TIP3    H163956   0.951   4.170   1.634  1.1668 -1.9517 -2.0300
14155TIP3    H263957   0.842   4.247   1.562 -0.1071 -1.8278 -0.0495
14156TIP3   OH263958   6.736   4.703   4.828  0.3881  0.0454  0.8659
14156TIP3    H163959   6.721   4.609   4.823  2.5715 -0.2789 -1.5606
14156TIP3    H263960   6.800   4.714   4.898  1.7647 -0.5753 -0.2621
14157TIP3   OH263961   1.728   1.617   1.620  0.0312 -1.2335  0.8376
14157TIP3    H163962   1.722   1.521   1.622 -1.0330 -1.1947 -0.0116
14157TIP3    H263963   1.761   1.637   1.533 -1.2937 -0.7693  0.4203
14158TIP3   OH263964   3.745   6.436   2.899  0.6393  0.2333  0.0196
14158TIP3    H163965   3.836   6.458   2.921  0.6449  1.4302 -1.0347
14158TIP3    H263966   3.693   6.477   2.968  0.8958 -0.4184  0.6057
14159TIP3   OH263967   0.850   0.768  15.130  0.4938 -0.3342  0.6242
14159TIP3    H163968   0.839   0.745  15.222 -0.0720  0.0630  0.6612
14159TIP3    H263969   0.897   0.851  15.132 -2.1326  1.2653  0.6867
14160TIP3   OH263970   2.474   6.386   0.283 -0.3234 -0.5539 -0.1854
14160TIP3    H163971   2.562   6.423   0.290  0.4192 -2.0867 -0.8847
14160TIP3    H263972   2.462   6.336   0.363 -0.7771  0.0672  0.1421
14161TIP3   OH263973   3.951   5.136   6.729 -0.2619 -0.3772 -0.5926
14161TIP3    H163974   3.985   5.048   6.738 -0.3989 -0.6066 -2.0167
14161TIP3    H263975   3.876   5.127   6.669 -0.2959  0.6915 -0.7414
14162TIP3   OH263976   2.244   4.970  14.136  0.2074  0.2324 -0.2024
14162TIP3    H163977   2.221   5.049  14.185  1.7199  0.2638  0.5182
14162TIP3    H263978   2.340   4.965  14.143  0.4474 -0.0419 -2.7189
14163TIP3   OH263979   5.705   1.671   6.301 -0.8181  0.1822 -0.3021
14163TIP3    H163980   5.777   1.655   6.362 -2.3087 -1.1427  1.2236
14163TIP3    H263981   5.652   1.739   6.344 -2.3297 -1.3454  0.3526
14164TIP3   OH263982   0.774   1.092  11.553 -0.3978  0.3288  0.1460
14164TIP3    H163983   0.852   1.141  11.577 -0.6266 -0.1359  2.0564
14164TIP3    H263984   0.803   1.001  11.549 -0.6681  0.2470  0.0272
14165TIP3   OH263985   6.497   3.786  13.592  0.0740  0.1709 -0.2775
14165TIP3    H163986   6.549   3.865  13.579  0.9480 -0.4369 -0.5490
14165TIP3    H263987   6.448   3.802  13.672  0.8645  0.6573  0.1138
14166TIP3   OH263988   6.270   4.517   1.777  0.1204 -0.4146  0.7718
14166TIP3    H163989   6.231   4.602   1.798  3.7176  1.6881 -0.2925
14166TIP3    H263990   6.210   4.479   1.713 -0.8426  2.0744  0.0592
14167TIP3   OH263991   5.938   2.093  12.697 -0.5594 -0.1744 -0.0889
14167TIP3    H163992   6.015   2.037  12.704  0.5182  1.0422 -1.5566
14167TIP3    H263993   5.908   2.103  12.788 -0.3525 -2.4391  0.2938
14168TIP3   OH263994   5.651   4.163  13.700 -0.1202  0.1726  0.1379
14168TIP3    H163995   5.740   4.127  13.690 -0.0207  0.5976 -0.5186
14168TIP3    H263996   5.603   4.128  13.626 -0.1067  1.1253 -0.3361
14169TIP3   OH263997   1.482   1.467  11.187 -0.1064  0.2713 -0.1111
14169TIP3    H163998   1.500   1.376  11.163  3.5255  1.1633 -1.4510
14169TIP3    H263999   1.479   1.514  11.104  1.6519  1.8434  0.6449
14170TIP3   OH264000   4.907   5.875   2.533  0.5512 -0.1123  0.4098
14170TIP3    H164001   4.899   5.867   2.438 -1.0530 -1.5412  0.6202
14170TIP3    H264002   4.974   5.812   2.557  0.3884 -0.3304  0.2965
14171TIP3   OH264003   0.858   6.807   4.516  0.3768  0.2175 -0.3308
14171TIP3    H164004   0.929   6.850   4.565  0.0139 -1.2224  1.5753
14171TIP3    H264005   0.896   6.724   4.487  0.3127  0.6800 -1.8310
14172TIP3   OH264006   0.308   4.503   0.876 -0.0472  0.2029 -0.3714
14172TIP3    H164007   0.335   4.590   0.846 -0.2020  0.4175  0.1092
14172TIP3    H264008   0.297   4.512   0.970  0.8338 -0.5796 -0.1802
14173TIP3   OH264009   1.812   1.175  17.130  0.1870 -0.0677 -0.1975
14173TIP3    H164010   1.752   1.205  17.062 -0.1531 -0.0186  0.1252
14173TIP3    H264011   1.892   1.225  17.115 -0.5639  1.4495  0.7014
14174TIP3   OH264012   0.539   4.555  12.948  0.2508 -0.1343 -0.1210
14174TIP3    H164013   0.616   4.609  12.965  0.4455 -0.2525 -0.6417
14174TIP3    H264014   0.573   4.466  12.935  0.1003 -0.0683 -1.0372
14175TIP3   OH264015   3.790   0.173  14.019  0.3238  0.2841 -0.2528
14175TIP3    H164016   3.795   0.268  14.019 -0.5246  0.3590 -1.4771
14175TIP3    H264017   3.810   0.147  14.108 -2.0729  1.7783  0.8298
14176TIP3   OH264018   6.464   0.059  11.207 -0.3539 -0.4129  0.1688
14176TIP3    H164019   6.501   0.146  11.189  0.2386 -0.8467 -0.7514
14176TIP3    H264020   6.370   0.070  11.192 -0.3231  0.1443  0.3581
14177TIP3   OH264021   5.068   0.962   0.297  0.0256 -0.0609  0.2492
14177TIP3    H164022   5.052   0.939   0.389 -0.5011  0.8418  0.3975
14177TIP3    H264023   5.157   0.999   0.297 -0.0277  0.0706  0.4237
14178TIP3   OH264024   5.189   0.410  16.804  0.4059  0.3291 -0.1917
14178TIP3    H164025   5.226   0.484  16.852 -0.0101 -1.2200  2.6902
14178TIP3    H264026   5.117   0.448  16.753  0.6626  2.0117  0.6513
14179TIP3   OH264027   5.627   1.916  13.085 -1.3185  0.7310  0.1614
14179TIP3    H164028   5.610   1.909  13.179 -1.7482 -0.0533  0.0400
14179TIP3    H264029   5.552   1.872  13.044 -1.3711  1.4799 -0.5644
14180TIP3   OH264030   2.118   6.206   0.924  0.1709 -0.1650 -0.5077
14180TIP3    H164031   2.036   6.210   0.973  0.2746  1.8128 -0.4133
14180TIP3    H264032   2.091   6.192   0.833 -0.2736  0.5154 -0.4825
14181TIP3   OH264033   2.158   4.435  14.956  0.0558 -0.9570  0.2712
14181TIP3    H164034   2.216   4.395  14.891 -0.1792 -1.5897  0.4466
14181TIP3    H264035   2.072   4.399  14.938 -0.9258  2.0145 -1.7496
14182TIP3   OH264036   4.269   1.122   6.108 -0.6290 -0.3612 -0.3462
14182TIP3    H164037   4.328   1.145   6.180 -2.0946  0.7505  0.5739
14182TIP3    H264038   4.250   1.029   6.122  1.8436 -1.0886 -1.4223
14183TIP3   OH264039   6.816   3.567   0.800 -0.1311 -0.0173 -0.0622
14183TIP3    H164040   6.867   3.565   0.881  2.8027 -0.0059 -1.7670
14183TIP3    H264041   6.862   3.506   0.742  0.8220  3.3864 -3.2635
14184TIP3   OH264042   5.923   4.350  13.116  0.3313 -0.0525  0.1386
14184TIP3    H164043   5.892   4.337  13.206  1.8120  0.5784  0.7615
14184TIP3    H264044   5.944   4.261  13.085  2.0917 -0.0954  1.2960
14185TIP3   OH264045   4.946   5.191  16.255 -0.5594  0.7106  0.1554
14185TIP3    H164046   4.905   5.124  16.311  2.4326 -1.7665 -0.3467
14185TIP3    H264047   5.001   5.242  16.315  1.6356 -1.1107 -0.1928
14186TIP3   OH264048   0.600   3.979   3.753  0.0808  0.4621 -0.7194
14186TIP3    H164049   0.653   3.988   3.832  1.7662 -1.0243 -1.6081
14186TIP3    H264050   0.625   4.053   3.698 -0.1723  0.8016 -0.3817
14187TIP3   OH264051   4.066   6.757   0.565 -0.5651  0.3222 -0.4581
14187TIP3    H164052   3.995   6.820   0.552 -1.4092 -0.8360 -1.6861
14187TIP3    H264053   4.048   6.719   0.651 -2.1584 -0.8040 -1.2420
14188TIP3   OH264054   5.119   5.423  11.421  0.3131 -0.1314 -0.5921
14188TIP3    H164055   5.148   5.333  11.434  1.4967  0.4713  1.2614
14188TIP3    H264056   5.023   5.418  11.429  0.3247 -1.2712 -0.9364
14189TIP3   OH264057   2.187   6.801   2.604  0.2309  0.3394  0.4365
14189TIP3    H164058   2.225   6.787   2.690  0.4571  0.0949  0.2963
14189TIP3    H264059   2.142   6.885   2.611 -0.6377 -0.1568  1.1086
14190TIP3   OH264060   2.262   3.330   5.294  0.1824  0.4485 -0.5717
14190TIP3    H164061   2.348   3.322   5.252 -0.1798 -1.3548 -1.0615
14190TIP3    H264062   2.200   3.335   5.221 -0.2069  0.4840 -0.2412
14191TIP3   OH264063   0.024   4.437   4.174 -0.0972  0.4807  1.1642
14191TIP3    H164064  -0.069   4.458   4.185 -0.1897  0.1362  1.0713
14191TIP3    H264065   0.043   4.459   4.083 -0.3892 -0.5238  0.8413
14192TIP3   OH264066   1.285   4.117  11.825 -0.0092  0.1700  0.1463
14192TIP3    H164067   1.280   4.072  11.909 -1.1462  0.8852  0.4717
14192TIP3    H264068   1.253   4.205  11.843  1.6479  0.9744 -0.6038
14193TIP3   OH264069   2.581   1.488  14.956  0.2811  0.1202 -0.2284
14193TIP3    H164070   2.616   1.571  14.922 -1.3097  1.0789  0.3532
14193TIP3    H264071   2.647   1.458  15.018 -0.3542  2.5042  1.7640
14194TIP3   OH264072   2.070   3.485  16.419 -0.7661 -0.0048 -0.0720
14194TIP3    H164073   2.073   3.408  16.362 -0.7882  1.0815 -1.6017
14194TIP3    H264074   1.976   3.502  16.430 -0.7593  0.4481 -0.6659
14195TIP3   OH264075   1.646   1.771  15.940  0.3055 -0.1238  0.5191
14195TIP3    H164076   1.699   1.720  15.878  1.3398  0.3003  1.0203
14195TIP3    H264077   1.596   1.706  15.988  1.2191 -0.6477  0.7883
14196TIP3   OH264078   6.285   2.331  16.126 -0.1276 -0.4922 -0.3397
14196TIP3    H164079   6.369   2.348  16.085 -0.1056 -0.7994 -0.4286
14196TIP3    H264080   6.294   2.243  16.163 -0.0643 -0.1356  0.5235
14197TIP3   OH264081   5.633   0.294  12.862 -0.4536  0.1528 -0.1431
14197TIP3    H164082   5.599   0.335  12.783 -0.9127  2.1296  1.0164
14197TIP3    H264083   5.712   0.343  12.883  0.0032 -0.7461  0.2963
14198TIP3   OH264084   6.017   0.468  14.696  0.1006  0.0454 -0.5021
14198TIP3    H164085   6.007   0.433  14.608  1.3493  0.1925 -0.7134
14198TIP3    H264086   6.111   0.472  14.711 -0.0542 -1.8627  1.6154
14199TIP3   OH264087   2.513   4.255   3.772 -0.3283  0.1373 -0.0034
14199TIP3    H164088   2.593   4.306   3.759  0.0416 -0.5890 -0.6484
14199TIP3    H264089   2.477   4.243   3.684  0.5815 -2.2672 -0.1303
14200TIP3   OH264090   2.760   3.453  14.984 -0.3761 -0.0361 -0.1278
14200TIP3    H164091   2.730   3.380  15.038  0.3978  0.6827  1.3540
14200TIP3    H264092   2.854   3.439  14.976 -0.1092  1.0849  0.7109
14201TIP3   OH264093   3.720   6.255  12.561 -0.2696  0.5868 -0.0571
14201TIP3    H164094   3.750   6.205  12.637  2.0888  0.7609 -0.7953
14201TIP3    H264095   3.679   6.333  12.598 -0.8950 -0.2430  1.0512
14202TIP3   OH264096   5.433   6.156   3.485  0.6980 -0.3480  0.6164
14202TIP3    H164097   5.453   6.234   3.433 -2.2789  1.8682  2.4809
14202TIP3    H264098   5.504   6.152   3.549  0.8126  0.9861  0.6203
14203TIP3   OH264099   3.069   0.178   0.380 -0.2637  0.4853 -0.3883
14203TIP3    H164100   3.088   0.240   0.449  1.8500 -0.1485 -0.3275
14203TIP3    H264101   3.138   0.193   0.315 -0.5121 -0.8535 -0.9954
14204TIP3   OH264102   1.478   0.366   5.933 -0.2108  0.0217 -0.7448
14204TIP3    H164103   1.522   0.433   5.986  0.7014  0.9116 -2.5194
14204TIP3    H264104   1.404   0.412   5.892 -0.6552 -0.5362 -0.5856
14205TIP3   OH264105   1.078   6.613   5.391 -0.1585  0.2704  0.4149
14205TIP3    H164106   1.006   6.677   5.393  1.5162  2.2491  0.6984
14205TIP3    H264107   1.097   6.596   5.483 -0.1690 -0.1398  0.3410
14206TIP3   OH264108   2.497   1.564  10.508  0.0295  0.0200  0.8512
14206TIP3    H164109   2.485   1.483  10.558 -1.3369 -0.8269 -0.7354
14206TIP3    H264110   2.582   1.554  10.467 -0.1527 -0.6581  0.6213
14207TIP3   OH264111   6.252   4.718  16.771  0.4444 -0.2845  0.2591
14207TIP3    H164112   6.182   4.729  16.707 -0.6763 -3.5288  0.7328
14207TIP3    H264113   6.333   4.731  16.721 -0.4499  0.6788 -0.9728
14208TIP3   OH264114   3.263   0.512   1.645  0.3197 -0.5681  0.6015
14208TIP3    H164115   3.356   0.532   1.651  0.4165 -0.3266 -1.1998
14208TIP3    H264116   3.258   0.417   1.655  0.8886 -0.7007 -0.2126
14209TIP3   OH264117   5.921   3.455   2.033 -0.5690  0.2083  0.3865
14209TIP3    H164118   5.874   3.485   2.111 -1.1424 -0.2114  0.2096
14209TIP3    H264119   5.937   3.534   1.982  2.2514  0.9716  2.1692
14210TIP3   OH264120   4.860   1.307  15.289  0.7969  0.0878  0.6822
14210TIP3    H164121   4.893   1.218  15.305 -2.6230 -1.6958 -0.9478
14210TIP3    H264122   4.788   1.317  15.351 -0.2006  0.7953 -0.5403
14211TIP3   OH264123   4.792   4.531   2.419 -0.2230 -0.1031  0.0715
14211TIP3    H164124   4.771   4.567   2.505 -0.9258  0.6682 -0.4014
14211TIP3    H264125   4.721   4.561   2.362 -0.0904 -1.0983 -0.6560
14212TIP3   OH264126   4.812   4.220   1.039 -1.0622 -0.1905  0.2254
14212TIP3    H164127   4.901   4.183   1.039 -1.1927 -0.5173  1.0312
14212TIP3    H264128   4.786   4.218   0.947  0.0667  0.6659 -0.1408
14213TIP3   OH264129   2.828   3.924  11.354  0.5287 -0.5416  0.4507
14213TIP3    H164130   2.779   3.976  11.417 -0.1598 -2.5750  1.7062
14213TIP3    H264131   2.760   3.883  11.299  0.9182 -1.5005  0.6632
14214TIP3   OH264132   4.901   4.084  12.536 -0.5535  0.0257  0.0933
14214TIP3    H164133   4.901   4.014  12.471  1.8819  1.1429 -1.2839
14214TIP3    H264134   4.976   4.064  12.593  0.0269  1.3161 -0.1741
14215TIP3   OH264135   1.142   4.705  10.865 -0.5062 -0.4352  0.1203
14215TIP3    H164136   1.144   4.690  10.770 -0.2547 -2.2174  0.3617
14215TIP3    H264137   1.218   4.761  10.882 -0.8972  0.3882 -0.7945
14216TIP3   OH264138   3.481   0.565  12.076  0.6408  0.4505  0.1197
14216TIP3    H164139   3.547   0.619  12.120  0.3583  1.0931 -0.2340
14216TIP3    H264140   3.400   0.584  12.123  0.5881  0.1214  0.1652
14217TIP3   OH264141   4.371   6.086   5.150 -0.5914  0.0323 -0.2633
14217TIP3    H164142   4.353   6.021   5.218 -0.3829  0.1681 -0.0721
14217TIP3    H264143   4.311   6.158   5.170  1.3344  1.2781  1.4889
14218TIP3   OH264144   2.597   5.271   2.165  0.2820  0.2274  0.8133
14218TIP3    H164145   2.572   5.360   2.188  0.0384  0.3391  0.1450
14218TIP3    H264146   2.514   5.229   2.138  0.4873 -0.0174  0.5503
14219TIP3   OH264147   0.007   4.424  11.616 -0.0824  0.0879  0.5013
14219TIP3    H164148   0.068   4.472  11.559 -0.8280  0.6832  0.1837
14219TIP3    H264149  -0.025   4.352  11.561 -0.7949  0.6575  0.1549
14220TIP3   OH264150   3.782   4.710  13.615  0.0779 -0.5371 -0.6132
14220TIP3    H164151   3.763   4.681  13.704  2.1763 -0.2861 -0.0122
14220TIP3    H264152   3.800   4.803  13.624 -1.1633 -0.1738 -1.5917
14221TIP3   OH264153   6.680   4.405  13.451  0.1865 -0.2814 -0.2298
14221TIP3    H164154   6.661   4.499  13.451 -1.7420 -0.5862 -2.1934
14221TIP3    H264155   6.718   4.389  13.364 -1.0623 -1.5430 -0.5819
14222TIP3   OH264156   4.628   6.600  11.518 -0.6857 -0.0280 -0.2382
14222TIP3    H164157   4.669   6.684  11.536 -1.3136 -0.1170  1.8752
14222TIP3    H264158   4.539   6.608  11.552 -1.0586 -1.2424 -0.8439
14223TIP3   OH264159   5.112   6.228  15.986  0.4670 -0.2361  0.6203
14223TIP3    H164160   5.057   6.297  16.024  0.0194 -0.1589 -0.1418
14223TIP3    H264161   5.200   6.264  15.988  0.1778  0.5668 -0.1979
14224TIP3   OH264162   6.193   0.939  14.484 -0.3058  0.1089 -0.0975
14224TIP3    H164163   6.149   0.948  14.568  3.0998 -2.1580  2.2178
14224TIP3    H264164   6.243   1.020  14.475 -2.4016  1.3357 -1.1708
14225TIP3   OH264165   2.968   3.627  11.824  0.2508 -0.9911  0.5443
14225TIP3    H164166   3.058   3.648  11.849  0.2663  0.5296 -0.6192
14225TIP3    H264167   2.915   3.688  11.876  0.1523  0.5766 -1.2756
14226TIP3   OH264168   2.596   6.678   5.384  0.1906 -0.0536 -0.6052
14226TIP3    H164169   2.521   6.731   5.413  1.4508  0.4659  2.0057
14226TIP3    H264170   2.672   6.721   5.423  1.8790 -0.6454 -3.0611
14227TIP3   OH264171   1.788   0.956   5.547  0.0006  0.7930 -0.3080
14227TIP3    H164172   1.804   0.943   5.453 -0.7557 -0.4835 -0.2861
14227TIP3    H264173   1.851   0.899   5.590 -1.7332 -1.1102 -0.1430
14228TIP3   OH264174   4.687   1.576   5.824 -0.0182 -0.6254  0.8389
14228TIP3    H164175   4.596   1.545   5.831  0.1508 -1.6881 -1.0106
14228TIP3    H264176   4.687   1.660   5.870 -2.2634  0.0123 -0.1726
14229TIP3   OH264177   5.276   3.343  10.634 -0.1002  0.7576 -0.3031
14229TIP3    H164178   5.266   3.387  10.719 -1.3403  0.1091 -0.0818
14229TIP3    H264179   5.328   3.403  10.581 -0.8195  1.9973  0.3496
14230TIP3   OH264180   5.631   0.593  15.340 -0.1511  0.1790  0.6797
14230TIP3    H164181   5.619   0.681  15.376 -1.4091 -0.1294  1.0469
14230TIP3    H264182   5.560   0.583  15.277  2.1896  0.8479 -2.3393
14231TIP3   OH264183   4.841   4.474  11.526 -0.3605  1.1343 -0.3285
14231TIP3    H164184   4.884   4.423  11.457 -1.8285 -1.3386  0.4397
14231TIP3    H264185   4.760   4.425  11.544 -0.1838  1.8405  2.9400
14232TIP3   OH264186   1.113   6.179  14.728 -0.3482 -0.5706  0.4059
14232TIP3    H164187   1.046   6.245  14.743 -1.3960 -1.4514 -0.2495
14232TIP3    H264188   1.084   6.132  14.650 -1.0414 -3.5014  2.2599
14233TIP3   OH264189   2.019   6.014  16.327  0.1234  0.1643  0.1285
14233TIP3    H164190   2.059   6.081  16.272  1.5098  0.1265  1.0553
14233TIP3    H264191   1.958   6.063  16.383  0.1801  0.4647 -0.0664
14234TIP3   OH264192   3.884   4.134   4.766 -0.0627 -0.3774 -0.0317
14234TIP3    H164193   3.976   4.161   4.763 -0.4854  1.0826 -1.5291
14234TIP3    H264194   3.865   4.103   4.678 -1.4548  1.0976 -0.2977
14235TIP3   OH264195   1.094   5.721   2.664  0.3136 -0.3791  0.4966
14235TIP3    H164196   1.037   5.686   2.596 -1.0242 -0.1063  1.4236
14235TIP3    H264197   1.122   5.806   2.631  1.6092 -1.2163 -0.7032
14236TIP3   OH264198   5.881   3.180  13.931 -0.6222  0.2062 -0.1337
14236TIP3    H164199   5.797   3.161  13.889 -1.2301 -0.0488  1.1407
14236TIP3    H264200   5.946   3.158  13.865 -1.5389 -0.1212 -0.9607
14237TIP3   OH264201   6.779   3.548   1.933  0.3057 -0.2381 -0.3383
14237TIP3    H164202   6.789   3.612   1.862  0.8479  0.1174  0.0569
14237TIP3    H264203   6.686   3.527   1.932 -0.1770  1.6736  0.4842
14238TIP3   OH264204   4.183   3.495  11.347  0.1131  0.2775  0.4533
14238TIP3    H164205   4.230   3.414  11.326 -1.3772 -0.8736  1.4064
14238TIP3    H264206   4.196   3.506  11.441 -1.8598 -0.3265  0.8325
14239TIP3   OH264207   0.017   1.753  13.173 -0.6318 -0.3476  0.3608
14239TIP3    H164208   0.053   1.670  13.205 -0.4241 -0.3805  0.0430
14239TIP3    H264209  -0.030   1.789  13.248 -0.8749 -0.8384  0.4466
14240TIP3   OH264210   4.260   0.681  16.923  0.0661 -0.0719  0.1078
14240TIP3    H164211   4.339   0.675  16.869  0.7075  1.0850  0.8903
14240TIP3    H264212   4.251   0.774  16.943 -1.4986 -0.1819  0.0525
14241TIP3   OH264213   5.866   2.856   3.303 -0.4345  0.3619  0.0848
14241TIP3    H164214   5.922   2.929   3.275  1.8705 -0.6613  1.7158
14241TIP3    H264215   5.859   2.801   3.225 -0.5927  1.3513 -0.6207
14242TIP3   OH264216   0.780   0.970   0.921 -0.0283 -0.2415  0.4611
14242TIP3    H164217   0.807   0.889   0.878 -1.1571 -1.0777  1.2778
14242TIP3    H264218   0.833   0.975   1.000  1.1089  0.6148 -0.3322
14243TIP3   OH264219   3.674   3.102   5.267 -0.8868 -0.3868  0.6278
14243TIP3    H164220   3.628   3.181   5.241 -0.2113 -0.0607  0.4051
14243TIP3    H264221   3.767   3.127   5.268 -0.7833 -0.7724  1.9974
14244TIP3   OH264222   5.040   5.814   6.829  0.1947 -0.7005 -0.4859
14244TIP3    H164223   4.971   5.862   6.783 -0.0055  0.2103  0.7202
14244TIP3    H264224   5.114   5.874   6.831  0.1646 -0.6804  0.4567
14245TIP3   OH264225   3.303   6.474  14.443  0.2554  0.5364  0.4297
14245TIP3    H164226   3.301   6.523  14.525 -1.2863  1.5741 -0.1869
14245TIP3    H264227   3.228   6.507  14.393 -0.6052 -2.1210 -0.2198
14246TIP3   OH264228   0.757   0.504   4.583  0.6935 -0.7123 -0.1551
14246TIP3    H164229   0.723   0.416   4.598  1.6037 -1.3999 -1.8364
14246TIP3    H264230   0.682   0.554   4.551  0.1616 -0.8275  0.8589
14247TIP3   OH264231   6.039   1.334  12.969 -0.6461  0.6979 -0.7084
14247TIP3    H164232   6.069   1.277  12.898 -1.8378  0.2109 -0.8602
14247TIP3    H264233   6.057   1.423  12.939 -0.8027  0.4797 -1.4626
14248TIP3   OH264234   2.555   6.020  13.102  0.3091  0.8098  0.7518
14248TIP3    H164235   2.577   5.979  13.018  1.3209  2.1686  0.3226
14248TIP3    H264236   2.460   6.033  13.097  0.0765 -0.8011  0.6122
14249TIP3   OH264237   4.658   6.731   5.095  0.3823 -0.0054  0.6577
14249TIP3    H164238   4.568   6.721   5.063  0.7800 -2.4309  0.0749
14249TIP3    H264239   4.661   6.678   5.174  1.1075  0.7459  1.1497
14250TIP3   OH264240   6.671   6.421   2.529 -0.4941  0.1864  0.0040
14250TIP3    H164241   6.678   6.496   2.587 -1.2633  0.2327  0.0505
14250TIP3    H264242   6.577   6.402   2.526 -0.2661 -1.1203  0.4491
14251TIP3   OH264243   3.521   3.789  15.568  0.1862  0.0970  0.1152
14251TIP3    H164244   3.452   3.762  15.507 -0.1243 -0.7172  0.8085
14251TIP3    H264245   3.603   3.778  15.519 -0.0318 -0.9537 -0.0314
14252TIP3   OH264246   6.518   5.358   3.871 -0.3870  0.4039 -0.2427
14252TIP3    H164247   6.498   5.356   3.778 -1.1663  0.9187 -0.1002
14252TIP3    H264248   6.608   5.390   3.876  0.4462 -1.6811 -0.9038
14253TIP3   OH264249   2.115   3.155   3.657  0.1848  0.2229  0.3999
14253TIP3    H164250   2.083   3.197   3.576 -0.6917 -0.5273  0.3340
14253TIP3    H264251   2.041   3.161   3.717 -0.1542 -1.6459  0.2213
14254TIP3   OH264252   4.109   5.830  17.002 -0.1882 -0.3298 -0.4489
14254TIP3    H164253   4.152   5.911  16.975 -1.4001 -0.0055 -1.5132
14254TIP3    H264254   4.145   5.811  17.089 -0.0459  1.4662 -0.0818
14255TIP3   OH264255   0.841   5.978  11.207  0.0803 -0.2088  0.2196
14255TIP3    H164256   0.914   5.924  11.238  0.0450  0.0125  0.7025
14255TIP3    H264257   0.804   6.016  11.287 -0.4415 -0.1614 -0.0369
14256TIP3   OH264258   5.603   4.639  14.734  0.5403  0.2193  0.1256
14256TIP3    H164259   5.579   4.688  14.813  0.2634 -0.8068  0.7011
14256TIP3    H264260   5.519   4.624  14.689  0.4622 -0.6961  0.5466
14257TIP3   OH264261   6.396   2.815  11.262  0.2211 -0.7856  0.2599
14257TIP3    H164262   6.387   2.725  11.229  1.0117 -0.7441 -0.0872
14257TIP3    H264263   6.324   2.824  11.325 -0.3418 -1.3985 -0.2762
14258TIP3   OH264264   3.892   3.186   0.957  0.1546 -0.0616  0.1329
14258TIP3    H164265   3.871   3.259   0.898 -2.2858 -0.6598  0.1697
14258TIP3    H264266   3.898   3.226   1.044 -2.0692  0.0576  0.2950
14259TIP3   OH264267   4.192   5.994   4.746 -0.5817 -0.1280  0.6762
14259TIP3    H164268   4.115   5.947   4.716 -2.1117  0.8779  2.7543
14259TIP3    H264269   4.225   5.942   4.820  0.0037  0.0848  0.5723
14260TIP3   OH264270   0.292   2.490   1.937  0.1363  0.1134 -0.0635
14260TIP3    H164271   0.302   2.535   1.853 -1.5016 -1.5585 -1.2528
14260TIP3    H264272   0.197   2.475   1.945 -0.1038  2.2257  3.2540
14261TIP3   OH264273   0.741   2.698  15.428 -0.0541  0.2757 -0.0199
14261TIP3    H164274   0.832   2.724  15.436 -0.4629  1.8941 -0.2424
14261TIP3    H264275   0.742   2.626  15.364  1.2329 -1.0623  1.4133
14262TIP3   OH264276   2.679   2.858  11.867  0.2778 -0.3088  0.2614
14262TIP3    H164277   2.713   2.947  11.861  0.0044 -0.1922  0.4309
14262TIP3    H264278   2.598   2.866  11.917 -0.7914 -0.3609 -1.3660
14263TIP3   OH264279   6.011   0.574   4.724  0.0389  0.5114  0.5127
14263TIP3    H164280   6.043   0.607   4.640  1.3049 -1.7330  0.0386
14263TIP3    H264281   6.090   0.564   4.777 -0.0293 -2.8567  0.1664
14264TIP3   OH264282   2.082   4.012   3.210  0.3247  0.4053 -0.3965
14264TIP3    H164283   1.999   4.044   3.174  0.4013 -0.6074 -1.5323
14264TIP3    H264284   2.137   4.090   3.218 -0.3657  0.9232 -0.6497
14265TIP3   OH264285   3.489   5.736  11.058  0.0008 -0.1462  0.0369
14265TIP3    H164286   3.568   5.789  11.066  0.1792 -0.5590  1.1577
14265TIP3    H264287   3.520   5.650  11.031  0.0498 -0.5968  1.4819
14266TIP3   OH264288   5.189   2.457   5.194  0.2919 -0.1298  0.2713
14266TIP3    H164289   5.170   2.388   5.131  2.4081 -1.0546  0.5491
14266TIP3    H264290   5.106   2.476   5.236 -0.8156 -0.7548 -1.5285
14267TIP3   OH264291   3.738   1.896  12.730  0.2905 -0.6330 -0.3013
14267TIP3    H164292   3.800   1.834  12.693 -0.0500 -1.0435 -0.1874
14267TIP3    H264293   3.705   1.946  12.655  1.5600  0.3403 -0.2479
14268TIP3   OH264294   2.849   2.553  13.754 -0.1718 -0.0806  0.3440
14268TIP3    H164295   2.898   2.516  13.827 -1.0065  1.8214  1.9700
14268TIP3    H264296   2.916   2.596  13.700  0.7197 -3.1236 -1.2171
14269TIP3   OH264297   4.539   4.404   6.675  0.1726  0.1212  0.4474
14269TIP3    H164298   4.604   4.447   6.731  0.6515 -0.1918  0.1476
14269TIP3    H264299   4.456   4.442   6.700  0.3423 -0.2017  1.5533
14270TIP3   OH264300   4.620   5.843   2.510 -0.4251  0.2827 -0.1689
14270TIP3    H164301   4.571   5.842   2.593  0.4233  1.1663  0.3551
14270TIP3    H264302   4.711   5.850   2.536  0.0581 -1.6317 -1.1320
14271TIP3   OH264303   2.136   1.633   0.543 -0.0867 -0.3003 -0.7935
14271TIP3    H164304   2.175   1.583   0.615  1.2432  0.4077 -1.0108
14271TIP3    H264305   2.044   1.642   0.569  0.4548  0.3618  1.0920
14272TIP3   OH264306   4.336   1.750   3.125  0.5029  0.3530 -0.7849
14272TIP3    H164307   4.304   1.660   3.132  0.2342  0.4529 -0.6929
14272TIP3    H264308   4.292   1.784   3.047 -0.0594  0.6706 -0.3328
14273TIP3   OH264309   1.699   6.776  11.836  0.3581 -0.4608 -0.0622
14273TIP3    H164310   1.701   6.755  11.743  0.9266 -2.5995  0.3723
14273TIP3    H264311   1.733   6.698  11.879 -0.0418  0.4080  1.9671
14274TIP3   OH264312   0.986   1.007  16.882  0.1664 -0.2810  0.3274
14274TIP3    H164313   1.039   0.943  16.929  0.6407  0.4283  0.7991
14274TIP3    H264314   1.006   1.090  16.925  0.1096  0.2952 -0.7085
14275TIP3   OH264315   3.920   4.799  11.781  0.1362  0.1234 -0.0157
14275TIP3    H164316   3.829   4.808  11.808  0.1107  0.1637 -0.1154
14275TIP3    H264317   3.970   4.842  11.850  0.2335 -1.8804  1.2361
14276TIP3   OH264318   3.922   0.370  15.183 -0.7938  0.2081  0.5114
14276TIP3    H164319   3.871   0.411  15.114 -0.4655  1.7867  1.1762
14276TIP3    H264320   3.888   0.280  15.188 -2.3015  0.7124 -0.2150
14277TIP3   OH264321   1.415   4.619   0.050  0.1797  0.1397  1.0136
14277TIP3    H164322   1.345   4.581   0.104 -0.8524  1.6629  0.8259
14277TIP3    H264323   1.432   4.554  -0.018 -2.4936  0.5207 -0.1393
14278TIP3   OH264324   0.868   0.161  14.861 -0.6184  0.1485 -0.1825
14278TIP3    H164325   0.952   0.175  14.905 -1.4166  1.3796  1.0408
14278TIP3    H264326   0.839   0.249  14.836 -1.7269 -0.2131 -0.2190
14279TIP3   OH264327   3.186   2.934   2.915  0.6340 -0.5670  0.4504
14279TIP3    H164328   3.243   2.999   2.873 -0.0130 -0.0952  0.2840
14279TIP3    H264329   3.183   2.861   2.854  0.2234 -0.1565 -0.0289
14280TIP3   OH264330   4.976   2.939   5.256 -0.1211 -0.2523 -0.7090
14280TIP3    H164331   4.962   3.025   5.216  0.0157 -0.3441 -0.9498
14280TIP3    H264332   5.002   2.959   5.346 -0.0079 -0.0376 -0.7884
14281TIP3   OH264333   1.287   2.804  13.148 -0.0965  0.0200  0.0156
14281TIP3    H164334   1.334   2.727  13.180 -0.0516 -0.0194 -0.1452
14281TIP3    H264335   1.223   2.823  13.216  1.8367  1.6409  1.5162
14282TIP3   OH264336   2.666   1.086  12.980  0.0925  0.7229  0.3237
14282TIP3    H164337   2.588   1.037  12.954 -0.2704  0.9139  1.0111
14282TIP3    H264338   2.636   1.177  12.987  0.3115  0.7602  0.8307
14283TIP3   OH264339   4.235   3.832   5.800  0.1675  0.4080 -0.2887
14283TIP3    H164340   4.251   3.800   5.889 -0.9539  0.7576  0.0465
14283TIP3    H264341   4.175   3.769   5.762  2.5899 -1.2086 -1.7424
14284TIP3   OH264342   4.729   6.627   6.548 -0.0117 -0.3508  0.1215
14284TIP3    H164343   4.651   6.644   6.601  0.4067 -0.5053  0.7983
14284TIP3    H264344   4.747   6.534   6.561 -0.5478 -0.6636 -1.1886
14285TIP3   OH264345   4.288   6.312  15.498 -0.5617 -0.4433  0.6390
14285TIP3    H164346   4.281   6.261  15.417  2.2291  0.7734 -0.5220
14285TIP3    H264347   4.340   6.257  15.556 -0.7157 -0.4319  0.7873
14286TIP3   OH264348   1.166   1.162   4.638 -0.2523  0.3981  0.5453
14286TIP3    H164349   1.121   1.084   4.672  1.3123 -0.5552  0.5555
14286TIP3    H264350   1.258   1.147   4.661  0.1514  2.0233  0.0754
14287TIP3   OH264351   0.301   6.354   0.099  0.0250  0.8466  0.2892
14287TIP3    H164352   0.239   6.424   0.078 -0.6040 -0.3238 -2.1610
14287TIP3    H264353   0.383   6.381   0.057 -0.0847  0.3505 -0.2532
14288TIP3   OH264354   5.658   2.109   0.037  0.2318 -0.3809 -0.0209
14288TIP3    H164355   5.607   2.084  -0.040 -0.7556 -0.5775  0.6829
14288TIP3    H264356   5.689   2.198   0.017 -0.0381 -0.4197 -0.6246
14289TIP3   OH264357   3.261   5.978   6.464 -0.0089  0.5139 -0.8184
14289TIP3    H164358   3.303   5.908   6.415  0.7000 -0.3809  0.9615
14289TIP3    H264359   3.332   6.038   6.487 -0.6053  1.8778 -2.3131
14290TIP3   OH264360   3.125   1.285  13.890 -0.1166  0.1629  0.3689
14290TIP3    H164361   3.195   1.349  13.874 -0.4665  0.8535  1.4423
14290TIP3    H264362   3.049   1.321  13.845  0.1521 -0.4825 -0.6245
14291TIP3   OH264363   4.696   6.119  13.246  0.0416 -0.6407  0.0489
14291TIP3    H164364   4.613   6.126  13.293  0.5079 -0.3311  0.8535
14291TIP3    H264365   4.694   6.032  13.206 -0.8703 -0.4482 -0.3392
14292TIP3   OH264366   3.001   3.502  16.579 -0.2466 -0.1583  0.4502
14292TIP3    H164367   3.080   3.539  16.540 -1.1251  2.2200  0.7390
14292TIP3    H264368   3.027   3.477  16.668  0.6844 -1.4967 -0.1727
14293TIP3   OH264369   2.314   0.441   1.084 -0.2739  0.0612 -0.1372
14293TIP3    H164370   2.358   0.492   1.153 -0.4188 -2.2666  1.8089
14293TIP3    H264371   2.259   0.505   1.039  0.6862  1.9140  1.1448
14294TIP3   OH264372   0.507   2.392  10.918 -0.1193 -0.0688 -0.6565
14294TIP3    H164373   0.527   2.435  10.834 -1.7999  0.3578 -0.8702
14294TIP3    H264374   0.430   2.438  10.951  1.0369  0.3867  1.6049
14295TIP3   OH264375   2.662   2.192   1.620  0.1871 -0.5664  0.5807
14295TIP3    H164376   2.617   2.167   1.539  0.3952 -0.4512  0.4296
14295TIP3    H264377   2.674   2.286   1.613  0.9778 -0.6845  0.3589
14296TIP3   OH264378   2.529   1.376   0.261  0.0480 -0.0986 -0.1881
14296TIP3    H164379   2.527   1.421   0.176 -1.2540 -1.4541 -0.9220
14296TIP3    H264380   2.452   1.409   0.307  0.4931  0.2805  0.2963
14297TIP3   OH264381   4.010   3.547  12.406  0.2727  0.1004  0.1825
14297TIP3    H164382   3.972   3.598  12.335  1.7807  1.4154  0.2587
14297TIP3    H264383   3.952   3.563  12.481  1.2476  2.6632  0.5076
14298TIP3   OH264384   1.440   0.132   1.181 -0.0498 -0.7074 -0.0817
14298TIP3    H164385   1.523   0.094   1.209  0.4232 -0.9847 -1.7575
14298TIP3    H264386   1.462   0.186   1.105 -1.3598 -0.5688 -0.4010
14299TIP3   OH264387   0.482   6.787  12.572 -0.3493 -0.7546 -0.5025
14299TIP3    H164388   0.540   6.860  12.595 -1.1314 -0.8088  1.8878
14299TIP3    H264389   0.425   6.822  12.503  0.1927  0.4273 -0.3745
14300TIP3   OH264390   5.215   0.847   3.725 -0.0497 -0.0795 -0.1404
14300TIP3    H164391   5.296   0.876   3.682  0.3064 -0.8615 -0.0180
14300TIP3    H264392   5.209   0.901   3.803 -1.1081  1.9069 -1.5011
14301TIP3   OH264393   4.911   5.113  16.573  0.5903 -0.1341 -0.3566
14301TIP3    H164394   4.854   5.185  16.598 -0.7028 -1.7048  1.4487
14301TIP3    H264395   4.973   5.105  16.646 -0.4231 -1.9524  0.3559
14302TIP3   OH264396   4.168   2.043  11.207  0.3847  0.2525 -0.0479
14302TIP3    H164397   4.224   2.007  11.276 -0.1694 -0.2526  0.1539
14302TIP3    H264398   4.079   2.022  11.236  0.1675 -0.4809 -1.1849
14303TIP3   OH264399   5.946   0.336  13.936  0.1250  0.6596  0.1978
14303TIP3    H164400   5.997   0.258  13.958 -1.3563 -0.8197 -1.3317
14303TIP3    H264401   5.861   0.323  13.978 -0.9774  0.2053 -2.0048
14304TIP3   OH264402   2.390   0.524  16.723 -0.2061  0.1695 -0.2312
14304TIP3    H164403   2.362   0.596  16.779 -1.3259 -0.6559  0.3141
14304TIP3    H264404   2.343   0.538  16.641 -0.4860  0.0304 -0.0975
14305TIP3   OH264405   1.875   0.253   3.458  0.1354  0.0367  0.5566
14305TIP3    H164406   1.859   0.334   3.409 -0.7241 -0.5635 -0.1797
14305TIP3    H264407   1.929   0.200   3.400 -0.8191 -0.6445  0.2737
14306TIP3   OH264408   5.471   3.593   3.765  0.2761  0.1170  0.8206
14306TIP3    H164409   5.441   3.609   3.854 -1.0936  0.4546  0.3278
14306TIP3    H264410   5.396   3.551   3.722  1.0575 -0.4160 -0.0627
14307TIP3   OH264411   1.704   5.608  13.210  0.5437 -0.0708 -0.3586
14307TIP3    H164412   1.786   5.657  13.217  1.7998 -2.2496  1.7442
14307TIP3    H264413   1.660   5.624  13.293  0.0783 -0.9443 -0.4300
14308TIP3   OH264414   2.726   6.350   3.700 -0.2147 -0.2982 -0.0807
14308TIP3    H164415   2.636   6.381   3.711 -0.1137  0.0601 -0.2317
14308TIP3    H264416   2.718   6.272   3.646 -0.4629 -0.4393  0.1597
14309TIP3   OH264417   1.932   0.916  11.153  0.4642  0.1042  0.4089
14309TIP3    H164418   2.007   0.859  11.171 -0.4449 -1.7111 -1.2116
14309TIP3    H264419   1.857   0.868  11.189 -0.2687  0.4494 -0.6164
14310TIP3   OH264420   0.439   4.376   4.643 -0.4269 -0.2751  0.1832
14310TIP3    H164421   0.381   4.309   4.606  1.7368 -1.8575 -0.5236
14310TIP3    H264422   0.448   4.352   4.735 -0.8247 -0.0468  0.2861
14311TIP3   OH264423   2.089   3.808   4.738 -0.6314 -0.2105  0.1482
14311TIP3    H164424   2.053   3.873   4.798  0.9259  0.0134  0.8757
14311TIP3    H264425   2.100   3.730   4.791  0.1143 -0.2195 -0.0128
14312TIP3   OH264426   3.622   2.647   3.703 -0.0483  0.0370 -0.0288
14312TIP3    H164427   3.704   2.647   3.653 -0.1480  1.7061 -0.2705
14312TIP3    H264428   3.613   2.738   3.733 -1.5791 -0.2202  0.3775
14313TIP3   OH264429   0.869   5.438  15.821 -0.4593  0.6896 -0.2993
14313TIP3    H164430   0.933   5.467  15.756 -2.1431  3.2448 -0.9443
14313TIP3    H264431   0.787   5.428  15.772 -1.2319  0.3581  1.0021
14314TIP3   OH264432   4.345   3.699   6.036  0.0195 -0.7650 -0.0394
14314TIP3    H164433   4.375   3.772   6.090 -0.0292 -1.2255  0.6354
14314TIP3    H264434   4.342   3.625   6.097 -1.8815 -0.8826 -0.2144
14315TIP3   OH264435   3.911   1.738  16.504 -0.2094 -0.4614 -0.1146
14315TIP3    H164436   3.850   1.808  16.479  2.2465  1.6070 -0.8187
14315TIP3    H264437   3.936   1.697  16.422  1.5251  0.7525 -0.2669
14316TIP3   OH264438   6.565   0.320  11.121  0.2437 -0.1477  0.1421
14316TIP3    H164439   6.589   0.326  11.028 -0.7815  1.2113 -0.0589
14316TIP3    H264440   6.649   0.318  11.167  0.7664 -0.8015 -0.7948
14317TIP3   OH264441   2.374   5.710   1.764 -0.0334  0.6519  0.6844
14317TIP3    H164442   2.405   5.696   1.854  0.9003 -0.5448  0.1995
14317TIP3    H264443   2.415   5.792   1.737  2.1645 -0.4803  0.3448
14318TIP3   OH264444   3.317   4.223   3.797 -0.0916 -0.1077  0.1946
14318TIP3    H164445   3.267   4.148   3.830 -0.0948 -0.3239 -0.2872
14318TIP3    H264446   3.251   4.285   3.766 -0.0719 -0.6265 -0.9492
14319TIP3   OH264447   5.342   0.322   3.770 -0.3135  0.2357  0.3492
14319TIP3    H164448   5.286   0.399   3.773 -1.7690 -0.8159  1.3589
14319TIP3    H264449   5.352   0.303   3.677  0.0419  1.5884  0.0828
14320TIP3   OH264450   2.906   4.898   2.911 -0.7468  0.0865 -0.1443
14320TIP3    H164451   2.893   4.814   2.868 -1.5980  0.3045 -0.3334
14320TIP3    H264452   2.910   4.961   2.839  0.3723  0.1606 -0.0324
14321TIP3   OH264453   4.344   3.053   4.775  0.2865 -0.4941  0.3112
14321TIP3    H164454   4.308   2.985   4.719 -2.3523  1.3043 -0.3775
14321TIP3    H264455   4.326   3.023   4.864 -1.5594 -0.4122  0.0052
14322TIP3   OH264456   6.108   5.821   0.021  0.2920  0.4503  0.0111
14322TIP3    H164457   6.136   5.778  -0.060 -1.8852  0.5711 -0.8823
14322TIP3    H264458   6.128   5.758   0.090  0.3473 -0.5154 -0.8594
14323TIP3   OH264459   0.370   5.826   1.409  0.4946  0.1582  0.0776
14323TIP3    H164460   0.433   5.860   1.345  0.7898 -2.1300 -0.9532
14323TIP3    H264461   0.380   5.731   1.404 -2.7156 -0.2915  0.2023
14324TIP3   OH264462   0.392   3.009  13.212 -0.2043  0.4519  0.6768
14324TIP3    H164463   0.481   3.043  13.218  0.0554  0.3003 -1.5792
14324TIP3    H264464   0.358   3.045  13.130 -1.2705 -1.6149  0.1494
14325TIP3   OH264465   1.117   0.967  11.410 -0.2296  0.4419  0.4315
14325TIP3    H164466   1.068   0.947  11.331  0.7556  2.0678 -0.6578
14325TIP3    H264467   1.118   1.063  11.414 -2.0120  0.4351  3.5732
14326TIP3   OH264468   3.442   0.897   2.234  0.0176 -0.3294 -0.2745
14326TIP3    H164469   3.410   0.811   2.260 -0.6679  0.7973  3.1417
14326TIP3    H264470   3.367   0.939   2.191  0.1213 -1.1500 -1.2738
14327TIP3   OH264471   0.909   5.670   3.541  0.1392  0.5049  0.3803
14327TIP3    H164472   1.000   5.701   3.539  0.3239 -0.0441 -0.1478
14327TIP3    H264473   0.911   5.586   3.493 -0.3125 -0.3947  1.8792
14328TIP3   OH264474   0.088   3.962  17.141  0.5570  0.1028  0.0760
14328TIP3    H164475   0.171   3.959  17.093  1.1322 -1.0437  1.1037
14328TIP3    H264476   0.100   3.902  17.215 -1.3736 -0.4952 -0.0385
14329TIP3   OH264477   1.482   2.682  11.578  0.1602 -0.4521 -0.0365
14329TIP3    H164478   1.522   2.656  11.494  1.5129 -1.0923  0.7691
14329TIP3    H264479   1.500   2.608  11.636  2.8394  1.5504  1.9459
14330TIP3   OH264480   5.372   3.857  12.125 -0.2120  0.2702  0.4881
14330TIP3    H164481   5.277   3.854  12.118 -0.1481 -0.4331 -0.1211
14330TIP3    H264482   5.397   3.768  12.150  0.3454  0.2360 -0.1715
14331TIP3   OH264483   5.950   3.249  13.069 -0.6786  0.5648  0.0333
14331TIP3    H164484   5.980   3.336  13.096  0.5306  0.0039  0.5680
14331TIP3    H264485   6.012   3.221  13.003 -0.1913 -0.4673  0.8910
14332TIP3   OH264486   2.042   4.585   3.512  0.3683  0.0746  0.2520
14332TIP3    H164487   1.974   4.523   3.538  0.4966  0.0451  0.5174
14332TIP3    H264488   2.055   4.641   3.588  1.4962 -0.6773  0.6479
14333TIP3   OH264489   2.413   0.320   2.327 -0.1172  0.0595  0.0349
14333TIP3    H164490   2.395   0.407   2.294  0.5004  0.1587 -0.0665
14333TIP3    H264491   2.431   0.332   2.420 -0.0837  0.0388  0.0315
14334TIP3   OH264492   5.072   2.321   2.290  0.1652  0.3039  0.0348
14334TIP3    H164493   5.071   2.381   2.365  0.5077  0.1089  0.1969
14334TIP3    H264494   5.163   2.293   2.283  0.1937  0.5759 -0.6621
14335TIP3   OH264495   4.163   2.220  13.780 -0.7116  0.1303  0.1734
14335TIP3    H164496   4.139   2.283  13.713 -0.1965  0.6505  0.4665
14335TIP3    H264497   4.111   2.244  13.856 -2.5814 -1.4953 -0.4906
14336TIP3   OH264498   2.397   3.739   1.973  0.4155  0.2018 -0.1633
14336TIP3    H164499   2.471   3.680   1.956 -0.1478 -0.1238 -1.6214
14336TIP3    H264500   2.414   3.814   1.916  0.5132  0.9265  0.8072
14337TIP3   OH264501   1.231   1.301  12.583 -1.0318  0.3474  0.4437
14337TIP3    H164502   1.147   1.292  12.538 -0.6301  1.1006 -0.4937
14337TIP3    H264503   1.225   1.240  12.657 -1.9588 -0.4574 -0.2607
14338TIP3   OH264504   2.914   0.956  12.670 -0.5523 -0.4728 -0.1782
14338TIP3    H164505   2.964   0.926  12.746 -3.5218 -2.7950  1.0849
14338TIP3    H264506   2.976   1.006  12.617  2.0958 -0.2470  2.8955
14339TIP3   OH264507   2.529   5.629   4.390 -0.3195 -0.2764  0.2600
14339TIP3    H164508   2.497   5.604   4.476 -3.2511  3.9768  0.7095
14339TIP3    H264509   2.490   5.564   4.330 -2.5886 -0.3444  1.7012
14340TIP3   OH264510   5.103   4.310  12.517 -0.0226 -0.4915 -0.6885
14340TIP3    H164511   5.059   4.341  12.438 -2.0468  0.8692  0.8692
14340TIP3    H264512   5.104   4.215  12.509  0.4060 -0.3662 -2.6039
14341TIP3   OH264513   3.109   5.580  13.019  0.2542  0.0929 -0.3885
14341TIP3    H164514   3.039   5.622  12.970  1.2207  0.6490 -1.3323
14341TIP3    H264515   3.177   5.562  12.954  0.1306 -2.4278  0.0697
14342TIP3   OH264516   5.970   0.320  11.369 -0.1957 -0.1304 -0.0163
14342TIP3    H164517   6.030   0.247  11.381 -2.1155 -1.8977 -0.4496
14342TIP3    H264518   6.006   0.369  11.296  1.1399 -0.6602  0.2616
14343TIP3   OH264519   2.234   6.496   5.572 -0.1384  0.1361 -0.4169
14343TIP3    H164520   2.197   6.584   5.571 -0.4205  0.0193 -0.6924
14343TIP3    H264521   2.318   6.505   5.615  0.2871  0.7339 -1.3450
14344TIP3   OH264522   5.152   6.493  16.112 -0.0341  0.0725  0.3042
14344TIP3    H164523   5.161   6.579  16.154  1.2626 -0.6634  1.6279
14344TIP3    H264524   5.141   6.432  16.185  0.9634 -1.1106 -0.4947
14345TIP3   OH264525   1.933   4.088  16.503 -0.1598  0.2322 -0.0866
14345TIP3    H164526   1.949   4.036  16.424 -0.9866  0.0393 -0.1364
14345TIP3    H264527   1.981   4.169  16.489  1.7834 -0.7931  0.3184
14346TIP3   OH264528   1.046   4.603   5.092 -0.0364  0.0988 -0.0331
14346TIP3    H164529   1.069   4.573   5.180  0.3379  0.0266 -0.1550
14346TIP3    H264530   0.955   4.633   5.100  0.0666  0.2963  0.4253
14347TIP3   OH264531   5.270   1.449   3.554 -0.0319 -0.5946  0.5264
14347TIP3    H164532   5.325   1.489   3.621 -0.3408  1.5902 -0.4358
14347TIP3    H264533   5.306   1.481   3.471 -2.7946  1.1844 -0.1462
14348TIP3   OH264534   4.381   3.814  15.447  0.2334  0.2294 -0.2004
14348TIP3    H164535   4.458   3.868  15.463  1.2928 -1.4545  0.6735
14348TIP3    H264536   4.392   3.784  15.356  0.6886 -0.1227 -0.0314
14349TIP3   OH264537   0.593   5.034   0.224 -0.0473  0.4793 -0.5786
14349TIP3    H164538   0.635   4.969   0.168  1.7722  0.0127  1.1990
14349TIP3    H264539   0.609   5.118   0.181 -0.1029  0.0089 -1.5434
14350TIP3   OH264540   4.083   6.259  12.317 -0.3499 -0.1219 -0.1377
14350TIP3    H164541   4.087   6.221  12.229  0.0494 -1.7316  0.5355
14350TIP3    H264542   4.003   6.312  12.316 -0.0791  0.3188 -1.6084
14351TIP3   OH264543   6.510   3.661   2.672 -0.2181 -0.4359  0.2129
14351TIP3    H164544   6.580   3.724   2.654 -0.8141  0.3599  0.5993
14351TIP3    H264545   6.447   3.675   2.601 -1.3060  0.8381  1.3757
14352TIP3   OH264546   6.440   5.957  17.076  0.1528  0.4062 -0.0656
14352TIP3    H164547   6.462   5.940  17.167  0.2126 -1.2614 -0.3618
14352TIP3    H264548   6.366   5.899  17.058  0.5524  0.2469 -1.2639
14353TIP3   OH264549   5.166   4.637  13.082 -0.2237 -0.6588 -0.2868
14353TIP3    H164550   5.099   4.681  13.030 -1.7330  0.9346  2.7371
14353TIP3    H264551   5.245   4.689  13.069 -0.7509  0.1120 -0.4498
14354TIP3   OH264552   0.550   5.422   0.806 -0.4609 -0.3394 -0.3831
14354TIP3    H164553   0.460   5.420   0.775 -0.3211 -0.2314 -0.8066
14354TIP3    H264554   0.579   5.512   0.790 -0.7537  0.0687  1.1597
14355TIP3   OH264555   2.020   4.540  12.857  0.7541  0.3698  0.1307
14355TIP3    H164556   2.111   4.512  12.848 -0.2466 -2.5212 -3.6188
14355TIP3    H264557   1.974   4.462  12.886 -0.9298  0.8222 -1.2010
14356TIP3   OH264558   6.524   4.643  13.438  0.4658 -0.3834 -0.3737
14356TIP3    H164559   6.530   4.633  13.533  1.2021 -1.6415 -0.5208
14356TIP3    H264560   6.496   4.733  13.425 -2.4907 -0.9602  1.1185
14357TIP3   OH264561   3.727   4.345   2.184  0.4413  0.3243 -0.5051
14357TIP3    H164562   3.755   4.319   2.272  1.2974 -0.2382 -0.9241
14357TIP3    H264563   3.684   4.267   2.149 -0.4859  0.7584 -0.3555
14358TIP3   OH264564   0.412   4.328   5.815 -0.1644 -0.6037 -0.2284
14358TIP3    H164565   0.334   4.285   5.781 -1.0895  2.0071 -1.6778
14358TIP3    H264566   0.463   4.349   5.736 -0.3025  1.8529  0.2860
14359TIP3   OH264567   5.451   3.413   0.742  0.1823  0.2947 -0.5260
14359TIP3    H164568   5.377   3.473   0.754  0.6299  0.4533  2.1281
14359TIP3    H264569   5.528   3.466   0.764  0.6558 -1.0126  1.1552
14360TIP3   OH264570   4.010   5.573  16.921  0.3226  0.4590 -0.2026
14360TIP3    H164571   4.059   5.649  16.951 -0.1837  0.9116 -0.4876
14360TIP3    H264572   4.007   5.582  16.826  1.1420 -0.4773 -0.3277
14361TIP3   OH264573   3.843   4.340  14.538  0.3679  0.3354 -0.2042
14361TIP3    H164574   3.783   4.390  14.483 -1.3850  0.9631  2.1232
14361TIP3    H264575   3.807   4.251  14.539  0.4268  0.3115 -0.1424
14362TIP3   OH264576   2.853   2.917   0.180 -0.0659  0.3040 -0.4360
14362TIP3    H164577   2.808   2.908   0.263 -0.5067 -1.8902 -0.8697
14362TIP3    H264578   2.943   2.940   0.204 -0.8736  2.9303  0.4722
14363TIP3   OH264579   5.829   2.356   3.722 -0.2946  0.4017 -0.4234
14363TIP3    H164580   5.918   2.363   3.687  0.3766  2.6526  1.5036
14363TIP3    H264581   5.776   2.412   3.665 -0.4137 -0.4932 -1.2269
14364TIP3   OH264582   0.774   6.503  16.475 -0.0528 -0.2020  0.2786
14364TIP3    H164583   0.735   6.569  16.532  1.3444  0.4662  0.5029
14364TIP3    H264584   0.862   6.537  16.457 -0.1039 -0.9031 -1.4334
14365TIP3   OH264585   5.695   5.101   0.033  0.2969 -0.1720  0.2968
14365TIP3    H164586   5.746   5.090  -0.047 -1.5973 -0.5545 -0.9284
14365TIP3    H264587   5.647   5.183   0.019 -0.0422 -0.2312  1.0636
14366TIP3   OH264588   2.743   6.741  15.471 -0.4112  0.1139 -0.0023
14366TIP3    H164589   2.779   6.709  15.554 -1.4022  0.9241  0.7773
14366TIP3    H264590   2.716   6.662  15.424  0.9075 -0.4053  0.0690
14367TIP3   OH264591   4.703   1.484  13.152 -0.0042  0.0830 -0.3265
14367TIP3    H164592   4.785   1.448  13.185  0.0651 -0.3427 -0.9612
14367TIP3    H264593   4.702   1.461  13.060 -1.7601 -1.6124  0.0782
14368TIP3   OH264594   4.528   2.193   0.317  0.0061  0.8727 -0.2796
14368TIP3    H164595   4.496   2.282   0.303 -0.9911  0.2841 -2.0484
14368TIP3    H264596   4.622   2.199   0.301 -0.3131  1.2987 -2.2907
14369TIP3   OH264597   5.503   0.731  16.144  0.3829 -0.8126  0.1145
14369TIP3    H164598   5.435   0.788  16.108 -1.7341 -1.9289  2.0655
14369TIP3    H264599   5.498   0.746  16.239  2.6224 -1.2491  0.3399
14370TIP3   OH264600   2.648   5.906  16.273  0.3975  0.1533  0.5160
14370TIP3    H164601   2.708   5.928  16.345 -0.6761 -1.2978  1.9366
14370TIP3    H264602   2.590   5.982  16.266  2.0355  1.3682 -0.5524
14371TIP3   OH264603   2.556   2.688   0.562  0.1884  0.4688 -0.6106
14371TIP3    H164604   2.599   2.603   0.548  0.9279  0.6005  0.7333
14371TIP3    H264605   2.607   2.730   0.632 -2.0482  0.6676  1.0019
14372TIP3   OH264606   6.314   0.502  14.699  0.0820  0.0917  0.7842
14372TIP3    H164607   6.388   0.525  14.755  1.0576  0.5166 -0.6427
14372TIP3    H264608   6.335   0.540  14.614 -2.2984  1.1668  0.6017
14373TIP3   OH264609   0.136   0.842  16.071 -0.4894  0.0967 -0.0878
14373TIP3    H164610   0.062   0.891  16.037 -1.0103  0.9277  2.0453
14373TIP3    H264611   0.111   0.750  16.060 -0.5325  0.3086 -2.0042
14374TIP3   OH264612   0.801   0.505   0.652 -0.4360  0.0719 -0.5677
14374TIP3    H164613   0.720   0.455   0.651 -1.5593  1.7266  1.4467
14374TIP3    H264614   0.869   0.440   0.670 -1.8226 -0.8545  1.7516
14375TIP3   OH264615   2.052   0.793  11.565 -0.3426 -0.4518 -0.0603
14375TIP3    H164616   2.142   0.759  11.562 -0.0474  0.3898 -2.5143
14375TIP3    H264617   2.008   0.738  11.630  2.0570 -0.5198  1.6351
14376TIP3   OH264618   2.547   6.584   2.444  0.0705  0.1290 -0.2045
14376TIP3    H164619   2.584   6.614   2.528 -2.3269 -1.1246  1.4121
14376TIP3    H264620   2.610   6.519   2.413  0.3359 -0.4064  1.3475
14377TIP3   OH264621   3.853   5.518  14.014  0.5197 -0.3823 -0.8184
14377TIP3    H164622   3.773   5.497  14.063  1.0428  0.1062  0.2883
14377TIP3    H264623   3.873   5.439  13.965 -0.5062 -0.5887 -0.9280
14378TIP3   OH264624   5.368   4.585   2.005  1.1982 -0.3636 -0.6454
14378TIP3    H164625   5.418   4.527   2.062  1.4017 -1.6582 -2.0884
14378TIP3    H264626   5.336   4.529   1.935 -1.5325  0.5872 -0.3133
14379TIP3   OH264627   6.676   0.819   0.500  0.3550 -0.1288 -0.4512
14379TIP3    H164628   6.713   0.889   0.555 -0.6843  0.7029 -0.7768
14379TIP3    H264629   6.583   0.841   0.492  0.0827 -1.3528 -0.8785
14380TIP3   OH264630   2.642   2.093  12.652  0.1441  0.0257 -0.0921
14380TIP3    H164631   2.676   2.131  12.733  2.3183 -1.7580 -0.0885
14380TIP3    H264632   2.552   2.127  12.645  0.3089  1.1525  2.4125
14381TIP3   OH264633   4.976   2.629  15.423 -0.2389  0.0397  0.0728
14381TIP3    H164634   5.016   2.544  15.404  0.3570  0.7215 -1.9542
14381TIP3    H264635   4.884   2.619  15.399 -0.4503 -0.3604  0.9948
14382TIP3   OH264636   4.756   1.797   5.951 -0.3641 -0.1885  0.1111
14382TIP3    H164637   4.684   1.860   5.951 -1.8925 -1.8406  0.6914
14382TIP3    H264638   4.830   1.845   5.987 -0.8741  1.8458 -1.4118
14383TIP3   OH264639   2.537   3.444   5.687  0.5049 -0.1721  0.2891
14383TIP3    H164640   2.455   3.465   5.643  0.4132  1.3096  1.0975
14383TIP3    H264641   2.605   3.481   5.631  0.6209 -1.2024 -0.2668
14384TIP3   OH264642   0.639   2.284  11.732 -0.1006 -0.0264 -0.2791
14384TIP3    H164643   0.594   2.317  11.654  1.3404  2.4612 -0.1947
14384TIP3    H264644   0.732   2.299  11.713  0.3512 -0.4967  1.4317
14385TIP3   OH264645   1.277   1.906  11.965 -0.2651 -0.3377  0.1832
14385TIP3    H164646   1.255   1.988  11.922  0.0883 -0.6841 -0.6883
14385TIP3    H264647   1.203   1.888  12.024 -0.1910  0.7547  0.6187
14386TIP3   OH264648   1.098   3.324  13.427 -0.2257  0.3280 -0.6569
14386TIP3    H164649   1.143   3.312  13.511  0.6866 -1.5741 -1.3568
14386TIP3    H264650   1.005   3.328  13.450  0.0902  1.5702  0.5705
14387TIP3   OH264651   4.198   2.419  16.882  0.3276 -0.5659 -0.4988
14387TIP3    H164652   4.211   2.386  16.971  1.9921  0.2877 -0.4013
14387TIP3    H264653   4.109   2.392  16.860  0.1266 -1.3890  1.1618
14388TIP3   OH264654   0.562   1.428  12.405 -0.2390  0.4826  0.2066
14388TIP3    H164655   0.486   1.458  12.454  0.4087  1.8098  0.4664
14388TIP3    H264656   0.577   1.338  12.435 -1.2104  0.4915  0.7434
14389TIP3   OH264657   1.059   4.652  14.654  0.3413 -0.0699 -0.0029
14389TIP3    H164658   0.974   4.680  14.687  0.6205  0.9021 -0.0888
14389TIP3    H264659   1.090   4.725  14.601  0.2471 -1.3014 -1.8521
14390TIP3   OH264660   6.748   2.140   3.939  0.0907  0.4259  0.3897
14390TIP3    H164661   6.700   2.201   3.996 -0.1478  1.0469 -0.4482
14390TIP3    H264662   6.707   2.151   3.853 -0.5085 -1.5203  0.3755
14391TIP3   OH264663   3.190   6.778   4.477 -0.2019 -0.3068 -0.1885
14391TIP3    H164664   3.146   6.806   4.557  1.5412 -0.4713  0.8489
14391TIP3    H264665   3.239   6.855   4.448  1.2148 -0.9906  0.3307
14392TIP3   OH264666   1.954   3.692   1.391  0.2382  0.2646 -0.8432
14392TIP3    H164667   1.900   3.659   1.320 -0.8708  1.2401 -0.4692
14392TIP3    H264668   2.040   3.653   1.375 -0.9655 -2.9477 -0.3731
14393TIP3   OH264669   4.823   0.667   4.075 -0.1056 -0.2383 -0.6514
14393TIP3    H164670   4.774   0.612   4.136 -1.5137 -0.1900 -1.7002
14393TIP3    H264671   4.848   0.744   4.126 -3.1961  0.8825 -0.6045
14394TIP3   OH264672   2.720   6.231  12.312  0.1267 -0.2488 -0.4978
14394TIP3    H164673   2.724   6.266  12.223  0.4668 -0.5267 -0.5941
14394TIP3    H264674   2.665   6.153  12.305 -0.3491  0.0757 -0.3481
14395TIP3   OH264675   1.299   0.338   2.977  0.4428  0.5169  0.0928
14395TIP3    H164676   1.375   0.314   2.923  0.2926  1.2812 -0.4769
14395TIP3    H264677   1.232   0.274   2.953  0.9898 -0.3576  0.8243
14396TIP3   OH264678   3.694   3.588   5.440 -0.0499 -0.3659 -0.5460
14396TIP3    H164679   3.619   3.638   5.472 -0.1358 -1.7845  1.7249
14396TIP3    H264680   3.656   3.513   5.394 -0.0484 -0.7609  0.0780
14397TIP3   OH264681   4.885   5.461   5.094 -0.2632 -0.0881  0.2998
14397TIP3    H164682   4.855   5.380   5.136  1.4748 -0.3443  1.1454
14397TIP3    H264683   4.941   5.432   5.022 -1.0181  0.3778 -0.4958
14398TIP3   OH264684   4.988   3.400  17.032 -0.0313  0.6695 -0.2020
14398TIP3    H164685   5.051   3.458  16.989  2.8697 -2.8376 -1.1462
14398TIP3    H264686   4.999   3.417  17.125  1.3027  1.1103 -0.4200
14399TIP3   OH264687   2.356   4.719  14.762  0.3260  0.4303 -0.2497
14399TIP3    H164688   2.398   4.748  14.681 -2.0559 -1.5875 -2.3463
14399TIP3    H264689   2.312   4.797  14.796  0.4012  1.0513 -1.5404
14400TIP3   OH264690   0.965   4.655  15.549  0.6177 -0.0433 -0.2581
14400TIP3    H164691   1.027   4.583  15.551  0.2854 -0.3884 -1.5575
14400TIP3    H264692   0.890   4.621  15.500  0.9722  1.5555 -2.0286
14401TIP3   OH264693   1.977   4.609   1.071 -0.1705  0.3828  0.0526
14401TIP3    H164694   2.016   4.696   1.071  0.2453  0.2039 -0.5463
14401TIP3    H264695   1.889   4.621   1.036  0.6888  0.2469 -2.3900
14402TIP3   OH264696   6.526   6.503  15.190 -0.1644 -0.7695 -0.0113
14402TIP3    H164697   6.496   6.478  15.102 -0.2735  0.2567 -0.2880
14402TIP3    H264698   6.506   6.597  15.195  0.8086 -0.5927  0.7174
14403TIP3   OH264699   4.795   1.195  10.739 -0.5662 -0.0649  0.1728
14403TIP3    H164700   4.884   1.163  10.753 -0.1273  1.1083  0.1623
14403TIP3    H264701   4.806   1.288  10.720 -1.7321 -0.0694 -0.6307
14404TIP3   OH264702   4.445   4.830   3.552 -0.1565 -0.3701 -0.1968
14404TIP3    H164703   4.400   4.751   3.581  0.4853 -1.4527 -1.9851
14404TIP3    H264704   4.377   4.881   3.508 -0.6950  0.3767  1.4265
14405TIP3   OH264705   2.040   5.656  12.777  0.1881  0.4856 -1.0295
14405TIP3    H164706   2.080   5.581  12.821  1.1563  1.8979  0.6425
14405TIP3    H264707   2.089   5.664  12.695 -0.5918 -1.2518 -1.7233
14406TIP3   OH264708   2.354   5.452   4.183  0.2071  0.4463 -0.0545
14406TIP3    H164709   2.373   5.529   4.130  0.7133  0.0253 -0.5140
14406TIP3    H264710   2.374   5.378   4.125 -2.1310 -0.0661 -0.2990
14407TIP3   OH264711   2.344   4.903   1.659 -0.4892  0.1006 -0.2096
14407TIP3    H164712   2.249   4.900   1.665 -0.4483 -1.2109  0.0439
14407TIP3    H264713   2.373   4.822   1.700  0.7640  0.7169  0.1631
14408TIP3   OH264714   3.342   0.104  15.335  0.6570  0.1769  0.3586
14408TIP3    H164715   3.366   0.015  15.309 -1.7563 -0.5206  0.2464
14408TIP3    H264716   3.252   0.096  15.367  0.1108  2.6972 -0.3360
14409TIP3   OH264717   4.942   5.796  14.051 -0.1917 -0.3558  0.7631
14409TIP3    H164718   5.026   5.800  14.005 -0.8296 -1.5048 -0.5921
14409TIP3    H264719   4.954   5.852  14.128  1.2130  0.9915 -0.3558
14410TIP3   OH264720   2.238   5.138  13.486 -0.0237 -0.0192  0.8591
14410TIP3    H164721   2.316   5.174  13.443 -0.9097 -0.4980 -1.2791
14410TIP3    H264722   2.195   5.215  13.524  0.8899  0.4050  1.0697
14411TIP3   OH264723   4.506   3.931   2.327 -0.0027  0.0656 -0.3415
14411TIP3    H164724   4.535   3.981   2.403  2.5702  1.7244 -2.2128
14411TIP3    H264725   4.513   3.993   2.254 -0.4532 -1.9813 -2.2429
14412TIP3   OH264726   6.548   0.459   3.350  0.2240 -0.5702 -0.7448
14412TIP3    H164727   6.490   0.402   3.399  2.4064 -2.3484 -0.0762
14412TIP3    H264728   6.595   0.509   3.417 -1.0107  1.4523 -1.2916
14413TIP3   OH264729   5.644   1.518   3.684  0.8801  0.6485 -0.0526
14413TIP3    H164730   5.573   1.582   3.689 -0.4093 -0.7846  1.3658
14413TIP3    H264731   5.599   1.434   3.674  2.4542 -0.2017 -0.3052
14414TIP3   OH264732   5.647   0.037  17.193 -0.5978  0.6930 -0.0374
14414TIP3    H164733   5.639   0.069  17.282  1.8858 -1.8281  1.2667
14414TIP3    H264734   5.740   0.046  17.172 -0.8317 -0.2581 -1.7213
14415TIP3   OH264735   6.385   6.422  15.920  0.3474 -0.5210  0.3039
14415TIP3    H164736   6.378   6.400  15.827 -0.9990  0.6668  0.1036
14415TIP3    H264737   6.422   6.510  15.922 -1.6961  0.3663  0.7810
14416TIP3   OH264738   4.122   1.023  11.623 -0.2946  0.3770  0.2364
14416TIP3    H164739   4.169   1.033  11.706 -0.8253 -1.3340  0.7959
14416TIP3    H264740   4.191   1.021  11.557  0.3512 -0.6713  0.9017
14417TIP3   OH264741   6.352   5.033  11.423 -0.4254 -0.1486  0.4139
14417TIP3    H164742   6.348   5.117  11.468  2.5004 -0.4440  1.4139
14417TIP3    H264743   6.321   4.970  11.488  0.5497 -0.1833  0.8631
14418TIP3   OH264744   5.004   4.608   4.609  0.2218  0.1690  0.0440
14418TIP3    H164745   5.039   4.525   4.639 -0.7853 -0.9616 -1.7307
14418TIP3    H264746   4.910   4.593   4.600  0.1085  1.2963 -0.9029
14419TIP3   OH264747   4.764   2.303   2.800 -0.1475  0.1315  0.3360
14419TIP3    H164748   4.752   2.340   2.888  0.0959 -0.9863  0.8534
14419TIP3    H264749   4.677   2.309   2.760 -0.3367  0.3508  0.7663
14420TIP3   OH264750   2.775   0.471   2.097  0.8535 -0.1394  0.4806
14420TIP3    H164751   2.838   0.470   2.025 -0.5276 -0.5756 -0.7914
14420TIP3    H264752   2.722   0.549   2.082  1.5658  0.6794  2.0051
14421TIP3   OH264753   4.221   3.303  11.746 -0.7544 -0.4026 -0.1138
14421TIP3    H164754   4.177   3.303  11.660 -1.1824 -1.2403  0.0924
14421TIP3    H264755   4.296   3.245  11.734 -0.8960 -0.6359  0.1119
14422TIP3   OH264756   5.541   0.733  16.947  0.7505  0.5427 -0.1048
14422TIP3    H164757   5.593   0.804  16.985  1.6820 -0.9943  1.6752
14422TIP3    H264758   5.450   0.758  16.963  1.0840  0.2454  2.8481
14423TIP3   OH264759   2.723   4.577   2.708  0.2428  0.3198 -0.4813
14423TIP3    H164760   2.811   4.585   2.745  0.0304  0.7604 -0.0627
14423TIP3    H264761   2.736   4.590   2.614  0.9027 -1.6014 -0.6939
14424TIP3   OH264762   4.686   6.047  16.843  0.0184 -0.2453 -0.3239
14424TIP3    H164763   4.720   6.016  16.759  0.5507 -2.4025  0.6105
14424TIP3    H264764   4.634   6.125  16.821  0.4509 -0.5261 -2.5807
14425TIP3   OH264765   4.433   1.873  14.555  0.2403  0.2905 -0.0590
14425TIP3    H164766   4.435   1.799  14.615 -0.7474  2.1512  2.4341
14425TIP3    H264767   4.491   1.938  14.594 -0.0533  1.4155 -1.4010
14426TIP3   OH264768   3.927   3.473   5.534 -0.0741 -0.3576  0.2147
14426TIP3    H164769   3.864   3.504   5.469  0.4152  1.0004  0.3604
14426TIP3    H264770   3.877   3.471   5.616 -0.1912 -0.2531  0.1467
14427TIP3   OH264771   1.902   5.153  12.186 -0.2880  0.3551  0.2874
14427TIP3    H164772   1.910   5.083  12.252 -2.6472 -0.0867  0.2043
14427TIP3    H264773   1.881   5.231  12.237 -0.4384  0.3848  0.1794
14428TIP3   OH264774   1.638   2.848  15.204  0.8992  0.7950 -0.0346
14428TIP3    H164775   1.726   2.857  15.241  0.3213  1.5113  1.2325
14428TIP3    H264776   1.634   2.758  15.172  2.1471  0.8125 -0.2711
14429TIP3   OH264777   0.615   6.117   0.378  0.9651 -0.5980  0.4912
14429TIP3    H164778   0.695   6.112   0.326  0.7586  0.8772 -0.0376
14429TIP3    H264779   0.616   6.205   0.416 -0.4294 -0.4947  0.3767
14430TIP3   OH264780   1.686   4.865   5.131  0.2935  1.0802 -0.0998
14430TIP3    H164781   1.595   4.887   5.148  0.2773  0.0051  1.4293
14430TIP3    H264782   1.692   4.858   5.036 -1.1372  1.4538 -0.2316
14431TIP3   OH264783   2.903   0.925   2.825 -0.2819  0.1289  0.2747
14431TIP3    H164784   2.948   0.995   2.872 -0.6776  0.3951  0.2637
14431TIP3    H264785   2.924   0.942   2.733 -0.7514  0.5090  0.2329
14432TIP3   OH264786   2.979   2.897  13.487  0.2324 -0.5378  0.2880
14432TIP3    H164787   3.058   2.913  13.537  0.4520  1.0678 -0.5000
14432TIP3    H264788   2.909   2.941  13.537 -0.0345 -1.3039  0.5964
14433TIP3   OH264789   3.448   6.474   3.750  0.3724  0.1141  0.5905
14433TIP3    H164790   3.470   6.381   3.741  0.0017  0.1145 -0.5771
14433TIP3    H264791   3.440   6.488   3.844  2.0166 -0.6522  0.8731
14434TIP3   OH264792   2.301   5.326  14.728  0.0105  0.0356 -0.0889
14434TIP3    H164793   2.285   5.373  14.810 -0.7400  0.5753 -0.5325
14434TIP3    H264794   2.322   5.237  14.755 -0.9350  0.0290  0.6676
14435TIP3   OH264795   2.589   2.610   2.808  0.2181  0.2968 -0.0357
14435TIP3    H164796   2.540   2.689   2.831  0.0711 -0.1179  1.1342
14435TIP3    H264797   2.576   2.601   2.714  0.0608  1.5429 -0.1486
14436TIP3   OH264798   1.229   5.137   5.324  0.0410 -0.1005 -0.8238
14436TIP3    H164799   1.150   5.100   5.285  1.0447 -1.2505 -1.8619
14436TIP3    H264800   1.211   5.138   5.418 -0.0512 -3.4320 -0.6878
14437TIP3   OH264801   5.384   0.704   0.090  0.4031 -0.0617  0.4838
14437TIP3    H164802   5.344   0.691   0.176 -0.3943  0.2778  0.1688
14437TIP3    H264803   5.382   0.798   0.077 -1.6600 -0.2475 -0.9179
14438TIP3   OH264804   3.932   2.072  10.229 -0.7770  0.2353  0.1881
14438TIP3    H164805   3.894   2.159  10.216 -1.4263  0.0578  0.8158
14438TIP3    H264806   4.009   2.087  10.283 -1.6695  0.2894  1.4891
14439TIP3   OH264807   0.174   6.440  16.527 -0.9281 -0.6388  0.2777
14439TIP3    H164808   0.089   6.477  16.503  0.5817  2.5771 -0.6901
14439TIP3    H264809   0.171   6.431  16.622 -1.7150  1.3021  0.4625
14440TIP3   OH264810   4.093   1.561   1.559 -0.4410  0.0148 -0.0014
14440TIP3    H164811   4.017   1.519   1.600 -0.7776 -0.6749 -1.2674
14440TIP3    H264812   4.135   1.609   1.630  0.1757 -2.7462  1.6764
14441TIP3   OH264813   1.873   6.551   4.909 -0.3216 -0.1127  0.2261
14441TIP3    H164814   1.854   6.631   4.859 -0.5762  0.4304  1.1713
14441TIP3    H264815   1.894   6.485   4.842 -1.9774  0.2333 -0.6692
14442TIP3   OH264816   6.101   6.141   3.620  0.5454  0.4801 -0.0986
14442TIP3    H164817   6.152   6.102   3.691  0.2222  1.0828  0.4740
14442TIP3    H264818   6.120   6.086   3.544 -0.5299 -1.3193  0.8635
14443TIP3   OH264819   6.756   0.902   4.117 -0.2211  0.1649 -0.1591
14443TIP3    H164820   6.848   0.926   4.118 -0.4518  1.2605 -1.8213
14443TIP3    H264821   6.728   0.910   4.208  0.6665  2.5532 -0.0294
14444TIP3   OH264822   6.743   3.942  16.251 -0.2206 -0.2343 -0.5516
14444TIP3    H164823   6.648   3.952  16.239 -0.2466  1.5328  0.7088
14444TIP3    H264824   6.751   3.897  16.335  0.0588 -0.1746 -0.5455
14445TIP3   OH264825   6.098   5.245   0.852  0.2348 -0.1227  0.5299
14445TIP3    H164826   6.087   5.214   0.762 -2.7180  2.2959 -0.1128
14445TIP3    H264827   6.032   5.196   0.901 -0.4950  0.9284  0.6364
14446TIP3   OH264828   6.259   4.005   4.877 -0.5127 -0.2543  0.1688
14446TIP3    H164829   6.179   4.057   4.877  0.5278  1.4366 -0.9388
14446TIP3    H264830   6.314   4.046   4.943  0.0497 -0.4151 -0.1976
14447TIP3   OH264831   1.010   5.502   5.265 -0.3877 -0.3917 -0.1920
14447TIP3    H164832   1.006   5.433   5.332 -0.7704  0.5420  0.7837
14447TIP3    H264833   1.096   5.490   5.224  0.2622 -0.4217  1.1207
14448TIP3   OH264834   5.386   3.113   5.553 -0.4099 -0.0528 -0.1163
14448TIP3    H164835   5.400   3.160   5.471  0.6044  0.5493  0.3851
14448TIP3    H264836   5.429   3.028   5.538  0.5090  0.3636  0.0626
14449TIP3   OH264837   4.430   5.443   4.953  0.0613 -0.7629 -0.0008
14449TIP3    H164838   4.343   5.406   4.948  0.1468 -0.8554 -1.1652
14449TIP3    H264839   4.486   5.371   4.981 -0.1963 -0.7629  0.5186
14450TIP3   OH264840   4.121   4.724   6.148 -0.1407  0.3920  0.0307
14450TIP3    H164841   4.092   4.634   6.159 -1.3935  0.6875 -0.6652
14450TIP3    H264842   4.167   4.745   6.229 -0.9062 -0.4767  0.7000
14451TIP3   OH264843   2.833   3.676  10.628  0.1102  0.1811  0.4266
14451TIP3    H164844   2.801   3.706  10.713  0.4443  0.3949  0.4789
14451TIP3    H264845   2.776   3.603  10.606 -1.0315  1.1399  0.0752
14452TIP3   OH264846   5.980   4.417   4.137  0.2036 -0.3990 -0.2452
14452TIP3    H164847   5.946   4.443   4.222  0.1484 -2.1398  0.3014
14452TIP3    H264848   5.955   4.325   4.128  1.9891 -0.8425 -1.2302
14453TIP3   OH264849   6.338   3.409  10.458  0.2895 -0.7587 -0.7356
14453TIP3    H164850   6.321   3.501  10.481  0.8021 -1.2193  1.7741
14453TIP3    H264851   6.428   3.393  10.489 -0.4862 -2.6143  0.7171
14454TIP3   OH264852   0.832   1.013  13.752  0.2911  0.4295 -0.3004
14454TIP3    H164853   0.840   0.940  13.691 -1.5945 -0.1329  0.0705
14454TIP3    H264854   0.817   0.973  13.837  1.2959  1.2416  0.2883
14455TIP3   OH264855   1.226   4.052   4.700  0.1497 -0.2231 -0.7276
14455TIP3    H164856   1.275   4.133   4.690 -0.5818  0.7162  2.3190
14455TIP3    H264857   1.287   3.993   4.746 -0.6231  0.0714  0.7464
14456TIP3   OH264858   3.998   0.696   3.274 -0.4642 -0.1432  0.6298
14456TIP3    H164859   3.949   0.626   3.318 -2.4396 -0.3502 -1.6749
14456TIP3    H264860   3.963   0.777   3.310 -1.9369 -0.3166 -0.3058
14457TIP3   OH264861   1.270   4.925  11.722 -1.3408 -0.1643 -0.0732
14457TIP3    H164862   1.363   4.903  11.713 -1.2425  0.3336 -0.3033
14457TIP3    H264863   1.234   4.915  11.633 -1.6735 -1.0670  0.1460
14458TIP3   OH264864   3.405   1.094  17.131  0.3634 -0.0510  0.2419
14458TIP3    H164865   3.439   1.071  17.217  1.5589  1.2366  0.1483
14458TIP3    H264866   3.421   1.016  17.077  0.2543 -0.6010  0.9890
14459TIP3   OH264867   4.965   2.075  15.105  0.0017 -0.1767 -0.0637
14459TIP3    H164868   4.988   2.055  15.014 -1.3362 -0.4141 -0.3692
14459TIP3    H264869   5.012   2.008  15.156 -0.7284 -1.2251 -0.7295
14460TIP3   OH264870   1.239   1.300  14.140  0.3476 -0.1366  0.1120
14460TIP3    H164871   1.267   1.368  14.201 -0.3113  0.6902 -0.4772
14460TIP3    H264872   1.251   1.218  14.188  0.7748  0.4164  0.9829
14461TIP3   OH264873   6.550   4.647  14.871  0.4743  0.5882 -0.0533
14461TIP3    H164874   6.558   4.666  14.778 -0.4927 -1.5519 -0.6256
14461TIP3    H264875   6.630   4.681  14.910  1.6544  0.0602 -1.9312
14462TIP3   OH264876   5.106   4.715  10.430  0.0156  0.9162  0.2763
14462TIP3    H164877   5.051   4.794  10.431 -0.1013  0.8362  0.7526
14462TIP3    H264878   5.189   4.744  10.393 -0.0036  1.2846  0.5074
14463TIP3   OH264879   3.316   1.177  16.784 -0.2279  0.2861  1.1415
14463TIP3    H164880   3.255   1.136  16.846 -1.8285 -0.2201 -0.6688
14463TIP3    H264881   3.343   1.105  16.727  2.7920  0.3286  2.3584
14464TIP3   OH264882   2.145   2.225  16.991  0.2771 -0.5200  0.2660
14464TIP3    H164883   2.085   2.298  17.005  2.1158  1.0893  0.1671
14464TIP3    H264884   2.089   2.147  16.992 -1.5135  0.6909  2.3150
14465TIP3   OH264885   1.972   1.907   2.908  0.6683  0.0549 -0.4028
14465TIP3    H164886   1.997   1.848   2.837  0.2675 -1.1387  0.4162
14465TIP3    H264887   1.878   1.922   2.896  0.8694  0.9653 -0.9098
14466TIP3   OH264888   6.184   0.387   2.038 -0.3627 -0.0728 -0.0794
14466TIP3    H164889   6.215   0.475   2.057  1.4257 -0.6397 -0.1971
14466TIP3    H264890   6.184   0.382   1.942 -0.7713 -0.1008 -0.0788
14467TIP3   OH264891   2.605   2.306   0.482 -0.2740  0.0769  0.2032
14467TIP3    H164892   2.677   2.357   0.520 -0.1467 -0.0658  0.1567
14467TIP3    H264893   2.642   2.268   0.403 -0.9956  1.6309 -0.9226
14468TIP3   OH264894   1.885   6.701  15.200  0.4467 -0.2257 -0.3811
14468TIP3    H164895   1.798   6.739  15.200  0.1051 -0.9065 -2.7120
14468TIP3    H264896   1.911   6.703  15.293 -2.6573 -1.4989  0.6470
14469TIP3   OH264897   2.478   4.872   4.292  0.3446 -0.2411  0.0677
14469TIP3    H164898   2.517   4.785   4.279  0.1419 -0.1699 -1.1103
14469TIP3    H264899   2.526   4.929   4.231 -1.9831 -0.2811 -1.9372
14470TIP3   OH264900   6.779   5.307  16.244  0.7943 -0.0728  0.4655
14470TIP3    H164901   6.836   5.359  16.188  0.4400  1.4659  1.4789
14470TIP3    H264902   6.798   5.338  16.333  0.5674 -1.6956  1.1052
14471TIP3   OH264903   0.802   4.472  11.405  0.0990  0.1472  0.0018
14471TIP3    H164904   0.861   4.400  11.381  1.4953  0.9368  0.9137
14471TIP3    H264905   0.853   4.525  11.466 -1.8141  0.5199  1.3712
14472TIP3   OH264906   5.969   5.061  11.505 -0.2350 -0.4594  0.6182
14472TIP3    H164907   6.001   5.081  11.593  2.4226  0.1181 -0.3557
14472TIP3    H264908   5.928   4.975  11.512  0.4712 -0.6867  2.3044
14473TIP3   OH264909   4.771   2.823   3.834 -0.0592 -0.6374  0.0357
14473TIP3    H164910   4.792   2.794   3.745 -0.8687 -1.4854  0.1031
14473TIP3    H264911   4.695   2.880   3.824 -0.2907 -0.9124  0.1967
14474TIP3   OH264912   5.790   1.277  16.576 -0.1198 -0.2162 -0.4517
14474TIP3    H164913   5.750   1.353  16.618  1.1084  0.8735 -1.1832
14474TIP3    H264914   5.813   1.219  16.649  0.2255  0.7726  0.2450
14475TIP3   OH264915   4.907   5.595  11.848  0.7410  0.2887  0.6552
14475TIP3    H164916   4.971   5.641  11.902 -0.8073  1.6542  1.4179
14475TIP3    H264917   4.864   5.664  11.797 -0.0591 -0.5921  0.0973
14476TIP3   OH264918   2.256   0.882  16.129 -0.3302 -0.5881 -0.0566
14476TIP3    H164919   2.204   0.963  16.120 -1.2176 -1.2457 -1.1018
14476TIP3    H264920   2.191   0.812  16.129  0.5121 -1.3901 -0.5440
14477TIP3   OH264921   4.269   3.425   1.126  0.4156 -0.6715  0.3337
14477TIP3    H164922   4.222   3.343   1.141  1.0921 -0.9127  1.2023
14477TIP3    H264923   4.282   3.461   1.213 -2.3307  1.8121 -0.1210
14478TIP3   OH264924   4.412   4.523   6.047  0.6057  0.0468 -0.1232
14478TIP3    H164925   4.352   4.451   6.069  0.3963  0.1654 -0.3066
14478TIP3    H264926   4.433   4.509   5.955  1.1294 -0.1890  0.0233
14479TIP3   OH264927   4.784   6.701  14.879 -0.2142 -0.0803  0.3362
14479TIP3    H164928   4.697   6.717  14.916 -0.8663 -0.0040 -1.1625
14479TIP3    H264929   4.810   6.785  14.841 -0.5675 -0.6874 -1.3423
14480TIP3   OH264930   2.248   1.775   4.958 -0.5683 -0.2188 -0.0899
14480TIP3    H164931   2.217   1.866   4.963 -2.1585 -0.6970 -0.6384
14480TIP3    H264932   2.288   1.759   5.044 -0.6181  0.8783  0.1563
14481TIP3   OH264933   1.429   2.928  12.935 -0.1640  0.6467  0.1984
14481TIP3    H164934   1.380   2.897  13.011 -0.0995 -0.7083 -0.2847
14481TIP3    H264935   1.363   2.965  12.877 -0.2140  1.6862  0.8938
14482TIP3   OH264936   0.011   5.329  13.964 -0.2883 -0.0692 -0.3772
14482TIP3    H164937   0.035   5.359  13.877 -1.2829  0.4748 -0.4808
14482TIP3    H264938   0.035   5.402  14.022 -0.4132 -0.0783 -0.3127
14483TIP3   OH264939   4.173   0.278   5.038 -0.3640  0.2749 -0.3866
14483TIP3    H164940   4.210   0.262   4.951 -0.7071 -0.2907 -0.4362
14483TIP3    H264941   4.247   0.266   5.098 -0.8016 -2.7811 -0.3153
14484TIP3   OH264942   4.626   1.831   6.238 -0.7654 -0.3655  0.2453
14484TIP3    H164943   4.586   1.918   6.240 -0.2344 -0.0890 -0.5139
14484TIP3    H264944   4.580   1.786   6.166 -0.3749 -0.3761  0.0023
14485TIP3   OH264945   0.030   6.118   1.608  0.1384  0.1503 -0.6143
14485TIP3    H164946   0.028   6.189   1.543  1.6837  0.8355  0.0275
14485TIP3    H264947   0.078   6.156   1.682 -1.7443 -0.5366  1.0308
14486TIP3   OH264948   2.001   5.970   2.033  0.1079 -0.6613 -0.8081
14486TIP3    H164949   1.950   5.949   2.112  0.2284 -0.1837 -0.5993
14486TIP3    H264950   1.950   6.038   1.989  0.3525 -0.4816 -0.8173
14487TIP3   OH264951   2.639   6.663   4.379  0.4026  0.3621 -0.1566
14487TIP3    H164952   2.563   6.677   4.436 -0.7237  0.1695 -1.5627
14487TIP3    H264953   2.683   6.748   4.377 -0.3251  0.7466 -0.0981
14488TIP3   OH264954   0.655   0.361  12.387  0.7614 -0.3466 -0.8793
14488TIP3    H164955   0.663   0.301  12.462 -0.1964  0.6313  0.0369
14488TIP3    H264956   0.717   0.432  12.407 -0.4173  0.5730 -0.3248
14489TIP3   OH264957   6.187   5.640   3.125  0.3234 -0.3498 -0.1470
14489TIP3    H164958   6.163   5.638   3.217  0.7413  0.8263  0.0149
14489TIP3    H264959   6.104   5.648   3.078  0.1517 -0.1593  0.1830
14490TIP3   OH264960   5.719   3.685  12.718  0.3202  0.0815  0.0400
14490TIP3    H164961   5.733   3.591  12.735  1.4761  0.0094 -1.1579
14490TIP3    H264962   5.765   3.701  12.636 -2.9787  0.9151 -1.8022
14491TIP3   OH264963   4.589   0.466  16.680 -0.4012 -0.1880 -0.2978
14491TIP3    H164964   4.532   0.492  16.608  0.6533  0.1370 -1.0338
14491TIP3    H264965   4.566   0.525  16.752 -2.1059 -1.1107 -0.0274
14492TIP3   OH264966   4.186   3.508   4.883 -0.0639 -0.4041  0.0393
14492TIP3    H164967   4.252   3.576   4.870 -0.1137 -0.2798  0.4345
14492TIP3    H264968   4.231   3.442   4.937 -0.8022  0.4907  1.7917
14493TIP3   OH264969   2.448   0.079  15.770 -0.0270  0.4687 -0.0665
14493TIP3    H164970   2.543   0.085  15.771 -0.0524  1.2621 -1.1540
14493TIP3    H264971   2.422   0.120  15.688 -1.3583  1.0571  0.6176
14494TIP3   OH264972   4.269   0.527  16.046  0.8607 -0.0344 -0.0810
14494TIP3    H164973   4.182   0.558  16.070  1.2235  0.3708  0.7343
14494TIP3    H264974   4.268   0.527  15.950  0.3644  1.1297 -0.0940
14495TIP3   OH264975   2.546   4.941  15.799 -0.7536  0.1074  0.3032
14495TIP3    H164976   2.464   4.930  15.751 -1.9822  0.3118  2.2502
14495TIP3    H264977   2.571   5.032  15.783  1.0852 -0.8246 -3.1469
14496TIP3   OH264978   5.101   2.632   3.549  0.1332 -0.1534 -0.0087
14496TIP3    H164979   5.145   2.695   3.606  0.6175 -1.7514  1.5060
14496TIP3    H264980   5.028   2.680   3.511  1.6503  1.8504 -0.5202
14497TIP3   OH264981   3.305   3.709  11.118 -0.2628 -1.0209 -0.2309
14497TIP3    H164982   3.317   3.632  11.063  0.4184 -0.3002 -1.1158
14497TIP3    H264983   3.355   3.778  11.075 -0.9484 -0.0445  0.4833
14498TIP3   OH264984   0.600   3.919  15.861 -0.1049 -0.9299  0.3219
14498TIP3    H164985   0.635   3.997  15.904 -1.1336 -0.7628  0.8739
14498TIP3    H264986   0.609   3.937  15.767  1.5382 -1.0187  0.4285
14499TIP3   OH264987   4.887   3.133  13.465 -0.0658 -0.0663  0.2845
14499TIP3    H164988   4.808   3.179  13.494  1.0174  1.3638  1.0971
14499TIP3    H264989   4.936   3.119  13.546 -0.5661 -3.1903  0.1598
14500TIP3   OH264990   2.793   4.683   3.296 -0.5434  0.0771  0.4829
14500TIP3    H164991   2.834   4.766   3.273 -0.3544 -0.2984 -0.6088
14500TIP3    H264992   2.740   4.660   3.219 -1.5164 -0.2437  1.2292
14501TIP3   OH264993   1.687   5.788  11.812  0.2476 -0.6204 -0.3166
14501TIP3    H164994   1.622   5.804  11.880  1.1429  1.3764  0.1530
14501TIP3    H264995   1.711   5.696  11.824 -2.2538 -1.3533 -0.3679
14502TIP3   OH264996   1.075   3.010   2.879  0.1380 -0.8839  0.0626
14502TIP3    H164997   1.063   3.082   2.940 -1.1581 -1.6870  0.8142
14502TIP3    H264998   1.168   2.988   2.885  0.6472  0.9654 -0.5120
14503TIP3   OH264999   0.103   0.128   3.759  0.1363 -0.4834 -0.4488
14503TIP3    H165000   0.174   0.171   3.807 -1.5961  1.7557  0.2823
14503TIP3    H265001   0.085   0.049   3.809 -1.7180  1.8310  2.9177
14504TIP3   OH265002   2.406   0.206  11.083 -0.2033  0.4538 -0.4932
14504TIP3    H165003   2.437   0.291  11.054 -1.2444  0.5033 -1.5583
14504TIP3    H265004   2.478   0.146  11.064 -0.2904  0.7422 -1.8426
14505TIP3   OH265005   5.159   3.814   3.574 -0.4169  0.3560 -0.1124
14505TIP3    H165006   5.109   3.892   3.595  1.4028  1.5931 -0.1675
14505TIP3    H265007   5.232   3.814   3.635  0.7969 -0.1034 -1.4892
14506TIP3   OH265008   2.062   1.657  16.499  0.2943 -0.0593  0.1139
14506TIP3    H165009   2.104   1.649  16.585 -0.2890  0.5419  0.4619
14506TIP3    H265010   1.987   1.597  16.503  0.3553 -0.1457 -0.0326
14507TIP3   OH265011   4.260   1.329   5.577  0.0364  0.3720  0.4265
14507TIP3    H165012   4.242   1.236   5.567 -0.2808  0.3160  1.4731
14507TIP3    H265013   4.308   1.352   5.497  0.4373 -0.7588  0.3184
14508TIP3   OH265014   2.839   6.373  10.675  0.1150 -0.5889  0.2117
14508TIP3    H165015   2.868   6.381  10.584 -1.4097 -3.2896 -0.6135
14508TIP3    H265016   2.770   6.439  10.684  0.5106 -0.0654 -0.4453
14509TIP3   OH265017   5.930   2.629  13.226 -0.6543  0.0686  0.1427
14509TIP3    H165018   5.931   2.573  13.149  0.2704  0.2916 -0.0182
14509TIP3    H265019   6.001   2.691  13.212 -1.7259  1.3693  0.2587
14510TIP3   OH265020   2.163   2.860  16.752  0.4214 -0.0907  0.4777
14510TIP3    H165021   2.141   2.948  16.722 -0.0396  0.3634  2.0350
14510TIP3    H265022   2.258   2.861  16.764  0.5786 -0.2040 -0.6503
14511TIP3   OH265023   0.032   0.563   1.076  0.0142 -0.1447  0.5305
14511TIP3    H165024   0.005   0.645   1.117  1.2981  1.2399 -1.2305
14511TIP3    H265025   0.127   0.572   1.066  0.1904 -1.8901  0.3507
14512TIP3   OH265026   2.732   5.535   5.497  0.1234  0.0560 -0.2423
14512TIP3    H165027   2.767   5.555   5.583 -0.2814 -1.0447  0.2049
14512TIP3    H265028   2.645   5.574   5.496  0.7647  1.5443 -0.8157
14513TIP3   OH265029   3.852   5.794   3.080  0.2791 -0.2011 -0.4213
14513TIP3    H165030   3.861   5.880   3.040  0.5971 -0.1009 -0.1383
14513TIP3    H265031   3.767   5.762   3.050  0.3147  0.0640 -0.8054
14514TIP3   OH265032   5.838   5.478   0.065 -0.0440  0.1069 -0.1981
14514TIP3    H165033   5.890   5.417   0.014 -0.7921 -0.9093  0.2115
14514TIP3    H265034   5.803   5.426   0.137  1.1947  1.5480  1.5481
14515TIP3   OH265035   2.670   1.768  14.956 -0.0397  0.7525 -0.1439
14515TIP3    H165036   2.617   1.752  15.034  0.7539 -0.3625  0.1993
14515TIP3    H265037   2.760   1.764  14.988  0.2680  2.2413 -0.7774
14516TIP3   OH265038   2.227   6.565   3.185 -0.2235  0.0120 -0.3066
14516TIP3    H165039   2.310   6.585   3.141  0.8133 -2.1295  0.5678
14516TIP3    H265040   2.179   6.511   3.123 -0.9654  1.1494 -0.7621
14517TIP3   OH265041   0.087   5.258  12.624 -0.0391 -0.4903  0.4926
14517TIP3    H165042   0.006   5.287  12.666 -0.6425  1.0109 -1.5704
14517TIP3    H265043   0.156   5.284  12.686 -1.0242 -0.6732  1.7107
14518TIP3   OH265044   5.445   5.280  16.567 -0.2876 -0.2378 -0.1996
14518TIP3    H165045   5.411   5.334  16.638  1.4005 -1.0836  1.3257
14518TIP3    H265046   5.498   5.213  16.610  1.2849 -0.4386 -2.2827
14519TIP3   OH265047   3.442   0.922  11.121 -0.3750 -0.1618  0.1444
14519TIP3    H165048   3.350   0.943  11.137 -0.5665 -0.9569  0.1481
14519TIP3    H265049   3.440   0.832  11.087  0.4497 -0.4648  0.8500
14520TIP3   OH265050   0.799   2.973  14.318 -0.1404  0.6598 -0.4047
14520TIP3    H165051   0.894   2.988  14.314 -0.3641  1.9648 -1.6099
14520TIP3    H265052   0.790   2.878  14.306  1.1424 -0.0858  3.2471
14521TIP3   OH265053   0.985   5.824   2.123  0.1608 -0.4461  0.0481
14521TIP3    H165054   1.038   5.901   2.104  0.5397 -0.7571 -0.1772
14521TIP3    H265055   0.982   5.776   2.041  0.3429 -0.9190  0.3115
14522TIP3   OH265056   5.014   4.609  14.971  0.4214 -0.3134  0.1229
14522TIP3    H165057   5.098   4.570  14.995  0.5574  0.1928  0.4900
14522TIP3    H265058   4.981   4.646  15.053 -0.9473 -1.9273  0.3777
14523TIP3   OH265059   2.471   4.628  15.003  0.2858 -0.6763 -0.3186
14523TIP3    H165060   2.452   4.675  14.921  1.0175  1.4483  0.6600
14523TIP3    H265061   2.387   4.619  15.046  0.3143  1.4790  0.3078
14524TIP3   OH265062   2.556   0.056  11.642 -0.0270  0.5120  0.4271
14524TIP3    H165063   2.647   0.080  11.626 -0.0829  1.0841  0.9210
14524TIP3    H265064   2.508   0.095  11.569 -0.1220  2.0245  1.2452
14525TIP3   OH265065   1.919   4.078   2.000  0.0619  0.1860  0.2593
14525TIP3    H165066   1.902   3.988   1.971  2.9307 -0.1818 -0.5535
14525TIP3    H265067   1.941   4.126   1.920 -0.5932  1.4376  0.7877
14526TIP3   OH265068   2.381   2.937   1.232 -0.0067 -0.1697  0.1155
14526TIP3    H165069   2.466   2.895   1.234  0.1357  0.0583 -0.7110
14526TIP3    H265070   2.380   2.986   1.150  0.5540  2.9145  1.7787
14527TIP3   OH265071   3.058   6.490   0.797 -0.1233  0.2329 -0.1191
14527TIP3    H165072   3.050   6.501   0.702 -1.2268  0.9589  0.0326
14527TIP3    H265073   2.987   6.429   0.820 -0.6174  0.9807  0.3756
14528TIP3   OH265074   6.660   6.816   2.068  0.2803 -0.8629 -0.4516
14528TIP3    H165075   6.581   6.835   2.118 -0.6498 -0.6878 -1.9492
14528TIP3    H265076   6.669   6.721   2.075  0.7623 -0.7527  0.8710
14529TIP3   OH265077   4.008   2.505  14.622  0.4255  0.3002  0.1255
14529TIP3    H165078   3.997   2.600  14.630 -0.3093  0.2668 -0.3727
14529TIP3    H265079   4.091   2.494  14.577  1.0417  0.6697  1.1321
14530TIP3   OH265080   5.050   5.761   6.408 -0.0105 -0.3438 -0.7741
14530TIP3    H165081   5.042   5.701   6.334 -0.4700  0.2938 -1.2397
14530TIP3    H265082   4.966   5.754   6.454  0.0527 -0.2890 -0.6494
14531TIP3   OH265083   0.517   3.233  11.738  0.3132 -0.7749  0.6010
14531TIP3    H165084   0.603   3.247  11.777  1.4755  0.8608 -2.2319
14531TIP3    H265085   0.456   3.283  11.792  1.6644  0.5511  0.9355
14532TIP3   OH265086   4.678   4.527   1.490  0.4109 -0.4860  0.1705
14532TIP3    H165087   4.730   4.452   1.460  0.9516 -0.4052  0.8686
14532TIP3    H265088   4.671   4.514   1.585  2.0952  1.2705  0.6124
14533TIP3   OH265089   2.335   1.273  11.687  0.1908  0.2841 -0.0968
14533TIP3    H165090   2.403   1.205  11.689  1.2082  1.2010  3.0214
14533TIP3    H265091   2.253   1.225  11.675  0.7412 -1.7586  3.0583
14534TIP3   OH265092   4.389   3.740   2.513  0.4372  0.0072 -0.0385
14534TIP3    H165093   4.402   3.798   2.437 -0.1929  1.9678  1.2578
14534TIP3    H265094   4.354   3.659   2.476  0.6863  0.6866 -1.8831
14535TIP3   OH265095   0.970   3.711   2.142 -0.2480 -0.2933 -0.0546
14535TIP3    H165096   1.008   3.628   2.110  0.7009 -0.6653  1.8689
14535TIP3    H265097   0.903   3.683   2.204  1.0386  0.3015  1.6924
14536TIP3   OH265098   2.907   3.783  16.620  0.5252  0.7492 -0.1222
14536TIP3    H165099   2.959   3.821  16.549  3.2073  0.6059  1.6425
14536TIP3    H265100   2.925   3.689  16.617 -0.7305  0.4998 -0.3074
14537TIP3   OH265101   6.037   1.671   0.780 -0.0838  0.2848 -0.0840
14537TIP3    H165102   6.046   1.761   0.810 -0.3024  0.8810 -1.7019
14537TIP3    H265103   5.985   1.628   0.848 -1.9794  1.9820 -0.3987
14538TIP3   OH265104   3.753   3.113   2.895 -0.5064 -0.3212 -0.4305
14538TIP3    H165105   3.696   3.056   2.845 -1.8673 -0.0807  0.7710
14538TIP3    H265106   3.718   3.111   2.984  0.4397  1.0435  0.0244
14539TIP3   OH265107   4.623   0.173   3.870  0.0817  0.1933  0.1857
14539TIP3    H165108   4.667   0.258   3.879 -0.6353  0.4678  1.3361
14539TIP3    H265109   4.531   0.193   3.884 -0.1615 -0.6969 -0.1203
14540TIP3   OH265110   2.993   3.279   1.541  0.5561  0.0670  0.3949
14540TIP3    H165111   3.010   3.185   1.553 -0.2523  0.1937  3.3077
14540TIP3    H265112   2.897   3.285   1.533  0.5566  0.6556  0.7503
14541TIP3   OH265113   6.286   5.689  14.955  0.5547 -0.7366 -0.1778
14541TIP3    H165114   6.294   5.684  14.859  0.0674  0.8711 -0.3240
14541TIP3    H265115   6.322   5.606  14.986  1.8150 -0.8009 -1.6959
14542TIP3   OH265116   3.217   5.127  16.709 -0.1348 -0.1927 -0.4584
14542TIP3    H165117   3.145   5.179  16.745  0.3172  0.9157 -1.1108
14542TIP3    H265118   3.279   5.118  16.781 -0.5586 -0.4817 -0.1250
14543TIP3   OH265119   4.723   3.502  14.086 -0.5426 -0.2054  0.0207
14543TIP3    H165120   4.702   3.502  13.993 -0.4317 -1.0933 -0.0087
14543TIP3    H265121   4.806   3.456  14.093 -0.4010  0.1103  0.5336
14544TIP3   OH265122   3.338   0.198   3.751 -0.6189 -0.0612 -0.1704
14544TIP3    H165123   3.329   0.105   3.733  2.0460 -0.4485  0.0371
14544TIP3    H265124   3.327   0.240   3.665  0.0451 -0.7590 -0.6061
14545TIP3   OH265125   5.899   1.891   4.654  0.0026 -0.0283  0.1601
14545TIP3    H165126   5.873   1.893   4.562 -0.5378  0.1363  0.3135
14545TIP3    H265127   5.993   1.875   4.652 -0.2570 -1.6673 -0.3834
14546TIP3   OH265128   1.581   4.074  16.370  0.3149 -0.8146 -0.4785
14546TIP3    H165129   1.503   4.030  16.337 -0.3629 -0.2137  0.3042
14546TIP3    H265130   1.643   4.069  16.296 -1.3723  1.0706 -2.1330
14547TIP3   OH265131   1.415   5.734  15.706 -0.2131 -0.4339 -0.1060
14547TIP3    H165132   1.495   5.743  15.756 -0.6047 -0.4785  0.5391
14547TIP3    H265133   1.368   5.662  15.749 -0.8118 -0.0909 -0.1806
14548TIP3   OH265134   1.485   5.489   2.345 -0.2531 -0.0319 -0.4127
14548TIP3    H165135   1.513   5.405   2.382  1.2736  1.5466  2.3357
14548TIP3    H265136   1.451   5.538   2.420  2.0444  3.0164 -1.1795
14549TIP3   OH265137   3.804   0.746  14.076 -0.5210  0.1068  0.6136
14549TIP3    H165138   3.827   0.835  14.052  0.8061 -0.2417  0.4906
14549TIP3    H265139   3.845   0.733  14.162  1.6833 -1.2309 -0.5556
14550TIP3   OH265140   0.264   6.683  14.752  0.5996  0.2108  0.8581
14550TIP3    H165141   0.319   6.638  14.688 -1.4457 -1.7089  0.3209
14550TIP3    H265142   0.207   6.739  14.700  1.4619  1.6087  1.3540
14551TIP3   OH265143   4.339   2.559   4.824  0.2233 -0.4449 -0.2107
14551TIP3    H165144   4.387   2.570   4.742  1.0003 -1.4079  0.0916
14551TIP3    H265145   4.387   2.612   4.888  0.1181 -0.3655 -0.1979
14552TIP3   OH265146   2.891   2.307  14.461 -0.1772  0.2786 -0.0502
14552TIP3    H165147   2.828   2.317  14.390 -1.2393  0.0747  0.8415
14552TIP3    H265148   2.850   2.351  14.536  1.4718  1.6030  0.1301
14553TIP3   OH265149   5.445   3.152   0.338 -0.8595  0.0761 -0.0077
14553TIP3    H165150   5.521   3.110   0.296 -1.0106 -1.1113  0.8411
14553TIP3    H265151   5.468   3.153   0.431 -2.3314 -1.3550  0.4153
14554TIP3   OH265152   0.585   4.188  10.710  0.2291 -0.6361  0.2792
14554TIP3    H165153   0.529   4.231  10.775  2.1580  0.5408  1.2711
14554TIP3    H265154   0.557   4.097  10.710 -2.3342  0.0945 -0.0484
14555TIP3   OH265155   3.559   0.754   3.644 -0.0389  0.0361  0.7637
14555TIP3    H165156   3.528   0.842   3.621 -0.1022  0.3352  1.9018
14555TIP3    H265157   3.601   0.766   3.730  1.6381 -0.7062  0.0818
14556TIP3   OH265158   2.119   0.821  13.255  0.3254 -0.0149  0.0803
14556TIP3    H165159   2.209   0.799  13.231  0.5146  0.0936  0.6827
14556TIP3    H265160   2.066   0.781  13.185  0.8679  0.4607 -0.6233
14557TIP3   OH265161   3.558   0.272  16.361  0.1079 -0.0872  0.5474
14557TIP3    H165162   3.546   0.316  16.276  0.0569 -0.2301  0.4813
14557TIP3    H265163   3.470   0.266  16.398  0.0708 -0.4271  0.4100
14558TIP3   OH265164   3.073   0.816   4.530 -0.5735 -0.4058 -0.5736
14558TIP3    H165165   3.082   0.889   4.468  0.8408  0.0036  0.0589
14558TIP3    H265166   2.986   0.781   4.514 -1.0234  0.9980 -1.3717
14559TIP3   OH265167   5.249   2.048   1.222  0.4186 -0.1884 -0.0109
14559TIP3    H165168   5.256   1.953   1.235 -2.2755 -0.6772 -1.3509
14559TIP3    H265169   5.155   2.066   1.227  0.7164  2.1455 -1.4395
14560TIP3   OH265170   3.773   1.060  10.619 -0.2075  0.2079  0.1474
14560TIP3    H165171   3.866   1.062  10.643 -0.2414  0.6200  0.2571
14560TIP3    H265172   3.767   0.995  10.550  0.2197  0.4265 -0.0972
14561TIP3   OH265173   5.888   5.689  13.909  0.2505  0.2895  0.2515
14561TIP3    H165174   5.883   5.671  14.003 -0.9631 -1.8366 -0.1631
14561TIP3    H265175   5.978   5.720  13.896 -0.0050  2.1259  2.2994
14562TIP3   OH265176   0.652   3.570  13.664 -0.7194  0.0427 -1.0906
14562TIP3    H165177   0.744   3.547  13.677 -0.7215 -0.5109 -1.9890
14562TIP3    H265178   0.612   3.558  13.750  0.0336  0.2464 -0.7038
14563TIP3   OH265179   1.664   5.257   2.422 -0.0094 -0.1985  0.6347
14563TIP3    H165180   1.681   5.163   2.413  0.2690 -0.0325 -0.7860
14563TIP3    H265181   1.668   5.273   2.516  2.3026 -1.1993  0.7690
14564TIP3   OH265182   4.599   3.725   1.288  0.7385 -0.1430  0.1873
14564TIP3    H165183   4.672   3.785   1.293 -0.3188  1.1062  1.7221
14564TIP3    H265184   4.539   3.753   1.358 -2.0637  0.0536 -2.0953
14565TIP3   OH265185   5.407   5.456   4.515  0.3056 -0.1982  0.3431
14565TIP3    H165186   5.448   5.491   4.436  1.1379  1.0005  1.2727
14565TIP3    H265187   5.329   5.410   4.482 -0.8474  2.4730 -1.0159
14566TIP3   OH265188   4.873   2.528  16.618  0.5115 -0.3232  0.2820
14566TIP3    H165189   4.838   2.585  16.686 -0.7614 -0.1785 -0.4591
14566TIP3    H265190   4.966   2.517  16.640  0.2694  0.2482  1.6502
14567TIP3   OH265191   2.503   0.282   2.632 -0.8851 -0.4532 -0.0989
14567TIP3    H165192   2.488   0.207   2.689  0.2100 -0.6442 -0.0371
14567TIP3    H265193   2.591   0.312   2.655 -0.8774  0.1630 -0.8951
14568TIP3   OH265194   3.311   5.702   3.022 -0.5176  0.1320 -0.1128
14568TIP3    H165195   3.278   5.750   2.946  0.3540  1.4003  0.2786
14568TIP3    H265196   3.345   5.620   2.985 -3.7337 -1.1679 -0.5720
14569TIP3   OH265197   2.699   1.649   4.955 -0.2959  0.2413 -0.4712
14569TIP3    H165198   2.760   1.689   5.016  0.2877  1.3616 -1.7477
14569TIP3    H265199   2.672   1.720   4.897 -1.6281 -0.5621 -0.8965
14570TIP3   OH265200   2.975   3.401   5.133 -0.4885 -0.1865 -0.4954
14570TIP3    H165201   2.989   3.334   5.066  1.2843  0.3427 -0.7056
14570TIP3    H265202   2.970   3.483   5.084  0.4264  0.1607 -0.0237
14571TIP3   OH265203   0.810   3.059   4.564  0.0495 -0.3608 -0.0937
14571TIP3    H165204   0.796   3.077   4.656 -1.7869  2.2544 -0.7617
14571TIP3    H265205   0.891   3.106   4.542 -0.7858  1.0282 -0.2768
14572TIP3   OH265206   4.570   5.845   2.795 -0.3224  0.2720  0.4794
14572TIP3    H165207   4.596   5.856   2.887  0.2199 -2.1901  0.7151
14572TIP3    H265208   4.481   5.809   2.800 -0.6049  0.8877 -0.0073
14573TIP3   OH265209   1.732   4.831  12.746 -1.0981  0.6966  0.2034
14573TIP3    H165210   1.825   4.834  12.768 -0.9563  0.0976 -0.3105
14573TIP3    H265211   1.700   4.920  12.766 -0.5469  0.7461  0.9155
14574TIP3   OH265212   5.859   4.497   2.791 -0.3394 -0.3136 -0.4192
14574TIP3    H165213   5.942   4.519   2.750  1.4909 -0.2740  2.9804
14574TIP3    H265214   5.816   4.581   2.807  0.7284 -0.0044  1.0601
14575TIP3   OH265215   4.092   1.229  13.382  0.3075  0.2421  0.0831
14575TIP3    H165216   4.024   1.260  13.442 -0.2703  0.7108 -0.7915
14575TIP3    H265217   4.156   1.301  13.379  0.9499 -0.2653  1.0328
14576TIP3   OH265218   0.936   5.760  11.028 -0.4346 -0.5374 -0.2345
14576TIP3    H165219   0.874   5.826  10.994 -0.2823 -0.3048 -0.0657
14576TIP3    H265220   0.922   5.762  11.123  0.6867  0.3994 -0.0658
14577TIP3   OH265221   1.760   1.055  15.685  0.2501  0.5106  0.8019
14577TIP3    H165222   1.741   0.966  15.715 -0.1809  0.1523 -0.4862
14577TIP3    H265223   1.676   1.100  15.687 -0.0628  0.0914 -1.0677
14578TIP3   OH265224   0.347   4.498  13.947 -0.2625 -0.3363 -0.0474
14578TIP3    H165225   0.409   4.510  13.876  2.3562 -0.2490  2.0760
14578TIP3    H265226   0.262   4.520  13.910  1.2633  1.9029 -2.5118
14579TIP3   OH265227   4.186   4.577  11.166  0.1420 -0.1922 -0.2722
14579TIP3    H165228   4.170   4.533  11.082  1.7228 -0.7185 -0.3440
14579TIP3    H265229   4.228   4.510  11.220 -0.1374  0.3770  0.6720
14580TIP3   OH265230   1.924   3.811  12.053  0.5415  0.2262  0.1925
14580TIP3    H165231   1.889   3.723  12.036  1.3791 -0.3718  1.4070
14580TIP3    H265232   1.851   3.858  12.093  0.4899 -0.3680  0.8272
14581TIP3   OH265233   2.047   6.779  14.052  0.4628 -0.2447  0.1143
14581TIP3    H165234   2.029   6.776  13.958  0.3637 -0.4776  0.1409
14581TIP3    H265235   2.070   6.689  14.075  0.9310 -0.1012  0.2256
14582TIP3   OH265236   4.770   2.230  11.882 -0.7908 -0.2137 -0.1183
14582TIP3    H165237   4.820   2.272  11.812  0.1141 -1.3981 -0.2090
14582TIP3    H265238   4.836   2.186  11.935 -1.4771  0.5740  1.4384
14583TIP3   OH265239   2.145   4.307  16.751 -0.1797  0.2663  0.2981
14583TIP3    H165240   2.219   4.357  16.716 -1.1714  1.1752 -0.6035
14583TIP3    H265241   2.100   4.273  16.673 -0.3913 -0.7668  0.8476
14584TIP3   OH265242   4.300   1.915   1.027 -0.5298 -0.1729 -0.0317
14584TIP3    H165243   4.379   1.870   0.996  0.2766  1.1666 -0.0203
14584TIP3    H265244   4.294   1.992   0.971 -1.7216 -0.1435  0.1191
14585TIP3   OH265245   2.084   0.570  13.723 -0.0915  0.2676 -0.4195
14585TIP3    H165246   2.040   0.577  13.808  2.8155  0.8042  1.1654
14585TIP3    H265247   2.143   0.646  13.720 -0.4339  0.5284 -3.1628
14586TIP3   OH265248   1.304   1.942  15.682  0.0385  0.2961  0.1594
14586TIP3    H165249   1.393   1.935  15.649 -0.1783 -1.4533 -0.1836
14586TIP3    H265250   1.314   1.961  15.775  0.7720 -0.0045  0.1487
14587TIP3   OH265251   3.246   6.079   1.132  0.3670 -0.1035  0.3392
14587TIP3    H165252   3.211   6.164   1.156  0.2547 -0.0034 -0.1631
14587TIP3    H265253   3.323   6.099   1.078  0.0647 -0.3181 -0.1724
14588TIP3   OH265254   5.298   1.685   4.222 -0.5360 -0.2694 -0.0729
14588TIP3    H165255   5.366   1.730   4.172 -1.7894  1.3010 -0.4647
14588TIP3    H265256   5.333   1.681   4.311  0.2007  0.2046 -0.3271
14589TIP3   OH265257   2.096   5.745   6.020  0.1014 -0.5372 -0.2195
14589TIP3    H165258   2.048   5.677   6.067  0.6111 -0.4441  0.4574
14589TIP3    H265259   2.102   5.818   6.083  1.5865 -0.7491 -0.0738
14590TIP3   OH265260   1.715   4.074  14.705  0.4632  0.0279  0.4539
14590TIP3    H165261   1.730   4.022  14.626 -0.1416  0.7713 -0.1602
14590TIP3    H265262   1.676   4.013  14.767 -0.3214 -0.2337 -0.2863
14591TIP3   OH265263   3.487   4.989   4.337 -0.4653  0.0975 -0.5031
14591TIP3    H165264   3.404   4.942   4.338 -1.0427  1.1117  0.2335
14591TIP3    H265265   3.502   5.010   4.244 -1.2947  0.3576 -0.5824
14592TIP3   OH265266   4.820   2.519   2.646 -0.0864 -0.0599  0.2750
14592TIP3    H165267   4.837   2.433   2.686  1.3938  0.4319  0.7860
14592TIP3    H265268   4.859   2.513   2.559 -2.1756 -0.6947 -0.6907
14593TIP3   OH265269   6.452   6.023   0.657  0.1052  0.1800 -0.1702
14593TIP3    H165270   6.413   6.070   0.732 -2.2870  0.5650 -1.5418
14593TIP3    H265271   6.446   5.931   0.681 -0.7784  0.2922  0.0857
14594TIP3   OH265272   2.749   2.292   0.229 -0.6933  0.8224 -0.3503
14594TIP3    H165273   2.704   2.364   0.185 -0.1745 -0.1029 -2.5352
14594TIP3    H265274   2.820   2.334   0.278 -1.8984  1.9860  0.4534
14595TIP3   OH265275   6.757   6.043  16.278 -0.9278  0.2100 -0.2445
14595TIP3    H165276   6.724   6.126  16.244  0.0134  0.6789 -0.0541
14595TIP3    H265277   6.809   6.068  16.355  0.5161 -0.3989 -0.9953
14596TIP3   OH265278   2.010   5.096  13.252 -0.4421  0.1205 -0.0548
14596TIP3    H165279   2.054   5.137  13.327 -0.4215  0.0388 -0.0221
14596TIP3    H265280   1.928   5.145  13.244 -0.0195  0.7540 -0.5730
14597TIP3   OH265281   6.139   1.663   6.160  0.1423  0.4878  0.5179
14597TIP3    H165282   6.053   1.637   6.127  0.5983  1.6141 -1.7490
14597TIP3    H265283   6.123   1.686   6.251 -1.5200 -1.2886  0.7498
14598TIP3   OH265284   4.054   2.628  12.587  0.1580  0.4114  0.7200
14598TIP3    H165285   4.118   2.668  12.527  2.7173 -1.2611  2.1326
14598TIP3    H265286   4.013   2.702  12.631 -1.4529  1.6820 -2.5635
14599TIP3   OH265287   0.969   3.492   2.432  0.5134 -0.3443 -0.7776
14599TIP3    H165288   0.924   3.472   2.514  2.3084  1.6147  0.8133
14599TIP3    H265289   1.054   3.526   2.460  2.4696 -2.4843 -3.5613
14600TIP3   OH265290   2.891   1.066   3.853 -0.5546 -0.5189  0.3327
14600TIP3    H165291   2.943   1.129   3.804 -1.3474  0.2924  0.4985
14600TIP3    H265292   2.812   1.054   3.800 -1.5079  0.5106  1.4661
14601TIP3   OH265293   5.496   0.502   0.387  0.7349  0.6430  0.0084
14601TIP3    H165294   5.457   0.422   0.352  0.2102  0.9505 -0.1158
14601TIP3    H265295   5.449   0.573   0.343  2.2862  1.0296 -1.1186
14602TIP3   OH265296   4.508   4.982   5.495 -0.4610 -0.1140 -0.3912
14602TIP3    H165297   4.471   5.052   5.441 -0.9837 -1.3119 -1.6651
14602TIP3    H265298   4.436   4.922   5.509  0.0050 -0.4640  0.6011
14603TIP3   OH265299   4.148   0.363   4.518  0.1268 -0.0546  0.3170
14603TIP3    H165300   4.136   0.366   4.613  1.5392 -1.4687  0.5989
14603TIP3    H265301   4.148   0.454   4.490 -3.3587  0.3413  1.1898
14604TIP3   OH265302   2.934   0.644  11.043  0.1342 -0.3513  0.3315
14604TIP3    H165303   2.875   0.582  11.000  0.0367 -1.3171  1.7599
14604TIP3    H265304   2.993   0.675  10.974  0.3032 -2.1822 -0.3873
14605TIP3   OH265305   5.932   6.714   6.771  0.2148  0.8130 -0.3365
14605TIP3    H165306   5.846   6.721   6.729  1.1271  0.2526 -2.4220
14605TIP3    H265307   5.958   6.624   6.756  1.2056  0.9982  0.2159
14606TIP3   OH265308   0.680   3.419  12.068  0.1618 -0.7351  0.7167
14606TIP3    H165309   0.737   3.496  12.062  0.4471 -1.0569 -2.0500
14606TIP3    H265310   0.689   3.389  12.158  0.4038  2.1609  1.7580
14607TIP3   OH265311   2.445   2.112  16.186  0.2714  0.3141  0.2798
14607TIP3    H165312   2.411   2.024  16.203  0.5737  0.0171 -0.5631
14607TIP3    H265313   2.370   2.159  16.150  0.0856  0.4331  0.8118
14608TIP3   OH265314   6.425   1.269   5.929 -0.2333  0.1371  0.0982
14608TIP3    H165315   6.352   1.208   5.943 -0.0665 -0.1985 -0.4450
14608TIP3    H265316   6.453   1.251   5.839  0.1833  0.6270  0.1308
14609TIP3   OH265317   0.133   6.279   2.295 -0.5858  0.0422  0.0318
14609TIP3    H165318   0.186   6.274   2.375 -0.7491  0.4922  0.1699
14609TIP3    H265319   0.075   6.203   2.300  0.7230 -1.0334 -0.6137
14610TIP3   OH265320   2.316   5.276  16.694 -0.2966  0.0023  0.4858
14610TIP3    H165321   2.332   5.226  16.775 -1.2418 -1.6547 -0.2914
14610TIP3    H265322   2.356   5.223  16.625  0.4229  1.3575 -0.1646
14611TIP3   OH265323   6.563   0.749   4.003  0.5003 -0.4706 -0.1678
14611TIP3    H165324   6.636   0.796   4.043  0.2228  0.3060 -0.5532
14611TIP3    H265325   6.499   0.739   4.073  0.4517 -0.0363 -0.1510
14612TIP3   OH265326   3.623   6.607   6.073  0.1367 -0.0577 -0.1148
14612TIP3    H165327   3.569   6.554   6.131 -1.3828 -0.5205 -1.8712
14612TIP3    H265328   3.593   6.696   6.087 -0.9627 -0.2815 -0.8835
14613TIP3   OH265329   1.974   1.714  14.833  0.2636 -0.5655  0.2207
14613TIP3    H165330   1.997   1.656  14.761  1.6910 -0.5893  0.6711
14613TIP3    H265331   1.952   1.656  14.905 -1.2364 -0.5425 -0.1794
14614TIP3   OH265332   1.797   6.369   5.145  0.0481 -0.0068  0.0022
14614TIP3    H165333   1.811   6.431   5.074  1.6372 -0.4023 -0.0723
14614TIP3    H265334   1.785   6.284   5.101 -0.5771 -0.0054  0.1584
14615TIP3   OH265335   6.548   2.523   2.249  0.4810 -0.2340 -0.5571
14615TIP3    H165336   6.556   2.595   2.312  2.4408 -2.4789  1.9944
14615TIP3    H265337   6.484   2.464   2.289  1.1281 -1.3114 -1.0898
14616TIP3   OH265338   1.482   5.150  17.214 -0.2033  0.0046  0.2896
14616TIP3    H165339   1.450   5.060  17.221 -3.2760  0.9982  0.2325
14616TIP3    H265340   1.541   5.148  17.139 -1.3303 -1.6958 -0.6162
14617TIP3   OH265341   4.627   1.737  15.870  0.1063  0.8475 -0.6830
14617TIP3    H165342   4.600   1.698  15.787 -0.9790  1.8439 -0.8306
14617TIP3    H265343   4.584   1.683  15.937  0.5109  0.3955 -0.7842
14618TIP3   OH265344   2.595   5.576  14.694 -0.1294  0.4031 -0.1006
14618TIP3    H165345   2.592   5.519  14.770  1.1332 -0.9501 -1.0250
14618TIP3    H265346   2.684   5.568  14.661 -0.9296  0.0953 -2.3433
14619TIP3   OH265347   1.786   2.988   2.566 -0.6449 -0.1235  0.1173
14619TIP3    H165348   1.875   2.954   2.577 -0.7202 -0.2564  0.3218
14619TIP3    H265349   1.754   2.947   2.486 -0.6743 -0.4044  0.2706
14620TIP3   OH265350   0.981   4.568  11.069 -0.3684  0.1038  0.0761
14620TIP3    H165351   1.017   4.619  10.997 -2.8419 -1.8999 -2.8367
14620TIP3    H265352   0.927   4.630  11.118  1.0477  1.4121  0.0586
14621TIP3   OH265353   3.389   3.957   6.110 -0.8214 -0.0726  0.1093
14621TIP3    H165354   3.318   3.892   6.112 -0.4861 -0.5174  3.9037
14621TIP3    H265355   3.365   4.021   6.176  2.7229 -0.8850  2.4694
14622TIP3   OH265356   2.052   5.180  14.511 -0.1215  0.1152 -0.4859
14622TIP3    H165357   2.070   5.193  14.418  0.2913  2.0940 -0.1887
14622TIP3    H265358   1.985   5.246  14.532 -0.3428 -0.4246  0.5816
14623TIP3   OH265359   0.562   1.679   3.285 -0.2372  0.8123  0.6617
14623TIP3    H165360   0.585   1.713   3.371  2.5330 -1.4603  0.9826
14623TIP3    H265361   0.632   1.708   3.228 -1.2627  1.0482 -0.5256
14624TIP3   OH265362   1.979   1.973   4.241  0.3082  0.1169 -0.0253
14624TIP3    H165363   1.963   1.885   4.274 -1.7323 -0.1675 -1.5265
14624TIP3    H265364   2.018   2.020   4.314  0.1470 -1.6577  1.2563
14625TIP3   OH265365   3.977   6.233  14.060 -0.1174 -0.1380  0.0877
14625TIP3    H165366   4.038   6.297  14.096 -1.4541  0.4989  1.2985
14625TIP3    H265367   3.894   6.250  14.104 -1.1383 -1.1352 -1.3281
14626TIP3   OH265368   4.252   3.544   3.701 -0.3429 -0.3452 -0.4616
14626TIP3    H165369   4.344   3.550   3.674  0.0073 -0.4628  0.6538
14626TIP3    H265370   4.204   3.530   3.620  0.7063 -1.0867 -0.9699
14627TIP3   OH265371   2.347   5.589   3.233  0.3521 -0.0940  0.4418
14627TIP3    H165372   2.319   5.500   3.251  0.7821 -0.6664 -1.5148
14627TIP3    H265373   2.408   5.581   3.160 -0.4979  1.8998 -0.5587
14628TIP3   OH265374   4.823   3.750   2.811  0.4977  0.2289 -0.3003
14628TIP3    H165375   4.867   3.669   2.837 -0.8529 -0.4515 -0.0544
14628TIP3    H265376   4.883   3.820   2.838  2.8525 -0.6855 -2.7005
14629TIP3   OH265377   4.415   0.399  13.004  0.3130  0.2168 -0.2533
14629TIP3    H165378   4.383   0.331  12.946 -0.2809  0.1371  0.1631
14629TIP3    H265379   4.484   0.444  12.953  0.4153 -0.4139 -0.6766
14630TIP3   OH265380   3.725   5.754   0.435 -0.4188  0.2035  0.1477
14630TIP3    H165381   3.712   5.739   0.341  0.2046  0.6730 -0.0182
14630TIP3    H265382   3.732   5.849   0.443  1.3225  0.0858  0.4247
14631TIP3   OH265383   3.687   4.978  16.517 -0.2767 -0.2254  0.4537
14631TIP3    H165384   3.746   5.043  16.556  0.4710 -1.3442  1.2453
14631TIP3    H265385   3.607   4.985  16.567 -0.4465  0.5481  0.0877
14632TIP3   OH265386   5.415   4.991   3.634  0.2188  0.4615  0.6960
14632TIP3    H165387   5.489   5.045   3.661  1.3001 -0.4232 -0.3972
14632TIP3    H265388   5.447   4.901   3.640 -0.8191  0.0592  0.3591
14633TIP3   OH265389   3.782   4.933   1.441 -0.0483  0.1452 -0.1569
14633TIP3    H165390   3.853   4.905   1.384  1.2314 -1.0985  1.9250
14633TIP3    H265391   3.704   4.889   1.405  0.8472 -1.2021 -0.5173
14634TIP3   OH265392   1.724   4.687   3.800  0.6011 -0.1648  0.0770
14634TIP3    H165393   1.654   4.651   3.855  0.4853 -2.4582 -1.4337
14634TIP3    H265394   1.805   4.652   3.836  0.6508 -0.4656 -0.3186
14635TIP3   OH265395   0.377   1.470  13.432  0.0935 -0.2616 -0.2102
14635TIP3    H165396   0.432   1.405  13.476  0.1241 -0.2627 -0.2502
14635TIP3    H265397   0.341   1.523  13.504  1.2753  0.6445 -0.2552
14636TIP3   OH265398   6.660   3.130   5.929 -0.1325 -0.3223  0.6493
14636TIP3    H165399   6.641   3.038   5.947  0.7571 -0.5589  0.3979
14636TIP3    H265400   6.726   3.128   5.860  1.0329  0.4576  1.6891
14637TIP3   OH265401   1.465   3.119  14.612 -0.4587  0.0923 -0.0463
14637TIP3    H165402   1.459   3.211  14.637  0.3742  0.1020  0.1259
14637TIP3    H265403   1.558   3.101  14.608 -0.5987 -0.4624 -1.1451
14638TIP3   OH265404   6.050   1.778  11.941 -0.0349 -0.7598  0.3959
14638TIP3    H165405   6.073   1.733  11.859  0.3336 -1.3916  0.8429
14638TIP3    H265406   6.128   1.769  11.996  0.0606  0.4605  0.4901
14639TIP3   OH265407   5.737   0.924   5.136 -0.5111 -0.2925 -0.2616
14639TIP3    H165408   5.655   0.942   5.183 -0.9394  0.9895 -1.3830
14639TIP3    H265409   5.710   0.870   5.062 -0.0328 -1.3731  0.3457
14640TIP3   OH265410   0.817   2.281   4.820  0.2599 -0.5667  0.4128
14640TIP3    H165411   0.866   2.364   4.817  1.1712 -0.9856  2.3445
14640TIP3    H265412   0.875   2.218   4.778  0.0068 -0.4419 -0.1313
14641TIP3   OH265413   4.845   2.270   0.680  0.2036  0.2772  0.3748
14641TIP3    H165414   4.892   2.190   0.706  0.4400  0.6514  1.1467
14641TIP3    H265415   4.909   2.318   0.628 -0.2591 -0.4631 -0.9015
14642TIP3   OH265416   0.833   1.716   0.476  0.6998  0.6033  0.3092
14642TIP3    H165417   0.927   1.729   0.487  1.5021 -3.1545 -0.7648
14642TIP3    H265418   0.821   1.707   0.382 -0.1222 -1.9870  0.5728
14643TIP3   OH265419   6.001   4.266  16.920  0.0630  0.0929 -0.4491
14643TIP3    H165420   6.029   4.196  16.862  1.0612 -0.8820  1.1261
14643TIP3    H265421   6.064   4.336  16.907  2.3088 -1.3569  1.6866
14644TIP3   OH265422   6.267   4.433  16.468 -0.2244 -0.3703  0.3824
14644TIP3    H165423   6.189   4.380  16.487 -0.5707  0.4525  1.3936
14644TIP3    H265424   6.231   4.518  16.440  0.3209 -0.4846 -0.7029
14645TIP3   OH265425   2.418   4.642  17.036  0.4851 -0.3095  0.1867
14645TIP3    H165426   2.453   4.584  17.104 -0.4183 -1.7410 -0.5238
14645TIP3    H265427   2.492   4.656  16.976  1.4344  1.3636  1.6509
14646TIP3   OH265428   3.448   3.935   0.930  0.0446  0.1074  0.3792
14646TIP3    H165429   3.434   3.981   1.013  0.5666 -0.6531  0.8989
14646TIP3    H265430   3.524   3.978   0.891  0.0199  0.2269  0.4619
14647TIP3   OH265431   6.345   5.781  15.404  0.1103  0.1061  0.2332
14647TIP3    H165432   6.388   5.845  15.347  1.8526 -1.0082  0.2365
14647TIP3    H265433   6.389   5.789  15.488 -1.0375  0.2889  0.8329
14648TIP3   OH265434   0.531   5.877  12.969  0.4947  0.2377 -0.2834
14648TIP3    H165435   0.469   5.947  12.952  0.7118  0.7563  0.9475
14648TIP3    H265436   0.513   5.812  12.901 -2.4606 -0.3655  0.9422
14649TIP3   OH265437   2.145   2.647  12.427  0.3527 -0.2086 -0.0494
14649TIP3    H165438   2.094   2.582  12.378 -0.3734 -0.5571  1.1322
14649TIP3    H265439   2.101   2.730  12.409  1.4266  0.0571 -1.7618
14650TIP3   OH265440   3.088   4.874   4.765  0.2778  0.2713  0.2556
14650TIP3    H165441   3.045   4.917   4.691  2.0485 -0.6675 -1.3949
14650TIP3    H265442   3.181   4.893   4.753  0.6899 -0.5872  1.8011
14651TIP3   OH265443   1.662   4.937  14.503  0.1823  0.7766 -0.5058
14651TIP3    H165444   1.663   4.861  14.561 -1.3472 -0.0122 -1.4699
14651TIP3    H265445   1.647   5.011  14.563  0.5890  0.2098  0.3209
14652TIP3   OH265446   3.039   0.525  15.059 -0.0356  0.0344 -0.2864
14652TIP3    H165447   2.982   0.581  15.007 -0.4684  0.7293  0.9035
14652TIP3    H265448   3.008   0.536  15.149  0.6012 -1.2428  0.1141
14653TIP3   OH265449   1.856   5.613   5.846  0.2155 -0.4407  0.1815
14653TIP3    H165450   1.843   5.536   5.902  1.2934 -2.1374 -1.7501
14653TIP3    H265451   1.947   5.606   5.818 -0.2115  0.4955 -1.5369
14654TIP3   OH265452   1.711   1.469   3.069  0.2105  1.0457 -0.5675
14654TIP3    H165453   1.665   1.459   2.985 -1.9854 -1.6120  0.7974
14654TIP3    H265454   1.668   1.544   3.111  0.1074  1.2698 -1.0634
14655TIP3   OH265455   5.490   5.091   1.090  0.3654  0.7507  0.0810
14655TIP3    H165456   5.439   5.170   1.105  1.2062  1.2815  0.2250
14655TIP3    H265457   5.560   5.119   1.031  0.9522  0.2399  0.5204
14656TIP3   OH265458   1.822   1.041  14.735  0.0907  0.1660 -0.2664
14656TIP3    H165459   1.850   1.006  14.650  0.1694 -1.7281  0.5073
14656TIP3    H265460   1.829   0.968  14.795 -3.1707  0.5179  0.7314
14657TIP3   OH265461   2.085   3.003   2.879  0.2855 -0.2137 -0.2347
14657TIP3    H165462   2.178   2.980   2.881  0.2149 -0.4362  0.4606
14657TIP3    H265463   2.055   2.992   2.969 -0.2101  0.7194 -0.2748
14658TIP3   OH265464   0.206   2.542  12.989 -0.1663 -0.4667  0.3019
14658TIP3    H165465   0.209   2.511  13.079 -0.8198 -0.6649  0.2680
14658TIP3    H265466   0.209   2.637  12.995 -2.7047 -0.3399  0.7219
14659TIP3   OH265467   3.030   2.083   5.632 -0.1116 -0.4326 -0.1454
14659TIP3    H165468   3.116   2.121   5.653 -0.3233 -0.6001  1.1097
14659TIP3    H265469   3.033   1.995   5.669 -0.7161 -0.5472 -0.3557
14660TIP3   OH265470   1.880   0.130   5.531  0.9636 -0.1134 -0.1990
14660TIP3    H165471   1.877   0.132   5.627  2.9033 -0.3724 -0.0973
14660TIP3    H265472   1.800   0.084   5.506  0.1170  0.4938  1.2547
14661TIP3   OH265473   4.763   3.430   5.889 -0.1301 -0.2944  0.4684
14661TIP3    H165474   4.668   3.442   5.892 -0.1082  0.8567 -1.4934
14661TIP3    H265475   4.794   3.462   5.973 -1.5743 -2.3666  1.9083
14662TIP3   OH265476   5.861   5.317   3.261  0.8263  0.1069 -0.5232
14662TIP3    H165477   5.804   5.263   3.316 -0.3965  1.5388 -0.3383
14662TIP3    H265478   5.852   5.279   3.173 -0.2670  0.1919 -0.4608
14663TIP3   OH265479   3.673   6.123   1.988  0.1527  0.2881  0.0930
14663TIP3    H165480   3.602   6.059   1.990 -0.3865  0.6818 -2.5030
14663TIP3    H265481   3.720   6.103   1.907  0.8595  2.2339 -0.0214
14664TIP3   OH265482   6.440   3.756  15.111 -0.1455  0.5056 -0.0490
14664TIP3    H165483   6.386   3.727  15.184 -1.1925 -0.8884 -1.3215
14664TIP3    H265484   6.498   3.682  15.093  0.9909  1.3176  0.1524
14665TIP3   OH265485   5.980   3.358  15.568 -0.1694 -0.1003 -0.3343
14665TIP3    H165486   5.989   3.442  15.523  0.4312 -0.3492 -0.6954
14665TIP3    H265487   6.049   3.304  15.530 -0.4402 -0.7000  0.0246
14666TIP3   OH265488   1.055   5.966   6.099 -0.8473 -0.1419  0.8485
14666TIP3    H165489   0.998   5.890   6.085 -2.3090  1.1005 -0.3821
14666TIP3    H265490   1.000   6.029   6.146  0.3262  0.1892  1.8191
14667TIP3   OH265491   0.826   4.636   3.956  0.0728  0.4946  0.2563
14667TIP3    H165492   0.861   4.708   3.903 -2.7128  2.3749  0.7440
14667TIP3    H265493   0.857   4.655   4.044 -2.9448  2.9515  0.9575
14668TIP3   OH265494   3.513   1.640   4.637 -0.1581  0.1522  0.4184
14668TIP3    H165495   3.466   1.701   4.694  1.1185  1.5212  0.0692
14668TIP3    H265496   3.523   1.688   4.554  0.9669 -0.4931  0.1627
14669TIP3   OH265497   4.947   2.643  15.849  0.0723  0.5419  0.2816
14669TIP3    H165498   4.893   2.652  15.927  0.7918  0.0273  0.8543
14669TIP3    H265499   5.002   2.722  15.849  1.2591 -0.2338  1.2620
14670TIP3   OH265500   4.850   2.902   1.672  0.4501 -0.5366 -0.2100
14670TIP3    H165501   4.875   2.977   1.618 -0.0193 -1.1783 -1.3648
14670TIP3    H265502   4.901   2.912   1.752 -1.2582  2.1937  0.6353
14671TIP3   OH265503   1.246   1.051  13.987  0.0509 -0.4307 -0.7767
14671TIP3    H165504   1.244   1.029  14.080  3.4508 -0.3863 -0.5829
14671TIP3    H265505   1.285   0.974  13.945 -0.0551  0.1397 -1.9560
14672TIP3   OH265506   4.009   2.107   4.113 -0.2724 -0.3115  0.1728
14672TIP3    H165507   3.999   2.188   4.063  0.6745 -1.1202 -1.4268
14672TIP3    H265508   4.038   2.136   4.200  0.9880  1.0559 -0.6456
14673TIP3   OH265509   3.733   1.696  15.767  0.0654  0.5525 -0.3960
14673TIP3    H165510   3.801   1.639  15.802  0.2910  0.5796 -0.7932
14673TIP3    H265511   3.766   1.724  15.682 -0.5708  0.3303 -0.7234
14674TIP3   OH265512   6.427   4.936   4.937  0.2548  0.1544 -0.4551
14674TIP3    H165513   6.438   4.862   4.997 -1.3693  0.5575  0.4065
14674TIP3    H265514   6.471   5.009   4.980 -0.7766  0.4049  0.2137
14675TIP3   OH265515   1.671   5.501  12.077 -0.0816  0.4246 -0.6486
14675TIP3    H165516   1.691   5.407  12.074  0.4261  0.5148 -0.2955
14675TIP3    H265517   1.590   5.510  12.027 -1.5798 -0.5718  1.4621
14676TIP3   OH265518   1.140   1.948  17.195 -1.2154  0.1012 -0.3353
14676TIP3    H165519   1.103   1.920  17.111  0.6308 -0.9737 -0.8326
14676TIP3    H265520   1.226   1.908  17.198 -1.2752  0.0314  2.1504
14677TIP3   OH265521   1.710   3.087   1.511  0.5863  0.2791  0.6003
14677TIP3    H165522   1.750   3.056   1.592  1.7339 -0.0565 -0.0831
14677TIP3    H265523   1.672   3.009   1.471  1.9928  0.0189 -0.2813
14678TIP3   OH265524   0.005   1.851   2.870 -0.0888 -0.2546 -0.1717
14678TIP3    H165525   0.088   1.830   2.914  0.4504  1.5939 -0.2223
14678TIP3    H265526  -0.062   1.830   2.935  0.6477  1.6856  1.3500
14679TIP3   OH265527   0.286   3.945  14.367 -0.3107  0.6397  0.1034
14679TIP3    H165528   0.260   3.868  14.418  3.0720 -1.0094 -0.3647
14679TIP3    H265529   0.231   3.942  14.289  0.0006 -1.6212 -0.1092
14680TIP3   OH265530   1.707   4.966  16.630  0.2906  0.6217  0.2201
14680TIP3    H165531   1.707   4.871  16.645  1.5022  0.3266 -1.3512
14680TIP3    H265532   1.642   5.000  16.691 -3.4881 -1.7088 -2.0839
14681TIP3   OH265533   3.092   1.695  12.952 -0.5009 -0.0919 -0.4439
14681TIP3    H165534   3.111   1.666  13.041  1.0498 -1.2361 -1.0977
14681TIP3    H265535   3.055   1.618  12.909  0.2346 -0.0283 -1.2112
14682TIP3   OH265536   3.751   1.595   5.868  0.2288 -0.4950  0.2028
14682TIP3    H165537   3.706   1.634   5.943  1.1731 -0.8029  0.9629
14682TIP3    H265538   3.764   1.503   5.893  4.2183  0.2246  1.6040
14683TIP3   OH265539   2.765   1.301  12.559  0.2487  0.4856 -0.3139
14683TIP3    H165540   2.701   1.325  12.493  1.2761  2.8140 -0.5504
14683TIP3    H265541   2.716   1.246  12.621 -1.1933 -0.2067 -1.9731
14684TIP3   OH265542   3.876   6.204  11.977 -0.5501  0.0579  0.1329
14684TIP3    H165543   3.967   6.190  11.953 -0.2560  0.5051  0.9470
14684TIP3    H265544   3.843   6.116  11.997  0.7802  0.1715  3.4876
14685TIP3   OH265545   5.956   2.080  11.718  0.3306 -0.4476  0.6492
14685TIP3    H165546   5.941   2.152  11.656 -1.5719 -0.7802  0.6514
14685TIP3    H265547   5.949   2.122  11.804 -2.5598 -0.8117  0.7053
14686TIP3   OH265548   6.451   0.921   2.087  0.1204 -0.0170  0.0771
14686TIP3    H165549   6.522   0.890   2.143 -1.2235 -1.4589  1.0539
14686TIP3    H265550   6.384   0.952   2.148 -0.6808 -0.0102 -0.7851
14687TIP3   OH265551   6.536   5.401  11.970 -0.0561  0.1699  0.4435
14687TIP3    H165552   6.500   5.319  11.936  2.0642 -0.0294 -1.6062
14687TIP3    H265553   6.459   5.451  11.999 -1.4323 -2.3311  1.3803
14688TIP3   OH265554   4.127   6.438  13.124  0.5434 -0.4714 -0.2529
14688TIP3    H165555   4.197   6.462  13.184 -0.1309  1.0765 -0.0365
14688TIP3    H265556   4.067   6.384  13.176  0.2311  0.4214  0.3217
14689TIP3   OH265557   3.921   2.043   2.178 -0.7737 -0.2236 -0.0977
14689TIP3    H165558   3.929   2.036   2.083 -2.8503 -1.2835 -0.2611
14689TIP3    H265559   3.929   2.137   2.196  0.7354 -0.1211 -1.1651
14690TIP3   OH265560   4.017   4.851  14.323 -0.1119 -0.1574  0.0785
14690TIP3    H165561   4.108   4.869  14.296 -0.7036  0.4025 -1.6854
14690TIP3    H265562   3.967   4.926  14.290 -1.2804 -0.6209  0.7422
14691TIP3   OH265563   0.807   0.908   4.068  0.2681 -0.2589 -0.2676
14691TIP3    H165564   0.747   0.836   4.048 -2.1062  1.1742  1.2551
14691TIP3    H265565   0.811   0.958   3.987 -1.1389 -0.0544 -0.2453
14692TIP3   OH265566   6.105   6.648   2.529  0.2257 -0.4498  0.4710
14692TIP3    H165567   6.188   6.673   2.488  0.4206 -1.8946 -0.0505
14692TIP3    H265568   6.048   6.623   2.456 -0.1325 -1.0037  0.9278
14693TIP3   OH265569   4.862   4.111  14.855  0.2109 -0.0997  0.2801
14693TIP3    H165570   4.871   4.105  14.950  0.9020  0.3125  0.2426
14693TIP3    H265571   4.934   4.058  14.821  0.1768  0.0446 -0.0180
14694TIP3   OH265572   2.622   5.187   6.489  0.1837 -0.2439  0.4153
14694TIP3    H165573   2.686   5.208   6.421  0.0914 -0.5345  0.2310
14694TIP3    H265574   2.673   5.147   6.559  0.4751  1.3054  1.1212
14695TIP3   OH265575   2.961   6.349   2.291 -0.1215 -0.3996  0.0188
14695TIP3    H165576   2.948   6.303   2.374  0.2548  1.2310  1.0333
14695TIP3    H265577   3.038   6.404   2.306 -0.4891  0.4785 -1.1454
14696TIP3   OH265578   2.269   0.151  16.796 -0.6382 -0.3369  0.0704
14696TIP3    H165579   2.202   0.096  16.838 -0.5828 -0.9350 -0.6029
14696TIP3    H265580   2.258   0.134  16.702  2.5112 -2.9761  0.0059
14697TIP3   OH265581   2.318   1.159  12.128  0.2426 -1.2996  0.6839
14697TIP3    H165582   2.248   1.095  12.138 -0.6258 -0.1665  2.1773
14697TIP3    H265583   2.325   1.201  12.213 -1.0423  2.4208 -0.8304
14698TIP3   OH265584   3.931   6.048   2.960 -0.0544 -0.2982 -0.0198
14698TIP3    H165585   3.865   6.105   2.921 -0.1083 -0.0700  0.3971
14698TIP3    H265586   3.935   6.075   3.052  1.9209  0.9458 -0.3980
14699TIP3   OH265587   1.807   3.575   1.196 -0.5368 -0.2654  0.3011
14699TIP3    H165588   1.808   3.489   1.155  1.3818 -0.0962 -0.1017
14699TIP3    H265589   1.807   3.636   1.122  0.9448  0.0447  0.5262
14700TIP3   OH265590   5.100   4.842   6.561 -0.6434 -0.3008  0.0601
14700TIP3    H165591   5.081   4.902   6.489 -1.1371 -0.1596  0.3001
14700TIP3    H265592   5.195   4.830   6.559 -0.3863  1.3978  0.7222
14701TIP3   OH265593   5.397   6.725  16.741  0.0251 -0.5505 -0.0956
14701TIP3    H165594   5.411   6.642  16.786  1.2859 -0.1195  0.3614
14701TIP3    H265595   5.379   6.787  16.811 -0.4603 -0.3431 -0.4011
14702TIP3   OH265596   2.273   1.843  13.553  0.1717  0.1964 -0.6369
14702TIP3    H165597   2.363   1.811  13.545  0.1177  0.1692 -1.1685
14702TIP3    H265598   2.278   1.935  13.528  0.5009  0.9280  1.8139
14703TIP3   OH265599   2.946   3.702  15.846  0.2882 -0.4980  1.0186
14703TIP3    H165600   2.854   3.728  15.851  0.4147  0.1194  0.1881
14703TIP3    H265601   2.966   3.698  15.753  1.5387  0.9761  1.1727
14704TIP3   OH265602   1.638   1.556   0.380 -0.4670 -0.0091  0.3725
14704TIP3    H165603   1.679   1.534   0.296 -2.0205 -0.9375 -0.1656
14704TIP3    H265604   1.602   1.474   0.412  1.4668 -0.0329  2.7839
14705TIP3   OH265605   1.837   6.396  11.255 -0.5933 -0.3793 -0.1071
14705TIP3    H165606   1.799   6.482  11.269  2.3512  0.9042  0.7604
14705TIP3    H265607   1.766   6.345  11.214 -2.3342  2.4945 -0.9896
14706TIP3   OH265608   0.784   3.879  13.797 -0.1960  1.1749  0.0397
14706TIP3    H165609   0.879   3.884  13.800 -0.1305  0.8364 -0.8557
14706TIP3    H265610   0.760   3.933  13.722 -0.5477 -0.1245 -0.8332
14707TIP3   OH265611   4.434   6.697  10.942 -0.4421 -0.8498 -0.5428
14707TIP3    H165612   4.520   6.735  10.924 -0.9748  0.5194 -0.3527
14707TIP3    H265613   4.434   6.613  10.897  0.7389 -0.5497 -1.1255
14708TIP3   OH265614   2.469   3.945   4.482  0.3333  0.0321 -0.4833
14708TIP3    H165615   2.446   3.948   4.575  1.5905 -2.1215 -0.0410
14708TIP3    H265616   2.394   3.984   4.437 -1.4904 -1.3002  1.2570
14709TIP3   OH265617   2.032   6.411  11.839 -0.3158 -0.0915  0.5967
14709TIP3    H165618   2.070   6.324  11.851 -0.5885 -0.7081 -2.2962
14709TIP3    H265619   2.097   6.471  11.876  1.4097 -1.3694 -0.2243
14710TIP3   OH265620   4.977   4.701  11.585  0.1037  0.3411 -0.0007
14710TIP3    H165621   4.928   4.649  11.521  1.4046 -2.0761  0.8540
14710TIP3    H265622   5.063   4.712  11.545 -0.3377  2.5937 -0.4867
14711TIP3   OH265623   5.602   0.688  13.904  0.0129 -0.4437  0.2466
14711TIP3    H165624   5.552   0.770  13.912 -1.0154 -0.8215 -1.7296
14711TIP3    H265625   5.590   0.662  13.812  2.3557 -1.5274  0.1941
14712TIP3   OH265626   2.685   3.946   2.455  0.0405  0.2201  0.5605
14712TIP3    H165627   2.678   3.973   2.547  0.5744  1.0449  0.3660
14712TIP3    H265628   2.769   3.980   2.426  0.2477 -0.7600 -0.0072
14713TIP3   OH265629   1.775   2.163  15.421 -0.2093  0.6766  0.0570
14713TIP3    H165630   1.849   2.133  15.368 -1.1020  1.8958 -2.0043
14713TIP3    H265631   1.767   2.256  15.401 -2.6993  0.4396 -0.3489
14714TIP3   OH265632   1.267   1.427  11.621 -0.3214 -0.7057  0.1951
14714TIP3    H165633   1.330   1.426  11.694 -0.3215 -0.2607  0.2084
14714TIP3    H265634   1.286   1.348  11.572  2.5355  0.9528 -1.6842
14715TIP3   OH265635   3.631   5.212  12.388 -0.6767 -0.0407 -0.2445
14715TIP3    H165636   3.694   5.165  12.333 -0.8298 -0.4540 -0.0753
14715TIP3    H265637   3.678   5.289  12.418  0.1017 -0.8441  0.6812
14716TIP3   OH265638   4.369   5.490  14.891  0.8855 -0.1459 -0.2757
14716TIP3    H165639   4.314   5.561  14.859  0.6050 -0.1711  0.1455
14716TIP3    H265640   4.310   5.434  14.941  1.5009  0.5064  1.2679
14717TIP3   OH265641   6.648   1.483   3.661  0.4997 -0.0121  0.0627
14717TIP3    H165642   6.638   1.535   3.581 -1.5576  0.4684  0.5689
14717TIP3    H265643   6.562   1.488   3.704  0.7958 -2.3093  1.0751
14718TIP3   OH265644   6.462   0.111   2.846  0.8507 -0.7421 -0.8250
14718TIP3    H165645   6.456   0.144   2.936  0.4906  1.9519 -1.7540
14718TIP3    H265646   6.553   0.083   2.837  0.3523 -3.3780  1.0321
14719TIP3   OH265647   0.460   2.456  14.893 -0.4431  0.1362  0.3604
14719TIP3    H165648   0.469   2.535  14.840 -1.7666 -0.0361 -0.1509
14719TIP3    H265649   0.403   2.399  14.842 -2.7715  0.4247  2.4227
14720TIP3   OH265650   0.105   4.598   3.637 -0.5549 -0.1383  0.1906
14720TIP3    H165651   0.199   4.605   3.656 -0.4412 -0.1679 -0.3244
14720TIP3    H265652   0.093   4.506   3.613 -0.1298  0.4312 -2.5904
14721TIP3   OH265653   4.522   3.830   6.353 -0.6178 -0.3614 -0.0685
14721TIP3    H165654   4.600   3.796   6.309  0.7783  0.9676  1.2312
14721TIP3    H265655   4.533   3.805   6.445 -2.3101 -1.0856 -0.0199
14722TIP3   OH265656   4.946   2.475  13.401 -0.6578  0.3019  0.5237
14722TIP3    H165657   4.984   2.389  13.415 -0.0414  0.6294  0.9040
14722TIP3    H265658   4.963   2.523  13.482 -0.4493  0.9797  0.0906
14723TIP3   OH265659   5.785   0.913   5.925 -0.1763 -0.0094  0.3960
14723TIP3    H165660   5.864   0.909   5.978 -0.0527  2.8075  0.5816
14723TIP3    H265661   5.715   0.880   5.982  0.5641 -0.7585  0.8816
14724TIP3   OH265662   2.580   6.067   2.918  0.3333  0.2917  0.1113
14724TIP3    H165663   2.581   6.162   2.912 -1.7233  0.4804  1.6208
14724TIP3    H265664   2.570   6.037   2.827 -0.9774  1.6173 -0.2219
14725TIP3   OH265665   2.830   6.176   4.089  0.0340  0.2293 -0.1393
14725TIP3    H165666   2.882   6.188   4.168  1.4096 -1.0337 -0.7995
14725TIP3    H265667   2.831   6.081   4.074 -0.7571  0.3843 -1.2979
14726TIP3   OH265668   1.252   4.650   3.189 -0.7784 -0.2503 -0.4001
14726TIP3    H165669   1.317   4.664   3.259  0.6861  0.0830 -1.7667
14726TIP3    H265670   1.248   4.555   3.180 -0.1128 -0.2661 -0.6077
14727TIP3   OH265671   2.930   5.050  12.751  0.4281 -0.4339 -0.1710
14727TIP3    H165672   2.913   5.118  12.687  0.6921 -1.1836 -1.0631
14727TIP3    H265673   2.932   4.969  12.700  3.4330 -0.7603  0.3064
14728TIP3   OH265674   4.780   6.568  15.298 -0.1633  0.2599  0.6571
14728TIP3    H165675   4.733   6.521  15.367  1.9204  0.0706  2.0656
14728TIP3    H265676   4.713   6.616  15.251 -1.8727 -0.9094  1.7824
14729TIP3   OH265677   2.819   2.220  14.796  0.4336 -0.6156 -0.1440
14729TIP3    H165678   2.826   2.146  14.736  1.2873 -0.0719 -0.7283
14729TIP3    H265679   2.764   2.188  14.868  0.8537 -1.8274 -0.3562
14730TIP3   OH265680   3.583   2.185   0.612 -0.2194  0.3783  0.1461
14730TIP3    H165681   3.649   2.217   0.550 -1.3120  1.9649 -0.2457
14730TIP3    H265682   3.525   2.131   0.559 -1.3661  2.0323 -0.3532
14731TIP3   OH265683   4.341   5.744   0.776  0.4266  0.4266  0.0183
14731TIP3    H165684   4.388   5.788   0.848  0.1323  0.7508  0.0184
14731TIP3    H265685   4.258   5.718   0.815  1.4380 -2.1214  0.6464
14732TIP3   OH265686   0.406   3.596   0.890 -0.1552  0.3750  0.1296
14732TIP3    H165687   0.486   3.553   0.922 -0.3764 -0.2834 -0.1922
14732TIP3    H265688   0.383   3.658   0.959  0.7169  0.6780  0.1594
14733TIP3   OH265689   3.370   4.349   0.328 -0.1664  0.3083 -0.3915
14733TIP3    H165690   3.401   4.269   0.370 -1.5329 -0.3161 -0.5332
14733TIP3    H265691   3.281   4.361   0.360 -0.1042  1.5957 -0.6424
14734TIP3   OH265692   4.249   2.068   4.434 -0.2436  0.0679  0.3393
14734TIP3    H165693   4.316   2.051   4.367 -0.2600  0.9249  0.0959
14734TIP3    H265694   4.299   2.094   4.511 -0.2806  0.3787  0.2588
14735TIP3   OH265695   0.907   1.786   4.661 -0.4164  0.5539  0.0547
14735TIP3    H165696   0.878   1.722   4.596 -0.3138  2.2158 -1.7401
14735TIP3    H265697   1.002   1.772   4.667 -0.5124 -0.0023  0.3001
14736TIP3   OH265698   5.438   6.485   4.424  0.2030 -0.0686 -0.4289
14736TIP3    H165699   5.458   6.421   4.355  1.1566 -0.9876  0.6624
14736TIP3    H265700   5.357   6.452   4.464 -0.3659  0.4803 -1.1114
14737TIP3   OH265701   5.421   4.413   2.797 -0.8497  0.4112  0.1738
14737TIP3    H165702   5.395   4.327   2.764  1.8560  0.8246 -3.7511
14737TIP3    H265703   5.512   4.402   2.824 -0.0801  2.1159 -1.4441
14738TIP3   OH265704   3.701   1.325  14.785  0.1524  0.0531  0.0300
14738TIP3    H165705   3.796   1.337  14.788  0.2038 -0.2266 -0.3715
14738TIP3    H265706   3.665   1.414  14.783  0.5124  0.2273 -2.9028
14739TIP3   OH265707   4.681   2.130  12.622 -0.6668 -0.1147 -0.1194
14739TIP3    H165708   4.671   2.203  12.683  0.4305 -0.4386  0.4843
14739TIP3    H265709   4.774   2.131  12.599 -0.8731 -0.5988 -1.0387
14740TIP3   OH265710   0.671   2.113   4.197  0.4183  0.1672  0.3683
14740TIP3    H165711   0.583   2.076   4.195  0.6299 -0.3232 -0.2650
14740TIP3    H265712   0.714   2.075   4.121  1.3084  0.1010  0.9016
14741TIP3   OH265713   3.655   2.021  12.165 -0.2533  0.0955 -0.1665
14741TIP3    H165714   3.744   2.058  12.170 -0.1905 -0.1487  0.7361
14741TIP3    H265715   3.598   2.092  12.196 -0.1916 -0.3110  0.9496
14742TIP3   OH265716   6.467   4.042   0.363  0.0487  0.6457 -0.7459
14742TIP3    H165717   6.461   4.137   0.374 -1.0199  0.5443 -0.3390
14742TIP3    H265718   6.392   4.007   0.411 -0.1956 -0.3346 -1.7941
14743TIP3   OH265719   1.095   0.553  16.841 -0.1824  0.2931  0.2894
14743TIP3    H165720   1.131   0.544  16.929  1.0620 -1.1323 -0.2987
14743TIP3    H265721   1.134   0.633  16.806  0.9294 -0.1942  0.3654
14744TIP3   OH265722   5.034   3.301  16.175 -0.2742 -0.8951  0.2969
14744TIP3    H165723   5.108   3.248  16.145 -0.4038 -0.2123 -1.3065
14744TIP3    H265724   5.056   3.390  16.150 -1.0085 -0.4760  1.0958
14745TIP3   OH265725   5.003   6.553   0.972 -0.3052 -0.1997  0.1294
14745TIP3    H165726   4.909   6.544   0.988 -0.1661 -1.7637  0.1362
14745TIP3    H265727   5.042   6.476   1.011  0.8925 -0.0288 -0.6804
14746TIP3   OH265728   1.940   5.827  14.542 -0.1069  0.4264  0.1740
14746TIP3    H165729   1.974   5.865  14.623  1.0726 -1.1130  0.4484
14746TIP3    H265730   1.854   5.793  14.566 -0.5692  1.6237  0.2754
14747TIP3   OH265731   6.145   1.037  13.169 -0.2357  0.3592  0.0491
14747TIP3    H165732   6.067   1.032  13.114 -0.6434  1.5441  0.4961
14747TIP3    H265733   6.117   1.003  13.254  0.3578 -1.3421 -0.3954
14748TIP3   OH265734   4.896   0.444  15.155  0.1343 -0.2570 -0.0409
14748TIP3    H165735   4.854   0.512  15.207  0.4741  0.2126 -0.3788
14748TIP3    H265736   4.860   0.456  15.067 -0.6445 -1.2160  0.1220
14749TIP3   OH265737   1.373   4.252   3.196 -0.5458  0.1518 -0.5826
14749TIP3    H165738   1.328   4.285   3.274  0.3529 -0.7566  0.3512
14749TIP3    H265739   1.311   4.268   3.124 -2.1430 -0.5812  0.5580
14750TIP3   OH265740   5.683   2.279  10.785  0.1376 -0.1656  0.3182
14750TIP3    H165741   5.623   2.219  10.741 -1.0497  0.4125  1.0909
14750TIP3    H265742   5.760   2.226  10.805 -1.6945 -2.0982  2.9300
14751TIP3   OH265743   0.084   2.644   1.572  0.3777 -0.1638 -0.3425
14751TIP3    H165744   0.040   2.560   1.584  2.2948 -1.1561  0.2060
14751TIP3    H265745   0.019   2.709   1.596 -1.2854 -1.4625 -1.1397
14752TIP3   OH265746   5.816   1.225   1.520 -0.0867  0.3175 -0.3741
14752TIP3    H165747   5.902   1.258   1.494  0.5607  0.2578  1.5534
14752TIP3    H265748   5.832   1.177   1.601 -1.9323  0.2322 -0.0165
14753TIP3   OH265749   5.890   3.199   5.502 -0.1575  0.2616 -0.1375
14753TIP3    H165750   5.900   3.195   5.407  1.2332 -2.7046  0.0164
14753TIP3    H265751   5.980   3.197   5.535 -0.6385  0.5772  1.2371
14754TIP3   OH265752   4.075   1.902  17.210  0.1996  0.3677  0.3639
14754TIP3    H165753   4.169   1.908  17.222 -0.0901  0.8159  3.0369
14754TIP3    H265754   4.054   1.810  17.224  0.3165  0.0576 -1.3139
14755TIP3   OH265755   1.954   5.110   3.004  0.0107 -0.3745  0.6482
14755TIP3    H165756   1.878   5.156   3.038 -1.3042 -1.6258 -0.4773
14755TIP3    H265757   2.009   5.094   3.080  0.2429  2.4409  1.1885
14756TIP3   OH265758   2.328   3.906  13.466 -0.1849  0.3817 -0.5820
14756TIP3    H165759   2.295   3.816  13.466 -2.3910  1.1278 -0.9964
14756TIP3    H265760   2.423   3.896  13.468 -0.3648 -1.9170  1.7250
14757TIP3   OH265761   3.927   4.104  10.609  0.2032 -0.4975  0.1028
14757TIP3    H165762   3.989   4.046  10.653  0.1301 -0.7766 -0.1579
14757TIP3    H265763   3.980   4.155  10.547  0.0785 -1.2347 -0.6276
14758TIP3   OH265764   1.841   6.270   3.626 -0.0549 -0.7034 -0.0881
14758TIP3    H165765   1.825   6.250   3.718 -3.2477 -1.6366 -0.7040
14758TIP3    H265766   1.777   6.338   3.605  1.9187  0.9124 -1.2270
14759TIP3   OH265767   2.207   3.977  13.147  0.0209 -0.3964 -0.0281
14759TIP3    H165768   2.113   3.962  13.141 -0.4579  1.9790  0.4583
14759TIP3    H265769   2.215   4.058  13.198  2.4233 -1.5605  1.6261
14760TIP3   OH265770   2.414   6.105   6.349 -0.2121  1.0829  0.1551
14760TIP3    H165771   2.460   6.178   6.306 -1.4687  2.1017  0.4950
14760TIP3    H265772   2.467   6.086   6.426  0.8148  0.7651 -0.5995
14761TIP3   OH265773   3.778   2.488   5.272  0.6571 -0.6958 -0.4988
14761TIP3    H165774   3.806   2.578   5.288  0.0448 -0.4505 -0.7971
14761TIP3    H265775   3.819   2.464   5.189  1.0851 -0.8131 -0.2610
14762TIP3   OH265776   3.105   1.180   0.421 -0.5603  0.5291 -0.3577
14762TIP3    H165777   3.048   1.105   0.438 -1.9712  0.5879 -3.8642
14762TIP3    H265778   3.134   1.209   0.508 -0.1382 -3.8185  1.2117
14763TIP3   OH265779   2.544   6.288   3.323  0.8629  0.2000  0.6800
14763TIP3    H165780   2.503   6.361   3.369  2.0037  1.5592 -0.3629
14763TIP3    H265781   2.481   6.263   3.255  0.5677  0.3605  0.8951
14764TIP3   OH265782   4.422   6.691  14.065 -0.2436 -0.4058  0.1122
14764TIP3    H165783   4.370   6.708  14.144  1.0572 -0.0633  0.9506
14764TIP3    H265784   4.433   6.778  14.025  0.1111 -0.3940  0.2310
14765TIP3   OH265785   4.924   1.486   0.170 -0.3368  0.1206  0.1899
14765TIP3    H165786   4.932   1.394   0.197  0.7930 -0.0983 -0.8512
14765TIP3    H265787   4.850   1.519   0.222 -0.5552 -1.2787  0.8180
14766TIP3   OH265788   2.784   0.853  11.637  0.3234  0.2884  1.1507
14766TIP3    H165789   2.751   0.767  11.664 -0.7690  0.5722  0.7902
14766TIP3    H265790   2.785   0.850  11.541  1.1516  0.3659  1.1538
14767TIP3   OH265791   5.608   6.635  15.819  0.5172  0.5380  0.1833
14767TIP3    H165792   5.643   6.551  15.791  0.3730  0.9229 -1.2135
14767TIP3    H265793   5.659   6.657  15.898  1.7766 -0.0277 -0.4460
14768TIP3   OH265794   5.021   6.211   5.951 -0.4601 -0.1508  0.0278
14768TIP3    H165795   5.012   6.191   6.044  0.0641 -1.1259 -0.1130
14768TIP3    H265796   5.085   6.282   5.948 -0.1652 -0.3950  0.4006
14769TIP3   OH265797   1.853   2.746  16.643 -0.8697 -0.1018  0.6223
14769TIP3    H165798   1.817   2.665  16.680 -1.5066  0.0307  0.2921
14769TIP3    H265799   1.947   2.727  16.632 -0.9492 -0.6676  0.8851
14770TIP3   OH265800   2.297   4.580  13.134  0.0103  0.0385  0.4555
14770TIP3    H165801   2.244   4.588  13.214 -0.3804  2.3606  0.0354
14770TIP3    H265802   2.341   4.496  13.143 -0.6236 -0.1222  2.7571
14771TIP3   OH265803   5.563   0.521   1.053 -0.4572  0.0649  0.6596
14771TIP3    H165804   5.652   0.554   1.067 -0.1710 -0.2650 -0.2964
14771TIP3    H265805   5.511   0.561   1.123  0.4238  0.3282  1.1812
14772TIP3   OH265806   5.978   3.390  13.567 -0.5104  0.0343 -0.0497
14772TIP3    H165807   5.905   3.338  13.535 -0.4021  1.6121 -3.2414
14772TIP3    H265808   5.942   3.478  13.579  0.5154  0.5002 -0.2427
14773TIP3   OH265809   5.308   6.055   1.495 -0.3074  0.0993  0.7499
14773TIP3    H165810   5.330   6.030   1.585  0.1362 -0.6534  0.4384
14773TIP3    H265811   5.256   5.982   1.462 -0.2748  0.2714  0.3129
14774TIP3   OH265812   0.049   0.535  16.177 -0.3698 -0.2870 -0.1248
14774TIP3    H165813   0.025   0.593  16.250 -0.5789 -1.6671  0.9546
14774TIP3    H265814   0.070   0.452  16.219  0.0116 -0.9755 -1.6204
14775TIP3   OH265815   2.742   5.721  12.254 -0.3067 -0.3911 -0.1257
14775TIP3    H165816   2.684   5.687  12.323 -0.3224  2.1576  1.2526
14775TIP3    H265817   2.829   5.693  12.281 -0.4781 -0.8635 -0.0362
14776TIP3   OH265818   1.947   1.488  11.571  0.4734 -0.4676  0.3547
14776TIP3    H165819   1.900   1.466  11.651  0.6723 -0.4294  0.4813
14776TIP3    H265820   1.879   1.513  11.509  0.2016 -1.8019  0.0883
14777TIP3   OH265821   3.206   3.002  14.555  0.3759  0.0306 -0.2178
14777TIP3    H165822   3.182   3.051  14.633  0.5199 -0.0973 -0.0934
14777TIP3    H265823   3.131   3.013  14.496  0.4083  0.3982 -0.1922
14778TIP3   OH265824   5.573   3.382  13.944  0.6402 -0.3765 -0.5461
14778TIP3    H165825   5.621   3.331  13.879  1.2252 -0.3825 -0.1088
14778TIP3    H265826   5.636   3.401  14.013  0.8438  2.1886 -1.3467
14779TIP3   OH265827   5.661   3.786  15.894 -0.6137  0.4343 -0.2272
14779TIP3    H165828   5.582   3.819  15.937 -1.0051 -0.4333 -0.2568
14779TIP3    H265829   5.709   3.740  15.963 -1.0140 -0.5564 -0.5821
14780TIP3   OH265830   4.812   2.266   4.454  0.9223  0.2896  0.3062
14780TIP3    H165831   4.893   2.227   4.419  0.6795 -2.0905  2.1123
14780TIP3    H265832   4.743   2.205   4.426 -0.2945  2.1911 -1.0549
14781TIP3   OH265833   1.534   0.583   3.965  0.8285  0.1987 -0.1568
14781TIP3    H165834   1.580   0.500   3.951  1.0192  0.4125 -0.8575
14781TIP3    H265835   1.461   0.581   3.902 -0.6194 -0.4809  1.4775
14782TIP3   OH265836   2.928   5.451   4.448 -0.1516 -0.5634  0.7171
14782TIP3    H165837   2.853   5.403   4.414 -1.2823  0.7280  1.3212
14782TIP3    H265838   2.999   5.430   4.387 -1.5513 -0.0262 -1.1932
14783TIP3   OH265839   1.136   3.913  11.335  0.0508 -0.7617  0.4857
14783TIP3    H165840   1.153   3.956  11.418 -0.9430  0.4584  0.0941
14783TIP3    H265841   1.114   3.822  11.358  0.4539 -0.6143  1.4742
14784TIP3   OH265842   2.671   5.644   6.218 -0.2707  0.1472 -0.7563
14784TIP3    H165843   2.654   5.718   6.159 -1.3467  0.2656 -0.3151
14784TIP3    H265844   2.719   5.683   6.291  0.4188  0.1345 -1.1915
14785TIP3   OH265845   2.354   6.427   3.475 -0.3621  0.5348  0.1774
14785TIP3    H165846   2.314   6.348   3.439 -0.9319  0.5736  0.7084
14785TIP3    H265847   2.297   6.498   3.447 -0.4616  0.6335  0.6226
14786TIP3   OH265848   2.910   1.648   3.959 -0.2978  0.2092  0.1747
14786TIP3    H165849   2.952   1.698   3.889 -1.0259  2.1392  1.0330
14786TIP3    H265850   2.943   1.559   3.948 -1.1051  0.2093 -3.1564
14787TIP3   OH265851   5.937   5.373   4.310 -0.4356 -0.2746 -0.3501
14787TIP3    H165852   5.853   5.338   4.340  0.2545 -3.5913 -1.7538
14787TIP3    H265853   5.929   5.376   4.214  0.5871  0.7422 -0.4241
14788TIP3   OH265854   4.226   5.269   4.368  0.1428 -0.2119  0.5776
14788TIP3    H165855   4.260   5.245   4.282  0.0467 -1.9734  0.9973
14788TIP3    H265856   4.155   5.207   4.384 -0.8072  1.0348  1.3120
14789TIP3   OH265857   0.496   1.127  11.518  0.1995  0.1826 -0.0061
14789TIP3    H165858   0.476   1.220  11.523 -0.1831  0.1285 -0.4995
14789TIP3    H265859   0.592   1.123  11.520  0.4067  0.8254 -3.2744
14790TIP3   OH265860   4.705   1.577   3.644  0.2264 -0.3909 -0.1320
14790TIP3    H165861   4.764   1.582   3.720  0.4631 -0.9092 -0.2830
14790TIP3    H265862   4.622   1.548   3.681  0.0760  0.2760  0.0714
14791TIP3   OH265863   0.416   6.798  16.170 -1.0189 -0.3765  0.0721
14791TIP3    H165864   0.360   6.815  16.245 -0.5827 -1.5376  0.6927
14791TIP3    H265865   0.493   6.754  16.208 -0.9794 -1.3518 -1.0962
14792TIP3   OH265866   3.717   1.941  16.576  0.4837  0.5149  0.0782
14792TIP3    H165867   3.628   1.906  16.564  1.0984 -1.7122  1.5389
14792TIP3    H265868   3.718   1.974  16.666  0.6299  2.3047 -0.5359
14793TIP3   OH265869   5.902   6.560   0.797  0.3582  0.3470 -0.2197
14793TIP3    H165870   5.972   6.625   0.808 -0.6124  1.5813 -1.1012
14793TIP3    H265871   5.854   6.589   0.719  0.6036 -2.1064 -1.3789
14794TIP3   OH265872   2.940   2.211   0.862  0.4799 -0.2768 -0.1085
14794TIP3    H165873   2.909   2.171   0.943  0.4188 -0.1754 -0.0811
14794TIP3    H265874   3.029   2.241   0.882 -0.5358  2.4311  0.8839
14795TIP3   OH265875   2.502   1.353   4.744 -0.1652  0.4753 -0.1780
14795TIP3    H165876   2.512   1.383   4.834 -2.6521 -2.2028  1.1770
14795TIP3    H265877   2.433   1.409   4.708  0.0519  0.8381 -0.0312
14796TIP3   OH265878   5.861   0.438   3.755 -0.1235 -0.7575  0.1056
14796TIP3    H165879   5.785   0.382   3.771 -0.5902 -0.8803 -2.2156
14796TIP3    H265880   5.923   0.382   3.708  1.0479 -0.3660  1.1015
14797TIP3   OH265881   0.262   0.494  13.179 -0.2672  0.0700  0.1917
14797TIP3    H165882   0.273   0.573  13.231  1.8710 -0.2210  0.2666
14797TIP3    H265883   0.193   0.444  13.225  0.7276  0.3586  2.0872
14798TIP3   OH265884   5.749   2.060   5.281 -0.2627  0.6068 -0.6024
14798TIP3    H165885   5.821   2.071   5.343  0.1431  1.1019 -1.1446
14798TIP3    H265886   5.703   1.982   5.311  0.9912 -0.2107 -0.7071
14799TIP3   OH265887   2.382   2.080  15.710  0.2964 -0.0912 -0.4214
14799TIP3    H165888   2.305   2.099  15.655 -1.6179 -2.5519  1.1931
14799TIP3    H265889   2.405   1.990  15.688  1.6237  0.0107  0.4453
14800TIP3   OH265890   6.297   1.801   3.237  0.2289 -0.2589 -0.6719
14800TIP3    H165891   6.329   1.758   3.316  0.7503  0.8250 -0.2874
14800TIP3    H265892   6.339   1.887   3.236 -1.7842  0.7881 -0.7326
14801TIP3   OH265893   1.181   0.796   3.018 -0.2872  0.4162  0.0592
14801TIP3    H165894   1.244   0.862   3.047  1.5835  0.1555 -2.9636
14801TIP3    H265895   1.100   0.845   3.002  0.3550  1.5221  0.0938
14802TIP3   OH265896   0.531   4.446  14.946 -0.2196  0.4137 -0.1504
14802TIP3    H165897   0.528   4.482  15.035 -3.0740  1.1040 -0.4304
14802TIP3    H265898   0.467   4.376  14.946 -0.1619  0.3293 -1.6297
14803TIP3   OH265899   1.449   1.699  11.996  0.0709 -0.0033  0.1334
14803TIP3    H165900   1.434   1.793  11.991 -0.8647 -0.1194  0.5829
14803TIP3    H265901   1.494   1.686  12.080 -1.3133 -0.1230  0.8855
14804TIP3   OH265902   0.890   2.372   5.446  0.0863  0.0382  0.3734
14804TIP3    H165903   0.963   2.363   5.507  0.4443  0.8581  0.0760
14804TIP3    H265904   0.847   2.454   5.473 -0.1883  0.0230 -0.0145
14805TIP3   OH265905   0.689   5.311   3.984  0.4705 -0.5686 -0.4347
14805TIP3    H165906   0.713   5.312   3.891  0.1243 -1.1042 -0.5265
14805TIP3    H265907   0.666   5.220   4.003 -0.0997 -0.3363  0.0154
14806TIP3   OH265908   1.452   3.776  16.114 -0.6391 -0.5119 -0.1523
14806TIP3    H165909   1.525   3.737  16.162 -1.6946 -0.9903  1.1306
14806TIP3    H265910   1.462   3.870  16.126 -0.6412 -0.6110  0.6583
14807TIP3   OH265911   6.176   0.746   4.924 -0.0937  0.2734  0.1943
14807TIP3    H165912   6.266   0.751   4.958 -0.0518  1.4653 -0.0343
14807TIP3    H265913   6.152   0.654   4.933  0.8848  0.0698  0.9482
14808TIP3   OH265914   3.440   2.539   6.495  0.3052 -0.0062 -0.1294
14808TIP3    H165915   3.377   2.587   6.441 -0.0680 -0.0630  0.2500
14808TIP3    H265916   3.409   2.551   6.585  0.1558 -1.0233 -0.0290
14809TIP3   OH265917   0.784   4.706  11.220  0.5820 -0.0594  0.4848
14809TIP3    H165918   0.722   4.757  11.272 -0.1222 -0.4362  0.0279
14809TIP3    H265919   0.802   4.629  11.273  1.8863  0.7733  1.3172
14810TIP3   OH265920   3.246   2.997  16.303  0.0451  0.0369  0.0264
14810TIP3    H165921   3.157   2.983  16.335  0.2394  0.1802  0.6454
14810TIP3    H265922   3.242   2.972  16.211 -0.3284 -1.2107  0.3572
14811TIP3   OH265923   1.067   1.342   0.617 -0.3950 -0.0131 -0.2921
14811TIP3    H165924   0.972   1.355   0.606 -0.5293 -1.2299 -0.7567
14811TIP3    H265925   1.086   1.381   0.702 -0.8519  2.3659 -1.1894
14812TIP3   OH265926   0.880   2.000   4.337 -0.1336 -0.0711 -0.3684
14812TIP3    H165927   0.961   2.048   4.321  0.8029 -1.8945 -1.4166
14812TIP3    H265928   0.812   2.052   4.293  0.6596  0.8106 -0.5840
14813TIP3   OH265929   4.799   5.800   4.222  0.0660  0.7000 -0.1986
14813TIP3    H165930   4.832   5.883   4.187  1.2584  0.5915  0.6109
14813TIP3    H265931   4.850   5.786   4.302 -0.5482 -0.5101 -0.0010
14814TIP3   OH265932   4.191   0.495   0.310 -0.3000 -0.2891 -0.0940
14814TIP3    H165933   4.262   0.547   0.349  0.8690 -1.8659 -0.0696
14814TIP3    H265934   4.145   0.458   0.386  1.2287 -2.3660 -0.1230
14815TIP3   OH265935   0.276   6.143  16.283  0.5208 -0.3179  0.2718
14815TIP3    H165936   0.210   6.132  16.351  1.3930 -1.1785  1.0053
14815TIP3    H265937   0.314   6.056  16.272  0.6173 -0.1317 -1.1016
14816TIP3   OH265938   0.721   0.385  15.624  0.3513 -0.5776 -0.4092
14816TIP3    H165939   0.743   0.432  15.704  1.2507  0.0525 -1.0122
14816TIP3    H265940   0.714   0.453  15.557 -1.6681 -0.9384 -0.6439
14817TIP3   OH265941   5.174   3.277   3.739 -0.4209  0.0457  0.6262
14817TIP3    H165942   5.114   3.220   3.691  0.0216  0.1447 -0.0695
14817TIP3    H265943   5.129   3.296   3.821 -0.8070 -0.8736  0.6448
14818TIP3   OH265944   2.552   2.877   2.674  0.0048  0.2858 -0.3492
14818TIP3    H165945   2.626   2.881   2.734  1.3725 -2.8336 -1.6054
14818TIP3    H265946   2.485   2.931   2.715  1.9196  0.8153  2.3651
14819TIP3   OH265947   5.678   5.913  11.549  0.3570  0.1098  0.5321
14819TIP3    H165948   5.602   5.891  11.496  1.5536 -0.1163 -1.1609
14819TIP3    H265949   5.677   6.008  11.556  0.2403  0.1444  0.0200
14820TIP3   OH265950   1.254   4.763   2.207 -0.2007 -0.8428 -0.0421
14820TIP3    H165951   1.240   4.709   2.129  0.2031  2.4444 -2.6149
14820TIP3    H265952   1.165   4.781   2.239 -0.4601 -0.9357 -0.6900
14821TIP3   OH265953   5.775   1.402  12.881 -0.3888  0.2248  0.5814
14821TIP3    H165954   5.845   1.355  12.927 -1.6991 -0.2777  2.1448
14821TIP3    H265955   5.771   1.487  12.925 -0.8333  0.2051  0.5827
14822TIP3   OH265956   0.939   1.152   1.423  0.1698 -0.3467  0.0763
14822TIP3    H165957   0.998   1.077   1.434  2.4276  1.2916 -0.2896
14822TIP3    H265958   0.913   1.149   1.331  1.8055  0.3454 -0.4450
14823TIP3   OH265959   0.033   6.208  16.754 -0.2155  0.3958 -0.0843
14823TIP3    H165960  -0.037   6.171  16.808 -0.4403  0.7441 -0.1341
14823TIP3    H265961   0.110   6.208  16.811  0.0500 -1.0773 -0.4040
14824TIP3   OH265962   0.691   5.585  16.950  0.4999 -0.2219 -0.3342
14824TIP3    H165963   0.601   5.580  16.983  0.3814  0.4318 -0.5485
14824TIP3    H265964   0.736   5.642  17.013 -0.1031  2.3314 -2.0569
14825TIP3   OH265965   1.602   4.265  10.947  0.1012  0.4028 -0.3512
14825TIP3    H165966   1.656   4.251  11.025  0.6616  1.9608 -0.4347
14825TIP3    H265967   1.603   4.181  10.902 -0.5947 -0.6813  1.5205
14826TIP3   OH265968   4.099   5.115   1.834  0.0162 -0.1965 -0.7449
14826TIP3    H165969   4.025   5.062   1.862  0.1952 -1.3781 -2.3966
14826TIP3    H265970   4.084   5.200   1.876 -1.2402 -0.9709  0.4820
14827TIP3   OH265971   2.120   0.195   3.668 -0.9636 -0.2512 -0.3203
14827TIP3    H165972   2.084   0.229   3.586 -0.3310  1.0279 -0.0948
14827TIP3    H265973   2.080   0.109   3.678 -1.9996  0.0852 -1.3427
14828TIP3   OH265974   5.566   3.326  16.366 -0.0570  0.4649 -0.2794
14828TIP3    H165975   5.604   3.336  16.453  0.1050 -1.6117 -0.0515
14828TIP3    H265976   5.474   3.348  16.377 -0.6153 -2.0977  1.0638
14829TIP3   OH265977   3.353   0.712   0.028  0.2538 -0.0759 -0.2276
14829TIP3    H165978   3.417   0.737  -0.039  1.0440 -0.6991  0.2721
14829TIP3    H265979   3.333   0.621   0.009 -1.1262  0.3311 -0.8633
14830TIP3   OH265980   3.729   6.636  13.078  0.4875  0.0396 -0.0964
14830TIP3    H165981   3.728   6.580  13.156  0.0056  0.5422  0.2714
14830TIP3    H265982   3.808   6.610  13.031 -0.3989 -1.8749 -0.6326
14831TIP3   OH265983   6.140   5.129  11.263  0.3842 -0.3526  0.4377
14831TIP3    H165984   6.069   5.120  11.327  0.5379  1.6939  0.9528
14831TIP3    H265985   6.214   5.084  11.303  0.4836  0.9051  1.7336
14832TIP3   OH265986   4.963   4.167  10.889 -0.7369  0.4636 -0.2845
14832TIP3    H165987   4.986   4.195  10.977 -0.6317 -0.3618 -0.0413
14832TIP3    H265988   4.984   4.074  10.887  0.7177  0.7797 -1.6598
14833TIP3   OH265989   2.435   3.034   1.777 -0.4817 -0.5008  0.2417
14833TIP3    H165990   2.353   3.023   1.826  0.3414 -0.3261  1.7219
14833TIP3    H265991   2.407   3.047   1.687 -2.0886 -0.4206  0.7120
14834TIP3   OH265992   5.383   1.117  15.464  0.3138 -0.4701  0.4041
14834TIP3    H165993   5.385   1.163  15.547 -1.4651  0.1957  0.1394
14834TIP3    H265994   5.324   1.042  15.479 -2.3707  1.2262 -0.8967
14835TIP3   OH265995   5.590   2.340   5.554 -0.4311  1.0068 -0.5601
14835TIP3    H165996   5.663   2.300   5.507  1.3736  2.2663  1.0329
14835TIP3    H265997   5.516   2.281   5.538  1.2863 -1.1526 -0.9547
14836TIP3   OH265998   5.332   4.169   4.380  0.1308 -0.3908  0.6717
14836TIP3    H165999   5.342   4.107   4.307  0.4714  2.2228 -1.6848
14836TIP3    H266000   5.240   4.162   4.405 -0.6104  0.2181 -1.6289
14837TIP3   OH266001   4.361   5.972  13.027 -0.6570  0.7899 -0.3963
14837TIP3    H166002   4.280   6.012  12.998 -0.5917 -0.5478 -2.6003
14837TIP3    H266003   4.426   5.998  12.961  0.7107  1.6798  1.2095
14838TIP3   OH266004   3.161   4.439  13.151  0.1337  0.1996 -0.5705
14838TIP3    H166005   3.183   4.347  13.167 -0.9856  0.4183  3.2720
14838TIP3    H266006   3.065   4.442  13.159  0.1881  1.7616 -0.1720
14839TIP3   OH266007   2.838   5.260  11.645 -0.8270 -0.1480 -0.1396
14839TIP3    H166008   2.784   5.212  11.707 -0.0083 -0.2453  0.5198
14839TIP3    H266009   2.909   5.297  11.698  2.4537 -3.8051 -1.4712
14840TIP3   OH266010   0.431   0.184   2.953 -0.6103 -0.1190 -0.7837
14840TIP3    H166011   0.415   0.200   2.860  1.9562 -0.5717 -1.3743
14840TIP3    H266012   0.425   0.270   2.993  0.9820  0.5546 -1.8788
14841TIP3   OH266013   4.427   6.218  13.739 -0.2354 -0.0924 -0.3454
14841TIP3    H166014   4.507   6.264  13.763  0.7866 -1.6509 -0.6386
14841TIP3    H266015   4.403   6.168  13.817 -1.2958  0.8544 -0.0490
14842TIP3   OH266016   5.826   3.374  11.429 -0.1518  0.3485  0.2107
14842TIP3    H166017   5.731   3.374  11.445 -0.2023 -0.2951 -0.0657
14842TIP3    H266018   5.843   3.456  11.383 -0.3592  1.1429  1.5019
14843TIP3   OH266019   3.814   0.917   0.350 -0.5561  0.2411 -0.3207
14843TIP3    H166020   3.825   0.922   0.255  1.0350  0.3044 -0.1577
14843TIP3    H266021   3.761   0.993   0.372  0.1234  0.9374 -1.0225
14844TIP3   OH266022   5.833   3.888   3.136  0.7486 -0.3362  0.2798
14844TIP3    H166023   5.911   3.834   3.151  1.2370  0.6495  1.4929
14844TIP3    H266024   5.866   3.968   3.097  0.2584 -0.1939  0.1494
14845TIP3   OH266025   6.182   1.835   1.865 -0.0924 -0.1407 -0.0211
14845TIP3    H166026   6.122   1.776   1.910 -0.5921  0.5045  0.1809
14845TIP3    H266027   6.143   1.922   1.877  0.4215  0.1828 -0.6411
14846TIP3   OH266028   4.856   4.535   5.512 -0.1315  0.4452  0.3100
14846TIP3    H166029   4.912   4.549   5.588 -0.6296  0.7608  0.6206
14846TIP3    H266030   4.874   4.611   5.455 -0.2069  0.5183  0.3848
14847TIP3   OH266031   1.880   6.201   2.983 -0.1244 -0.5703  0.0495
14847TIP3    H166032   1.942   6.192   2.911  0.1352 -0.3931  0.2473
14847TIP3    H266033   1.905   6.283   3.026 -0.3700 -0.5994  0.2489
14848TIP3   OH266034   5.432   0.949  14.250  0.8408  0.0762 -0.6067
14848TIP3    H166035   5.494   0.887  14.289  1.6883  1.8733  1.1012
14848TIP3    H266036   5.387   0.988  14.325 -0.3240  0.8518 -1.6688
14849TIP3   OH266037   1.675   3.026   4.769  0.0955 -0.7893  0.1107
14849TIP3    H166038   1.722   3.108   4.755  0.5914 -1.0618  0.1656
14849TIP3    H266039   1.694   3.003   4.860  0.0670 -1.0372  0.0530
14850TIP3   OH266040   1.810   2.029  15.159 -0.0305  0.1851 -0.3126
14850TIP3    H166041   1.880   2.091  15.182  1.0450 -1.9048  2.6159
14850TIP3    H266042   1.735   2.085  15.138  1.3091  2.5113  0.6742
14851TIP3   OH266043   1.408   2.949   5.538  0.2248  0.2325 -0.0846
14851TIP3    H166044   1.316   2.951   5.562  0.1879  0.9376 -0.2755
14851TIP3    H266045   1.444   2.876   5.588 -0.2373  0.5287  0.6976
14852TIP3   OH266046   6.223   6.517  16.238  0.5534  0.2885  0.3370
14852TIP3    H166047   6.187   6.495  16.152 -1.6712  0.3325  1.1738
14852TIP3    H266048   6.237   6.612  16.235  0.6313  0.2654 -0.0251
14853TIP3   OH266049   3.098   2.445   3.861 -0.7370  0.0283 -0.0749
14853TIP3    H166050   3.027   2.433   3.798 -0.7982 -0.7510  0.1377
14853TIP3    H266051   3.078   2.383   3.931  0.5483 -0.7283 -0.3619
14854TIP3   OH266052   2.519   4.330   1.331 -0.1678  0.4204 -0.0990
14854TIP3    H166053   2.552   4.369   1.250  0.7562  0.1334  0.1246
14854TIP3    H266054   2.440   4.283   1.304 -0.0033  0.5300 -0.7925
14855TIP3   OH266055   0.971   0.384   2.548  0.1580 -0.0140 -0.5555
14855TIP3    H166056   1.044   0.325   2.530  0.2764 -0.5717  1.5055
14855TIP3    H266057   0.893   0.329   2.540  0.1398 -0.0146 -0.3739
14856TIP3   OH266058   0.610   0.508  16.086 -0.0943  0.0502  0.4505
14856TIP3    H166059   0.579   0.563  16.157 -0.5942  0.1047  0.1899
14856TIP3    H266060   0.534   0.458  16.058  0.3349 -0.7289  0.6381
14857TIP3   OH266061   2.477   5.007   4.770 -0.1246  0.2429 -0.1340
14857TIP3    H166062   2.398   5.053   4.799 -1.2887 -1.7474  0.0500
14857TIP3    H266063   2.450   4.961   4.691  1.1509  0.2840 -0.6208
14858TIP3   OH266064   5.524   2.039  17.037 -0.5974  1.0880  0.0131
14858TIP3    H166065   5.527   1.994  16.952  1.1124  1.9242 -0.4126
14858TIP3    H266066   5.507   1.969  17.100  0.6560  0.0243 -0.7729
14859TIP3   OH266067   5.792   0.718   4.245  0.4225 -0.5212  0.5327
14859TIP3    H166068   5.815   0.794   4.191 -1.3354 -0.9223 -0.8542
14859TIP3    H266069   5.824   0.643   4.195 -1.3980 -0.9100 -0.1254
14860TIP3   OH266070   4.051   5.907  14.730  0.2213  1.0309  0.1250
14860TIP3    H166071   4.132   5.903  14.680 -0.4599 -0.8923 -0.9837
14860TIP3    H266072   4.005   5.983  14.695  0.3369  0.4832 -1.3233
14861TIP3   OH266073   4.901   5.689  12.649  0.2758 -0.0180  0.0071
14861TIP3    H166074   4.860   5.711  12.733 -1.2430  2.7727 -1.3193
14861TIP3    H266075   4.880   5.596  12.635 -0.6353 -0.1643  2.0487
14862TIP3   OH266076   4.675   4.181  12.662 -0.0202 -0.3507 -0.0326
14862TIP3    H166077   4.698   4.269  12.690 -0.2251 -0.1310 -0.5551
14862TIP3    H266078   4.758   4.142  12.635  0.0457 -0.2626  0.0418
14863TIP3   OH266079   5.541   6.817   5.318  0.5797 -0.5384 -0.3803
14863TIP3    H166080   5.456   6.773   5.320  0.6071 -0.5744  0.6576
14863TIP3    H266081   5.562   6.832   5.410  0.5367  1.6852 -0.6747
14864TIP3   OH266082   2.396   0.924   0.735  0.0340 -0.8721  0.3176
14864TIP3    H166083   2.489   0.933   0.755  0.0430 -0.6668  0.1733
14864TIP3    H266084   2.388   0.836   0.698  0.2776 -0.6289 -0.3126
14865TIP3   OH266085   4.478   0.490  11.354  0.1384  0.2445  0.1031
14865TIP3    H166086   4.524   0.479  11.437  2.9160  1.7031 -1.1093
14865TIP3    H266087   4.460   0.401  11.324  1.9396 -0.3991  0.8281
14866TIP3   OH266088   3.318   1.054   4.725 -0.3314 -0.3526 -0.1725
14866TIP3    H166089   3.317   1.116   4.797 -0.6166  0.0798 -0.5398
14866TIP3    H266090   3.263   0.981   4.755 -0.9900  0.1192 -0.2031
14867TIP3   OH266091   0.310   4.507  12.492  0.6416 -0.4191  0.1318
14867TIP3    H166092   0.369   4.511  12.567  0.8733 -2.1172  0.0986
14867TIP3    H266093   0.368   4.493  12.417  0.3695  0.6670 -0.2902
14868TIP3   OH266094   0.419   3.190   2.736 -0.3795  0.6758 -0.1978
14868TIP3    H166095   0.375   3.183   2.820  1.3602 -0.1379  0.7169
14868TIP3    H266096   0.461   3.276   2.738  0.1917  0.3997  0.0718
14869TIP3   OH266097   5.467   4.890  16.617  0.3136  0.8356 -0.0965
14869TIP3    H166098   5.455   4.833  16.542  0.1369 -0.3814  0.8289
14869TIP3    H266099   5.494   4.974  16.579 -0.4458  0.4589 -1.5458
14870TIP3   OH266100   3.659   5.202   4.381  0.0558 -0.0563 -0.2791
14870TIP3    H166101   3.618   5.116   4.382  1.4795 -0.7613 -0.9009
14870TIP3    H266102   3.592   5.260   4.344 -0.2717 -1.2281 -1.5846
14871TIP3   OH266103   2.501   3.276  11.696  0.3904 -0.7663 -0.0054
14871TIP3    H166104   2.411   3.310  11.694  0.2294 -1.1846 -1.4709
14871TIP3    H266105   2.493   3.187  11.660  1.5801 -0.2407 -1.7316
14872TIP3   OH266106   6.080   3.004  14.627 -0.2048  0.2778  0.3494
14872TIP3    H166107   6.139   2.938  14.665  0.0482 -0.0858 -0.6479
14872TIP3    H266108   5.996   2.989  14.671  0.5368  1.1310  2.1515
14873TIP3   OH266109   0.763   6.745   3.717 -0.1532 -0.4249  0.3761
14873TIP3    H166110   0.703   6.691   3.769 -2.5424  3.1494  1.7077
14873TIP3    H266111   0.838   6.759   3.775 -0.4646 -0.6266  0.8377
14874TIP3   OH266112   4.290   1.685   5.691  0.1061  0.2964 -0.1287
14874TIP3    H166113   4.255   1.663   5.605  0.9537  0.8199 -0.6334
14874TIP3    H266114   4.381   1.656   5.688  0.1295  0.2616  0.6187
14875TIP3   OH266115   0.094   2.973   1.511  0.2773  0.1272 -0.2013
14875TIP3    H166116   0.151   2.899   1.489  0.1339  0.2006 -0.8320
14875TIP3    H266117   0.048   2.994   1.430 -0.5120  0.1966  0.2503
14876TIP3   OH266118   0.395   5.315  14.649 -0.8221 -0.6187 -0.2946
14876TIP3    H166119   0.367   5.279  14.565 -0.7233  1.3718 -1.2302
14876TIP3    H266120   0.326   5.375  14.674  1.4024  2.7711 -1.6076
14877TIP3   OH266121   1.970   6.345   2.334 -0.0950  0.1159 -0.3000
14877TIP3    H166122   1.932   6.392   2.259  1.5387  1.0474 -0.5899
14877TIP3    H266123   2.026   6.410   2.377 -0.0041 -0.7800  0.9867
14878TIP3   OH266124   4.313   3.895  13.751 -0.3036 -0.4319  0.1015
14878TIP3    H166125   4.292   3.986  13.773  1.2391  0.1752 -0.7592
14878TIP3    H266126   4.292   3.887  13.658  1.7799 -0.2052 -0.4369
14879TIP3   OH266127   4.967   6.740  13.012 -0.6771  0.6462 -0.0930
14879TIP3    H166128   4.886   6.781  12.982 -3.0850 -3.1753  0.6203
14879TIP3    H266129   4.943   6.696  13.093  1.5636 -2.2650 -0.8715
14880TIP3   OH266130   2.170   2.880   0.707  0.2809  0.6359 -0.4709
14880TIP3    H166131   2.166   2.824   0.784  0.8338  0.8273 -0.3023
14880TIP3    H266132   2.195   2.822   0.635 -0.0672  0.4917 -0.4804
14881TIP3   OH266133   3.247   0.756  13.563  0.3541 -0.3684  0.0643
14881TIP3    H166134   3.257   0.661  13.572  1.4151 -0.4304 -1.4126
14881TIP3    H266135   3.164   0.767  13.517  0.1638 -0.5753  0.3584
14882TIP3   OH266136   2.395   5.565   3.936 -0.0016 -0.4468 -0.6828
14882TIP3    H166137   2.374   5.523   3.853 -2.0575 -0.5830 -0.1551
14882TIP3    H266138   2.489   5.552   3.947  0.0513 -1.6989 -2.2703
14883TIP3   OH266139   6.073   3.161  15.148  0.5302 -0.4202 -0.4828
14883TIP3    H166140   5.985   3.200  15.152  1.2439  1.2185  0.2313
14883TIP3    H266141   6.082   3.131  15.057 -1.6807 -2.9756  0.0112
14884TIP3   OH266142   0.548   3.740   2.709  0.1174  0.0074 -0.4264
14884TIP3    H166143   0.607   3.669   2.733 -0.2921  0.1948  1.2354
14884TIP3    H266144   0.460   3.703   2.718 -0.0823 -0.1809 -2.5982
14885TIP3   OH266145   2.559   4.880   2.101  0.6263  0.1205  0.3194
14885TIP3    H166146   2.472   4.841   2.089 -0.1764  1.5492  1.2085
14885TIP3    H266147   2.561   4.954   2.040  2.2912 -1.4234 -1.6471
14886TIP3   OH266148   4.905   0.247   5.859 -0.5680  0.1837  0.3714
14886TIP3    H166149   4.918   0.253   5.954  0.5302  0.5997  0.2130
14886TIP3    H266150   4.964   0.314   5.823 -0.6247 -0.2856 -0.6241
14887TIP3   OH266151   3.810   2.073   0.856  0.0109 -0.6377 -0.0983
14887TIP3    H166152   3.855   1.999   0.896  1.1662 -0.2828 -0.6715
14887TIP3    H266153   3.737   2.092   0.914  0.8037 -1.0398  1.0534
14888TIP3   OH266154   4.367   3.388  14.042  0.7281 -0.1332 -0.2451
14888TIP3    H166155   4.357   3.480  14.020 -0.9964 -0.2733 -0.2041
14888TIP3    H266156   4.315   3.377  14.122 -2.4184 -1.8445 -2.2908
14889TIP3   OH266157   4.547   6.630  12.222 -0.0103 -0.3398  0.1088
14889TIP3    H166158   4.462   6.668  12.199 -0.1959 -0.3764  0.7170
14889TIP3    H266159   4.534   6.536  12.214  1.0815 -0.3174 -3.6366
14890TIP3   OH266160   4.502   3.591   4.978 -0.1229 -0.5460 -0.1876
14890TIP3    H166161   4.432   3.636   5.026  0.3300  0.1103 -0.1382
14890TIP3    H266162   4.582   3.637   5.002  0.0823  0.0305 -1.8509
14891TIP3   OH266163   2.040   3.841  14.599 -0.4750 -0.3259 -0.0533
14891TIP3    H166164   1.976   3.842  14.528 -0.4724  0.2798 -0.0518
14891TIP3    H266165   1.988   3.824  14.678 -0.7408  0.7820  0.0346
14892TIP3   OH266166   1.150   4.475  15.282  0.7359 -0.0482  0.2860
14892TIP3    H166167   1.102   4.508  15.206  2.0401  0.7656 -0.2187
14892TIP3    H266168   1.142   4.380  15.277  0.1321  0.0330 -0.4127
14893TIP3   OH266169   3.895   6.031   3.961  0.2628  0.2289  0.2716
14893TIP3    H166170   3.980   6.049   3.921 -0.2458 -1.1996 -1.6354
14893TIP3    H266171   3.835   6.091   3.917 -0.0479 -0.2798 -0.0155
14894TIP3   OH266172   4.360   2.915   5.026  0.7464 -0.2746 -0.0007
14894TIP3    H166173   4.415   2.860   4.970  1.0027 -0.8860  0.8228
14894TIP3    H266174   4.332   2.857   5.096  0.0693  0.3612  0.2674
14895TIP3   OH266175   0.093   3.207  15.140  0.1118  0.0211  0.3875
14895TIP3    H166176   0.155   3.248  15.200 -2.7392  0.8372  3.0288
14895TIP3    H266177   0.090   3.115  15.167  0.7581 -0.2009 -0.2868
14896TIP3   OH266178   3.939   5.464   4.791  0.0774  0.2429  0.0263
14896TIP3    H166179   3.933   5.458   4.886 -0.7549 -0.2062 -0.0471
14896TIP3    H266180   3.897   5.384   4.759 -0.4699  0.8239 -0.7419
14897TIP3   OH266181   5.210   2.832  14.531  0.2262 -0.7194  0.4965
14897TIP3    H166182   5.245   2.920  14.542  2.9930 -1.7604  1.0694
14897TIP3    H266183   5.258   2.796  14.457 -1.5007 -1.4880 -0.3027
14898TIP3   OH266184   1.710   4.001   1.667 -0.1692  0.1759  0.5427
14898TIP3    H166185   1.785   4.048   1.702  0.1442  0.2511 -0.2065
14898TIP3    H266186   1.738   3.910   1.662 -0.5657  0.0004  1.4274
14899TIP3   OH266187   5.048   2.972   5.517  0.4104  0.4671  0.3098
14899TIP3    H166188   4.997   2.978   5.598 -0.4860  0.5793 -0.2395
14899TIP3    H266189   5.124   2.920   5.540  0.5258  1.0874  1.3955
14900TIP3   OH266190   3.610   0.865  16.195  0.2037  0.5106  0.1646
14900TIP3    H166191   3.616   0.770  16.195 -0.2856  0.4770  0.1503
14900TIP3    H266192   3.700   0.895  16.179  0.3897  0.0567  0.3419
14901TIP3   OH266193   0.333   5.477   0.284  0.7825 -0.0672  0.0839
14901TIP3    H166194   0.264   5.488   0.218  1.6898  1.0594 -0.7112
14901TIP3    H266195   0.348   5.383   0.286  1.1952 -0.0945 -1.8468
14902TIP3   OH266196   5.885   3.407   4.262 -0.6857  0.1058 -0.0995
14902TIP3    H166197   5.981   3.404   4.266 -0.4249  0.7257 -3.1488
14902TIP3    H266198   5.859   3.456   4.340  1.5548  0.5424  0.4442
14903TIP3   OH266199   4.649   2.868   3.279  0.6963  0.2292  0.0284
14903TIP3    H166200   4.693   2.872   3.193  1.0150  0.6388  0.2050
14903TIP3    H266201   4.700   2.804   3.329 -0.2238 -0.9497 -0.4827
14904TIP3   OH266202   1.181   3.138  11.631  0.1827 -0.4666 -0.3782
14904TIP3    H166203   1.223   3.072  11.687 -0.5568  1.2491  2.3977
14904TIP3    H266204   1.218   3.122  11.545  2.2059 -2.6559  0.7564
14905TIP3   OH266205   3.126   4.359  13.518  0.5008  0.1530 -0.5118
14905TIP3    H166206   3.051   4.382  13.573  1.2690 -0.5891  0.9064
14905TIP3    H266207   3.146   4.440  13.471  0.2537  1.0467  0.8581
14906TIP3   OH266208   3.350   3.836   2.841  0.2181 -0.6694  0.2364
14906TIP3    H166209   3.326   3.928   2.831  0.4392 -0.6119  0.2178
14906TIP3    H266210   3.307   3.808   2.922  0.0949 -0.5681  0.2060
14907TIP3   OH266211   3.597   0.290   3.904 -0.3152  0.1037 -0.3207
14907TIP3    H166212   3.620   0.253   3.989 -0.8671 -1.3889 -0.7903
14907TIP3    H266213   3.502   0.287   3.901 -0.2688 -1.1340 -1.5124
14908TIP3   OH266214   1.430   4.844   3.402 -0.4844 -0.0125 -0.0959
14908TIP3    H166215   1.487   4.848   3.479 -0.6340 -0.1633  0.0223
14908TIP3    H266216   1.489   4.862   3.328 -0.2143 -0.5138 -0.0057
14909TIP3   OH266217   6.202   3.031  16.902 -0.0486 -0.4714 -0.4098
14909TIP3    H166218   6.169   2.944  16.878  0.9738 -0.9826 -0.0254
14909TIP3    H266219   6.149   3.092  16.850 -0.6857 -1.3255 -0.7901
14910TIP3   OH266220   0.696   5.716   4.006  0.3276  0.1178  0.1789
14910TIP3    H166221   0.729   5.683   3.922 -2.0205 -1.8639 -0.0677
14910TIP3    H266222   0.643   5.792   3.983  0.9710  0.5395  0.0691
14911TIP3   OH266223   2.134   0.838  11.959  0.7269  0.2222  0.0903
14911TIP3    H166224   2.174   0.886  11.886  0.6717 -1.6877 -1.2473
14911TIP3    H266225   2.078   0.773  11.918 -0.4705  0.0329  1.8876
14912TIP3   OH266226   1.287   3.974   1.333  0.1180  0.2368 -0.0454
14912TIP3    H166227   1.247   4.060   1.341 -1.8515 -0.6137 -0.0719
14912TIP3    H266228   1.305   3.947   1.423  1.6475  1.0233 -0.0775
14913TIP3   OH266229   0.954   2.145   3.806  0.8577 -0.4266 -0.3766
14913TIP3    H166230   0.964   2.236   3.835  0.9969  0.4689 -2.9845
14913TIP3    H266231   1.011   2.095   3.865  1.2802  1.2551  0.7136
14914TIP3   OH266232   5.904   3.453   4.782  0.5847  0.8811  0.6307
14914TIP3    H166233   5.814   3.464   4.752  0.9040 -1.0996 -1.2399
14914TIP3    H266234   5.958   3.483   4.709  1.4132 -0.1655  0.7899
14915TIP3   OH266235   0.734   1.711  14.521  0.2705  0.1397 -0.0464
14915TIP3    H166236   0.819   1.691  14.482  0.2068  0.2619 -0.2510
14915TIP3    H266237   0.718   1.639  14.582  0.6636  0.2739  0.2246
14916TIP3   OH266238   6.545   2.503  16.895 -0.5365  0.0684 -0.1939
14916TIP3    H166239   6.521   2.442  16.825 -0.2644  0.1981 -0.4012
14916TIP3    H266240   6.641   2.503  16.894 -0.5271 -0.0911  0.3190
14917TIP3   OH266241   6.228   2.324   2.044  0.0288 -0.4516 -0.2460
14917TIP3    H166242   6.201   2.391   2.108 -0.0043 -1.4858  0.8510
14917TIP3    H266243   6.289   2.268   2.092 -2.5566 -3.2846  0.0592
14918TIP3   OH266244   4.627   5.364  12.328  0.2723  0.0172  0.3823
14918TIP3    H166245   4.719   5.381  12.308 -0.3849  2.3697 -0.9351
14918TIP3    H266246   4.629   5.289  12.388  2.9232 -1.0471 -0.9073
14919TIP3   OH266247   1.322   4.717  12.048  0.2942 -0.1907 -0.5866
14919TIP3    H166248   1.257   4.652  12.020 -0.2254  0.4782 -0.9504
14919TIP3    H266249   1.278   4.766  12.118  0.3904  0.2835 -0.8530
14920TIP3   OH266250   5.860   0.800  13.972 -0.2576 -0.4669  1.0954
14920TIP3    H166251   5.784   0.771  13.922 -0.2375  0.7941  0.3094
14920TIP3    H266252   5.928   0.736  13.951 -0.4756 -0.3885  0.1006
14921TIP3   OH266253   4.604   0.442  11.582  0.3063 -0.3853 -0.1359
14921TIP3    H166254   4.583   0.483  11.666 -1.0223 -2.2394  0.5332
14921TIP3    H266255   4.602   0.348  11.601  0.2869 -0.8429 -2.1722
14922TIP3   OH266256   1.426   4.491   3.719  0.2777  0.6455  0.0734
14922TIP3    H166257   1.339   4.466   3.750 -0.3178  0.3120 -1.7492
14922TIP3    H266258   1.461   4.410   3.680  0.8933  1.0914 -0.3100
14923TIP3   OH266259   5.062   1.527   0.713 -0.0823 -0.1966  0.2925
14923TIP3    H166260   5.153   1.520   0.742  0.1621 -0.7561 -0.5559
14923TIP3    H266261   5.026   1.599   0.764  0.8687  0.0958  0.5730
14924TIP3   OH266262   4.781   4.325   5.381  0.1323 -0.0278 -0.1590
14924TIP3    H166263   4.798   4.399   5.438 -0.7001  1.5220 -1.8052
14924TIP3    H266264   4.854   4.265   5.397  1.4068  1.6051  0.4842
14925TIP3   OH266265   2.511   3.025  12.902 -0.1346 -0.0770 -0.2536
14925TIP3    H166266   2.527   3.072  12.820 -0.8155  0.7411  0.0686
14925TIP3    H266267   2.416   3.029  12.914 -0.0875 -0.6086  0.3378
14926TIP3   OH266268   1.547   2.062  15.587  0.1847  0.4431 -0.3653
14926TIP3    H166269   1.620   2.124  15.588 -1.4616  2.5866 -1.9019
14926TIP3    H266270   1.548   2.025  15.499 -0.2091  0.0157 -0.1921
14927TIP3   OH266271   4.700   1.014  16.050 -0.2773 -0.1288 -0.0029
14927TIP3    H166272   4.686   0.925  16.081  0.4894  0.1780  1.2826
14927TIP3    H266273   4.624   1.032  15.994  0.0590 -1.9334 -1.1338
14928TIP3   OH266274   1.623   3.491   2.063 -0.1831 -0.7816 -0.3374
14928TIP3    H166275   1.554   3.546   2.099 -0.6631 -1.6137  0.0377
14928TIP3    H266276   1.603   3.403   2.095  1.5952 -0.8893  0.5890
14929TIP3   OH266277   0.459   0.354  16.398  1.0320 -0.1112 -0.3440
14929TIP3    H166278   0.504   0.437  16.413  1.0836 -0.0864 -0.6422
14929TIP3    H266279   0.529   0.289  16.396  0.9485 -0.2310  0.3990
14930TIP3   OH266280   2.911   2.365   5.095 -0.5401  0.1545 -0.3894
14930TIP3    H166281   2.829   2.410   5.076 -0.3447  0.2369 -1.0757
14930TIP3    H266282   2.885   2.279   5.125 -0.8751 -0.1456 -1.4809
14931TIP3   OH266283   6.444   0.770   3.475  0.7151 -0.1001 -0.1674
14931TIP3    H166284   6.499   0.744   3.549 -0.3796 -2.8341 -0.1668
14931TIP3    H266285   6.355   0.771   3.511  0.4458  1.2633 -0.8409
14932TIP3   OH266286   2.735   6.017   2.341 -0.1583 -0.7237  0.4565
14932TIP3    H166287   2.690   6.078   2.282  1.4181 -0.5208 -0.6075
14932TIP3    H266288   2.828   6.037   2.330  0.2185 -1.0503  2.6640
14933TIP3   OH266289   5.142   3.249  13.856 -0.2352  0.7133 -0.2553
14933TIP3    H166290   5.209   3.309  13.890  1.1040  0.4540 -2.2647
14933TIP3    H266291   5.082   3.237  13.930  1.9955  0.8474  1.7162
14934TIP3   OH266292   3.017   6.598   4.403 -0.5822  0.0584 -0.1263
14934TIP3    H166293   3.069   6.519   4.384  0.1546  0.9825 -2.2421
14934TIP3    H266294   3.081   6.668   4.412 -0.8809  0.0774  5.1523
14935TIP3   OH266295   1.659   4.204  12.992  0.9499 -0.1639  0.2363
14935TIP3    H166296   1.690   4.177  12.906  0.6261 -1.0713  0.3917
14935TIP3    H266297   1.582   4.150  13.008  3.4737 -3.3763  2.9739
14936TIP3   OH266298   3.060   5.357  12.223  0.1024 -0.2282 -0.1143
14936TIP3    H166299   3.022   5.441  12.249 -0.5958 -0.7392  0.5580
14936TIP3    H266300   3.012   5.292  12.275 -1.3751 -1.3333 -2.6939
14937TIP3   OH266301   4.640   3.155   5.954  0.2105 -0.1479  0.4974
14937TIP3    H166302   4.691   3.179   5.877  0.8536 -0.7228  0.7359
14937TIP3    H266303   4.639   3.059   5.953 -0.4793 -0.1494  0.7494
14938TIP3   OH266304   1.378   4.538  10.326  0.0885  0.4045  0.5154
14938TIP3    H166305   1.447   4.484  10.287 -0.0582  0.3597  0.3178
14938TIP3    H266306   1.409   4.555  10.416 -0.6247 -1.3820  1.1376
14939TIP3   OH266307   3.895   4.505   5.107 -0.2266 -0.2241 -0.1533
14939TIP3    H166308   3.970   4.484   5.161 -0.5221 -1.1834 -0.0936
14939TIP3    H266309   3.819   4.483   5.161 -0.5503  0.3343 -0.3673
14940TIP3   OH266310   1.016   1.494   1.483  0.3545  0.1303 -0.2139
14940TIP3    H166311   0.936   1.492   1.535  1.5455  1.2538  1.7879
14940TIP3    H266312   0.987   1.476   1.393 -1.6492 -3.0593  0.9151
14941TIP3   OH266313   4.261   1.044  15.194  0.3710  0.4731  0.2467
14941TIP3    H166314   4.210   0.978  15.147  2.1356  1.0755 -2.8219
14941TIP3    H266315   4.197   1.094  15.244 -1.9427  0.5123 -2.5082
14942TIP3   OH266316   4.903   5.116   2.531  0.3943  0.2726 -0.7161
14942TIP3    H166317   4.977   5.154   2.579 -1.7605  4.1428  0.0297
14942TIP3    H266318   4.903   5.024   2.555  2.7407  0.8852  2.2790
14943TIP3   OH266319   0.095   3.112  14.620  0.1823  0.2269 -0.1664
14943TIP3    H166320   0.054   3.197  14.605  0.1536 -0.0774 -2.0510
14943TIP3    H266321   0.121   3.114  14.712  0.3535  2.3366 -0.2084
14944TIP3   OH266322   6.395   1.529  14.402 -0.1992  0.4166  0.1673
14944TIP3    H166323   6.356   1.531  14.489 -1.3466  1.3763 -0.3329
14944TIP3    H266324   6.451   1.607  14.399  0.4982 -0.0792  0.3365
14945TIP3   OH266325   2.954   1.861  15.803  0.0817  0.4298 -0.5987
14945TIP3    H166326   3.009   1.819  15.868 -0.8316  0.0893 -0.0223
14945TIP3    H266327   2.975   1.954  15.809  1.3549  0.1963 -1.1499
14946TIP3   OH266328   0.738   3.415   3.531 -0.1304  0.0095  0.2722
14946TIP3    H166329   0.768   3.324   3.529 -0.4282 -0.0888  0.1885
14946TIP3    H266330   0.739   3.443   3.439 -0.7995 -0.1641  0.2099
14947TIP3   OH266331   2.372   4.481   1.556  0.7761 -0.3375  0.2990
14947TIP3    H166332   2.431   4.425   1.507  0.5713 -1.5040  1.3372
14947TIP3    H266333   2.285   4.446   1.539  0.4643  0.7233 -0.3837
14948TIP3   OH266334   6.392   0.181   6.243  0.2659 -0.1469  0.1973
14948TIP3    H166335   6.310   0.144   6.274  0.5492 -0.9553 -0.0056
14948TIP3    H266336   6.367   0.234   6.166 -0.1005 -0.1459  0.3152
14949TIP3   OH266337   5.177   4.824  16.335 -0.0395 -0.0982  0.1518
14949TIP3    H166338   5.215   4.795  16.418  0.2278  1.5527  0.6424
14949TIP3    H266339   5.237   4.891  16.303 -2.4980  2.7938  1.0717
14950TIP3   OH266340   1.499   0.702   0.144 -0.1638 -0.1323 -0.8522
14950TIP3    H166341   1.486   0.684   0.237  1.5754  1.7393 -0.1717
14950TIP3    H266342   1.420   0.747   0.116 -0.5154 -0.3228 -0.1723
14951TIP3   OH266343   6.081   1.094   4.108 -0.7040  0.0112  0.0640
14951TIP3    H166344   6.022   1.101   4.033 -1.2102 -1.7344  0.2467
14951TIP3    H266345   6.034   1.135   4.180 -0.7368  0.6056 -0.2932
14952TIP3   OH266346   0.707   2.683  14.931 -0.0305 -0.0601  0.4008
14952TIP3    H166347   0.784   2.728  14.966  0.1992  1.0916 -1.3986
14952TIP3    H266348   0.726   2.590  14.941  0.6838  0.2101  1.8013
14953TIP3   OH266349   3.126   6.004   4.047  0.2234 -0.2402  0.4607
14953TIP3    H166350   3.185   6.055   3.993  0.8799  1.1995  2.4048
14953TIP3    H266351   3.123   5.917   4.006  4.2607 -0.6198  0.6317
14954TIP3   OH266352   0.833   5.504   4.363  0.2737  0.1242  0.1687
14954TIP3    H166353   0.760   5.562   4.344 -0.2103 -0.8929 -1.3433
14954TIP3    H266354   0.803   5.418   4.332  2.3355 -0.1921 -1.1585
14955TIP3   OH266355   0.340   5.300  11.240  0.3296  0.1566  0.5535
14955TIP3    H166356   0.363   5.378  11.291  2.0478  1.0595 -1.4853
14955TIP3    H266357   0.244   5.301  11.236  0.3019  1.8192  1.0724
14956TIP3   OH266358   0.787   0.783  13.606 -0.2206  0.3565  0.4028
14956TIP3    H166359   0.745   0.784  13.520 -0.4020 -0.4114  0.4736
14956TIP3    H266360   0.859   0.720  13.596  1.5640  2.3435 -0.0019
14957TIP3   OH266361   5.573   3.211   3.454  0.0291 -0.1195 -0.5647
14957TIP3    H166362   5.668   3.208   3.447  0.2188  1.9553  0.2744
14957TIP3    H266363   5.556   3.216   3.548 -0.7072  2.0199 -0.7418
14958TIP3   OH266364   4.884   6.064   3.290  0.6773 -0.0294 -0.0646
14958TIP3    H166365   4.828   6.031   3.219 -1.4765  2.0618  0.5059
14958TIP3    H266366   4.960   6.006   3.291 -0.9054 -2.2867 -1.7399
14959TIP3   OH266367   0.678   4.345  11.976 -0.2269  0.0244  0.1853
14959TIP3    H166368   0.765   4.383  11.992 -0.0954  0.6256 -1.7750
14959TIP3    H266369   0.657   4.300  12.058  1.3930  0.8961  1.1387
14960TIP3   OH266370   4.331   4.323  11.211 -0.0248  0.3565  0.1369
14960TIP3    H166371   4.265   4.256  11.194 -0.2086  0.3214  0.9499
14960TIP3    H266372   4.359   4.351  11.124 -0.6657 -0.0635 -0.2165
14961TIP3   OH266373   3.945   1.164  15.937 -0.0758 -0.3520  0.4222
14961TIP3    H166374   3.956   1.071  15.918 -1.4854 -0.3717 -0.4699
14961TIP3    H266375   3.874   1.192  15.879  0.6181  1.3921  0.3596
14962TIP3   OH266376   1.168   4.794  16.585 -0.0084 -0.3179 -0.3822
14962TIP3    H166377   1.236   4.728  16.597  1.8999  1.3469 -1.4716
14962TIP3    H266378   1.177   4.852  16.661  0.3802  0.3584 -0.9276
14963TIP3   OH266379   6.321   1.923  15.463 -0.4359 -0.0934 -0.0330
14963TIP3    H166380   6.408   1.885  15.462 -1.1312 -1.8119  0.7957
14963TIP3    H266381   6.262   1.850  15.442 -1.6933  0.9873 -0.4251
14964TIP3   OH266382   0.135   6.812   5.974  0.1334  0.1877  0.0517
14964TIP3    H166383   0.227   6.805   5.997  0.0127 -4.0225 -0.0230
14964TIP3    H266384   0.093   6.849   6.052  1.5807 -0.2634  1.0716
14965TIP3   OH266385   3.513   5.318   1.671  0.0790  0.5719 -0.3843
14965TIP3    H166386   3.578   5.263   1.628  0.3080  0.4165  0.1539
14965TIP3    H266387   3.505   5.395   1.615  0.3064  0.3301 -0.7475
14966TIP3   OH266388   5.812   2.772   4.346 -0.5885  0.6320  0.3645
14966TIP3    H166389   5.743   2.709   4.368 -0.2845  0.2306  0.1760
14966TIP3    H266390   5.864   2.779   4.426  0.9215 -1.3404 -0.3388
14967TIP3   OH266391   1.518   6.252  14.798 -0.1917 -0.0307  0.1431
14967TIP3    H166392   1.447   6.291  14.746 -1.3714 -0.8524  1.0819
14967TIP3    H266393   1.473   6.200  14.864  1.3137 -1.1834  0.3056
14968TIP3   OH266394   3.947   5.165   2.938 -0.4154  0.5110  0.5059
14968TIP3    H166395   3.928   5.121   3.021  0.2702 -1.0036 -0.0955
14968TIP3    H266396   4.009   5.234   2.960  0.4357 -0.4351  1.1433
14969TIP3   OH266397   5.194   3.002   2.635  0.3587  0.0790  0.1293
14969TIP3    H166398   5.120   3.035   2.687 -1.0030 -1.0536 -0.9852
14969TIP3    H266399   5.248   3.079   2.618 -2.2049  1.6789 -1.6492
14970TIP3   OH266400   6.109   2.595   5.813  0.0437 -0.2865 -0.6343
14970TIP3    H166401   6.178   2.529   5.817  1.9838  1.5836 -1.3266
14970TIP3    H266402   6.098   2.625   5.903  0.0551 -0.6691 -0.5052
14971TIP3   OH266403   4.596   5.877  13.188  0.0818 -0.2071  0.3662
14971TIP3    H166404   4.543   5.892  13.109 -0.4101  0.5839  0.8321
14971TIP3    H266405   4.534   5.843  13.252  0.4878 -0.8724  0.4127
14972TIP3   OH266406   4.112   0.857  15.037 -0.1175 -0.2007 -0.2799
14972TIP3    H166407   4.050   0.790  15.007  0.5302 -1.4680  1.0376
14972TIP3    H266408   4.079   0.939  15.001 -1.5445 -1.0868 -1.0866
14973TIP3   OH266409   5.978   4.213  14.061  0.7548  0.7591  0.3435
14973TIP3    H166410   5.893   4.240  14.097 -0.5499 -0.0214 -1.9871
14973TIP3    H266411   5.968   4.121  14.040  1.4096  1.1458 -1.9594
14974TIP3   OH266412   3.218   5.036  15.414  0.3920 -0.2293  0.2792
14974TIP3    H166413   3.233   4.942  15.405  0.7497 -0.2397  0.9641
14974TIP3    H266414   3.131   5.050  15.374  0.5153 -0.7771 -0.1905
14975TIP3   OH266415   6.007   5.784   6.532 -0.4323 -0.5481  0.4596
14975TIP3    H166416   5.920   5.746   6.516 -0.5884 -0.0619  0.1194
14975TIP3    H266417   6.046   5.793   6.445 -0.4227  0.1209  0.5277
14976TIP3   OH266418   2.900   4.003  13.158  0.3534 -0.0806 -0.4044
14976TIP3    H166419   2.843   3.942  13.111 -0.2148  1.3034 -1.6001
14976TIP3    H266420   2.950   4.047  13.090  0.4735  1.0534  0.3824
14977TIP3   OH266421   2.915   0.827   6.666  1.0945  0.0897  1.1283
14977TIP3    H166422   2.952   0.902   6.619  0.3688  0.3713  0.9984
14977TIP3    H266423   2.852   0.865   6.726 -0.6338 -0.5163 -0.2037
14978TIP3   OH266424   4.627   6.036  11.634 -0.1581  0.1901  0.2094
14978TIP3    H166425   4.583   6.010  11.715  1.2022  1.2804  1.3453
14978TIP3    H266426   4.622   6.131  11.634 -0.6346  0.1912 -1.3151
14979TIP3   OH266427   2.376   5.866   2.707 -0.5292 -0.0996  0.7368
14979TIP3    H166428   2.449   5.926   2.696 -1.7187  1.3518  0.4981
14979TIP3    H266429   2.411   5.780   2.682  0.6613  0.8102 -0.8236
14980TIP3   OH266430   6.155   5.327  15.351 -0.5311 -0.7107 -0.2144
14980TIP3    H166431   6.163   5.285  15.265  0.8400 -0.9911  0.0344
14980TIP3    H266432   6.159   5.421  15.332 -0.6577 -0.7609 -0.4925
14981TIP3   OH266433   1.677   0.065  11.265 -0.1299 -0.0416 -0.0280
14981TIP3    H166434   1.600   0.093  11.217 -0.2150  1.4094  0.8919
14981TIP3    H266435   1.696  -0.023  11.232 -2.3323 -0.5543 -0.0616
14982TIP3   OH266436   4.941   0.369  11.726 -0.3853  0.0623 -0.2011
14982TIP3    H166437   5.010   0.302  11.719 -1.4172 -0.8597 -2.5944
14982TIP3    H266438   4.885   0.338  11.796  0.4713 -0.2854  0.3496
14983TIP3   OH266439   6.770   6.150   1.944  0.0004  0.0138  0.1534
14983TIP3    H166440   6.712   6.138   1.869  0.4089 -1.2478  0.0166
14983TIP3    H266441   6.738   6.229   1.987 -1.8324 -0.6369  0.0753
14984TIP3   OH266442   5.311   2.814  12.667 -0.0732  0.3777  0.5024
14984TIP3    H166443   5.248   2.865  12.617  0.2322  1.2154  0.9451
14984TIP3    H266444   5.270   2.805  12.753  1.0924  2.4273  1.3618
14985TIP3   OH266445   3.210   5.704   3.267 -0.2621 -0.3991  0.4650
14985TIP3    H166446   3.246   5.724   3.180  1.2822 -1.2809  0.8720
14985TIP3    H266447   3.159   5.782   3.289  1.8695  1.1970  0.0784
14986TIP3   OH266448   4.188   5.865  11.544 -0.1646 -0.1046  0.1825
14986TIP3    H166449   4.106   5.837  11.504  0.7165  0.5165 -2.2758
14986TIP3    H266450   4.216   5.791  11.598 -3.0777  0.2938  2.4722
14987TIP3   OH266451   5.860   0.356   5.606  0.8731 -0.7614 -0.2348
14987TIP3    H166452   5.874   0.405   5.524 -1.0642  1.9476  0.8864
14987TIP3    H266453   5.820   0.420   5.665  0.1424 -3.2194  2.1319
14988TIP3   OH266454   5.551   0.101   1.845 -0.2938  0.2052 -0.2029
14988TIP3    H166455   5.516   0.040   1.780  1.2438 -1.3876  0.4125
14988TIP3    H266456   5.553   0.052   1.927  2.4032  0.5289 -0.0036
14989TIP3   OH266457   1.653   6.567  12.363 -0.1134 -0.0020  0.0942
14989TIP3    H166458   1.701   6.640  12.325  0.3149 -0.4949 -0.3383
14989TIP3    H266459   1.561   6.584  12.342 -0.0842  0.6858  0.4808
14990TIP3   OH266460   1.868   2.505  12.739 -0.3478  0.1400 -0.2997
14990TIP3    H166461   1.888   2.495  12.646  1.0495  0.8096 -0.0935
14990TIP3    H266462   1.776   2.479  12.747 -0.4607 -0.0007 -1.8500
14991TIP3   OH266463   0.015   4.047  12.298  0.9065 -0.1839 -0.0465
14991TIP3    H166464  -0.035   4.075  12.375 -0.7026  0.0553 -1.1323
14991TIP3    H266465   0.052   3.962  12.323  1.2181  0.3133  1.3054
14992TIP3   OH266466   2.559   4.976  12.518  0.2707 -0.3487 -0.4026
14992TIP3    H166467   2.568   5.061  12.562 -0.4872 -0.3345 -0.2541
14992TIP3    H266468   2.616   4.918  12.568 -1.1289 -0.5080  1.1133
14993TIP3   OH266469   4.851   2.234   2.132  0.3535 -0.1114  0.1746
14993TIP3    H166470   4.845   2.146   2.169  1.1809 -0.5834 -0.7579
14993TIP3    H266471   4.928   2.273   2.173  1.7039 -0.8978 -1.4930
14994TIP3   OH266472   1.033   6.326   0.583 -0.8064  0.0417 -0.3741
14994TIP3    H166473   1.028   6.421   0.568 -0.9435  0.9482  4.1093
14994TIP3    H266474   0.949   6.304   0.623  0.1290 -1.4958  0.8147
14995TIP3   OH266475   3.890   5.085   0.376  0.2118  0.4589  0.1559
14995TIP3    H166476   3.836   5.143   0.429 -0.9627 -0.7888  0.3861
14995TIP3    H266477   3.835   5.009   0.360 -0.2264  1.4266 -4.3856
14996TIP3   OH266478   5.698   3.789  11.927  0.3130  0.3810  0.2214
14996TIP3    H166479   5.699   3.695  11.941  0.2291  0.3912  0.3013
14996TIP3    H266480   5.743   3.825  12.004 -0.0603  0.4322  0.4202
14997TIP3   OH266481   0.635   1.623  13.528  0.2088 -0.1631 -0.2269
14997TIP3    H166482   0.612   1.536  13.559 -1.5726 -0.2699 -1.7187
14997TIP3    H266483   0.709   1.608  13.469 -0.4359 -0.7598 -0.9068
14998TIP3   OH266484   5.128   3.494  11.707 -0.0784  0.9068 -0.3476
14998TIP3    H166485   5.096   3.405  11.720 -1.7291  1.6074  0.6241
14998TIP3    H266486   5.100   3.542  11.785  1.6970  2.0637 -0.3499
14999TIP3   OH266487   3.518   1.523  14.412  0.6536 -0.1344  0.1012
14999TIP3    H166488   3.473   1.516  14.496  1.1973  1.5357  0.5600
14999TIP3    H266489   3.534   1.432  14.387 -0.7703 -0.7067  1.0960
15000TIP3   OH266490   2.605   2.927   6.013 -0.2089  0.1757  0.0252
15000TIP3    H166491   2.671   2.918   6.081  1.8616 -0.6680 -1.9794
15000TIP3    H266492   2.548   2.851   6.024  2.2806 -2.0351 -1.3243
15001TIP3   OH266493   3.198   6.197   3.266 -0.1447  0.3286  0.1971
15001TIP3    H166494   3.147   6.210   3.186 -0.0517 -0.3675  0.0185
15001TIP3    H266495   3.282   6.239   3.247 -0.2670  0.5265  0.0857
15002TIP3   OH266496   5.831   2.562   2.905 -0.1341  0.2921 -0.1431
15002TIP3    H166497   5.892   2.505   2.858  0.3260  0.9269 -0.3257
15002TIP3    H266498   5.754   2.565   2.850 -0.4727 -0.7664  0.2354
15003TIP3   OH266499   0.427   5.586  11.664  0.3554 -0.4360 -0.4078
15003TIP3    H166500   0.470   5.664  11.698  1.1147 -1.3415  0.8182
15003TIP3    H266501   0.469   5.568  11.580  1.6075 -0.6496  0.2398
15004TIP3   OH266502   4.460   1.634   0.485  0.2413 -0.1585  1.0576
15004TIP3    H166503   4.372   1.661   0.460  0.5902  0.0764  0.0616
15004TIP3    H266504   4.504   1.616   0.402  0.4982 -2.3028  1.5890
15005TIP3   OH266505   6.076   3.047  17.141 -0.0614  0.3117  0.1821
15005TIP3    H166506   6.107   2.986  17.208 -0.3303  0.3687  0.3594
15005TIP3    H266507   6.146   3.048  17.075  0.2977  0.4093  0.5559
15006TIP3   OH266508   4.969   0.889   2.276  0.1618  0.1536 -0.2928
15006TIP3    H166509   4.963   0.794   2.268 -0.4949  0.1574  0.0313
15006TIP3    H266510   4.895   0.912   2.333  0.2012  0.8758 -0.5292
15007TIP3   OH266511   1.010   5.798  11.306  0.1721  0.8891 -0.1812
15007TIP3    H166512   1.013   5.709  11.342 -2.0767  0.8073 -0.0537
15007TIP3    H266513   1.097   5.811  11.267  0.6012 -1.3003 -0.0978
15008TIP3   OH266514   0.593   5.914  17.165  0.1675  0.3396 -0.1815
15008TIP3    H166515   0.660   5.845  17.163  0.9350  1.0512  0.0956
15008TIP3    H266516   0.561   5.914  17.255 -0.3253 -0.1028 -0.3522
15009TIP3   OH266517   1.919   4.978  15.499 -0.0380 -0.5160  0.3508
15009TIP3    H166518   1.967   5.001  15.420  0.2576 -0.6841  0.4786
15009TIP3    H266519   1.850   4.919  15.469 -0.4897  0.1431  0.0957
15010TIP3   OH266520   2.817   0.292   1.498  0.1169  0.2779 -0.2691
15010TIP3    H166521   2.790   0.200   1.486 -1.0758  0.3116  1.7434
15010TIP3    H266522   2.735   0.341   1.500  0.5984  1.0739  0.9780
15011TIP3   OH266523   0.597   0.254   2.629 -0.2722  0.4046  0.7436
15011TIP3    H166524   0.633   0.326   2.681 -0.5005  0.2298  1.1383
15011TIP3    H266525   0.672   0.222   2.579 -0.2044  1.0368  0.4210
15012TIP3   OH266526   3.171   4.172   2.450 -0.0725 -0.0509  0.7118
15012TIP3    H166527   3.110   4.220   2.394  0.0126 -0.5303  0.2064
15012TIP3    H266528   3.257   4.203   2.423 -0.0035 -0.6523  0.2161
15013TIP3   OH266529   5.132   1.680  13.320 -0.3336  0.3161 -0.2020
15013TIP3    H166530   5.150   1.746  13.253  0.3703 -0.8620 -1.2050
15013TIP3    H266531   5.038   1.663  13.312  0.0188 -1.0730 -2.1408
15014TIP3   OH266532   4.871   0.801  15.085  0.7412 -0.9848  0.6340
15014TIP3    H166533   4.785   0.821  15.047  1.2790  1.8192  0.6491
15014TIP3    H266534   4.871   0.847  15.169  2.3616 -0.6504  0.4805
15015TIP3   OH266535   4.781   2.614  16.065 -0.1244  0.1251  0.4491
15015TIP3    H166536   4.774   2.631  16.159  0.0451  0.2360  0.4409
15015TIP3    H266537   4.705   2.558  16.046  0.3179 -0.6147  0.8120
15016TIP3   OH266538   2.664   2.248   5.812 -0.4391 -0.0605  0.6722
15016TIP3    H166539   2.572   2.272   5.798 -0.3421  0.8170  1.4864
15016TIP3    H266540   2.701   2.245   5.724 -1.3406 -0.8590  0.2913
15017TIP3   OH266541   0.016   1.033   0.319 -0.4849  0.4573 -0.2846
15017TIP3    H166542  -0.041   0.998   0.250 -1.6951  1.4588  0.1813
15017TIP3    H266543  -0.037   1.032   0.398  1.6566 -3.1248  1.3711
15018TIP3   OH266544   4.007   6.654   6.328 -0.6178  0.7369 -0.1772
15018TIP3    H166545   3.958   6.664   6.409  0.0346 -1.6250  0.5587
15018TIP3    H266546   4.096   6.683   6.350 -0.6557  0.9735 -0.3277
15019TIP3   OH266547   1.462   2.413   4.073 -0.0249 -0.6828 -0.2121
15019TIP3    H166548   1.393   2.347   4.071  0.9492 -1.7043 -1.0241
15019TIP3    H266549   1.505   2.401   4.157  0.7362 -1.7373 -0.7280
15020TIP3   OH266550   5.467   1.300   4.594 -0.3174 -0.2288 -0.1758
15020TIP3    H166551   5.387   1.349   4.576  0.8496  2.1503  0.8368
15020TIP3    H266552   5.494   1.268   4.507 -2.7269 -1.8300 -0.4441
15021TIP3   OH266553   4.715   1.662  10.720 -0.3084 -0.5144  0.4023
15021TIP3    H166554   4.775   1.736  10.726  0.8867 -1.4224  0.0145
15021TIP3    H266555   4.628   1.703  10.710  0.4653  0.8461 -1.2924
15022TIP3   OH266556   6.055   1.240  15.972  0.2188 -0.2489 -0.5531
15022TIP3    H166557   6.131   1.187  15.948 -0.3260 -1.5715  0.5214
15022TIP3    H266558   6.026   1.203  16.055 -0.3092  1.6380  0.1423
15023TIP3   OH266559   1.746   6.298  16.704  0.4224  0.4063 -0.0842
15023TIP3    H166560   1.750   6.388  16.671 -0.3639 -0.0946 -1.6759
15023TIP3    H266561   1.669   6.261  16.661 -0.4952 -0.4474  2.1401
15024TIP3   OH266562   1.665   1.046   4.630 -0.0875  0.0189  0.1042
15024TIP3    H166563   1.572   1.068   4.633 -0.8660 -2.5850 -1.3491
15024TIP3    H266564   1.695   1.081   4.546 -0.3014 -0.7843 -0.3259
15025TIP3   OH266565   5.717   1.969  15.824 -0.4484 -0.8793 -0.5169
15025TIP3    H166566   5.777   2.016  15.766 -0.1616 -1.4024 -0.6438
15025TIP3    H266567   5.701   2.030  15.896 -0.2275 -0.5130 -0.7707
15026TIP3   OH266568   0.690   2.061   3.174  0.7807  0.3162 -0.2227
15026TIP3    H166569   0.728   2.042   3.089  0.9563  2.2472 -0.6292
15026TIP3    H266570   0.596   2.053   3.161  0.7318  1.7808 -0.9576
15027TIP3   OH266571   0.916   0.205  15.901 -0.2575 -0.2132 -0.3220
15027TIP3    H166572   0.865   0.189  15.980 -3.1776 -0.9293 -2.2089
15027TIP3    H266573   0.868   0.275  15.856  2.9550  2.3080 -0.2039
15028TIP3   OH266574   4.508   5.229  15.483 -0.1434  0.4652 -0.0752
15028TIP3    H166575   4.596   5.222  15.522 -0.1868  0.1169 -0.0335
15028TIP3    H266576   4.520   5.289  15.410  0.5857 -1.0799 -1.3023
15029TIP3   OH266577   5.819   6.330   3.019 -0.4108 -0.2431 -0.3501
15029TIP3    H166578   5.889   6.391   2.995 -0.2911 -0.4139 -0.4377
15029TIP3    H266579   5.864   6.260   3.067 -0.6528  0.1257  0.4311
15030TIP3   OH266580   3.531   1.394  15.044 -0.0539  0.7907  0.0230
15030TIP3    H166581   3.575   1.472  15.079  0.2405  0.4946  0.3134
15030TIP3    H266582   3.475   1.428  14.974 -0.2058  1.3139  0.3913
15031TIP3   OH266583   3.430   5.965  15.807  0.2622 -0.8001 -0.7250
15031TIP3    H166584   3.419   5.909  15.885 -3.2748 -0.2324 -0.6667
15031TIP3    H266585   3.385   5.918  15.737 -1.0103  0.9707 -1.1652
15032TIP3   OH266586   3.335   0.223   3.054 -0.6420 -0.1168 -0.7998
15032TIP3    H166587   3.332   0.318   3.040 -0.1065 -0.3073 -2.3352
15032TIP3    H266588   3.421   0.197   3.023 -1.2802 -1.2974 -1.6532
15033TIP3   OH266589   5.911   2.127  15.360 -0.1279  0.0956  0.5906
15033TIP3    H166590   5.887   2.035  15.347  2.0500 -0.5823  1.0838
15033TIP3    H266591   5.864   2.174  15.290 -0.2566 -1.5503 -0.4645
15034TIP3   OH266592   6.603   6.046   0.137  0.4725 -0.1130 -0.0067
15034TIP3    H166593   6.574   6.113   0.199 -0.9234 -0.4159 -0.2942
15034TIP3    H266594   6.522   6.007   0.105  1.2393 -1.3001 -0.5546
15035TIP3   OH266595   0.332   6.118  11.295  0.2206  0.5703 -0.0328
15035TIP3    H166596   0.237   6.112  11.306 -0.1136 -0.9792 -2.9292
15035TIP3    H266597   0.344   6.176  11.219  1.5860  0.6357  0.2043
15036TIP3   OH266598   6.684   6.552   2.134 -0.1474 -0.1625 -0.3428
15036TIP3    H166599   6.684   6.496   2.056 -0.6580  0.9098 -1.1332
15036TIP3    H266600   6.600   6.533   2.177  1.1068 -2.4714  1.2560
15037TIP3   OH266601   5.927   3.701  11.753  0.1953 -0.0429  0.1477
15037TIP3    H166602   5.956   3.757  11.681  0.4605  0.1124  0.3738
15037TIP3    H266603   5.836   3.729  11.770  0.4000  0.4792  0.4102
15038TIP3   OH266604   5.235   0.940   1.248 -0.1949 -0.2654 -0.0093
15038TIP3    H166605   5.263   0.881   1.318 -0.0892  0.3408  0.4554
15038TIP3    H266606   5.215   1.022   1.291  0.9624  0.4725 -0.8398
15039TIP3   OH266607   3.041   0.258  13.572 -0.0567  0.2873 -0.7444
15039TIP3    H166608   2.955   0.243  13.611  0.2131 -1.9724 -0.8850
15039TIP3    H266609   3.100   0.201  13.622  1.3498  1.6677 -0.7617
15040TIP3   OH266610   1.838   1.494   6.619 -0.2251 -0.0254  0.1066
15040TIP3    H166611   1.930   1.469   6.607 -0.0399 -0.0178  1.4232
15040TIP3    H266612   1.840   1.590   6.625 -0.5154  0.0978 -1.3270
15041TIP3   OH266613   6.001   5.181   5.550  0.0615 -0.0946 -1.1066
15041TIP3    H166614   5.969   5.188   5.460  0.3415 -0.3634 -1.2285
15041TIP3    H266615   6.043   5.265   5.567  1.9316 -0.8025 -1.9814
15042TIP3   OH266616   2.658   3.568   4.257  0.0855 -0.8172  0.5593
15042TIP3    H166617   2.653   3.473   4.253  0.7952 -1.0121  2.8010
15042TIP3    H266618   2.693   3.594   4.172 -1.6024 -2.3915 -0.6880
15043TIP3   OH266619   3.492   6.242   0.166 -0.2402 -0.3845 -0.3706
15043TIP3    H166620   3.522   6.319   0.214  0.0838 -1.0070  0.4483
15043TIP3    H266621   3.438   6.277   0.095 -2.8728  0.5194  1.8966
15044TIP3   OH266622   0.673   5.791   3.428  0.1151 -0.2542  0.1009
15044TIP3    H166623   0.716   5.717   3.470  0.9187  1.1860  2.0025
15044TIP3    H266624   0.744   5.847   3.398 -0.4305  0.6728  0.4707
15045TIP3   OH266625   1.317   3.423  13.293 -0.5388 -0.3683 -0.2578
15045TIP3    H166626   1.345   3.356  13.230 -0.8977 -1.0448  0.2898
15045TIP3    H266627   1.232   3.392  13.325 -0.6807  0.3221  0.0481
15046TIP3   OH266628   5.556   4.031   3.543 -0.1887  0.1036 -0.1557
15046TIP3    H166629   5.559   3.982   3.625  1.6869  0.8721  0.3001
15046TIP3    H266630   5.556   4.123   3.570  0.8283  0.3722 -0.9940
15047TIP3   OH266631   4.015   0.480   1.498 -0.3010  0.4078  0.0248
15047TIP3    H166632   4.083   0.473   1.431  3.1472 -1.2623  3.3229
15047TIP3    H266633   3.983   0.391   1.509 -0.4369  0.5543  0.8939
15048TIP3   OH266634   5.052   5.262   6.489  0.4471  0.1804 -0.1773
15048TIP3    H166635   4.989   5.280   6.419 -0.5345 -0.6509  0.4626
15048TIP3    H266636   5.077   5.171   6.475  0.2364  0.0046  0.5486
15049TIP3   OH266637   2.598   2.474   0.784  0.8334  0.2422 -0.1110
15049TIP3    H166638   2.522   2.532   0.791  0.6682  0.1101 -0.7429
15049TIP3    H266639   2.604   2.432   0.870 -0.3127 -0.3775 -0.3130
15050TIP3   OH266640   4.646   3.897   4.452 -0.2688  0.4733  0.0653
15050TIP3    H166641   4.586   3.825   4.471 -0.8651  1.2586  1.2887
15050TIP3    H266642   4.606   3.974   4.492  2.0955  0.8230  2.0732
15051TIP3   OH266643   2.873   1.956   0.026  0.3308  0.5766  0.2675
15051TIP3    H166644   2.953   1.913  -0.005  0.3388  0.1973  0.7988
15051TIP3    H266645   2.890   1.977   0.117  0.4810  2.1199 -0.0868
15052TIP3   OH266646   3.740   5.405   1.960  0.0653  0.3861 -0.0369
15052TIP3    H166647   3.729   5.433   1.869 -1.2338 -0.1296 -0.0630
15052TIP3    H266648   3.834   5.403   1.973  0.2668  0.7662 -1.2800
15053TIP3   OH266649   2.940   3.150   4.010 -0.1922 -0.0650 -0.1850
15053TIP3    H166650   2.923   3.162   4.103  2.3690  1.1143  0.2268
15053TIP3    H266651   2.867   3.194   3.966 -3.0807 -3.1512  1.0940
15054TIP3   OH266652   6.312   2.728   3.298  0.2023  0.1556  0.6279
15054TIP3    H166653   6.255   2.782   3.244  1.1080  1.9844  1.4198
15054TIP3    H266654   6.276   2.639   3.290 -2.4889  1.1413  0.7572
15055TIP3   OH266655   3.209   0.775  12.519 -0.5575  0.4064  0.2906
15055TIP3    H166656   3.155   0.697  12.524 -0.5243  0.4569  2.3824
15055TIP3    H266657   3.221   0.802  12.611  1.6059  1.3485 -0.1970
15056TIP3   OH266658   3.358   4.617  11.388 -0.3932  0.5100  0.6766
15056TIP3    H166659   3.388   4.699  11.350 -0.7389  0.3816  0.1068
15056TIP3    H266660   3.397   4.615  11.476  0.4950  0.7675  0.2995
15057TIP3   OH266661   4.580   2.438  15.998  0.2354  0.5625  0.1173
15057TIP3    H166662   4.527   2.372  15.953 -1.0778  2.5710 -1.4611
15057TIP3    H266663   4.522   2.473  16.066  0.9052  0.1670  0.9103
15058TIP3   OH266664   2.049   0.610   3.252  0.1677 -0.3173 -0.2105
15058TIP3    H166665   2.130   0.568   3.280  1.3536  1.4752 -0.7449
15058TIP3    H266666   2.075   0.699   3.227 -1.7364 -0.0837 -1.6668
15059TIP3   OH266667   4.403   6.308  12.501 -0.2665 -0.2888  0.1576
15059TIP3    H166668   4.349   6.368  12.450 -0.8437 -0.2436  0.7996
15059TIP3    H266669   4.350   6.289  12.579 -0.3168 -2.0088 -0.2459
15060TIP3   OH266670   0.424   6.400   3.049  0.4166  0.2129  0.0773
15060TIP3    H166671   0.495   6.410   2.985  0.1390  1.6914 -0.0155
15060TIP3    H266672   0.469   6.379   3.131  0.9063  0.3103 -0.1620
15061TIP3   OH266673   3.618   6.056   4.898  0.4575  0.2175 -0.0471
15061TIP3    H166674   3.545   6.107   4.935  1.7331  2.6113 -0.5995
15061TIP3    H266675   3.604   6.060   4.804  0.6021 -0.4651 -0.1012
15062TIP3   OH266676   3.375   0.815   1.949 -0.5420 -0.1472 -0.2581
15062TIP3    H166677   3.469   0.834   1.949 -0.4924 -0.3340 -1.4439
15062TIP3    H266678   3.334   0.897   1.974 -0.0536 -0.2032  0.8137
15063TIP3   OH266679   3.016   2.261   2.246 -0.4012  0.6600  0.3366
15063TIP3    H166680   2.939   2.210   2.272  0.1858 -0.4208 -0.0167
15063TIP3    H266681   2.981   2.326   2.185 -1.1027  0.4780  0.5290
15064TIP3   OH266682   5.151   3.630   2.402  0.6132  1.1909 -0.1632
15064TIP3    H166683   5.132   3.699   2.338  2.2358  1.2539 -0.6313
15064TIP3    H266684   5.174   3.554   2.350 -1.1613  0.2401  0.3578
15065TIP3   OH266685   2.424   5.363   1.261  0.3216  0.4424  0.0861
15065TIP3    H166686   2.505   5.405   1.289  0.4452 -0.0608  0.5009
15065TIP3    H266687   2.381   5.428   1.206  0.6720  0.9820  0.4402
15066TIP3   OH266688   1.424   6.130   3.143 -0.0577 -0.3304  0.0883
15066TIP3    H166689   1.336   6.158   3.116  0.4282  0.9434 -0.2674
15066TIP3    H266690   1.472   6.120   3.061  1.0730  2.3269  0.3185
15067TIP3   OH266691   3.289   0.556   5.860  0.6410 -0.3231  0.0862
15067TIP3    H166692   3.375   0.523   5.884  0.1880 -1.9442 -0.3668
15067TIP3    H266693   3.235   0.542   5.937  0.5063 -0.3762 -0.0169
15068TIP3   OH266694   2.828   5.902   3.319 -0.0417 -0.0989 -0.0944
15068TIP3    H166695   2.827   5.811   3.348 -1.8813 -0.0674  0.0301
15068TIP3    H266696   2.815   5.897   3.224 -1.4721  0.0480  0.0709
15069TIP3   OH266697   2.844   4.233   3.965  0.1942 -0.2878 -0.0367
15069TIP3    H166698   2.930   4.243   4.006  1.1963 -1.3567 -1.7207
15069TIP3    H266699   2.864   4.222   3.872 -1.8934  1.1704 -0.7304
15070TIP3   OH266700   1.411   4.104   3.574  0.1252 -0.2506 -0.4881
15070TIP3    H166701   1.353   4.028   3.564  1.0868 -1.3067  1.3334
15070TIP3    H266702   1.352   4.179   3.574 -1.1030 -1.1751 -0.1214
15071TIP3   OH266703   1.009   1.480  10.439 -0.6233  0.3748  0.3855
15071TIP3    H166704   1.031   1.509  10.527 -2.8394 -0.9310  1.4754
15071TIP3    H266705   0.997   1.385  10.447  1.0298 -0.0962 -1.7952
15072TIP3   OH266706   4.298   1.054   4.714  0.4116 -0.0378 -0.3616
15072TIP3    H166707   4.339   1.036   4.629  0.9169  0.8635 -0.3130
15072TIP3    H266708   4.225   1.113   4.694  0.6259  0.3007 -0.1534
15073TIP3   OH266709   2.201   2.722  16.508  0.0101 -0.4020  0.6771
15073TIP3    H166710   2.170   2.766  16.587  0.0186 -1.1512  1.1153
15073TIP3    H266711   2.161   2.770  16.436  0.0308  0.3124  1.1383
15074TIP3   OH266712   6.635   2.009   3.103  0.6473 -0.3045  0.2749
15074TIP3    H166713   6.543   2.011   3.131  0.0310  0.1335 -1.6478
15074TIP3    H266714   6.649   1.918   3.076  0.1238  0.0953 -1.4086
15075TIP3   OH266715   2.821   3.239  13.966 -0.3790 -0.5857  0.3672
15075TIP3    H166716   2.794   3.311  14.023  1.0201 -0.5462  0.9963
15075TIP3    H266717   2.797   3.160  14.014 -0.5145 -0.5522  0.3562
15076TIP3   OH266718   6.652   6.295   3.780  0.0230 -0.7317  0.4317
15076TIP3    H166719   6.735   6.287   3.733  0.0613 -3.1610  0.7896
15076TIP3    H266720   6.586   6.295   3.710  0.2437 -0.1477  0.2136
15077TIP3   OH266721   3.882   6.288  10.571 -0.6874  0.4454 -0.8488
15077TIP3    H166722   3.969   6.322  10.551  0.1312 -1.7611 -1.4192
15077TIP3    H266723   3.841   6.275  10.486 -1.1481  0.4713 -0.6315
15078TIP3   OH266724   5.340   4.038  15.308 -0.1883  0.6830 -0.6055
15078TIP3    H166725   5.365   4.113  15.361 -0.8825  2.6562 -2.8809
15078TIP3    H266726   5.388   4.049  15.226 -1.9763 -0.1056 -1.8235
15079TIP3   OH266727   5.897   6.223  16.274  0.2929 -0.3493  0.5315
15079TIP3    H166728   5.815   6.189  16.311 -0.2863 -0.3308 -0.6754
15079TIP3    H266729   5.877   6.313  16.251 -0.1869 -1.0289 -2.0602
15080TIP3   OH266730   3.891   1.881   4.288 -0.1050 -0.2857 -0.0388
15080TIP3    H166731   3.920   1.904   4.199  0.2263 -3.4814 -0.8767
15080TIP3    H266732   3.851   1.962   4.321  0.6688  1.3288 -2.6763
15081TIP3   OH266733   1.297   5.550   2.143 -0.6583 -0.4321  0.2518
15081TIP3    H166734   1.371   5.543   2.082 -1.6458  0.9966 -1.2211
15081TIP3    H266735   1.332   5.524   2.228  2.6395  3.6094  0.4413
15082TIP3   OH266736   1.512   4.537  10.561  0.5916 -0.0940 -0.0695
15082TIP3    H166737   1.491   4.487  10.640  1.1882 -1.0996 -0.5155
15082TIP3    H266738   1.571   4.606  10.592  0.9059 -0.5410  0.3641
15083TIP3   OH266739   3.365   4.554   5.688  0.1766  0.5137  0.3673
15083TIP3    H166740   3.309   4.528   5.762 -1.0052 -0.1887 -0.7230
15083TIP3    H266741   3.447   4.508   5.703 -1.0464 -2.0595 -0.2346
15084TIP3   OH266742   4.715   2.584  14.430  0.1778  0.4426  0.2040
15084TIP3    H166743   4.670   2.545  14.505  0.1413  0.5114  0.2181
15084TIP3    H266744   4.801   2.609  14.463  1.9128 -3.5107 -0.7869
15085TIP3   OH266745   0.201   1.537   5.877  0.2754 -0.5142 -0.7907
15085TIP3    H166746   0.159   1.505   5.797 -2.5582  1.4764 -0.2655
15085TIP3    H266747   0.147   1.502   5.948 -0.0461  1.4048 -0.0190
15086TIP3   OH266748   0.815   4.071   3.923  0.2642 -0.4268  0.0264
15086TIP3    H166749   0.866   4.146   3.894 -2.3514  1.7402  0.6288
15086TIP3    H266750   0.822   4.073   4.019 -0.0855 -0.7223  0.0627
15087TIP3   OH266751   0.776   0.521  15.870  0.3346 -0.0465 -0.1907
15087TIP3    H166752   0.717   0.518  15.946  0.2448 -1.3341 -0.2887
15087TIP3    H266753   0.858   0.557  15.905 -0.0289  0.3171  0.2944
15088TIP3   OH266754   0.702   3.629  12.372  0.4191 -1.4131  0.1575
15088TIP3    H166755   0.614   3.661  12.393  0.9499 -0.2316  0.7059
15088TIP3    H266756   0.717   3.659  12.282  1.2020  0.6317  0.9246
15089TIP3   OH266757   3.202   3.699   3.039 -0.3926  0.7188  0.5113
15089TIP3    H166758   3.180   3.617   3.084 -0.1059 -0.7591 -1.9116
15089TIP3    H266759   3.122   3.722   2.991  0.1911  0.7218 -0.4716
15090TIP3   OH266760   5.998   2.449   5.082  0.0024 -0.5857  0.5085
15090TIP3    H166761   6.072   2.392   5.103  0.4659 -0.0425  0.3752
15090TIP3    H266762   6.038   2.533   5.059 -0.7079  0.0398  1.4810
15091TIP3   OH266763   5.233   2.872   4.605 -0.1657  0.1561  0.0112
15091TIP3    H166764   5.235   2.946   4.666  0.0015  0.3341 -0.2091
15091TIP3    H266765   5.140   2.856   4.591 -0.3304  2.6787 -2.7544
15092TIP3   OH266766   5.810   5.013  12.867  0.1808  0.7241  0.8857
15092TIP3    H166767   5.761   4.947  12.818  0.3977  1.0342  0.2420
15092TIP3    H266768   5.850   4.965  12.939 -1.7442  0.5939  1.9446
15093TIP3   OH266769   0.936   5.208  12.539  0.3206 -0.4970 -0.2902
15093TIP3    H166770   0.915   5.233  12.450 -4.2359  0.7424  0.8599
15093TIP3    H266771   0.955   5.291  12.584 -0.5865 -0.6896  0.4929
15094TIP3   OH266772   3.516   4.259  13.158  0.3274 -0.9284  0.0281
15094TIP3    H166773   3.531   4.311  13.237 -0.3283  0.4674 -0.7171
15094TIP3    H266774   3.435   4.211  13.176 -1.1518  1.1807 -0.5979
15095TIP3   OH266775   5.250   5.162   3.784 -0.2776  0.2567  0.3312
15095TIP3    H166776   5.197   5.142   3.861  0.1202  0.1648  0.5881
15095TIP3    H266777   5.251   5.080   3.733 -2.8382  1.0758 -1.2143
15096TIP3   OH266778   5.619   2.582   4.398 -0.0930 -0.4006  0.2264
15096TIP3    H166779   5.525   2.572   4.381 -0.2931 -0.5373  1.3370
15096TIP3    H266780   5.650   2.493   4.413 -0.4374 -0.1404  2.9589
15097TIP3   OH266781   3.435   6.376   1.791  1.1008 -0.3793  0.1003
15097TIP3    H166782   3.463   6.292   1.753 -0.1402 -0.3605 -0.9222
15097TIP3    H266783   3.510   6.435   1.775  2.5266 -1.5703  2.0009
15098TIP3   OH266784   3.211   4.624   6.187 -0.1150 -0.2541  0.2634
15098TIP3    H166785   3.133   4.676   6.169 -0.6055 -1.4910 -1.4671
15098TIP3    H266786   3.260   4.626   6.105  2.1647  1.2026  1.5555
15099TIP3   OH266787   5.059   6.630   4.048  0.7384  0.0780  0.4635
15099TIP3    H166788   5.006   6.694   4.000  0.1079 -0.0206  1.0214
15099TIP3    H266789   5.147   6.639   4.009 -0.2549 -1.8905 -2.6203
15100TIP3   OH266790   6.058   6.179  13.767  0.3626  0.2863  0.1257
15100TIP3    H166791   6.022   6.165  13.854 -3.0867  1.0718 -1.0059
15100TIP3    H266792   6.071   6.274  13.762  0.3438  0.2678 -0.2822
15101TIP3   OH266793   1.149   2.929   2.396  0.0374  0.6111 -0.2328
15101TIP3    H166794   1.079   2.962   2.452 -0.4436 -1.7182  0.6338
15101TIP3    H266795   1.110   2.923   2.309  0.1298  2.2001 -0.4090
15102TIP3   OH266796   3.343   6.602   4.616  0.4082 -0.3005  0.4688
15102TIP3    H166797   3.283   6.649   4.558 -0.6517  0.0829  1.8379
15102TIP3    H266798   3.427   6.648   4.605  0.6339 -1.1657 -1.8373
15103TIP3   OH266799   3.104   5.502   3.026  0.1038  0.5709  0.5944
15103TIP3    H166800   3.063   5.567   2.970 -0.4450  1.0650  1.5315
15103TIP3    H266801   3.150   5.554   3.092 -0.6093  0.0254  1.5470
15104TIP3   OH266802   6.641   2.273  16.307 -0.1399 -0.0159  0.4197
15104TIP3    H166803   6.727   2.283  16.265 -0.2990  0.0894  0.1234
15104TIP3    H266804   6.661   2.231  16.391  0.1656 -0.3157  0.1993
15105TIP3   OH266805   5.064   6.282   2.415  0.0971  0.5476  0.4503
15105TIP3    H166806   5.105   6.332   2.344 -0.0919 -0.4847 -0.4237
15105TIP3    H266807   4.970   6.285   2.396  0.0089  0.6014  0.8855
15106TIP3   OH266808   0.949   2.732  12.503 -0.5353 -0.0233 -0.2853
15106TIP3    H166809   0.858   2.703  12.503 -0.0837 -1.4922 -0.0818
15106TIP3    H266810   0.988   2.691  12.426  0.0755  0.2407 -0.1267
15107TIP3   OH266811   4.490   6.259  16.812  0.5550  0.3693 -0.1442
15107TIP3    H166812   4.511   6.262  16.718  0.4947  2.6296 -0.1504
15107TIP3    H266813   4.395   6.264  16.816  0.5212 -0.3515  0.0390
15108TIP3   OH266814   5.096   4.154  14.639  0.3515 -0.7901  0.0284
15108TIP3    H166815   5.056   4.210  14.572  0.2612 -1.1448 -0.2186
15108TIP3    H266816   5.154   4.096  14.590 -0.3271 -1.6024  0.1536
15109TIP3   OH266817   4.376   2.234   1.235 -0.2199 -0.3742 -0.4622
15109TIP3    H166818   4.450   2.179   1.208  0.6816 -0.1597  1.3962
15109TIP3    H266819   4.341   2.190   1.312 -0.1284  1.0731  0.4516
15110TIP3   OH266820   0.269   0.789   3.581  0.4062  0.2327 -0.3299
15110TIP3    H166821   0.346   0.768   3.633 -1.2175 -0.5935  1.9187
15110TIP3    H266822   0.247   0.707   3.536 -1.3609 -0.8475  2.2211
15111TIP3   OH266823   2.091   6.662  16.363  0.1366  1.0117 -0.3700
15111TIP3    H166824   2.070   6.620  16.279  0.4761  0.7302 -0.3187
15111TIP3    H266825   2.146   6.737  16.340 -0.9765  1.8115 -0.5103
15112TIP3   OH266826   0.136   4.833   3.432  0.1277  0.0721 -0.6239
15112TIP3    H166827   0.110   4.922   3.453 -2.5834 -0.5763 -0.8230
15112TIP3    H266828   0.096   4.779   3.501  0.4272 -1.0952 -1.3214
15113TIP3   OH266829   0.949   2.690  10.411  0.1848  0.1283 -0.0179
15113TIP3    H166830   0.856   2.712  10.405 -0.1421 -0.3496  2.2992
15113TIP3    H266831   0.954   2.601  10.377 -1.0657 -1.5654  3.7703
15114TIP3   OH266832   3.624   6.421  14.420  0.3503  0.0845  0.5096
15114TIP3    H166833   3.533   6.427  14.390 -0.0407 -1.8563  1.1826
15114TIP3    H266834   3.634   6.495  14.479 -0.5622  0.7378 -0.1135
15115TIP3   OH266835   5.924   3.794  15.705  0.3932  0.1265 -0.1435
15115TIP3    H166836   5.868   3.717  15.715 -0.0349  0.3474 -0.8150
15115TIP3    H266837   6.004   3.771  15.752 -0.0128 -0.4395  0.2877
15116TIP3   OH266838   5.878   6.789  13.463 -0.6573 -0.0990 -0.3636
15116TIP3    H166839   5.903   6.873  13.426  0.7869 -0.7022 -0.8098
15116TIP3    H266840   5.833   6.743  13.392  0.5287 -0.5570 -0.8374
15117TIP3   OH266841   2.919   1.244  13.416 -0.3295  0.3544  0.0763
15117TIP3    H166842   3.005   1.224  13.378  0.5218  3.1269  0.3023
15117TIP3    H266843   2.881   1.308  13.356 -0.9064  1.4290  1.5525
15118TIP3   OH266844   6.814   3.238   0.874  0.3554  0.1970 -0.0053
15118TIP3    H166845   6.856   3.153   0.888 -0.5885 -0.1423  0.9590
15118TIP3    H266846   6.886   3.300   0.867  1.0321 -0.5267  0.4011
15119TIP3   OH266847   3.374   1.287   1.985  0.4550  0.3836  0.5440
15119TIP3    H166848   3.421   1.350   2.040 -0.4220  0.5367  1.1404
15119TIP3    H266849   3.281   1.310   1.997  0.1163 -1.0330  0.7774
15120TIP3   OH266850   2.998   5.606   1.583 -0.2364  0.2563 -0.2026
15120TIP3    H166851   3.001   5.544   1.510 -0.3521 -0.1157  0.1050
15120TIP3    H266852   3.090   5.624   1.603 -0.2019  0.0965 -0.2188
15121TIP3   OH266853   6.169   6.208   1.947 -0.1315  0.0013  0.1449
15121TIP3    H166854   6.136   6.119   1.961  0.1576  0.0370  1.1138
15121TIP3    H266855   6.180   6.244   2.035  2.8625 -0.1569 -0.0585
15122TIP3   OH266856   2.111   6.376   4.309 -0.4417  0.0747 -0.1659
15122TIP3    H166857   2.094   6.291   4.348  0.8272  0.0077  0.2809
15122TIP3    H266858   2.025   6.419   4.305 -0.8521 -0.6045  1.0673
15123TIP3   OH266859   6.631   4.155  12.072  0.1247  0.2320 -0.8734
15123TIP3    H166860   6.697   4.143  12.140 -1.1469  0.3384  0.4265
15123TIP3    H266861   6.660   4.098  12.000  1.2189 -0.2860 -0.0471
15124TIP3   OH266862   5.553   0.626   3.153 -0.2339  0.6631  0.7242
15124TIP3    H166863   5.639   0.585   3.163 -0.7047  0.0121  2.4049
15124TIP3    H266864   5.491   0.553   3.155 -0.8307  1.0291 -1.3900
15125TIP3   OH266865   3.100   6.476  14.236  0.3099 -0.3471 -0.4084
15125TIP3    H166866   3.037   6.515  14.297  0.5172 -0.8799  0.1542
15125TIP3    H266867   3.070   6.386  14.225  0.7419 -0.4848 -0.4654
15126TIP3   OH266868   2.027   2.710  16.944  0.1896 -0.5161  0.2280
15126TIP3    H166869   2.076   2.757  16.877 -0.8372  1.6471  0.9270
15126TIP3    H266870   1.943   2.755  16.949 -0.6043 -2.0301  1.4359
15127TIP3   OH266871   1.441   3.357  11.889 -0.8145  0.1108  0.0597
15127TIP3    H166872   1.522   3.407  11.898 -1.4891  1.1861  0.2849
15127TIP3    H266873   1.444   3.322  11.800  0.4008 -0.7840  0.4348
15128TIP3   OH266874   1.037   4.075   1.773  0.7033  0.3641 -0.2080
15128TIP3    H166875   1.130   4.071   1.794  0.9588  1.5434 -0.9985
15128TIP3    H266876   1.001   3.994   1.808  1.2376  1.6400  3.8151
15129TIP3   OH266877   5.896   2.387   4.828 -0.0060 -0.6387  0.1895
15129TIP3    H166878   5.830   2.455   4.819  0.2340 -0.4416 -0.0979
15129TIP3    H266879   5.931   2.399   4.916 -0.7273 -1.0893  0.5484
15130TIP3   OH266880   5.453   5.505  16.366 -0.0173 -0.2099 -0.1663
15130TIP3    H166881   5.528   5.548  16.327 -0.0825  0.3579  0.3212
15130TIP3    H266882   5.462   5.521  16.460 -0.5130 -0.5146 -0.0616
15131TIP3   OH266883   5.663   4.294  12.748  0.0154  0.0493 -0.1925
15131TIP3    H166884   5.603   4.228  12.713  0.5744  0.3451 -1.8069
15131TIP3    H266885   5.655   4.368  12.687  0.8880  0.6874  0.4500
15132TIP3   OH266886   0.583   4.674  11.890  0.3889 -0.2224 -0.8822
15132TIP3    H166887   0.509   4.615  11.875 -0.3670  0.3957  0.2985
15132TIP3    H266888   0.578   4.737  11.818 -1.0462  0.5853 -0.1306
15133TIP3   OH266889   3.767   3.874  16.635  0.0981 -0.0638  0.4044
15133TIP3    H166890   3.818   3.908  16.562  1.0354  0.3454  1.2260
15133TIP3    H266891   3.711   3.806  16.597  0.0325  0.6571 -0.8115
15134TIP3   OH266892   0.825   4.681  14.767  0.5559 -0.0314 -0.3014
15134TIP3    H166893   0.782   4.668  14.851  0.3858 -2.6905 -0.7160
15134TIP3    H266894   0.755   4.674  14.702  0.5719  2.6585 -0.7064
15135TIP3   OH266895   0.352   2.765  15.172 -0.3870  0.4382 -0.1220
15135TIP3    H166896   0.349   2.794  15.263  1.6686 -1.6826  0.7412
15135TIP3    H266897   0.426   2.813  15.134  0.0872 -0.2227 -0.0433
15136TIP3   OH266898   2.477   6.234   4.802 -0.2243  0.3817  0.4152
15136TIP3    H166899   2.460   6.163   4.863  0.7616 -0.9037 -0.7183
15136TIP3    H266900   2.532   6.296   4.851 -1.2400  0.4720  1.4691
15137TIP3   OH266901   5.289   3.746   1.385 -0.1981  0.4392  0.3094
15137TIP3    H166902   5.319   3.834   1.406 -0.0826  0.4113  0.2678
15137TIP3    H266903   5.370   3.693   1.385 -0.5999 -0.4030  3.8084
15138TIP3   OH266904   1.084   1.855   3.680 -0.2411 -0.0425  0.1694
15138TIP3    H166905   1.121   1.901   3.756  0.8308  1.7154 -1.3375
15138TIP3    H266906   0.989   1.856   3.696  0.0139 -0.5337  1.8983
15139TIP3   OH266907   0.333   2.036  15.896  0.2735 -0.4304 -0.4780
15139TIP3    H166908   0.249   2.056  15.856 -0.4729 -0.1474  1.1577
15139TIP3    H266909   0.384   2.117  15.888 -0.1046 -0.1724 -0.2981
15140TIP3   OH266910   6.419   2.538  11.138 -0.5626 -0.9139  0.3586
15140TIP3    H166911   6.368   2.488  11.074 -0.4717 -0.1108 -0.3641
15140TIP3    H266912   6.507   2.544  11.100 -0.7621  0.4401  0.0319
15141TIP3   OH266913   3.188   0.608  16.221  0.0365  0.4063 -0.4405
15141TIP3    H166914   3.217   0.690  16.259  2.4409  0.5991 -2.3923
15141TIP3    H266915   3.145   0.633  16.139 -0.3290 -0.2222 -0.4501
15142TIP3   OH266916   1.888   2.988  15.289  0.2571  0.0867  0.6166
15142TIP3    H166917   1.949   2.928  15.245  0.5488  0.5534  0.3809
15142TIP3    H266918   1.890   3.067  15.235  0.3992  0.5623  1.3157
15143TIP3   OH266919   1.616   1.528  16.072 -0.2333 -0.0906  0.4997
15143TIP3    H166920   1.701   1.488  16.053 -0.1901 -0.2108  0.9547
15143TIP3    H266921   1.554   1.456  16.069 -0.2916 -0.0357  0.3718
15144TIP3   OH266922   5.280   4.294   1.498 -0.0471 -0.2587 -0.2408
15144TIP3    H166923   5.325   4.212   1.478  0.6692 -0.2621  1.2052
15144TIP3    H266924   5.338   4.363   1.465  0.5492 -0.2906  0.7067
15145TIP3   OH266925   4.533   0.687   4.744 -0.0005  0.2168 -0.0219
15145TIP3    H166926   4.616   0.658   4.784 -0.6155  0.5709  1.5806
15145TIP3    H266927   4.471   0.618   4.765  0.1198 -0.7032 -2.3529
15146TIP3   OH266928   0.603   5.796   3.725 -0.6911  0.5385  0.0030
15146TIP3    H166929   0.581   5.704   3.710  2.2545 -0.0996 -1.0589
15146TIP3    H266930   0.628   5.829   3.638  1.5391  1.3193  0.8673
15147TIP3   OH266931   1.093   0.834   0.298  0.3987  0.1071  0.5479
15147TIP3    H166932   1.119   0.745   0.274  1.2014  0.5005 -0.0654
15147TIP3    H266933   1.146   0.854   0.375  2.9964  1.3625 -1.4015
15148TIP3   OH266934   5.439   4.968  13.545 -0.0883  0.0798  0.1452
15148TIP3    H166935   5.513   4.907  13.549 -0.4323 -0.2968  1.3077
15148TIP3    H266936   5.456   5.030  13.617 -1.7712 -1.0864  1.6382
15149TIP3   OH266937   4.675   2.074  16.750 -0.6505 -0.1501 -1.1609
15149TIP3    H166938   4.723   2.116  16.679  0.8098  0.3226  0.0645
15149TIP3    H266939   4.689   1.980  16.736  1.2021 -0.0059 -0.4813
15150TIP3   OH266940   6.442   5.765  13.375 -0.3320 -0.2096 -1.1009
15150TIP3    H166941   6.456   5.685  13.426  2.1731  1.3558  0.9031
15150TIP3    H266942   6.507   5.760  13.304 -0.3940 -0.0863 -1.1667
15151TIP3   OH266943   0.919   3.617   0.436  0.0790 -0.2919  0.2496
15151TIP3    H166944   0.965   3.696   0.408  0.6265 -0.6712  0.0552
15151TIP3    H266945   0.872   3.643   0.515 -0.3507  0.4227 -0.2309
15152TIP3   OH266946   1.268   3.105  14.441  0.1839  0.5999  0.8000
15152TIP3    H166947   1.311   3.136  14.361  0.7310 -1.3603  0.2794
15152TIP3    H266948   1.336   3.110  14.508  1.0500 -1.6054  0.1827
15153TIP3   OH266949   2.533   3.273   5.251 -0.8258 -0.5270  0.0119
15153TIP3    H166950   2.559   3.342   5.312  1.8201  1.0209 -2.6305
15153TIP3    H266951   2.591   3.199   5.272 -1.9394 -1.1178  1.1824
15154TIP3   OH266952   6.682   4.978   2.771 -0.0711 -0.0950  0.0744
15154TIP3    H166953   6.607   4.929   2.737  0.6060  0.1365 -1.9294
15154TIP3    H266954   6.735   4.914   2.818  0.5519 -1.2586 -2.0837
15155TIP3   OH266955   1.798   1.690  16.241 -0.2881  0.5747  0.1565
15155TIP3    H166956   1.815   1.601  16.211  0.9468  0.4186  1.2364
15155TIP3    H266957   1.856   1.745  16.187  2.5973  0.2139  2.6212
15156TIP3   OH266958   1.775   3.200  15.095  0.0066  0.4883  0.1995
15156TIP3    H166959   1.740   3.137  15.032 -0.2480 -0.1325  0.9443
15156TIP3    H266960   1.848   3.242  15.050 -0.8699  0.8485 -0.9026
15157TIP3   OH266961   5.736   1.264  16.991 -0.5757 -0.9736 -0.5217
15157TIP3    H166962   5.699   1.177  16.976  1.8307 -1.9966 -1.1122
15157TIP3    H266963   5.829   1.247  17.009 -0.0098  1.4927 -0.7664
15158TIP3   OH266964   0.996   1.474   0.233 -0.6535  0.2334 -0.8548
15158TIP3    H166965   1.023   1.383   0.244 -1.8831 -0.1050 -0.3888
15158TIP3    H266966   1.076   1.526   0.244 -0.1929 -0.6985  0.3018
15159TIP3   OH266967   0.600   4.424   2.138 -0.4360 -0.3453 -0.0970
15159TIP3    H166968   0.681   4.471   2.160  0.1252 -0.7703 -1.1847
15159TIP3    H266969   0.625   4.366   2.066 -1.6221 -0.7717 -0.1794
15160TIP3   OH266970   2.710   0.181  14.719 -0.3825 -0.2587  0.2814
15160TIP3    H166971   2.618   0.199  14.734 -0.5370 -0.7481 -0.0556
15160TIP3    H266972   2.735   0.123  14.792 -0.9163 -1.9373 -0.8197
15161TIP3   OH266973   3.736   1.461   1.209  0.1751  0.2950  0.2409
15161TIP3    H166974   3.670   1.393   1.191 -0.5539  1.2354 -0.8161
15161TIP3    H266975   3.691   1.523   1.267  0.6912  0.1007  0.8511
15162TIP3   OH266976   6.089   4.074  15.258  0.5989 -0.5100 -0.1254
15162TIP3    H166977   6.084   4.113  15.171  2.5544  1.2018  0.4460
15162TIP3    H266978   6.005   4.096  15.299  1.5462  3.2778  0.1543
15163TIP3   OH266979   5.427   3.500   1.074  0.1214  0.1558 -0.3703
15163TIP3    H166980   5.435   3.573   1.136  2.6153  0.5404 -1.0269
15163TIP3    H266981   5.400   3.542   0.992 -0.0053  0.1196 -0.3465
15164TIP3   OH266982   4.401   5.099  11.238  0.2537 -0.0237 -0.8357
15164TIP3    H166983   4.476   5.047  11.209  1.0141 -0.0661  1.0834
15164TIP3    H266984   4.406   5.098  11.334 -1.5165  0.9825 -0.6867
15165TIP3   OH266985   4.289   5.154   2.697 -0.0836  0.2602  0.4047
15165TIP3    H166986   4.195   5.137   2.697 -0.0070 -0.1586  0.5536
15165TIP3    H266987   4.319   5.123   2.612 -0.3134  1.7130 -0.2383
15166TIP3   OH266988   2.970   4.601   2.782 -0.3292  0.3240  0.2175
15166TIP3    H166989   2.987   4.579   2.690 -0.5335 -1.4316  0.5719
15166TIP3    H266990   3.051   4.642   2.812 -1.0389  3.1021 -1.3290
15167TIP3   OH266991   3.762   4.857  12.610  0.4289 -0.2266 -0.4127
15167TIP3    H166992   3.767   4.951  12.628  0.1415 -0.2051 -0.4452
15167TIP3    H266993   3.668   4.839  12.604  0.4774 -0.5577 -0.1765
15168TIP3   OH266994   6.234   4.804   1.790  0.6618 -0.0557 -0.0447
15168TIP3    H166995   6.242   4.820   1.696 -0.4572 -1.6182 -0.4370
15168TIP3    H266996   6.324   4.791   1.820  1.2399  2.4439 -0.4633
15169TIP3   OH266997   6.584   3.549  15.031  0.2108  0.4561  0.1676
15169TIP3    H166998   6.675   3.537  15.006 -0.7477 -1.7673 -2.8706
15169TIP3    H266999   6.556   3.463  15.061 -0.8839  1.1729  1.3277
15170TIP3   OH267000   6.774   6.610  10.887  0.2399 -0.9538 -0.2568
15170TIP3    H167001   6.766   6.560  10.806  1.2273  0.4093 -1.2177
15170TIP3    H267002   6.703   6.674  10.883  0.0275 -1.1522  0.1817
15171TIP3   OH267003   4.422   0.954  14.467  0.7213  0.1185 -0.4459
15171TIP3    H167004   4.352   0.984  14.525  0.1681 -0.0750 -1.0003
15171TIP3    H267005   4.501   0.957  14.521 -0.3107 -4.1261  1.8105
15172TIP3   OH267006   3.295   1.563  11.739 -0.1807 -0.1235  0.3305
15172TIP3    H167007   3.371   1.598  11.693 -1.6966  1.9251 -0.7707
15172TIP3    H267008   3.251   1.640  11.775 -1.9951 -1.1828  0.5038
15173TIP3   OH267009   1.335   6.012   4.590  0.2516  0.2322  0.2811
15173TIP3    H167010   1.392   6.066   4.534  0.5573  0.3646  0.7127
15173TIP3    H267011   1.390   5.991   4.665  1.0465 -2.8054 -0.9963
15174TIP3   OH267012   5.665   2.686   1.499 -0.2904 -0.3896 -0.0637
15174TIP3    H167013   5.596   2.704   1.562 -0.1914 -1.5654  0.3944
15174TIP3    H267014   5.674   2.768   1.449 -0.1123  0.6930  1.6728
15175TIP3   OH267015   0.577   1.778   3.891  0.2846  0.1348  0.2079
15175TIP3    H167016   0.641   1.850   3.892  0.8127 -0.3111 -0.6042
15175TIP3    H267017   0.559   1.762   3.984 -1.7945  2.9779  0.4144
15176TIP3   OH267018   2.389   4.198  15.215  0.0816 -0.1625 -0.9344
15176TIP3    H167019   2.374   4.105  15.231  0.5987  0.0383  0.9733
15176TIP3    H267020   2.301   4.236  15.206 -0.1765 -0.6104 -0.3281
15177TIP3   OH267021   0.462   4.479  15.452 -0.1385 -0.1451  0.3791
15177TIP3    H167022   0.446   4.568  15.420  0.4425 -0.8289 -1.9926
15177TIP3    H267023   0.398   4.426  15.406  0.7542 -1.2059  0.3335
15178TIP3   OH267024   1.685   5.275   5.543 -0.0878 -0.6185 -0.3944
15178TIP3    H167025   1.715   5.288   5.633 -1.2392 -1.2354  0.1101
15178TIP3    H267026   1.626   5.349   5.526 -1.4464 -1.5440  0.1066
15179TIP3   OH267027   4.704   4.706   4.541 -0.1454  0.4384 -0.2807
15179TIP3    H167028   4.643   4.672   4.476  0.0967 -0.6919  0.0661
15179TIP3    H267029   4.664   4.684   4.625  0.3731  0.3786 -0.0496
15180TIP3   OH267030   2.574   0.206   3.343 -0.2142 -0.1326 -0.1693
15180TIP3    H167031   2.622   0.283   3.314 -0.2917  0.1204  0.3551
15180TIP3    H267032   2.584   0.206   3.439 -1.8067  0.3109  0.0200
15181TIP3   OH267033   2.307   1.813  15.467  0.2192  0.1274 -0.1726
15181TIP3    H167034   2.269   1.895  15.437  0.3222 -0.8993 -3.5330
15181TIP3    H267035   2.234   1.765  15.506 -0.0887  1.3243  0.7701
15182TIP3   OH267036   4.013   3.067  17.010 -0.3133  0.3556  0.1330
15182TIP3    H167037   4.085   3.127  17.030  1.1502 -1.1734 -0.2793
15182TIP3    H267038   4.033   2.988  17.061 -0.0365 -1.2064 -2.2588
15183TIP3   OH267039   2.425   0.140   0.477  0.7374 -0.0699 -0.6831
15183TIP3    H167040   2.494   0.098   0.427 -0.0144 -0.0386 -1.7966
15183TIP3    H267041   2.470   0.186   0.548  1.6704 -1.6716 -0.2007
15184TIP3   OH267042   5.252   4.209   3.755 -0.0386 -0.6824 -0.1404
15184TIP3    H167043   5.281   4.129   3.799 -0.1491 -1.6799 -1.7836
15184TIP3    H267044   5.319   4.226   3.690 -0.7383 -0.2661 -0.7710
15185TIP3   OH267045   1.060   0.181  13.014  0.1929 -0.3174  0.2255
15185TIP3    H167046   1.069   0.170  13.109  2.6494  1.4187  0.3112
15185TIP3    H267047   1.079   0.095  12.977  0.7403 -0.6548  1.2642
15186TIP3   OH267048   3.290   1.944   1.695 -0.3886  0.3354  0.5081
15186TIP3    H167049   3.383   1.922   1.685 -0.1919  1.2420  0.2248
15186TIP3    H267050   3.276   1.948   1.790  0.0224  0.7931  0.5561
15187TIP3   OH267051   1.214   3.404  14.430  0.0524 -0.1187  0.3887
15187TIP3    H167052   1.151   3.476  14.438  1.8765  1.4128  1.8684
15187TIP3    H267053   1.176   3.333  14.481 -0.8113  0.5094  0.6524
15188TIP3   OH267054   5.784   0.619  11.391  0.0191 -0.0712  0.5122
15188TIP3    H167055   5.696   0.610  11.355  0.2366  0.4914 -0.1734
15188TIP3    H267056   5.842   0.609  11.316  0.5519 -0.4512  0.9614
15189TIP3   OH267057   5.784   2.683   0.658 -0.4741 -0.3989  0.1988
15189TIP3    H167058   5.838   2.615   0.618  0.1030  0.4882 -0.5711
15189TIP3    H267059   5.696   2.647   0.659 -0.2568 -0.9755 -0.6240
15190TIP3   OH267060   5.839   3.116   0.022  0.2567 -0.1577  0.1679
15190TIP3    H167061   5.822   3.185  -0.043  1.2539 -0.4630 -0.4381
15190TIP3    H267062   5.906   3.061  -0.018 -1.0343 -1.9267  0.3373
15191TIP3   OH267063   1.982   1.981  16.668 -0.1064 -0.3804 -0.3367
15191TIP3    H167064   1.958   1.990  16.760 -1.0593  0.0345 -0.6117
15191TIP3    H267065   1.919   1.917  16.633 -0.7512  0.6149 -1.0423
15192TIP3   OH267066   2.966   3.657  16.205 -0.2532 -0.0546  0.6622
15192TIP3    H167067   2.956   3.563  16.192 -6.0873 -0.1799  2.9154
15192TIP3    H267068   2.897   3.697  16.152  1.1835  2.8881  0.7939
15193TIP3   OH267069   4.942   2.835  13.039 -0.3617  0.6521  0.0501
15193TIP3    H167070   4.889   2.781  13.098 -0.2888  1.2384  0.6598
15193TIP3    H267071   4.966   2.911  13.091  0.9255  0.4896 -0.2714
15194TIP3   OH267072   4.100   1.713  15.701 -0.6363 -0.2622 -0.5174
15194TIP3    H167073   4.045   1.752  15.633 -0.5226  0.5829 -0.1314
15194TIP3    H267074   4.167   1.779  15.718  0.0178 -0.9468 -0.3975
15195TIP3   OH267075   2.060   3.444  15.163  0.1123  0.3000  0.9576
15195TIP3    H167076   2.072   3.475  15.252 -0.0839  1.2333  0.6730
15195TIP3    H267077   2.148   3.425  15.132  0.2327  0.4804  1.1820
15196TIP3   OH267078   6.654   6.522  16.750 -0.0779  0.4253 -0.6673
15196TIP3    H167079   6.739   6.513  16.708  0.7946  1.9756  0.6621
15196TIP3    H267080   6.655   6.458  16.822  0.8100  1.7612  0.5698
15197TIP3   OH267081   2.230   1.517  11.554 -0.8230  0.9135 -0.3499
15197TIP3    H167082   2.135   1.517  11.549 -0.8307 -1.2034 -1.4349
15197TIP3    H267083   2.251   1.458  11.626 -0.3171  2.0164  0.4275
15198TIP3   OH267084   5.578   6.163  14.238 -0.1248  0.0825 -0.1678
15198TIP3    H167085   5.666   6.180  14.206 -0.4915  1.2100 -0.6367
15198TIP3    H267086   5.544   6.096  14.179  0.3024 -0.1212 -0.1839
15199TIP3   OH267087   0.003   4.113  15.563 -0.4180 -0.3110 -0.2437
15199TIP3    H167088   0.013   4.018  15.567 -0.6709 -0.4249 -1.6836
15199TIP3    H267089   0.092   4.146  15.559 -0.3235 -0.7040 -2.7897
15200TIP3   OH267090   5.338   1.530  12.648  0.6235  0.1756  0.1601
15200TIP3    H167091   5.278   1.567  12.584 -0.9501 -1.4819  0.6074
15200TIP3    H267092   5.406   1.489  12.595 -0.1664 -0.3819 -0.4470
15201TIP3   OH267093   5.970   0.447   2.354 -0.2640 -0.5394 -0.2405
15201TIP3    H167094   6.019   0.366   2.359 -1.0921 -0.9874  1.6562
15201TIP3    H267095   5.891   0.425   2.306  0.3470 -0.3719 -1.3437
15202TIP3   OH267096   1.366   3.697  17.166 -0.0990  0.4210  0.1478
15202TIP3    H167097   1.452   3.713  17.128  0.0434 -2.9777 -1.3013
15202TIP3    H267098   1.381   3.628  17.231 -1.9832 -2.5927 -2.3317
15203TIP3   OH267099   6.765   6.333   0.156 -0.9285 -0.2591  0.0864
15203TIP3    H167100   6.841   6.298   0.110 -0.9491 -1.8415  1.1656
15203TIP3    H267101   6.691   6.287   0.117 -1.3100  0.9649 -0.6716
15204TIP3   OH267102   2.936   2.649  10.419 -0.3365 -0.5253 -0.0120
15204TIP3    H167103   2.884   2.706  10.476 -1.5580 -1.9548  0.3885
15204TIP3    H267104   3.006   2.705  10.387 -1.7959  1.3557 -0.1280
15205TIP3   OH267105   3.061   2.314   5.363  0.3159 -0.3925  0.1281
15205TIP3    H167106   3.028   2.372   5.432 -0.0319  0.9353 -1.0936
15205TIP3    H267107   3.034   2.357   5.282  0.1846 -2.2241 -0.8389
15206TIP3   OH267108   3.485   3.159  11.222 -0.1964 -0.4371  0.0106
15206TIP3    H167109   3.521   3.141  11.134  1.7966 -1.9048  1.0376
15206TIP3    H267110   3.539   3.230  11.256  1.7720 -2.4940  1.4762
15207TIP3   OH267111   1.678   3.078   0.457 -0.0727 -0.5808  0.2433
15207TIP3    H167112   1.702   3.166   0.428  0.3466 -1.1529 -1.2397
15207TIP3    H267113   1.593   3.089   0.499 -2.2042 -0.0194 -3.7415
15208TIP3   OH267114   3.304   2.484   2.297  0.1449  0.2052 -0.3187
15208TIP3    H167115   3.276   2.394   2.316 -0.6593  0.3360 -0.8186
15208TIP3    H267116   3.337   2.517   2.381 -0.5471 -0.2088  0.1294
15209TIP3   OH267117   0.103   0.679  14.190  0.4011  0.4905  0.3388
15209TIP3    H167118   0.127   0.602  14.241 -1.7508  1.5396  3.1758
15209TIP3    H267119   0.020   0.656  14.148  0.3951  0.8244  0.1597
15210TIP3   OH267120   6.358   2.882   5.778 -0.3070 -0.4017  0.2080
15210TIP3    H167121   6.290   2.915   5.836  1.0210  0.1345  1.5147
15210TIP3    H267122   6.439   2.917   5.814  0.8537 -2.4305 -0.2762
15211TIP3   OH267123   1.476   3.027  12.279  0.1151 -0.1574 -0.5262
15211TIP3    H167124   1.436   3.031  12.192  0.3671  2.9440 -0.6071
15211TIP3    H267125   1.410   3.065  12.337  0.9654  0.2530  0.1949
15212TIP3   OH267126   2.430   3.689   0.201  0.7379  0.6361  0.2740
15212TIP3    H167127   2.370   3.627   0.160  2.2384 -0.9577  0.3295
15212TIP3    H267128   2.509   3.685   0.147  2.5173 -0.9866  2.7343
15213TIP3   OH267129   1.467   5.563   5.202 -0.5720  0.2453 -0.1901
15213TIP3    H167130   1.442   5.637   5.146  0.9940  0.0773 -1.1932
15213TIP3    H267131   1.562   5.571   5.211 -0.6690 -0.2689  1.7403
15214TIP3   OH267132   5.585   6.640   2.408 -0.3326  0.5527 -0.2103
15214TIP3    H167133   5.513   6.692   2.444 -0.3936 -0.1288  0.6874
15214TIP3    H267134   5.587   6.562   2.463  1.6116  0.9280  0.3098
15215TIP3   OH267135   6.733   6.615   4.842  0.1978  0.2405 -0.2341
15215TIP3    H167136   6.671   6.666   4.790  0.1277  1.4778  1.0068
15215TIP3    H267137   6.739   6.662   4.925  2.4264 -0.1167 -0.1393
15216TIP3   OH267138   1.866   4.969   1.365  0.0914 -0.5522 -0.6261
15216TIP3    H167139   1.795   5.031   1.349 -0.0490 -0.7978 -0.9462
15216TIP3    H267140   1.946   5.022   1.357 -0.0475 -0.3064 -0.4005
15217TIP3   OH267141   5.289   6.496  14.138  0.4405 -0.3129 -0.2101
15217TIP3    H167142   5.203   6.513  14.177 -0.0407 -1.0953 -0.9160
15217TIP3    H267143   5.296   6.559  14.066  0.3025 -0.4998 -0.3862
15218TIP3   OH267144   4.630   5.738  16.914 -0.0711 -0.0106 -0.1303
15218TIP3    H167145   4.642   5.793  16.837  0.1653  0.1984  0.0575
15218TIP3    H267146   4.626   5.799  16.988 -1.7472 -0.0847 -0.1061
15219TIP3   OH267147   5.084   2.557   6.361  0.1320  0.0235  0.3225
15219TIP3    H167148   5.070   2.527   6.451  0.4769  2.1260  1.1191
15219TIP3    H267149   5.000   2.594   6.334  0.1226 -0.3073 -0.1134
15220TIP3   OH267150   2.928   3.622   2.070 -0.2767 -0.3428 -1.0117
15220TIP3    H167151   2.919   3.565   2.147 -0.3573  0.2995 -0.5426
15220TIP3    H267152   2.890   3.570   1.999 -1.5095 -0.3939 -0.3563
15221TIP3   OH267153   6.275   1.153   5.668 -0.0299  0.4221  0.1434
15221TIP3    H167154   6.247   1.198   5.587 -1.5702 -1.4110 -0.4195
15221TIP3    H267155   6.370   1.154   5.664 -0.0612 -0.1656 -2.0593
15222TIP3   OH267156   0.450   0.684   3.350 -0.1684 -0.1828 -0.5929
15222TIP3    H167157   0.355   0.681   3.361  0.0838  0.4347  2.6648
15222TIP3    H267158   0.477   0.593   3.347 -0.5487 -0.5869  3.4586
15223TIP3   OH267159   0.005   6.449   5.090 -0.6392  0.7986  0.5156
15223TIP3    H167160   0.035   6.446   5.000  2.0190 -0.9008  1.3774
15223TIP3    H267161  -0.059   6.378   5.097  1.8669 -1.6083  0.7486
15224TIP3   OH267162   1.299   1.698  15.832 -0.1908  0.0619 -0.1265
15224TIP3    H167163   1.344   1.762  15.886 -1.7383  1.1326 -0.0308
15224TIP3    H267164   1.229   1.664  15.888 -0.5529 -0.3097 -0.7879
15225TIP3   OH267165   1.387   5.736   5.007 -0.0986  0.1423 -0.1321
15225TIP3    H167166   1.476   5.730   4.975 -0.3372  0.8151 -0.9474
15225TIP3    H267167   1.333   5.742   4.929 -0.7410  1.1864  0.3667
15226TIP3   OH267168   5.869   1.359   6.310 -0.2877  0.4801 -0.2380
15226TIP3    H167169   5.864   1.274   6.265 -0.4183  0.7703 -0.7798
15226TIP3    H267170   5.951   1.397   6.278  1.0324 -0.4316  1.7933
15227TIP3   OH267171   6.623   3.535   2.351 -0.2464 -0.7014  0.4032
15227TIP3    H167172   6.553   3.586   2.392  1.1430  0.0236  2.0462
15227TIP3    H267173   6.634   3.460   2.409  0.1928 -0.9078  0.0553
15228TIP3   OH267174   3.095   5.642   0.002 -0.0560 -0.0162  0.2140
15228TIP3    H167175   3.146   5.588   0.062 -0.2274  0.4452  0.7904
15228TIP3    H267176   3.026   5.680   0.057 -2.4931 -2.4308 -0.9682
15229TIP3   OH267177   1.071   5.048   5.121  0.0102 -0.2119 -0.1786
15229TIP3    H167178   1.015   4.975   5.095  0.2836  0.2066 -2.1396
15229TIP3    H267179   1.051   5.117   5.057  0.5472  1.0362  0.9540
15230TIP3   OH267180   3.848   1.735  14.142 -0.3525  0.3515 -0.1707
15230TIP3    H167181   3.811   1.668  14.086  1.4892 -0.2506 -0.7371
15230TIP3    H267182   3.831   1.704  14.231  0.8714 -1.1697 -0.4147
15231TIP3   OH267183   4.274   4.442  16.367 -0.3203  0.1402 -0.2847
15231TIP3    H167184   4.351   4.479  16.324 -0.1370  1.0351  0.7477
15231TIP3    H267185   4.282   4.471  16.458 -1.6509 -0.1275 -0.0660
15232TIP3   OH267186   3.352   3.063   5.610  0.5585 -0.2794 -0.1106
15232TIP3    H167187   3.283   3.063   5.544  0.0578 -0.5316  0.4036
15232TIP3    H267188   3.305   3.063   5.694  1.1830  0.1818  0.2441
15233TIP3   OH267189   0.217   5.260  11.770 -0.1771  0.2295 -0.3524
15233TIP3    H167190   0.162   5.287  11.696 -2.8800 -1.7460  0.7875
15233TIP3    H267191   0.162   5.271  11.847  2.4173  1.8281  1.4191
15234TIP3   OH267192   4.513   4.557  12.164  0.1320 -0.4806  0.0917
15234TIP3    H167193   4.608   4.564  12.174 -0.0765  0.9957  1.4746
15234TIP3    H267194   4.486   4.644  12.133 -0.7792 -0.8836 -0.2918
15235TIP3   OH267195   3.440   5.022  13.668 -0.5522 -0.2576  0.5054
15235TIP3    H167196   3.493   4.954  13.627 -0.5427  1.2439 -2.2534
15235TIP3    H267197   3.353   4.983  13.675 -0.2703 -0.9810  0.1321
15236TIP3   OH267198   2.404   0.131  15.505  0.9711  0.0397  0.4538
15236TIP3    H167199   2.422   0.040  15.527  0.6131  0.2174  1.5579
15236TIP3    H267200   2.405   0.134  15.409 -1.8414 -1.7522  0.2506
15237TIP3   OH267201   1.595   2.011   5.048  0.2706 -0.6841  0.0928
15237TIP3    H167202   1.671   1.953   5.043  0.9484  0.1894  0.0700
15237TIP3    H267203   1.535   1.979   4.981 -0.2030 -2.5149  1.3074
15238TIP3   OH267204   1.020   6.649  13.781  0.2589  0.2671  0.4066
15238TIP3    H167205   1.029   6.601  13.698  1.6287  1.5120 -0.2386
15238TIP3    H267206   1.093   6.617  13.835 -0.3695 -0.2229  0.9743
15239TIP3   OH267207   4.028   0.217  16.832 -0.5185  0.0562 -0.3885
15239TIP3    H167208   4.022   0.291  16.893  0.4892  0.2593 -0.5234
15239TIP3    H267209   4.107   0.170  16.858  2.6734  2.6528 -4.2022
15240TIP3   OH267210   5.630   2.577  12.298  0.3890  0.0547 -0.6917
15240TIP3    H167211   5.718   2.578  12.336  0.4983  1.7305 -0.8823
15240TIP3    H267212   5.572   2.592  12.373  0.3242 -0.3609 -0.6606
15241TIP3   OH267213   1.459   3.531  12.726 -0.3329 -0.1642  0.4341
15241TIP3    H167214   1.539   3.556  12.680 -0.2799 -0.1564  0.5298
15241TIP3    H267215   1.467   3.437  12.740 -0.1425 -0.0909  0.8231
15242TIP3   OH267216   2.468   0.089   5.167 -0.6026 -0.1982  0.0920
15242TIP3    H167217   2.547   0.120   5.211  0.9223 -3.6355  0.0513
15242TIP3    H267218   2.408   0.065   5.237 -0.3253 -0.6069  0.1888
15243TIP3   OH267219   2.037   5.904  12.885 -0.2458 -0.7093  0.3251
15243TIP3    H167220   1.971   5.938  12.945 -0.1154 -0.5417  0.3772
15243TIP3    H267221   2.002   5.821  12.855  0.1213 -1.2741  1.3905
15244TIP3   OH267222   0.914   5.019   4.768 -0.0757  0.1255  0.4362
15244TIP3    H167223   0.961   5.091   4.811 -3.1799  3.8378 -1.7444
15244TIP3    H267224   0.951   5.015   4.680 -0.4179 -0.4947  0.3119
15245TIP3   OH267225   0.724   2.410  14.940  0.0324  0.4774  0.5544
15245TIP3    H167226   0.747   2.342  15.003 -2.8173  0.8102  2.1683
15245TIP3    H267227   0.630   2.398  14.926  0.5162  0.1480 -4.1409
15246TIP3   OH267228   4.351   1.085   2.195  0.4394 -0.7982 -0.2494
15246TIP3    H167229   4.411   1.032   2.247 -0.7872 -1.4654  0.5372
15246TIP3    H267230   4.278   1.105   2.254 -0.3493 -0.4229 -1.3017
15247TIP3   OH267231   6.651   5.367  13.377 -0.3687  0.7376  0.3778
15247TIP3    H167232   6.722   5.395  13.319  0.4104 -0.9460  0.4461
15247TIP3    H267233   6.591   5.320  13.319 -1.0101  1.4202  0.4747
15248TIP3   OH267234   2.576   3.037   1.444  0.2692  0.8870 -0.3907
15248TIP3    H167235   2.491   3.051   1.403 -1.4616 -0.0955  2.5743
15248TIP3    H267236   2.568   2.951   1.485  3.6156 -0.3597 -1.9774
15249TIP3   OH267237   1.478   0.732   1.556 -0.1404  0.2024  0.0406
15249TIP3    H167238   1.472   0.758   1.648 -1.3462  1.1352 -0.2755
15249TIP3    H267239   1.549   0.786   1.521  1.9285 -1.7827  0.8927
15250TIP3   OH267240   5.047   4.193  16.470 -0.5791  0.1936  0.4293
15250TIP3    H167241   4.992   4.150  16.536 -1.7238 -1.2941 -1.3861
15250TIP3    H267242   4.989   4.253  16.424 -0.5662 -0.8545 -1.0327
15251TIP3   OH267243   0.621   6.458   1.833 -0.0534 -0.2117 -0.8238
15251TIP3    H167244   0.607   6.543   1.876 -1.6664 -0.5978 -0.5188
15251TIP3    H267245   0.627   6.396   1.905  1.6967 -0.3245 -1.0222
15252TIP3   OH267246   4.282   6.250  14.743  0.0480 -0.0361 -0.0596
15252TIP3    H167247   4.212   6.283  14.799 -1.6399 -2.9608 -0.2716
15252TIP3    H267248   4.345   6.211  14.804  0.1319  0.1513 -0.0237
15253TIP3   OH267249   5.453   4.665   2.534 -0.2872  0.3503  0.2078
15253TIP3    H167250   5.430   4.741   2.480 -1.2837  0.2810  0.5105
15253TIP3    H267251   5.438   4.694   2.624 -1.4074 -0.4206  0.2876
15254TIP3   OH267252   2.185   2.240   1.806  0.2827 -0.1832 -0.4774
15254TIP3    H167253   2.199   2.254   1.900  2.7210 -0.6180 -0.7087
15254TIP3    H267254   2.105   2.188   1.801 -0.1546  0.2551  1.3181
15255TIP3   OH267255   1.277   0.479   0.242  0.2126  0.5567 -0.3517
15255TIP3    H167256   1.231   0.448   0.320 -2.0822 -1.5248 -2.3702
15255TIP3    H267257   1.357   0.428   0.239 -0.7904 -1.0672 -0.5252
15256TIP3   OH267258   3.073   2.667   2.306  0.1375  0.2105 -0.2679
15256TIP3    H167259   3.140   2.601   2.289  0.9651  0.8877  0.3046
15256TIP3    H267260   3.027   2.676   2.223  1.1003  0.1288 -0.8240
15257TIP3   OH267261   0.563   2.187  14.632  0.4813  0.3731  0.1880
15257TIP3    H167262   0.546   2.107  14.581 -1.4554  0.2456  0.9495
15257TIP3    H267263   0.484   2.239  14.622  1.6837  2.2234 -0.2424
15258TIP3   OH267264   2.269   4.433   1.067 -0.4076 -0.2254  0.4022
15258TIP3    H167265   2.312   4.517   1.046  0.9130 -1.0627 -0.4177
15258TIP3    H267266   2.206   4.455   1.136  2.0272  0.9446  2.4251
15259TIP3   OH267267   4.959   1.931  14.871 -0.1511  0.2108  0.0685
15259TIP3    H167268   5.041   1.880  14.870  1.3159  2.3835 -1.8924
15259TIP3    H267269   4.891   1.866  14.891  1.7638 -2.1740 -0.5925
15260TIP3   OH267270   0.539   3.465   5.628 -0.0457  0.3063 -0.1496
15260TIP3    H167271   0.522   3.462   5.534 -0.9864 -0.3624  0.0205
15260TIP3    H267272   0.461   3.507   5.665 -0.2396 -0.5386  0.4394
15261TIP3   OH267273   2.144   0.132  10.995 -0.3426 -0.0074  0.0034
15261TIP3    H167274   2.170   0.045  11.025 -0.6875 -0.2053 -0.2684
15261TIP3    H267275   2.216   0.189  11.022 -0.5330 -0.2200  0.9854
15262TIP3   OH267276   1.349   1.629   5.845 -0.1016 -0.3148  0.4606
15262TIP3    H167277   1.318   1.539   5.859  0.2759 -0.7064 -0.9694
15262TIP3    H267278   1.378   1.658   5.931 -2.5379 -0.6433  1.4626
15263TIP3   OH267279   3.432   4.396   4.187 -0.3077 -0.5010  0.1216
15263TIP3    H167280   3.364   4.350   4.237 -0.9411 -0.5677 -0.7710
15263TIP3    H267281   3.383   4.458   4.133  0.4254  0.0974  0.1459
15264TIP3   OH267282   2.037   1.228   4.911 -0.4826  0.2695 -0.0024
15264TIP3    H167283   2.089   1.309   4.905 -0.2282 -0.0043 -2.3121
15264TIP3    H267284   1.964   1.242   4.850 -0.9251 -0.9164  0.2357
15265TIP3   OH267285   1.416   2.736   4.956  0.5977 -0.3137  0.1511
15265TIP3    H167286   1.423   2.789   5.036 -1.4501  1.3293 -0.6463
15265TIP3    H267287   1.339   2.681   4.972  1.7038 -1.9013  0.2753
15266TIP3   OH267288   1.676   5.919   4.608 -0.1453 -0.0730 -0.1150
15266TIP3    H167289   1.743   5.854   4.586  0.5438  0.5831  0.0124
15266TIP3    H267290   1.712   6.003   4.580 -1.0728  0.2560 -0.3798
15267TIP3   OH267291   2.035   0.057   3.355 -0.6032 -0.0049  0.3985
15267TIP3    H167292   2.055  -0.020   3.409 -1.1127 -0.1695  0.3540
15267TIP3    H267293   2.048   0.027   3.265 -1.3549 -0.2118  0.3506
15268TIP3   OH267294   2.403   1.579   2.841  0.3891  0.7562  0.6655
15268TIP3    H167295   2.391   1.491   2.807  0.3550  1.1387 -0.3472
15268TIP3    H267296   2.391   1.636   2.765 -2.0344  1.8070  1.7477
15269TIP3   OH267297   4.750   1.474  12.361 -0.3031  0.2843  0.4023
15269TIP3    H167298   4.778   1.443  12.275  0.5413  2.3702 -0.1332
15269TIP3    H267299   4.672   1.525  12.344 -1.8062 -1.5722  1.3023
15270TIP3   OH267300   6.079   4.862   2.010 -0.3262  0.2567  0.2081
15270TIP3    H167301   6.024   4.784   2.012 -0.2378  0.1773 -0.3871
15270TIP3    H267302   6.128   4.855   1.928 -0.6381  1.1509 -0.0643
15271TIP3   OH267303   0.443   6.755   4.166 -0.0991  0.2120 -0.3113
15271TIP3    H167304   0.505   6.773   4.096  1.0680  1.2628  0.9375
15271TIP3    H267305   0.372   6.817   4.153 -1.6784 -1.8680 -2.5416
15272TIP3   OH267306   2.194   5.350   0.223 -0.4927 -0.2964 -0.2129
15272TIP3    H167307   2.144   5.317   0.298  1.8348 -1.4861  0.9359
15272TIP3    H267308   2.142   5.423   0.190 -2.2771 -0.5983  1.7169
15273TIP3   OH267309   4.758   5.218  15.602 -0.0895  0.3835  0.0435
15273TIP3    H167310   4.841   5.252  15.636  0.1660  0.4146 -0.6034
15273TIP3    H267311   4.756   5.127  15.633  1.3409 -0.3906 -1.8701
15274TIP3   OH267312   3.217   2.918   3.187 -0.6020  0.8389  0.4963
15274TIP3    H167313   3.229   2.824   3.172 -1.8512  0.5976  0.8617
15274TIP3    H267314   3.171   2.948   3.108  0.2421  1.2564  0.1531
15275TIP3   OH267315   1.942   1.924  13.719  0.3350 -0.5733  0.2327
15275TIP3    H167316   1.860   1.966  13.744  1.3883  1.3026  0.7079
15275TIP3    H267317   1.925   1.887  13.633 -0.8269  0.3293  0.0479
15276TIP3   OH267318   2.514   5.737  14.164 -0.6487 -0.4098  0.0057
15276TIP3    H167319   2.453   5.794  14.118  0.1461  0.8572  0.4857
15276TIP3    H267320   2.463   5.658  14.184 -1.9057  0.3202 -0.2605
15277TIP3   OH267321   3.152   5.693  14.847 -0.4565  0.5930 -0.7220
15277TIP3    H167322   3.171   5.776  14.892  0.1609  0.5066 -0.8142
15277TIP3    H267323   3.222   5.684  14.783 -0.5957  0.0655 -0.8044
15278TIP3   OH267324   3.113   0.235   3.907  0.1949  0.1485 -0.2797
15278TIP3    H167325   3.188   0.232   3.847 -0.2904  0.0687 -0.8915
15278TIP3    H267326   3.082   0.325   3.902 -0.3288 -0.0515 -0.7597
15279TIP3   OH267327   5.422   3.316  15.412  0.3910  0.7120  0.7354
15279TIP3    H167328   5.508   3.276  15.427 -0.1049 -0.6511  0.0347
15279TIP3    H267329   5.430   3.359  15.327  0.2103  0.0928  0.4016
15280TIP3   OH267330   4.586   1.287  10.894 -0.3307  0.1828 -0.4036
15280TIP3    H167331   4.533   1.287  10.814  0.6112  2.2086 -1.0949
15280TIP3    H267332   4.662   1.232  10.873 -0.7421 -0.3830 -0.4207
15281TIP3   OH267333   6.245   1.626  16.704 -0.2307  0.3766 -0.7777
15281TIP3    H167334   6.293   1.699  16.743  0.0065 -0.0686 -0.2252
15281TIP3    H267335   6.288   1.612  16.619 -0.7203  1.3148 -1.1879
15282TIP3   OH267336   6.636   2.090   0.866  0.0551 -0.0317 -0.2072
15282TIP3    H167337   6.672   2.173   0.833  0.3749  0.4864  1.3656
15282TIP3    H267338   6.558   2.075   0.812 -0.4455  1.7036 -0.0292
15283TIP3   OH267339   0.614   6.445  11.486  0.0738 -0.3738  0.2169
15283TIP3    H167340   0.671   6.476  11.415  2.3827 -1.9788  1.2598
15283TIP3    H267341   0.529   6.485  11.466  1.6583  2.8314 -1.0208
15284TIP3   OH267342   3.396   3.478   1.185  0.2317 -0.4809 -0.3325
15284TIP3    H167343   3.373   3.396   1.142  1.5170 -1.1264  0.1499
15284TIP3    H267344   3.332   3.541   1.153 -0.3286 -1.5011 -1.2785
15285TIP3   OH267345   6.191   0.648  16.015  0.5057  0.0307  0.2229
15285TIP3    H167346   6.180   0.739  15.988  0.1116  0.1161  0.6676
15285TIP3    H267347   6.274   0.646  16.063 -1.0632  0.8698  3.1895
15286TIP3   OH267348   4.064   3.641  17.210  0.1929 -0.6454  0.5319
15286TIP3    H167349   3.970   3.637  17.197  0.2072  0.6544 -0.1137
15286TIP3    H267350   4.100   3.575  17.152 -0.2326  0.0279 -0.5233
15287TIP3   OH267351   0.287   0.437   3.061  0.1892 -0.4412 -0.0394
15287TIP3    H167352   0.210   0.486   3.091  0.7215 -1.0693  2.6037
15287TIP3    H267353   0.350   0.505   3.035 -0.9265  0.0884 -1.5284
15288TIP3   OH267354   3.395   1.244  10.994  0.0031  0.2821 -0.0521
15288TIP3    H167355   3.317   1.208  10.951  2.1965 -4.5990 -0.6252
15288TIP3    H267356   3.429   1.307  10.931 -1.1624 -0.8038 -1.8837
15289TIP3   OH267357   0.915   5.192  16.827  0.1473 -0.1926 -0.0210
15289TIP3    H167358   0.822   5.200  16.804  0.1880  0.4413  0.0301
15289TIP3    H267359   0.961   5.206  16.745  0.3196  2.6576  0.4576
15290TIP3   OH267360   6.719   4.289  11.344  0.2177  0.8417 -0.6464
15290TIP3    H167361   6.652   4.271  11.410 -0.1246  1.5582 -0.7859
15290TIP3    H267362   6.704   4.223  11.276  0.4574  0.2124 -0.1076
15291TIP3   OH267363   1.821   6.788   4.770 -0.3138 -0.6016  0.7175
15291TIP3    H167364   1.863   6.845   4.834 -1.7050 -0.2213  1.3160
15291TIP3    H267365   1.727   6.804   4.780 -0.6278 -1.4387 -0.5746
15292TIP3   OH267366   3.619   4.050  16.476  0.2223  0.0358  0.5323
15292TIP3    H167367   3.580   4.135  16.497 -0.8797 -0.3901  0.2959
15292TIP3    H267368   3.654   4.018  16.559  0.8399  0.8046  0.5824
15293TIP3   OH267369   2.433   5.251  14.973  0.2385 -0.0528  0.6929
15293TIP3    H167370   2.491   5.210  15.038  0.3519  0.1097  0.6967
15293TIP3    H267371   2.352   5.268  15.021 -0.2981 -1.4907  0.3434
15294TIP3   OH267372   1.689   5.501  11.750 -0.6563  0.1966  0.1763
15294TIP3    H167373   1.617   5.438  11.750 -1.8173  1.1915 -4.1193
15294TIP3    H267374   1.760   5.457  11.703 -0.7620  1.2895 -1.0860
15295TIP3   OH267375   5.583   1.221  12.885 -0.8258  0.1399  0.9550
15295TIP3    H167376   5.656   1.282  12.889 -0.0234 -0.7026 -0.1470
15295TIP3    H267377   5.561   1.203  12.976 -0.1754  1.0094  1.2903
15296TIP3   OH267378   3.771   4.137  12.482 -0.0133  0.2786 -0.1263
15296TIP3    H167379   3.680   4.120  12.508  0.4736 -1.7883  0.3425
15296TIP3    H267380   3.799   4.058  12.436  1.2891  1.2433 -1.0796
15297TIP3   OH267381   3.637   3.841   6.224  0.0060 -0.7589  0.4272
15297TIP3    H167382   3.563   3.898   6.207 -0.4504 -1.2679  0.6841
15297TIP3    H267383   3.617   3.800   6.309  1.1975  0.0981  1.1549
15298TIP3   OH267384   2.025   4.104   0.937 -0.4596 -0.0112 -0.6662
15298TIP3    H167385   1.959   4.037   0.915  0.1345 -0.9005  0.1701
15298TIP3    H267386   2.108   4.065   0.910 -0.2116  0.9367 -1.3326
15299TIP3   OH267387   1.915   5.754  15.455 -0.8464  0.0734 -0.4221
15299TIP3    H167388   1.893   5.740  15.363 -0.6446 -1.5176 -0.2654
15299TIP3    H267389   1.831   5.762  15.499 -1.2542 -3.8901 -0.1242
15300TIP3   OH267390   0.394   1.135  15.390 -0.2408  0.0543  0.8483
15300TIP3    H167391   0.375   1.080  15.466 -1.2584 -1.4656 -0.4313
15300TIP3    H267392   0.307   1.164  15.360  0.1824  1.0398  0.5202
15301TIP3   OH267393   0.006   5.272   5.725 -0.2582  0.5995 -0.0636
15301TIP3    H167394   0.100   5.285   5.733 -0.1916 -0.4945  1.3405
15301TIP3    H267395  -0.031   5.309   5.805 -0.7147 -1.3650  0.7065
15302TIP3   OH267396   2.781   0.449  12.424 -0.2088 -0.3264 -0.1792
15302TIP3    H167397   2.747   0.521  12.370 -1.6054 -1.2248 -0.5674
15302TIP3    H267398   2.744   0.466  12.511  0.5794  0.1423  0.0783
15303TIP3   OH267399   2.270   6.047  13.131  0.2184  0.8916  0.0958
15303TIP3    H167400   2.295   5.961  13.096 -0.0701  0.2411  1.4359
15303TIP3    H267401   2.175   6.041  13.144  0.3778  0.9622  1.3730
15304TIP3   OH267402   3.877   5.213   4.223 -0.1941 -0.3133  0.1070
15304TIP3    H167403   3.927   5.286   4.258  0.9595 -1.1595  0.3070
15304TIP3    H267404   3.793   5.218   4.267 -0.7994  1.8837 -1.1679
15305TIP3   OH267405   4.886   2.000   1.834 -1.1075  0.3008 -0.5291
15305TIP3    H167406   4.899   1.924   1.891 -0.5753  1.7861  1.4274
15305TIP3    H267407   4.956   1.993   1.769 -1.1097 -0.9116 -0.4177
15306TIP3   OH267408   2.794   6.057   0.524 -0.2424 -0.0939 -0.0776
15306TIP3    H167409   2.780   6.049   0.430  0.2515  1.0091 -0.2514
15306TIP3    H267410   2.871   6.113   0.533 -0.6517  0.3275  0.9866
15307TIP3   OH267411   2.084   1.026   3.441 -0.1418  0.1393  0.2832
15307TIP3    H167412   2.161   1.075   3.471  0.0144 -0.5287  1.0180
15307TIP3    H267413   2.017   1.046   3.506  0.3175 -1.6405  1.3913
15308TIP3   OH267414   5.244   1.367  16.442  0.2521 -0.0169 -0.3806
15308TIP3    H167415   5.187   1.293  16.463  0.0381  0.1759 -0.2680
15308TIP3    H267416   5.319   1.328  16.398 -0.3112 -0.2013 -1.1979
15309TIP3   OH267417   2.745   1.323  15.166  0.4249 -0.1824  0.0756
15309TIP3    H167418   2.811   1.268  15.208 -0.2488 -1.0400  0.0490
15309TIP3    H267419   2.732   1.396  15.226  2.2391  0.6360 -0.4680
15310TIP3   OH267420   1.210   3.481  10.899 -0.3692  0.5156  0.4479
15310TIP3    H167421   1.290   3.437  10.928  0.0220  0.6095 -0.4396
15310TIP3    H267422   1.220   3.571  10.928 -0.2421  0.4783  0.5205
15311TIP3   OH267423   1.856   2.566   2.131  0.0679 -0.3799  0.1138
15311TIP3    H167424   1.938   2.526   2.103  0.5487 -0.6255  1.7458
15311TIP3    H267425   1.788   2.507   2.098  0.6830 -1.6037  0.9563
15312TIP3   OH267426   3.526   6.185   5.908 -0.4247 -0.3873  0.4408
15312TIP3    H167427   3.546   6.189   5.815  1.9849  1.0858  0.9362
15312TIP3    H267428   3.594   6.238   5.950 -0.3683 -2.4043  3.2030
15313TIP3   OH267429   6.602   0.470  13.611 -0.2263 -0.1653  0.1613
15313TIP3    H167430   6.565   0.409  13.675 -0.3909  1.2780  1.5138
15313TIP3    H267431   6.686   0.431  13.587 -0.5632 -1.1838  0.5779
15314TIP3   OH267432   0.279   4.681  11.271  0.2257  0.3009 -0.6729
15314TIP3    H167433   0.194   4.636  11.276 -0.5711  1.7966  0.1201
15314TIP3    H267434   0.343   4.613  11.288 -0.9623 -0.4379  1.2298
15315TIP3   OH267435   3.702   1.779  12.330  0.6154 -0.1318  0.4536
15315TIP3    H167436   3.637   1.717  12.361  1.3458 -0.4448  1.4146
15315TIP3    H267437   3.652   1.844  12.281 -0.1996 -1.2769 -0.2763
15316TIP3   OH267438   6.101   6.562  12.601  0.1321  0.1734 -0.2787
15316TIP3    H167439   6.181   6.518  12.631 -1.1772 -0.7114  2.1473
15316TIP3    H267440   6.065   6.603  12.680 -1.5633  0.9929 -1.4156
15317TIP3   OH267441   4.823   5.574  13.910 -0.2130  0.1545  0.3143
15317TIP3    H167442   4.739   5.583  13.863 -0.0796 -0.4328 -0.0510
15317TIP3    H267443   4.845   5.663  13.936 -0.3474  0.4902 -0.6640
15318TIP3   OH267444   0.667   0.900  12.827 -0.4328 -0.2166  0.0665
15318TIP3    H167445   0.702   0.987  12.844  2.6191 -1.1731 -0.7157
15318TIP3    H267446   0.723   0.841  12.878 -1.2290 -1.8533 -0.8664
15319TIP3   OH267447   0.721   0.680   3.877  0.3101 -0.7734 -0.6551
15319TIP3    H167448   0.732   0.679   3.782  1.2259 -1.6076 -0.5578
15319TIP3    H267449   0.725   0.588   3.903 -1.1758 -0.6698  0.0817
15320TIP3   OH267450   2.233   1.822   2.983 -0.3816  0.2819  0.1008
15320TIP3    H167451   2.249   1.735   2.949 -1.0204 -0.2489  1.1181
15320TIP3    H267452   2.140   1.838   2.969 -0.7408 -0.0936  1.8433
15321TIP3   OH267453   5.568   4.298  14.637  0.6626  0.2388 -0.3308
15321TIP3    H167454   5.639   4.267  14.580 -0.0254 -3.0379  0.3780
15321TIP3    H267455   5.512   4.350  14.579 -0.0512 -3.0025 -2.8276
15322TIP3   OH267456   3.576   3.718  12.476  0.5406 -0.2427 -0.2757
15322TIP3    H167457   3.656   3.697  12.429  0.7631  1.2279 -0.6153
15322TIP3    H267458   3.510   3.730  12.408  0.5616  0.6408 -0.1599
15323TIP3   OH267459   6.300   0.878   4.414 -0.0075  0.0947 -0.1993
15323TIP3    H167460   6.376   0.904   4.361  0.3257 -1.9163 -0.7926
15323TIP3    H267461   6.298   0.942   4.485 -1.0775  3.5821 -3.0490
15324TIP3   OH267462   0.911   2.820  11.482  0.5809  0.3365  0.0791
15324TIP3    H167463   0.843   2.814  11.549 -0.8129  0.6403 -1.2531
15324TIP3    H267464   0.985   2.771  11.518 -1.0193 -1.6934  0.7878
15325TIP3   OH267465   0.282   3.219  14.240  1.0601 -0.0857 -0.0106
15325TIP3    H167466   0.281   3.223  14.145 -0.0262  2.2445  0.0263
15325TIP3    H267467   0.375   3.214  14.263  1.4078  0.5961 -1.1858
15326TIP3   OH267468   3.550   6.727   5.248  0.4705 -0.0470  0.0206
15326TIP3    H167469   3.484   6.793   5.229 -0.2138 -0.3560  1.1892
15326TIP3    H267470   3.631   6.763   5.214 -0.2172  0.5359 -1.0580
15327TIP3   OH267471   6.813   2.872   0.651 -0.3379 -0.0751 -0.6062
15327TIP3    H167472   6.831   2.784   0.618 -1.0452 -0.4470 -0.0431
15327TIP3    H267473   6.888   2.925   0.622  1.1299 -1.3072  0.7608
15328TIP3   OH267474   1.804   2.670   5.465 -0.0357  0.0773 -0.2464
15328TIP3    H167475   1.709   2.659   5.459 -0.0365  0.3224 -0.7102
15328TIP3    H267476   1.816   2.751   5.515 -0.1289  1.7451 -2.7634
15329TIP3   OH267477   3.191   2.327   6.252  0.0686  0.3821  0.2077
15329TIP3    H167478   3.239   2.364   6.326 -0.1116  2.1896 -0.5279
15329TIP3    H267479   3.114   2.384   6.242 -0.4386 -0.4378 -0.7446
15330TIP3   OH267480   3.124   3.143   4.408 -0.8913  0.4176 -0.1077
15330TIP3    H167481   3.172   3.146   4.326 -1.0963 -0.0063 -0.2478
15330TIP3    H267482   3.055   3.078   4.393  0.4024 -1.3042  1.0988
15331TIP3   OH267483   2.782   3.714   0.444  0.2817 -0.1529  0.4024
15331TIP3    H167484   2.839   3.648   0.483 -0.9078 -2.3313 -1.2594
15331TIP3    H267485   2.695   3.674   0.445 -0.9391  2.3377  1.2872
15332TIP3   OH267486   5.522   4.984  15.824  0.2168  0.5818 -0.1222
15332TIP3    H167487   5.459   5.038  15.871  0.7379  0.3008  0.9305
15332TIP3    H267488   5.598   5.041  15.812 -0.1009  0.8117 -1.0825
15333TIP3   OH267489   0.059   4.449   2.016 -0.0919 -0.0393 -0.2515
15333TIP3    H167490   0.153   4.443   2.000 -0.4653 -1.4038 -2.3694
15333TIP3    H267491   0.027   4.510   1.950 -0.5997  1.3803  1.2230
15334TIP3   OH267492   5.868   2.961   2.043 -0.1906 -0.0143 -0.3392
15334TIP3    H167493   5.943   2.957   2.103 -0.5684  1.1689  0.2475
15334TIP3    H267494   5.906   2.986   1.959  0.0785  0.6608 -0.0247
15335TIP3   OH267495   2.867   0.942  14.705  0.0545  0.2543  0.0042
15335TIP3    H167496   2.921   0.940  14.626  0.0820 -0.8348  0.0247
15335TIP3    H267497   2.908   1.007  14.762  1.2560 -0.4372 -0.0502
15336TIP3   OH267498   4.755   0.500   2.068  0.3447  0.6287 -0.3072
15336TIP3    H167499   4.792   0.491   1.980 -0.2513  0.7812 -0.5780
15336TIP3    H267500   4.761   0.413   2.106 -3.0381 -0.4803 -1.9546
15337TIP3   OH267501   5.968   4.958   0.939 -0.1069  0.2449  0.6268
15337TIP3    H167502   6.037   4.902   0.904 -0.6606  0.8645 -1.6107
15337TIP3    H267503   5.943   4.916   1.022  1.7247 -0.9418  0.6458
15338TIP3   OH267504   0.922   1.710   5.545  0.1004 -0.2088 -0.7927
15338TIP3    H167505   1.001   1.666   5.574  1.3835  2.6205  0.3434
15338TIP3    H267506   0.950   1.762   5.469 -1.3451 -1.2609 -2.1012
15339TIP3   OH267507   0.549   5.254   0.067 -0.3913 -0.7625  0.1910
15339TIP3    H167508   0.563   5.347   0.052 -2.6646 -0.3902  0.0755
15339TIP3    H267509   0.561   5.214  -0.019 -1.0818 -0.3459 -0.0998
15340TIP3   OH267510   2.628   5.449  12.869  0.3910  0.4629  0.4862
15340TIP3    H167511   2.550   5.455  12.923  0.4931 -1.7317  0.9650
15340TIP3    H267512   2.639   5.536  12.832 -2.8340  0.6039 -0.3921
15341TIP3   OH267513   3.410   0.818  12.327 -0.2894  0.7020 -0.2605
15341TIP3    H167514   3.331   0.801  12.379  0.0201  0.4813  0.1411
15341TIP3    H267515   3.382   0.883  12.262 -0.6748  0.9744  0.1750
15342TIP3   OH267516   2.377   6.677  14.450  0.0117 -0.1913  0.1130
15342TIP3    H167517   2.403   6.586  14.463  0.9749  0.1568  0.6867
15342TIP3    H267518   2.281   6.673  14.441 -0.0443 -1.1800  0.9065
15343TIP3   OH267519   4.352   5.332  11.639 -0.1446  0.0905  0.6948
15343TIP3    H167520   4.423   5.374  11.688 -0.2614  0.0826  0.8734
15343TIP3    H267521   4.314   5.402  11.586 -1.2663  0.5606  2.0575
15344TIP3   OH267522   1.762   6.125   4.420  0.1935  0.0987  0.5595
15344TIP3    H167523   1.748   6.117   4.326  1.4039 -3.1951  0.5341
15344TIP3    H267524   1.840   6.179   4.429  0.6769 -0.4323 -0.3912
15345TIP3   OH267525   1.073   2.520  17.230  0.5056 -0.2101  0.2880
15345TIP3    H167526   1.038   2.605  17.257 -0.5234 -0.1533 -1.0747
15345TIP3    H267527   1.003   2.457  17.252  0.9705 -0.6048  0.6527
15346TIP3   OH267528   1.143   2.119  14.579 -0.6840 -0.0437 -0.0142
15346TIP3    H167529   1.105   2.059  14.515 -3.4276  0.4352  1.0240
15346TIP3    H267530   1.077   2.187  14.590  0.4659  0.8377  2.0048
15347TIP3   OH267531   5.334   2.699   1.873  0.4420 -0.8890 -0.1270
15347TIP3    H167532   5.361   2.741   1.791 -0.6810  0.1987  0.0299
15347TIP3    H267533   5.405   2.718   1.934 -0.1161  1.0540 -0.0007
15348TIP3   OH267534   0.760   4.078   2.016 -0.1068 -0.6618 -0.3612
15348TIP3    H167535   0.719   4.010   2.069  2.0681 -0.0771  2.3050
15348TIP3    H267536   0.832   4.034   1.972  0.2162 -0.4446 -0.0512
15349TIP3   OH267537   4.082   0.976  13.239  0.4526  0.3092 -0.3056
15349TIP3    H167538   4.161   0.933  13.271  0.1796  0.0256 -0.0155
15349TIP3    H267539   4.063   1.043  13.304 -1.2095 -1.5169  1.2058
15350TIP3   OH267540   6.715   2.657  16.408 -0.2737  0.4155  0.0292
15350TIP3    H167541   6.650   2.610  16.357  0.4347 -0.4774 -0.0714
15350TIP3    H267542   6.738   2.597  16.480  0.1885  0.8493  0.2536
15351TIP3   OH267543   0.123   5.834  16.616 -0.0171 -0.1633  0.5863
15351TIP3    H167544   0.208   5.821  16.575  0.2093 -0.5559  1.1669
15351TIP3    H267545   0.096   5.747  16.644 -0.8533 -0.1181 -0.0522
15352TIP3   OH267546   1.615   3.640  11.087  0.5135 -0.6798  0.0652
15352TIP3    H167547   1.648   3.728  11.066  0.1674 -0.5572  0.0226
15352TIP3    H267548   1.572   3.651  11.172  1.8179 -1.1473  0.8047
15353TIP3   OH267549   2.011   6.729  12.006  0.4284 -0.3247 -0.4893
15353TIP3    H167550   1.943   6.697  12.065  0.6454  1.5391  0.8812
15353TIP3    H267551   2.075   6.658  12.000  0.4724 -0.5164  1.6634
15354TIP3   OH267552   4.942   6.750  15.649  0.4869 -0.3135 -0.2466
15354TIP3    H167553   4.877   6.770  15.581  0.6495 -1.4429 -0.7547
15354TIP3    H267554   4.944   6.655  15.653  1.3843 -0.2784  0.4839
15355TIP3   OH267555   0.487   2.657  12.829 -0.5930  0.5812  0.4416
15355TIP3    H167556   0.468   2.743  12.865 -2.4747  0.6198 -0.5381
15355TIP3    H267557   0.501   2.672  12.735 -2.7219 -0.3255 -0.0947
15356TIP3   OH267558   5.202   3.764   2.163  0.0783 -0.7167  0.1258
15356TIP3    H167559   5.278   3.823   2.160  0.0390 -0.5903  1.2211
15356TIP3    H267560   5.240   3.676   2.162  0.2662 -0.6520  1.0584
15357TIP3   OH267561   6.230   1.733  15.831 -0.5272  0.1091  0.2921
15357TIP3    H167562   6.292   1.780  15.887  0.5589  0.8001 -1.4148
15357TIP3    H267563   6.145   1.773  15.849 -0.2899  0.0126  1.7438
15358TIP3   OH267564   3.412   4.767   5.161 -0.1135 -0.2422  0.5478
15358TIP3    H167565   3.327   4.747   5.121 -0.3956  1.0008  0.4814
15358TIP3    H267566   3.468   4.791   5.087  0.3924 -1.3561  0.5617
15359TIP3   OH267567   1.076   1.847  12.130 -0.0134 -0.3198  0.5319
15359TIP3    H167568   1.006   1.899  12.091  0.0790 -1.1947 -0.8587
15359TIP3    H267569   1.057   1.758  12.104  0.7438 -0.7909  1.5179
15360TIP3   OH267570   0.175   0.607   3.404 -0.3476  0.1319  0.6828
15360TIP3    H167571   0.098   0.575   3.451  0.2054 -2.0736  0.2067
15360TIP3    H267572   0.151   0.597   3.311 -0.0433  0.9235  0.5088
15361TIP3   OH267573   1.048   2.935   3.518 -0.5031  0.2554  0.0381
15361TIP3    H167574   1.067   2.864   3.580  2.5793 -0.2069 -1.2928
15361TIP3    H267575   1.006   2.891   3.444  0.4859 -0.0446 -0.3556
15362TIP3   OH267576   3.204   2.976   5.095 -0.7052 -0.3985 -0.5691
15362TIP3    H167577   3.114   3.007   5.103  0.2106  2.5520 -0.6334
15362TIP3    H267578   3.237   2.975   5.184 -0.5305 -0.5734 -0.6355
15363TIP3   OH267579   6.568   5.911   3.967  0.5512  0.4467  0.1405
15363TIP3    H167580   6.542   5.873   3.883 -0.4650 -0.0708  0.6677
15363TIP3    H267581   6.549   5.843   4.031 -0.1662  1.3817  0.9683
15364TIP3   OH267582   4.065   1.159  12.231 -0.5841  0.0819  0.0534
15364TIP3    H167583   4.070   1.065  12.216 -0.3224  0.3351 -1.6337
15364TIP3    H267584   3.992   1.169  12.293 -1.4589 -1.1358 -0.7278
15365TIP3   OH267585   5.756   1.504   1.381 -0.4062  0.4783  0.2369
15365TIP3    H167586   5.752   1.598   1.399 -1.5034  0.5495 -0.2448
15365TIP3    H267587   5.763   1.463   1.467  1.0315  1.0265  0.3955
15366TIP3   OH267588   1.420   1.343  13.395 -0.0633  0.3557  0.1168
15366TIP3    H167589   1.470   1.262  13.380  0.2257  0.6691 -0.6515
15366TIP3    H267590   1.482   1.401  13.438 -0.4986 -0.0802  1.3870
15367TIP3   OH267591   2.144   0.850  12.500 -0.0203  0.0745 -0.2529
15367TIP3    H167592   2.147   0.755  12.496  0.0759  0.0949 -0.7407
15367TIP3    H267593   2.054   0.870  12.527 -0.9658 -0.0949 -2.9948
15368TIP3   OH267594   6.577   0.244  13.780  0.2404  0.4631  0.1022
15368TIP3    H167595   6.533   0.191  13.846 -0.0747  0.2488 -0.2708
15368TIP3    H267596   6.668   0.216  13.782 -0.1099 -0.8293 -0.7879
15369TIP3   OH267597   1.563   5.121  14.292  0.0821 -0.3056 -0.0940
15369TIP3    H167598   1.477   5.085  14.315 -0.0024 -0.9463 -1.3199
15369TIP3    H267599   1.625   5.055  14.323  0.0191 -0.7375 -0.8723
15370TIP3   OH267600   2.980   5.854   4.412 -0.3840  0.1218  0.2483
15370TIP3    H167601   2.896   5.817   4.440 -0.3685 -0.3269 -0.2854
15370TIP3    H267602   3.027   5.780   4.374 -0.2033  0.6173 -0.5068
15371TIP3   OH267603   0.058   0.668  14.616 -0.1354  0.2044 -0.7482
15371TIP3    H167604   0.002   0.746  14.619 -1.2331 -0.5637  1.3431
15371TIP3    H267605   0.001   0.599  14.581 -1.1026 -0.8822  2.5494
15372TIP3   OH267606   3.210   2.601   1.694 -0.1585 -0.6379 -1.1151
15372TIP3    H167607   3.279   2.660   1.664  0.6430 -0.4642  0.9092
15372TIP3    H267608   3.156   2.654   1.752 -0.2914 -1.5088 -0.4168
15373TIP3   OH267609   3.045   3.048   0.340  0.0901 -0.2035  0.3743
15373TIP3    H167610   3.059   2.957   0.369 -0.3102 -0.1445  0.7596
15373TIP3    H267611   3.052   3.100   0.419  0.3767  0.1144  0.1423
15374TIP3   OH267612   3.727   0.330   2.527  0.1021 -0.4335  0.4410
15374TIP3    H167613   3.701   0.415   2.492 -2.2715 -0.0835  2.7151
15374TIP3    H267614   3.656   0.271   2.503  1.2189 -1.5428 -0.2108
15375TIP3   OH267615   0.709   5.170   1.890 -0.2698  0.6836 -0.2480
15375TIP3    H167616   0.732   5.097   1.948 -3.1965  0.2536  0.5455
15375TIP3    H267617   0.754   5.246   1.928 -0.3427 -0.0077  1.2801
15376TIP3   OH267618   3.643   4.864  12.162 -0.0419  0.2653 -0.0570
15376TIP3    H167619   3.643   4.833  12.071  0.6218  1.8438 -0.6104
15376TIP3    H267620   3.659   4.958  12.157  0.2418  0.3583  1.7185
15377TIP3   OH267621   5.633   4.817  15.525  0.0039 -0.7166 -0.0919
15377TIP3    H167622   5.686   4.795  15.602  0.5978  0.7644 -0.0276
15377TIP3    H267623   5.650   4.911  15.511 -0.8076 -0.7490 -1.4786
15378TIP3   OH267624   2.532   1.866  14.234 -0.4271  0.0901  0.1381
15378TIP3    H167625   2.449   1.831  14.268 -0.2058  0.6456  1.3246
15378TIP3    H267626   2.511   1.896  14.146 -1.3224 -0.3700  0.1780
15379TIP3   OH267627   5.729   1.207   3.203 -0.3024 -0.6458 -0.0859
15379TIP3    H167628   5.818   1.241   3.196 -0.6219  0.1810 -0.1619
15379TIP3    H267629   5.735   1.139   3.270  0.6109 -1.3913 -0.8961
15380TIP3   OH267630   4.671   4.702  14.910 -0.2416  0.6707  0.2885
15380TIP3    H167631   4.656   4.608  14.908 -1.4351  0.8270  0.7607
15380TIP3    H267632   4.652   4.728  15.000  2.5763  1.0232  0.8453
15381TIP3   OH267633   0.441   4.210  16.456  0.1067  0.2446 -0.2080
15381TIP3    H167634   0.443   4.199  16.551 -0.4553 -1.4157 -0.3612
15381TIP3    H267635   0.386   4.139  16.424  0.8235  0.3627 -1.8374
15382TIP3   OH267636   6.755   5.198   5.465  0.3720 -0.5989  0.0944
15382TIP3    H167637   6.770   5.207   5.559 -0.1270 -1.1620  0.2391
15382TIP3    H267638   6.673   5.243   5.449  2.1225  2.5644 -0.7135
15383TIP3   OH267639   5.926   4.615   3.248  0.2082 -0.7012  0.2827
15383TIP3    H167640   6.000   4.619   3.309  0.1566  1.9645  0.2706
15383TIP3    H267641   5.966   4.601   3.162  0.5683 -0.6467  0.4382
15384TIP3   OH267642   5.347   4.888  12.521 -0.1307 -0.2758  0.1180
15384TIP3    H167643   5.420   4.827  12.511  0.9242  0.7309  1.2871
15384TIP3    H267644   5.379   4.970  12.483 -0.5526  0.2442  0.8538
15385TIP3   OH267645   4.558   3.661   0.514 -0.2738 -0.5379  0.2382
15385TIP3    H167646   4.650   3.637   0.509  0.2733  1.3232  0.4439
15385TIP3    H267647   4.519   3.627   0.434  1.2413  1.0596 -1.2768
15386TIP3   OH267648   3.469   6.223  15.895  0.8677  0.0899 -0.4533
15386TIP3    H167649   3.431   6.228  15.983  0.8849 -0.8647 -0.3833
15386TIP3    H267650   3.450   6.134  15.866  1.3404  0.2280 -1.2012
15387TIP3   OH267651   3.815   4.695   1.941  0.5584 -0.1897  0.5690
15387TIP3    H167652   3.763   4.732   1.870 -0.9810 -0.2547  1.6060
15387TIP3    H267653   3.789   4.745   2.019  3.2282  0.8186  0.8939
15388TIP3   OH267654   5.368   0.913  16.368  0.2394  0.4079  0.1963
15388TIP3    H167655   5.442   0.855  16.386  1.8363  2.6482  1.5704
15388TIP3    H267656   5.305   0.895  16.438  0.5680  0.1120  0.4161
15389TIP3   OH267657   4.644   6.501   1.736  0.3889 -0.0645 -0.9346
15389TIP3    H167658   4.656   6.461   1.822 -1.6975 -2.4140 -1.6374
15389TIP3    H267659   4.549   6.510   1.727  0.5563 -0.0315 -3.0717
15390TIP3   OH267660   5.373   6.344  15.725 -0.0099  0.2029 -0.1209
15390TIP3    H167661   5.441   6.386  15.672  1.3077  1.0436  2.1217
15390TIP3    H267662   5.311   6.413  15.745 -0.2483  0.0020 -0.1585
15391TIP3   OH267663   2.710   6.014   3.766 -0.7294 -0.6384  0.0280
15391TIP3    H167664   2.739   6.044   3.680 -1.6403  1.1829  0.2959
15391TIP3    H267665   2.734   5.922   3.769 -0.2091 -0.6132 -1.9662
15392TIP3   OH267666   4.706   0.301   2.749  0.4142 -0.3961 -0.0264
15392TIP3    H167667   4.651   0.296   2.827  1.8012 -2.2771  0.8778
15392TIP3    H267668   4.761   0.378   2.763 -1.7314  1.4264 -0.8707
15393TIP3   OH267669   0.113   5.777  11.670 -0.4302 -0.2643 -0.1676
15393TIP3    H167670   0.020   5.758  11.661 -0.7731  0.5837  1.3060
15393TIP3    H267671   0.149   5.702  11.717 -0.7017  0.1411  0.7070
15394TIP3   OH267672   4.470   4.613  16.291  0.2845 -0.3379  0.2666
15394TIP3    H167673   4.553   4.570  16.308  0.7865  0.0812 -0.9872
15394TIP3    H267674   4.485   4.664  16.212 -0.9716  0.2916  0.4020
15395TIP3   OH267675   5.748   6.568   5.204  0.5796 -0.0857  0.0838
15395TIP3    H167676   5.678   6.538   5.261  0.1725  0.6266 -0.0403
15395TIP3    H267677   5.704   6.600   5.126  1.0502  0.2921 -0.0310
15396TIP3   OH267678   5.018   0.083   0.416 -0.3360  0.0192 -0.0898
15396TIP3    H167679   4.993  -0.001   0.378 -0.4898  0.8485 -1.9376
15396TIP3    H267680   4.937   0.116   0.457 -0.3257 -0.6038  0.4576
15397TIP3   OH267681   1.104   6.811   2.329 -0.3861  0.4191  0.3304
15397TIP3    H167682   1.066   6.824   2.242  1.1224 -0.0957 -0.4396
15397TIP3    H267683   1.030   6.787   2.384 -1.3059  0.2892 -0.9154
15398TIP3   OH267684   6.723   6.232  15.731  0.9153  0.0395  0.7851
15398TIP3    H167685   6.817   6.239  15.719  0.7642  2.5071  0.5758
15398TIP3    H267686   6.687   6.234  15.642  0.5468  2.6441  0.9361
15399TIP3   OH267687   0.428   0.116   4.377  0.1906 -0.0906  0.6763
15399TIP3    H167688   0.337   0.097   4.357  0.2817  0.5212 -0.4112
15399TIP3    H267689   0.476   0.038   4.349  0.2059  0.3706 -0.6115
15400TIP3   OH267690   6.149   3.184   6.160  0.8907 -0.7352  0.0586
15400TIP3    H167691   6.132   3.278   6.166  0.0266 -0.6308 -2.5360
15400TIP3    H267692   6.069   3.142   6.191 -0.6955 -0.4236 -3.2182
15401TIP3   OH267693   1.566   2.190  14.564 -0.1615  0.2362 -0.4686
15401TIP3    H167694   1.534   2.261  14.508 -0.1009  1.0274  0.4750
15401TIP3    H267695   1.514   2.198  14.644  1.6565  0.9249  0.7125
15402TIP3   OH267696   3.186   0.762  11.922  0.0687 -0.0994 -0.1339
15402TIP3    H167697   3.105   0.812  11.930 -0.5383 -0.7292 -1.8807
15402TIP3    H267698   3.159   0.670  11.931  0.9881 -0.2132  1.8373
15403TIP3   OH267699   1.046   1.191   2.229 -0.1688  0.5332  0.4962
15403TIP3    H167700   1.130   1.164   2.193  0.5886  0.0635  2.4404
15403TIP3    H267701   1.069   1.247   2.304 -1.5999  0.6555  0.8831
15404TIP3   OH267702   0.996   4.202  11.511  0.4544 -0.0816  0.5193
15404TIP3    H167703   0.970   4.259  11.583  0.6936  0.1022  0.4580
15404TIP3    H267704   1.048   4.133  11.553  0.8477  0.1922  0.4782
15405TIP3   OH267705   4.418   2.385   1.001  0.4773  0.0248  0.0410
15405TIP3    H167706   4.348   2.445   0.974  0.7246  0.9627  1.4249
15405TIP3    H267707   4.382   2.338   1.076  0.2632 -1.6666 -1.0445
15406TIP3   OH267708   5.958   1.503  12.490  1.2325 -0.3068 -0.1742
15406TIP3    H167709   6.029   1.521  12.428 -0.5760  1.2272 -1.9193
15406TIP3    H267710   5.931   1.414  12.470  0.4827  0.2619 -1.8593
15407TIP3   OH267711   2.938   2.499   3.420 -0.1975 -0.4081  0.4495
15407TIP3    H167712   2.994   2.576   3.428 -0.9668  0.0593  1.5721
15407TIP3    H267713   2.851   2.535   3.402 -0.9744 -0.8586  2.9655
15408TIP3   OH267714   2.469   2.001   2.296  0.8737  0.2001  0.1084
15408TIP3    H167715   2.377   1.975   2.304  0.6997  0.8188  0.2080
15408TIP3    H267716   2.492   1.979   2.206  0.9264 -0.8667  0.3719
15409TIP3   OH267717   4.671   2.614  10.729  0.3887  0.3384 -0.2947
15409TIP3    H167718   4.677   2.661  10.812 -1.7289  2.0606 -1.0457
15409TIP3    H267719   4.597   2.555  10.739  0.2736  0.3756 -0.8834
15410TIP3   OH267720   1.623   0.289   3.145 -0.5877 -0.2594 -0.0528
15410TIP3    H167721   1.654   0.376   3.119  1.4204 -0.8984  0.0726
15410TIP3    H267722   1.691   0.229   3.115 -2.2725 -1.9050 -0.7998
15411TIP3   OH267723   1.610   0.870  10.902 -0.4132  0.1497  0.4209
15411TIP3    H167724   1.596   0.958  10.867  4.3171  0.2899 -1.8623
15411TIP3    H267725   1.590   0.812  10.829  1.9747 -0.1632 -0.0319
15412TIP3   OH267726   4.275   0.964   4.275 -0.4284  0.0297 -0.3395
15412TIP3    H167727   4.210   1.019   4.232 -1.0213 -0.5342 -0.1780
15412TIP3    H267728   4.297   0.897   4.210 -1.7686 -1.1836  0.4005
15413TIP3   OH267729   6.502   1.138  12.771  0.1282 -0.6781  0.2407
15413TIP3    H167730   6.444   1.064  12.755 -0.1507 -0.2447 -0.9103
15413TIP3    H267731   6.509   1.182  12.686 -0.5507  1.2028  1.0871
15414TIP3   OH267732   0.702   0.383  11.199  0.0121 -0.6937  0.0312
15414TIP3    H167733   0.647   0.306  11.182 -1.3092  0.5149 -1.4238
15414TIP3    H267734   0.728   0.374  11.291 -3.8086 -0.5995  1.2623
15415TIP3   OH267735   4.591   2.077   1.158 -0.0199 -0.0264  0.3845
15415TIP3    H167736   4.564   1.987   1.172 -1.2343  0.5233  1.8745
15415TIP3    H267737   4.631   2.077   1.071 -1.8257 -1.5906 -0.5140
15416TIP3   OH267738   1.835   2.783   3.450  0.2379  0.4220  0.4678
15416TIP3    H167739   1.843   2.826   3.535 -0.2019  0.0423  0.7112
15416TIP3    H267740   1.918   2.738   3.438  0.3102  0.4935  0.6914
15417TIP3   OH267741   5.520   5.853  11.337 -0.0175  0.1926 -0.1832
15417TIP3    H167742   5.447   5.913  11.325  0.3218  0.7600  0.4818
15417TIP3    H267743   5.480   5.766  11.338 -0.3123  0.2282 -2.9188
15418TIP3   OH267744   3.605   0.267   1.708 -0.9139  0.2699 -0.0524
15418TIP3    H167745   3.538   0.291   1.772 -0.6043  0.6955  0.1134
15418TIP3    H267746   3.568   0.292   1.623 -1.2900 -0.2169 -0.0417
15419TIP3   OH267747   1.731   6.126  12.606  0.2937  0.1192  0.6772
15419TIP3    H167748   1.734   6.032  12.587  1.1487  0.0262  1.2358
15419TIP3    H267749   1.637   6.145  12.615  0.0946 -0.6150  0.2685
15420TIP3   OH267750   1.860   4.168   2.555  0.2469  0.0646 -0.0910
15420TIP3    H167751   1.796   4.200   2.492  0.0099  0.2203  0.2282
15420TIP3    H267752   1.853   4.228   2.629  1.0885  0.3742 -0.2414
15421TIP3   OH267753   4.861   6.404   6.230  0.3469 -0.1545 -0.5394
15421TIP3    H167754   4.921   6.431   6.299 -0.7763  0.2528  0.3039
15421TIP3    H267755   4.879   6.464   6.158  0.4027  0.4923  0.0022
15422TIP3   OH267756   6.464   4.686  12.275  0.3018 -0.3644  0.2459
15422TIP3    H167757   6.541   4.631  12.289  0.8244 -0.5162 -2.5640
15422TIP3    H267758   6.493   4.774  12.299  2.1727 -0.0465 -2.7042
15423TIP3   OH267759   3.466   0.892  13.632  0.4666 -0.3102 -0.7326
15423TIP3    H167760   3.376   0.863  13.616 -0.2306  1.7619 -0.8661
15423TIP3    H267761   3.509   0.885  13.546  0.4600 -1.3698 -0.6535
15424TIP3   OH267762   2.217   0.715  15.355  0.7093 -0.1861 -0.0070
15424TIP3    H167763   2.201   0.711  15.261  0.1696 -0.1690  0.0805
15424TIP3    H267764   2.236   0.625  15.380  2.4149  0.0383 -0.3893
15425TIP3   OH267765   5.764   5.183   1.153  0.1249  0.1931  0.4796
15425TIP3    H167766   5.693   5.240   1.183  0.8935  1.9647 -0.9180
15425TIP3    H267767   5.842   5.237   1.158  0.9701 -0.8949 -0.4447
15426TIP3   OH267768   3.298   0.253   5.720  0.0332  0.1264 -0.3090
15426TIP3    H167769   3.375   0.307   5.740 -1.5518  2.1059  0.7472
15426TIP3    H267770   3.243   0.309   5.665 -1.4402 -0.5761  0.3973
15427TIP3   OH267771   6.182   4.331   3.397  0.3058 -0.0267 -0.0986
15427TIP3    H167772   6.090   4.331   3.423  0.4928 -2.8642  0.9576
15427TIP3    H267773   6.181   4.350   3.303 -1.2672  0.8615  0.0752
15428TIP3   OH267774   3.023   5.268   2.619 -0.4446  0.0124 -0.5372
15428TIP3    H167775   3.023   5.296   2.528 -1.0177  0.2591 -0.4627
15428TIP3    H267776   3.049   5.345   2.669  0.1754 -0.2053 -0.5094
15429TIP3   OH267777   2.704   0.492   3.863  0.1452 -0.4160 -0.1631
15429TIP3    H167778   2.668   0.409   3.832 -0.6534 -0.2325  0.2434
15429TIP3    H267779   2.798   0.478   3.866  0.2190 -0.5727 -2.2475
15430TIP3   OH267780   2.894   4.921   3.189 -0.5554  0.2006 -0.1039
15430TIP3    H167781   2.846   4.999   3.216 -0.8894  0.2454 -0.8020
15430TIP3    H267782   2.871   4.910   3.097  1.5778  0.8096 -0.7640
15431TIP3   OH267783   2.971   1.525   0.629  0.3907 -0.2225 -0.3280
15431TIP3    H167784   2.936   1.436   0.626  0.5284 -0.2832 -0.1284
15431TIP3    H267785   2.958   1.559   0.541  0.0325 -0.3252 -0.3158
15432TIP3   OH267786   3.906   3.395   5.210 -0.1710  0.0182  0.2552
15432TIP3    H167787   3.812   3.387   5.225 -0.1004 -1.1180  0.1674
15432TIP3    H267788   3.942   3.309   5.233  0.5822 -0.2365 -1.6960
15433TIP3   OH267789   5.245   6.387  12.351 -0.1541  0.0409 -0.4161
15433TIP3    H167790   5.151   6.383  12.369  0.0688 -4.3321  0.8977
15433TIP3    H267791   5.284   6.415  12.434 -0.1252 -3.9722  1.1222
15434TIP3   OH267792   2.714   1.707  12.577 -0.0376 -0.0500  0.1288
15434TIP3    H167793   2.785   1.669  12.524 -1.0943 -0.1734 -1.2818
15434TIP3    H267794   2.640   1.647  12.563 -0.8385  0.8568  0.3647
15435TIP3   OH267795   0.141   1.000   0.928 -0.1552 -0.1126  0.0030
15435TIP3    H167796   0.134   0.911   0.894  0.8458  0.2770 -1.2711
15435TIP3    H267797   0.235   1.016   0.936 -0.2837  1.2060 -0.8302
15436TIP3   OH267798   0.807   6.657   6.234 -0.0095 -0.2405  0.2408
15436TIP3    H167799   0.765   6.571   6.242 -1.3760  0.4387  0.7035
15436TIP3    H267800   0.810   6.673   6.139  2.6646 -1.8845 -0.0550
15437TIP3   OH267801   3.145   2.937   2.289 -0.5420 -0.0113 -0.0533
15437TIP3    H167802   3.070   2.979   2.330 -0.6387 -1.2950  1.1734
15437TIP3    H267803   3.132   2.843   2.305  1.5835 -0.2471  0.7247
15438TIP3   OH267804   4.405   6.102   0.370 -0.0432 -0.5713 -0.3910
15438TIP3    H167805   4.445   6.135   0.289  0.6856  3.4903  1.4088
15438TIP3    H267806   4.312   6.120   0.360 -0.1357 -1.1897 -0.7369
15439TIP3   OH267807   6.752   2.302  11.452  0.1044  0.2452  0.1094
15439TIP3    H167808   6.736   2.264  11.365 -0.9023  1.4356 -0.2623
15439TIP3    H267809   6.713   2.240  11.513 -2.3669  1.0362 -0.5416
15440TIP3   OH267810   6.303   3.054  13.799 -0.4265 -0.8114  0.0943
15440TIP3    H167811   6.350   3.095  13.727  0.0438 -0.1290  0.7702
15440TIP3    H267812   6.214   3.088  13.792  0.4089  2.1269  1.8782
15441TIP3   OH267813   0.506   0.928  14.713  0.0299 -0.0092  0.2008
15441TIP3    H167814   0.534   0.840  14.688  0.0665  0.2032 -0.5368
15441TIP3    H267815   0.458   0.960  14.637 -1.9592 -0.2378  1.2927
15442TIP3   OH267816   1.388   0.434  16.534  0.1295  0.4422  0.4495
15442TIP3    H167817   1.451   0.484  16.587 -0.6377 -0.0556  1.8967
15442TIP3    H267818   1.410   0.342  16.552 -1.5288  0.2446  1.6972
15443TIP3   OH267819   5.475   6.747   1.214  0.3956 -0.0851 -0.1777
15443TIP3    H167820   5.444   6.728   1.303 -0.0065 -1.0194 -0.5060
15443TIP3    H267821   5.460   6.666   1.166 -1.3039  1.0026 -1.6232
15444TIP3   OH267822   2.130   2.017   5.596  0.0392  0.0939  0.3889
15444TIP3    H167823   2.110   2.000   5.688  2.9447  0.3803  1.1675
15444TIP3    H267824   2.113   2.110   5.584 -1.3278 -0.1449  0.3088
15445TIP3   OH267825   2.910   2.487  12.948 -0.1377 -0.3349 -0.0316
15445TIP3    H167826   2.883   2.414  13.004  0.8994 -0.6311  0.1143
15445TIP3    H267827   2.871   2.467  12.863  0.3196 -1.2062 -0.0597
15446TIP3   OH267828   5.439   6.385  16.777  0.6106  0.2452 -0.4738
15446TIP3    H167829   5.376   6.425  16.837 -0.0406  0.3230 -1.1904
15446TIP3    H267830   5.506   6.346  16.834 -1.5014 -2.3041  0.4820
15447TIP3   OH267831   0.017   5.166   0.106 -0.3029  0.0235  0.3786
15447TIP3    H167832   0.043   5.203   0.022 -4.3908  0.0251 -1.1008
15447TIP3    H267833   0.049   5.076   0.104 -0.0396  0.1311 -1.0328
15448TIP3   OH267834   6.094   2.316  15.635 -0.3657 -0.1418 -0.4582
15448TIP3    H167835   6.155   2.243  15.647  0.1926  0.3982  0.1049
15448TIP3    H267836   6.106   2.370  15.713 -1.4771  0.0504 -0.3965
15449TIP3   OH267837   2.363   4.083  16.992 -0.1475  0.2695  0.4784
15449TIP3    H167838   2.323   4.148  17.050  0.0141 -0.0989  1.0007
15449TIP3    H267839   2.295   4.064  16.928  0.2115  1.8910 -0.4498
15450TIP3   OH267840   5.044   6.029  12.061  0.2799  0.3867  0.3789
15450TIP3    H167841   4.949   6.039  12.057  0.2761  1.3066  1.9844
15450TIP3    H267842   5.058   5.935  12.076 -0.2930  0.0607 -0.9399
15451TIP3   OH267843   6.049   2.786  16.831  0.0176  0.0246  0.2854
15451TIP3    H167844   6.087   2.707  16.792  0.2050 -0.8534  2.1160
15451TIP3    H267845   5.981   2.753  16.889  0.8502  1.0882  1.9336
15452TIP3   OH267846   6.630   0.984  12.981  1.0361 -0.2363  0.1112
15452TIP3    H167847   6.636   0.993  13.076  0.0809  0.3403  0.1346
15452TIP3    H267848   6.570   1.054  12.955  0.0435 -1.3610 -0.7273
15453TIP3   OH267849   6.116   5.899  11.714  0.3181 -0.5151  1.1821
15453TIP3    H167850   6.056   5.971  11.729  0.6928  0.1524 -0.2928
15453TIP3    H267851   6.181   5.934  11.652  0.4029 -2.1489  0.2860
15454TIP3   OH267852   3.653   3.807  14.671  0.6589 -0.4428 -0.3981
15454TIP3    H167853   3.586   3.743  14.647 -0.1578  0.7784 -1.5400
15454TIP3    H267854   3.604   3.888  14.684  1.9529  0.6466 -1.9112
15455TIP3   OH267855   5.611   3.518  11.940 -0.7591 -0.5450  0.1505
15455TIP3    H167856   5.668   3.443  11.950  0.4727  0.5864  2.1252
15455TIP3    H267857   5.535   3.499  11.994  0.9971  0.8869  3.3763
15456TIP3   OH267858   1.743   1.179  12.946 -0.4245  0.3324  0.0606
15456TIP3    H167859   1.774   1.237  12.876 -1.8209  0.1627 -0.7460
15456TIP3    H267860   1.650   1.201  12.955 -0.4502 -0.2203  1.3106
15457TIP3   OH267861   4.412   1.589  11.878  0.2700  0.2714 -0.2991
15457TIP3    H167862   4.351   1.619  11.811 -0.1629 -0.6226 -0.3134
15457TIP3    H267863   4.476   1.536  11.831  0.0616 -0.2197 -0.0355
15458TIP3   OH267864   0.512   6.075  14.179 -0.1698 -0.0642  0.3927
15458TIP3    H167865   0.462   6.018  14.120  0.1664 -0.5653  0.5864
15458TIP3    H267866   0.470   6.064  14.265 -0.3168  0.2492  0.3654
15459TIP3   OH267867   0.640   5.699   4.684  0.0789  0.6424 -0.7029
15459TIP3    H167868   0.726   5.739   4.695 -0.5060  1.8511 -0.2966
15459TIP3    H267869   0.607   5.736   4.602 -0.1835  0.4381 -0.6913
15460TIP3   OH267870   5.310   6.023  11.290  0.6751  0.5517 -1.3683
15460TIP3    H167871   5.269   5.966  11.355  1.9191  3.0094  1.9126
15460TIP3    H267872   5.238   6.060  11.240 -0.6504  0.6412  0.5266
15461TIP3   OH267873   2.187   2.431  12.613  0.6267 -0.1612  0.1855
15461TIP3    H167874   2.162   2.501  12.553 -2.9994 -0.4889  1.1001
15461TIP3    H267875   2.219   2.477  12.691  0.8910  0.3754 -0.2312
15462TIP3   OH267876   3.794   3.307   2.041  0.0218 -0.3443  0.0646
15462TIP3    H167877   3.792   3.213   2.058  1.6422 -0.2569  0.8766
15462TIP3    H267878   3.702   3.331   2.028 -0.5864 -1.7342  1.5011
15463TIP3   OH267879   3.140   6.003  14.191 -0.4657 -0.6604 -0.0233
15463TIP3    H167880   3.206   5.993  14.260 -0.7268  0.7150  0.4615
15463TIP3    H267881   3.191   5.996  14.110  0.1772 -0.3281  0.3349
15464TIP3   OH267882   2.562   1.917   2.044 -0.0095  0.0497  0.2559
15464TIP3    H167883   2.601   1.960   1.968  1.5228 -2.1404 -0.2966
15464TIP3    H267884   2.637   1.886   2.095 -1.0106 -1.8271  0.6593
15465TIP3   OH267885   2.407   2.802   5.079  0.3149  0.4051  0.0711
15465TIP3    H167886   2.433   2.713   5.058  1.5965  1.1437 -1.6494
15465TIP3    H267887   2.312   2.803   5.066  0.4669 -0.3789 -1.2774
15466TIP3   OH267888   6.740   0.631   6.066  0.4209 -0.0976 -0.2792
15466TIP3    H167889   6.755   0.670   6.151  1.7950  1.0030 -0.9912
15466TIP3    H267890   6.663   0.575   6.078  1.7817 -1.5861  2.1873
15467TIP3   OH267891   5.302   0.532   5.914 -0.7679 -0.5045 -0.4768
15467TIP3    H167892   5.331   0.560   6.001  0.8307 -0.2231 -1.0746
15467TIP3    H267893   5.366   0.569   5.854 -1.0252 -1.8963 -1.6704
15468TIP3   OH267894   2.324   1.051  12.586  0.1143 -0.3833  0.6075
15468TIP3    H167895   2.272   0.976  12.559  0.0761  0.6013 -2.3767
15468TIP3    H267896   2.409   1.039  12.546 -0.1382  1.4975 -0.6292
15469TIP3   OH267897   0.812   3.144   6.295 -0.0796 -0.0590  0.0249
15469TIP3    H167898   0.865   3.151   6.216 -0.2132  0.1057 -0.0471
15469TIP3    H267899   0.873   3.165   6.366  0.3918 -1.4750  0.0819
15470TIP3   OH267900   5.080   5.040  12.101  0.4294 -0.3449  0.5570
15470TIP3    H167901   5.138   4.990  12.042  1.0817  1.7789 -0.7200
15470TIP3    H267902   5.135   5.060  12.177  0.2254 -1.3510  0.9864
15471TIP3   OH267903   5.610   6.174   1.910 -0.9358 -0.8241  0.5584
15471TIP3    H167904   5.587   6.086   1.878 -0.5919 -0.2210 -1.4760
15471TIP3    H267905   5.695   6.161   1.953 -0.0326 -1.2569 -1.2301
15472TIP3   OH267906   4.183   0.761  12.527  0.3035 -0.1721  0.0654
15472TIP3    H167907   4.149   0.672  12.535  0.7680 -0.4529 -0.9503
15472TIP3    H267908   4.278   0.751  12.528  0.4120  0.5426  2.2062
15473TIP3   OH267909   0.032   1.776   1.776  0.1953  0.1404  0.0956
15473TIP3    H167910   0.071   1.836   1.712 -0.1160  0.5619  0.2958
15473TIP3    H267911  -0.054   1.814   1.795 -0.8913 -1.4638 -1.3111
15474TIP3   OH267912   0.353   0.216  14.207 -0.2342 -0.6002  0.8753
15474TIP3    H167913   0.447   0.195  14.213  0.1025  0.7106  0.4454
15474TIP3    H267914   0.313   0.163  14.276  0.4788 -2.9878 -0.4285
15475TIP3   OH267915   6.505   3.544   5.528  0.0065  0.0637  0.2068
15475TIP3    H167916   6.544   3.603   5.463 -0.1443 -2.6070 -2.4937
15475TIP3    H267917   6.414   3.534   5.499  0.2933 -2.2379 -0.0929
15476TIP3   OH267918   0.130   0.843   2.357 -0.0197 -0.1308  0.0130
15476TIP3    H167919   0.116   0.749   2.348  1.9615 -0.4999  0.3188
15476TIP3    H267920   0.179   0.867   2.278 -1.9072  1.0136 -0.8974
15477TIP3   OH267921   0.467   3.701  15.979  0.0988  0.4739 -0.0369
15477TIP3    H167922   0.531   3.646  16.025 -1.9588  1.0657  3.9441
15477TIP3    H267923   0.520   3.768  15.936  2.2826 -0.4090  1.1258
15478TIP3   OH267924   5.037   2.238  15.740  0.1476  0.1735  0.5573
15478TIP3    H167925   5.100   2.298  15.779 -1.5962  2.3514  0.2552
15478TIP3    H267926   4.990   2.200  15.815  1.2012 -0.7894  0.7476
15479TIP3   OH267927   6.131   2.986   5.938 -0.4565  0.0811 -0.6551
15479TIP3    H167928   6.161   2.935   6.013 -1.6913 -0.0739 -0.2436
15479TIP3    H267929   6.156   3.076   5.959  2.2985 -0.3456 -1.6730
15480TIP3   OH267930   5.378   6.767   0.813  0.1893  0.1147 -0.7033
15480TIP3    H167931   5.369   6.685   0.860 -0.5745  0.6142  0.0514
15480TIP3    H267932   5.303   6.820   0.841 -0.3485  0.4096 -2.5537
15481TIP3   OH267933   4.760   1.886   4.981 -0.7693  0.1116  0.0910
15481TIP3    H167934   4.715   1.814   5.025 -2.8239  1.7775  0.8806
15481TIP3    H267935   4.753   1.959   5.042  0.9895  1.1073 -0.8124
15482TIP3   OH267936   5.366   2.114  13.282  0.3934  0.9385 -0.1505
15482TIP3    H167937   5.374   2.069  13.198 -0.9071  0.8234 -0.2298
15482TIP3    H267938   5.397   2.050  13.346  0.5505  0.6981 -0.4617
15483TIP3   OH267939   5.331   4.490  13.804  0.0831  0.7831 -0.0693
15483TIP3    H167940   5.248   4.520  13.768 -0.7161 -1.0999  0.0824
15483TIP3    H267941   5.393   4.560  13.784 -1.0668  1.2931 -2.0726
15484TIP3   OH267942   4.771   0.073   2.073  0.5608 -0.9528  0.6855
15484TIP3    H167943   4.761   0.054   1.980  0.1998  0.9158  0.3056
15484TIP3    H267944   4.721   0.004   2.117 -1.8224 -0.2021 -0.6478
15485TIP3   OH267945   2.907   2.768  11.157 -0.3744  0.0138 -0.2389
15485TIP3    H167946   2.920   2.739  11.247  0.3185  2.8046  0.6737
15485TIP3    H267947   2.988   2.743  11.111 -1.1734 -2.3864 -0.4409
15486TIP3   OH267948   5.664   6.353   4.107  0.1544  0.4967 -0.5330
15486TIP3    H167949   5.705   6.425   4.058 -1.4555  1.6739 -0.2265
15486TIP3    H267950   5.733   6.322   4.166  0.0041  4.1599  1.8783
15487TIP3   OH267951   2.055   4.599   0.324 -0.3222 -0.2579  0.1041
15487TIP3    H167952   2.109   4.524   0.347  1.3425  1.1187  0.9257
15487TIP3    H267953   2.069   4.661   0.395 -1.4766  0.9294 -0.6599
15488TIP3   OH267954   6.595   5.719  15.916  0.0699 -0.5916 -0.1969
15488TIP3    H167955   6.569   5.792  15.972 -1.4982 -0.6744 -0.7698
15488TIP3    H267956   6.683   5.741  15.887 -0.0527  0.6451  0.3250
15489TIP3   OH267957   5.432   1.316   1.618  0.5430  0.2334 -0.7008
15489TIP3    H167958   5.460   1.333   1.708  0.1394 -0.1401 -0.4992
15489TIP3    H267959   5.442   1.222   1.608 -0.6092  0.0918 -0.6247
15490TIP3   OH267960   0.041   2.089   0.643  0.5506 -0.4948 -0.5731
15490TIP3    H167961   0.110   2.112   0.580  0.9384  0.0764  0.0511
15490TIP3    H267962   0.088   2.054   0.718  0.3325  1.6175  0.6192
15491TIP3   OH267963   3.375   5.284  16.101  0.2982 -0.8042 -0.1936
15491TIP3    H167964   3.437   5.233  16.048  1.6204  0.0947  0.4293
15491TIP3    H267965   3.325   5.218  16.149  1.3025 -1.5568 -0.1308
15492TIP3   OH267966   6.477   1.279  15.805  0.4944  0.1344 -0.1986
15492TIP3    H167967   6.521   1.332  15.871  1.1042  0.9219 -1.2072
15492TIP3    H267968   6.494   1.189  15.832  0.7980  0.4366  0.6636
15493TIP3   OH267969   3.107   6.489  12.226 -0.2344  0.3925 -0.2510
15493TIP3    H167970   3.074   6.439  12.302  0.1525  0.8968  0.2546
15493TIP3    H267971   3.200   6.499  12.243 -0.3409  1.4603 -0.2552
15494TIP3   OH267972   0.223   5.402  12.820 -0.0086  0.0243 -0.3989
15494TIP3    H167973   0.312   5.364  12.824  0.3032  0.6100 -1.3643
15494TIP3    H267974   0.183   5.378  12.903  0.6771 -1.1962 -0.3889
15495TIP3   OH267975   6.362   4.121  14.051  0.2934 -0.3554  0.0904
15495TIP3    H167976   6.456   4.109  14.042  0.9043  1.3655  2.8461
15495TIP3    H267977   6.352   4.213  14.077 -2.3751  0.1719 -2.2923
15496TIP3   OH267978   4.353   1.814   2.474  0.0120  0.2529 -0.5593
15496TIP3    H167979   4.318   1.775   2.394 -0.2509 -1.4406  0.3267
15496TIP3    H267980   4.275   1.844   2.522  0.0037 -0.4911 -0.0896
15497TIP3   OH267981   0.232   1.295   5.630 -0.5713  0.2142 -0.5823
15497TIP3    H167982   0.273   1.360   5.687 -3.8578  0.3807  1.8331
15497TIP3    H267983   0.160   1.342   5.588 -0.0399 -0.7104 -2.6440
15498TIP3   OH267984   5.599   2.708   4.995 -0.0130 -0.1918 -0.1229
15498TIP3    H167985   5.655   2.680   4.922 -0.7760  1.0983 -1.2474
15498TIP3    H267986   5.524   2.650   4.991 -0.0538 -0.1258 -0.3860
15499TIP3   OH267987   3.903   6.797   4.359  0.1775 -0.0673 -0.0971
15499TIP3    H167988   3.812   6.826   4.365  0.1258 -0.0028 -1.1046
15499TIP3    H267989   3.951   6.857   4.417 -0.2564  0.6494 -0.4563
15500TIP3   OH267990   6.022   4.053   0.576 -0.5326 -0.0261 -0.6291
15500TIP3    H167991   5.980   4.016   0.654  1.1423 -0.1230  0.2843
15500TIP3    H267992   6.068   3.979   0.537  0.8060  0.5484 -0.1901
15501TIP3   OH267993   3.030   0.672   2.559  0.0877 -0.6376  0.5838
15501TIP3    H167994   2.942   0.648   2.589  0.5476 -0.2481  2.3517
15501TIP3    H267995   3.019   0.693   2.466 -2.0164  1.0513  1.1349
15502TIP3   OH267996   1.745   3.240  15.563  0.3993 -0.0706  0.7007
15502TIP3    H167997   1.744   3.334  15.579  0.7994  0.3927 -1.5853
15502TIP3    H267998   1.838   3.218  15.558  0.3129 -0.7051  1.7711
15503TIP3   OH267999   2.918   4.964   0.462 -0.3758  0.2778 -0.5027
15503TIP3    H168000   2.973   5.023   0.411  1.7365 -1.3463 -0.2364
15503TIP3    H268001   2.887   5.018   0.535  0.1578  1.4683 -1.1236
15504TIP3   OH268002   0.861   6.671   0.150 -0.0393  0.3198 -0.4488
15504TIP3    H168003   0.925   6.709   0.090 -0.0455  0.5677 -0.3004
15504TIP3    H268004   0.776   6.685   0.107 -0.2533  2.3061  0.5164
15505TIP3   OH268005   4.565   2.381   5.016 -0.5818 -0.3041 -0.2463
15505TIP3    H168006   4.587   2.336   5.097  0.0070 -0.9364 -0.7449
15505TIP3    H268007   4.639   2.440   5.000 -0.5921 -0.3421 -0.4402
15506TIP3   OH268008   0.736   5.700  11.967 -0.4533 -1.0002 -0.7801
15506TIP3    H168009   0.736   5.742  12.053 -0.2969  1.0821 -1.7315
15506TIP3    H268010   0.654   5.728  11.927  0.1296 -0.7255 -1.8320
15507TIP3   OH268011   2.674   1.792  15.742 -0.5735 -0.1245 -0.1360
15507TIP3    H168012   2.667   1.859  15.810 -0.1223  0.0717 -0.2806
15507TIP3    H268013   2.761   1.805  15.704 -0.2602 -1.1325  0.1913
15508TIP3   OH268014   1.231   4.366   3.391  0.0524  0.2408  0.3998
15508TIP3    H168015   1.159   4.390   3.449 -1.2270  2.7771 -1.9934
15508TIP3    H268016   1.283   4.445   3.383  0.1796 -0.0015 -1.8168
15509TIP3   OH268017   2.464   4.104  11.717 -0.2827 -0.2970 -0.0804
15509TIP3    H168018   2.430   4.051  11.645  1.0164 -0.7091 -0.4143
15509TIP3    H268019   2.542   4.145  11.681  0.5239 -0.7068  1.1648
15510TIP3   OH268020   4.005   2.976   0.792 -0.2618  0.5881 -0.1954
15510TIP3    H168021   4.088   2.983   0.744 -0.4778  1.5753 -0.4456
15510TIP3    H268022   3.995   3.061   0.835 -0.4835 -0.0039  0.9563
15511TIP3   OH268023   6.760   6.648  13.013  0.0751 -0.0666 -0.0397
15511TIP3    H168024   6.803   6.578  12.964  1.2052  0.5309  0.0583
15511TIP3    H268025   6.823   6.720  13.011 -0.9708  0.8639  0.0632
15512TIP3   OH268026   0.290   4.510   3.173  0.4750 -0.0117  1.0698
15512TIP3    H168027   0.368   4.499   3.228  2.9232 -0.7816 -2.2319
15512TIP3    H268028   0.267   4.420   3.147  0.1338  0.3866 -0.0555
15513TIP3   OH268029   3.318   0.877  16.235 -0.4378  0.7229  0.4442
15513TIP3    H168030   3.413   0.872  16.241 -0.4940  0.7824  1.5783
15513TIP3    H268031   3.301   0.903  16.145  0.5826 -0.1484 -0.0200
15514TIP3   OH268032   5.997   2.555   2.005  0.1803 -0.0298  0.4896
15514TIP3    H168033   6.075   2.579   2.055 -0.4989 -0.0374  1.5942
15514TIP3    H268034   5.924   2.575   2.064 -0.5690 -1.8373  0.2373
15515TIP3   OH268035   0.974   2.781   1.560 -0.2780 -0.1879 -0.2719
15515TIP3    H168036   1.005   2.823   1.479 -1.0786  2.9445  0.8845
15515TIP3    H268037   1.054   2.762   1.609  0.1402 -0.2617 -0.9682
15516TIP3   OH268038   0.884   0.998   4.588 -0.2501 -0.3908  0.2929
15516TIP3    H168039   0.919   1.028   4.505 -2.0039 -1.3488 -0.8454
15516TIP3    H268040   0.955   0.947   4.627  0.9763  0.9879 -0.0570
15517TIP3   OH268041   6.445   0.317   6.463  0.3003  0.1429  0.3082
15517TIP3    H168042   6.444   0.264   6.383 -0.5281 -0.1468  0.5026
15517TIP3    H268043   6.385   0.389   6.445 -0.1952 -0.1351  0.8019
15518TIP3   OH268044   0.169   5.434  16.877 -0.5500  0.1978 -0.2189
15518TIP3    H168045   0.145   5.424  16.969 -1.8705 -1.6265 -0.6803
15518TIP3    H268046   0.085   5.442  16.832  0.0605  0.7318 -1.2937
15519TIP3   OH268047   5.594   3.406  12.361 -0.3397 -0.5725 -0.0400
15519TIP3    H168048   5.683   3.432  12.338 -0.4885  0.7113  0.7799
15519TIP3    H268049   5.602   3.364  12.447 -0.6071  0.0969  0.3151
15520TIP3   OH268050   3.361   2.450   0.339 -0.3869  0.4992  0.1452
15520TIP3    H168051   3.334   2.382   0.401  1.9767 -1.1734 -0.5201
15520TIP3    H268052   3.280   2.472   0.292 -1.6065 -0.4378  1.6886
15521TIP3   OH268053   2.174   0.360   4.230  0.3462  0.4614 -0.1219
15521TIP3    H168054   2.263   0.326   4.222  1.3165  3.0341 -1.7150
15521TIP3    H268055   2.137   0.314   4.305  1.1419 -4.4464 -2.3681
15522TIP3   OH268056   1.100   1.580   2.168  0.0658 -0.1890 -0.7769
15522TIP3    H168057   1.191   1.556   2.184  0.0493  0.9736  1.5394
15522TIP3    H268058   1.063   1.505   2.123  1.8108 -1.3039 -0.4511
15523TIP3   OH268059   3.375   3.584   5.079  0.1943  0.1627 -0.1664
15523TIP3    H168060   3.470   3.595   5.071  0.0622  2.0565  0.5370
15523TIP3    H268061   3.339   3.642   5.013 -0.4974 -0.0604  0.0123
15524TIP3   OH268062   1.177   4.311  12.822 -0.2224  0.0043 -0.4057
15524TIP3    H168063   1.150   4.264  12.743 -0.5840  1.8593 -1.4687
15524TIP3    H268064   1.272   4.319  12.815 -0.3650  1.2124 -1.3335
15525TIP3   OH268065   5.284   1.424  13.301 -0.2650  0.5764  0.0890
15525TIP3    H168066   5.352   1.415  13.234 -0.8731 -0.4154 -0.4128
15525TIP3    H268067   5.272   1.519  13.309  0.6981  0.7403 -0.3047
15526TIP3   OH268068   4.910   1.057   2.983  0.0298 -0.0773  0.4781
15526TIP3    H168069   4.834   1.092   3.029 -0.4606 -0.6002  0.0921
15526TIP3    H268070   4.936   1.126   2.922  2.0651  1.5601  2.9696
15527TIP3   OH268071   4.854   0.411  16.069 -0.4002  0.1519 -0.3763
15527TIP3    H168072   4.784   0.458  16.116 -2.2150 -3.0068  0.3449
15527TIP3    H268073   4.819   0.398  15.981 -1.7753 -3.1253  0.5081
15528TIP3   OH268074   3.979   6.623   0.776 -0.0397 -0.3926 -0.3560
15528TIP3    H168075   3.999   6.546   0.829  0.7549  0.1914  0.2165
15528TIP3    H268076   3.942   6.686   0.838  0.5900  0.1769 -0.5515
15529TIP3   OH268077   3.166   5.022  15.004 -0.2548  0.5534 -0.0614
15529TIP3    H168078   3.126   5.106  14.981 -0.9697  0.1165 -0.4586
15529TIP3    H268079   3.092   4.961  15.007  0.4118 -0.3354 -1.0850
15530TIP3   OH268080   5.860   4.904   1.190  0.0468 -0.1485 -0.1225
15530TIP3    H168081   5.815   4.857   1.260  0.6162 -1.1636 -0.4242
15530TIP3    H268082   5.826   4.993   1.196  0.5486 -0.0367  1.8588
15531TIP3   OH268083   3.390   1.267   5.906  0.6464 -0.3724 -0.2800
15531TIP3    H168084   3.445   1.211   5.852 -1.7320 -3.0294 -0.1740
15531TIP3    H268085   3.398   1.231   5.994  0.1810  0.3724  0.0801
15532TIP3   OH268086   4.500   3.573  16.519  0.2682 -0.2507 -0.2860
15532TIP3    H168087   4.500   3.481  16.490 -0.2383 -0.6144  0.8388
15532TIP3    H268088   4.408   3.593  16.536  0.4859  0.1522  0.4393
15533TIP3   OH268089   4.030   2.197   5.789  0.2731  0.0594  0.4043
15533TIP3    H168090   4.021   2.253   5.866  0.6361  1.6189 -0.6389
15533TIP3    H268091   3.942   2.165   5.772 -0.0899  0.9424  0.5753
15534TIP3   OH268092   4.761   3.938   1.170 -0.3759 -0.0966 -0.4937
15534TIP3    H168093   4.724   3.906   1.088  0.7138 -2.4269 -0.1692
15534TIP3    H268094   4.831   3.998   1.143 -2.0658  1.6582 -1.1541
15535TIP3   OH268095   4.088   4.213   2.857 -0.4554 -0.1559 -0.4349
15535TIP3    H168096   4.040   4.132   2.839 -1.0578 -0.0495  0.6068
15535TIP3    H268097   4.180   4.187   2.855 -0.6619 -1.1821  1.1520
15536TIP3   OH268098   0.150   3.477  11.792 -0.0126  0.3362  0.0119
15536TIP3    H168099   0.175   3.440  11.877  0.5694  0.3496 -0.1569
15536TIP3    H268100   0.081   3.540  11.814  1.3260  1.6064  0.6748
15537TIP3   OH268101   4.461   5.087  14.147 -0.0946 -0.8370 -0.4254
15537TIP3    H168102   4.536   5.124  14.101  0.4075 -0.7387  0.4541
15537TIP3    H268103   4.498   5.051  14.228 -1.1850  0.5635  0.7572
15538TIP3   OH268104   1.444   5.421   3.444 -0.7295  0.5898 -0.2851
15538TIP3    H168105   1.356   5.459   3.450 -1.2701 -0.6870  0.0932
15538TIP3    H268106   1.430   5.335   3.405  0.6868  1.4767 -3.0182
15539TIP3   OH268107   4.706   5.343   4.850  0.6518  0.4486  0.0254
15539TIP3    H168108   4.670   5.337   4.938  2.6883  0.7754  0.9259
15539TIP3    H268109   4.800   5.339   4.862  0.9657 -0.5525 -2.2447
15540TIP3   OH268110   5.224   1.069  13.227  0.0102 -0.4910 -0.5637
15540TIP3    H168111   5.165   1.043  13.156 -1.9597  0.3303  0.6595
15540TIP3    H268112   5.243   0.988  13.274 -2.1044 -0.5317  0.3652
15541TIP3   OH268113   2.323   4.074   4.099 -0.0411  0.1195  0.0251
15541TIP3    H168114   2.303   4.016   4.025  1.6158 -0.3467 -0.0929
15541TIP3    H268115   2.401   4.122   4.072 -0.4569  1.2589  0.7814
15542TIP3   OH268116   4.603   1.871   3.621  0.5805 -0.0630  0.4407
15542TIP3    H168117   4.658   1.932   3.571 -1.4716  2.3696  0.9237
15542TIP3    H268118   4.663   1.801   3.648  3.0587  1.6122 -0.3416
15543TIP3   OH268119   6.137   1.312   6.157  0.5290  0.0018 -0.1536
15543TIP3    H168120   6.076   1.328   6.086  0.3747  1.0424  0.2020
15543TIP3    H268121   6.175   1.226   6.137 -1.0698 -0.6812 -0.3428
15544TIP3   OH268122   4.539   6.299   5.163  0.5451 -0.5033 -0.6271
15544TIP3    H168123   4.476   6.227   5.172  0.8399 -0.7411 -0.4662
15544TIP3    H268124   4.596   6.290   5.240 -0.2861  0.7468  0.1813
15545TIP3   OH268125   6.567   3.172   5.499 -0.1251 -0.4612 -0.0040
15545TIP3    H168126   6.577   3.077   5.502  2.0884 -0.2712  0.5204
15545TIP3    H268127   6.473   3.187   5.490 -0.5162 -2.6873  0.0290
15546TIP3   OH268128   6.546   1.503   1.061  0.4196 -0.0317  0.3124
15546TIP3    H168129   6.482   1.454   1.008 -0.0661 -0.1972  1.0400
15546TIP3    H268130   6.494   1.570   1.105  1.0356  0.9388 -0.4199
15547TIP3   OH268131   0.813   1.327  13.837 -0.0668 -0.7286 -0.5666
15547TIP3    H168132   0.906   1.313  13.819  0.3319  0.3359  0.5213
15547TIP3    H268133   0.776   1.239  13.844  0.9204 -1.1666 -0.6915
15548TIP3   OH268134   0.556   5.443   4.488 -0.0319  0.4923 -0.2605
15548TIP3    H168135   0.612   5.371   4.518  0.8041  0.3159 -2.1086
15548TIP3    H268136   0.586   5.519   4.537 -2.2428 -0.6068  3.2852
15549TIP3   OH268137   1.622   4.362  11.458 -0.2121 -0.1446 -0.1544
15549TIP3    H168138   1.691   4.428  11.454 -0.1148 -0.0251  2.1522
15549TIP3    H268139   1.541   4.410  11.436  0.2371 -0.0345 -1.7071
15550TIP3   OH268140   6.418   4.273   1.650 -0.1170  0.2787  0.0305
15550TIP3    H168141   6.335   4.228   1.640 -0.7697  1.8151 -2.3714
15550TIP3    H268142   6.439   4.264   1.743 -2.6210 -0.7193  0.5881
15551TIP3   OH268143   2.303   4.292   0.186 -0.4982  0.2996  0.0518
15551TIP3    H168144   2.281   4.326   0.273  0.8511  0.7730  0.2412
15551TIP3    H268145   2.255   4.210   0.180 -0.9603  0.4760  1.0775
15552TIP3   OH268146   3.545   3.452  16.181  0.3159  0.1104 -0.3254
15552TIP3    H168147   3.478   3.385  16.194  0.6249 -0.6002 -2.1103
15552TIP3    H268148   3.622   3.404  16.152  0.2227  1.2852 -2.7165
15553TIP3   OH268149   3.450   6.087   0.689  0.3157 -0.4538 -0.0943
15553TIP3    H168150   3.444   6.147   0.615 -2.0681  0.0639  0.4260
15553TIP3    H268151   3.465   6.001   0.649  0.3448 -0.0069 -1.0725
15554TIP3   OH268152   6.084   2.383   1.793  0.1379 -0.0289 -0.2023
15554TIP3    H168153   6.095   2.400   1.886  1.4990  2.2100 -0.6926
15554TIP3    H268154   6.171   2.392   1.756 -0.6235  0.9461 -1.9159
15555TIP3   OH268155   1.507   5.614  13.439  0.1282  0.6126 -0.2890
15555TIP3    H168156   1.450   5.689  13.457 -0.4542 -0.2529  1.6855
15555TIP3    H268157   1.593   5.641  13.470 -0.0402  0.5409  0.2493
15556TIP3   OH268158   2.879   5.682  15.004  0.1728 -0.7408  0.3249
15556TIP3    H168159   2.966   5.665  14.968  1.5694  0.3071  2.9138
15556TIP3    H268160   2.855   5.768  14.970  0.2515 -0.9376 -0.2250
15557TIP3   OH268161   5.971   4.700  11.834 -0.3181 -0.1160 -0.1833
15557TIP3    H168162   6.002   4.613  11.809  1.2211  0.7030 -1.2898
15557TIP3    H268163   5.923   4.732  11.757  0.3963  0.5710 -0.3590
15558TIP3   OH268164   5.211   1.379  15.415  0.1663 -0.0804 -0.0694
15558TIP3    H168165   5.274   1.403  15.483 -0.1034  1.9492 -0.4512
15558TIP3    H268166   5.263   1.327  15.353  1.8626  2.4366 -0.9322
15559TIP3   OH268167   6.008   0.947   4.897 -0.1951  0.5082  0.3819
15559TIP3    H168168   6.056   1.027   4.874  0.9289 -0.8297 -2.5061
15559TIP3    H268169   6.075   0.889   4.933 -0.7730  0.4682  1.4054
15560TIP3   OH268170   0.199   6.645   5.089 -0.4141 -0.3857 -0.4600
15560TIP3    H168171   0.156   6.560   5.103 -1.0128  0.2610  2.1725
15560TIP3    H268172   0.129   6.703   5.060 -1.1776  0.3173  2.4600
15561TIP3   OH268173   2.579   1.162  11.425 -0.1159 -0.2692 -0.4548
15561TIP3    H168174   2.546   1.131  11.510  0.8027  0.3342  0.1430
15561TIP3    H268175   2.672   1.137  11.426 -0.0289  0.0180 -1.1514
15562TIP3   OH268176   2.584   5.580  13.451 -0.1242  0.3455  0.2070
15562TIP3    H168177   2.560   5.672  13.461 -0.3172  0.3002  0.1653
15562TIP3    H268178   2.669   5.582  13.407 -0.5535  0.4861 -0.6385
15563TIP3   OH268179   1.488   4.935  15.472 -0.3140 -0.4590  0.3838
15563TIP3    H168180   1.557   4.954  15.409 -1.1056 -0.6033 -0.5498
15563TIP3    H268181   1.419   4.893  15.420 -1.0502 -0.4324  1.3134
15564TIP3   OH268182   0.041   5.632   5.897 -0.1325 -0.1300 -0.3151
15564TIP3    H168183  -0.034   5.583   5.930 -1.2619  0.6814 -1.5969
15564TIP3    H268184   0.099   5.565   5.861 -0.5892 -0.7127  0.0095
15565TIP3   OH268185   3.543   4.945  16.754 -0.1897  0.2274 -1.0137
15565TIP3    H168186   3.460   4.911  16.722 -0.4061 -1.6078  1.1854
15565TIP3    H268187   3.521   5.028  16.796 -0.6772  0.3708 -1.5461
15566TIP3   OH268188   2.263   4.311  17.129 -0.7728  0.0869 -0.5110
15566TIP3    H168189   2.340   4.365  17.142 -0.1901 -0.8889  0.2690
15566TIP3    H268190   2.231   4.292  17.218 -3.7616  2.9650 -0.7882
15567TIP3   OH268191   3.922   4.407  15.626 -0.2157  0.4100 -0.1788
15567TIP3    H168192   3.970   4.369  15.700 -0.6899  0.3009  0.0737
15567TIP3    H268193   3.931   4.342  15.556 -1.0298 -0.1721  0.2548
15568TIP3   OH268194   4.283   1.137   5.291  0.2219 -0.3457  0.2535
15568TIP3    H168195   4.336   1.206   5.250  0.0989 -0.4105 -0.0134
15568TIP3    H268196   4.233   1.099   5.219 -0.6820  0.1545  0.6032
15569TIP3   OH268197   2.615   6.027  11.971  0.6760 -0.3505  0.1859
15569TIP3    H168198   2.608   5.931  11.977 -2.4957 -0.2069  0.3294
15569TIP3    H268199   2.670   6.041  11.894 -0.5333 -2.3380 -1.1530
15570TIP3   OH268200   5.394   4.786  13.024 -0.5688 -0.8058 -0.3481
15570TIP3    H168201   5.368   4.833  13.103 -1.2015 -3.8798  1.4240
15570TIP3    H268202   5.469   4.734  13.050 -0.0288 -0.9899 -2.1431
15571TIP3   OH268203   0.125   3.100   4.469  0.3469 -0.3790  0.3976
15571TIP3    H168204   0.034   3.115   4.444  0.5449 -0.6825 -0.5379
15571TIP3    H268205   0.173   3.099   4.387  1.0200 -1.4544  0.7740
15572TIP3   OH268206   5.791   1.706  11.835  0.4591  0.4976  0.4815
15572TIP3    H168207   5.866   1.731  11.889 -0.6232  0.3642  2.0746
15572TIP3    H268208   5.758   1.789  11.799 -1.3559  1.1712  3.4299
15573TIP3   OH268209   0.363   1.682   5.678 -0.4471 -0.6342 -0.6660
15573TIP3    H168210   0.403   1.595   5.684  1.1258  0.0820  0.0492
15573TIP3    H268211   0.421   1.730   5.619 -1.7511 -0.2892 -1.6941
15574TIP3   OH268212   1.920   3.161   0.099  0.0051  0.0101 -0.1914
15574TIP3    H168213   1.904   3.188   0.190  0.7977  2.1109 -0.6311
15574TIP3    H268214   1.859   3.213   0.047  0.3677 -0.3296 -0.9755
15575TIP3   OH268215   6.649   5.339  11.168  0.6980 -0.3889 -0.1998
15575TIP3    H168216   6.604   5.270  11.120 -0.1730  0.0313 -0.0155
15575TIP3    H268217   6.662   5.409  11.104 -3.1549  1.4430  0.6824
15576TIP3   OH268218   1.293   5.994   2.872 -0.0779 -0.3558 -0.2952
15576TIP3    H168219   1.214   6.025   2.917  0.1107 -0.1102 -0.1294
15576TIP3    H268220   1.278   6.012   2.780 -0.6115 -1.1679 -0.3747
15577TIP3   OH268221   2.016   2.618   0.612  0.2999 -0.4779  0.2745
15577TIP3    H168222   2.108   2.641   0.599  0.5441 -1.5965 -0.0172
15577TIP3    H268223   2.013   2.582   0.701  0.0810 -0.1966  0.3858
15578TIP3   OH268224   1.847   3.023  10.602  0.0964  0.0215  0.0848
15578TIP3    H168225   1.861   2.954  10.538  2.3872 -1.2951  1.8640
15578TIP3    H268226   1.773   2.993  10.654 -1.6218  0.9863 -1.6811
15579TIP3   OH268227   4.798   2.950  16.047  0.2596 -0.0206  0.0402
15579TIP3    H168228   4.775   2.902  15.967  0.5157  0.9854 -0.6525
15579TIP3    H268229   4.718   2.951  16.099 -0.2101  0.2225 -0.6794
15580TIP3   OH268230   0.891   3.270  14.894  0.0431 -1.0088  0.2117
15580TIP3    H168231   0.921   3.358  14.913 -1.8980  0.5049 -2.8002
15580TIP3    H268232   0.949   3.239  14.824 -1.4824 -0.4815 -1.3842
15581TIP3   OH268233   3.879   5.361  11.881  0.3774  0.1658  0.0637
15581TIP3    H168234   3.844   5.383  11.967 -0.4222 -0.8726  0.0132
15581TIP3    H268235   3.891   5.266  11.883  4.1610  0.5062  0.4171
15582TIP3   OH268236   0.207   4.041  14.853  0.2910 -0.0102 -0.0848
15582TIP3    H168237   0.207   4.091  14.772  2.4316  1.0906  0.5443
15582TIP3    H268238   0.167   3.957  14.829 -0.6653  0.8871 -1.8423
15583TIP3   OH268239   6.742   1.949  12.633  0.0567  0.1013  0.3091
15583TIP3    H168240   6.681   1.923  12.563  0.5369  2.0338 -0.9380
15583TIP3    H268241   6.827   1.955  12.590  0.5128  0.5796  1.2393
15584TIP3   OH268242   5.429   4.139  12.648  0.0315  0.0866  0.4552
15584TIP3    H168243   5.384   4.216  12.683 -1.5335 -0.7829  0.4333
15584TIP3    H268244   5.384   4.064  12.689  0.2019 -0.8690 -1.0366
15585TIP3   OH268245   1.078   5.232   3.662  0.1964 -0.1139 -0.1360
15585TIP3    H168246   1.167   5.254   3.690  0.8796 -0.5803 -1.8420
15585TIP3    H268247   1.044   5.313   3.623 -0.2180  0.1172  0.6787
15586TIP3   OH268248   0.228   1.003   4.839 -0.3009 -0.2673 -0.1827
15586TIP3    H168249   0.182   0.941   4.895 -1.3432  0.0723 -0.6358
15586TIP3    H268250   0.247   1.078   4.896  0.9129 -0.9537  0.3496
15587TIP3   OH268251   2.440   5.811  11.761 -0.1752 -0.2614  0.8894
15587TIP3    H168252   2.347   5.791  11.747  0.3606 -1.5494 -1.2450
15587TIP3    H268253   2.479   5.726  11.784  0.5764  0.1676  1.2224
15588TIP3   OH268254   5.867   3.640  16.023  0.3082 -0.7113  0.5541
15588TIP3    H168255   5.884   3.604  16.110 -0.4474 -3.0806 -0.1784
15588TIP3    H268256   5.896   3.571  15.963 -1.9215 -0.4406 -0.9557
15589TIP3   OH268257   3.083   0.398   3.107 -0.4244 -0.3798 -0.3139
15589TIP3    H168258   3.162   0.445   3.083  0.1379 -1.1115  0.0709
15589TIP3    H268259   3.090   0.385   3.202  0.0577 -2.3228 -0.5777
15590TIP3   OH268260   1.231   0.422  12.596  0.3365 -0.1213  0.6693
15590TIP3    H168261   1.315   0.410  12.550 -0.3556 -0.7981 -0.4775
15590TIP3    H268262   1.178   0.348  12.568 -0.9923  0.8240  0.5994
15591TIP3   OH268263   6.040   1.965  15.791 -0.1231  0.3875 -0.1548
15591TIP3    H168264   6.124   2.010  15.797 -0.3583  0.6673  1.4278
15591TIP3    H268265   5.980   2.032  15.757  0.0513  0.5282 -0.1881
15592TIP3   OH268266   5.056   1.113  10.757  0.2678 -0.3803 -0.6008
15592TIP3    H168267   5.146   1.139  10.779 -0.0501  0.2829 -0.0621
15592TIP3    H268268   5.066   1.055  10.681  1.1897 -0.7338 -0.2296
15593TIP3   OH268269   5.817   5.969   4.966  0.2921  0.2616  0.6429
15593TIP3    H168270   5.873   6.046   4.963 -1.1774  1.3469  0.4419
15593TIP3    H268271   5.747   5.987   4.904 -1.4751 -0.1119  2.4126
15594TIP3   OH268272   0.112   3.615   3.633 -0.3258  0.2848  0.0014
15594TIP3    H168273   0.170   3.656   3.699 -1.1501  0.8941  0.3709
15594TIP3    H268274   0.143   3.650   3.550 -0.5791  1.1440  0.2564
15595TIP3   OH268275   2.154   5.086   0.597 -0.4091  0.4613 -0.8454
15595TIP3    H168276   2.140   5.152   0.665 -0.7751  0.7982 -1.2452
15595TIP3    H268277   2.244   5.056   0.612 -1.0348 -0.7039  0.8527
15596TIP3   OH268278   0.785   1.974   0.698 -0.1621  0.2009 -0.0368
15596TIP3    H168279   0.794   1.934   0.611 -0.9121  0.3149 -0.1677
15596TIP3    H268280   0.777   2.067   0.681  1.1195  0.3836  0.2465
15597TIP3   OH268281   4.900   6.741   4.746 -0.3118 -0.7823  0.2003
15597TIP3    H168282   4.893   6.801   4.672  0.3479 -3.4253 -2.1590
15597TIP3    H268283   4.813   6.700   4.752 -0.4641 -0.3504  1.1634
15598TIP3   OH268284   3.949   6.771  14.507 -0.4824 -0.1212 -0.1036
15598TIP3    H168285   3.899   6.742  14.583 -0.9688  1.5728  0.2862
15598TIP3    H268286   4.004   6.697  14.484  1.1704 -0.1039  3.1308
15599TIP3   OH268287   3.332   6.650  16.736  0.2299  0.4977  0.0496
15599TIP3    H168288   3.352   6.698  16.656  0.5534  1.1699  0.5226
15599TIP3    H268289   3.247   6.684  16.765 -0.7438 -0.9982 -0.9334
15600TIP3   OH268290   3.631   1.586  15.230 -0.0884  0.1333  0.0292
15600TIP3    H168291   3.618   1.616  15.320 -2.4869  1.2660 -0.6122
15600TIP3    H268292   3.639   1.667  15.179 -2.1396 -0.3444 -1.1648
15601TIP3   OH268293   4.085   0.661  12.172 -0.1058 -0.2014 -0.1581
15601TIP3    H168294   4.178   0.679  12.162 -0.3186  0.3456 -1.2258
15601TIP3    H268295   4.068   0.586  12.115 -0.5790  0.5519 -1.0256
15602TIP3   OH268296   1.583   1.228   0.501 -0.0929 -0.0893 -0.1900
15602TIP3    H168297   1.516   1.261   0.561 -1.1455 -0.7601 -0.9793
15602TIP3    H268298   1.573   1.133   0.503  1.6760 -0.2934  0.6260
15603TIP3   OH268299   1.965   1.484   3.420 -0.3446 -0.3615 -0.0372
15603TIP3    H168300   1.882   1.523   3.393 -0.0604 -0.6690 -1.4307
15603TIP3    H268301   2.030   1.521   3.360  0.8918  1.2886  2.1687
15604TIP3   OH268302   0.758   5.199  11.486  0.1757 -0.0168  0.1039
15604TIP3    H168303   0.787   5.125  11.539  0.1706 -1.4533 -1.7778
15604TIP3    H268304   0.839   5.239  11.453  0.1822  0.9223  1.2123
15605TIP3   OH268305   6.469   5.368   5.596 -0.2476  0.2492 -0.6798
15605TIP3    H168306   6.505   5.433   5.657 -0.7634 -1.2015  1.2916
15605TIP3    H268307   6.374   5.376   5.606 -0.3257 -0.4396 -0.8116
15606TIP3   OH268308   5.617   0.315   3.271  0.0319 -0.1365  0.3923
15606TIP3    H168309   5.529   0.313   3.232  0.3289  0.3122 -0.3218
15606TIP3    H268310   5.631   0.408   3.291  0.3947 -0.1903  0.3845
15607TIP3   OH268311   1.867   3.499   2.239  0.2300  0.1110 -0.1317
15607TIP3    H168312   1.808   3.484   2.165  0.0052 -2.7639  0.5111
15607TIP3    H268313   1.895   3.590   2.230 -0.6512  0.1783 -3.1088
15608TIP3   OH268314   2.288   3.550   2.136  0.0368  0.2794 -0.6174
15608TIP3    H168315   2.291   3.621   2.071  0.4227  1.3638  0.5342
15608TIP3    H268316   2.195   3.543   2.158 -0.3334 -1.2214 -2.4262
15609TIP3   OH268317   2.548   4.861   2.922 -0.3065 -0.3082  0.0902
15609TIP3    H168318   2.547   4.846   2.827  1.2314 -1.2032  0.1951
15609TIP3    H268319   2.558   4.774   2.961  0.5856  0.1893  1.0151
15610TIP3   OH268320   3.095   4.441  17.041  0.0590 -0.2057  0.3090
15610TIP3    H168321   3.092   4.352  17.006  0.0936  0.5742 -1.8238
15610TIP3    H268322   3.091   4.430  17.136  0.1811 -2.4740  0.0974
15611TIP3   OH268323   3.780   2.469   1.433  0.0439  0.0690 -0.6933
15611TIP3    H168324   3.749   2.553   1.401 -1.0714  0.3410  0.9789
15611TIP3    H268325   3.715   2.406   1.401  0.7292 -0.1426 -1.7117
15612TIP3   OH268326   2.004   1.219  14.824 -0.0534  0.4640  0.0510
15612TIP3    H168327   1.929   1.168  14.795  0.2821  0.2828 -0.5074
15612TIP3    H268328   1.966   1.296  14.866 -0.5529  0.2161  0.0528
15613TIP3   OH268329   1.310   4.863  14.707  0.0477 -0.0500 -0.3555
15613TIP3    H168330   1.234   4.826  14.754  0.4368 -1.8439 -1.0502
15613TIP3    H268331   1.375   4.877  14.775 -0.4401  0.2511  0.0600
15614TIP3   OH268332   3.132   3.250   2.063  0.1674  0.5492 -0.0513
15614TIP3    H168333   3.115   3.277   1.973  1.7596  0.9515 -0.2590
15614TIP3    H268334   3.176   3.166   2.055 -0.1335  0.3472  0.3779
15615TIP3   OH268335   5.434   2.479   2.048  0.5699 -0.4508 -0.0123
15615TIP3    H168336   5.376   2.521   2.111  1.9727  0.1415  0.9051
15615TIP3    H268337   5.431   2.536   1.971  2.3682  1.3499  1.1735
15616TIP3   OH268338   0.986   3.217  12.377  0.1389  0.3634 -0.3695
15616TIP3    H168339   0.985   3.203  12.471 -0.4756  0.7306 -0.3186
15616TIP3    H268340   0.916   3.280  12.361 -0.2773 -0.2755 -1.1574
15617TIP3   OH268341   3.553   6.032   6.437 -0.4228  0.3887  0.1464
15617TIP3    H168342   3.560   6.095   6.365 -1.0433  0.4278  0.1201
15617TIP3    H268343   3.639   6.035   6.479 -0.8251  2.2329  0.9592
15618TIP3   OH268344   2.197   0.655   1.353  0.0379  0.0266  0.1645
15618TIP3    H168345   2.248   0.662   1.434  0.1869  2.6324 -0.0643
15618TIP3    H268346   2.132   0.587   1.372 -0.0581  0.6877  2.5426
15619TIP3   OH268347   4.479   5.249   4.712 -0.0750  0.1524  0.0618
15619TIP3    H168348   4.428   5.305   4.654 -0.7862 -1.1908 -0.6513
15619TIP3    H268349   4.542   5.308   4.753  0.5454  1.1344 -2.1589
15620TIP3   OH268350   4.335   6.782   5.054  0.2271 -0.6673  0.0740
15620TIP3    H168351   4.351   6.863   5.103 -3.0442  0.1346  0.0865
15620TIP3    H268352   4.355   6.712   5.117 -0.1972  0.2406  1.2713
15621TIP3   OH268353   4.970   4.759   5.401 -0.1351  0.5210 -0.1555
15621TIP3    H168354   4.907   4.817   5.445 -1.1939  0.6037 -1.6762
15621TIP3    H268355   5.055   4.785   5.436 -0.5214  3.2619 -1.0138
15622TIP3   OH268356   5.938   3.436   2.660 -0.0098  0.1749  0.5361
15622TIP3    H168357   5.914   3.528   2.669  1.2752  0.4155  1.9826
15622TIP3    H268358   6.004   3.434   2.592 -1.0575  0.0857 -0.5160
15623TIP3   OH268359   3.129   2.135   5.992  0.2757  0.1685 -0.9041
15623TIP3    H168360   3.175   2.103   5.914 -0.0374  0.5107 -1.2354
15623TIP3    H268361   3.037   2.134   5.967 -0.3252 -3.6112  0.8406
15624TIP3   OH268362   5.919   3.807  14.136  0.2393  0.2324 -0.1337
15624TIP3    H168363   5.997   3.862  14.138  0.1525  0.3208  1.2824
15624TIP3    H268364   5.856   3.857  14.083  0.3693  1.2164  0.6247
15625TIP3   OH268365   3.908   5.978   0.007  0.1304 -0.0630  0.3165
15625TIP3    H168366   3.909   5.948  -0.084  0.2600  0.5993  0.0898
15625TIP3    H268367   3.940   5.904   0.058 -1.5957 -1.0718  0.0260
15626TIP3   OH268368   0.423   5.871  10.422 -0.0861 -0.1039  0.7614
15626TIP3    H168369   0.485   5.836  10.358 -0.0728  0.9482  0.1747
15626TIP3    H268370   0.452   5.835  10.506  1.8559  1.0094  0.6228
15627TIP3   OH268371   3.986   0.390  14.642  0.7720  0.2536  0.1410
15627TIP3    H168372   4.015   0.389  14.550 -1.6039  0.9397 -0.6975
15627TIP3    H268373   3.992   0.299  14.671  1.2022 -0.0326 -0.8140
15628TIP3   OH268374   0.208   2.407  17.093 -0.1623 -0.0526  0.5770
15628TIP3    H168375   0.189   2.314  17.101  1.1871 -0.2524  1.7647
15628TIP3    H268376   0.173   2.446  17.173 -2.7274  0.8656 -0.8861
15629TIP3   OH268377   2.252   3.918   3.882 -0.5459 -0.1319 -0.2177
15629TIP3    H168378   2.254   3.950   3.792  2.5141 -0.3476 -0.3399
15629TIP3    H268379   2.304   3.837   3.879 -0.2606 -0.0570  1.7532
15630TIP3   OH268380   2.117   4.432  10.794 -0.0248 -0.0554 -0.3370
15630TIP3    H168381   2.162   4.410  10.713 -0.2776  0.8737 -0.7339
15630TIP3    H268382   2.186   4.468  10.850 -0.4260  2.5546 -1.3897
15631TIP3   OH268383   1.952   4.452   0.619 -0.1607 -0.4967 -0.5258
15631TIP3    H168384   1.943   4.429   0.711 -0.1129 -2.2480 -0.9276
15631TIP3    H268385   1.909   4.537   0.611 -1.0379 -0.7758  0.9233
15632TIP3   OH268386   0.047   6.698   5.731  0.0375  0.0013  0.0603
15632TIP3    H168387   0.089   6.720   5.814  1.5978  1.1832 -0.9948
15632TIP3    H268388   0.118   6.696   5.667 -1.1981 -0.3252 -1.3682
15633TIP3   OH268389   4.125   2.890  16.706  0.0354 -0.1599 -0.4213
15633TIP3    H168390   4.148   2.975  16.744  0.4768 -0.6531  0.4469
15633TIP3    H268391   4.206   2.859  16.666  0.0942 -0.5416 -0.0106
15634TIP3   OH268392   1.124   5.098  10.740 -0.0618  0.0071  0.1542
15634TIP3    H168393   1.048   5.058  10.699 -0.9019  0.5771  1.1016
15634TIP3    H268394   1.097   5.188  10.758  0.7651  0.1605  0.6838
15635TIP3   OH268395   5.176   3.484   4.582  0.3943 -0.2863  0.0495
15635TIP3    H168396   5.237   3.525   4.644  1.3172 -1.6013  0.0640
15635TIP3    H268397   5.183   3.391   4.601 -0.0527 -0.6263 -1.3915
15636TIP3   OH268398   5.084   0.816   0.731  0.1562 -0.0490 -0.0466
15636TIP3    H168399   5.092   0.911   0.735 -1.2283  0.0475  1.3349
15636TIP3    H268400   5.026   0.799   0.657  0.6481  0.1393 -0.4846
15637TIP3   OH268401   1.234   4.264  10.375  0.2628  0.1216  0.4868
15637TIP3    H168402   1.311   4.311  10.344  0.1678  0.0185  0.0898
15637TIP3    H268403   1.200   4.220  10.297  0.7026 -1.1173  0.9686
15638TIP3   OH268404   1.974   1.501   3.694 -0.2127  0.3900 -0.4768
15638TIP3    H168405   1.977   1.487   3.600 -1.1308 -1.2230 -0.3000
15638TIP3    H268406   1.884   1.479   3.719  0.3731 -0.5354  0.9655
15639TIP3   OH268407   2.414   3.125   5.518 -0.4202 -0.9589 -0.4145
15639TIP3    H168408   2.338   3.152   5.569  0.5905 -1.5509  1.5358
15639TIP3    H268409   2.381   3.109   5.430 -2.5135 -1.1455  0.3669
15640TIP3   OH268410   1.486   5.856   2.039  0.3104 -0.8240  0.0271
15640TIP3    H168411   1.516   5.765   2.040  1.2871 -0.5951 -2.0443
15640TIP3    H268412   1.395   5.851   2.008 -0.9042 -1.2716  3.2414
15641TIP3   OH268413   6.311   6.473  15.376  0.0581 -0.4281 -0.5640
15641TIP3    H168414   6.397   6.473  15.335 -0.5168 -2.7488 -1.9227
15641TIP3    H268415   6.281   6.564  15.368  2.1027  0.3022 -0.5595
15642TIP3   OH268416   1.368   1.083   4.935 -0.3937 -0.2087  0.1216
15642TIP3    H168417   1.383   1.167   4.979  1.2195  0.7656 -2.0750
15642TIP3    H268418   1.278   1.090   4.901 -0.0377  0.9863 -0.6603
15643TIP3   OH268419   0.109   2.853  15.803  0.1590  0.2654  0.1954
15643TIP3    H168420   0.158   2.790  15.751 -0.9096 -0.1660 -0.3339
15643TIP3    H268421   0.068   2.910  15.737  0.8726  1.3400  0.6557
15644TIP3   OH268422   4.954   5.958  16.826 -0.8945 -0.2226 -0.2519
15644TIP3    H168423   4.976   5.865  16.824 -1.3096 -0.3207 -0.3382
15644TIP3    H268424   4.941   5.981  16.734 -0.1520  0.0796 -0.2920
15645TIP3   OH268425   3.008   0.120   0.662  0.0591  0.0816 -0.3857
15645TIP3    H168426   3.053   0.123   0.577 -0.6442 -1.5607 -0.8651
15645TIP3    H268427   2.943   0.050   0.652 -1.1485  0.9535  0.9933
15646TIP3   OH268428   0.507   0.691   4.205  0.5433 -0.4182  0.4634
15646TIP3    H168429   0.469   0.652   4.127  2.5067 -0.6627 -0.4254
15646TIP3    H268430   0.481   0.783   4.201 -1.1404 -0.8507  0.6930
15647TIP3   OH268431   3.397   4.880   3.386 -0.2911  0.7338  0.6169
15647TIP3    H168432   3.393   4.968   3.424 -0.4521  0.9995 -0.0060
15647TIP3    H268433   3.433   4.892   3.298 -0.8280  0.2482  0.3193
15648TIP3   OH268434   1.257   2.878   4.057  0.0094  0.2860 -0.4515
15648TIP3    H168435   1.300   2.952   4.101 -0.2298  1.4693 -2.1006
15648TIP3    H268436   1.164   2.902   4.056 -0.4052 -1.1328  0.9781
15649TIP3   OH268437   5.024   3.520   5.699 -0.0145 -0.1648  0.1608
15649TIP3    H168438   5.059   3.585   5.639  2.1239  0.8943  2.3961
15649TIP3    H268439   5.053   3.548   5.786 -0.3792 -3.2190  1.4203
15650TIP3   OH268440   4.250   0.191  12.062 -0.6969  0.1816  0.0341
15650TIP3    H168441   4.189   0.117  12.060 -0.0804 -0.3307 -0.2000
15650TIP3    H268442   4.311   0.170  12.132 -0.1804  0.1869 -0.4051
15651TIP3   OH268443   2.955   1.072  12.134 -0.5746  0.4604  0.0555
15651TIP3    H168444   2.947   1.135  12.063  0.3892  1.1195  0.5066
15651TIP3    H268445   2.877   1.016  12.126 -0.1622  0.0884 -1.9143
15652TIP3   OH268446   1.021   0.229   4.591 -0.1039 -0.3473 -0.5448
15652TIP3    H168447   0.954   0.234   4.660 -0.3746  0.3722 -0.8476
15652TIP3    H268448   1.039   0.321   4.569  0.4699 -0.5550 -0.9696
15653TIP3   OH268449   0.841   1.269  14.378  0.5855 -0.2279 -0.0552
15653TIP3    H168450   0.882   1.236  14.298  0.7461  0.7942 -0.4055
15653TIP3    H268451   0.773   1.329  14.348  0.6439  0.1622  0.5723
15654TIP3   OH268452   4.720   6.518   1.169  0.5591  0.0588 -0.3955
15654TIP3    H168453   4.666   6.449   1.130 -1.6107  1.1554  0.5260
15654TIP3    H268454   4.743   6.484   1.256  0.6790 -0.0657 -0.4745
15655TIP3   OH268455   5.964   2.897   3.570 -0.0407 -0.6960 -0.2401
15655TIP3    H168456   5.949   2.968   3.508  4.1643 -0.0635 -0.8426
15655TIP3    H268457   5.955   2.817   3.518  2.1496 -0.2179 -1.4984
15656TIP3   OH268458   0.715   1.655   1.976  0.8809 -0.4307 -0.4807
15656TIP3    H168459   0.654   1.589   1.944 -0.4141  0.6209 -0.2645
15656TIP3    H268460   0.789   1.650   1.916  0.1197 -1.0245 -1.3947
15657TIP3   OH268461   1.640   4.493   3.286  0.0859  0.3064  0.1126
15657TIP3    H168462   1.594   4.491   3.201  1.7218  3.0077 -0.9565
15657TIP3    H268463   1.692   4.573   3.283  0.4191  0.3638  3.6241
15658TIP3   OH268464   3.020   1.003  10.435  0.7743 -0.6077 -0.2725
15658TIP3    H168465   3.093   0.958  10.392  1.0145  2.0324 -2.9849
15658TIP3    H268466   2.942   0.964  10.396  0.6887 -2.5117  1.6522
15659TIP3   OH268467   4.411   2.846  15.268  0.1610  0.0790  0.4434
15659TIP3    H168468   4.372   2.927  15.302 -1.0697 -0.1835 -0.2735
15659TIP3    H268469   4.500   2.871  15.242  0.0609  1.0122  0.9633
15660TIP3   OH268470   0.971   5.321   3.256 -0.2276 -0.1342 -0.1265
15660TIP3    H168471   0.975   5.231   3.290 -0.7242  0.2853  1.1065
15660TIP3    H268472   0.911   5.316   3.181  1.5190 -1.2383 -1.5264
15661TIP3   OH268473   0.459   6.217   5.220  0.2903 -0.4039  0.3739
15661TIP3    H168474   0.381   6.234   5.272 -1.1468 -0.4857 -1.6020
15661TIP3    H268475   0.499   6.303   5.206 -0.6874 -0.0542 -0.3711
15662TIP3   OH268476   3.879   4.666  10.906  0.1618 -0.1915  0.4229
15662TIP3    H168477   3.934   4.664  10.828  0.9977 -0.3617  0.9930
15662TIP3    H268478   3.789   4.667  10.873  0.5013  2.0771 -0.5835
15663TIP3   OH268479   3.156   1.724   2.811 -0.3730 -0.4803  0.3569
15663TIP3    H168480   3.070   1.711   2.769  0.3004 -0.1064 -1.2103
15663TIP3    H268481   3.195   1.637   2.810 -0.8386 -0.7202  1.3805
15664TIP3   OH268482   1.965   2.459   1.375  0.5086 -0.7780  0.1371
15664TIP3    H168483   1.973   2.374   1.332 -0.9058 -0.6619 -0.4352
15664TIP3    H268484   1.965   2.522   1.304  0.9062 -0.3519  0.5115
15665TIP3   OH268485   0.302   0.245   4.608  0.0107 -0.0838 -0.1463
15665TIP3    H168486   0.364   0.203   4.548  0.8524  1.5389 -0.4747
15665TIP3    H268487   0.262   0.173   4.656  0.8812 -1.2843 -1.1701
15666TIP3   OH268488   3.318   4.261   1.561 -0.2663 -0.1523  0.3290
15666TIP3    H168489   3.232   4.235   1.594 -0.2679 -0.9616 -0.2782
15666TIP3    H268490   3.300   4.303   1.478 -0.0841 -0.2667  0.2307
15667TIP3   OH268491   6.236   3.640   5.723 -0.3947 -0.2854 -0.4986
15667TIP3    H168492   6.290   3.591   5.786 -2.3570 -0.7428  0.9329
15667TIP3    H268493   6.200   3.572   5.666  2.4583  0.2306 -3.1832
15668TIP3   OH268494   5.182   3.875  12.400 -0.4998  0.9411 -0.0861
15668TIP3    H168495   5.200   3.963  12.368 -3.0362  2.0408  1.2140
15668TIP3    H268496   5.128   3.835  12.332 -0.3629  0.8584 -0.1447
15669TIP3   OH268497   3.268   4.746   1.315 -0.4891 -0.5328  0.0485
15669TIP3    H168498   3.286   4.833   1.351  0.4712 -1.6135  2.3536
15669TIP3    H268499   3.173   4.743   1.308 -0.6045  0.2875  1.0449
15670TIP3   OH268500   0.811   0.930  11.841  0.0428 -0.0349  0.1470
15670TIP3    H168501   0.809   1.020  11.873 -0.1711  0.7897 -2.0133
15670TIP3    H268502   0.895   0.922  11.796 -0.1552 -0.7596 -0.1101
15671TIP3   OH268503   2.880   3.796  16.895 -0.1754  0.0284  0.3748
15671TIP3    H168504   2.913   3.814  16.807 -0.4737 -0.1965  0.2126
15671TIP3    H268505   2.786   3.782  16.882 -0.5847  1.9594  1.0101
15672TIP3   OH268506   1.576   3.952   1.941 -0.1593  0.1394  0.1455
15672TIP3    H168507   1.603   3.985   1.855 -0.8457  1.0513  0.2692
15672TIP3    H268508   1.518   3.878   1.921 -1.9106  1.5364 -0.2783
15673TIP3   OH268509   5.672   2.400  14.119 -0.5219 -0.3390  0.0679
15673TIP3    H168510   5.680   2.334  14.050 -0.8124 -0.8322  0.4922
15673TIP3    H268511   5.677   2.350  14.201  0.5131  0.3132  0.4268
15674TIP3   OH268512   0.134   2.806   0.022 -0.0548 -0.0444  0.0566
15674TIP3    H168513   0.144   2.816   0.117 -0.2657  2.1979 -0.1056
15674TIP3    H268514   0.221   2.782  -0.009  0.8098  2.2390  0.5267
15675TIP3   OH268515   2.841   3.005   1.297  0.4505  0.2049  0.4118
15675TIP3    H168516   2.861   3.084   1.248  0.7190 -0.5008 -0.6687
15675TIP3    H268517   2.835   3.033   1.388 -0.6278  1.6696 -0.0801
15676TIP3   OH268518   4.559   1.402  17.216 -0.0578 -0.7443 -0.1635
15676TIP3    H168519   4.556   1.493  17.244  0.5410 -1.0658  1.0265
15676TIP3    H268520   4.473   1.386  17.178 -0.1411  0.3361 -0.4577
15677TIP3   OH268521   2.288   1.788  14.855  0.6370  0.0004 -0.5432
15677TIP3    H168522   2.239   1.807  14.935  0.2188  1.1042 -1.0346
15677TIP3    H268523   2.312   1.875  14.821 -0.5635 -0.3594 -2.4408
15678TIP3   OH268524   3.456   4.222  16.244  0.1118  0.5323  0.1156
15678TIP3    H168525   3.484   4.144  16.196  4.0058  1.7750  0.0005
15678TIP3    H268526   3.476   4.294  16.185  0.7366  1.8434  1.8624
15679TIP3   OH268527   5.192   5.391  10.758 -0.4745  0.2298  0.4842
15679TIP3    H168528   5.123   5.334  10.723 -0.9116  0.7335  0.5026
15679TIP3    H268529   5.144   5.463  10.800 -0.0025 -0.7227  2.8341
15680TIP3   OH268530   0.614   3.596  11.257  0.1532  0.1118  0.2020
15680TIP3    H168531   0.532   3.638  11.231 -0.3999 -0.2929  1.2181
15680TIP3    H268532   0.590   3.540  11.331  1.1019 -1.0348 -0.3156
15681TIP3   OH268533   5.980   2.847   0.337  0.1580 -0.0776 -0.9788
15681TIP3    H168534   6.016   2.846   0.426  3.0106  1.8590 -1.9457
15681TIP3    H268535   5.925   2.926   0.335  0.4900  0.1567 -1.0357
15682TIP3   OH268536   0.711   1.040   3.834  0.0702  0.2224 -0.4491
15682TIP3    H168537   0.791   1.027   3.783  0.8787 -0.8096  1.0314
15682TIP3    H268538   0.695   1.134   3.829  1.6194  0.5091 -0.4326
15683TIP3   OH268539   4.028   4.239   2.333  0.1473  0.0498  0.1005
15683TIP3    H168540   4.070   4.171   2.386 -1.5945 -1.9536 -0.9134
15683TIP3    H268541   3.952   4.267   2.384 -0.6396 -0.7550 -0.5715
15684TIP3   OH268542   1.722   3.940  14.456 -0.2426 -0.4620 -0.2488
15684TIP3    H168543   1.679   3.855  14.451 -0.2185 -0.4361 -0.9801
15684TIP3    H268544   1.782   3.942  14.381  1.3578 -0.6598  0.9690
15685TIP3   OH268545   0.062   1.287   0.700  0.1716  0.0155 -0.8190
15685TIP3    H168546   0.142   1.252   0.740  0.8353  0.0373 -2.0936
15685TIP3    H268547   0.051   1.374   0.739 -1.0739 -1.1901  1.8154
15686TIP3   OH268548   3.141   1.040  16.923 -0.6597 -0.1073  0.5531
15686TIP3    H168549   3.056   1.007  16.891 -0.5072 -2.8261  2.5591
15686TIP3    H268550   3.134   1.034  17.018  1.4335  0.6287  0.7991
15687TIP3   OH268551   5.702   5.276  11.714  0.1954  0.6722 -0.8633
15687TIP3    H168552   5.624   5.269  11.660  0.4624  0.5669 -1.2379
15687TIP3    H268553   5.766   5.321  11.659  0.1945  1.3408 -0.3360
15688TIP3   OH268554   4.681   6.529  14.718 -0.1890  0.3720  0.1650
15688TIP3    H168555   4.602   6.581  14.705 -0.0448  0.3385 -0.9831
15688TIP3    H268556   4.732   6.578  14.782 -1.0807  0.4463  0.8406
15689TIP3   OH268557   5.211   0.001   5.055  0.1739 -1.1591 -0.1816
15689TIP3    H168558   5.271  -0.046   5.113  2.5332 -1.5378 -2.7220
15689TIP3    H268559   5.132  -0.053   5.054  0.7459 -2.0937  1.2438
15690TIP3   OH268560   4.708   5.590  11.231  0.1234  0.1134 -0.3364
15690TIP3    H168561   4.760   5.643  11.172  0.8489  0.1589  0.3237
15690TIP3    H268562   4.621   5.630  11.231  0.2880  0.4692 -0.8936
15691TIP3   OH268563   3.417   4.845   0.912  0.1283 -0.1179  0.0526
15691TIP3    H168564   3.378   4.925   0.948 -0.5480 -0.3995 -0.0276
15691TIP3    H268565   3.488   4.876   0.856  0.4571  0.3794  0.7245
15692TIP3   OH268566   3.327   4.625   3.250  0.3647  0.0749  0.1800
15692TIP3    H168567   3.237   4.654   3.235 -0.8312 -2.3464  1.8818
15692TIP3    H268568   3.371   4.700   3.288 -1.5062  0.7488  1.1073
15693TIP3   OH268569   2.565   1.958  13.001  0.1366  0.5990 -0.6216
15693TIP3    H168570   2.510   2.033  13.020 -0.6198 -0.0793 -0.0684
15693TIP3    H268571   2.529   1.887  13.054  1.2303  0.0050 -0.6367
15694TIP3   OH268572   3.390   5.007  11.923 -0.8219 -0.2404  0.1074
15694TIP3    H168573   3.425   4.964  11.845  2.6176  0.1913  1.2819
15694TIP3    H268574   3.404   5.100  11.907 -1.3584 -0.0553  0.6934
15695TIP3   OH268575   3.524   3.871  14.328 -0.1640  0.1838 -0.7289
15695TIP3    H168576   3.506   3.861  14.235  3.0143 -0.6408 -1.3666
15695TIP3    H268577   3.512   3.784  14.365  0.9062 -0.0294 -0.8637
15696TIP3   OH268578   4.619   3.087  10.434 -0.0887 -0.5512 -0.2108
15696TIP3    H168579   4.695   3.041  10.398 -0.6957 -0.7423 -1.2700
15696TIP3    H268580   4.657   3.162  10.480  0.6415  0.9907 -3.1264
15697TIP3   OH268581   4.512   0.906   2.364  0.0575 -0.0286  0.1427
15697TIP3    H168582   4.591   0.944   2.402  0.7427  0.0388 -1.3184
15697TIP3    H268583   4.470   0.861   2.438  1.5773 -0.2706  0.9009
15698TIP3   OH268584   0.078   5.864  13.519  0.1815 -0.4156  0.7226
15698TIP3    H168585   0.131   5.927  13.567  2.7049 -1.6998 -0.2100
15698TIP3    H268586   0.117   5.779  13.539 -1.3000 -1.4061 -0.3363
15699TIP3   OH268587   6.637   1.640   5.776 -0.3716  0.1889 -0.4039
15699TIP3    H168588   6.617   1.653   5.683 -0.8762  1.0572 -0.1841
15699TIP3    H268589   6.700   1.568   5.777 -0.6149 -0.0527 -1.3935
15700TIP3   OH268590   4.377   3.344   0.632 -0.2778  0.1735 -0.0677
15700TIP3    H168591   4.293   3.332   0.587 -0.0922 -1.0336 -0.1228
15700TIP3    H268592   4.426   3.265   0.613 -0.9206 -1.4366  3.8564
15701TIP3   OH268593   3.505   1.874  16.027  0.1239 -0.0683  0.2111
15701TIP3    H168594   3.575   1.922  15.983 -0.8564 -0.7631 -2.2725
15701TIP3    H268595   3.425   1.924  16.009 -0.5193 -1.1618 -0.0908
15702TIP3   OH268596   3.327   1.314   1.669  0.0775  0.0561  0.7643
15702TIP3    H168597   3.235   1.321   1.643  0.7501 -0.3462 -2.0997
15702TIP3    H268598   3.333   1.365   1.749 -2.4325  0.9342  0.4992
15703TIP3   OH268599   6.557   3.707   0.007  0.7953 -0.2023  0.2779
15703TIP3    H168600   6.506   3.638   0.050  0.2515  0.4867  0.7486
15703TIP3    H268601   6.600   3.753   0.078 -0.6839  1.4116  0.1784
15704TIP3   OH268602   4.152   2.105  13.023  0.4061  0.2550  0.2531
15704TIP3    H168603   4.062   2.083  12.999  0.4984 -0.1353  0.2521
15704TIP3    H268604   4.190   2.141  12.943  0.5003 -0.3725  0.0096
15705TIP3   OH268605   6.471   3.630  13.359 -0.0642  0.0609 -0.0652
15705TIP3    H168606   6.383   3.600  13.380 -0.0635  0.7541  1.0276
15705TIP3    H268607   6.480   3.713  13.406 -0.4345  2.3752 -3.7143
15706TIP3   OH268608   3.858   5.593   2.795 -0.4037 -0.2395 -0.2253
15706TIP3    H168609   3.788   5.616   2.857 -1.4927  1.0616 -1.8458
15706TIP3    H268610   3.880   5.676   2.753  0.4380 -1.0584 -1.4491
15707TIP3   OH268611   1.645   0.722  17.068  0.4521  0.1014 -0.0402
15707TIP3    H168612   1.666   0.729  16.974  2.3571  0.9729  0.3970
15707TIP3    H268613   1.710   0.778  17.111 -0.3879 -0.2807  1.8173
15708TIP3   OH268614   1.695   1.256   2.794 -0.4186 -0.4033 -0.6913
15708TIP3    H168615   1.645   1.337   2.783 -1.5051 -0.8486  0.6017
15708TIP3    H268616   1.628   1.188   2.807  0.4969 -1.2962 -0.4889
15709TIP3   OH268617   0.527   5.695   6.261  0.0432  0.0842  0.5288
15709TIP3    H168618   0.520   5.717   6.353 -3.1608 -1.4819  0.7892
15709TIP3    H268619   0.474   5.760   6.215  0.6516  0.1573 -0.1009
15710TIP3   OH268620   2.355   2.915   2.444 -0.0490 -0.6096 -0.3770
15710TIP3    H168621   2.354   2.862   2.365 -0.0019 -1.2072  0.0130
15710TIP3    H268622   2.389   2.857   2.512 -1.1599 -0.4664  0.3258
15711TIP3   OH268623   4.942   1.227   0.224 -0.5499  0.0696 -0.7196
15711TIP3    H168624   4.847   1.228   0.239 -0.2528  0.3945  1.4361
15711TIP3    H268625   4.968   1.136   0.240 -0.2842  0.3371  0.4857
15712TIP3   OH268626   3.158   2.810  10.432 -0.3054 -0.5356 -0.3797
15712TIP3    H168627   3.220   2.738  10.448  1.5590  1.0737 -0.0815
15712TIP3    H268628   3.186   2.879  10.491 -1.8052  0.6074 -0.9620
15713TIP3   OH268629   0.383   6.153   2.746  0.2042  0.3277  0.2452
15713TIP3    H168630   0.325   6.104   2.805 -0.1898  0.3460 -0.1208
15713TIP3    H268631   0.462   6.167   2.797 -0.5018  1.2311  1.1416
15714TIP3   OH268632   3.660   5.282  16.361 -0.1731  0.6183  0.3270
15714TIP3    H168633   3.706   5.327  16.431 -1.4566  1.1511  0.8618
15714TIP3    H268634   3.585   5.241  16.404 -1.5583  1.7970 -0.8547
15715TIP3   OH268635   1.451   0.501   0.803 -0.1703 -0.1234 -0.1392
15715TIP3    H168636   1.540   0.505   0.768  1.0940 -0.9150  2.7479
15715TIP3    H268637   1.437   0.587   0.842 -0.2032 -0.3967  0.4574
15716TIP3   OH268638   5.484   4.824   4.448 -0.9693  0.4575  0.0243
15716TIP3    H168639   5.426   4.862   4.383  0.3927  1.5151 -0.6324
15716TIP3    H268640   5.525   4.749   4.404  1.6528  2.4825 -1.2591
15717TIP3   OH268641   1.684   0.330   2.504  0.6108  0.1012 -0.2575
15717TIP3    H168642   1.701   0.278   2.583  4.7150  1.6509  0.1117
15717TIP3    H268643   1.687   0.267   2.433  0.2718 -0.8575  0.5542
15718TIP3   OH268644   5.169   3.200   2.338 -0.3691 -0.3913 -0.1301
15718TIP3    H168645   5.117   3.270   2.300  0.2385  0.6291  0.8303
15718TIP3    H268646   5.153   3.123   2.283 -1.5156  0.3511 -0.8455
15719TIP3   OH268647   0.613   4.913  16.247  0.6236  0.5180 -0.6385
15719TIP3    H168648   0.559   4.835  16.233  2.2522 -1.0530  1.3474
15719TIP3    H268649   0.701   4.887  16.219  0.8231  2.3919 -1.9586
15720TIP3   OH268650   6.449   0.334   5.599 -0.1660  0.4520 -0.6472
15720TIP3    H168651   6.402   0.407   5.639 -2.3600 -0.8129 -0.7802
15720TIP3    H268652   6.449   0.266   5.667  0.3670 -0.0226 -1.1114
15721TIP3   OH268653   2.764   6.019  13.675  0.1547  0.3113  0.0254
15721TIP3    H168654   2.725   6.065  13.601 -2.3214 -0.8580  0.5252
15721TIP3    H268655   2.806   6.088  13.727 -0.7302  1.5451 -0.8547
15722TIP3   OH268656   4.200   4.346   0.341  0.0097  0.3997 -0.5880
15722TIP3    H168657   4.241   4.400   0.273 -2.0002 -0.8992 -3.0168
15722TIP3    H268658   4.264   4.278   0.359 -0.1365 -0.4120 -2.7821
15723TIP3   OH268659   2.633   6.243  16.551 -0.0630  0.3037  0.4106
15723TIP3    H168660   2.554   6.227  16.603 -0.6237 -0.3032 -0.5845
15723TIP3    H268661   2.703   6.200  16.600 -0.2930  1.0763  1.4392
15724TIP3   OH268662   6.651   6.095  12.688  0.0029  0.0090  0.1005
15724TIP3    H168663   6.644   6.003  12.713 -2.5181  0.3348  0.9457
15724TIP3    H268664   6.711   6.133  12.752  0.5007 -0.9001  0.1881
15725TIP3   OH268665   4.712   1.584  14.487 -0.0153 -0.9689 -0.1835
15725TIP3    H168666   4.633   1.578  14.541 -0.5900  2.4977 -0.3770
15725TIP3    H268667   4.681   1.618  14.403  1.6301  0.5681 -0.2336
15726TIP3   OH268668   6.039   0.977  13.426 -0.4068  0.0357 -0.0810
15726TIP3    H168669   5.975   0.922  13.382  0.3871 -1.1233  0.1467
15726TIP3    H268670   6.057   0.932  13.508  0.6707  0.3382 -0.1299
15727TIP3   OH268671   3.668   4.883   4.623 -0.2221 -0.3584 -0.5258
15727TIP3    H168672   3.690   4.824   4.550 -0.7759  1.2510 -2.0427
15727TIP3    H268673   3.753   4.910   4.658  0.0513 -0.7243 -0.8915
15728TIP3   OH268674   6.696   0.466   4.513  0.7214  0.1856 -0.4260
15728TIP3    H168675   6.750   0.388   4.526  0.5961  0.2487  0.4968
15728TIP3    H268676   6.745   0.537   4.556 -0.0772  0.2484  0.4003
15729TIP3   OH268677   1.886   0.098   0.526 -0.3931 -0.2161  0.4518
15729TIP3    H168678   1.941   0.049   0.588 -0.9788 -1.6719 -0.1246
15729TIP3    H268679   1.934   0.094   0.444  0.1747  1.3465  0.6721
15730TIP3   OH268680   0.959   1.110   3.482 -0.3748  0.2059 -0.0559
15730TIP3    H168681   1.012   1.063   3.418  0.1003  0.4156  0.1711
15730TIP3    H268682   0.875   1.122   3.440 -0.8067 -1.6077  0.2135
15731TIP3   OH268683   2.813   2.265  15.697  0.1968  0.1564 -0.1143
15731TIP3    H168684   2.769   2.350  15.702 -0.4991 -0.2607  2.2101
15731TIP3    H268685   2.758   2.213  15.639 -1.3033  0.2910  1.1163
15732TIP3   OH268686   1.894   5.321  14.249  0.4277  0.3434 -0.3600
15732TIP3    H168687   1.871   5.336  14.341  0.7509  3.3056 -0.6770
15732TIP3    H268688   1.810   5.306  14.205  0.3130 -1.7402  0.4319
15733TIP3   OH268689   0.347   0.914  12.889 -0.4316  0.0887 -0.2457
15733TIP3    H168690   0.434   0.906  12.851  0.0431  1.6842  0.4044
15733TIP3    H268691   0.317   0.824  12.901  1.1400 -0.4918 -0.4494
15734TIP3   OH268692   1.622   0.334   3.879  0.0970 -0.6461  0.1305
15734TIP3    H168693   1.572   0.256   3.857  0.5546 -0.8690 -0.1508
15734TIP3    H268694   1.681   0.347   3.804  1.3086 -1.0957  0.9689
15735TIP3   OH268695   2.352   3.354  16.279 -0.0405  0.0646 -0.1936
15735TIP3    H168696   2.349   3.435  16.329 -1.2093  1.2591 -2.0918
15735TIP3    H268697   2.261   3.324  16.275  0.0543 -0.1483 -1.3006
15736TIP3   OH268698   1.015   1.021  16.075  0.2380 -0.0788 -0.5526
15736TIP3    H168699   1.051   0.933  16.086 -2.0818 -0.8718  2.2186
15736TIP3    H268700   0.961   1.016  15.997  0.8915 -0.8023 -0.9680
15737TIP3   OH268701   5.578   2.457  13.043 -0.1232 -0.1093  0.2131
15737TIP3    H168702   5.565   2.428  13.134 -0.3290 -0.5535  0.0453
15737TIP3    H268703   5.556   2.551  13.045 -3.1680 -0.7143  0.0214
15738TIP3   OH268704   2.681   0.909   3.188  0.4454  0.4619 -0.9571
15738TIP3    H168705   2.683   0.814   3.188  0.1405  0.3951  1.3258
15738TIP3    H268706   2.773   0.935   3.197  0.5616  0.4001 -1.9384
15739TIP3   OH268707   4.664   2.056  13.866  0.2325 -0.5722 -0.6107
15739TIP3    H168708   4.587   2.042  13.811  0.5598 -2.7509 -0.5830
15739TIP3    H268709   4.652   1.997  13.940  1.6747 -0.5343 -0.3218
15740TIP3   OH268710   6.348   5.776   0.700  0.3130 -0.6892 -0.0481
15740TIP3    H168711   6.313   5.759   0.788 -1.2015 -1.7622 -0.8017
15740TIP3    H268712   6.424   5.719   0.693 -0.4976 -1.8228  0.0341
15741TIP3   OH268713   1.635   0.913   1.398  0.3882 -0.1608  0.0012
15741TIP3    H168714   1.687   0.861   1.338  0.3898 -0.0887 -0.0606
15741TIP3    H268715   1.696   0.980   1.431  1.2349 -1.9438  2.3479
15742TIP3   OH268716   2.144   1.420   0.900 -0.1489 -0.5020  0.0832
15742TIP3    H168717   2.080   1.454   0.837  2.1187  0.2287 -1.9726
15742TIP3    H268718   2.112   1.333   0.922 -2.0375 -0.0116 -0.5638
15743TIP3   OH268719   5.005   6.128   3.565 -0.4215 -0.8630  0.2747
15743TIP3    H168720   5.100   6.119   3.573 -0.2050 -0.4194 -1.4134
15743TIP3    H268721   4.970   6.069   3.632  1.0336 -0.5075  1.3958
15744TIP3   OH268722   0.194   0.753   4.064  0.2550 -0.5529 -0.3713
15744TIP3    H168723   0.195   0.836   4.016 -1.1372 -0.7022 -0.7172
15744TIP3    H268724   0.250   0.768   4.140 -0.2743  0.8337 -0.2306
15745TIP3   OH268725   3.614   5.348   3.987 -0.2360  0.0854 -0.5168
15745TIP3    H168726   3.665   5.338   3.907 -0.5075 -1.4715 -0.5261
15745TIP3    H268727   3.659   5.417   4.036  1.7234 -0.9920 -0.6680
15746TIP3   OH268728   5.078   5.336  11.141  0.0727  0.2245 -0.2563
15746TIP3    H168729   5.133   5.269  11.181 -0.9867  0.2829  1.4197
15746TIP3    H268730   5.137   5.409  11.124  1.2413 -1.0564 -2.0922
15747TIP3   OH268731   5.325   2.836  15.213 -0.3181  0.2406  0.4863
15747TIP3    H168732   5.252   2.779  15.191 -0.2064 -0.0357  0.8173
15747TIP3    H268733   5.359   2.801  15.296  1.2747 -0.6993 -0.5160
15748TIP3   OH268734   4.774   5.788  15.264  0.5705 -0.0796 -0.0472
15748TIP3    H168735   4.774   5.742  15.347  1.1113 -0.1413 -0.0834
15748TIP3    H268736   4.804   5.876  15.285 -1.2702  0.5539  0.1749
15749TIP3   OH268737   2.666   4.426   5.032  0.0838 -0.4405 -0.1049
15749TIP3    H168738   2.589   4.463   4.989  0.6126  0.4883 -0.2727
15749TIP3    H268739   2.740   4.459   4.981  0.6283 -0.8055  0.4374
15750TIP3   OH268740   4.397   4.708  14.977 -1.0554  0.4103 -0.5033
15750TIP3    H168741   4.438   4.702  15.063  2.8318 -0.7803 -2.2255
15750TIP3    H268742   4.409   4.622  14.938 -3.6585  0.5913 -1.9479
15751TIP3   OH268743   6.401   6.247  12.714  0.4218 -0.2774  0.1306
15751TIP3    H168744   6.470   6.183  12.695 -0.3027 -0.9342 -0.3343
15751TIP3    H268745   6.382   6.235  12.807  0.9136 -0.1021  0.2588
15752TIP3   OH268746   0.441   2.601  14.570 -0.2585 -0.0151 -0.7236
15752TIP3    H168747   0.349   2.622  14.583 -0.1714 -0.0420 -0.0266
15752TIP3    H268748   0.483   2.685  14.551 -0.0057  0.4368  1.5062
15753TIP3   OH268749   5.094   1.069   1.635  0.4050 -0.2055 -0.2521
15753TIP3    H168750   5.130   1.037   1.718 -0.1573 -0.7510 -0.2169
15753TIP3    H268751   5.026   1.006   1.612 -0.8108  1.0057 -0.1194
15754TIP3   OH268752   3.658   2.426   4.389  0.4459  0.1371  0.3976
15754TIP3    H168753   3.732   2.449   4.333 -0.3832  0.5848 -0.5416
15754TIP3    H268754   3.636   2.508   4.434 -0.8955  0.6050 -1.0376
15755TIP3   OH268755   0.236   1.217  14.758 -0.0267 -0.0695 -0.2371
15755TIP3    H168756   0.317   1.260  14.730 -0.0820  0.2091  0.0302
15755TIP3    H268757   0.262   1.127  14.778  0.4791  0.3455  1.0921
15756TIP3   OH268758   4.954   3.201   5.884 -0.3941  0.6662 -0.2078
15756TIP3    H168759   4.953   3.205   5.980 -0.4781  1.6360 -0.2477
15756TIP3    H268760   5.030   3.146   5.864 -0.2997  0.5616  0.4039
15757TIP3   OH268761   4.747   4.737  11.347  0.3101  0.4591  0.0774
15757TIP3    H168762   4.694   4.683  11.405  0.6476 -0.4782 -0.4582
15757TIP3    H268763   4.774   4.677  11.277  1.4480  1.0989 -0.0537
15758TIP3   OH268764   0.687   5.913  13.484 -0.3421  0.3181 -0.1903
15758TIP3    H168765   0.707   6.006  13.496 -0.2282  0.5872 -2.1174
15758TIP3    H268766   0.667   5.905  13.391  1.2039 -1.8644 -0.4142
15759TIP3   OH268767   6.030   4.656   0.416 -0.2264  0.0903 -0.3657
15759TIP3    H168768   6.125   4.639   0.417 -0.2304  0.0595  0.7118
15759TIP3    H268769   5.990   4.571   0.432 -0.2985  0.6016  3.0002
15760TIP3   OH268770   2.674   1.952  12.011  0.3118  0.3515  0.1737
15760TIP3    H168771   2.653   1.979  12.101 -2.7258  0.8524 -0.5836
15760TIP3    H268772   2.655   2.029  11.958 -0.7341 -0.7860 -1.1772
15761TIP3   OH268773   3.671   0.263  15.030 -0.5433  0.1236  0.7634
15761TIP3    H168774   3.642   0.290  15.118 -0.0151  4.3773 -0.1550
15761TIP3    H268775   3.590   0.242  14.983 -0.9494 -0.7344  1.8010
15762TIP3   OH268776   6.355   5.463  13.298  0.2595  0.6701 -0.0038
15762TIP3    H168777   6.354   5.513  13.217 -0.2312  1.0024  0.2046
15762TIP3    H268778   6.442   5.423  13.300  0.7320  1.6595 -0.0859
15763TIP3   OH268779   3.125   5.366   2.362 -0.3055  0.1592  0.4193
15763TIP3    H168780   3.183   5.417   2.306 -0.0136  0.4649  0.9954
15763TIP3    H268781   3.071   5.315   2.301  0.6779 -0.2645 -0.1147
15764TIP3   OH268782   2.194   3.573   4.398 -0.1124 -0.1280 -0.0414
15764TIP3    H168783   2.282   3.558   4.431  0.5842 -0.3262 -1.8400
15764TIP3    H268784   2.176   3.665   4.417  1.4346  0.5566 -1.6453
15765TIP3   OH268785   3.059   0.303   1.364 -0.2819  0.7470 -0.5763
15765TIP3    H168786   2.975   0.281   1.406  0.0345  2.1558  0.9115
15765TIP3    H268787   3.124   0.256   1.416 -0.1346 -0.9388 -2.1776
15766TIP3   OH268788   1.133   2.108  11.467 -0.1233  0.6268 -0.5721
15766TIP3    H168789   1.208   2.141  11.517 -0.0951  0.8023 -0.7285
15766TIP3    H268790   1.131   2.163  11.388  0.4184 -0.2786 -1.2332
15767TIP3   OH268791   2.127   6.467  14.772  0.5030 -0.1699 -0.3119
15767TIP3    H168792   2.087   6.381  14.762 -0.5105  0.1136  0.9633
15767TIP3    H268793   2.135   6.479  14.867  0.3476  1.2509 -0.4565
15768TIP3   OH268794   5.728   2.396   0.731 -0.4320 -0.4722 -0.1222
15768TIP3    H168795   5.641   2.380   0.693 -1.4840 -0.5961  2.1975
15768TIP3    H268796   5.715   2.471   0.789  1.3526  0.3424 -0.7132
15769TIP3   OH268797   5.125   6.405   5.639  0.3977 -0.4993  0.1147
15769TIP3    H168798   5.106   6.439   5.727  0.5010  0.6092 -0.2738
15769TIP3    H268799   5.208   6.358   5.650 -0.5708 -2.0857  1.0047
15770TIP3   OH268800   2.286   2.610   4.385  0.0768 -0.6673 -0.4826
15770TIP3    H168801   2.230   2.663   4.328  0.4858  0.2759 -0.0188
15770TIP3    H268802   2.255   2.627   4.473  0.8400 -0.4349 -0.2507
15771TIP3   OH268803   6.716   3.979  11.392 -0.0045  0.3615  0.0831
15771TIP3    H168804   6.783   4.005  11.455 -0.3074  2.1340 -0.2818
15771TIP3    H268805   6.762   3.980  11.307 -0.0088 -0.4196  0.0602
15772TIP3   OH268806   4.642   2.064  14.623 -0.5011  0.6539  0.4395
15772TIP3    H168807   4.622   2.135  14.562 -1.4305  0.8260  0.9269
15772TIP3    H268808   4.734   2.043  14.606 -0.0249  2.3857  0.7103
15773TIP3   OH268809   6.806   0.446  13.022  0.0089 -0.1357  0.2615
15773TIP3    H168810   6.870   0.460  12.952  0.8126 -3.3604  0.2254
15773TIP3    H268811   6.724   0.431  12.977 -0.7450  3.0679  0.2893
15774TIP3   OH268812   1.888   3.251   3.438  0.6025  0.6738  0.5832
15774TIP3    H168813   1.980   3.234   3.420  0.8930  1.2018  1.4988
15774TIP3    H268814   1.883   3.346   3.450 -0.5412  1.0298 -2.0614
15775TIP3   OH268815   0.513   5.408   2.998 -0.1153 -0.0584  0.1062
15775TIP3    H168816   0.419   5.389   2.994 -0.1181 -0.2050  0.8339
15775TIP3    H268817   0.519   5.487   3.050  0.1404  0.1895 -0.2940
15776TIP3   OH268818   1.700   1.945   2.847  0.2141  0.0468  0.4505
15776TIP3    H168819   1.616   1.949   2.800  0.6261  0.2360 -0.2874
15776TIP3    H268820   1.677   1.913   2.934 -0.6750  0.4527  0.3747
15777TIP3   OH268821   0.776   4.098  12.853 -0.3611  0.3898  0.0868
15777TIP3    H168822   0.844   4.038  12.823 -0.6216 -0.8882  1.8503
15777TIP3    H268823   0.698   4.071  12.805 -1.1727 -2.7024  2.7437
15778TIP3   OH268824   1.277   6.147   0.406  0.8484  0.6066 -0.6145
15778TIP3    H168825   1.349   6.134   0.467 -0.4738 -0.5158  0.8039
15778TIP3    H268826   1.252   6.239   0.417 -0.0462  0.1836  1.4142
15779TIP3   OH268827   2.831   3.620   0.725  0.0687 -0.3796  0.3398
15779TIP3    H168828   2.788   3.579   0.801 -0.6076  1.7106  1.1716
15779TIP3    H268829   2.902   3.672   0.763 -0.1775  0.5668 -0.4628
15780TIP3   OH268830   5.320   5.955  14.300  0.1766 -0.3535 -0.2876
15780TIP3    H168831   5.378   5.892  14.258  0.6726 -0.9026  1.1522
15780TIP3    H268832   5.356   5.966  14.388  0.0947  1.9547 -0.4784
15781TIP3   OH268833   1.871   6.178  13.674  0.0391  0.7044 -0.2568
15781TIP3    H168834   1.939   6.171  13.606 -1.2431  0.2985 -1.5534
15781TIP3    H268835   1.790   6.154  13.629 -0.8134  0.0471  1.5263
15782TIP3   OH268836   5.466   0.337  13.092 -0.4211  0.3553  0.3263
15782TIP3    H168837   5.501   0.334  13.003 -0.7175  1.0707  0.1782
15782TIP3    H268838   5.515   0.270  13.140 -0.0445  0.1828 -0.2966
15783TIP3   OH268839   2.904   3.762   1.145 -0.3052  0.2181  0.5475
15783TIP3    H168840   2.918   3.818   1.221  1.6878  0.4601  0.0625
15783TIP3    H268841   2.960   3.800   1.077  0.5298 -1.9111 -0.0253
15784TIP3   OH268842   3.743   1.597  13.882 -0.1719  0.2269  0.2502
15784TIP3    H168843   3.723   1.666  13.819  2.3838  0.6175 -0.2374
15784TIP3    H268844   3.664   1.590  13.935 -1.5920  1.4364 -1.5706
15785TIP3   OH268845   5.234   4.728   1.247  0.0792  0.1736  0.3393
15785TIP3    H168846   5.225   4.801   1.186 -1.4456 -0.4589 -0.2637
15785TIP3    H268847   5.281   4.661   1.197  1.5587  0.7415  0.9226
15786TIP3   OH268848   6.601   3.851   5.919  0.2962  0.1758 -0.4126
15786TIP3    H168849   6.534   3.805   5.968  0.6136  2.3756  2.3434
15786TIP3    H268850   6.635   3.916   5.980  2.6443  1.3534 -2.7638
15787TIP3   OH268851   0.778   1.152  15.360  0.0888  0.0258  0.0752
15787TIP3    H168852   0.728   1.233  15.369 -0.1966 -0.1767  0.2861
15787TIP3    H268853   0.713   1.082  15.362  0.3207 -0.2061 -0.2541
15788TIP3   OH268854   3.855   2.133  11.060  0.0038 -0.1985 -0.2433
15788TIP3    H168855   3.846   2.136  11.156  2.3825 -1.6438  0.0984
15788TIP3    H268856   3.828   2.045  11.036  2.0873 -0.8135 -0.4953
15789TIP3   OH268857   4.723   5.851   1.453 -0.0296 -0.1560  0.5958
15789TIP3    H168858   4.683   5.924   1.500 -0.7884  1.4892 -2.3231
15789TIP3    H268859   4.808   5.884   1.426  0.7455 -1.3739  1.4679
15790TIP3   OH268860   5.516   1.436   3.049  0.0106  0.6514  0.4722
15790TIP3    H168861   5.540   1.485   2.970 -0.3761  0.9504  0.5350
15790TIP3    H268862   5.588   1.375   3.063 -0.2835  0.0227 -0.5959
15791TIP3   OH268863   6.530   1.014   4.306 -0.2151 -0.5505 -0.1786
15791TIP3    H168864   6.576   1.009   4.390  0.6307 -1.8833 -0.6896
15791TIP3    H268865   6.546   1.103   4.275  1.3967 -0.7450  0.0208
15792TIP3   OH268866   6.229   3.222   3.740 -0.3877 -0.1734  0.1885
15792TIP3    H168867   6.142   3.214   3.700  0.3029 -1.4334 -1.1432
15792TIP3    H268868   6.211   3.230   3.834 -2.0914  3.3793 -0.2666
15793TIP3   OH268869   5.721   3.118  15.656  0.7585 -0.0878 -0.7917
15793TIP3    H168870   5.749   3.153  15.572  0.1730  1.8659 -0.2323
15793TIP3    H268871   5.662   3.185  15.692  1.9166 -0.2609  1.6875
15794TIP3   OH268872   4.225   1.159   2.559 -0.0928 -0.1483 -0.1998
15794TIP3    H168873   4.276   1.115   2.627 -1.4448 -0.3182  0.7380
15794TIP3    H268874   4.168   1.091   2.524  0.3299  0.0264 -1.2855
15795TIP3   OH268875   4.841   0.830   3.483  0.3191  0.0857  0.1100
15795TIP3    H168876   4.821   0.770   3.411  0.0976  1.0345 -0.6431
15795TIP3    H268877   4.776   0.900   3.475  0.9210  0.7180  0.6074
15796TIP3   OH268878   3.137   3.138   5.402 -0.3925 -0.0443  0.3963
15796TIP3    H168879   3.068   3.192   5.441 -1.1006 -0.7097  0.1025
15796TIP3    H268880   3.089   3.067   5.358  0.4839 -0.5110  0.1784
15797TIP3   OH268881   3.418   3.094  11.715  0.1510  0.6347 -0.0995
15797TIP3    H168882   3.379   3.180  11.728  2.4468  1.5620  1.4130
15797TIP3    H268883   3.491   3.109  11.655  0.3975 -0.2914 -0.0493
15798TIP3   OH268884   2.100   4.214   5.456 -0.3732  0.2851  0.3514
15798TIP3    H168885   2.117   4.166   5.376  0.6215  1.6194 -0.2723
15798TIP3    H268886   2.041   4.285   5.430 -0.4321  0.4425  0.8969
15799TIP3   OH268887   3.835   6.495   2.204  0.3016  0.4216 -0.2101
15799TIP3    H168888   3.838   6.458   2.292 -1.1747  1.3521  0.2763
15799TIP3    H268889   3.744   6.484   2.177  0.5596  0.8764 -1.2974
15800TIP3   OH268890   6.148   4.899  15.188  0.8663  0.1314  0.2150
15800TIP3    H168891   6.065   4.896  15.236  1.2321 -0.2072  0.8329
15800TIP3    H268892   6.148   4.818  15.136 -0.2809  1.2565 -1.6689
15801TIP3   OH268893   0.373   6.717   0.186  0.3440  0.4316  0.4299
15801TIP3    H168894   0.417   6.789   0.231  1.0513 -0.0288  0.4926
15801TIP3    H268895   0.290   6.707   0.232 -0.1456  1.7534 -0.1053
15802TIP3   OH268896   5.149   0.274   3.250 -0.3725  0.7439  0.2080
15802TIP3    H168897   5.077   0.301   3.192 -2.5195 -0.4664  2.1638
15802TIP3    H268898   5.179   0.191   3.213  0.3771  1.4643 -0.8671
15803TIP3   OH268899   5.199   5.873  15.359 -0.8706  0.1790 -0.0231
15803TIP3    H168900   5.249   5.798  15.324 -2.7050 -1.4425  0.6491
15803TIP3    H268901   5.248   5.950  15.329  0.2056 -1.2221 -2.1721
15804TIP3   OH268902   2.177   0.490   5.263  0.5132 -0.4920  0.0186
15804TIP3    H168903   2.161   0.567   5.207 -0.9582  0.4730  1.6702
15804TIP3    H268904   2.272   0.487   5.273  0.6271  0.8900 -0.3987
15805TIP3   OH268905   6.055   3.857   5.746  0.6062  0.0394 -0.5924
15805TIP3    H168906   6.002   3.838   5.823  0.1162  0.8994 -0.6992
15805TIP3    H268907   6.122   3.789   5.745 -1.0318 -1.6404 -0.9737
15806TIP3   OH268908   0.269   5.218  15.812  0.1962  0.2082 -0.0716
15806TIP3    H168909   0.278   5.157  15.740 -1.8778  0.0212 -0.2298
15806TIP3    H268910   0.254   5.303  15.771  0.2857  0.3334  0.1488
15807TIP3   OH268911   2.311   6.624   1.283 -0.3835 -0.2853  0.2495
15807TIP3    H168912   2.374   6.552   1.278  1.6915  1.3164  1.8199
15807TIP3    H268913   2.228   6.582   1.308  0.1402 -2.3715 -1.2796
15808TIP3   OH268914   3.482   3.565   3.212 -0.0006  0.5821  0.3209
15808TIP3    H168915   3.550   3.529   3.155 -1.2512  1.1068 -1.6059
15808TIP3    H268916   3.520   3.646   3.247  0.7249  0.3580  0.0735
15809TIP3   OH268917   4.803   0.755   2.971  0.5735 -0.1408 -0.5502
15809TIP3    H168918   4.785   0.826   2.909  0.8390  0.1617 -0.2820
15809TIP3    H268919   4.888   0.776   3.008  0.6235 -0.5636 -0.4147
15810TIP3   OH268920   4.153   5.060   4.691 -0.4141  0.5040  0.2230
15810TIP3    H168921   4.233   5.058   4.745  0.5249  1.5244 -1.0771
15810TIP3    H268922   4.170   4.996   4.622 -0.3885  1.2643 -0.4837
15811TIP3   OH268923   1.007   3.329   3.699  0.5009 -0.6641 -0.0369
15811TIP3    H168924   0.932   3.275   3.674  0.7704 -1.7729  1.4000
15811TIP3    H268925   1.054   3.277   3.764  1.2487  0.9631  0.8041
15812TIP3   OH268926   3.190   1.731  16.156 -0.1954 -0.6453  0.1153
15812TIP3    H168927   3.205   1.729  16.061 -1.5248  0.1884 -0.1332
15812TIP3    H268928   3.217   1.819  16.183 -2.1056  0.0023  0.0679
15813TIP3   OH268929   0.737   4.706  13.864  0.0522  0.0534  0.1479
15813TIP3    H168930   0.741   4.799  13.886  0.2724  0.0570  0.0894
15813TIP3    H268931   0.675   4.669  13.927  1.0840 -0.0458  1.1244
15814TIP3   OH268932   6.697   0.083   1.592  0.0893 -0.1317 -0.5581
15814TIP3    H168933   6.654   0.086   1.677 -0.3216  0.4158 -0.7706
15814TIP3    H268934   6.709  -0.010   1.573  0.1772 -0.2527  0.0899
15815TIP3   OH268935   6.679   3.436  11.265 -0.3353  0.3509 -0.2290
15815TIP3    H168936   6.763   3.474  11.291 -0.1181 -0.5226  0.4061
15815TIP3    H268937   6.702   3.363  11.208 -0.5813 -0.6265  0.8836
15816TIP3   OH268938   1.937   4.964  11.078  0.3736  0.6630  0.1327
15816TIP3    H168939   1.937   4.881  11.030  0.7028  0.9639 -0.4018
15816TIP3    H268940   1.946   4.939  11.170  0.8112  0.1146 -0.0544
15817TIP3   OH268941   1.872   1.533   1.887 -0.0504 -0.0130  0.3643
15817TIP3    H168942   1.843   1.529   1.796 -2.1871  2.0855  0.8465
15817TIP3    H268943   1.823   1.464   1.931 -0.1749 -0.0375  0.1878
15818TIP3   OH268944   3.300   2.219   2.186 -0.1727 -0.5304 -0.7083
15818TIP3    H168945   3.302   2.296   2.130 -0.9474  0.1230  0.1338
15818TIP3    H268946   3.208   2.209   2.210  0.3209  0.1057  1.6617
15819TIP3   OH268947   5.356   5.780  14.947  0.1041 -0.3477  0.1720
15819TIP3    H168948   5.424   5.732  14.900 -1.0643 -1.2226 -0.7134
15819TIP3    H268949   5.333   5.723  15.021 -0.6863 -0.7992 -0.3947
15820TIP3   OH268950   1.420   2.162  16.061  0.3579 -0.0628 -0.1941
15820TIP3    H168951   1.458   2.179  15.975 -0.1820 -0.0913 -0.4394
15820TIP3    H268952   1.381   2.245  16.088 -0.0743 -0.2373 -0.2797
15821TIP3   OH268953   3.921   6.123  15.460 -0.1348  0.3508  0.0223
15821TIP3    H168954   3.971   6.183  15.515  1.3136 -0.1993 -0.6292
15821TIP3    H268955   3.834   6.122  15.498  0.2477  1.6193  1.0046
15822TIP3   OH268956   0.413   6.792   3.806 -0.0252 -0.6200 -0.6295
15822TIP3    H168957   0.436   6.866   3.750 -1.3821  0.0165 -0.3971
15822TIP3    H268958   0.387   6.832   3.889  0.1723 -1.4274 -0.1658
15823TIP3   OH268959   2.853   5.714   5.689  0.1291  0.1561  0.7010
15823TIP3    H168960   2.799   5.783   5.728 -1.1935 -0.9769  0.9699
15823TIP3    H268961   2.879   5.660   5.764 -2.0182 -1.7612  0.1750
15824TIP3   OH268962   2.729   4.999   1.370  0.2627  0.1958  0.4561
15824TIP3    H168963   2.696   4.988   1.459  2.1351  0.5359  1.2461
15824TIP3    H268964   2.818   4.965   1.373  0.6355  0.9360 -1.0968
15825TIP3   OH268965   1.248   3.888   0.099 -0.0724 -0.3703 -0.4755
15825TIP3    H168966   1.280   3.809   0.057  3.5733 -0.6506  2.3247
15825TIP3    H268967   1.316   3.954   0.083  0.1910  0.2293  2.5063
15826TIP3   OH268968   6.425   4.577  13.758 -0.7319  0.3348 -0.4583
15826TIP3    H168969   6.426   4.594  13.853 -0.3526  0.7634 -0.5387
15826TIP3    H268970   6.392   4.658  13.720  1.0445  0.9026 -0.8463
15827TIP3   OH268971   3.134   5.918   4.670  0.0663 -0.5617  0.3001
15827TIP3    H168972   3.143   6.006   4.708  2.1159 -0.7758  0.4012
15827TIP3    H268973   3.064   5.927   4.605 -1.0175  0.6801  1.5664
15828TIP3   OH268974   5.379   3.601   5.664 -0.3996  0.2874 -0.6504
15828TIP3    H168975   5.342   3.595   5.753  2.2273 -0.9769  0.4748
15828TIP3    H268976   5.419   3.515   5.650 -0.3134  0.6541 -2.8810
15829TIP3   OH268977   6.468   0.183  16.578  0.0838  0.0926 -0.3446
15829TIP3    H168978   6.445   0.095  16.608 -1.4209  0.7262  0.4584
15829TIP3    H268979   6.498   0.228  16.657 -2.2611  1.2526 -0.0333
15830TIP3   OH268980   5.629   4.146  16.732 -0.7902  0.5621 -0.4301
15830TIP3    H168981   5.657   4.211  16.797 -0.6164  0.2292 -0.1729
15830TIP3    H268982   5.567   4.194  16.676  1.0793  1.6664 -1.6907
15831TIP3   OH268983   5.115   3.199  16.430  0.2548 -0.0220  0.2916
15831TIP3    H168984   5.156   3.122  16.392 -0.5334  0.2440 -1.1844
15831TIP3    H268985   5.051   3.227  16.365  0.2352  1.6524  0.9696
15832TIP3   OH268986   6.566   2.479  14.878 -0.0403 -0.2881 -0.3445
15832TIP3    H168987   6.660   2.498  14.886  1.0401 -3.2673 -3.4565
15832TIP3    H268988   6.541   2.447  14.965  1.1267  2.6512  1.2170
15833TIP3   OH268989   2.853   5.334   1.702  0.0109  0.3823 -0.2083
15833TIP3    H168990   2.847   5.403   1.635  0.8620  0.2110 -0.4831
15833TIP3    H268991   2.786   5.356   1.766 -0.5627  0.7720 -0.9236
15834TIP3   OH268992   6.226   1.057  17.046 -0.3618  0.0933 -0.3094
15834TIP3    H168993   6.216   1.046  17.140 -1.5324 -1.8340 -0.6205
15834TIP3    H268994   6.217   0.969  17.010 -0.2214  0.8288 -2.2619
15835TIP3   OH268995   6.561   6.566  15.595  0.3710 -0.6818 -0.2838
15835TIP3    H168996   6.522   6.653  15.605 -0.4093 -0.7202 -2.5010
15835TIP3    H268997   6.646   6.583  15.553  1.2582 -0.8603  1.3666
15836TIP3   OH268998   6.181   4.425  16.785 -0.1687 -0.3056 -0.6085
15836TIP3    H168999   6.124   4.485  16.738 -0.1799 -0.0790 -0.3127
15836TIP3    H269000   6.257   4.415  16.728 -0.0837  0.1411 -0.5796
15837TIP3   OH269001   1.458   4.709  14.517  0.1972  0.1696 -0.4369
15837TIP3    H169002   1.530   4.706  14.581 -1.3101 -0.3640  1.3171
15837TIP3    H269003   1.400   4.778  14.550 -1.2520 -0.9824 -0.4784
15838TIP3   OH269004   0.879   2.201  12.571 -0.1543 -0.4744  0.3535
15838TIP3    H169005   0.848   2.118  12.608 -1.4799  0.0276  0.4303
15838TIP3    H269006   0.904   2.179  12.482 -1.1158 -0.8517  0.1583
15839TIP3   OH269007   0.192   0.445  15.606  0.1597  0.3289  0.6702
15839TIP3    H169008   0.274   0.452  15.654  0.2620  0.7751  0.4321
15839TIP3    H269009   0.203   0.503  15.530 -0.0946 -0.1786  0.2418
15840TIP3   OH269010   3.353   5.944   3.823  0.1840  0.0658  0.3504
15840TIP3    H169011   3.335   5.890   3.899  0.9016  0.2481  0.6546
15840TIP3    H269012   3.417   5.895   3.772 -0.4591 -0.1612 -0.2637
15841TIP3   OH269013   2.217   6.389  15.967  0.1418 -0.0915 -0.2387
15841TIP3    H169014   2.309   6.388  15.943  0.4710 -0.5961  0.9514
15841TIP3    H269015   2.173   6.342  15.896  0.7112  0.6379 -1.0917
15842TIP3   OH269016   2.584   2.507  11.176  0.1189 -0.6736 -0.1916
15842TIP3    H169017   2.622   2.529  11.261  1.8299 -0.7486 -0.8922
15842TIP3    H269018   2.550   2.418  11.187 -1.6654  0.1022  0.9999
15843TIP3   OH269019   4.474   2.919  14.188  0.4387  0.6993 -0.0354
15843TIP3    H169020   4.540   2.852  14.171 -0.4222 -1.0032  2.7156
15843TIP3    H269021   4.391   2.876  14.170 -0.1619  0.7008  2.3735
15844TIP3   OH269022   1.004   4.475  15.801  0.2269 -0.7426  0.0030
15844TIP3    H169023   1.051   4.474  15.885 -1.0167  0.5903  0.7582
15844TIP3    H269024   1.060   4.426  15.742  4.1783  3.2204 -0.0485
15845TIP3   OH269025   0.496   1.395   4.321 -0.5183  0.4722 -0.1104
15845TIP3    H169026   0.496   1.363   4.231 -0.2596 -3.5220  1.1332
15845TIP3    H269027   0.404   1.418   4.338 -1.1284 -1.3820 -0.6530
15846TIP3   OH269028   0.575   0.639  12.531 -0.1644 -0.4671  0.2913
15846TIP3    H169029   0.561   0.590  12.612 -1.8357 -0.3389  0.1137
15846TIP3    H269030   0.658   0.605  12.496 -0.3672 -1.8560  1.0991
15847TIP3   OH269031   3.190   6.487   2.324  0.0533  0.6197  0.2096
15847TIP3    H169032   3.267   6.519   2.277  0.3914 -0.5834 -0.0778
15847TIP3    H269033   3.153   6.566   2.364  1.3619  1.2435  0.2636
15848TIP3   OH269034   5.573   1.989   1.382  0.3261 -0.7152 -0.3685
15848TIP3    H169035   5.592   1.910   1.434 -1.3961 -1.5006 -0.8431
15848TIP3    H269036   5.578   1.959   1.291 -1.0778 -0.4990 -0.5418
15849TIP3   OH269037   4.132   0.882  11.907  0.3025 -0.3423 -0.4651
15849TIP3    H169038   4.158   0.815  11.844  0.1528 -0.4986 -0.3639
15849TIP3    H269039   4.162   0.849  11.992 -1.3029 -1.1354 -0.1663
15850TIP3   OH269040   0.697   0.897  12.541 -0.2425  0.1104  0.0812
15850TIP3    H169041   0.668   0.809  12.518  2.5865 -0.7666 -0.5189
15850TIP3    H269042   0.691   0.900  12.637 -0.4036 -0.7314  0.1056
15851TIP3   OH269043   3.739   0.177  16.655 -0.5663  0.3320  0.5257
15851TIP3    H169044   3.760   0.099  16.706 -0.3319 -0.3457 -0.5822
15851TIP3    H269045   3.647   0.194  16.676 -0.2063  0.6838  1.9464
15852TIP3   OH269046   2.023   3.545  13.857 -0.5149  0.4697  0.2103
15852TIP3    H169047   1.996   3.620  13.911  1.2995  2.4616 -1.4490
15852TIP3    H269048   1.994   3.567  13.769 -0.2884 -0.9959 -0.2557
15853TIP3   OH269049   6.301   1.493   4.873 -0.5207  0.5912  0.5336
15853TIP3    H169050   6.368   1.562   4.879 -1.1527  1.4935 -1.6165
15853TIP3    H269051   6.341   1.425   4.819 -1.0156  0.7267 -0.0100
15854TIP3   OH269052   6.097   4.457   1.556 -0.3360  0.1739 -0.1444
15854TIP3    H169053   6.101   4.361   1.550  2.5745  0.1802 -0.0390
15854TIP3    H269054   6.007   4.479   1.532 -1.0571 -2.5544 -0.3432
15855TIP3   OH269055   6.148   2.835  13.788  0.0768  0.0884 -0.2461
15855TIP3    H169056   6.128   2.818  13.880 -1.6179  0.2234 -0.5578
15855TIP3    H269057   6.201   2.915  13.789  0.6723 -0.2981  0.6400
15856TIP3   OH269058   1.545   6.541   1.311 -0.3472  0.3234  0.6487
15856TIP3    H169059   1.479   6.563   1.246 -0.7936 -0.2317  0.9079
15856TIP3    H269060   1.509   6.572   1.394 -0.0921  0.3970  0.7328
15857TIP3   OH269061   2.398   5.231   0.942 -0.3924  0.2484 -0.0099
15857TIP3    H169062   2.436   5.260   1.025 -0.7628  1.4648 -0.2509
15857TIP3    H269063   2.413   5.304   0.882 -2.1698  0.3191 -0.4018
15858TIP3   OH269064   0.783   5.316   3.060  0.5246 -0.2786 -0.2431
15858TIP3    H169065   0.826   5.302   2.975  0.0593  1.9328 -0.9114
15858TIP3    H269066   0.691   5.330   3.038  0.5476  1.2126  0.5189
15859TIP3   OH269067   2.922   5.123   5.372  0.3471 -0.1022  0.2570
15859TIP3    H169068   2.914   5.107   5.278  0.8123 -0.5520  0.2874
15859TIP3    H269069   2.849   5.182   5.393 -0.7006 -1.2287 -0.1017
15860TIP3   OH269070   0.878   1.151   2.961  0.3699  0.5577 -0.6959
15860TIP3    H169071   0.844   1.149   2.871 -0.0880  0.0673 -0.5176
15860TIP3    H269072   0.835   1.227   3.001  0.2138  0.5009 -0.7547
15861TIP3   OH269073   0.797   0.926   0.425  0.3029 -0.3005  0.2213
15861TIP3    H169074   0.883   0.905   0.387  0.2168 -1.2538  0.5355
15861TIP3    H269075   0.797   1.022   0.432  1.0186 -0.2338 -0.5330
15862TIP3   OH269076   5.990   4.316  16.212  0.3047 -0.2632  0.5017
15862TIP3    H169077   5.999   4.310  16.307  1.9009 -1.5844  0.3230
15862TIP3    H269078   5.903   4.282  16.193 -0.9727  2.1405  1.6096
15863TIP3   OH269079   3.473   4.590   3.791  0.3354  0.0022 -0.1373
15863TIP3    H169080   3.534   4.575   3.864 -1.3176 -0.5239  1.1874
15863TIP3    H269081   3.515   4.546   3.716  1.2668 -0.9605  0.9072
15864TIP3   OH269082   5.981   2.093   5.898 -0.1915  0.2118 -0.3107
15864TIP3    H169083   5.985   2.060   5.988  1.6288 -0.1389 -0.4802
15864TIP3    H269084   5.887   2.100   5.879 -0.6333 -1.6695  0.9047
15865TIP3   OH269085   3.603   2.435  14.970 -0.0864 -0.5686 -0.0076
15865TIP3    H169086   3.599   2.475  14.883 -1.4974  0.8826  0.6785
15865TIP3    H269087   3.694   2.445  14.997 -0.4554  2.7617  0.3474
15866TIP3   OH269088   3.237   2.541   5.001  0.5238  0.3757  0.2433
15866TIP3    H169089   3.314   2.539   5.057  0.3061 -0.2473  0.5236
15866TIP3    H269090   3.241   2.626   4.957 -0.0317  1.4852  2.2264
15867TIP3   OH269091   6.745   4.723  16.006 -0.1350  0.2324 -0.6697
15867TIP3    H169092   6.713   4.813  15.995 -1.1168 -0.2039 -1.5968
15867TIP3    H269093   6.826   4.720  15.955  1.4772  1.3473  1.6822
15868TIP3   OH269094   0.505   1.585  16.195  0.3219 -0.1829 -1.0593
15868TIP3    H169095   0.416   1.596  16.161  1.0788 -0.9768 -3.5236
15868TIP3    H269096   0.501   1.620  16.284 -2.0931  1.1262 -1.5864
15869TIP3   OH269097   3.974   1.479  12.480  0.1025  0.3823 -0.2434
15869TIP3    H169098   3.961   1.385  12.493  0.6683  0.1967 -0.9559
15869TIP3    H269099   3.989   1.488  12.386  1.3318  1.0136 -0.0022
15870TIP3   OH269100   4.083   4.178   0.962 -0.0619 -0.1287  0.6926
15870TIP3    H169101   4.170   4.213   0.944  0.7719 -2.4974 -0.3731
15870TIP3    H269102   4.091   4.140   1.050  0.2224 -0.9672  0.3127
15871TIP3   OH269103   2.580   3.847  13.234 -0.0062  0.4131 -0.3867
15871TIP3    H169104   2.594   3.851  13.328  0.2141  0.9547 -0.4407
15871TIP3    H269105   2.659   3.806  13.199  0.4438  1.3093 -0.4509
15872TIP3   OH269106   3.633   0.847   5.059 -0.0589 -0.5287  0.0584
15872TIP3    H169107   3.586   0.801   5.127  1.6128 -0.6327  1.2040
15872TIP3    H269108   3.705   0.789   5.035  1.7901  1.1755  1.1677
15873TIP3   OH269109   2.194   4.470   3.810 -0.5017  0.0611  0.1217
15873TIP3    H169110   2.189   4.405   3.740  0.2441  0.5572 -0.4032
15873TIP3    H269111   2.247   4.541   3.774 -1.7501  1.2259  0.4711
15874TIP3   OH269112   1.429   0.811   0.623  0.1185 -0.5535  0.2434
15874TIP3    H169113   1.445   0.744   0.557  1.4536 -0.0826  0.0601
15874TIP3    H269114   1.453   0.770   0.706  0.0635 -0.6004  0.2358
15875TIP3   OH269115   2.461   2.983  16.463 -0.5900 -0.2747  0.3788
15875TIP3    H169116   2.497   2.944  16.543  0.6498 -1.6364 -0.7808
15875TIP3    H269117   2.367   2.967  16.469 -0.6863  0.7270  2.1027
15876TIP3   OH269118   5.984   2.034  12.095 -0.0256 -0.5422  0.1020
15876TIP3    H169119   6.010   2.120  12.061  1.0661 -0.6231  0.6894
15876TIP3    H269120   6.007   1.973  12.025 -1.4083 -0.3104 -0.5879
15877TIP3   OH269121   6.743   4.544   2.274 -0.5695  0.4252  0.3631
15877TIP3    H169122   6.799   4.542   2.197  1.4667 -0.2607  1.7707
15877TIP3    H269123   6.762   4.629   2.315  0.7739 -0.4637  1.7049
15878TIP3   OH269124   2.227   5.063   3.661  0.0253  0.7831  0.0279
15878TIP3    H169125   2.181   5.065   3.577  1.8414 -1.3456 -1.1049
15878TIP3    H269126   2.275   5.146   3.664  1.5528  0.0672 -2.0843
15879TIP3   OH269127   3.239   2.380  13.406  0.0858 -0.1529 -0.7026
15879TIP3    H169128   3.326   2.355  13.373 -0.2388  0.6492 -2.2432
15879TIP3    H269129   3.247   2.473  13.424 -0.9912  0.3765 -2.7574
15880TIP3   OH269130   6.135   3.511  11.728  0.5473  0.5981 -0.2168
15880TIP3    H169131   6.129   3.513  11.632 -1.3840 -0.5509 -0.1803
15880TIP3    H269132   6.055   3.555  11.757  0.6912  0.1674  0.8515
15881TIP3   OH269133   5.662   2.390  15.795  0.2319 -0.1544 -0.0171
15881TIP3    H169134   5.701   2.382  15.882 -0.1346 -0.2060  0.1408
15881TIP3    H269135   5.574   2.354  15.804  0.2859 -0.4045 -0.4727
15882TIP3   OH269136   4.841   1.739   3.200 -0.2078 -0.6722 -0.0712
15882TIP3    H169137   4.909   1.742   3.133 -1.8795 -2.7814 -2.0080
15882TIP3    H269138   4.794   1.822   3.191 -0.6038 -1.0406 -1.8338
15883TIP3   OH269139   3.929   0.791  11.652  0.1459  0.4944 -0.3193
15883TIP3    H169140   3.962   0.880  11.667  1.4233 -0.2566  1.6622
15883TIP3    H269141   3.952   0.772  11.561 -1.6140  2.7373 -1.3416
15884TIP3   OH269142   3.868   5.673   3.836 -0.0789 -0.0390  0.0071
15884TIP3    H169143   3.853   5.618   3.913  0.8110  0.3897  0.5085
15884TIP3    H269144   3.933   5.625   3.785  0.6310  0.4930  0.3998
15885TIP3   OH269145   2.696   2.347  14.238  0.0314  0.4355 -0.1214
15885TIP3    H169146   2.620   2.290  14.230  1.4637 -1.4872 -0.7696
15885TIP3    H269147   2.765   2.303  14.188  1.5234  2.2031  0.2624
15886TIP3   OH269148   5.372   6.413   1.948  0.6427  0.2240 -0.3593
15886TIP3    H169149   5.303   6.431   1.884  0.6618  0.4748 -0.3095
15886TIP3    H269150   5.418   6.336   1.913 -1.8096 -2.2036  1.2954
15887TIP3   OH269151   1.541   6.495   5.208  0.0091 -0.1624 -0.4844
15887TIP3    H169152   1.479   6.463   5.143 -1.8767  0.2841  1.0130
15887TIP3    H269153   1.617   6.438   5.199 -0.8425 -1.1226 -1.9672
15888TIP3   OH269154   5.107   5.141  13.003  0.3796 -0.2942  0.1526
15888TIP3    H169155   5.107   5.180  12.916 -0.0095 -1.3577 -0.3419
15888TIP3    H269156   5.127   5.213  13.062  2.1265  0.1589 -0.9343
15889TIP3   OH269157   0.468   1.760   2.065  0.0011 -0.3849  0.1382
15889TIP3    H169158   0.406   1.734   1.996 -0.9707 -3.9961  2.1211
15889TIP3    H269159   0.550   1.715   2.042  0.2975  0.0819  0.2733
15890TIP3   OH269160   0.478   5.443   4.097 -0.0815 -1.1183  0.0027
15890TIP3    H169161   0.568   5.459   4.069  0.1001 -0.2355  1.0098
15890TIP3    H269162   0.446   5.374   4.039  0.1540  0.7923 -2.5591
15891TIP3   OH269163   2.442   5.387  13.593 -0.2264  0.0603  0.0487
15891TIP3    H169164   2.494   5.457  13.553  0.0723 -0.7268 -0.9744
15891TIP3    H269165   2.504   5.315  13.605 -0.6148 -0.1622  0.7617
15892TIP3   OH269166   5.580   1.604  10.529  0.1648  0.1168  0.3089
15892TIP3    H169167   5.543   1.544  10.464 -0.0586 -0.4089  0.9113
15892TIP3    H269168   5.675   1.592  10.522  0.1660  0.4634 -0.2939
15893TIP3   OH269169   1.530   1.306   3.555 -0.0161 -0.0323 -0.0967
15893TIP3    H169170   1.494   1.332   3.470 -1.1171 -0.1461  0.3213
15893TIP3    H269171   1.457   1.316   3.616  1.1529  1.5881  1.1505
15894TIP3   OH269172   2.266   2.306  16.264  0.2569 -0.3268  0.0900
15894TIP3    H169173   2.243   2.367  16.334  1.2244 -0.1530  0.2775
15894TIP3    H269174   2.303   2.361  16.195 -1.0795 -0.4496 -0.7528
15895TIP3   OH269175   3.277   1.574   3.252  0.0864  0.2979 -0.1113
15895TIP3    H169176   3.261   1.481   3.265  1.5446  0.3446  2.7904
15895TIP3    H269177   3.372   1.583   3.259  0.0009  1.9594 -0.7277
15896TIP3   OH269178   6.208   3.005   4.779  0.4605 -0.1294  0.0498
15896TIP3    H169179   6.291   3.034   4.816  0.0321 -0.7536  1.5840
15896TIP3    H269180   6.176   3.080   4.729  2.4128 -0.2345 -1.4450
15897TIP3   OH269181   2.663   2.035   3.323  0.0153  0.7357 -0.5586
15897TIP3    H169182   2.683   1.981   3.399 -1.0508  0.8316 -0.1857
15897TIP3    H269183   2.679   2.125   3.352  1.1247  0.6872 -0.9621
15898TIP3   OH269184   0.909   1.603   4.166 -0.0979 -0.0178 -0.2546
15898TIP3    H169185   0.957   1.619   4.248 -1.1949 -1.4811  0.7193
15898TIP3    H269186   0.826   1.649   4.178 -2.0830 -3.5738  1.3846
15899TIP3   OH269187   4.202   1.684  14.142  0.3626 -0.7636 -0.3893
15899TIP3    H169188   4.283   1.690  14.090  0.2179 -0.5609 -0.5940
15899TIP3    H269189   4.224   1.624  14.213  1.2963  0.7533  0.6684
15900TIP3   OH269190   4.132   3.357  12.558  0.1541  0.3355 -0.0852
15900TIP3    H169191   4.094   3.415  12.491  1.1137  0.6601 -0.3643
15900TIP3    H269192   4.224   3.383  12.563  0.1475  0.1646  1.2195
15901TIP3   OH269193   3.265   3.951  15.037  0.0913  0.0269 -0.1540
15901TIP3    H169194   3.185   3.931  14.987 -1.6056  1.1477  1.9574
15901TIP3    H269195   3.308   4.019  14.986 -1.1576  0.5609 -0.5243
15902TIP3   OH269196   3.290   2.074  15.962 -1.2325  0.3372 -0.0470
15902TIP3    H169197   3.325   2.138  15.900 -1.4305 -0.8827 -1.4725
15902TIP3    H269198   3.196   2.072  15.943 -1.3312  0.1328  0.4638
15903TIP3   OH269199   1.885   0.818  12.595 -0.2783  0.3791 -0.1992
15903TIP3    H169200   1.907   0.838  12.686 -0.4853 -2.6190  0.6007
15903TIP3    H269201   1.794   0.787  12.599 -0.4332  0.6128 -1.5233
15904TIP3   OH269202   3.919   1.794   5.476  0.7004  0.1898  0.1474
15904TIP3    H169203   3.957   1.781   5.563  0.9154 -1.1373 -0.1126
15904TIP3    H269204   3.913   1.705   5.440  1.7537  0.8061 -1.6639
15905TIP3   OH269205   5.318   6.593   4.193  0.0667 -0.0694  0.6829
15905TIP3    H169206   5.359   6.574   4.277  2.0033  0.3720 -0.1219
15905TIP3    H269207   5.326   6.688   4.183 -0.5247 -0.0636  0.1708
15906TIP3   OH269208   0.732   0.372   5.278 -0.7360 -0.1588 -0.4747
15906TIP3    H169209   0.643   0.379   5.244 -1.5357 -0.6555  1.4405
15906TIP3    H269210   0.775   0.453   5.248 -1.4379 -0.4257 -2.3683
15907TIP3   OH269211   5.231   6.330   1.512 -0.2356 -0.0596  0.1414
15907TIP3    H169212   5.249   6.238   1.528  1.6778  0.1443 -0.6369
15907TIP3    H269213   5.151   6.330   1.459  1.3937 -1.5109 -2.5437
15908TIP3   OH269214   6.400   1.294   3.282 -0.6108 -0.8046  0.4907
15908TIP3    H169215   6.384   1.248   3.200  2.1942  0.1462 -0.7197
15908TIP3    H269216   6.313   1.310   3.318 -1.9433 -1.4100 -2.1985
15909TIP3   OH269217   3.982   0.794   3.968 -0.1682  0.4246  0.0231
15909TIP3    H169218   3.988   0.699   3.970 -0.8556  0.3854  0.4332
15909TIP3    H269219   4.004   0.822   4.057 -0.3795  0.6190  0.0160
15910TIP3   OH269220   5.191   2.243  10.681 -0.2005  0.1132 -0.0166
15910TIP3    H169221   5.163   2.310  10.742 -0.9795  1.1291 -1.4406
15910TIP3    H269222   5.257   2.286  10.627 -0.0089 -0.5634 -0.3365
15911TIP3   OH269223   4.856   4.937  15.404 -0.4329  0.0641  0.6110
15911TIP3    H169224   4.795   4.970  15.470 -1.6544 -0.8619 -0.0021
15911TIP3    H269225   4.803   4.927  15.325  0.0344 -2.4444  0.5134
15912TIP3   OH269226   5.119   1.040  15.189 -0.4283  0.3500  0.8881
15912TIP3    H169227   5.040   0.989  15.207 -0.7369  0.2992 -0.4715
15912TIP3    H269228   5.138   1.022  15.097  1.1020  0.4678  1.1607
15913TIP3   OH269229   6.390   3.172   4.423 -0.3238  0.4860 -0.0805
15913TIP3    H169230   6.461   3.235   4.414 -0.6261  1.3742  2.7243
15913TIP3    H269231   6.430   3.097   4.466 -0.3748 -0.5360 -1.7328
15914TIP3   OH269232   4.155   5.062  14.528  0.1044  0.6378 -0.0433
15914TIP3    H169233   4.158   5.156  14.508 -0.5294  1.1084  1.8097
15914TIP3    H269234   4.214   5.022  14.464  0.5653  2.3222 -0.7420
15915TIP3   OH269235   5.074   3.908  10.909 -0.3840  0.2123 -0.4248
15915TIP3    H169236   5.037   3.822  10.930  1.1176 -0.1218  1.1083
15915TIP3    H269237   5.169   3.893  10.909  0.0119  2.2049  1.6270
15916TIP3   OH269238   2.541   0.455   5.420 -0.4937  0.5648  0.0503
15916TIP3    H169239   2.502   0.368   5.431 -3.0223  1.5148 -0.5374
15916TIP3    H269240   2.522   0.478   5.329  1.9157  0.9752 -0.4076
15917TIP3   OH269241   3.349   6.389   0.865  0.6310  0.3353 -0.6256
15917TIP3    H169242   3.275   6.446   0.845  0.1103 -0.6465 -1.6107
15917TIP3    H269243   3.399   6.385   0.783  1.1781  0.1372 -0.2868
15918TIP3   OH269244   2.735   0.955   0.751 -0.4038  0.1150 -1.2956
15918TIP3    H169245   2.711   1.027   0.809 -0.7403  0.1400 -1.4598
15918TIP3    H269246   2.817   0.920   0.787 -0.4321  0.3464 -1.0066
15919TIP3   OH269247   6.783   4.503   3.063 -0.2116 -0.1642  0.5158
15919TIP3    H169248   6.809   4.579   3.115  2.1322 -0.6248  0.1203
15919TIP3    H269249   6.821   4.429   3.109 -1.2279 -0.9694  0.0924
15920TIP3   OH269250   3.235   4.551   4.772  0.0700  0.1991  0.2485
15920TIP3    H169251   3.170   4.504   4.719 -0.5618  2.0338 -0.7020
15920TIP3    H269252   3.294   4.590   4.708  0.0486  1.4030  0.9239
15921TIP3   OH269253   6.650   3.142   1.081  0.2416  0.0408  0.0554
15921TIP3    H169254   6.710   3.171   1.012 -0.8344 -0.9781 -1.3747
15921TIP3    H269255   6.605   3.222   1.109  2.1466  0.8075  1.0995
15922TIP3   OH269256   6.201   4.233  12.967  0.5561  0.1836 -0.2751
15922TIP3    H169257   6.138   4.167  12.997  1.6901 -1.3963 -1.2390
15922TIP3    H269258   6.181   4.246  12.875  0.1749  1.4405 -0.0432
15923TIP3   OH269259   4.218   5.841  15.030  0.3024  0.4476 -0.6972
15923TIP3    H169260   4.308   5.822  15.002  0.0329 -1.3751 -0.4300
15923TIP3    H269261   4.196   5.770  15.090 -0.0893  2.7344  2.0814
15924TIP3   OH269262   5.334   2.988  16.323  0.0538 -0.4097 -0.2997
15924TIP3    H169263   5.418   3.029  16.303 -0.7257  1.3582 -0.1489
15924TIP3    H269264   5.339   2.902  16.282  2.3124 -0.7667  0.5729
15925TIP3   OH269265   2.393   2.226   5.755 -0.0334 -0.3431 -0.3768
15925TIP3    H169266   2.312   2.232   5.807 -0.6703 -0.8812 -1.2642
15925TIP3    H269267   2.393   2.304   5.701  1.2882  0.8775  1.2850
15926TIP3   OH269268   3.411   5.364  13.282 -0.2164 -0.1701 -0.7005
15926TIP3    H169269   3.363   5.298  13.232  2.2392 -2.1094 -0.7205
15926TIP3    H269270   3.449   5.315  13.356  1.3319  1.2921 -0.4659
15927TIP3   OH269271   4.829   1.012   6.513  0.3092 -0.0568  0.2146
15927TIP3    H169272   4.906   1.068   6.521  0.7281 -0.6308  0.2648
15927TIP3    H269273   4.800   1.024   6.423  0.0941  0.6222  0.3688
15928TIP3   OH269274   2.291   2.642   0.278 -0.4576  0.4416 -0.5043
15928TIP3    H169275   2.336   2.667   0.197 -0.2347 -0.9403 -0.8421
15928TIP3    H269276   2.198   2.660   0.260 -0.2107  1.9722 -0.3287
15929TIP3   OH269277   1.761   1.302   1.980  0.7338 -0.2622  0.2916
15929TIP3    H169278   1.673   1.276   1.955  0.9048 -0.5347 -0.0403
15929TIP3    H269279   1.776   1.260   2.065 -0.1286  1.2658  1.2540
15930TIP3   OH269280   5.285   1.360   5.258 -0.6886  0.0827 -0.0063
15930TIP3    H169281   5.191   1.356   5.240 -0.3961  0.4614 -1.8671
15930TIP3    H269282   5.326   1.347   5.172  0.9962 -1.4200  0.9546
15931TIP3   OH269283   6.183   0.391  13.058 -0.2315 -0.1513 -0.0534
15931TIP3    H169284   6.167   0.473  13.104  0.7958  0.6525 -1.0848
15931TIP3    H269285   6.112   0.386  12.993  0.9907  1.1233 -1.5564
15932TIP3   OH269286   0.087   5.216   2.136  0.0440 -0.3277 -0.2316
15932TIP3    H169287   0.159   5.160   2.162 -0.7211 -1.3936 -0.3458
15932TIP3    H269288   0.040   5.234   2.218 -0.4979 -1.0071 -0.3818
15933TIP3   OH269289   5.939   2.597   6.560  0.0172 -0.2865 -0.1568
15933TIP3    H169290   5.975   2.543   6.631  0.2189  1.3566  1.0425
15933TIP3    H269291   5.914   2.679   6.603  0.1973  0.7891 -2.0169
15934TIP3   OH269292   3.156   4.724   1.631 -0.3255  0.1346  0.2761
15934TIP3    H169293   3.138   4.644   1.681 -0.2193 -0.5837 -0.8030
15934TIP3    H269294   3.120   4.707   1.544 -0.0744  1.1709 -0.0462
15935TIP3   OH269295   2.612   2.718  15.167 -0.3602  0.1637  0.3169
15935TIP3    H169296   2.689   2.776  15.161  0.8122 -1.4753 -1.7179
15935TIP3    H269297   2.544   2.765  15.119  0.1801  0.4590 -0.1808
15936TIP3   OH269298   2.340   4.067   2.908  0.4848 -0.3367  0.0272
15936TIP3    H169299   2.360   4.007   2.837  0.6076 -2.3659  1.6637
15936TIP3    H269300   2.247   4.053   2.926  0.4165  0.2624  0.1677
15937TIP3   OH269301   0.157   0.412  14.254 -0.3481 -0.1356 -0.5277
15937TIP3    H169302   0.113   0.355  14.190 -0.2933 -0.1960 -0.5119
15937TIP3    H269303   0.240   0.368  14.271 -0.3709 -0.1292 -0.4003
15938TIP3   OH269304   3.773   2.276   3.269  0.2412  0.0480 -0.0335
15938TIP3    H169305   3.707   2.249   3.333 -1.2204  0.2951 -1.3786
15938TIP3    H269306   3.849   2.301   3.322 -0.9018  0.2383  1.5902
15939TIP3   OH269307   0.217   3.418  16.719 -0.6103 -0.1339  0.9595
15939TIP3    H169308   0.240   3.404  16.627 -1.4969 -0.5145  0.7799
15939TIP3    H269309   0.287   3.375  16.768 -0.0816  0.1516  0.4662
15940TIP3   OH269310   6.693   4.778   2.499 -0.4330  0.7541 -0.1914
15940TIP3    H169311   6.606   4.749   2.473  0.9440 -1.6437 -2.5523
15940TIP3    H269312   6.722   4.713   2.562 -0.4879  1.8491  1.0098
15941TIP3   OH269313   0.651   0.689   0.393 -0.3158  0.1976  0.4993
15941TIP3    H169314   0.713   0.638   0.340  0.2421  0.3860  0.9529
15941TIP3    H269315   0.695   0.773   0.406  0.0043 -0.1791  2.0814
15942TIP3   OH269316   5.954   0.307  11.854  0.5897  0.0770 -0.4071
15942TIP3    H169317   6.048   0.312  11.871  0.5629  0.9380 -0.4562
15942TIP3    H269318   5.919   0.391  11.885 -0.0707  0.0106 -0.9291
15943TIP3   OH269319   1.203   3.812  16.624  0.2610 -0.4145 -0.1142
15943TIP3    H169320   1.258   3.886  16.649 -0.1382 -0.3159  0.4818
15943TIP3    H269321   1.239   3.738  16.672  0.5764 -0.5873 -0.6064
15944TIP3   OH269322   4.630   4.682   2.747  0.1171 -0.1749  0.0297
15944TIP3    H169323   4.678   4.716   2.823 -1.1209 -0.5848  1.0341
15944TIP3    H269324   4.657   4.739   2.675  1.8709 -0.2157  0.6073
15945TIP3   OH269325   1.608   0.310  11.873  0.2691  0.0146  0.2461
15945TIP3    H169326   1.660   0.376  11.828 -2.6886  0.8406 -2.3971
15945TIP3    H269327   1.618   0.231  11.819  0.6403 -0.5246  1.0882
15946TIP3   OH269328   1.713   4.225  15.230  0.4671 -0.3012  0.2674
15946TIP3    H169329   1.728   4.282  15.155 -0.3824 -1.5900 -0.9469
15946TIP3    H269330   1.647   4.270  15.282  3.1482  2.0305  1.9180
15947TIP3   OH269331   4.735   5.047   4.263  0.2027  0.2061 -0.1723
15947TIP3    H169332   4.762   5.137   4.282 -1.1177  0.6492 -0.2756
15947TIP3    H269333   4.816   4.997   4.264  0.8239  1.1695  1.1514
15948TIP3   OH269334   4.499   5.849  13.909 -0.3886  0.1852  0.4710
15948TIP3    H169335   4.576   5.905  13.902  0.0917 -0.0509  3.0265
15948TIP3    H269336   4.502   5.793  13.831  1.2885  1.0603 -0.1228
15949TIP3   OH269337   1.088   3.438  14.139 -0.0544 -0.4948  0.1046
15949TIP3    H169338   1.102   3.428  14.233  0.2176  1.1559  0.2722
15949TIP3    H269339   1.049   3.524  14.129 -0.5661 -0.8538 -1.2669
15950TIP3   OH269340   1.113   2.916   5.536  0.3190 -0.3559  0.1739
15950TIP3    H169341   1.081   2.854   5.602  0.5299  0.8912  1.4994
15950TIP3    H269342   1.057   2.901   5.460 -1.0151 -0.7119  1.1894
15951TIP3   OH269343   0.128   6.306   3.364 -0.2506  0.5932 -0.1358
15951TIP3    H169344   0.134   6.278   3.273  0.0052  0.2679 -0.0211
15951TIP3    H269345   0.035   6.296   3.386 -0.1493 -0.2616 -0.0692
15952TIP3   OH269346   2.702   5.540   3.962  0.4865  0.0141  0.6142
15952TIP3    H169347   2.757   5.467   3.935  2.8837  1.7685  0.4927
15952TIP3    H269348   2.763   5.610   3.983 -1.6590  1.5510  2.1411
15953TIP3   OH269349   5.813   2.850   0.879  0.3573  0.0081 -0.2598
15953TIP3    H169350   5.798   2.788   0.808  0.7584 -0.2739 -0.1039
15953TIP3    H269351   5.906   2.840   0.900  0.2552  0.1391  0.2593
15954TIP3   OH269352   5.890   3.586  14.305  0.5625  0.2702  0.5499
15954TIP3    H169353   5.908   3.679  14.292 -0.3661  0.6237  1.6265
15954TIP3    H269354   5.867   3.579  14.398 -1.6881 -0.6157 -0.0186
15955TIP3   OH269355   1.329   2.773  12.320 -0.4833  0.3632 -0.6507
15955TIP3    H169356   1.238   2.790  12.298 -0.4733  0.0072 -0.9689
15955TIP3    H269357   1.368   2.860  12.329 -1.2460  0.5758  1.2057
15956TIP3   OH269358   6.636   6.569   5.465  0.0308 -1.0180 -0.2595
15956TIP3    H169359   6.623   6.564   5.560 -0.1702  1.8557 -0.0474
15956TIP3    H269360   6.725   6.536   5.452  0.9053  0.5762  1.2607
15957TIP3   OH269361   4.483   3.693  15.204 -0.7013  0.0058  0.0567
15957TIP3    H169362   4.518   3.631  15.269 -1.2747 -0.6897 -0.2898
15957TIP3    H269363   4.483   3.644  15.122  3.0171  1.8054 -1.2651
15958TIP3   OH269364   1.611   1.527   2.804  0.3382 -0.2394  0.0033
15958TIP3    H169365   1.686   1.572   2.844 -0.8839  1.2816  0.6536
15958TIP3    H269366   1.623   1.540   2.710 -1.4957  4.2393  0.1553
15959TIP3   OH269367   1.869   3.965   3.823 -0.7340 -0.2145 -0.6748
15959TIP3    H169368   1.799   4.017   3.782  0.6360  0.7299 -1.9373
15959TIP3    H269369   1.909   3.918   3.750  1.9060  1.6415 -0.5697
15960TIP3   OH269370   3.252   6.311   5.380  0.6043  0.5678 -0.2598
15960TIP3    H169371   3.344   6.312   5.354  0.4981  0.1732 -0.6667
15960TIP3    H269372   3.252   6.267   5.465  0.7310  0.0566 -0.5204
15961TIP3   OH269373   2.064   2.004  12.851 -0.0970  0.4076 -0.3990
15961TIP3    H169374   2.113   1.932  12.890  0.7235  1.5541  0.7874
15961TIP3    H269375   2.112   2.026  12.771 -0.0729 -0.0407 -0.5088
15962TIP3   OH269376   0.736   2.444  12.511 -0.1635  0.6884  0.3225
15962TIP3    H169377   0.756   2.356  12.545  0.8341 -0.0291 -1.8632
15962TIP3    H269378   0.806   2.461  12.448 -1.3297  2.3001 -0.6197
15963TIP3   OH269379   6.214   4.237  12.696 -0.3017  0.6780 -0.3762
15963TIP3    H169380   6.135   4.213  12.648  0.2776  0.3655 -1.2017
15963TIP3    H269381   6.219   4.332  12.690 -0.6768  0.7088 -0.2108
15964TIP3   OH269382   3.837   0.116   0.539 -0.1922  0.0832 -0.1242
15964TIP3    H169383   3.769   0.058   0.573 -1.6354  1.0913 -1.1695
15964TIP3    H269384   3.792   0.171   0.475  1.7544  0.3443 -1.3549
15965TIP3   OH269385   4.275   6.787  11.486  0.0963 -0.2426 -0.0135
15965TIP3    H169386   4.322   6.741  11.555  1.4999  1.1730  0.0170
15965TIP3    H269387   4.302   6.743  11.405  1.7358  0.7146 -0.0212
15966TIP3   OH269388   2.072   3.737  16.916 -0.4345  0.6926 -0.2445
15966TIP3    H169389   2.026   3.817  16.938  0.3527  1.3335 -0.8784
15966TIP3    H269390   2.010   3.687  16.863 -0.3619  1.6196 -1.2295
15967TIP3   OH269391   0.306   5.295   4.327 -0.3905 -0.0101  0.0026
15967TIP3    H169392   0.244   5.233   4.288 -0.2253 -0.7966  0.9705
15967TIP3    H269393   0.258   5.334   4.400 -0.5922  1.2378 -0.7569
15968TIP3   OH269394   3.791   0.637   3.551  0.5009 -0.2098 -0.2265
15968TIP3    H169395   3.707   0.666   3.585  1.3428  0.0478  1.7801
15968TIP3    H269396   3.770   0.591   3.470 -1.3524  1.6062 -0.8523
15969TIP3   OH269397   4.911   2.278   1.817 -0.2185  0.5849 -0.1419
15969TIP3    H169398   4.882   2.190   1.841  1.3571 -0.2591 -1.1427
15969TIP3    H269399   4.845   2.336   1.853 -1.6488 -1.0499 -0.0111
15970TIP3   OH269400   6.120   5.079  15.922  0.4007  0.0340  0.0795
15970TIP3    H169401   6.156   5.004  15.876  0.1818 -0.6457  0.9891
15970TIP3    H269402   6.138   5.154  15.865  0.6671 -0.6994 -0.8071
15971TIP3   OH269403   2.971   4.334  16.379 -0.3015 -0.8909  0.6967
15971TIP3    H169404   2.978   4.241  16.401  1.5603 -1.3307 -1.3468
15971TIP3    H269405   3.056   4.355  16.339 -0.0108  2.1610  2.6464
15972TIP3   OH269406   1.263   1.920   5.165 -0.0757 -0.4776 -0.1462
15972TIP3    H169407   1.318   1.995   5.188 -1.6046  1.0744 -1.2270
15972TIP3    H269408   1.242   1.879   5.248  2.3653 -0.8997  0.3082
15973TIP3   OH269409   1.684   3.614  14.177  0.2228 -0.0862 -0.4349
15973TIP3    H169410   1.766   3.631  14.224 -0.0213 -1.0275  0.3677
15973TIP3    H269411   1.633   3.560  14.237 -1.8636  2.1465 -0.0473
15974TIP3   OH269412   2.616   6.357   2.815 -0.1511  0.1679  0.2512
15974TIP3    H169413   2.654   6.336   2.730 -0.5558  0.1864  0.0663
15974TIP3    H269414   2.551   6.424   2.797  1.3121  1.8336  0.8744
15975TIP3   OH269415   6.085   5.610  11.690 -0.4056 -0.0710 -0.3550
15975TIP3    H169416   6.134   5.588  11.611 -2.6046  0.7887 -2.0701
15975TIP3    H269417   6.090   5.706  11.696  1.0668 -0.2006  1.5394
15976TIP3   OH269418   0.569   2.642   0.773  0.0164  0.4039 -0.5048
15976TIP3    H169419   0.518   2.715   0.806  2.0761  2.1507 -0.9608
15976TIP3    H269420   0.648   2.641   0.828  1.9033  1.1878 -3.0162
15977TIP3   OH269421   1.908   2.264  14.440  0.2297  0.2379 -0.1554
15977TIP3    H169422   1.895   2.359  14.444  0.5259  0.2476  0.5854
15977TIP3    H269423   1.857   2.230  14.513 -0.2084 -0.2216 -0.6616
15978TIP3   OH269424   2.451   1.536  15.357  0.0395 -0.5699 -0.5020
15978TIP3    H169425   2.485   1.453  15.389 -1.7992 -1.8685 -1.6957
15978TIP3    H269426   2.410   1.576  15.434  0.4990 -1.0021 -0.0217
15979TIP3   OH269427   2.023   5.330  13.446 -0.3285  0.5855  0.0675
15979TIP3    H169428   1.940   5.355  13.403 -0.6851  1.7017  1.3280
15979TIP3    H269429   2.074   5.411  13.447 -0.7824  0.9448  2.6708
15980TIP3   OH269430   5.921   6.636   2.329 -0.1813  0.1070 -0.6854
15980TIP3    H169431   5.876   6.563   2.286  0.5983 -0.4574 -0.5690
15980TIP3    H269432   5.862   6.710   2.317 -0.8292 -0.4570 -1.1194
15981TIP3   OH269433   4.161   1.043   3.365  0.4178 -0.1881  0.8025
15981TIP3    H169434   4.113   1.020   3.444  0.9164 -0.2973  1.0826
15981TIP3    H269435   4.106   1.109   3.321 -0.7226 -1.4338  0.2991
15982TIP3   OH269436   0.175   3.255  16.327 -0.4028  0.1940  0.1322
15982TIP3    H169437   0.111   3.209  16.273  0.7379 -1.1234 -0.1419
15982TIP3    H269438   0.216   3.187  16.379 -1.4585  1.4136  2.7519
15983TIP3   OH269439   0.892   5.211  15.546  0.4796  0.1749  0.6298
15983TIP3    H169440   0.877   5.129  15.593  1.8435 -0.7196 -0.4135
15983TIP3    H269441   0.976   5.242  15.578 -0.0148  1.1842  1.0012
15984TIP3   OH269442   2.164   2.539   1.784  0.4715  0.4390 -0.3740
15984TIP3    H169443   2.173   2.491   1.702 -1.7257  0.9661 -0.9835
15984TIP3    H269444   2.178   2.473   1.853  1.8486 -0.1047 -1.1290
15985TIP3   OH269445   2.798   0.617  12.656  0.1741  0.6308  0.2397
15985TIP3    H169446   2.721   0.627  12.712  0.1215 -0.5407  0.4139
15985TIP3    H269447   2.830   0.706  12.641 -2.1690  1.3150 -1.2010
15986TIP3   OH269448   6.390   6.407  14.955  0.1633  0.0601  0.3195
15986TIP3    H169449   6.330   6.451  14.894  0.6582  0.8543  0.3977
15986TIP3    H269450   6.336   6.339  14.995 -0.7434  0.8595  0.5080
15987TIP3   OH269451   0.987   5.440  16.323 -0.2847  0.3578 -0.0004
15987TIP3    H169452   0.992   5.349  16.352  0.0606  0.8959  1.7778
15987TIP3    H269453   1.020   5.438  16.233  1.5832 -1.0191  0.6309
15988TIP3   OH269454   4.198   2.480   5.958  0.3787 -0.1854  0.1298
15988TIP3    H169455   4.142   2.550   5.924  0.7265 -0.4551 -1.0498
15988TIP3    H269456   4.138   2.416   5.996  0.0482  0.6568  1.0788
15989TIP3   OH269457   3.175   5.188   3.253 -0.6170  0.3610  0.1839
15989TIP3    H169458   3.124   5.268   3.243 -2.9871 -1.1303 -0.2944
15989TIP3    H269459   3.161   5.140   3.172  2.8671  0.4856 -0.6785
15990TIP3   OH269460   5.258   2.623   6.073  0.5019 -0.1628 -0.4481
15990TIP3    H169461   5.200   2.699   6.062  1.5269  0.7107  0.0034
15990TIP3    H269462   5.263   2.583   5.986  2.0048  1.8273 -1.3520
15991TIP3   OH269463   3.562   0.178   4.710 -0.0671 -0.3205 -0.0378
15991TIP3    H169464   3.617   0.218   4.778  0.8717 -0.8607 -0.4662
15991TIP3    H269465   3.482   0.231   4.710 -0.3162 -0.6142  1.8408
15992TIP3   OH269466   3.372   6.249   4.015  0.2812 -0.1106  0.1903
15992TIP3    H169467   3.433   6.304   4.064  2.1945 -2.1742  0.3119
15992TIP3    H269468   3.287   6.291   4.026  1.3982  2.0146  1.3925
15993TIP3   OH269469   3.651   1.375  11.058  0.6227  0.1514 -0.1044
15993TIP3    H169470   3.745   1.391  11.063  0.5413  0.5380  0.2568
15993TIP3    H269471   3.613   1.461  11.042  0.0565  0.6574  3.2538
15994TIP3   OH269472   2.985   6.275   3.454 -0.2549  0.2266  0.1301
15994TIP3    H169473   3.042   6.313   3.520  0.8786 -1.9478  0.4864
15994TIP3    H269474   3.043   6.256   3.380 -1.0288  0.2880 -0.5130
15995TIP3   OH269475   2.774   3.539   3.063 -0.5693  0.1043  0.4305
15995TIP3    H169476   2.710   3.499   3.122  0.6307 -3.2931 -0.3288
15995TIP3    H269477   2.854   3.546   3.115  0.0004 -1.2264 -0.2261
15996TIP3   OH269478   3.422   4.932  13.285  0.1582 -0.2134 -0.1294
15996TIP3    H169479   3.362   4.987  13.235  2.0028  1.5615 -0.5237
15996TIP3    H269480   3.425   4.849  13.236 -0.8985  0.1603 -0.8561
15997TIP3   OH269481   0.671   3.336   1.836 -0.0646  0.6031  0.5534
15997TIP3    H169482   0.627   3.370   1.757 -0.0347 -0.2334  0.1745
15997TIP3    H269483   0.693   3.415   1.886 -1.0354  1.1020  0.2383
15998TIP3   OH269484   4.855   3.931  12.991  0.3867  0.2980  0.7562
15998TIP3    H169485   4.869   4.020  13.022  0.5495  0.7361 -0.5497
15998TIP3    H269486   4.759   3.922  12.985  0.2893 -0.1718  2.3941
15999TIP3   OH269487   1.769   1.549   4.641 -0.2358  0.2230 -0.4503
15999TIP3    H169488   1.734   1.558   4.730  0.1433 -0.5534 -0.2118
15999TIP3    H269489   1.833   1.477   4.648 -1.6488 -1.2502 -1.7660
16000TIP3   OH269490   4.432   3.263   1.854 -0.4211  0.5292 -0.0622
16000TIP3    H169491   4.496   3.229   1.791 -1.4782 -2.8102  0.5010
16000TIP3    H269492   4.348   3.257   1.808 -0.8881  0.4898  0.7846
16001TIP3   OH269493   5.139   1.083   1.906 -0.1830 -0.1586 -0.6861
16001TIP3    H169494   5.228   1.083   1.942  0.0837 -2.1124 -1.2429
16001TIP3    H269495   5.110   1.174   1.914  0.9657  0.0606  1.6415
16002TIP3   OH269496   0.029   5.403  16.487 -0.1279  0.1064  0.8073
16002TIP3    H169497  -0.030   5.416  16.561 -1.1004 -1.6684  0.4120
16002TIP3    H269498   0.103   5.354  16.524 -0.0026  0.3282  0.8511
16003TIP3   OH269499   4.693   6.650   5.376  0.3038  0.3051  0.1393
16003TIP3    H169500   4.651   6.573   5.413  0.4969 -0.0653 -0.4057
16003TIP3    H269501   4.782   6.623   5.356  0.4474  0.7378  0.1677
16004TIP3   OH269502   2.625   1.261  14.780  0.1085  0.2039  0.1494
16004TIP3    H169503   2.659   1.291  14.696 -3.1141 -0.5517 -1.5807
16004TIP3    H269504   2.609   1.342  14.829 -1.8393  1.0046 -1.6703
16005TIP3   OH269505   1.288   6.088  11.387  0.5925  0.0441  0.4081
16005TIP3    H169506   1.243   6.031  11.449 -0.9780 -1.0713 -1.6441
16005TIP3    H269507   1.288   6.039  11.305  3.7221  0.9250 -0.2288
16006TIP3   OH269508   1.686   2.552  16.750 -0.3356 -0.2237  0.2027
16006TIP3    H169509   1.606   2.568  16.800 -0.6282 -1.6395  0.2477
16006TIP3    H269510   1.658   2.555  16.659 -0.8267 -2.2202  0.2236
16007TIP3   OH269511   1.771   5.455   1.633 -0.4869  0.5965 -0.5066
16007TIP3    H169512   1.693   5.501   1.601  0.1453  1.1119 -1.3707
16007TIP3    H269513   1.844   5.511   1.606  0.1878  0.0743  0.2034
16008TIP3   OH269514   4.217   1.143  17.194  0.0038 -0.8324  0.1090
16008TIP3    H169515   4.170   1.163  17.114 -0.8760  1.6543  1.1158
16008TIP3    H269516   4.173   1.196  17.261  2.0261 -1.1488  1.8009
16009TIP3   OH269517   2.526   6.025  14.906 -0.4266 -0.9224 -0.0821
16009TIP3    H169518   2.462   6.095  14.919  1.7607  0.8070  2.6270
16009TIP3    H269519   2.571   6.048  14.825 -1.5677 -0.8250 -0.7129
16010TIP3   OH269520   5.212   6.300  15.047 -0.1373 -0.1187  0.6090
16010TIP3    H169521   5.131   6.342  15.077 -0.8037 -0.1126 -1.1010
16010TIP3    H269522   5.244   6.252  15.123 -0.8017  1.3105  1.8264
16011TIP3   OH269523   4.418   5.199   5.332 -0.2466 -0.0066  0.1085
16011TIP3    H169524   4.338   5.215   5.282 -0.3515  0.2198  0.3408
16011TIP3    H269525   4.444   5.286   5.363  0.2780 -0.0368 -0.2488
16012TIP3   OH269526   3.185   2.744   2.702  0.5758 -0.3878 -0.1899
16012TIP3    H169527   3.094   2.769   2.689  0.8024  0.7298  0.2440
16012TIP3    H269528   3.201   2.674   2.638  0.2979  1.5436 -2.5271
16013TIP3   OH269529   5.481   6.740   2.759 -0.1904  0.0115  0.1901
16013TIP3    H169530   5.515   6.826   2.785 -1.7048  0.7858 -0.2791
16013TIP3    H269531   5.479   6.744   2.663 -1.6767  0.0488  0.2019
16014TIP3   OH269532   3.740   4.267  12.104 -0.2310  0.4561 -0.0602
16014TIP3    H169533   3.690   4.346  12.123  1.4192  1.3262  0.8705
16014TIP3    H269534   3.743   4.263  12.008 -0.9482  1.1218 -0.1128
16015TIP3   OH269535   6.645   1.362  16.194  0.5488 -0.7902  0.3845
16015TIP3    H169536   6.694   1.349  16.113  0.2203 -1.5203  0.2993
16015TIP3    H269537   6.712   1.384  16.259  1.2183 -3.2680  0.6262
16016TIP3   OH269538   3.678   3.666   5.023  0.5994 -0.6430  0.0501
16016TIP3    H169539   3.713   3.674   4.935  1.6279 -1.1603  0.3897
16016TIP3    H269540   3.646   3.753   5.045 -3.4467 -1.3027 -2.2878
16017TIP3   OH269541   2.711   4.527  15.346 -0.1088 -0.6892  0.1166
16017TIP3    H169542   2.748   4.546  15.432 -2.7027 -1.9498  1.6422
16017TIP3    H269543   2.662   4.606  15.323 -0.9281 -1.0043  0.7183
16018TIP3   OH269544   2.453   0.228   5.530 -0.0121 -0.0645 -0.2321
16018TIP3    H169545   2.425   0.224   5.621  1.6246  2.0292  0.4445
16018TIP3    H269546   2.547   0.246   5.533  0.5727 -2.2141 -2.3820
16019TIP3   OH269547   3.013   5.685  11.058  0.1579  0.7875 -0.4306
16019TIP3    H169548   3.072   5.746  11.015  3.0775 -1.1021  0.6105
16019TIP3    H269549   3.006   5.717  11.148  2.0274 -0.4935  0.2315
16020TIP3   OH269550   3.379   6.427   3.345  0.7029  0.4705  0.3380
16020TIP3    H169551   3.332   6.473   3.276 -1.0396 -0.6825  0.7057
16020TIP3    H269552   3.441   6.492   3.379  1.6983  1.0536 -2.3220
16021TIP3   OH269553   0.002   3.536   5.564  0.0149 -0.6461 -0.5215
16021TIP3    H169554  -0.033   3.461   5.516  0.4712 -1.2094  0.0198
16021TIP3    H269555  -0.066   3.559   5.627 -0.3157 -0.3112 -0.9962
16022TIP3   OH269556   2.166   1.908  12.566 -0.2989  0.0895 -0.5764
16022TIP3    H169557   2.141   1.987  12.517 -0.3517  0.4744  0.0671
16022TIP3    H269558   2.104   1.841  12.536 -0.5209  0.3965 -0.8152
16023TIP3   OH269559   1.958   0.177  12.674  0.0936  0.6856  0.2387
16023TIP3    H169560   2.018   0.104  12.658 -0.9307 -0.0857 -0.2098
16023TIP3    H269561   1.912   0.153  12.754 -0.6528  0.5525 -0.2243
16024TIP3   OH269562   3.055   1.811   1.713 -0.1329 -0.1903  0.0608
16024TIP3    H169563   3.090   1.900   1.717 -0.3928  0.0119 -1.5520
16024TIP3    H269564   3.071   1.783   1.623 -2.2563 -0.8784 -0.1442
16025TIP3   OH269565   1.053   4.591   0.484  0.3851 -0.0618 -1.0033
16025TIP3    H169566   1.100   4.599   0.401 -0.8813  0.1429 -1.7178
16025TIP3    H269567   1.035   4.681   0.511  0.3038 -0.1451 -0.7738
16026TIP3   OH269568   6.260   3.408  13.620 -0.2132  0.6523 -0.2246
16026TIP3    H169569   6.166   3.413  13.636 -0.4968 -1.6249 -0.8612
16026TIP3    H269570   6.269   3.419  13.525 -0.0306 -0.6514 -0.3825
16027TIP3   OH269571   5.141   1.568   1.797 -0.1439 -0.8072  0.2627
16027TIP3    H169572   5.062   1.605   1.759 -0.9190 -1.8824  0.7694
16027TIP3    H269573   5.211   1.629   1.773 -1.5623  1.7805  2.3198
16028TIP3   OH269574   3.102   2.571   0.335 -0.5491 -0.5701 -0.0382
16028TIP3    H169575   3.009   2.564   0.313 -0.5448 -0.4968 -0.0818
16028TIP3    H269576   3.109   2.533   0.423 -0.0756 -3.5803 -1.2618
16029TIP3   OH269577   6.004   4.952   2.255  0.5695  0.6680 -0.0942
16029TIP3    H169578   6.030   4.906   2.175  1.1705 -0.0166  0.4798
16029TIP3    H269579   5.955   5.028   2.224 -1.6999 -1.0801 -1.0571
16030TIP3   OH269580   4.328   3.099   4.226  0.5114  0.1375 -0.4229
16030TIP3    H169581   4.232   3.108   4.225  0.4721 -0.0865 -2.9765
16030TIP3    H269582   4.344   3.027   4.287 -0.7834  1.2717  1.3777
16031TIP3   OH269583   4.106   3.925  11.953 -0.4604  0.5466  0.2566
16031TIP3    H169584   4.040   3.991  11.932 -0.6831  0.0649 -0.5660
16031TIP3    H269585   4.069   3.842  11.923  0.7500  0.3397 -0.7747
16032TIP3   OH269586   2.021   2.998   5.360 -0.3194  0.1152 -0.2122
16032TIP3    H169587   2.087   3.047   5.310 -0.4758 -1.5318 -2.1862
16032TIP3    H269588   1.947   3.058   5.367  0.2579  0.9007 -0.7122
16033TIP3   OH269589   1.608   1.633  13.575  0.7185  0.2665 -0.0624
16033TIP3    H169590   1.623   1.598  13.663  0.7101  0.4334  0.0061
16033TIP3    H269591   1.670   1.586  13.519  2.4343  1.8378  0.4164
16034TIP3   OH269592   2.058   1.960  11.294 -0.5845 -0.1382 -0.2829
16034TIP3    H169593   2.008   1.931  11.370 -1.0297  1.3474  0.0349
16034TIP3    H269594   2.129   1.896  11.285  0.4820  0.5315  2.4161
16035TIP3   OH269595   4.307   2.156  16.466 -0.6223 -0.0556  0.0784
16035TIP3    H169596   4.242   2.197  16.408 -0.4453  1.3476  0.8120
16035TIP3    H269597   4.281   2.184  16.554 -0.5878 -1.7246  0.6440
16036TIP3   OH269598   1.624   4.312  12.207  0.0146  0.4191  0.1503
16036TIP3    H169599   1.614   4.320  12.302  0.5142  0.7108  0.1801
16036TIP3    H269600   1.704   4.360  12.187 -0.6737  1.2931 -0.5668
16037TIP3   OH269601   4.288   3.931   4.557  0.4687 -0.5269  0.8327
16037TIP3    H169602   4.374   3.973   4.561  0.2201 -0.0566  1.2699
16037TIP3    H269603   4.228   4.000   4.530 -0.1024 -0.3267  2.4849
16038TIP3   OH269604   5.239   1.254   3.152 -0.2558  0.2794  0.0056
16038TIP3    H169605   5.247   1.159   3.155 -1.0748  0.1828 -0.5389
16038TIP3    H269606   5.314   1.286   3.203 -0.2539 -0.6601  0.6214
16039TIP3   OH269607   5.596   5.778  12.779 -0.3509  0.8144  0.5775
16039TIP3    H169608   5.545   5.756  12.858 -0.8063  0.4189  0.1817
16039TIP3    H269609   5.687   5.781  12.809 -0.5029  0.4949  1.0829
16040TIP3   OH269610   6.092   2.637   6.340 -0.0033 -0.6949  0.3487
16040TIP3    H169611   6.077   2.715   6.287 -1.3616 -2.2847 -1.7357
16040TIP3    H269612   6.021   2.637   6.404 -0.3074 -0.5216  0.0101
16041TIP3   OH269613   1.777   2.858  13.427  0.1948  0.4424 -0.0626
16041TIP3    H169614   1.725   2.802  13.369  1.1192  0.8097 -1.2740
16041TIP3    H269615   1.717   2.880  13.498 -1.5033  1.2679 -1.6671
16042TIP3   OH269616   4.563   3.300   2.935 -0.2707  1.0153  0.4307
16042TIP3    H169617   4.609   3.297   2.851 -0.6037  1.6989  0.2203
16042TIP3    H269618   4.532   3.390   2.943 -2.0527  0.4422  0.3099
16043TIP3   OH269619   6.260   2.747   4.623  0.8326 -0.6288 -0.1836
16043TIP3    H169620   6.275   2.656   4.649  0.1823 -0.2849  1.5444
16043TIP3    H269621   6.247   2.793   4.705  0.5287  0.9208 -1.0678
16044TIP3   OH269622   6.790   2.233   4.371 -0.5247  0.2156  0.6128
16044TIP3    H169623   6.759   2.145   4.392 -1.2515  0.7260  1.7777
16044TIP3    H269624   6.875   2.219   4.330 -1.0477 -1.0706 -0.0770
16045TIP3   OH269625   0.538   0.890   2.820  0.1976  0.7452  0.1629
16045TIP3    H169626   0.583   0.919   2.741 -1.5072  0.9247 -0.7848
16045TIP3    H269627   0.497   0.807   2.796  1.3533 -0.2786  1.5192
16046TIP3   OH269628   2.156   5.161  17.117 -0.0469  0.2352  0.5925
16046TIP3    H169629   2.244   5.182  17.149  0.3739  0.2790 -0.5291
16046TIP3    H269630   2.139   5.072  17.148  1.0951 -0.4171 -0.5595
16047TIP3   OH269631   3.129   4.754  16.269  0.9372  0.0621 -0.0281
16047TIP3    H169632   3.221   4.734  16.255  1.2417 -1.4248  3.3035
16047TIP3    H269633   3.128   4.838  16.314  0.6063  0.3670 -0.5900
16048TIP3   OH269634   4.331   0.253  11.782 -0.0521  0.1133  0.2618
16048TIP3    H169635   4.265   0.294  11.728  1.1630  1.6667 -0.1129
16048TIP3    H269636   4.284   0.223  11.860 -1.2092  1.0018 -0.0777
16049TIP3   OH269637   1.496   3.743   1.044 -0.0423 -0.3391  0.0611
16049TIP3    H169638   1.400   3.749   1.042 -0.1253 -0.6138  1.5944
16049TIP3    H269639   1.524   3.828   1.078  0.1563 -0.7235  0.8854
16050TIP3   OH269640   2.272   1.039  10.881  0.6171  0.8828  0.2027
16050TIP3    H169641   2.309   0.962  10.925 -0.0207  0.3418 -0.1762
16050TIP3    H269642   2.326   1.049  10.802 -0.9964 -0.9288 -1.2290
16051TIP3   OH269643   2.745   4.480   5.551 -0.0355  0.1472  0.3222
16051TIP3    H169644   2.664   4.483   5.602 -0.5314 -1.6052 -0.2964
16051TIP3    H269645   2.718   4.453   5.463  0.9036  2.3244 -0.7063
16052TIP3   OH269646   3.003   1.600  17.104 -0.1524  0.0728 -0.0024
16052TIP3    H169647   2.947   1.527  17.129 -0.1174  0.1359  0.2740
16052TIP3    H269648   2.996   1.605  17.009  3.2290 -3.0725 -0.6467
16053TIP3   OH269649   2.480   3.371  16.921  0.5200  0.2724 -0.2012
16053TIP3    H169650   2.482   3.430  16.846  1.7704 -0.2370 -0.5886
16053TIP3    H269651   2.439   3.291  16.887  0.3557  0.3249 -0.1264
16054TIP3   OH269652   2.568   3.989  14.111  0.2730 -0.3894 -0.4733
16054TIP3    H169653   2.601   4.033  14.033 -0.2156 -1.4641 -1.3245
16054TIP3    H269654   2.473   3.983  14.096  0.0936 -0.1154  0.4746
16055TIP3   OH269655   4.460   3.595  13.777 -0.0556 -0.5208 -0.1285
16055TIP3    H169656   4.503   3.668  13.734 -1.8503  0.1010 -0.9706
16055TIP3    H269657   4.401   3.636  13.840 -1.1186 -1.2153 -0.6425
16056TIP3   OH269658   0.031   5.722  11.961  0.0171 -0.1102 -0.0422
16056TIP3    H169659   0.071   5.800  11.924  0.6804 -0.7936 -0.8157
16056TIP3    H269660   0.088   5.650  11.933 -1.4762 -1.0664 -0.7859
16057TIP3   OH269661   6.365   0.112   3.374 -0.4863 -0.2699 -0.1358
16057TIP3    H169662   6.274   0.089   3.393  0.1493 -2.4014  0.6010
16057TIP3    H269663   6.380   0.194   3.423 -2.1645  0.4753 -0.8222
16058TIP3   OH269664   4.221   0.053   1.096 -0.2481  0.3321  0.4202
16058TIP3    H169665   4.236   0.060   1.190 -0.0039  0.6763  0.3592
16058TIP3    H269666   4.279  -0.017   1.067 -0.2026  0.3371  0.5002
16059TIP3   OH269667   1.648   0.139   4.473  0.0052 -0.0075 -0.2500
16059TIP3    H169668   1.573   0.196   4.456 -0.8069 -1.3629 -1.5095
16059TIP3    H269669   1.615   0.071   4.532  0.6777  0.2155  0.4096
16060TIP3   OH269670   3.961   6.414  14.536 -0.1063 -0.0362 -0.6278
16060TIP3    H169671   4.023   6.445  14.602 -0.5261 -1.2007  0.3441
16060TIP3    H269672   3.880   6.460  14.555 -0.5407 -1.1712  0.3986
16061TIP3   OH269673   2.217   3.756   1.116 -0.0304 -0.2708  0.2191
16061TIP3    H169674   2.221   3.831   1.176 -2.3106 -0.5801  0.8794
16061TIP3    H269675   2.202   3.681   1.173 -0.7049 -0.7876 -0.6133
16062TIP3   OH269676   2.159   0.023   5.930 -0.3361 -0.0259  0.4850
16062TIP3    H169677   2.190   0.070   6.008  1.3964 -0.0392 -0.1390
16062TIP3    H269678   2.199  -0.064   5.938  0.3106  0.1415 -0.6584
16063TIP3   OH269679   0.849   0.195   0.201  0.3507  0.9036 -0.2033
16063TIP3    H169680   0.933   0.210   0.244  0.9453  0.2013 -1.0681
16063TIP3    H269681   0.854   0.104   0.170 -2.5710 -0.8538  3.6946
16064TIP3   OH269682   3.825   3.583   2.367  0.6599 -0.1098 -0.0911
16064TIP3    H169683   3.829   3.492   2.395 -0.1556 -0.6126 -1.5665
16064TIP3    H269684   3.857   3.583   2.277  0.8847  1.1086 -0.0346
16065TIP3   OH269685   6.500   4.423  14.029 -0.0230 -0.1464 -0.3880
16065TIP3    H169686   6.544   4.407  13.945  1.8186  1.3267  0.2261
16065TIP3    H269687   6.409   4.442  14.005  0.0685 -1.3841 -1.8853
16066TIP3   OH269688   5.070   1.061   5.764 -0.1772  0.2556 -0.6703
16066TIP3    H169689   5.160   1.092   5.776 -0.0267 -0.4951  0.3474
16066TIP3    H269690   5.081   0.972   5.729 -0.4893 -0.1378  0.2038
16067TIP3   OH269691   5.086   4.564  15.670 -0.1124  0.3418  0.2090
16067TIP3    H169692   5.118   4.618  15.597 -0.9150  0.2642 -0.2066
16067TIP3    H269693   5.034   4.624  15.723  1.9911  0.8835  1.7891
16068TIP3   OH269694   2.041   4.752  16.131 -0.1364 -0.2277 -0.1392
16068TIP3    H169695   1.945   4.751  16.126 -0.3099  0.1229  2.0304
16068TIP3    H269696   2.061   4.833  16.178  1.4484  1.1326 -2.9421
16069TIP3   OH269697   1.540   1.975  12.454  0.1456 -0.0544 -0.2342
16069TIP3    H169698   1.490   1.969  12.373 -1.9879  1.2769  0.9078
16069TIP3    H269699   1.499   1.911  12.512  0.6205  0.1271  0.3142
16070TIP3   OH269700   6.353   3.008   5.101  0.4282  0.2930 -0.0882
16070TIP3    H169701   6.331   3.093   5.063  0.3677  0.5513  0.5110
16070TIP3    H269702   6.276   2.985   5.155  1.7383  1.4722  2.4876
16071TIP3   OH269703   3.204   5.150   4.092  0.0032  0.2432  0.3390
16071TIP3    H169704   3.215   5.075   4.152 -0.7086  0.0326  0.2210
16071TIP3    H269705   3.255   5.126   4.015  0.3348  0.1881  0.5713
16072TIP3   OH269706   1.934   2.483   4.336 -0.2637  0.1671 -0.2448
16072TIP3    H169707   1.876   2.425   4.385  1.2677 -0.2826  1.1103
16072TIP3    H269708   1.987   2.424   4.282 -0.0741  0.4540 -0.3765
16073TIP3   OH269709   0.012   2.451   1.872 -0.1724 -0.1724 -0.1615
16073TIP3    H169710   0.018   2.383   1.805 -0.1443  1.5525 -2.0114
16073TIP3    H269711  -0.068   2.430   1.920 -0.0014 -1.6546 -0.4719
16074TIP3   OH269712   2.308   6.794   5.431 -0.2605 -0.3283  0.7111
16074TIP3    H169713   2.349   6.868   5.475 -0.1713 -0.6840  1.2340
16074TIP3    H269714   2.232   6.773   5.486 -0.8681  0.0236  0.0107
16075TIP3   OH269715   0.796   1.996  12.700 -0.4597  0.5243 -0.2137
16075TIP3    H169716   0.765   1.906  12.700 -0.4284  0.5119  0.4562
16075TIP3    H269717   0.776   2.029  12.788  1.4666  0.4953  0.2713
16076TIP3   OH269718   4.495   1.578  12.930 -0.0702  0.1450 -0.8727
16076TIP3    H169719   4.483   1.492  12.889  0.6934  0.7082 -2.3367
16076TIP3    H269720   4.575   1.612  12.892 -0.7710  1.8567 -0.9213
16077TIP3   OH269721   4.410   4.546   1.390 -0.5225  0.2435  0.5402
16077TIP3    H169722   4.504   4.547   1.410 -0.8172  2.2475  2.2095
16077TIP3    H269723   4.397   4.622   1.332 -0.5858 -2.3181 -3.1268
16078TIP3   OH269724   1.384   1.104  16.508 -0.3186 -0.1293  0.3256
16078TIP3    H169725   1.328   1.037  16.470 -2.1262  1.2718  0.3987
16078TIP3    H269726   1.370   1.096  16.602 -1.2535  0.8944  0.2946
16079TIP3   OH269727   1.479   2.399  13.815  0.2857 -0.1929  0.2086
16079TIP3    H169728   1.568   2.413  13.781  0.4001 -1.3893 -0.0042
16079TIP3    H269729   1.422   2.409  13.739  0.3481 -0.6660  0.0990
16080TIP3   OH269730   4.247   2.267   5.608 -0.2998  0.2181  0.7246
16080TIP3    H169731   4.189   2.236   5.677 -1.6060 -0.4208 -0.5897
16080TIP3    H269732   4.189   2.312   5.547  0.7169  0.2677 -0.2384
16081TIP3   OH269733   5.017   6.037   1.617 -0.2695 -0.0657 -0.3460
16081TIP3    H169734   5.044   6.092   1.690  1.0587 -1.3928  0.2253
16081TIP3    H269735   4.994   6.098   1.548 -2.7817  1.2869  1.5219
16082TIP3   OH269736   2.302   5.762  17.149  0.5110  0.5025  0.3204
16082TIP3    H169737   2.212   5.729  17.144  1.1418 -1.6268  1.5899
16082TIP3    H269738   2.317   5.777  17.242  1.0971  2.0971  0.0057
16083TIP3   OH269739   2.464   3.736   3.054 -0.2891  0.2145 -0.0585
16083TIP3    H169740   2.499   3.654   3.020 -1.5099 -0.5701  0.5162
16083TIP3    H269741   2.530   3.766   3.117  0.2628 -0.2103 -0.4307
16084TIP3   OH269742   3.347   3.013  15.826 -0.3699  0.6557 -0.5259
16084TIP3    H169743   3.376   2.984  15.739  0.9298  0.6703 -0.1128
16084TIP3    H269744   3.292   3.090  15.808 -2.8954 -1.2579 -1.5407
16085TIP3   OH269745   5.317   1.613  11.931  0.2697  0.8734 -0.4026
16085TIP3    H169746   5.361   1.687  11.890 -1.1415  2.0999  0.2097
16085TIP3    H269747   5.223   1.631  11.921 -0.1137 -0.4701  0.3843
16086TIP3   OH269748   5.394   3.057  10.541  0.0906  0.1061  0.5830
16086TIP3    H169749   5.316   3.111  10.552 -0.2034 -0.0798 -0.5427
16086TIP3    H269750   5.361   2.967  10.536  0.3160  0.0707 -0.4475
16087TIP3   OH269751   0.599   1.822  11.041 -0.1629 -0.2126 -0.0829
16087TIP3    H169752   0.572   1.763  11.112 -1.1469  0.4197  0.0817
16087TIP3    H269753   0.638   1.763  10.975 -0.4493 -0.9569  0.3979
16088TIP3   OH269754   1.218   6.782  15.957 -0.0703  0.4636  0.4434
16088TIP3    H169755   1.138   6.833  15.943 -0.3960  0.4801  2.1397
16088TIP3    H269756   1.265   6.830  16.025 -0.6972 -1.7846  2.6018
16089TIP3   OH269757   5.843   2.170   5.536  0.1843 -0.4135 -0.3252
16089TIP3    H169758   5.869   2.233   5.604  1.4990 -0.0836 -1.1052
16089TIP3    H269759   5.913   2.174   5.471 -0.1512 -2.0410 -0.8394
16090TIP3   OH269760   0.061   2.641   0.546  0.2154  0.0803 -0.2761
16090TIP3    H169761   0.120   2.640   0.470  1.1689 -0.4584  0.4404
16090TIP3    H269762  -0.004   2.574   0.526  0.9312 -0.6342 -0.2895
16091TIP3   OH269763   0.467   1.459   4.853  0.8551  0.7050  0.4969
16091TIP3    H169764   0.508   1.420   4.930  0.1218 -1.0098  0.0757
16091TIP3    H269765   0.539   1.501   4.806  1.8258 -0.6689  0.7011
16092TIP3   OH269766   0.033   3.342  12.775 -0.8305  0.3110  0.2227
16092TIP3    H169767   0.079   3.302  12.701  0.3992 -2.1631  2.1975
16092TIP3    H269768   0.089   3.415  12.801  0.0187 -0.3093  0.1974
16093TIP3   OH269769   1.618   4.980  11.791  0.0069 -0.6239 -0.4360
16093TIP3    H169770   1.552   5.038  11.830 -0.5649 -1.3087 -0.3485
16093TIP3    H269771   1.599   4.894  11.830  2.1794 -0.4765  1.1056
16094TIP3   OH269772   3.092   6.740   2.580  0.0611  0.2094 -0.4071
16094TIP3    H169773   3.146   6.744   2.501 -0.0854  2.0089 -0.4527
16094TIP3    H269774   3.112   6.821   2.627 -0.8095 -0.2345  0.7688
16095TIP3   OH269775   5.703   2.773  14.759  0.1541 -0.0668  0.4491
16095TIP3    H169776   5.624   2.752  14.809 -0.1628  0.3536  0.1360
16095TIP3    H269777   5.696   2.721  14.679 -2.3171  3.4562 -1.9341
16096TIP3   OH269778   0.414   3.553   4.956  0.0569  0.3228 -0.7346
16096TIP3    H169779   0.373   3.594   4.880 -0.8738  1.9979  0.6108
16096TIP3    H269780   0.410   3.620   5.025 -1.0703 -1.8330  1.4332
16097TIP3   OH269781   3.892   6.814   3.311 -0.0544 -0.2089  0.2532
16097TIP3    H169782   3.885   6.719   3.303 -1.0551 -0.4199  2.6303
16097TIP3    H269783   3.982   6.834   3.285 -0.1513 -1.6236 -1.3738
16098TIP3   OH269784   5.443   5.633  13.334  0.2526  0.1258 -0.3618
16098TIP3    H169785   5.502   5.697  13.374 -2.7315  1.8051  1.7431
16098TIP3    H269786   5.387   5.685  13.276  0.7634 -1.4032 -2.3209
16099TIP3   OH269787   1.481   3.747   2.959 -0.7163 -0.0851  0.3051
16099TIP3    H169788   1.406   3.767   2.904 -0.2887 -0.8012 -0.5506
16099TIP3    H269789   1.513   3.833   2.987 -0.5634  0.3282 -1.0698
16100TIP3   OH269790   2.457   3.549   0.456 -0.0144 -0.0583 -0.5049
16100TIP3    H169791   2.435   3.615   0.390 -0.0733 -0.0846 -0.5114
16100TIP3    H269792   2.428   3.588   0.539  1.6316  0.7407 -0.2592
16101TIP3   OH269793   1.403   0.801   2.805 -0.1640 -0.0967  0.8673
16101TIP3    H169794   1.417   0.707   2.797  0.4512 -0.0075  0.8832
16101TIP3    H269795   1.315   0.809   2.842 -1.2696 -0.6097 -1.4778
16102TIP3   OH269796   4.944   0.668   2.605 -0.0964 -0.0893  0.2842
16102TIP3    H169797   4.899   0.746   2.636  2.3396  1.6177 -0.1608
16102TIP3    H269798   4.905   0.650   2.519  0.5765  1.8727 -0.4997
16103TIP3   OH269799   1.918   3.194   3.082 -0.8263 -0.6091  0.6899
16103TIP3    H169800   1.925   3.158   3.171 -0.8803  1.1732  1.4605
16103TIP3    H269801   1.825   3.189   3.061 -1.0627  0.3746  1.3998
16104TIP3   OH269802   5.780   0.716  11.062 -0.8354 -0.1649 -0.2218
16104TIP3    H169803   5.827   0.633  11.060  0.4967  0.5606 -0.8470
16104TIP3    H269804   5.797   0.755  10.976 -0.5193  1.2088  0.4269
16105TIP3   OH269805   5.555   3.125  11.448  0.5652 -0.4002  0.0171
16105TIP3    H169806   5.611   3.165  11.381  0.8794 -0.2137  0.3876
16105TIP3    H269807   5.527   3.042  11.410 -0.1504  0.1941 -0.7929
16106TIP3   OH269808   2.030   1.223  13.864 -0.4409  0.0667  0.2431
16106TIP3    H169809   2.091   1.231  13.790 -0.2149  0.5138  0.4728
16106TIP3    H269810   1.995   1.311  13.876 -3.1411 -0.6549 -1.5450
16107TIP3   OH269811   4.679   4.928  14.734 -0.3235 -0.1806  0.2165
16107TIP3    H169812   4.604   4.986  14.744 -0.6678 -0.5240 -0.3048
16107TIP3    H269813   4.662   4.856  14.795 -2.7586 -2.6194 -2.9112
16108TIP3   OH269814   6.686   1.395   5.906  0.0460 -0.0354 -0.7174
16108TIP3    H169815   6.593   1.384   5.926 -0.0414  0.3061 -0.9177
16108TIP3    H269816   6.718   1.456   5.972  0.0488  0.1096 -0.8516
16109TIP3   OH269817   2.040   2.192   3.010 -1.0413  0.2087 -0.5107
16109TIP3    H169818   1.998   2.239   3.082 -0.9274 -1.6894  0.8502
16109TIP3    H269819   1.971   2.139   2.971 -0.8310  0.3062 -1.0358
16110TIP3   OH269820   4.235   1.160  16.637  0.0154  0.3446  0.1639
16110TIP3    H169821   4.297   1.156  16.710  2.7749 -0.6493 -2.0184
16110TIP3    H269822   4.271   1.228  16.580 -0.8160 -0.3820 -1.2744
16111TIP3   OH269823   1.345   2.851  16.371 -0.2685 -0.1217  0.0259
16111TIP3    H169824   1.367   2.944  16.359  0.8331 -0.4379 -0.5894
16111TIP3    H269825   1.422   2.804  16.338 -0.4120 -1.2468  1.2105
16112TIP3   OH269826   4.823   0.315  17.180 -0.5279  0.5683 -0.0690
16112TIP3    H169827   4.900   0.262  17.196  0.4404  1.9952  0.2164
16112TIP3    H269828   4.836   0.350  17.092 -0.3535  1.5893  0.3503
16113TIP3   OH269829   0.474   4.453  12.249  0.4996 -0.0678 -0.2344
16113TIP3    H169830   0.490   4.358  12.245  1.4094  0.0716 -0.1134
16113TIP3    H269831   0.546   4.492  12.200 -1.1438  0.4823 -2.3844
16114TIP3   OH269832   2.022   0.134  12.190  0.3715 -0.4282 -0.2289
16114TIP3    H169833   2.037   0.072  12.118  0.0634 -0.4501 -0.2784
16114TIP3    H269834   1.969   0.203  12.151  0.5850 -0.2126 -0.1339
16115TIP3   OH269835   1.951   0.742   5.046 -0.2146  0.1442  0.1933
16115TIP3    H169836   1.965   0.665   4.991 -1.8203  1.5445 -2.3961
16115TIP3    H269837   1.989   0.814   4.995 -0.1843  1.2996  1.7843
16116TIP3   OH269838   1.015   1.889  15.118  0.3503  0.3068 -0.0955
16116TIP3    H169839   1.082   1.855  15.178 -0.4652 -0.1545  0.5813
16116TIP3    H269840   0.975   1.962  15.165 -1.3220 -0.9898  0.6303
16117TIP3   OH269841   3.674   4.917  13.837  0.2915  0.1992 -0.3415
16117TIP3    H169842   3.689   4.824  13.853 -1.0100  0.0483  0.1251
16117TIP3    H269843   3.583   4.932  13.862 -0.0680  1.2386 -2.0228
16118TIP3   OH269844   2.747   5.324   1.102 -0.1036  0.5671  0.3930
16118TIP3    H169845   2.841   5.316   1.118 -0.1596 -0.6160  0.2113
16118TIP3    H269846   2.735   5.289   1.014 -0.6971  0.8741  0.3498
16119TIP3   OH269847   4.735   0.976   5.542  0.0347 -0.9448 -0.4172
16119TIP3    H169848   4.658   1.010   5.497 -0.0444 -0.3978  0.1245
16119TIP3    H269849   4.809   1.005   5.488 -0.0021  0.4478  0.2391
16120TIP3   OH269850   0.397   0.313  14.540  0.0874  0.1912 -0.0520
16120TIP3    H169851   0.386   0.396  14.586  0.2504 -0.5755  1.4397
16120TIP3    H269852   0.460   0.264  14.593 -0.0123 -0.8846 -0.8913
16121TIP3   OH269853   2.977   4.139  14.421 -0.3508 -0.1330  0.4846
16121TIP3    H169854   3.034   4.164  14.348  0.5708 -1.2649  0.7986
16121TIP3    H269855   2.890   4.168  14.393 -0.1546 -1.2527 -1.4477
16122TIP3   OH269856   2.468   1.183  17.159 -0.2106 -0.5888  0.0726
16122TIP3    H169857   2.416   1.209  17.235  0.9885  0.9485  0.4135
16122TIP3    H269858   2.559   1.202  17.183  0.2943 -0.9932 -1.3721
16123TIP3   OH269859   0.776   3.984  12.554 -0.0295 -0.2764  0.2858
16123TIP3    H169860   0.725   4.064  12.566  0.3578 -0.0625  0.5453
16123TIP3    H269861   0.779   3.971  12.459  1.2408  0.9097  0.1159
16124TIP3   OH269862   5.371   4.682   3.790  0.3269 -0.2655 -0.7260
16124TIP3    H169863   5.349   4.749   3.855  2.3184 -0.9481  0.7857
16124TIP3    H269864   5.316   4.607   3.814  1.1506 -0.5651  0.3472
16125TIP3   OH269865   4.983   4.020   2.951  0.1972  0.8683  0.2720
16125TIP3    H169866   4.954   4.082   3.018 -0.3921 -0.9492  1.8292
16125TIP3    H269867   5.045   3.963   2.996 -1.8383 -1.7785  0.0376
16126TIP3   OH269868   4.544   2.384   6.590 -0.1839 -0.6226 -0.4395
16126TIP3    H169869   4.555   2.362   6.683  3.4212 -0.0343 -0.5658
16126TIP3    H269870   4.517   2.302   6.549 -1.6608 -0.9469  1.0503
16127TIP3   OH269871   5.093   1.181  17.069  0.1337 -0.5138  0.0446
16127TIP3    H169872   5.117   1.090  17.090  3.3340  0.7041  2.6343
16127TIP3    H269873   5.102   1.228  17.152  2.1676  2.7613 -1.7838
16128TIP3   OH269874   0.460   5.522   5.046  0.1186 -0.5794  0.3803
16128TIP3    H169875   0.423   5.610   5.037 -2.4811 -1.7680 -2.4692
16128TIP3    H269876   0.505   5.506   4.963  0.9309 -1.7997  1.0233
16129TIP3   OH269877   2.811   4.384   6.379  0.3214 -0.6138  0.3189
16129TIP3    H169878   2.769   4.309   6.337 -1.0479 -0.6939  1.7408
16129TIP3    H269879   2.824   4.447   6.308 -2.2690 -0.5862 -0.2326
16130TIP3   OH269880   5.653   6.707  13.619  0.4038 -0.1236 -0.1882
16130TIP3    H169881   5.718   6.772  13.592  1.0307  0.1602  1.8386
16130TIP3    H269882   5.705   6.629  13.641  0.1445  0.1769  1.6570
16131TIP3   OH269883   0.242   6.013  14.835  0.4529  0.8301 -0.4008
16131TIP3    H169884   0.215   6.071  14.906  1.8559  2.0789 -0.8423
16131TIP3    H269885   0.295   5.946  14.878 -2.3608 -1.0989  0.3319
16132TIP3   OH269886   0.533   3.801   5.112  0.4216 -0.1192  0.5280
16132TIP3    H169887   0.560   3.850   5.189 -1.4751 -1.2960  2.0361
16132TIP3    H269888   0.459   3.850   5.076  1.2972  0.4252 -0.5728
16133TIP3   OH269889   2.832   1.604  13.010 -0.7186  0.2446 -0.2650
16133TIP3    H169890   2.806   1.682  12.961 -0.2699  0.7665  0.3198
16133TIP3    H269891   2.881   1.552  12.946  1.3445  1.7051  0.0046
16134TIP3   OH269892   1.127   3.215   0.234 -0.2879 -1.1947  0.1582
16134TIP3    H169893   1.138   3.215   0.329  2.5275  0.3185 -0.0627
16134TIP3    H269894   1.087   3.300   0.215 -3.5651 -2.6075  0.0949
16135TIP3   OH269895   4.591   5.380   4.175  0.1867  0.5829  0.2305
16135TIP3    H169896   4.616   5.460   4.129 -0.4379 -0.0152 -1.2171
16135TIP3    H269897   4.647   5.378   4.252  0.6564  2.0816 -0.0388
16136TIP3   OH269898   1.781   1.864   4.914  0.1547 -0.1517  0.0587
16136TIP3    H169899   1.748   1.859   4.825  1.1534 -0.6535 -0.2874
16136TIP3    H269900   1.859   1.809   4.915  0.8849  0.8634  0.9151
16137TIP3   OH269901   2.157   3.666  13.496  0.7176  0.3021 -0.0538
16137TIP3    H169902   2.110   3.650  13.414 -0.2361 -0.2343  0.5903
16137TIP3    H269903   2.115   3.610  13.560  1.8704  0.2449  0.6811
16138TIP3   OH269904   3.978   5.569  17.235  0.2215 -0.4272 -0.3415
16138TIP3    H169905   3.890   5.535  17.219  0.4942  0.1519 -3.6635
16138TIP3    H269906   4.033   5.525  17.171  2.2929 -0.3241  1.2661
16139TIP3   OH269907   1.740   0.096  14.317  0.1206 -0.1161  0.4945
16139TIP3    H169908   1.712   0.103  14.226 -0.7622  2.4931  0.8823
16139TIP3    H269909   1.817   0.152  14.324  0.8587 -1.1620  1.1539
16140TIP3   OH269910   0.767   3.959  11.456 -0.3240 -0.5741 -0.5091
16140TIP3    H169911   0.815   3.980  11.376 -0.9923  0.7650 -0.5826
16140TIP3    H269912   0.831   3.969  11.526  0.0141 -0.7931 -0.7841
16141TIP3   OH269913   2.337   0.771  11.484 -0.0440 -0.2187 -0.0060
16141TIP3    H169914   2.323   0.822  11.404 -1.1685 -1.1782 -0.4559
16141TIP3    H269915   2.361   0.683  11.452  2.5198  0.1349  0.7514
16142TIP3   OH269916   0.111   5.570  14.935  0.8134 -0.3778 -0.3970
16142TIP3    H169917   0.143   5.585  14.845 -1.0865  0.3292 -1.0145
16142TIP3    H269918   0.105   5.658  14.973 -1.1935 -0.3554 -0.6482
16143TIP3   OH269919   1.812   4.400  14.347  0.2023 -0.0550  0.7093
16143TIP3    H169920   1.778   4.370  14.432  1.3444  0.4801  1.3721
16143TIP3    H269921   1.743   4.457  14.313 -0.9220 -1.4288  0.5647
16144TIP3   OH269922   2.712   6.175  14.495 -0.2810 -0.1689 -0.3670
16144TIP3    H169923   2.793   6.223  14.482  0.4034 -1.6055 -1.6072
16144TIP3    H269924   2.666   6.181  14.411 -1.2348  0.1661  0.1499
16145TIP3   OH269925   2.648   1.380   3.398  0.3860 -0.1247 -0.0545
16145TIP3    H169926   2.644   1.470   3.365  0.5773  0.1559  0.6651
16145TIP3    H269927   2.713   1.383   3.468 -0.7031 -0.4786  1.0111
16146TIP3   OH269928   6.674   1.817   0.775  0.4675 -0.1951  0.4925
16146TIP3    H169929   6.587   1.777   0.782  1.1235 -1.4477  4.1881
16146TIP3    H269930   6.666   1.899   0.823  1.4955 -0.8421  1.8428
16147TIP3   OH269931   4.830   2.706  11.165  0.6868  0.0830 -0.4794
16147TIP3    H169932   4.905   2.753  11.129 -0.2642  0.9473 -1.4140
16147TIP3    H269933   4.764   2.710  11.096  0.0596 -1.3822 -0.0076
16148TIP3   OH269934   6.529   4.496   3.644 -0.0942 -0.0140  0.3302
16148TIP3    H169935   6.542   4.581   3.602  1.8035  0.7179  2.2427
16148TIP3    H269936   6.533   4.433   3.571  3.1330  1.1847 -0.6959
16149TIP3   OH269937   5.418   5.944  13.428 -0.0228  0.0735 -0.1144
16149TIP3    H169938   5.472   5.967  13.352  0.5851 -0.7606  0.0370
16149TIP3    H269939   5.481   5.910  13.492 -0.5589  0.5254  0.6678
16150TIP3   OH269940   1.091   2.777   5.176  0.0886  0.0656  0.1660
16150TIP3    H169941   1.103   2.868   5.148  1.6482  0.1458  0.9297
16150TIP3    H269942   1.180   2.748   5.200 -0.4150 -1.5885  0.1488
16151TIP3   OH269943   1.039   3.955  13.859  0.3192  0.0754  0.1964
16151TIP3    H169944   1.079   4.009  13.927  0.4005  2.3095 -1.4877
16151TIP3    H269945   1.108   3.942  13.794 -0.4434  0.2658 -0.6850
16152TIP3   OH269946   0.484   2.928  12.861 -0.3697  0.1675  0.1383
16152TIP3    H169947   0.450   3.007  12.903 -0.3887  0.8615 -1.1072
16152TIP3    H269948   0.567   2.911  12.905  0.3974  1.8124 -0.5668
16153TIP3   OH269949   6.073   2.398   3.578 -0.1016 -0.4983 -0.7262
16153TIP3    H169950   6.115   2.432   3.499  1.9144  0.7859  0.7927
16153TIP3    H269951   6.125   2.434   3.650 -2.1327 -1.2312  1.2229
16154TIP3   OH269952   6.605   0.461  11.506 -0.4649 -0.2969  0.2190
16154TIP3    H169953   6.646   0.482  11.590 -0.2257  0.2559 -0.0304
16154TIP3    H269954   6.512   0.452  11.526 -0.3327 -0.7480  0.6471
16155TIP3   OH269955   2.482   5.241  12.349  0.4061  0.1332 -0.6229
16155TIP3    H169956   2.424   5.165  12.342 -0.5472  0.9154 -1.4372
16155TIP3    H269957   2.564   5.212  12.309  0.7899 -1.1449  0.9811
16156TIP3   OH269958   1.320   5.657   6.278 -0.3627  0.4317 -0.2116
16156TIP3    H169959   1.353   5.747   6.282  0.6185  0.0630  0.4861
16156TIP3    H269960   1.225   5.666   6.287 -0.4733  1.5114 -1.9010
16157TIP3   OH269961   0.470   1.785  12.022 -0.7001 -0.2351  0.2538
16157TIP3    H169962   0.518   1.721  12.074 -1.6655  0.1256  1.6628
16157TIP3    H269963   0.378   1.773  12.049 -1.0639  0.8163 -0.4633
16158TIP3   OH269964   5.951   2.587  15.978 -0.0216 -0.3652  0.2647
16158TIP3    H169965   5.864   2.578  15.939  1.1600  1.2423 -3.2299
16158TIP3    H269966   5.952   2.675  16.014 -0.3709 -1.0459  2.0188
16159TIP3   OH269967   6.002   1.501  16.000 -0.0535  0.0758 -0.1112
16159TIP3    H169968   5.977   1.543  16.082  0.1428  0.0802 -0.0535
16159TIP3    H269969   5.980   1.409  16.012 -0.2940  0.1233 -0.1626
16160TIP3   OH269970   1.903   1.125  16.671 -0.4157  0.0521 -0.2862
16160TIP3    H169971   1.827   1.072  16.648 -0.2620 -0.8152  1.0757
16160TIP3    H269972   1.869   1.193  16.729 -0.1396 -0.4694  0.5033
16161TIP3   OH269973   3.035   1.445   4.534  0.0834 -0.0353 -0.1903
16161TIP3    H169974   3.124   1.418   4.556 -0.8070 -2.2099  1.1061
16161TIP3    H269975   3.028   1.535   4.568  1.5044 -0.1541  0.5025
16162TIP3   OH269976   6.655   4.044   4.167  0.3548  0.4450  0.0417
16162TIP3    H169977   6.710   3.997   4.105  0.6065  1.5450 -0.5893
16162TIP3    H269978   6.584   3.983   4.188  0.7914 -0.2835 -0.5854
16163TIP3   OH269979   2.808   2.932  15.705  0.0727  0.2671  0.0964
16163TIP3    H169980   2.771   2.916  15.618 -0.0105  0.4979  0.0875
16163TIP3    H269981   2.900   2.906  15.697  0.2545  0.9960 -0.2804
16164TIP3   OH269982   1.907   3.025   4.532  0.1922 -0.6349 -0.1462
16164TIP3    H169983   1.903   2.993   4.622 -3.4435  0.8697  0.4265
16164TIP3    H269984   1.885   2.949   4.478 -1.9930 -0.6585  0.6782
16165TIP3   OH269985   3.183   6.411   4.761  0.1767  0.3062  0.4129
16165TIP3    H169986   3.214   6.492   4.720  0.3202  0.9509  1.7410
16165TIP3    H269987   3.178   6.432   4.854 -2.5060 -0.3066  0.4917
16166TIP3   OH269988   0.299   3.697   3.820  1.1716  0.0820  0.3628
16166TIP3    H169989   0.339   3.770   3.867  1.8226  0.7530 -1.1827
16166TIP3    H269990   0.339   3.619   3.859  2.6439  0.6724  0.0894
16167TIP3   OH269991   2.968   4.669   1.989  0.2279  0.7350  0.1625
16167TIP3    H169992   3.063   4.662   1.990  0.2930  0.2167 -2.4194
16167TIP3    H269993   2.937   4.593   2.038  1.1794 -0.4274 -0.9530
16168TIP3   OH269994   6.813   0.242  16.489  0.2278 -0.0946  0.5274
16168TIP3    H169995   6.762   0.255  16.409  0.2808 -1.6628  0.2001
16168TIP3    H269996   6.767   0.172  16.536  2.9709 -2.9534 -0.6686
16169TIP3   OH269997   1.236   6.023   5.521 -0.0279 -0.2415 -0.2809
16169TIP3    H169998   1.230   6.112   5.556  2.1943 -0.1300 -0.0734
16169TIP3    H269999   1.192   6.028   5.436  0.4096  1.1497 -0.4442
16170TIP3   OH270000   5.642   0.318   0.887  0.2366 -0.0281  0.0254
16170TIP3    H170001   5.615   0.377   0.816  1.5129 -0.1525 -0.5977
16170TIP3    H270002   5.619   0.365   0.967 -1.6511 -0.0786 -0.4420
16171TIP3   OH270003   3.551   2.359   4.787  0.6408  0.1877 -0.3533
16171TIP3    H170004   3.586   2.448   4.790 -1.1560  0.9388 -0.5750
16171TIP3    H270005   3.584   2.317   4.866  1.3965  1.0930 -0.1795
16172TIP3   OH270006   1.812   1.169   3.992  0.5819 -0.2186  0.5699
16172TIP3    H170007   1.764   1.200   4.069 -0.7448 -0.7642 -0.0168
16172TIP3    H270008   1.904   1.173   4.019  0.2075  0.5123  1.8443
16173TIP3   OH270009   3.707   5.519  16.183 -0.4455  0.2825  0.4593
16173TIP3    H170010   3.793   5.516  16.225  0.3654 -0.3012 -1.1424
16173TIP3    H270011   3.665   5.437  16.209  0.3435 -0.4269 -0.3850
16174TIP3   OH270012   5.439   1.752   0.443 -0.4414 -0.3068 -0.2521
16174TIP3    H170013   5.469   1.832   0.487 -1.5448 -0.7855  1.4575
16174TIP3    H270014   5.418   1.692   0.514 -1.9451 -1.2707 -1.4459
16175TIP3   OH270015   3.205   6.088  15.600 -0.2086 -0.6720  0.7997
16175TIP3    H170016   3.155   6.008  15.616  0.4487 -0.8439  2.1962
16175TIP3    H270017   3.191   6.107  15.507 -1.5544 -1.5840  0.7827
16176TIP3   OH270018   2.493   0.587  16.416 -0.0151  0.1491  0.3173
16176TIP3    H170019   2.412   0.636  16.413  0.6337  1.2028 -1.6160
16176TIP3    H270020   2.556   0.647  16.457  0.1164 -0.1695  0.5914
16177TIP3   OH270021   3.543   3.361   1.909 -0.2418 -0.3655  0.1469
16177TIP3    H170022   3.528   3.435   1.969  0.5068  0.0291 -0.1439
16177TIP3    H270023   3.475   3.298   1.932  0.9308 -0.8993  2.4668
16178TIP3   OH270024   5.133   0.992  13.667 -0.5760 -0.1493 -0.3045
16178TIP3    H170025   5.039   0.998  13.650 -0.4590  1.2545 -0.6047
16178TIP3    H270026   5.149   1.057  13.735  0.2118 -0.2209 -0.4104
16179TIP3   OH270027   3.464   5.763  14.926 -0.4869  0.1981 -0.2401
16179TIP3    H170028   3.452   5.679  14.883 -0.1876 -0.3951  0.8024
16179TIP3    H270029   3.468   5.827  14.854  2.7537 -1.0327 -1.3481
16180TIP3   OH270030   4.513   2.249   0.747 -0.2680 -0.3622 -0.1460
16180TIP3    H170031   4.491   2.173   0.693 -0.6664  0.1764 -0.7596
16180TIP3    H270032   4.446   2.251   0.816 -0.9450  0.0777 -0.7972
16181TIP3   OH270033   6.013   3.524  16.572 -0.2561 -0.1931  0.5348
16181TIP3    H170034   6.061   3.453  16.529 -1.9310 -1.2497  0.3248
16181TIP3    H270035   6.077   3.594  16.581  0.5429 -0.4077 -2.4844
16182TIP3   OH270036   3.736   6.024   0.515 -0.3850  0.2744  0.4100
16182TIP3    H170037   3.734   6.103   0.461 -0.5154  0.2126  0.3250
16182TIP3    H270038   3.804   6.042   0.579  1.2266 -0.4653 -1.0187
16183TIP3   OH270039   1.594   0.222   5.026 -0.5488 -0.2154 -0.8667
16183TIP3    H170040   1.582   0.135   5.066  1.0839 -0.7140 -1.4092
16183TIP3    H270041   1.598   0.282   5.101  1.4321 -1.0106 -0.2720
16184TIP3   OH270042   1.002   6.068  13.682 -0.1822  0.2799  0.6725
16184TIP3    H170043   0.981   6.114  13.600 -0.9603  1.0124  1.2672
16184TIP3    H270044   1.006   5.976  13.657  1.1017  0.6169 -0.4880
16185TIP3   OH270045   6.664   0.491   5.453 -0.2884  0.5146  0.0130
16185TIP3    H170046   6.594   0.460   5.509  0.3437  0.1586  0.6184
16185TIP3    H270047   6.702   0.412   5.415 -0.7203  0.7474 -0.9520
16186TIP3   OH270048   0.553   0.144  11.250 -0.1245 -0.2601  0.0068
16186TIP3    H170049   0.475   0.099  11.217 -0.8406 -0.2101  1.5300
16186TIP3    H270050   0.608   0.073  11.284  0.2765 -0.2537 -0.6223
16187TIP3   OH270051   5.335   5.298   1.133  0.1405  0.2767 -0.2048
16187TIP3    H170052   5.337   5.320   1.039  2.0301  0.5922 -0.1344
16187TIP3    H270053   5.341   5.383   1.177  0.5581  0.0606  0.1648
16188TIP3   OH270054   2.661   4.946  17.107  0.4549  0.3607  0.1412
16188TIP3    H170055   2.632   4.894  17.032 -1.9941 -0.0741  1.3098
16188TIP3    H270056   2.676   5.033  17.072 -1.3933  0.3626 -0.7634
16189TIP3   OH270057   5.790   0.149   4.701  0.0998 -0.5603  0.2743
16189TIP3    H170058   5.696   0.149   4.685  0.2403  0.1311 -0.6571
16189TIP3    H270059   5.829   0.167   4.615  0.9684  2.1694  1.1199
16190TIP3   OH270060   1.280   2.547  12.497  0.7933 -0.5760  0.1125
16190TIP3    H170061   1.303   2.612  12.431 -1.4129 -2.3798 -2.6451
16190TIP3    H270062   1.359   2.495  12.509  1.7270  0.8088  0.2617
16191TIP3   OH270063   1.448   0.870   2.343  0.4552  0.3869  0.3959
16191TIP3    H170064   1.448   0.931   2.417 -3.7093  0.8217  0.2804
16191TIP3    H270065   1.412   0.789   2.380  0.9050 -0.2974 -0.6272
16192TIP3   OH270066   5.827   6.105  14.576  0.2585  0.1243  0.5210
16192TIP3    H170067   5.770   6.045  14.624 -0.5175 -1.4949 -2.2254
16192TIP3    H270068   5.769   6.178  14.551 -0.5135 -1.1207 -1.5515
16193TIP3   OH270069   5.945   3.676   4.629  0.1501  0.3628  0.2067
16193TIP3    H170070   5.948   3.690   4.534  1.7350  0.2312  0.2121
16193TIP3    H270071   6.034   3.650   4.652 -0.4337 -0.4828  1.6101
16194TIP3   OH270072   5.713   1.925  14.265 -0.2943  0.1038  0.0650
16194TIP3    H170073   5.627   1.902  14.301  0.8705 -0.9498  2.4610
16194TIP3    H270074   5.745   1.843  14.228  0.2979  0.0650  0.6418
16195TIP3   OH270075   6.744   6.428  13.694  0.2680 -0.1866  0.4408
16195TIP3    H170076   6.754   6.510  13.742 -0.8909 -0.4037  1.0744
16195TIP3    H270077   6.812   6.432  13.626  0.8198  0.8791  1.0304
16196TIP3   OH270078   2.838   1.496  13.305  0.4867 -0.1107  0.0216
16196TIP3    H170079   2.825   1.520  13.213 -1.8223  2.2878  0.8290
16196TIP3    H270080   2.905   1.557  13.336 -1.1753  1.4710  0.6686
16197TIP3   OH270081   0.554   4.590  14.722  0.3765  0.2782 -0.3815
16197TIP3    H170082   0.582   4.518  14.665  2.0494  0.0502  0.6477
16197TIP3    H270083   0.535   4.549  14.806 -2.3217  0.5753 -0.7465
16198TIP3   OH270084   1.036   5.688  11.713 -0.2196  0.4956  0.3318
16198TIP3    H170085   1.055   5.635  11.790  1.3886  0.8567  0.2173
16198TIP3    H270086   0.974   5.754  11.744 -1.2773 -0.6717  0.7696
16199TIP3   OH270087   0.636   0.863   1.953 -0.3248 -0.4880 -0.3947
16199TIP3    H170088   0.718   0.868   2.002 -0.8910 -0.4210  0.5811
16199TIP3    H270089   0.594   0.783   1.985 -1.9117  0.8975  1.2304
16200TIP3   OH270090   1.668   4.217   2.361 -0.0083  0.6034 -0.2639
16200TIP3    H170091   1.697   4.293   2.312 -0.2101  0.2170 -1.0126
16200TIP3    H270092   1.668   4.146   2.296 -1.7662  0.4068 -0.1049
16201TIP3   OH270093   4.251   5.498  12.675  0.6565  0.3353 -0.3465
16201TIP3    H170094   4.222   5.500  12.584 -1.0143 -0.7700  0.1285
16201TIP3    H270095   4.311   5.423  12.679  1.1516  0.7023 -0.6202
16202TIP3   OH270096   3.428   6.143   0.950  0.5939 -0.0495  0.0732
16202TIP3    H170097   3.428   6.238   0.945 -0.1174  0.0257  1.2105
16202TIP3    H270098   3.451   6.114   0.861 -2.0556  1.1723 -1.1095
16203TIP3   OH270099   3.107   5.751   3.901  0.4598  0.3098  1.1568
16203TIP3    H170100   3.173   5.737   3.968 -0.5697 -0.8220  1.9839
16203TIP3    H270101   3.100   5.666   3.856 -1.0426  0.1138  1.6977
16204TIP3   OH270102   5.800   3.069  12.740  0.4941  1.2461 -0.2199
16204TIP3    H170103   5.796   2.975  12.722 -1.8399  1.4809 -1.3821
16204TIP3    H270104   5.893   3.089  12.746  1.0394 -1.3439  1.3566
16205TIP3   OH270105   0.710   3.243  13.548 -0.2828 -0.2413  0.8783
16205TIP3    H170106   0.767   3.319  13.531 -1.6689  0.7929  0.7094
16205TIP3    H270107   0.622   3.275  13.530 -0.7547 -2.4898 -1.1566
16206TIP3   OH270108   5.178   5.138   0.772 -0.0475  0.1823 -0.0234
16206TIP3    H170109   5.147   5.055   0.810 -0.1915  0.8524  1.3719
16206TIP3    H270110   5.226   5.111   0.693 -1.5003 -1.0986 -0.5215
16207TIP3   OH270111   2.272   1.483  11.100 -0.0385 -0.2566 -0.7831
16207TIP3    H170112   2.301   1.523  11.182 -1.0959  0.8680 -0.9300
16207TIP3    H270113   2.325   1.404  11.091  0.4859 -0.0877  0.6921
16208TIP3   OH270114   1.284   4.769  16.187 -0.1619 -0.3283 -0.5851
16208TIP3    H170115   1.210   4.721  16.225 -1.2442  1.1175 -0.8101
16208TIP3    H270116   1.356   4.753  16.249 -0.6767 -1.6338 -0.2848
16209TIP3   OH270117   2.825   6.568  14.916 -0.4590  0.1211  0.2206
16209TIP3    H170118   2.818   6.664  14.917 -0.3157  0.2491 -2.7229
16209TIP3    H270119   2.739   6.538  14.888  0.1334 -0.4239 -1.1192
16210TIP3   OH270120   4.005   5.695  14.414  0.4234  0.8804 -0.0392
16210TIP3    H170121   4.041   5.624  14.361  0.8098  0.9568  0.1122
16210TIP3    H270122   3.912   5.676  14.421  0.4016  0.7696 -0.5902
16211TIP3   OH270123   5.751   2.627   0.227  0.0984 -0.0433 -0.3365
16211TIP3    H170124   5.742   2.577   0.307 -0.9811 -0.3128 -0.6057
16211TIP3    H270125   5.821   2.583   0.178 -1.6853 -2.1823 -1.1661
16212TIP3   OH270126   5.238   3.147  15.139  0.4998 -0.1232  0.0375
16212TIP3    H170127   5.200   3.075  15.188 -0.7357  1.2088  1.0971
16212TIP3    H270128   5.229   3.121  15.047 -1.1084 -0.7492  0.3488
16213TIP3   OH270129   5.799   2.373   3.991 -0.3174 -0.4276 -0.4229
16213TIP3    H170130   5.814   2.363   3.897 -1.2179 -0.1760 -0.5984
16213TIP3    H270131   5.885   2.396   4.026  0.0744 -0.7475 -1.1476
16214TIP3   OH270132   4.024   4.788   1.143 -0.4365  0.1131 -0.0904
16214TIP3    H170133   4.113   4.811   1.117  0.0603  0.1932  1.5651
16214TIP3    H270134   4.020   4.807   1.237 -1.7060 -1.3491  0.2116
16215TIP3   OH270135   4.289   4.952   3.358  0.0694 -0.3533  0.3912
16215TIP3    H170136   4.206   4.940   3.403  0.6164 -1.5533  1.1118
16215TIP3    H270137   4.277   4.908   3.274 -0.4207  0.5455 -0.0291
16216TIP3   OH270138   6.726   4.295   4.411 -0.0578 -0.4731  0.4516
16216TIP3    H170139   6.799   4.294   4.350 -0.0126  1.6724  0.3703
16216TIP3    H270140   6.649   4.312   4.357 -0.2943 -0.5490  0.7586
16217TIP3   OH270141   1.298   1.514   6.197  0.0615  0.1213 -0.1791
16217TIP3    H170142   1.210   1.479   6.214 -0.7791  2.5407  0.9179
16217TIP3    H270143   1.355   1.462   6.254 -1.4217  1.7040  3.0413
16218TIP3   OH270144   4.939   0.781  16.803 -0.4735 -0.1340 -0.2346
16218TIP3    H170145   4.885   0.789  16.725  0.3098  1.1279 -0.6939
16218TIP3    H270146   4.950   0.871  16.834  0.7664 -0.4146  0.2325
16219TIP3   OH270147   2.277   5.530  11.716 -0.0229  0.3145  0.6622
16219TIP3    H170148   2.184   5.506  11.718  0.0224 -0.3735 -2.0404
16219TIP3    H270149   2.283   5.596  11.646  1.6413 -0.3004  0.1862
16220TIP3   OH270150   4.501   0.119   1.176  0.5495 -0.0207 -0.0837
16220TIP3    H170151   4.515   0.083   1.089 -2.3118 -0.6856 -0.3774
16220TIP3    H270152   4.572   0.181   1.188  1.7692 -0.8518 -2.3340
16221TIP3   OH270153   0.594   2.161   1.976  0.0275 -0.0811  0.2107
16221TIP3    H170154   0.580   2.256   1.972  0.4978  0.0264  1.0900
16221TIP3    H270155   0.514   2.124   1.937  0.1682  0.6778 -0.8527
16222TIP3   OH270156   5.840   0.254   3.530 -0.2984 -0.0383 -0.1970
16222TIP3    H170157   5.860   0.190   3.599 -0.4275  2.3148  2.1946
16222TIP3    H270158   5.759   0.222   3.491 -1.1035 -0.7014  1.8568
16223TIP3   OH270159   3.762   3.820  13.968  0.4110 -0.1199  0.4872
16223TIP3    H170160   3.755   3.758  14.041  1.5754 -0.4572  0.3468
16223TIP3    H270161   3.673   3.851  13.954  0.3728  1.1892  3.1007
16224TIP3   OH270162   6.268   0.132   4.767  0.3668 -0.1998  0.2592
16224TIP3    H170163   6.237   0.104   4.853  0.3538 -0.8807  0.0334
16224TIP3    H270164   6.340   0.193   4.786 -1.2966  1.7201  0.8140
16225TIP3   OH270165   3.536   2.120   1.011 -0.8344 -0.4100  0.2027
16225TIP3    H170166   3.482   2.122   1.091  1.2096 -1.9052  1.7338
16225TIP3    H270167   3.502   2.045   0.962  1.6141 -3.4105  2.6688
16226TIP3   OH270168   0.138   1.835  12.906 -0.0923 -0.2919 -0.3489
16226TIP3    H170169   0.078   1.850  12.978  0.1359 -1.4881  0.0973
16226TIP3    H270170   0.200   1.769  12.938  0.8323  0.1446 -1.1582
16227TIP3   OH270171   0.493   6.207  14.912  0.3959 -0.4138 -0.0127
16227TIP3    H170172   0.420   6.212  14.974 -1.7639 -1.7333 -2.2292
16227TIP3    H270173   0.531   6.121  14.926  0.0067 -0.6499 -0.3642
16228TIP3   OH270174   1.570   2.042  16.452  0.6574  0.6115  0.1640
16228TIP3    H170175   1.637   2.039  16.384 -0.7084  1.8866 -1.3283
16228TIP3    H270176   1.595   2.115  16.507  0.1227  1.6010 -0.8588
16229TIP3   OH270177   0.763   4.335   3.827 -0.7331 -0.3216 -0.3217
16229TIP3    H170178   0.803   4.367   3.908  0.1805 -3.0958  0.4615
16229TIP3    H270179   0.673   4.313   3.851 -0.3988 -1.3485  0.0417
16230TIP3   OH270180   0.039   4.235   1.129 -0.1849 -0.5955  0.0932
16230TIP3    H170181  -0.029   4.277   1.183 -0.4257 -0.3012 -0.4299
16230TIP3    H270182   0.114   4.294   1.135 -0.3246 -0.3867 -0.1557
16231TIP3   OH270183   5.556   1.830   4.659  0.3616  0.4554 -0.4744
16231TIP3    H170184   5.577   1.883   4.736 -0.9156 -1.5375  1.3920
16231TIP3    H270185   5.627   1.765   4.655 -0.6876 -0.8058  0.4386
16232TIP3   OH270186   6.360   0.076  14.295 -0.6099 -0.1997 -0.2453
16232TIP3    H170187   6.327   0.005  14.351 -0.3599  0.3978  0.6656
16232TIP3    H270188   6.373   0.034  14.210  0.9772 -1.6301  0.6448
16233TIP3   OH270189   3.290   2.695   2.084  0.1565 -0.3553  0.2820
16233TIP3    H170190   3.302   2.618   2.139  0.8179  0.2139  0.9484
16233TIP3    H270191   3.371   2.702   2.034  1.4214  1.6430  2.4484
16234TIP3   OH270192   3.122   2.115  14.286 -0.1238  0.2121  0.7187
16234TIP3    H170193   3.192   2.116  14.221 -2.2536  3.0037 -1.8709
16234TIP3    H270194   3.160   2.158  14.363  1.5358 -0.0716  0.0967
16235TIP3   OH270195   3.864   0.035  16.410  0.2207  0.3270 -0.2502
16235TIP3    H170196   3.892  -0.040  16.463 -1.8227 -1.2533 -1.2434
16235TIP3    H270197   3.881   0.008  16.320  1.4359  1.9887 -0.5626
16236TIP3   OH270198   5.717   6.539   4.857 -0.1924 -0.5558  0.1427
16236TIP3    H170199   5.728   6.444   4.856 -1.1521 -0.6788 -0.2772
16236TIP3    H270200   5.691   6.561   4.767  1.4686  0.3085 -0.1622
16237TIP3   OH270201   4.330   4.886   4.285  0.2488 -0.3486  0.3132
16237TIP3    H170202   4.338   4.808   4.231 -0.3711  0.0268 -0.3399
16237TIP3    H270203   4.246   4.924   4.261  0.6434  0.6595  0.4329
16238TIP3   OH270204   5.258   0.532  14.497  0.7925 -0.3432  0.2858
16238TIP3    H170205   5.340   0.485  14.507  0.5926 -0.4122  1.9053
16238TIP3    H270206   5.282   0.624  14.503  0.6554 -0.3828  2.0034
16239TIP3   OH270207   4.309   6.654   2.115  0.7184 -0.0672 -0.4934
16239TIP3    H170208   4.297   6.561   2.133 -0.0223  0.3899  1.6683
16239TIP3    H270209   4.398   6.673   2.144  0.3023  0.2180  0.6171
16240TIP3   OH270210   1.648   1.064  15.332  0.1947 -0.0855 -0.3483
16240TIP3    H170211   1.602   0.981  15.335 -1.8918  0.9438 -1.3101
16240TIP3    H270212   1.628   1.107  15.415 -0.4490  0.2726 -0.6787
16241TIP3   OH270213   0.724   2.790   2.462 -0.0982  0.1966 -0.2877
16241TIP3    H170214   0.735   2.862   2.400  0.1635 -0.3574 -0.8908
16241TIP3    H270215   0.680   2.830   2.537  1.6742  1.3877  0.1681
16242TIP3   OH270216   0.852   0.046  16.874  0.0044  0.4858  0.2631
16242TIP3    H170217   0.912   0.119  16.889  2.6452 -1.1149 -1.5536
16242TIP3    H270218   0.869  -0.013  16.948 -1.3713  1.1846  1.1732
16243TIP3   OH270219   5.364   4.399   5.919 -0.6798 -0.5409 -0.1645
16243TIP3    H170220   5.292   4.402   5.982 -1.5970  0.0559 -1.2094
16243TIP3    H270221   5.322   4.381   5.835  0.3918 -0.1923 -0.7931
16244TIP3   OH270222   1.894   5.444   2.733  0.3443  0.6215  0.0321
16244TIP3    H170223   1.897   5.530   2.775 -0.9954  1.7232 -2.0006
16244TIP3    H270224   1.801   5.422   2.728  0.6379 -0.7616  0.1026
16245TIP3   OH270225   6.572   0.967   1.436  0.2136  0.4109  0.0113
16245TIP3    H170226   6.533   0.945   1.352 -0.2623  0.6617  0.1648
16245TIP3    H270227   6.594   0.882   1.475 -1.8479  0.1251  0.7136
16246TIP3   OH270228   4.438   3.774  14.471 -0.2211 -0.5688  0.4948
16246TIP3    H170229   4.382   3.795  14.396 -1.5820 -0.0999  1.5800
16246TIP3    H270230   4.509   3.838  14.468  0.2426 -1.1294 -0.8868
16247TIP3   OH270231   4.553   3.920  13.885  0.1624  0.7457  0.4694
16247TIP3    H170232   4.473   3.911  13.834 -0.6053  2.7930  1.1973
16247TIP3    H270233   4.607   3.846  13.859 -2.5480 -1.6060  1.0510
16248TIP3   OH270234   2.405   4.849   0.455 -0.1947 -0.1187 -0.6402
16248TIP3    H170235   2.425   4.756   0.440  1.1868  0.2753 -1.3838
16248TIP3    H270236   2.473   4.879   0.515 -0.0497  0.6668 -1.1955
16249TIP3   OH270237   2.194   2.551  13.562  0.4528  0.3595 -0.4642
16249TIP3    H170238   2.104   2.583  13.552  0.7423  0.9412 -1.2908
16249TIP3    H270239   2.248   2.630  13.558  1.0528 -0.0576 -0.7183
16250TIP3   OH270240   1.959   3.007  14.299  0.1533  0.1526  0.7193
16250TIP3    H170241   1.992   3.014  14.209  0.5796 -1.0951  0.7604
16250TIP3    H270242   2.034   2.976  14.349 -0.6210 -1.1282  1.1283
16251TIP3   OH270243   2.824   0.791  12.056  0.6357  0.0953 -0.0636
16251TIP3    H170244   2.878   0.817  11.982  3.2683  0.8462  1.9568
16251TIP3    H270245   2.883   0.795  12.131 -1.6620 -1.4434  1.9746
16252TIP3   OH270246   1.679   5.561  10.540 -0.6333 -0.2943  0.0140
16252TIP3    H170247   1.635   5.643  10.519  1.4548  0.8531 -0.1845
16252TIP3    H270248   1.768   5.587  10.566 -0.1776 -2.4308  0.8131
16253TIP3   OH270249   0.968   1.584  14.740 -0.3617  0.5284  0.4059
16253TIP3    H170250   1.007   1.552  14.659  2.0373  0.2542  1.5745
16253TIP3    H270251   1.017   1.664  14.760 -1.3512  0.9390  1.2601
16254TIP3   OH270252   4.038   4.467  12.099  0.2886  0.0760  0.4322
16254TIP3    H170253   4.043   4.559  12.122  0.2838  0.2350 -0.1930
16254TIP3    H270254   4.014   4.423  12.180 -0.3193  0.6929  0.5863
16255TIP3   OH270255   5.686   0.834   1.687  0.4372  0.1157  0.0076
16255TIP3    H170256   5.668   0.744   1.715  1.7121 -0.1871 -0.1029
16255TIP3    H270257   5.731   0.874   1.761 -0.0050  0.6300  0.0045
16256TIP3   OH270258   3.481   3.843   0.606  0.1374  0.0258  0.1697
16256TIP3    H170259   3.467   3.749   0.608 -0.9647  0.0571 -2.3806
16256TIP3    H270260   3.400   3.881   0.642  0.3960  0.0201  0.7674
16257TIP3   OH270261   6.818   5.850   2.828  0.2983 -0.2893  0.8859
16257TIP3    H170262   6.762   5.800   2.768 -0.2774  0.6862  0.5817
16257TIP3    H270263   6.784   5.830   2.915 -2.0414  1.9312  0.6280
16258TIP3   OH270264   0.234   1.621   6.597 -0.7318  0.0757 -0.5060
16258TIP3    H170265   0.152   1.635   6.645  0.0701  1.0646  0.6353
16258TIP3    H270266   0.299   1.673   6.645  0.4315 -0.1539 -1.7808
16259TIP3   OH270267   4.668   3.067  15.323  0.9249 -0.1153 -0.7424
16259TIP3    H170268   4.622   3.108  15.396  0.2635 -1.1922 -0.5205
16259TIP3    H270269   4.761   3.077  15.344  0.7549  0.3175 -0.1803
16260TIP3   OH270270   3.150   5.175   1.355  0.1649 -0.1662 -0.2429
16260TIP3    H170271   3.206   5.233   1.406  1.9113 -0.4335 -1.7402
16260TIP3    H270272   3.211   5.117   1.309 -1.4767 -2.5178  0.3777
16261TIP3   OH270273   3.319   1.391   1.379 -1.1280  0.1522  0.0438
16261TIP3    H170274   3.386   1.460   1.379 -0.7248 -0.2363 -0.2732
16261TIP3    H270275   3.331   1.346   1.463  0.3570 -1.1989 -0.8399
16262TIP3   OH270276   6.199   6.325   0.763  0.5793 -0.5504  0.4116
16262TIP3    H170277   6.116   6.333   0.811  0.2414 -1.9335  0.0925
16262TIP3    H270278   6.201   6.403   0.707  0.7300  0.8230  2.2173
16263TIP3   OH270279   6.440   6.796  13.527 -0.2292 -0.0162 -0.5480
16263TIP3    H170280   6.514   6.843  13.489  0.3870 -0.2346  0.3443
16263TIP3    H270281   6.365   6.823  13.475  0.1146  1.9196 -0.1035
16264TIP3   OH270282   3.520   5.667   2.003  0.1314 -0.4248  0.0870
16264TIP3    H170283   3.595   5.618   2.038  1.3431  0.2995 -1.3603
16264TIP3    H270284   3.483   5.610   1.936 -0.3775 -0.6115  0.5190
16265TIP3   OH270285   5.552   0.214   4.917 -0.0573 -0.4674  0.4277
16265TIP3    H170286   5.470   0.224   4.966  0.2339  2.8101  0.4524
16265TIP3    H270287   5.620   0.242   4.978  0.8395 -0.8062 -0.3833
16266TIP3   OH270288   6.725   4.595  12.334 -0.1465 -0.4975  0.1538
16266TIP3    H170289   6.754   4.543  12.259 -1.1299  0.9212 -1.2662
16266TIP3    H270290   6.791   4.579  12.401  2.1495  0.1031 -1.8455
16267TIP3   OH270291   3.830   1.814  13.591  0.4798  0.1948  0.7523
16267TIP3    H170292   3.768   1.823  13.519 -1.4613  0.4936  2.3728
16267TIP3    H270293   3.896   1.881  13.575 -0.1660  0.5711 -0.4722
16268TIP3   OH270294   0.088   2.735  16.819 -0.0721  0.2671  0.0020
16268TIP3    H170295   0.135   2.738  16.903 -0.4721 -0.9593  0.2872
16268TIP3    H270296   0.024   2.805  16.826  1.1613  1.4503 -0.0794
16269TIP3   OH270297   4.530   2.676   1.102  0.1443  0.1814 -0.5624
16269TIP3    H170298   4.485   2.757   1.125 -0.5882 -0.5104  0.5021
16269TIP3    H270299   4.535   2.627   1.183  0.6083 -0.8389 -1.1902
16270TIP3   OH270300   1.397   1.668   6.539  0.0414 -0.4742  0.5007
16270TIP3    H170301   1.368   1.702   6.624  2.8452  0.7464  1.0904
16270TIP3    H270302   1.444   1.587   6.561 -2.0055 -1.9624 -0.3257
16271TIP3   OH270303   2.810   0.574   0.792 -0.3598  0.2177  0.1309
16271TIP3    H170304   2.802   0.479   0.785  0.8140  0.0062  1.2243
16271TIP3    H270305   2.748   0.598   0.861  0.7514 -0.0566  1.2789
16272TIP3   OH270306   0.230   5.727  13.137  0.4496  0.3828  0.0869
16272TIP3    H170307   0.181   5.645  13.146 -1.4501  1.5697  1.3330
16272TIP3    H270308   0.320   5.700  13.117  0.1764 -2.0452  1.7669
16273TIP3   OH270309   1.346   6.369   0.047 -0.6943 -0.4910 -0.0960
16273TIP3    H170310   1.375   6.289   0.004  2.2580  0.1856  0.3688
16273TIP3    H270311   1.345   6.348   0.140 -0.6969 -0.2217 -0.0322
16274TIP3   OH270312   0.663   1.560   5.471  0.3849 -0.3313  0.2282
16274TIP3    H170313   0.747   1.594   5.440  0.0443 -0.2749 -0.6418
16274TIP3    H270314   0.646   1.608   5.552  2.1599 -1.7453  1.5403
16275TIP3   OH270315   6.483   5.438   4.243  0.4108  0.1711 -0.2768
16275TIP3    H170316   6.536   5.453   4.321 -1.2583 -0.8806  1.1440
16275TIP3    H270317   6.483   5.343   4.232 -0.4412  0.2165 -0.7712
16276TIP3   OH270318   5.287   2.518  11.917 -0.0057  0.0391 -0.3281
16276TIP3    H170319   5.332   2.447  11.872  1.2274 -0.1538  1.0950
16276TIP3    H270320   5.357   2.562  11.967 -1.1703  0.5879  0.8835
16277TIP3   OH270321   3.052   4.211   4.166 -0.3326 -0.0085 -0.6568
16277TIP3    H170322   3.129   4.154   4.167 -0.5105 -0.2478 -0.5039
16277TIP3    H270323   2.988   4.167   4.223  0.1211  1.1465  0.8382
16278TIP3   OH270324   3.075   5.307   4.262 -0.1595  0.1338 -0.1269
16278TIP3    H170325   3.123   5.308   4.344 -2.0555  0.0329  1.0421
16278TIP3    H270326   3.130   5.255   4.203  0.6799 -0.8262  1.4319
16279TIP3   OH270327   5.001   5.807   3.618  0.0784 -0.4358  0.0045
16279TIP3    H170328   4.945   5.869   3.571  0.0288 -1.0521 -0.7723
16279TIP3    H270329   5.027   5.743   3.551 -0.4594 -1.6621  0.9260
16280TIP3   OH270330   6.802   4.050   1.432  0.2973 -0.0675 -0.0053
16280TIP3    H170331   6.798   3.967   1.385 -1.1298 -0.0541  0.0583
16280TIP3    H270332   6.881   4.093   1.397  2.2465 -2.2588  1.3986
16281TIP3   OH270333   6.597   4.096  11.156 -0.0099  0.4881 -0.1179
16281TIP3    H170334   6.653   4.046  11.097  1.3161 -0.3617  1.7614
16281TIP3    H270335   6.508   4.068  11.134  0.5100 -0.5388 -1.0249
16282TIP3   OH270336   5.350   0.261   1.693 -0.0756  0.2814  0.3308
16282TIP3    H170337   5.432   0.226   1.731  0.2061  0.3608 -0.1993
16282TIP3    H270338   5.370   0.275   1.601 -1.3709 -1.8756 -0.3460
16283TIP3   OH270339   2.444   0.077   1.813 -0.0489 -0.3841  0.4386
16283TIP3    H170340   2.397   0.081   1.896 -0.7484  1.4586 -0.0048
16283TIP3    H270341   2.521   0.132   1.827  0.0326 -0.3878  0.0009
16284TIP3   OH270342   2.431   1.718   2.349 -0.3063 -0.6248  0.1364
16284TIP3    H170343   2.351   1.762   2.322  0.0009 -0.5452 -0.6636
16284TIP3    H270344   2.498   1.786   2.347 -0.3113 -0.5524  1.3745
16285TIP3   OH270345   4.753   3.802   6.247  0.4178 -0.1706 -0.7468
16285TIP3    H170346   4.793   3.873   6.197  2.0000 -0.3079  0.2282
16285TIP3    H270347   4.828   3.750   6.278 -0.1797  1.1083  3.5381
16286TIP3   OH270348   2.259   0.776   5.112  0.4067  0.1001 -0.0491
16286TIP3    H170349   2.341   0.730   5.129  1.5074  1.8170 -0.4756
16286TIP3    H270350   2.272   0.819   5.028 -1.2061 -0.1430 -0.4596
16287TIP3   OH270351   6.746   5.515   4.438  0.7078 -0.5651 -0.4635
16287TIP3    H170352   6.782   5.573   4.506 -2.6720  2.0685 -0.6589
16287TIP3    H270353   6.736   5.431   4.482  2.3580 -0.0647  1.0109
16288TIP3   OH270354   0.427   0.212   3.642 -0.1978 -0.4051 -0.2254
16288TIP3    H170355   0.432   0.202   3.547 -0.7096  2.3693 -0.6296
16288TIP3    H270356   0.441   0.306   3.657 -1.3988 -0.5538  2.3380
16289TIP3   OH270357   0.921   1.452  16.883 -0.5102 -0.2763 -0.4984
16289TIP3    H170358   0.906   1.448  16.788 -0.3740 -1.3962 -0.4770
16289TIP3    H270359   0.909   1.545  16.904  0.1637  0.1200 -1.7245
16290TIP3   OH270360   0.422   5.545   0.544  0.3591 -0.2381  0.1020
16290TIP3    H170361   0.386   5.544   0.455  0.4290 -1.2102  0.0755
16290TIP3    H270362   0.357   5.594   0.595 -0.1025 -0.4057 -0.3139
16291TIP3   OH270363   2.727   3.138   1.767  0.4183 -0.6143 -0.4938
16291TIP3    H170364   2.736   3.155   1.674 -0.2112  0.3468 -0.3849
16291TIP3    H270365   2.639   3.101   1.777 -0.1896  0.8904 -0.0762
16292TIP3   OH270366   3.131   3.028  11.877 -0.5007  0.2728  0.5098
16292TIP3    H170367   3.209   3.026  11.932  0.1738  0.3089 -0.4282
16292TIP3    H270368   3.164   3.033  11.787 -1.5610 -0.4104  0.0480
16293TIP3   OH270369   1.455   5.014   2.648 -0.0018  0.6345 -0.2476
16293TIP3    H170370   1.502   4.936   2.617  0.1690  1.3168 -1.7915
16293TIP3    H270371   1.382   5.024   2.586  0.2538  1.9711 -0.3566
16294TIP3   OH270372   3.041   4.737  17.035 -0.1173 -0.2870 -0.1666
16294TIP3    H170373   2.982   4.760  17.107 -0.0066 -0.1987 -0.1020
16294TIP3    H270374   3.066   4.646  17.053  0.0662 -0.2009  0.0185
16295TIP3   OH270375   4.185   0.409  15.231 -0.7596 -0.0466  0.0577
16295TIP3    H170376   4.091   0.396  15.224 -0.5770 -0.9331 -1.1295
16295TIP3    H270377   4.223   0.336  15.181  0.5027  2.1258 -2.3729
16296TIP3   OH270378   4.350   5.870   1.638 -0.1924  0.6369 -0.4515
16296TIP3    H170379   4.427   5.814   1.638  0.2292  1.1736  1.0952
16296TIP3    H270380   4.381   5.955   1.669 -1.6080  0.5183  1.4961
16297TIP3   OH270381   4.608   0.734  13.351 -0.0429  0.4615  0.1204
16297TIP3    H170382   4.516   0.711  13.364  0.0626  0.7182  1.4177
16297TIP3    H270383   4.652   0.704  13.430  0.4321  3.2550  1.0208
16298TIP3   OH270384   1.018   0.578   4.827 -0.3614 -0.3910 -0.2080
16298TIP3    H170385   0.927   0.600   4.847 -0.3108  0.5473 -0.9408
16298TIP3    H270386   1.060   0.571   4.913 -1.2506 -1.4919  0.1681
16299TIP3   OH270387   5.337   0.477  12.782 -0.0462  0.2481  0.1306
16299TIP3    H170388   5.405   0.545  12.782 -1.3067  1.5700  0.7322
16299TIP3    H270389   5.285   0.495  12.704 -1.0603  0.7197  0.8876
16300TIP3   OH270390   1.701   0.805  15.173  0.0868 -0.7579 -0.3201
16300TIP3    H170391   1.773   0.784  15.233  0.4811  0.1774 -0.4568
16300TIP3    H270392   1.626   0.818  15.230  0.6706  1.0559  0.0785
16301TIP3   OH270393   2.269   0.780  13.691  0.1354  0.1755  0.3420
16301TIP3    H170394   2.203   0.829  13.739 -1.1081  0.2883 -1.3845
16301TIP3    H270395   2.286   0.833  13.613  2.9537  0.5980  1.1089
16302TIP3   OH270396   6.554   5.200   2.305  0.2759  0.4415 -0.3281
16302TIP3    H170397   6.549   5.107   2.281  0.3761 -0.0788  1.5134
16302TIP3    H270398   6.638   5.208   2.351  0.4264  1.5279 -0.7740
16303TIP3   OH270399   0.349   4.797   4.139 -0.0376  0.8403  0.3636
16303TIP3    H170400   0.353   4.782   4.233 -2.2336 -0.0562  0.3663
16303TIP3    H270401   0.393   4.722   4.100  0.1526  0.8037  0.6496
16304TIP3   OH270402   0.878   0.902   0.128  0.1758  0.4315 -0.4528
16304TIP3    H170403   0.860   0.877   0.037 -1.5437  1.4289 -0.4210
16304TIP3    H270404   0.971   0.884   0.139  0.2297 -0.5897 -2.1209
16305TIP3   OH270405   6.329   0.447  11.458 -0.5211  0.1296 -0.1150
16305TIP3    H170406   6.299   0.366  11.502 -1.5090 -0.3185 -1.5387
16305TIP3    H270407   6.301   0.436  11.367 -2.1904  2.8094 -0.0228
16306TIP3   OH270408   1.457   1.918   2.740 -0.3363  0.0257 -0.3671
16306TIP3    H170409   1.366   1.924   2.769 -0.2348 -1.9428  0.4922
16306TIP3    H270410   1.457   1.850   2.673  0.6282 -0.6728  0.3091
16307TIP3   OH270411   5.998   1.537  14.767  0.4459 -0.0957 -0.2516
16307TIP3    H170412   5.992   1.460  14.824  0.8349  0.1999  0.1961
16307TIP3    H270413   5.929   1.524  14.701 -0.7690  0.1016  0.9355
16308TIP3   OH270414   3.797   3.996   5.839 -0.6687 -0.1590 -0.3680
16308TIP3    H170415   3.723   4.037   5.883 -0.6249  0.3565 -0.7644
16308TIP3    H270416   3.864   4.065   5.835 -0.6775 -0.1794 -1.2470
16309TIP3   OH270417   2.421   3.137  11.260  0.4550  0.6145  0.4794
16309TIP3    H170418   2.453   3.058  11.305 -1.8992 -0.3769  0.5653
16309TIP3    H270419   2.345   3.106  11.210 -0.5263  2.8405  0.5012
16310TIP3   OH270420   5.906   0.134  15.241  0.2943  0.4651 -0.2442
16310TIP3    H170421   5.836   0.069  15.231  1.0414 -0.5023  0.5824
16310TIP3    H270422   5.908   0.180  15.157 -1.1526  0.3436 -0.3721
16311TIP3   OH270423   2.806   5.962   1.824 -0.6271 -0.4703  0.2005
16311TIP3    H170424   2.826   5.960   1.730  0.1821 -0.5635  0.3762
16311TIP3    H270425   2.722   5.917   1.831  0.4561 -2.6749 -0.1938
16312TIP3   OH270426   2.266   4.396  12.847  0.2573 -0.5055 -0.1980
16312TIP3    H170427   2.222   4.312  12.859  1.5530 -1.6646 -2.7612
16312TIP3    H270428   2.359   4.374  12.843  0.6233  1.0400 -1.0396
16313TIP3   OH270429   5.407   4.215  13.289 -0.2783  0.0562  0.1033
16313TIP3    H170430   5.432   4.306  13.274  0.1296 -0.2375 -1.1232
16313TIP3    H270431   5.446   4.192  13.374 -0.8772  1.1855  0.7020
16314TIP3   OH270432   6.793   2.960   5.225 -0.0209  0.2722  0.3750
16314TIP3    H170433   6.733   2.953   5.299 -0.8767 -0.6459 -0.3718
16314TIP3    H270434   6.854   2.888   5.236  0.1873  0.4614  0.4699
16315TIP3   OH270435   2.156   3.198   4.562  0.3605 -0.1730 -0.4882
16315TIP3    H170436   2.073   3.151   4.555  0.5989 -0.6254 -0.3442
16315TIP3    H270437   2.215   3.151   4.503  0.6732 -0.2254 -0.1426
16316TIP3   OH270438   4.139   0.718  13.004 -0.3477  0.5015  0.0680
16316TIP3    H170439   4.147   0.771  12.925 -0.0637 -0.5165 -0.6044
16316TIP3    H270440   4.194   0.762  13.068 -0.1684  1.0513 -0.4575
16317TIP3   OH270441   4.118   5.463   2.260  0.1551  0.0571 -0.4149
16317TIP3    H170442   4.085   5.552   2.264  0.6963  0.2764 -0.7215
16317TIP3    H270443   4.071   5.416   2.330  1.1945  1.0257  1.0000
16318TIP3   OH270444   6.578   2.100  12.297 -0.2135  0.0263  0.1129
16318TIP3    H170445   6.527   2.039  12.350 -0.4749  0.9791  0.9990
16318TIP3    H270446   6.532   2.105  12.213 -1.5861  0.8411  0.8882
16319TIP3   OH270447   4.104   6.468   6.128  0.1660  0.3391  0.1766
16319TIP3    H170448   4.117   6.400   6.194 -0.3210 -2.4066 -2.3131
16319TIP3    H270449   4.062   6.540   6.175 -0.0169 -1.3714  2.8334
16320TIP3   OH270450   1.550   0.782   1.809  0.2467  0.2785 -0.1415
16320TIP3    H170451   1.580   0.855   1.863  0.8571  0.5856 -0.8682
16320TIP3    H270452   1.608   0.710   1.831 -0.6519 -0.1582  0.9232
16321TIP3   OH270453   3.287   4.573  10.826 -0.3863  0.1236 -0.4474
16321TIP3    H170454   3.247   4.493  10.862  1.0134 -0.1871  0.4815
16321TIP3    H270455   3.314   4.548  10.738  0.9861 -0.8042  0.1917
16322TIP3   OH270456   3.572   5.614   3.513  0.3989 -0.1219 -0.6427
16322TIP3    H170457   3.557   5.696   3.465  3.0815  1.3251  0.7059
16322TIP3    H270458   3.623   5.560   3.452  1.4093  0.5791 -0.4478
16323TIP3   OH270459   1.553   5.353  10.655 -0.1763 -0.1799  0.1042
16323TIP3    H170460   1.616   5.415  10.618  0.8625 -1.1028  0.2827
16323TIP3    H270461   1.468   5.392  10.636  0.2910 -0.3689 -2.9359
16324TIP3   OH270462   3.229   1.012   2.070  0.1684 -0.1085  0.0017
16324TIP3    H170463   3.235   1.107   2.056  0.3853 -0.2838 -1.1516
16324TIP3    H270464   3.166   1.003   2.141  0.8131  0.9378  0.7389
16325TIP3   OH270465   3.855   3.587  13.867  0.2903 -0.8690 -0.1335
16325TIP3    H170466   3.948   3.574  13.848  0.5915 -2.0187  1.8617
16325TIP3    H270467   3.845   3.681  13.879  1.4906 -0.8733  0.9816
16326TIP3   OH270468   2.278   2.413   3.438  0.3292  0.2114  0.2558
16326TIP3    H170469   2.201   2.368   3.473 -1.3756  2.7124  0.0554
16326TIP3    H270470   2.331   2.431   3.515 -0.0372 -0.2366  0.6212
16327TIP3   OH270471   0.313   1.245   0.873  0.1266  0.3249  0.0720
16327TIP3    H170472   0.403   1.211   0.873 -0.0522 -0.2075  1.2716
16327TIP3    H270473   0.310   1.305   0.948 -0.9478 -0.9210  1.0766
16328TIP3   OH270474   1.802   2.226   4.703 -0.1611  0.2831 -0.6578
16328TIP3    H170475   1.810   2.311   4.748 -2.4006  0.3306 -0.2065
16328TIP3    H270476   1.858   2.167   4.752 -0.0286  1.0947  0.1932
16329TIP3   OH270477   0.525   5.878   1.690  0.2605 -0.0143  0.1964
16329TIP3    H170478   0.486   5.860   1.605  0.3298  1.2474 -0.1201
16329TIP3    H270479   0.498   5.967   1.711  0.9723  0.0144  1.0923
16330TIP3   OH270480   3.476   0.175  16.693 -0.1554  0.0911  0.1421
16330TIP3    H170481   3.453   0.097  16.643 -0.7218  0.1949  0.2277
16330TIP3    H270482   3.391   0.214  16.717  0.1173  0.9181 -0.1936
16331TIP3   OH270483   2.904   4.808  13.101  0.8647  0.1548  0.9397
16331TIP3    H170484   2.852   4.887  13.119 -0.8120 -0.4972 -0.6890
16331TIP3    H270485   2.846   4.736  13.126  1.7468 -0.6000  0.8571
16332TIP3   OH270486   6.291   5.692  16.336  0.0603  0.1685  0.8361
16332TIP3    H170487   6.383   5.687  16.311 -0.1468 -1.7200  0.3193
16332TIP3    H270488   6.273   5.786  16.341  1.2448  0.6369 -1.9096
16333TIP3   OH270489   5.841   5.079   2.084  0.0851  0.2526  0.2711
16333TIP3    H170490   5.878   5.164   2.060 -0.1292 -0.0826 -1.3718
16333TIP3    H270491   5.757   5.076   2.038 -0.7638 -0.1039  1.7943
16334TIP3   OH270492   4.089   5.880   6.103  0.0356 -0.2574 -0.5324
16334TIP3    H170493   4.056   5.906   6.189  0.0855  0.7744 -0.8148
16334TIP3    H270494   4.012   5.883   6.046  0.1526 -0.1783 -0.6865
16335TIP3   OH270495   6.787   5.087  12.413 -0.2330  0.3985 -0.3408
16335TIP3    H170496   6.801   5.114  12.504  0.7238  0.8457 -0.6094
16335TIP3    H270497   6.814   5.162  12.361  1.1813 -0.5691 -1.0673
16336TIP3   OH270498   2.538   4.445   2.048  0.8218  0.4633  0.3682
16336TIP3    H170499   2.492   4.397   2.117  0.8693  0.6140  0.5079
16336TIP3    H270500   2.469   4.478   1.990  0.7942  0.1729  0.2384
16337TIP3   OH270501   3.059   0.014  14.802  0.2855  0.0514  0.5791
16337TIP3    H170502   2.987  -0.016  14.746 -0.0715 -0.5506  1.3436
16337TIP3    H270503   3.116  -0.062  14.810  0.5832  0.2815  0.6426
16338TIP3   OH270504   4.441   6.358   3.362  0.4655  0.5558  0.0084
16338TIP3    H170505   4.404   6.417   3.428  0.3462  0.4648  0.0224
16338TIP3    H270506   4.372   6.294   3.346  1.2302 -0.6194  1.2634
16339TIP3   OH270507   2.878   6.569  11.217 -0.0269  0.3492  0.4510
16339TIP3    H170508   2.950   6.618  11.178 -0.8660  0.1025 -1.5206
16339TIP3    H270509   2.834   6.633  11.273  0.5601  1.0604  0.1220
16340TIP3   OH270510   6.584   3.989   2.829 -0.3029  0.3964 -0.1875
16340TIP3    H170511   6.638   4.037   2.766  1.2528 -0.4551  0.4417
16340TIP3    H270512   6.568   4.051   2.900  0.2603  0.5276 -0.1692
16341TIP3   OH270513   3.302   4.409  16.828  0.5671  0.6016  0.1997
16341TIP3    H170514   3.361   4.468  16.875 -0.1507  0.0704  1.8298
16341TIP3    H270515   3.235   4.385  16.892 -0.2565 -0.4547 -0.9979
16342TIP3   OH270516   3.020   0.598  13.950  0.2946 -0.0276 -0.0594
16342TIP3    H170517   2.996   0.658  14.020  1.2298  0.0069  0.2473
16342TIP3    H270518   3.111   0.573  13.969  0.1835 -0.9250 -0.6128
16343TIP3   OH270519   3.642   2.076  16.302 -0.3823 -0.2601  0.5196
16343TIP3    H170520   3.587   1.999  16.317  0.4024 -0.5044  2.5199
16343TIP3    H270521   3.709   2.071  16.370  0.1641  1.7937  0.2116
16344TIP3   OH270522   3.644   3.066  16.342 -0.0543  0.0637 -0.2616
16344TIP3    H170523   3.628   3.097  16.253 -2.2805  0.3207  0.1636
16344TIP3    H270524   3.672   3.144  16.390 -0.4109  0.2740 -0.3907
16345TIP3   OH270525   5.184   3.088   5.785  0.3346  0.6486  0.8303
16345TIP3    H170526   5.247   3.054   5.722 -0.9232  1.1246 -0.7574
16345TIP3    H270527   5.237   3.137   5.849  1.5798  0.9538 -0.3996
16346TIP3   OH270528   0.618   2.143   5.471 -0.2086 -0.4563  0.0419
16346TIP3    H170529   0.666   2.113   5.393 -0.0524 -2.3648  0.8118
16346TIP3    H270530   0.675   2.209   5.510  1.5559 -2.2217  0.5929
16347TIP3   OH270531   0.405   2.036   1.370 -0.0185  0.2869  0.5532
16347TIP3    H170532   0.478   2.089   1.338  0.1137  0.8733  1.7645
16347TIP3    H270533   0.334   2.098   1.385  0.6682  0.5218  3.6153
16348TIP3   OH270534   5.139   3.873  16.795  0.5906  0.1669  0.1082
16348TIP3    H170535   5.232   3.890  16.782  1.3803 -1.1377  3.1844
16348TIP3    H270536   5.110   3.831  16.715  2.3548  1.5290 -1.3218
16349TIP3   OH270537   2.026   3.858  15.257 -0.2573  0.3363  0.2843
16349TIP3    H170538   1.936   3.884  15.277  0.1996  2.3227 -0.0125
16349TIP3    H270539   2.017   3.781  15.201 -1.8378  1.2857 -0.8571
16350TIP3   OH270540   0.741   2.945  13.802  0.0088 -0.6015  0.1848
16350TIP3    H170541   0.804   2.980  13.865  0.3112  0.1364 -0.5051
16350TIP3    H270542   0.774   2.974  13.717 -0.7560 -1.0054 -0.2583
16351TIP3   OH270543   0.404   3.491  16.159  0.3666  0.7419  0.3680
16351TIP3    H170544   0.453   3.414  16.131  0.7704  0.6446  1.3128
16351TIP3    H270545   0.378   3.534  16.077 -1.2793 -1.2421 -0.2396
16352TIP3   OH270546   4.690   6.281  14.906  0.0843 -0.2442  0.5961
16352TIP3    H170547   4.640   6.357  14.879 -0.6146 -0.5948  0.8739
16352TIP3    H270548   4.760   6.274  14.841 -0.1979  0.2830  0.2283
16353TIP3   OH270549   0.486   5.038   2.607  0.5391  0.3993  0.4521
16353TIP3    H170550   0.436   5.033   2.689  0.0551  3.8044  0.5131
16353TIP3    H270551   0.451   4.966   2.553 -1.3127 -0.0383  2.1071
16354TIP3   OH270552   2.445   6.755  12.632  0.2612  0.2838  0.2078
16354TIP3    H170553   2.492   6.671  12.630  0.7324  0.5547 -0.3730
16354TIP3    H270554   2.466   6.792  12.718  1.1117  0.4011 -0.0484
16355TIP3   OH270555   4.824   2.402  11.362  0.4043  0.2519  0.6548
16355TIP3    H170556   4.763   2.475  11.359  0.7367  0.5332  0.7015
16355TIP3    H270557   4.885   2.417  11.289  0.3806 -0.0585  0.5675
16356TIP3   OH270558   5.122   6.062   1.906  0.0017  0.0986 -0.2981
16356TIP3    H170559   5.117   6.126   1.977  0.8365 -1.1286  0.8974
16356TIP3    H270560   5.094   5.980   1.945 -2.0064 -0.1589 -2.0634
16357TIP3   OH270561   6.700   5.036  16.291  0.0936  0.5724 -0.1526
16357TIP3    H170562   6.609   5.062  16.297  0.0381  0.5570 -0.8925
16357TIP3    H270563   6.741   5.101  16.235  0.7291  1.0479  0.8255
16358TIP3   OH270564   6.144   5.995   3.104 -0.4469  0.3892 -0.2581
16358TIP3    H170565   6.204   5.921   3.112 -0.8388  0.1116  0.1586
16358TIP3    H270566   6.201   6.070   3.090 -0.0513 -0.0137 -0.8887
16359TIP3   OH270567   1.368   6.657   1.511  0.0341  0.2266 -0.1057
16359TIP3    H170568   1.367   6.752   1.501 -0.4148  0.0161 -2.4230
16359TIP3    H270569   1.276   6.632   1.514  0.1404 -0.0865  1.4934
16360TIP3   OH270570   2.729   4.110  14.261 -0.8394 -0.4139  0.1081
16360TIP3    H170571   2.777   4.144  14.185 -0.8105 -0.0722  0.2780
16360TIP3    H270572   2.692   4.027  14.230 -0.8298 -0.2776 -0.2827
16361TIP3   OH270573   3.282   4.643  15.214  0.3312  0.1786  0.1556
16361TIP3    H170574   3.253   4.567  15.264  0.4394 -0.0020 -0.0565
16361TIP3    H270575   3.376   4.647  15.229  0.5704 -0.6287 -1.0531
16362TIP3   OH270576   2.866   2.731  16.328 -0.4965  0.7437 -0.0197
16362TIP3    H170577   2.908   2.715  16.243 -1.9627 -0.6075 -0.5541
16362TIP3    H270578   2.815   2.811  16.315 -0.3402  0.8048 -0.2584
16363TIP3   OH270579   5.890   2.510  11.973  0.0121  1.1724  0.2572
16363TIP3    H170580   5.874   2.480  11.883  0.0343  0.8366  0.3624
16363TIP3    H270581   5.888   2.605  11.967 -0.9806  1.1555  0.0727
16364TIP3   OH270582   3.040   3.747   3.441 -0.9403 -0.0218 -0.4196
16364TIP3    H170583   3.108   3.810   3.415 -0.9395 -0.2048 -0.8744
16364TIP3    H270584   3.068   3.715   3.527  2.6168 -4.2250 -2.7231
16365TIP3   OH270585   5.344   2.689   4.172 -0.5940 -0.2421 -0.1014
16365TIP3    H170586   5.434   2.658   4.164 -1.0173 -2.5902  2.7187
16365TIP3    H270587   5.352   2.778   4.207  0.6199 -0.2257 -0.3975
16366TIP3   OH270588   5.256   2.407  16.156 -0.6415  0.3823 -0.9318
16366TIP3    H170589   5.253   2.472  16.227  0.9047 -0.5948  0.0814
16366TIP3    H270590   5.304   2.451  16.086  1.5099 -0.0053  0.2091
16367TIP3   OH270591   4.302   6.078  10.555 -0.4250  0.5398 -0.0966
16367TIP3    H170592   4.255   6.111  10.478 -0.1476 -0.1757 -0.5840
16367TIP3    H270593   4.233   6.064  10.620 -0.9174 -0.5586 -0.8254
16368TIP3   OH270594   1.551   3.523  10.744  0.2168  0.0124  0.4421
16368TIP3    H170595   1.555   3.617  10.759  0.4421  0.0852 -0.0459
16368TIP3    H270596   1.539   3.514  10.650  1.6758 -0.4570  0.2750
16369TIP3   OH270597   0.568   6.104  12.275 -0.2940  0.4460 -0.2445
16369TIP3    H170598   0.615   6.149  12.344 -0.0323  0.4059 -0.3944
16369TIP3    H270599   0.587   6.154  12.195  1.0350 -0.6131 -0.6498
16370TIP3   OH270600   3.835   1.150  11.049 -0.1579  0.1315  0.3511
16370TIP3    H170601   3.863   1.225  10.997  2.4298  0.0643  1.4940
16370TIP3    H270602   3.891   1.078  11.020  0.2634 -0.2928  2.0949
16371TIP3   OH270603   4.024   5.281  16.170  0.2611 -0.7499  0.3187
16371TIP3    H170604   4.035   5.205  16.227 -1.5886 -0.2859  1.4011
16371TIP3    H270605   4.027   5.356  16.230  0.7996 -0.0570 -0.5494
16372TIP3   OH270606   2.351   4.362   5.095  0.2679 -0.8263 -0.1077
16372TIP3    H170607   2.277   4.321   5.051  0.8826 -0.5272 -1.4743
16372TIP3    H270608   2.376   4.435   5.038 -0.2236  0.9257  1.8034
16373TIP3   OH270609   4.893   4.306   1.731 -0.3234 -0.4336  0.4552
16373TIP3    H170610   4.916   4.283   1.641 -0.3006  0.9119  0.0997
16373TIP3    H270611   4.808   4.266   1.744 -0.2300 -0.8283 -0.0938
16374TIP3   OH270612   2.718   4.514  15.077 -0.5152 -0.5441 -0.4226
16374TIP3    H170613   2.719   4.511  15.172  2.1372 -0.6268 -0.3674
16374TIP3    H270614   2.645   4.571  15.055  0.5842  1.9440  1.8116
16375TIP3   OH270615   4.065   5.780  13.797 -0.3039  0.0699  0.1926
16375TIP3    H170616   4.037   5.821  13.879  1.4292  2.5106 -0.2966
16375TIP3    H270617   4.136   5.721  13.823 -0.0296  0.5329  0.5279
16376TIP3   OH270618   0.272   0.476   2.578  0.1007 -0.0230 -0.6061
16376TIP3    H170619   0.303   0.440   2.495  0.1874 -2.2241  0.3170
16376TIP3    H270620   0.178   0.491   2.565 -0.0427 -1.1010 -0.8729
16377TIP3   OH270621   3.974   5.745  11.403  0.0645 -0.4864  0.2355
16377TIP3    H170622   3.943   5.833  11.383 -0.6223 -0.5695  0.8910
16377TIP3    H270623   3.895   5.698  11.433  0.7497 -0.8049  1.6079
16378TIP3   OH270624   1.716   2.735  11.973  0.2427 -0.6866  0.0920
16378TIP3    H170625   1.739   2.814  11.925 -0.3659 -1.6285 -1.8644
16378TIP3    H270626   1.686   2.767  12.058 -0.7565  1.2698 -0.9144
16379TIP3   OH270627   4.410   0.625  14.479  0.1296 -0.2623  0.1772
16379TIP3    H170628   4.323   0.597  14.450 -0.1778  2.0794 -1.4893
16379TIP3    H270629   4.396   0.661  14.566 -0.2873 -1.1798  0.4995
16380TIP3   OH270630   0.914   2.359  16.749 -0.0374  0.1635 -0.2668
16380TIP3    H170631   0.835   2.399  16.712  0.3401  0.7941 -0.4112
16380TIP3    H270632   0.976   2.432  16.758  0.2386 -0.1711  0.6398
16381TIP3   OH270633   2.714   4.190   0.617  0.0866  0.1727 -0.1645
16381TIP3    H170634   2.793   4.211   0.668 -1.1465 -0.0426  1.9415
16381TIP3    H270635   2.691   4.272   0.573 -0.3318  1.1898  1.8416
16382TIP3   OH270636   1.520   5.652   0.025 -0.1572 -0.5324 -0.1727
16382TIP3    H170637   1.566   5.612   0.099  0.4321  2.1371  1.0009
16382TIP3    H270638   1.518   5.583  -0.042  4.0096 -1.4157  0.3427
16383TIP3   OH270639   2.494   5.321   4.743 -0.2993  0.3393 -0.1651
16383TIP3    H170640   2.462   5.296   4.656 -1.2615 -0.2816  0.3539
16383TIP3    H270641   2.560   5.255   4.764 -2.3663 -1.5019  0.9201
16384TIP3   OH270642   6.620   5.095  10.943  0.1221  0.2245 -0.1086
16384TIP3    H170643   6.658   5.143  10.869  1.0151  1.3041  0.9937
16384TIP3    H270644   6.569   5.025  10.903  2.7639 -0.9139 -1.6983
16385TIP3   OH270645   0.933   2.918  12.782 -0.2452  0.3311  0.0252
16385TIP3    H170646   0.868   2.854  12.809 -2.3965  0.7488 -3.4514
16385TIP3    H270647   1.003   2.867  12.741  0.3815  0.0174  1.4537
16386TIP3   OH270648   0.971   6.043  10.893  0.2569 -0.3971  0.2215
16386TIP3    H170649   0.889   5.995  10.890  1.0955 -1.8263 -1.0341
16386TIP3    H270650   1.033   5.989  10.844  1.7294  1.0631  0.3714
16387TIP3   OH270651   6.243   2.337   1.117  0.5075 -0.4908  0.0604
16387TIP3    H170652   6.204   2.377   1.196 -0.5021 -1.0982 -0.1059
16387TIP3    H270653   6.336   2.328   1.138  0.7798  1.8319  0.1470
16388TIP3   OH270654   4.043   3.264   0.674  0.2631  0.0725  0.0882
16388TIP3    H170655   3.992   3.183   0.664  2.6156 -1.5719  0.6510
16388TIP3    H270656   4.053   3.297   0.585  0.1171 -0.8018 -0.2602
16389TIP3   OH270657   1.876   1.294   3.211  0.4106 -0.7614  0.1899
16389TIP3    H170658   1.815   1.275   3.282  0.1199 -0.7310 -0.0510
16389TIP3    H270659   1.836   1.366   3.163 -0.1927 -1.8145 -0.9504
16390TIP3   OH270660   4.879   6.211   2.991  0.0821  0.0016 -0.9314
16390TIP3    H170661   4.809   6.154   3.023 -0.7542 -1.1397 -4.3505
16390TIP3    H270662   4.953   6.153   2.976  0.2541  0.3471 -1.4874
16391TIP3   OH270663   2.334   0.779   4.450  0.1577  0.1706  0.0073
16391TIP3    H170664   2.277   0.711   4.414  0.4555  0.5981 -1.3557
16391TIP3    H270665   2.420   0.762   4.411  0.0743  1.7200 -0.9616
16392TIP3   OH270666   6.356   0.703  11.606  0.6584 -0.0338 -0.2505
16392TIP3    H170667   6.327   0.620  11.568 -0.7986  0.3924 -0.1076
16392TIP3    H270668   6.413   0.741  11.539  0.1001 -0.4406 -0.9643
16393TIP3   OH270669   4.068   4.693   3.624  0.2686  0.8733 -0.6048
16393TIP3    H170670   3.974   4.681   3.611  0.3332  0.7010 -0.9273
16393TIP3    H270671   4.104   4.604   3.617  0.2271  0.6547  1.5030
16394TIP3   OH270672   1.217   0.226  14.091  0.7641  0.1838  0.2609
16394TIP3    H170673   1.274   0.282  14.037  1.7820 -0.7306  0.3450
16394TIP3    H270674   1.272   0.151  14.114  0.3599  0.5478  2.6085
16395TIP3   OH270675   2.914   3.380   2.209  0.1828  0.3150 -0.0231
16395TIP3    H170676   2.977   3.407   2.277  0.8307 -0.0321 -0.4769
16395TIP3    H270677   2.964   3.320   2.153 -0.8263 -0.7212  0.1587
16396TIP3   OH270678   4.414   4.214   5.149 -0.3437  0.3934  0.2379
16396TIP3    H170679   4.352   4.158   5.197  1.3521 -2.7016 -0.8960
16396TIP3    H270680   4.363   4.246   5.074 -0.7896 -1.7587 -0.4592
16397TIP3   OH270681   2.529   4.542  13.406 -0.3008  0.3368 -0.3985
16397TIP3    H170682   2.551   4.492  13.484  2.2827  1.4612 -0.3016
16397TIP3    H270683   2.465   4.606  13.435 -0.1281  0.0831  0.5743
16398TIP3   OH270684   5.880   0.636   1.430 -0.3353  0.3588 -0.5674
16398TIP3    H170685   5.882   0.609   1.338  1.8984 -2.2445  0.1153
16398TIP3    H270686   5.816   0.578   1.471  0.9033 -0.6902 -0.0041
16399TIP3   OH270687   6.053   6.651  14.329 -0.1584 -0.0737  0.5128
16399TIP3    H170688   5.977   6.642  14.386 -0.3893  0.9753  0.3865
16399TIP3    H270689   6.030   6.602  14.250 -1.0649  0.9194  0.1357
16400TIP3   OH270690   2.498   3.377   3.844  0.1749 -0.2366 -0.1155
16400TIP3    H170691   2.536   3.382   3.756 -0.0528  0.5720 -0.1787
16400TIP3    H270692   2.404   3.369   3.828 -0.0456  1.6068  0.0352
16401TIP3   OH270693   2.908   3.664   5.014 -0.1399 -0.0164  0.3541
16401TIP3    H170694   2.942   3.717   4.942  1.9544 -1.4891  0.1697
16401TIP3    H270695   2.950   3.700   5.092 -1.1212  0.5225  0.6473
16402TIP3   OH270696   3.049   2.555  12.167  0.4559  0.3780  0.2535
16402TIP3    H170697   3.042   2.649  12.147  0.0794  0.2056 -0.4501
16402TIP3    H270698   3.081   2.515  12.087  3.4634  0.2479  1.4039
16403TIP3   OH270699   3.651   2.075  12.504  0.2667  0.0491 -0.1976
16403TIP3    H170700   3.621   2.002  12.450 -1.0320  0.4545 -0.0595
16403TIP3    H270701   3.639   2.152  12.448  0.8485  0.2549 -0.0469
16404TIP3   OH270702   0.369   3.049  15.786  0.2304  0.1781  0.4038
16404TIP3    H170703   0.457   3.082  15.803  1.0044 -0.8264 -1.3191
16404TIP3    H270704   0.345   3.002  15.865  0.8951  1.1633  1.2155
16405TIP3   OH270705   0.628   1.663   1.364 -0.0907  0.0939  0.6673
16405TIP3    H170706   0.662   1.626   1.283  1.1347 -0.3016  1.3326
16405TIP3    H270707   0.535   1.676   1.348 -0.0216 -0.7544 -0.5106
16406TIP3   OH270708   0.841   6.490  14.949 -0.2078 -0.1372 -0.8778
16406TIP3    H170709   0.867   6.514  15.037  2.6354  0.1592 -1.7081
16406TIP3    H270710   0.764   6.544  14.931 -0.9530 -0.3385  1.4311
16407TIP3   OH270711   3.300   2.562  10.541 -0.6114 -0.0575  0.0487
16407TIP3    H170712   3.277   2.556  10.633  1.2594  2.9648  0.8682
16407TIP3    H270713   3.372   2.499  10.530 -1.4583 -1.1122  0.3502
16408TIP3   OH270714   3.037   4.925   1.365  0.5780 -0.3224  0.0348
16408TIP3    H170715   3.104   4.992   1.378 -0.0903  0.3381  0.1389
16408TIP3    H270716   3.030   4.881   1.450  0.2789  0.1734  0.2696
16409TIP3   OH270717   6.564   0.921   5.583  0.0452 -0.3685  0.5618
16409TIP3    H170718   6.626   0.915   5.509  1.0168 -1.9020  1.4383
16409TIP3    H270719   6.484   0.880   5.551  1.0517 -2.7463  0.8662
16410TIP3   OH270720   5.993   5.748  13.084 -0.5547  0.3658  0.4525
16410TIP3    H170721   6.003   5.659  13.118 -1.9189  1.4507  4.1981
16410TIP3    H270722   6.077   5.790  13.102 -0.3343  0.1769 -0.1362
16411TIP3   OH270723   3.340   0.332   6.089  0.2441 -0.0963  0.3584
16411TIP3    H170724   3.398   0.278   6.144  0.4333  1.1034  1.3653
16411TIP3    H270725   3.392   0.350   6.011 -0.0412 -1.8469 -0.2810
16412TIP3   OH270726   4.052   4.975   0.550 -0.5062  0.0398 -0.0325
16412TIP3    H170727   3.986   4.950   0.615 -1.4719  2.2994 -0.0596
16412TIP3    H270728   4.002   5.018   0.481  0.7539 -0.4065 -1.2633
16413TIP3   OH270729   0.293   4.239  11.413 -0.1631 -0.1935  0.2966
16413TIP3    H170730   0.265   4.229  11.322  1.5058 -1.0491 -0.1611
16413TIP3    H270731   0.388   4.228  11.411 -0.1528 -0.9443  2.2504
16414TIP3   OH270732   4.871   1.893   0.016  0.4793  0.2849 -0.0850
16414TIP3    H170733   4.882   1.985  -0.011  0.1681  0.4392  0.3086
16414TIP3    H270734   4.955   1.852  -0.006  0.0596  0.2612 -1.8272
16415TIP3   OH270735   3.753   2.065   6.006 -0.4771  0.6771 -0.3805
16415TIP3    H170736   3.809   2.116   6.064  1.1257  0.6017 -1.7857
16415TIP3    H270737   3.664   2.083   6.037  0.2938  0.2347  2.3899
16416TIP3   OH270738   2.745   4.524   5.943 -0.0582 -0.1520 -0.7100
16416TIP3    H170739   2.662   4.565   5.919  0.0249  0.3341 -0.1891
16416TIP3    H270740   2.774   4.572   6.021  0.2663 -0.9045 -0.3532
16417TIP3   OH270741   5.028   3.458  12.747 -0.0127  0.1722 -1.0815
16417TIP3    H170742   5.063   3.524  12.687 -2.3276  1.5626 -1.0105
16417TIP3    H270743   4.980   3.508  12.813  0.9544 -1.4229  0.9613
16418TIP3   OH270744   6.258   2.911   2.465 -0.3732  0.3197 -0.2885
16418TIP3    H170745   6.214   2.982   2.511 -0.8521 -0.2859  0.2091
16418TIP3    H270746   6.243   2.834   2.520 -0.1964 -0.2452 -1.0130
16419TIP3   OH270747   3.623   4.394   3.036 -0.1563  0.0075 -0.5667
16419TIP3    H170748   3.682   4.435   2.972  3.6340 -1.1041  1.8723
16419TIP3    H270749   3.655   4.304   3.043 -0.8239 -0.0991  2.3445
16420TIP3   OH270750   6.523   4.751  16.680  0.1824 -0.3532 -0.3408
16420TIP3    H170751   6.601   4.766  16.733  0.5839 -0.0097 -1.0095
16420TIP3    H270752   6.515   4.656  16.676 -0.3037 -0.3746  0.9658
16421TIP3   OH270753   1.959   0.584  14.003  0.1986 -0.2663 -0.1845
16421TIP3    H170754   2.015   0.562  14.078 -0.5975  0.2217  0.5814
16421TIP3    H270755   1.926   0.671  14.023  0.3038  0.0500 -1.3238
16422TIP3   OH270756   2.522   4.657   3.139  0.5519 -0.1323  0.1427
16422TIP3    H170757   2.521   4.561   3.136 -0.1794 -0.1316 -2.2585
16422TIP3    H270758   2.430   4.681   3.150  0.8001  0.3209  1.3421
16423TIP3   OH270759   2.949   2.172   6.290 -0.1358 -0.0003 -0.8902
16423TIP3    H170760   2.942   2.155   6.196  1.0111  0.4407 -1.0745
16423TIP3    H270761   3.034   2.214   6.300 -0.9457  1.4773  0.1444
16424TIP3   OH270762   6.258   0.288   6.721 -0.2770 -0.0824  0.0414
16424TIP3    H170763   6.346   0.261   6.749  0.2687 -0.0870 -1.5831
16424TIP3    H270764   6.199   0.230   6.769  0.5875  0.0003  1.2434
16425TIP3   OH270765   6.797   1.728   4.823  0.8031  0.3347  0.0230
16425TIP3    H170766   6.828   1.772   4.743  1.5357 -0.6376 -0.2408
16425TIP3    H270767   6.877   1.698   4.866  0.4492  1.2942  1.4059
16426TIP3   OH270768   1.657   2.872  16.481  0.4737 -0.0457  0.3986
16426TIP3    H170769   1.665   2.967  16.475  1.0372  0.1842  3.3980
16426TIP3    H270770   1.719   2.846  16.549  0.2890 -2.5894 -0.2737
16427TIP3   OH270771   3.227   5.883   5.820 -0.0368  0.2097  0.5622
16427TIP3    H170772   3.319   5.857   5.815 -0.5560 -1.5942 -0.6046
16427TIP3    H270773   3.193   5.864   5.732 -1.3076  1.7476  0.6974
16428TIP3   OH270774   6.166   2.858   4.354  0.1633  0.2521  0.5588
16428TIP3    H170775   6.194   2.822   4.438  0.5451 -2.1436 -0.5260
16428TIP3    H270776   6.083   2.902   4.373  0.1055 -0.4643  2.1244
16429TIP3   OH270777   5.700   5.931   2.307 -0.3029  0.2358  0.2877
16429TIP3    H170778   5.636   6.000   2.324 -0.6544 -0.0328  0.0547
16429TIP3    H270779   5.702   5.879   2.388 -0.7713 -0.0705  0.1033
16430TIP3   OH270780   0.604   6.451   5.417 -0.0767 -0.0511 -0.0680
16430TIP3    H170781   0.578   6.372   5.464 -1.6937  0.2483 -0.3933
16430TIP3    H270782   0.672   6.422   5.356  0.7624 -0.7800  1.1777
16431TIP3   OH270783   6.197   2.364  17.035 -0.0045 -0.0168 -0.5283
16431TIP3    H170784   6.130   2.323  16.981 -0.7753  1.4730 -0.7741
16431TIP3    H270785   6.211   2.450  16.994  1.5096 -0.0052 -0.0369
16432TIP3   OH270786   1.316   5.736  12.656 -0.2700 -0.3226  0.0757
16432TIP3    H170787   1.328   5.692  12.572 -1.1343 -1.0322  0.3170
16432TIP3    H270788   1.321   5.665  12.721  0.4661  0.2267  0.6368
16433TIP3   OH270789   4.121   1.448  15.630  0.2482 -0.8444 -0.4219
16433TIP3    H170790   4.059   1.377  15.621  0.6258 -1.6708  2.4904
16433TIP3    H270791   4.070   1.522  15.663  0.0840 -0.0807 -2.2604
16434TIP3   OH270792   1.299   4.737  15.358 -0.1521 -0.2268  0.4315
16434TIP3    H170793   1.248   4.810  15.394  0.8252  0.7086 -0.0168
16434TIP3    H270794   1.234   4.680  15.317 -0.8274  1.2047 -0.5755
16435TIP3   OH270795   2.431   0.626   0.736  0.0308 -0.3526 -0.6245
16435TIP3    H170796   2.384   0.559   0.686 -0.1249 -1.0108  0.3806
16435TIP3    H270797   2.485   0.576   0.798 -0.0947  0.4515  0.1483
16436TIP3   OH270798   0.924   0.587   4.378  0.2243 -0.3516 -0.2261
16436TIP3    H170799   0.880   0.548   4.454  0.6264 -2.1059 -0.8430
16436TIP3    H270800   0.857   0.587   4.310  0.5161 -0.9040 -0.5159
16437TIP3   OH270801   1.589   6.629  12.936  0.1314  0.0200  0.1318
16437TIP3    H170802   1.538   6.701  12.971 -1.4702 -0.7866 -0.4558
16437TIP3    H270803   1.603   6.652  12.844 -0.2449 -0.3392 -0.0165
16438TIP3   OH270804   6.208   2.919  16.296  0.1654  0.0914  0.5240
16438TIP3    H170805   6.264   2.857  16.248 -0.8794 -0.2809 -0.2744
16438TIP3    H270806   6.141   2.864  16.336 -0.5655  0.6583  0.1125
16439TIP3   OH270807   6.568   1.545  14.075  0.3881  0.2450  0.0189
16439TIP3    H170808   6.663   1.556  14.073  0.7131 -1.9418  0.9785
16439TIP3    H270809   6.534   1.633  14.061  2.5527  1.2553  0.6299
16440TIP3   OH270810   3.892   2.352  16.016 -0.2243  0.5659 -0.1925
16440TIP3    H170811   3.886   2.400  16.099  0.7196 -1.5031  1.1604
16440TIP3    H270812   3.806   2.312  16.005 -0.0676  0.0527  0.3456
16441TIP3   OH270813   2.693   3.559  17.139 -0.4316 -0.1680  1.0358
16441TIP3    H170814   2.708   3.515  17.055  0.8780  1.4454  0.3523
16441TIP3    H270815   2.656   3.492  17.195 -1.2097 -1.3418 -0.7896
16442TIP3   OH270816   6.810   2.653  10.272 -0.1626 -0.1029  0.9293
16442TIP3    H170817   6.799   2.594  10.346 -1.0935 -0.9890  0.1188
16442TIP3    H270818   6.762   2.611  10.200  1.5915  0.1755 -0.4781
16443TIP3   OH270819   4.035   0.355  16.030 -0.0899  0.2740 -0.0595
16443TIP3    H170820   4.121   0.319  16.009 -1.3139 -1.5800 -2.3463
16443TIP3    H270821   4.042   0.448  16.007  1.2174  0.0966 -0.4386
16444TIP3   OH270822   2.625   6.131  15.658 -0.1650  0.2087  0.2953
16444TIP3    H170823   2.539   6.141  15.699 -0.7029 -0.7083 -0.5736
16444TIP3    H270824   2.644   6.038  15.662 -0.0446  0.1396 -1.1127
16445TIP3   OH270825   5.360   4.511  11.291 -0.0607 -0.2006 -0.3849
16445TIP3    H170826   5.432   4.559  11.250 -0.4758 -1.5273 -2.9145
16445TIP3    H270827   5.382   4.419  11.275 -1.3849 -0.6865  0.4985
16446TIP3   OH270828   3.339   1.191   6.179 -0.3253  0.8334 -0.1367
16446TIP3    H170829   3.363   1.238   6.258  0.2031  1.4725 -0.6654
16446TIP3    H270830   3.244   1.186   6.181 -0.3658  1.6714  0.0752
16447TIP3   OH270831   3.296   3.803   4.901 -0.8141  0.3434  0.3807
16447TIP3    H170832   3.244   3.844   4.970 -0.4733  0.2237  0.7173
16447TIP3    H270833   3.268   3.845   4.820 -2.5562 -0.7882  0.3449
16448TIP3   OH270834   3.503   4.490   1.627 -0.0530  0.1633 -0.8330
16448TIP3    H170835   3.438   4.424   1.604  0.1931 -0.3379 -0.1411
16448TIP3    H270836   3.578   4.470   1.572 -0.9172  1.5549 -2.5956
16449TIP3   OH270837   5.278   0.383  15.204 -0.6076  0.5186 -0.5215
16449TIP3    H170838   5.312   0.298  15.233 -1.2646  0.2139 -0.6037
16449TIP3    H270839   5.217   0.361  15.133  0.6397  1.2252 -1.8428
16450TIP3   OH270840   4.372   6.773  15.731 -0.1791  0.5913  0.4984
16450TIP3    H170841   4.452   6.802  15.775  0.2612 -0.1367  0.2003
16450TIP3    H270842   4.356   6.685  15.766 -1.1335  0.9230  0.9193
16451TIP3   OH270843   4.686   1.068  11.949  0.4641 -0.1308  0.0058
16451TIP3    H170844   4.670   1.010  11.875  1.8839  0.3394 -0.6860
16451TIP3    H270845   4.675   1.157  11.914  0.6429  0.0873  0.4815
16452TIP3   OH270846   2.401   0.183   3.126  0.1740  0.3725  1.0361
16452TIP3    H170847   2.450   0.235   3.063 -1.1047  2.7023  1.8390
16452TIP3    H270848   2.462   0.171   3.199  0.2079  1.6216  1.2387
16453TIP3   OH270849   3.654   3.610  15.836 -0.6847  0.6558  0.3655
16453TIP3    H170850   3.709   3.673  15.789 -1.2527  0.2637 -0.8767
16453TIP3    H270851   3.601   3.570  15.767  0.2538 -1.8070  0.9827
16454TIP3   OH270852   2.756   0.400  13.724 -0.1103 -0.2486  0.1400
16454TIP3    H170853   2.805   0.321  13.702  0.9984  0.5198 -0.2376
16454TIP3    H270854   2.776   0.461  13.654  0.9854  1.1877  1.6312
16455TIP3   OH270855   0.649   0.368   3.025  0.2784 -0.1114 -0.2819
16455TIP3    H170856   0.632   0.304   2.956 -0.6896 -0.2501  0.0665
16455TIP3    H270857   0.718   0.424   2.990  1.0155 -1.2376 -0.6551
16456TIP3   OH270858   2.437   1.681  15.781  0.0327  0.2406  0.1401
16456TIP3    H170859   2.516   1.720  15.744  1.1665 -0.8951  1.2621
16456TIP3    H270860   2.406   1.620  15.714 -0.2307  1.0854 -0.5239
16457TIP3   OH270861   4.265   1.402  16.803  0.0131  0.6594  0.0163
16457TIP3    H170862   4.252   1.492  16.832  2.1369  0.5202  1.6102
16457TIP3    H270863   4.280   1.409  16.709  2.8954  2.3827  0.4809
16458TIP3   OH270864   0.762   1.374  11.674  0.2000  0.3312  0.3421
16458TIP3    H170865   0.757   1.318  11.752 -0.0674  0.3885  0.3681
16458TIP3    H270866   0.851   1.361  11.641  1.0653  1.9696  1.8914
16459TIP3   OH270867   6.603   1.317   0.014 -0.0303 -0.0496 -0.0722
16459TIP3    H170868   6.606   1.413   0.022 -0.1948 -0.1035  0.6869
16459TIP3    H270869   6.671   1.297  -0.050 -1.6770  0.7669 -2.2264
16460TIP3   OH270870   3.408   5.947   2.995  0.0937  0.1395 -0.1953
16460TIP3    H170871   3.384   5.856   3.010  2.6721 -0.4852  0.6327
16460TIP3    H270872   3.416   5.985   3.082 -2.8740  1.8324 -0.5061
16461TIP3   OH270873   0.750   1.736   3.095  0.5393  0.0471  0.2820
16461TIP3    H170874   0.840   1.746   3.066  0.4964  1.2854  0.5301
16461TIP3    H270875   0.701   1.802   3.046 -0.2568 -0.6760  0.0736
16462TIP3   OH270876   2.293   3.948  15.189 -0.4723 -0.0407 -0.4301
16462TIP3    H170877   2.221   3.907  15.237  0.5843 -2.7792 -0.9578
16462TIP3    H270878   2.267   3.942  15.097 -0.0487 -0.1118 -0.5508
16463TIP3   OH270879   6.091   0.984   0.338  0.0267 -0.3621 -0.3511
16463TIP3    H170880   6.013   0.932   0.355  1.9850 -3.1985  0.8842
16463TIP3    H270881   6.101   1.039   0.416 -1.1178  0.6122 -0.8728
16464TIP3   OH270882   4.896   4.390  10.690 -0.4532 -0.1726  0.4171
16464TIP3    H170883   4.977   4.416  10.732  0.1762  0.9374 -1.3534
16464TIP3    H270884   4.882   4.456  10.622 -0.3036 -2.8427 -2.4358
16465TIP3   OH270885   2.903   0.040   5.200  0.1291  0.6279 -0.4638
16465TIP3    H170886   2.816   0.045   5.239 -0.0595  1.7728 -0.9833
16465TIP3    H270887   2.903  -0.042   5.151  0.3556 -0.8081  1.8181
16466TIP3   OH270888   3.840   1.060   2.852 -0.5146 -0.0740  0.6429
16466TIP3    H170889   3.912   1.060   2.915 -0.9290 -3.2992  1.2703
16466TIP3    H270890   3.856   0.984   2.797 -2.3600  0.3470 -0.5668
16467TIP3   OH270891   4.273   5.458   0.182 -0.4303 -0.2842 -0.0175
16467TIP3    H170892   4.187   5.440   0.219 -0.2537  1.0897  1.1303
16467TIP3    H270893   4.265   5.545   0.143  0.8199  0.5107  1.4126
16468TIP3   OH270894   6.612   6.161  14.348 -0.2765  0.4545 -0.1616
16468TIP3    H170895   6.612   6.215  14.269 -1.2634 -1.8132 -1.7987
16468TIP3    H270896   6.657   6.081  14.322 -0.4593 -0.2854  1.6667
16469TIP3   OH270897   5.510   4.414  14.882  0.5228 -0.0849  0.4095
16469TIP3    H170898   5.599   4.449  14.890  0.2269  1.1404 -1.0834
16469TIP3    H270899   5.516   4.350  14.811  0.1707  0.2325  0.0884
16470TIP3   OH270900   1.842   6.046   0.203  0.4258 -0.0947 -0.5881
16470TIP3    H170901   1.819   5.975   0.143 -0.4199  0.3185 -0.7592
16470TIP3    H270902   1.759   6.085   0.229  0.4823 -2.1076  3.2327
16471TIP3   OH270903   1.949   1.599  12.853  0.5270  1.0902 -0.2238
16471TIP3    H170904   2.036   1.569  12.828 -0.5639 -3.0628  0.2685
16471TIP3    H270905   1.950   1.598  12.949  0.4206  2.7964 -0.1792
16472TIP3   OH270906   5.793   0.426   5.175  0.0318  0.0158  0.1823
16472TIP3    H170907   5.821   0.403   5.087  0.8149  0.0636  0.4100
16472TIP3    H270908   5.707   0.384   5.185  0.3049 -0.6757 -0.3129
16473TIP3   OH270909   5.118   5.134   4.655  0.2759  0.3781  0.3155
16473TIP3    H170910   5.080   5.048   4.672  0.5051  0.5414  1.6873
16473TIP3    H270911   5.193   5.140   4.713  0.3525  1.4456  0.1353
16474TIP3   OH270912   3.174   5.965  13.799 -0.0124  0.1482  0.0860
16474TIP3    H170913   3.185   5.873  13.771  0.5447 -0.3241  1.7504
16474TIP3    H270914   3.086   5.968  13.836 -0.4311  0.5656 -0.9160
16475TIP3   OH270915   1.013   1.894  11.071  0.7289  0.1184  0.1049
16475TIP3    H170916   1.008   1.885  11.167 -0.7356 -0.5362 -0.0053
16475TIP3    H270917   1.049   1.981  11.057 -0.6897  0.9375  1.2712
16476TIP3   OH270918   4.975   2.504  12.534 -0.1201  0.0247 -0.0303
16476TIP3    H170919   4.961   2.588  12.577 -0.9513  0.0648 -0.3782
16476TIP3    H270920   4.903   2.495  12.473 -0.0308 -0.9358 -0.0141
16477TIP3   OH270921   3.745   4.639  13.892  0.0928 -0.3875 -0.3516
16477TIP3    H170922   3.796   4.670  13.966 -2.0655  1.6479  0.4349
16477TIP3    H270923   3.676   4.584  13.931 -1.1291  0.7925 -0.7590
16478TIP3   OH270924   5.910   1.673  12.690  0.1421 -0.1160 -0.3449
16478TIP3    H170925   5.938   1.605  12.629 -0.8061 -1.3168  0.5089
16478TIP3    H270926   5.825   1.703  12.658 -0.6255 -1.1490  0.6454
16479TIP3   OH270927   3.897   3.428  16.323  0.0635  0.3766  0.1699
16479TIP3    H170928   3.864   3.417  16.233  1.7119  3.5487 -0.9746
16479TIP3    H270929   3.992   3.437  16.312  0.3405  0.4976  2.3108
16480TIP3   OH270930   4.433   5.630  13.287 -0.7479  0.1184 -0.0224
16480TIP3    H170931   4.509   5.585  13.249  0.1037  1.2606  0.2812
16480TIP3    H270932   4.359   5.597  13.236 -0.1836 -1.6819  0.2419
16481TIP3   OH270933   6.681   4.105  10.310 -0.2477 -0.4946 -0.2276
16481TIP3    H170934   6.729   4.179  10.272  1.6961 -2.2469 -1.3566
16481TIP3    H270935   6.728   4.027  10.281 -2.0927 -2.2220  1.0852
16482TIP3   OH270936   2.682   0.705   1.050 -0.0982  0.0951 -0.1392
16482TIP3    H170937   2.598   0.742   1.023 -0.2135 -0.2401 -0.2473
16482TIP3    H270938   2.747   0.769   1.021 -0.2504 -0.0653 -0.8381
16483TIP3   OH270939   2.088   3.263  13.805  0.4431  0.0607  0.0539
16483TIP3    H170940   2.157   3.229  13.749 -0.4434  0.1882 -1.1664
16483TIP3    H270941   2.056   3.341  13.760 -0.1072  0.3282  0.8775
16484TIP3   OH270942   3.098   3.357   1.808  0.2480  0.0992  0.2727
16484TIP3    H170943   3.147   3.439   1.816  1.5411 -0.6443  0.2441
16484TIP3    H270944   3.113   3.328   1.718  0.9318 -0.8471  0.6764
16485TIP3   OH270945   4.812   2.661  13.227  0.0762 -0.2096 -0.5811
16485TIP3    H170946   4.843   2.596  13.290 -1.4125 -0.9492 -0.5799
16485TIP3    H270947   4.736   2.620  13.186 -1.2629  1.7416 -0.1653
16486TIP3   OH270948   4.601   4.697   4.810 -0.3596  0.0789 -0.4225
16486TIP3    H170949   4.513   4.686   4.845  0.1060 -1.7521  0.2902
16486TIP3    H270950   4.654   4.727   4.884  0.0924 -1.2103 -0.2042
16487TIP3   OH270951   4.006   3.541  10.434 -0.1696  0.2372  0.1808
16487TIP3    H170952   4.014   3.581  10.520  1.1403  0.1423  0.1283
16487TIP3    H270953   3.996   3.615  10.374 -1.6221  0.2837  0.4318
16488TIP3   OH270954   5.402   0.939   4.343 -0.1270 -0.4574  0.3983
16488TIP3    H170955   5.329   0.908   4.397 -0.8589  0.0536 -0.2768
16488TIP3    H270956   5.411   0.872   4.276 -0.3399 -0.2531  0.1628
16489TIP3   OH270957   3.530   2.631   1.971  0.6096 -0.2240  0.2990
16489TIP3    H170958   3.600   2.590   2.022  0.6794 -0.0973  0.3046
16489TIP3    H270959   3.540   2.593   1.883  1.1230  0.3184  0.1218
16490TIP3   OH270960   6.690   0.914  14.269 -0.4561  0.0868  0.0613
16490TIP3    H170961   6.609   0.865  14.280 -1.0335  0.6208 -1.5932
16490TIP3    H270962   6.717   0.896  14.179 -0.5424  2.5330 -0.5070
16491TIP3   OH270963   5.658   3.869   4.551  0.5470  0.2746  0.3881
16491TIP3    H170964   5.753   3.880   4.561  0.5839  0.0550  0.2882
16491TIP3    H270965   5.644   3.775   4.560  0.7488 -0.1807 -2.6921
16492TIP3   OH270966   5.577   4.455   0.917 -0.6544 -0.3427  0.1405
16492TIP3    H170967   5.618   4.392   0.857 -0.0287 -0.1461  0.3487
16492TIP3    H270968   5.609   4.540   0.887  0.2646 -0.2928  1.1847
16493TIP3   OH270969   4.493   4.350   0.697  0.1708  0.5329 -0.0415
16493TIP3    H170970   4.548   4.273   0.686  0.3297  0.5913  0.3151
16493TIP3    H270971   4.553   4.424   0.685  0.3483  0.5998  1.1329
16494TIP3   OH270972   0.169   1.190   5.035  0.0772 -0.0634  0.1172
16494TIP3    H170973   0.156   1.242   4.955  1.8155 -1.3301 -1.0428
16494TIP3    H270974   0.211   1.251   5.096  0.1908  0.4772 -0.4845
16495TIP3   OH270975   0.374   1.058   3.512  0.1294 -0.1287 -0.4329
16495TIP3    H170976   0.301   1.095   3.463  0.1047  0.0803 -0.2419
16495TIP3    H270977   0.343   0.973   3.543 -0.9330  0.9623  1.7108
16496TIP3   OH270978   0.135   6.497  12.919 -0.7509 -0.0601 -0.2346
16496TIP3    H170979   0.183   6.526  12.841 -0.9632 -0.8083 -0.6483
16496TIP3    H270980   0.132   6.402  12.911  0.3371 -0.2501  1.3418
16497TIP3   OH270981   3.512   2.166  13.805  0.5160 -0.3174 -0.4724
16497TIP3    H170982   3.497   2.153  13.711 -1.5799  0.3940 -0.2816
16497TIP3    H270983   3.432   2.135  13.847  0.9069  0.5459  0.9859
16498TIP3   OH270984   4.521   6.233  14.537 -0.4008 -0.0321  0.3501
16498TIP3    H170985   4.450   6.294  14.555 -0.1659  0.1890  0.5456
16498TIP3    H270986   4.536   6.240  14.443 -0.4368  0.1465  0.3571
16499TIP3   OH270987   4.565   1.245  11.359  0.7631 -0.1875 -0.2475
16499TIP3    H170988   4.628   1.313  11.338 -0.9715  1.6281  0.1750
16499TIP3    H270989   4.520   1.227  11.277  0.3500  0.0926 -0.0809
16500TIP3   OH270990   1.670   0.335  13.669  0.0727  0.5850  0.3306
16500TIP3    H170991   1.685   0.330  13.764 -0.7036 -1.6829  0.3867
16500TIP3    H270992   1.600   0.399  13.660 -0.9587 -0.3143  1.4797
16501TIP3   OH270993   1.592   5.602   1.460  0.0013 -0.2448  0.1355
16501TIP3    H170994   1.653   5.668   1.494 -1.3590 -0.3402  3.0518
16501TIP3    H270995   1.544   5.647   1.390 -0.1991  1.5675  1.3710
16502TIP3   OH270996   1.656   3.352  14.339 -0.1225  0.0392  0.2029
16502TIP3    H170997   1.736   3.354  14.391 -0.1254 -0.2225  0.2218
16502TIP3    H270998   1.632   3.259  14.336  0.7550 -0.1631 -1.5957
16503TIP3   OH270999   6.507   3.331   4.833 -0.2048 -0.5032 -0.3040
16503TIP3    H171000   6.567   3.325   4.759 -2.2057 -0.7289 -2.0140
16503TIP3    H271001   6.498   3.425   4.849 -0.8336 -0.3622 -1.3429
16504TIP3   OH271002   2.958   3.057  16.376 -0.3693  0.5913 -0.1357
16504TIP3    H171003   2.958   3.010  16.460  1.1127 -0.5672 -0.7436
16504TIP3    H271004   2.911   3.138  16.395 -0.4320  0.1757  1.7163
16505TIP3   OH271005   2.815   5.608   0.096  0.1702  0.1114 -0.5932
16505TIP3    H171006   2.722   5.628   0.097  0.3364  1.2830 -2.4824
16505TIP3    H271007   2.856   5.678   0.147  0.0411 -0.3120  0.0977
16506TIP3   OH271008   1.631   1.287  15.866  0.0686 -0.1055 -0.0020
16506TIP3    H171009   1.553   1.257  15.819  0.5307 -0.3395 -0.6481
16506TIP3    H271010   1.645   1.377  15.836  0.5640 -0.3711 -0.6032
16507TIP3   OH271011   0.543   2.873  11.826 -0.3500 -0.8398  0.4002
16507TIP3    H171012   0.487   2.796  11.843 -2.0557  0.2323 -0.1056
16507TIP3    H271013   0.500   2.944  11.874  0.6117  0.0275 -0.0018
16508TIP3   OH271014   3.333   1.530   5.532  0.4148  0.0565 -0.2394
16508TIP3    H171015   3.396   1.586   5.487  3.3042 -2.0390  0.8673
16508TIP3    H271016   3.347   1.443   5.493  0.7332 -1.1482  2.3723
16509TIP3   OH271017   5.321   3.219   4.303 -0.0051 -0.4422  0.3689
16509TIP3    H171018   5.305   3.190   4.393 -0.4858 -1.0399  0.1014
16509TIP3    H271019   5.404   3.176   4.279  0.4971  0.2872  0.7572
16510TIP3   OH271020   2.461   4.754  14.519 -0.4519 -1.2041  0.0789
16510TIP3    H171021   2.554   4.766  14.540 -0.5818 -1.0555  0.5756
16510TIP3    H271022   2.461   4.684  14.453  0.0729 -0.6428 -0.5395
16511TIP3   OH271023   2.068   6.185  14.711 -0.6418 -0.5725  0.2785
16511TIP3    H171024   2.044   6.136  14.790  0.3734 -2.6529 -0.6156
16511TIP3    H271025   2.129   6.127  14.665  0.0668  1.2818 -1.2354
16512TIP3   OH271026   4.242   5.042  13.766  0.3775 -0.8095 -0.2923
16512TIP3    H171027   4.322   4.989  13.771  1.5134  0.9233  1.6960
16512TIP3    H271028   4.189   5.012  13.840  1.5032  1.3426  1.5443
16513TIP3   OH271029   3.690   6.055  15.586 -0.3085 -0.3425 -0.2945
16513TIP3    H171030   3.662   6.005  15.663  0.1341 -2.4480 -1.4362
16513TIP3    H271031   3.610   6.067  15.535 -0.6204  1.1379  0.4857
16514TIP3   OH271032   5.098   1.958   1.676  0.3054 -0.1773 -0.1862
16514TIP3    H171033   5.095   1.889   1.609  0.1803  0.2238 -0.6040
16514TIP3    H271034   5.190   1.964   1.701  0.3225 -0.4689 -0.1775
16515TIP3   OH271035   4.790   5.491   0.026 -0.2319 -0.2737  0.2903
16515TIP3    H171036   4.745   5.423   0.075  0.7512 -0.6579  0.6781
16515TIP3    H271037   4.863   5.517   0.083 -1.1806  1.8449  0.6214
16516TIP3   OH271038   5.159   2.560   5.809 -0.3468  0.0974 -0.1751
16516TIP3    H171039   5.181   2.498   5.739  0.2315 -1.0852  1.0141
16516TIP3    H271040   5.086   2.519   5.855 -0.6204  0.7956  0.0292
16517TIP3   OH271041   1.153   2.705  16.210  0.3050  0.0119 -0.1162
16517TIP3    H171042   1.192   2.784  16.247 -0.1092  0.1505  0.0356
16517TIP3    H271043   1.214   2.635  16.232 -0.5463 -0.1382  1.9879
16518TIP3   OH271044   3.283   6.263  16.709 -0.1262 -0.1642  0.1850
16518TIP3    H171045   3.244   6.318  16.777  0.9275 -1.5712  2.0205
16518TIP3    H271046   3.344   6.320  16.663  0.1519  0.4758  1.3333
16519TIP3   OH271047   0.003   6.081  15.123  0.5443  0.1361  0.2048
16519TIP3    H171048   0.022   6.060  15.214  1.5524  0.7560  0.1599
16519TIP3    H271049  -0.056   6.156  15.128  0.3480 -0.0284  0.3504
16520TIP3   OH271050   1.093   6.600   1.515 -0.1385 -1.0770 -0.2175
16520TIP3    H171051   1.023   6.665   1.522  0.1745 -0.5304 -1.8419
16520TIP3    H271052   1.049   6.516   1.525 -1.0099 -0.7282 -1.0538
16521TIP3   OH271053   1.660   4.529  15.844  0.0051 -0.4393  0.0770
16521TIP3    H171054   1.590   4.468  15.821  0.7704 -1.2297 -0.2401
16521TIP3    H271055   1.672   4.582  15.765  0.0450 -0.5942 -0.0226
16522TIP3   OH271056   3.283   2.194  11.064 -0.2020  0.6822  0.3544
16522TIP3    H171057   3.244   2.214  10.979 -2.1664 -0.0803  1.0307
16522TIP3    H271058   3.209   2.193  11.125  0.7424 -1.6125  1.5628
16523TIP3   OH271059   0.775   1.636  13.831 -0.2474 -0.8625 -0.4975
16523TIP3    H171060   0.841   1.702  13.806 -0.1080 -0.4344  0.9468
16523TIP3    H271061   0.820   1.552  13.819 -0.2143 -0.6948 -1.7287
16524TIP3   OH271062   6.708   5.606   5.352  0.1723 -0.5533 -0.3178
16524TIP3    H171063   6.735   5.626   5.441  1.3392 -0.2442 -0.7232
16524TIP3    H271064   6.679   5.515   5.355 -1.2197 -0.1099  0.6703
16525TIP3   OH271065   6.176   2.590   0.360  0.3950 -0.3236  0.4702
16525TIP3    H171066   6.109   2.653   0.336  1.0871  0.1219 -0.3259
16525TIP3    H271067   6.256   2.623   0.320  0.9308 -1.2800  0.7147
16526TIP3   OH271068   5.741   4.187  16.281  0.5702 -0.1011  0.0907
16526TIP3    H171069   5.770   4.185  16.372 -0.4329 -0.6428  0.4261
16526TIP3    H271070   5.672   4.253  16.279  0.2321 -0.4543 -0.1535
16527TIP3   OH271071   1.272   1.937   4.402  0.0200  0.4019  0.1536
16527TIP3    H171072   1.347   1.885   4.374  1.9921  1.9640  2.1803
16527TIP3    H271073   1.250   1.991   4.326  1.9699  0.9591 -0.0795
16528TIP3   OH271074   3.563   1.214   1.234  0.0077 -0.2275  0.4300
16528TIP3    H171075   3.604   1.169   1.160  0.4728 -0.1435  0.6320
16528TIP3    H271076   3.566   1.151   1.306  0.9363  0.2208  0.7995
16529TIP3   OH271077   2.638   0.146  14.094  0.8022 -0.2390 -0.3546
16529TIP3    H171078   2.622   0.110  14.181 -0.2199 -1.6751 -1.1004
16529TIP3    H271079   2.574   0.217  14.084  1.3718  0.3806  0.2950
16530TIP3   OH271080   1.878   4.439   5.040  0.1354 -0.3449  0.6582
16530TIP3    H171081   1.902   4.427   5.132  0.6224 -0.6562  0.4961
16530TIP3    H271082   1.792   4.479   5.043  1.1280  1.8858  1.2819
16531TIP3   OH271083   2.238   4.263   3.239  0.6980 -0.1633  0.4704
16531TIP3    H171084   2.211   4.355   3.234  0.4433 -0.2999 -1.3703
16531TIP3    H271085   2.331   4.265   3.216  0.7309 -0.3411  0.5918
16532TIP3   OH271086   0.230   4.998   2.878  0.4203 -0.5293  0.2622
16532TIP3    H171087   0.229   5.074   2.937 -0.0748 -0.1118 -0.2712
16532TIP3    H271088   0.228   5.036   2.790 -0.5903 -1.1623 -0.0029
16533TIP3   OH271089   6.682   3.412  12.207  0.2009  0.7595  0.0112
16533TIP3    H171090   6.778   3.402  12.210  0.0305 -1.0929  1.0166
16533TIP3    H271091   6.649   3.322  12.217 -1.6480  1.3165 -0.7314
16534TIP3   OH271092   1.872   5.704   0.294  0.5037  0.1453  0.5577
16534TIP3    H171093   1.816   5.737   0.223 -0.8353 -1.9954  0.5220
16534TIP3    H271094   1.848   5.757   0.370  0.1452  0.8259 -0.0199
16535TIP3   OH271095   4.393   3.437  12.619 -0.5089 -0.0918  0.1809
16535TIP3    H171096   4.467   3.488  12.587 -0.1841  0.2138  1.3955
16535TIP3    H271097   4.431   3.355  12.648 -0.2701  0.8520  2.7897
16536TIP3   OH271098   5.808   6.228  11.596  0.1149 -0.0127 -0.2005
16536TIP3    H171099   5.880   6.291  11.598  0.8557 -0.8724  1.0874
16536TIP3    H271100   5.752   6.258  11.524  0.7321  1.7944  0.0283
16537TIP3   OH271101   5.390   4.426  12.479  0.6959 -0.4755  0.0470
16537TIP3    H171102   5.305   4.399  12.444 -0.2510  1.3818  0.7366
16537TIP3    H271103   5.380   4.421  12.574  0.8708  0.9662  0.1730
16538TIP3   OH271104   0.714   4.329  12.968 -0.7751 -0.2244  0.1677
16538TIP3    H171105   0.718   4.234  12.955 -0.3238 -0.3586  1.1935
16538TIP3    H271106   0.793   4.362  12.926  0.4139 -0.6016  1.9708
16539TIP3   OH271107   4.591   6.283  16.411 -0.3264 -0.1636  0.2549
16539TIP3    H171108   4.552   6.321  16.331 -0.4199 -0.0219  0.3669
16539TIP3    H271109   4.593   6.189  16.394  1.1143 -0.0068 -0.5582
16540TIP3   OH271110   4.611   3.286   2.652  0.5127  0.1593 -0.2283
16540TIP3    H171111   4.547   3.355   2.634  1.0373  0.6869 -0.1170
16540TIP3    H271112   4.640   3.256   2.566 -0.6814 -0.8592 -0.3015
16541TIP3   OH271113   1.094   1.756  12.934 -0.2746 -0.3552 -0.3309
16541TIP3    H171114   1.046   1.711  12.865 -0.5617 -0.0510 -0.3343
16541TIP3    H271115   1.037   1.752  13.011  0.0287 -0.6628 -0.1168
16542TIP3   OH271116   0.411   2.720  11.010  0.3019  0.3073 -0.3059
16542TIP3    H171117   0.465   2.753  10.938  0.3805  1.0264  0.0695
16542TIP3    H271118   0.368   2.643  10.974  0.6411  0.4307 -1.0005
16543TIP3   OH271119   1.860   2.648  14.963 -0.0539  0.0717  0.1786
16543TIP3    H171120   1.786   2.636  14.904  0.6412 -0.2977 -0.6332
16543TIP3    H271121   1.880   2.742  14.958 -1.3937  0.4709  1.5607
16544TIP3   OH271122   3.752   6.074   1.716 -0.3590 -0.6214  0.0325
16544TIP3    H171123   3.779   5.984   1.731  0.8718 -0.3743 -0.5588
16544TIP3    H271124   3.824   6.113   1.667 -1.4143  0.3465 -0.8101
16545TIP3   OH271125   0.999   3.516  16.049 -0.5954 -0.3018  0.2322
16545TIP3    H171126   0.995   3.497  16.142  0.3864 -2.5129 -0.0988
16545TIP3    H271127   1.032   3.435  16.010 -1.9255  0.2084 -2.1535
16546TIP3   OH271128   0.170   2.132  14.449  0.2470 -0.0094  0.2064
16546TIP3    H171129   0.080   2.120  14.420  0.9577  0.1452 -2.2442
16546TIP3    H271130   0.189   2.224  14.431  1.5401 -0.5429 -1.4458
16547TIP3   OH271131   3.451   2.137  13.000 -0.7199  0.3051  1.2279
16547TIP3    H171132   3.431   2.137  12.906  0.7049  0.8440  0.8968
16547TIP3    H271133   3.530   2.084  13.008 -0.4291  0.8345  2.0287
16548TIP3   OH271134   2.842   2.088   5.949 -0.1085 -0.0899 -0.0351
16548TIP3    H171135   2.821   1.996   5.934 -0.1245 -0.6018  2.6375
16548TIP3    H271136   2.777   2.136   5.898  0.7010 -1.4694 -2.5607
16549TIP3   OH271137   1.430   2.896   2.128 -0.1281 -0.5934  0.2658
16549TIP3    H171138   1.369   2.881   2.056 -0.6097 -0.0076  0.5383
16549TIP3    H271139   1.517   2.893   2.087 -0.4298  0.7587 -0.5460
16550TIP3   OH271140   0.101   0.041   6.634 -0.1602  0.3920 -0.1046
16550TIP3    H171141   0.111   0.131   6.667 -0.6224 -0.1379  1.6202
16550TIP3    H271142   0.006   0.029   6.626 -0.1507 -0.2110  0.5465
16551TIP3   OH271143   2.846   1.782   0.379  0.2626 -0.1423  0.1377
16551TIP3    H171144   2.863   1.845   0.309  2.4797 -1.1925 -0.3650
16551TIP3    H271145   2.931   1.743   0.397 -1.2517 -4.6259 -1.1625
16552TIP3   OH271146   3.818   1.995   5.748  0.3407  0.1979 -0.2172
16552TIP3    H171147   3.728   1.972   5.726  0.7290 -1.4963 -0.1399
16552TIP3    H271148   3.821   1.995   5.843  0.2599  0.9835 -0.2071
16553TIP3   OH271149   5.428   6.721  13.207 -0.0770  0.5463  0.1768
16553TIP3    H171150   5.361   6.715  13.139 -0.8077  1.0890  0.8309
16553TIP3    H271151   5.380   6.751  13.285  0.6418 -0.5810  1.0773
16554TIP3   OH271152   6.588   5.873  16.156 -0.6645  0.6221 -0.2237
16554TIP3    H171153   6.499   5.865  16.191 -0.1233  0.0132  1.0845
16554TIP3    H271154   6.632   5.933  16.215  0.4319 -0.8618  0.5495
16555TIP3   OH271155   6.145   3.489   4.606 -0.4599 -0.2758 -0.3564
16555TIP3    H171156   6.203   3.481   4.682  0.1162 -2.0371 -0.9216
16555TIP3    H271157   6.200   3.528   4.538 -0.2073 -1.0784 -0.6167
16556TIP3   OH271158   3.595   4.821  14.906 -0.3370 -0.1098 -0.2743
16556TIP3    H171159   3.621   4.893  14.848 -0.7621  1.3756  1.3189
16556TIP3    H271160   3.663   4.818  14.973 -0.8594 -0.5487  0.2410
16557TIP3   OH271161   4.210   4.107  12.191  0.1307  0.6365 -0.0851
16557TIP3    H171162   4.125   4.127  12.151 -0.0449  0.7054  0.3239
16557TIP3    H271163   4.244   4.192  12.219  0.3770  0.6202 -0.3307
16558TIP3   OH271164   2.056   1.454   4.652 -0.3575  0.4242 -0.0977
16558TIP3    H171165   2.008   1.383   4.610  0.9555 -2.1988  2.4327
16558TIP3    H271166   2.138   1.460   4.603 -1.3148  1.7657 -1.6243
16559TIP3   OH271167   5.140   2.259  11.189 -0.1577  0.4013 -0.6771
16559TIP3    H171168   5.165   2.204  11.115  0.1725  2.0461 -1.8510
16559TIP3    H271169   5.087   2.328  11.151 -1.4244  0.3616  0.9037
16560TIP3   OH271170   1.292   6.683   5.100  0.7883  0.4700 -0.5371
16560TIP3    H171171   1.232   6.622   5.144  1.5261  0.7550  0.9223
16560TIP3    H271172   1.236   6.757   5.074 -0.0129 -0.5546 -1.8459
16561TIP3   OH271173   0.412   5.118  13.974 -0.1896  0.4841  1.0252
16561TIP3    H171174   0.366   5.090  13.895  1.7572 -0.4256  0.1188
16561TIP3    H271175   0.376   5.204  13.994 -0.6218  0.8297 -0.9920
16562TIP3   OH271176   4.676   1.824  17.110  0.3459  0.1442 -0.0235
16562TIP3    H171177   4.619   1.821  17.186  1.2108 -1.2921  0.6040
16562TIP3    H271178   4.760   1.855  17.143  0.1658  1.5358 -0.8025
16563TIP3   OH271179   3.193   5.824   1.135 -0.5587  0.4795 -0.0481
16563TIP3    H171180   3.146   5.833   1.052 -0.3116 -2.2412 -0.5881
16563TIP3    H271181   3.262   5.890   1.131 -0.2214  0.0731 -2.2767
16564TIP3   OH271182   5.514   5.943  10.947 -0.0202 -0.2656  0.8572
16564TIP3    H171183   5.424   5.953  10.913  0.5073  0.2103 -0.4642
16564TIP3    H271184   5.531   5.849  10.941 -0.3340 -0.3239  0.8382
16565TIP3   OH271185   0.348   0.917  15.891  0.0551  0.1956  0.2039
16565TIP3    H171186   0.274   0.877  15.938  0.0081  0.1986  0.1329
16565TIP3    H271187   0.425   0.895  15.943  0.0772 -0.3082 -0.0397
16566TIP3   OH271188   6.692   5.681  15.225 -0.2465 -0.0618  0.2859
16566TIP3    H171189   6.662   5.765  15.259  0.4802  0.3411 -0.0401
16566TIP3    H271190   6.732   5.702  15.141 -1.8982 -1.0345 -0.7871
16567TIP3   OH271191   5.889   0.852   3.108  0.3132  0.1654 -0.3197
16567TIP3    H171192   5.853   0.892   3.187 -0.1243 -2.3763  0.8882
16567TIP3    H271193   5.813   0.818   3.062  0.6433  0.8665 -1.3948
16568TIP3   OH271194   1.726   3.328   0.321 -0.0449 -0.0859 -0.1502
16568TIP3    H171195   1.671   3.306   0.247  0.5634 -1.1079 -0.3197
16568TIP3    H271196   1.688   3.408   0.357 -1.8482 -0.9663 -0.0236
16569TIP3   OH271197   2.858   1.850  15.553 -0.1244  0.2078 -0.4084
16569TIP3    H171198   2.909   1.886  15.625 -0.0628  0.3483 -0.5217
16569TIP3    H271199   2.910   1.869  15.475 -0.6034  0.8283 -0.5819
16570TIP3   OH271200   4.702   5.736   1.907  0.2702 -0.2422  0.3312
16570TIP3    H171201   4.754   5.736   1.827 -0.8032 -1.1918 -0.3954
16570TIP3    H271202   4.766   5.719   1.977  1.2223  0.6242 -0.2897
16571TIP3   OH271203   2.639   5.910  16.609 -0.3587 -0.4208  0.4338
16571TIP3    H171204   2.555   5.917  16.653 -0.1051  0.1288  0.8514
16571TIP3    H271205   2.700   5.957  16.666  0.0786 -0.1422 -0.2466
16572TIP3   OH271206   1.821   2.457  14.013 -0.7122  0.0205  0.0268
16572TIP3    H171207   1.805   2.409  13.931 -0.0383  1.1828 -0.8142
16572TIP3    H271208   1.734   2.471  14.050 -0.9162 -2.1522  0.5025
16573TIP3   OH271209   0.260   3.800  16.767  0.0217 -0.1388 -0.2810
16573TIP3    H171210   0.193   3.752  16.816 -0.1510 -0.7514 -1.0844
16573TIP3    H271211   0.259   3.887  16.805 -1.3866 -0.0717 -0.3901
16574TIP3   OH271212   6.572   4.437   4.226 -0.1318 -0.0789 -0.1069
16574TIP3    H171213   6.505   4.370   4.244  0.2476 -0.4929 -0.2197
16574TIP3    H271214   6.523   4.519   4.221 -0.5525 -0.2914  0.4406
16575TIP3   OH271215   0.360   5.295   5.587 -1.2016  0.1762 -0.2494
16575TIP3    H171216   0.445   5.318   5.550 -0.5145  1.8458  2.1340
16575TIP3    H271217   0.372   5.207   5.624 -0.8382  0.0022 -0.7687
16576TIP3   OH271218   4.772   1.410   5.229  0.3005  0.2561  0.2540
16576TIP3    H171219   4.707   1.441   5.292  1.5144  1.7158  0.8348
16576TIP3    H271220   4.726   1.410   5.145 -0.4611  1.2452  0.6550
16577TIP3   OH271221   1.241   4.168  17.226  0.2023  0.7013  0.4818
16577TIP3    H171222   1.155   4.145  17.261 -0.1225  0.3123 -0.5581
16577TIP3    H271223   1.303   4.138  17.294 -0.5049  1.9152  1.7125
16578TIP3   OH271224   5.639   6.236   6.233  0.2945  0.5046  0.2795
16578TIP3    H171225   5.576   6.265   6.300  0.5214 -0.5139  0.9701
16578TIP3    H271226   5.601   6.264   6.150  0.4035  2.5130  0.8692
16579TIP3   OH271227   1.687   0.792  12.133 -0.0877 -0.8834 -0.0003
16579TIP3    H171228   1.782   0.781  12.134  0.2808  1.5930  0.0959
16579TIP3    H271229   1.659   0.760  12.047  0.9922 -0.7656 -0.4053
16580TIP3   OH271230   2.243   5.478  16.414 -0.1902 -0.1057  0.2837
16580TIP3    H171231   2.179   5.549  16.421 -1.6816 -0.9490 -2.8295
16580TIP3    H271232   2.197   5.400  16.445 -0.0380 -0.3759 -0.1506
16581TIP3   OH271233   3.109   4.066   1.006 -0.2307  0.3434 -0.2441
16581TIP3    H171234   3.028   4.099   1.045  0.1042  1.7471 -0.7052
16581TIP3    H271235   3.162   4.144   0.991  2.1364 -0.6909  2.0642
16582TIP3   OH271236   4.702   5.856  12.577  0.4454 -0.8453 -0.2377
16582TIP3    H171237   4.662   5.879  12.660 -0.5916 -2.5864 -0.1875
16582TIP3    H271238   4.789   5.823  12.600 -0.0299 -1.8137  0.2591
16583TIP3   OH271239   1.075   3.986  10.941 -0.1706 -0.2670  0.5238
16583TIP3    H171240   0.981   3.966  10.942 -0.2698 -0.0357 -1.1230
16583TIP3    H271241   1.079   4.080  10.926  0.2548 -0.6887 -2.8466
16584TIP3   OH271242   1.432   6.427  16.985 -0.6301 -0.0567  0.5528
16584TIP3    H171243   1.459   6.344  17.022  1.8185  0.3259 -0.2008
16584TIP3    H271244   1.461   6.493  17.049  0.6385  0.3998 -0.4599
16585TIP3   OH271245   2.879   6.677   2.196  0.1357  0.8772  0.5192
16585TIP3    H171246   2.947   6.631   2.147  0.1236  0.9541  0.4286
16585TIP3    H271247   2.800   6.665   2.144  0.0292  0.5860  0.7464
16586TIP3   OH271248   1.073   0.679  11.832 -0.2770 -0.2402  0.5015
16586TIP3    H171249   1.072   0.774  11.822  1.6767 -0.1641  0.5563
16586TIP3    H271250   1.155   0.652  11.791 -0.9291 -1.9424  0.2541
16587TIP3   OH271251   5.943   5.290  14.830 -0.1303  0.9572 -0.4393
16587TIP3    H171252   5.969   5.203  14.800  2.1385  1.5018 -0.2409
16587TIP3    H271253   5.915   5.277  14.921  2.1882  0.6357  0.3236
16588TIP3   OH271254   3.624   4.308  13.852 -0.5035 -0.1122  0.1702
16588TIP3    H171255   3.581   4.308  13.766  0.5149  1.2740 -0.3795
16588TIP3    H271256   3.573   4.368  13.905 -1.7698 -1.7843  0.9143
16589TIP3   OH271257   0.499   4.284   3.843 -0.2148 -0.2309 -0.0298
16589TIP3    H171258   0.481   4.319   3.756  1.0280 -0.5640 -0.4516
16589TIP3    H271259   0.417   4.243   3.871 -0.3245 -1.0812 -1.5175
16590TIP3   OH271260   4.413   5.654  16.591 -0.1730  0.0996  0.0930
16590TIP3    H171261   4.355   5.702  16.533  1.5022  0.6493 -1.2034
16590TIP3    H271262   4.411   5.702  16.674 -1.2104  0.3370 -0.0578
16591TIP3   OH271263   4.489   3.749   1.750 -0.0835 -0.0412  0.0651
16591TIP3    H171264   4.581   3.759   1.727 -0.3631  0.0473 -1.1030
16591TIP3    H271265   4.459   3.675   1.698 -0.0994 -1.7066  2.3060
16592TIP3   OH271266   3.064   6.192   5.109  0.1890 -0.3099  0.1511
16592TIP3    H171267   3.149   6.157   5.135  0.4341  0.7105  0.7706
16592TIP3    H271268   3.006   6.175   5.183 -0.2358 -1.2376 -0.3705
16593TIP3   OH271269   3.741   4.852   5.168  0.4844 -1.6981 -0.2571
16593TIP3    H171270   3.690   4.928   5.141  0.7644 -0.5070  2.2908
16593TIP3    H271271   3.678   4.779   5.166 -0.2418 -1.0649 -1.0639
16594TIP3   OH271272   2.136   0.980   1.659  0.0464  0.0831  0.5405
16594TIP3    H171273   2.066   0.954   1.718 -0.5853  2.1801  0.7956
16594TIP3    H271274   2.215   0.978   1.714 -0.2050  0.0528  0.9047
16595TIP3   OH271275   3.630   0.120   0.924  0.2201 -0.0963  0.4605
16595TIP3    H171276   3.619   0.149   0.833  1.6892 -1.9464 -0.3928
16595TIP3    H271277   3.662   0.197   0.970  0.7946  0.5269 -0.9190
16596TIP3   OH271278   4.721   3.479  13.114  0.0356  0.5246 -0.0856
16596TIP3    H171279   4.639   3.503  13.071  0.0189 -1.0413 -0.9829
16596TIP3    H271280   4.714   3.385  13.129  1.1979  0.5657  0.8867
16597TIP3   OH271281   4.576   0.997   1.444 -0.5326 -0.0826  0.0087
16597TIP3    H171282   4.489   0.996   1.485 -0.4262 -0.1860  0.2383
16597TIP3    H271283   4.612   1.083   1.467 -1.0520  0.4657 -1.1265
16598TIP3   OH271284   6.004   1.812   3.327  0.0693  0.3564 -0.3092
16598TIP3    H171285   6.061   1.772   3.262 -0.9415 -0.4142 -0.7460
16598TIP3    H271286   6.013   1.757   3.404  0.7589  0.8844 -0.0050
16599TIP3   OH271287   6.259   1.880  10.898 -0.6185 -0.4652  0.1363
16599TIP3    H171288   6.273   1.786  10.894 -2.3217 -0.7071 -1.6352
16599TIP3    H271289   6.333   1.918  10.850 -1.5516 -1.1528 -1.9588
16600TIP3   OH271290   2.347   2.135  13.073 -0.5776 -0.2813 -0.1631
16600TIP3    H171291   2.311   2.221  13.094 -2.4259 -0.9917 -0.3016
16600TIP3    H271292   2.347   2.131  12.978 -1.0226 -0.6480 -0.1496
16601TIP3   OH271293   5.225   6.612  14.846 -0.7475 -0.2036  0.1128
16601TIP3    H171294   5.204   6.552  14.917 -0.1819  0.2811  0.7103
16601TIP3    H271295   5.210   6.699  14.884 -1.9688  0.0270 -0.8744
16602TIP3   OH271296   0.515   2.496   0.056  0.5512  0.0310 -0.1055
16602TIP3    H171297   0.566   2.463  -0.019 -1.9485 -0.1645 -1.8394
16602TIP3    H271298   0.492   2.418   0.105 -0.6494 -0.2685 -1.0884
16603TIP3   OH271299   6.265   5.091   1.719 -0.5938 -0.5208  0.1002
16603TIP3    H171300   6.322   5.106   1.795  0.7753  1.9884 -1.2740
16603TIP3    H271301   6.244   5.178   1.687 -1.4795 -1.4734 -2.1585
16604TIP3   OH271302   3.939   2.477   6.607 -0.8321  0.5084 -0.0322
16604TIP3    H171303   3.905   2.400   6.653  1.0232  0.2420  1.0031
16604TIP3    H271304   3.946   2.450   6.516  1.6724 -1.3613  0.5917
16605TIP3   OH271305   3.871   2.764  15.588 -0.4279  0.1438  0.6613
16605TIP3    H171306   3.965   2.747  15.576 -0.5386 -0.3396  0.4490
16605TIP3    H271307   3.828   2.692  15.543 -0.9164  0.8748 -0.0670
16606TIP3   OH271308   3.214   3.645   1.060 -0.1984 -0.7207  0.6819
16606TIP3    H171309   3.246   3.615   0.975 -2.1285  0.4093 -0.5130
16606TIP3    H271310   3.235   3.739   1.062 -2.4887 -0.1421  0.2319
16607TIP3   OH271311   1.437   0.968   2.594 -0.5680 -0.2017  0.4065
16607TIP3    H171312   1.433   1.043   2.654 -0.1931 -1.2932  1.8655
16607TIP3    H271313   1.426   0.892   2.651  0.8395 -1.3477 -0.7846
16608TIP3   OH271314   1.409   0.134   0.185 -0.2617  0.0398 -0.3263
16608TIP3    H171315   1.332   0.101   0.139 -0.9189  0.7711  0.2112
16608TIP3    H271316   1.376   0.162   0.270  0.6887 -0.0764  0.0964
16609TIP3   OH271317   4.866   1.082  15.536 -0.1553 -0.1242  0.9418
16609TIP3    H171318   4.871   1.015  15.604 -0.1005  0.1219  1.1834
16609TIP3    H271319   4.934   1.145  15.559 -0.8346  0.5148  1.2734
16610TIP3   OH271320   1.781   3.396  14.029  0.7926 -0.2070 -0.4989
16610TIP3    H171321   1.871   3.384  14.060  0.5539  0.9890  0.7443
16610TIP3    H271322   1.757   3.484  14.058 -1.0621 -0.8064 -0.0873
16611TIP3   OH271323   3.381   2.049  11.283  0.2831  0.5790 -0.4084
16611TIP3    H171324   3.409   2.085  11.199  0.5941  2.4691  0.4485
16611TIP3    H271325   3.320   1.979  11.260  0.4979  0.9335 -2.2043
16612TIP3   OH271326   3.031   5.222   2.151  0.0919  0.3001 -0.1023
16612TIP3    H171327   3.090   5.205   2.077 -0.6899  2.0670 -1.1813
16612TIP3    H271328   3.001   5.135   2.177  0.2362 -0.3751 -2.0136
16613TIP3   OH271329   5.134   5.230  13.937  0.3886 -0.1234 -0.6909
16613TIP3    H171330   5.041   5.243  13.916  0.5941  1.4623 -0.7308
16613TIP3    H271331   5.166   5.317  13.961  1.6239 -0.8369  0.3742
16614TIP3   OH271332   3.985   2.246  16.891 -0.4997  0.2119 -0.3857
16614TIP3    H171333   4.005   2.238  16.798 -2.3329  0.6738 -0.8587
16614TIP3    H271334   4.058   2.202  16.935  0.1023 -0.5343 -2.0460
16615TIP3   OH271335   0.786   4.009  10.947 -0.1639 -0.1919  0.3629
16615TIP3    H171336   0.747   4.090  10.980  0.6557  0.3669  0.0268
16615TIP3    H271337   0.730   3.984  10.873 -0.2582  0.2456  0.2809
16616TIP3   OH271338   2.351   2.974   6.351 -0.5024 -0.4591 -0.0464
16616TIP3    H171339   2.275   2.948   6.403 -0.7373 -0.0502 -0.1830
16616TIP3    H271340   2.423   2.976   6.414 -0.2491 -2.4235 -0.2149
16617TIP3   OH271341   3.392   5.043  17.116  0.3316 -0.0366 -0.1979
16617TIP3    H171342   3.310   5.024  17.072  0.4326  1.5672 -1.1661
16617TIP3    H271343   3.442   5.095  17.053  0.1134  3.2037  2.0293
16618TIP3   OH271344   4.798   3.449   2.407 -0.3350 -0.0821 -0.6458
16618TIP3    H171345   4.792   3.544   2.418  2.0062  0.3672 -2.3785
16618TIP3    H271346   4.711   3.422   2.379 -2.0161  0.9409  3.0032
16619TIP3   OH271347   4.732   2.834   3.011  0.0737  0.0766  0.0385
16619TIP3    H171348   4.677   2.774   2.960  0.8087 -1.3708  0.8716
16619TIP3    H271349   4.822   2.812   2.985  0.3455  1.0483  0.1294
16620TIP3   OH271350   3.999   6.169   1.571 -0.3339  0.5949 -0.4663
16620TIP3    H171351   4.066   6.132   1.628 -0.4683  0.7534 -0.2079
16620TIP3    H271352   4.018   6.263   1.570 -2.4039  1.1550  2.1015
16621TIP3   OH271353   2.406   0.411   5.977  0.2788  0.5230  0.3665
16621TIP3    H171354   2.487   0.361   5.976  0.0413  0.0720  1.8804
16621TIP3    H271355   2.351   0.369   5.911  0.7297 -0.1035  0.3857
16622TIP3   OH271356   5.385   6.086   5.480  0.3737  0.2086  0.2474
16622TIP3    H171357   5.424   6.023   5.541  0.9772 -0.3955 -0.7362
16622TIP3    H271358   5.294   6.059   5.472 -0.0529  1.0404  1.8073
16623TIP3   OH271359   6.192   0.317  14.050  0.1243 -0.1849  0.0378
16623TIP3    H171360   6.284   0.337  14.066  0.2866 -0.8648 -0.0065
16623TIP3    H271361   6.155   0.305  14.138 -0.0318  0.5177  0.0776
16624TIP3   OH271362   0.926   3.422  16.278  0.3271  0.0458  0.2799
16624TIP3    H171363   0.933   3.449  16.369  0.9530  0.7300  0.0382
16624TIP3    H271364   0.891   3.332  16.282  1.2395 -0.2849  1.2293
16625TIP3   OH271365   1.542   1.117  10.809 -0.3871  0.6091  0.3553
16625TIP3    H171366   1.485   1.141  10.737 -0.4849  0.7788  0.4894
16625TIP3    H271367   1.624   1.165  10.793 -1.1620  2.4227  1.5391
16626TIP3   OH271368   5.388   3.816  13.913  0.2523  0.1509  0.1492
16626TIP3    H171369   5.446   3.784  13.982  0.6973 -1.2092 -0.7983
16626TIP3    H271370   5.308   3.842  13.958  1.7773  2.7341  1.5721
16627TIP3   OH271371   4.735   4.759   3.026 -0.3492 -0.3764 -0.0976
16627TIP3    H171372   4.688   4.744   3.108 -1.3097 -0.1947 -0.5895
16627TIP3    H271373   4.766   4.849   3.032 -1.5390  0.0879 -0.4351
16628TIP3   OH271374   1.389   5.497   0.925  0.6037  0.1890  0.4488
16628TIP3    H171375   1.379   5.591   0.937  0.1923  0.2420 -0.2864
16628TIP3    H271376   1.465   5.474   0.979  1.6996  1.2068 -0.6008
16629TIP3   OH271377   2.965   5.439   5.778 -0.1595  0.3237 -1.1056
16629TIP3    H171378   2.952   5.346   5.757  1.2565 -0.7908  2.2746
16629TIP3    H271379   3.028   5.469   5.713  0.7833 -1.6452 -1.1880
16630TIP3   OH271380   4.652   0.429  11.135  0.7410 -0.2191 -1.0788
16630TIP3    H171381   4.583   0.454  11.197  1.0980  0.9680 -1.1370
16630TIP3    H271382   4.634   0.337  11.115 -0.2874 -0.1835 -0.3983
16631TIP3   OH271383   3.144   0.818   6.419 -0.1655 -0.3919  0.0044
16631TIP3    H171384   3.202   0.879   6.464  0.8112  0.7639 -2.6440
16631TIP3    H271385   3.065   0.868   6.402 -0.7583 -1.0023  0.8360
16632TIP3   OH271386   4.295   5.331  14.141  0.4178  0.0122 -0.4643
16632TIP3    H171387   4.366   5.280  14.180  0.8882  0.0657 -1.2321
16632TIP3    H271388   4.308   5.322  14.047 -0.7953 -0.2496 -0.6236
16633TIP3   OH271389   2.177   1.025   6.109 -0.1066  0.4164  0.2077
16633TIP3    H171390   2.156   0.993   6.021 -2.0249  0.4340  0.6142
16633TIP3    H271391   2.099   1.006   6.161 -0.8304  4.2826  0.8537
16634TIP3   OH271392   6.114   0.903   2.959 -0.1794  0.6347  0.3894
16634TIP3    H171393   6.133   0.810   2.972 -1.5899  0.2789  0.0621
16634TIP3    H271394   6.018   0.908   2.960 -0.1258  2.0342  0.0603
16635TIP3   OH271395   0.801   2.020   0.288  0.1873  0.0322  0.0836
16635TIP3    H171396   0.725   1.967   0.312 -0.6694  1.1801 -0.0495
16635TIP3    H271397   0.866   1.956   0.259 -0.1475 -1.0861  1.6697
16636TIP3   OH271398   4.333   6.439  13.294  0.1596  0.0957  0.0004
16636TIP3    H171399   4.364   6.505  13.355  3.6290 -1.2850 -0.0050
16636TIP3    H271400   4.357   6.356  13.334  0.3463 -0.9516 -2.1224
16637TIP3   OH271401   5.696   1.584   0.370  0.9982 -0.0197  0.3395
16637TIP3    H171402   5.614   1.633   0.380  0.7915 -0.2731 -0.0455
16637TIP3    H271403   5.673   1.495   0.393  1.2554 -0.0238  0.5762
16638TIP3   OH271404   3.888   5.161  15.972 -0.3205  0.0537  0.2715
16638TIP3    H171405   3.955   5.207  16.023  0.5226 -0.4061 -0.4019
16638TIP3    H271406   3.904   5.069  15.989 -2.0958 -0.0318  1.7300
16639TIP3   OH271407   0.385   4.829   4.414  0.2238  0.0402  0.2239
16639TIP3    H171408   0.340   4.902   4.456  0.2767 -0.0849  0.5023
16639TIP3    H271409   0.345   4.751   4.452  1.1777 -0.0798  1.0385
16640TIP3   OH271410   4.375   0.710   5.066  0.2784  0.0101  0.0237
16640TIP3    H171411   4.393   0.726   4.973  0.9437 -0.2080  0.1085
16640TIP3    H271412   4.427   0.633   5.087 -1.3090 -1.0926  0.1273
16641TIP3   OH271413   5.099   5.037  14.902 -0.6359 -0.0796  0.0037
16641TIP3    H171414   5.067   5.000  14.984 -0.8179  0.0858  0.0062
16641TIP3    H271415   5.027   5.091  14.870  0.4389  2.2284  1.2064
16642TIP3   OH271416   4.252   3.573   6.438 -0.2374 -0.4763  0.4865
16642TIP3    H171417   4.259   3.535   6.526  2.4602 -0.4072  0.3716
16642TIP3    H271418   4.326   3.537   6.390  0.1858  1.9272 -0.8098
16643TIP3   OH271419   3.629   6.100  12.076 -0.0470 -0.8075  0.3849
16643TIP3    H171420   3.602   6.180  12.031 -0.8719 -0.9720  0.5784
16643TIP3    H271421   3.595   6.029  12.022 -0.8051 -1.0106  1.1043
16644TIP3   OH271422   5.510   1.684  12.115 -0.0760  0.3332 -0.5934
16644TIP3    H171423   5.553   1.757  12.070 -2.6159  2.4716  0.2221
16644TIP3    H271424   5.424   1.678  12.074 -1.0981 -0.0679  1.4808
16645TIP3   OH271425   3.955   5.945  12.050 -0.5384  0.6415  0.0383
16645TIP3    H171426   4.015   5.976  11.982 -1.8987  1.4783 -0.8285
16645TIP3    H271427   3.917   5.865  12.014  1.3854 -1.0052  1.3897
16646TIP3   OH271428   1.306   5.482   1.517 -0.1196  0.3258  0.0160
16646TIP3    H171429   1.347   5.564   1.544 -0.1224  0.0831  0.7598
16646TIP3    H271430   1.276   5.499   1.428 -0.2602  1.1846  0.2214
16647TIP3   OH271431   4.706   3.186  13.887  0.8381  0.2130  0.5397
16647TIP3    H171432   4.699   3.279  13.867 -1.6287  0.3541  1.7841
16647TIP3    H271433   4.693   3.180  13.981 -0.4742 -1.5012  0.2943
16648TIP3   OH271434   6.237   6.774  14.080 -0.9092 -0.6321 -0.7347
16648TIP3    H171435   6.285   6.696  14.106 -0.0197  0.3197  0.6826
16648TIP3    H271436   6.258   6.786  13.987  0.1467 -1.2575 -0.5908
16649TIP3   OH271437   0.717   1.008   3.540 -0.6269  0.3387 -0.0083
16649TIP3    H171438   0.685   0.938   3.598 -0.9052  1.6962  1.5442
16649TIP3    H271439   0.650   1.076   3.546  0.5168  1.5062 -0.0249
16650TIP3   OH271440   4.675   3.477   5.589  0.0591 -0.1963 -0.6332
16650TIP3    H171441   4.715   3.563   5.604  0.2876 -0.2286 -1.0479
16650TIP3    H271442   4.585   3.496   5.565  0.1790 -0.0538 -0.9879
16651TIP3   OH271443   0.340   0.393   1.050 -0.4586 -0.1047  0.3855
16651TIP3    H171444   0.275   0.329   1.022  0.3963 -0.8530  0.0737
16651TIP3    H271445   0.424   0.347   1.047  0.2681  1.1850 -0.4068
16652TIP3   OH271446   6.688   5.966   5.013 -0.7005 -0.2505 -0.0341
16652TIP3    H171447   6.631   5.930   5.081 -0.5838  0.6303  0.5583
16652TIP3    H271448   6.776   5.964   5.051 -0.6586  0.4100 -0.0698
16653TIP3   OH271449   1.881   0.152  11.647 -0.4792  0.5016  0.5960
16653TIP3    H171450   1.862   0.210  11.573  0.7397  0.2521  0.0591
16653TIP3    H271451   1.834   0.071  11.628 -0.3045  0.4994  0.1664
16654TIP3   OH271452   3.394   2.285  15.814 -0.2585  0.1011 -0.1561
16654TIP3    H171453   3.480   2.245  15.798 -0.4661 -0.3957 -0.0326
16654TIP3    H271454   3.401   2.320  15.903 -0.5995 -1.0373  0.3302
16655TIP3   OH271455   2.720   4.710   2.256 -0.2068 -0.0208  0.0854
16655TIP3    H171456   2.763   4.764   2.322 -1.7856  1.4704 -0.0493
16655TIP3    H271457   2.677   4.772   2.198 -1.1998 -1.3931 -0.7107
16656TIP3   OH271458   0.143   1.858  13.562  0.1732 -0.0969  0.1500
16656TIP3    H171459   0.234   1.860  13.591  0.1233  0.2069  0.2991
16656TIP3    H271460   0.093   1.841  13.642  0.0436  0.6075  0.2288
16657TIP3   OH271461   6.647   1.616  12.160  0.2868 -0.4802  0.2701
16657TIP3    H171462   6.621   1.608  12.068 -0.6885  0.4709  0.4445
16657TIP3    H271463   6.743   1.616  12.158  0.3146  1.4559 -0.9558
16658TIP3   OH271464   3.147   4.458  14.024  1.3295 -0.0214 -0.2213
16658TIP3    H171465   3.155   4.403  14.101 -0.1844 -1.3587 -0.9614
16658TIP3    H271466   3.180   4.404  13.952  1.2392  0.6081 -0.7543
16659TIP3   OH271467   2.305   0.070   0.071 -0.5362 -0.2546  0.2285
16659TIP3    H171468   2.249   0.122   0.014  0.1538 -0.5326 -0.7180
16659TIP3    H271469   2.287  -0.021   0.048 -0.4202 -0.3759  0.6084
16660TIP3   OH271470   2.380   4.823  11.483  0.1018  0.0067  0.7478
16660TIP3    H171471   2.340   4.909  11.497 -1.5373 -0.8180  1.4070
16660TIP3    H271472   2.359   4.801  11.392  0.8678  0.4395  0.4493
16661TIP3   OH271473   5.842   6.635   1.075 -0.0492 -0.2551 -0.7348
16661TIP3    H171474   5.915   6.684   1.037  0.4609 -1.5675 -1.5425
16661TIP3    H271475   5.883   6.580   1.142 -0.2245 -1.1973 -1.3781
16662TIP3   OH271476   0.516   6.479  13.640 -0.2723 -0.6032  0.1648
16662TIP3    H171477   0.480   6.561  13.604  0.4742 -0.1040  0.5294
16662TIP3    H271478   0.591   6.507  13.692  0.1424 -1.5511  0.0941
16663TIP3   OH271479   5.898   5.018   3.315 -0.0409  0.0402  0.0763
16663TIP3    H171480   5.993   5.014   3.311 -0.0979 -1.3830 -0.4192
16663TIP3    H271481   5.873   4.943   3.369 -0.8436  1.0353  1.1252
16664TIP3   OH271482   2.605   3.721  16.870 -0.2318 -0.3402  0.1416
16664TIP3    H171483   2.523   3.734  16.822  0.3677  0.2253 -0.7476
16664TIP3    H271484   2.577   3.707  16.961 -1.4079 -1.9432 -0.4259
16665TIP3   OH271485   0.479   2.738   5.435  0.2957  0.0997  0.8068
16665TIP3    H171486   0.492   2.664   5.494  0.5362  0.5488  1.3199
16665TIP3    H271487   0.455   2.810   5.492  0.7332  0.5888  0.3766
16666TIP3   OH271488   5.836   5.681   4.807 -0.2998 -0.1315 -0.5107
16666TIP3    H171489   5.861   5.773   4.804  2.2365 -0.4938  3.4515
16666TIP3    H271490   5.741   5.682   4.791 -0.2882  3.0440 -1.0511
16667TIP3   OH271491   2.768   0.634   2.614  0.2504 -0.3495 -0.6840
16667TIP3    H171492   2.751   0.635   2.708  1.0727 -2.1924 -0.4694
16667TIP3    H271493   2.698   0.687   2.576 -0.2062  0.2563  0.9418
16668TIP3   OH271494   4.335   3.039   3.217  0.1911  0.5982 -0.2017
16668TIP3    H171495   4.409   3.041   3.155  0.5407  0.5994  0.2141
16668TIP3    H271496   4.257   3.046   3.161  0.5022  0.5533 -0.6473
16669TIP3   OH271497   5.074   2.598   2.135 -0.4151 -0.1010  0.1721
16669TIP3    H171498   5.104   2.518   2.177 -1.7928 -0.5794  0.2784
16669TIP3    H271499   5.155   2.647   2.117  0.5351 -1.8781 -0.7003
16670TIP3   OH271500   3.983   2.190   3.042  0.1318  0.6177 -0.5271
16670TIP3    H171501   3.981   2.282   3.067  0.7489  0.6212 -0.4674
16670TIP3    H271502   3.913   2.150   3.093  0.0771  0.9944 -0.2998
16671TIP3   OH271503   3.791   3.354  12.667 -0.0324  0.2890  0.1044
16671TIP3    H171504   3.779   3.259  12.676 -0.5781  0.1543 -1.6505
16671TIP3    H271505   3.885   3.367  12.682 -0.1341 -0.3567  1.4582
16672TIP3   OH271506   1.840   3.745   4.282  0.0223  0.2203 -0.4059
16672TIP3    H171507   1.892   3.760   4.361 -0.7061  0.0081  0.1267
16672TIP3    H271508   1.884   3.796   4.214  0.9685 -0.0298  0.0082
16673TIP3   OH271509   2.842   3.838  12.853  0.0542  0.0898  0.3051
16673TIP3    H171510   2.894   3.885  12.787  1.1472 -1.9078 -0.3251
16673TIP3    H271511   2.757   3.824  12.810  0.2094  0.2350 -0.0557
16674TIP3   OH271512   6.039   6.307   1.738  0.5095  0.3705  0.6018
16674TIP3    H171513   6.087   6.284   1.818 -0.9576 -0.6379  1.2340
16674TIP3    H271514   5.979   6.376   1.767 -1.1923 -1.1453  0.8093
16675TIP3   OH271515   2.063   1.485  15.869 -0.2439  0.4191  0.1851
16675TIP3    H171516   2.134   1.431  15.903  0.0647  0.3874 -0.4895
16675TIP3    H271517   2.107   1.562  15.832 -0.6474  0.9474  0.7893
16676TIP3   OH271518   5.481   4.849   1.688 -0.0947  0.2066  0.6819
16676TIP3    H171519   5.479   4.846   1.784  0.8718  0.9027  0.7353
16676TIP3    H271520   5.400   4.894   1.664 -0.3225  0.0655  1.1676
16677TIP3   OH271521   0.256   4.036  16.357  0.1408 -0.3475  0.1660
16677TIP3    H171522   0.213   3.974  16.416  0.9277 -1.0653  0.0020
16677TIP3    H271523   0.303   3.981  16.295  1.8529  0.4119  0.7413
16678TIP3   OH271524   2.653   6.434  15.575 -0.7272 -0.0001 -0.2484
16678TIP3    H171525   2.714   6.360  15.584  0.9437  1.2174 -0.9466
16678TIP3    H271526   2.649   6.471  15.663 -2.1489 -1.2990  0.2757
16679TIP3   OH271527   2.479   0.540  12.630 -0.4231  0.6396  0.1832
16679TIP3    H171528   2.470   0.446  12.644 -2.4378  0.8614  0.7243
16679TIP3    H271529   2.465   0.551  12.536 -1.0901  0.4675  0.2561
16680TIP3   OH271530   2.331   2.118   3.356  0.6558  0.5834 -0.1711
16680TIP3    H171531   2.307   2.208   3.337 -0.1809 -0.1645 -3.1049
16680TIP3    H271532   2.251   2.079   3.392  0.8834  0.8624  0.6635
16681TIP3   OH271533   3.214   0.399  10.939  0.3072 -0.0583 -0.0830
16681TIP3    H171534   3.162   0.335  10.889  0.6609 -0.3965 -0.0247
16681TIP3    H271535   3.302   0.361  10.941  0.5867  0.5682 -0.2876
16682TIP3   OH271536   4.167   4.010   1.978 -0.0939  0.2338  0.0998
16682TIP3    H171537   4.259   3.985   1.981  0.4510  2.1802  1.0406
16682TIP3    H271538   4.124   3.939   1.931  2.1214 -0.0144 -1.6996
16683TIP3   OH271539   3.745   5.537  11.746 -0.4054  0.0145  0.4175
16683TIP3    H171540   3.791   5.461  11.782  1.1667  0.8927  0.3719
16683TIP3    H271541   3.660   5.537  11.789  0.2189 -0.7953  1.7077
16684TIP3   OH271542   1.743   6.016   3.587  0.1006  0.0960 -0.2453
16684TIP3    H171543   1.775   6.103   3.609 -1.4782  0.4545  0.8981
16684TIP3    H271544   1.807   5.956   3.625 -0.7437  0.7726  2.5361
16685TIP3   OH271545   0.252   4.446  14.285  0.1255  0.3359 -0.4067
16685TIP3    H171546   0.333   4.497  14.276  0.8015 -0.9297 -1.9586
16685TIP3    H271547   0.272   4.361  14.246 -1.0035 -1.1392  1.9808
16686TIP3   OH271548   5.032   3.225  14.106 -0.1599  0.1471  0.1068
16686TIP3    H171549   5.022   3.140  14.149 -0.7847 -0.0517 -0.4194
16686TIP3    H271550   5.084   3.277  14.168 -0.9796 -0.1495  1.0694
16687TIP3   OH271551   4.023   4.089  13.552  0.5434  0.3864  0.0373
16687TIP3    H171552   4.070   4.167  13.581  2.4097 -0.2407 -1.1193
16687TIP3    H271553   3.989   4.051  13.633  2.1199  0.8493  0.9831
16688TIP3   OH271554   2.082   5.029   1.734 -0.2177  0.2351  0.0246
16688TIP3    H171555   2.028   5.107   1.726  0.9959  1.1972  0.7851
16688TIP3    H271556   2.085   5.011   1.828 -0.9617 -1.1059 -0.1829
16689TIP3   OH271557   1.022   2.625  15.652 -0.6041 -0.1259 -0.7150
16689TIP3    H171558   1.028   2.626  15.556  0.4667  1.1311 -0.6515
16689TIP3    H271559   1.049   2.712  15.679  1.1248 -1.0827  0.8566
16690TIP3   OH271560   3.270   3.302   0.999 -0.2010  0.4358 -0.0066
16690TIP3    H171561   3.296   3.306   0.907  1.6416  1.0029  0.4989
16690TIP3    H271562   3.177   3.325   0.998 -0.6989 -1.3530 -1.8903
16691TIP3   OH271563   5.989   6.790   5.743  0.5517  0.2438  0.0376
16691TIP3    H171564   6.049   6.854   5.782  1.7645 -1.3861  0.9843
16691TIP3    H271565   5.964   6.828   5.659  0.4721  2.3700  0.9591
16692TIP3   OH271566   6.745   4.628  15.059  0.8767 -0.1456  0.3201
16692TIP3    H171567   6.791   4.549  15.089 -0.0345 -0.3357  1.2874
16692TIP3    H271568   6.743   4.685  15.136  2.6581  1.4075 -0.7204
16693TIP3   OH271569   6.642   6.551   5.730 -0.0927  0.2737 -0.1245
16693TIP3    H171570   6.619   6.529   5.821  4.3846 -1.2649  0.9154
16693TIP3    H271571   6.730   6.589   5.737 -0.6630  2.6854 -3.6809
16694TIP3   OH271572   3.767   2.260   3.880  0.5443 -0.5906  0.1703
16694TIP3    H171573   3.825   2.300   3.945  0.4738  0.4131 -0.3696
16694TIP3    H271574   3.827   2.224   3.814  0.5822 -0.7725  0.3000
16695TIP3   OH271575   4.525   1.528   3.838  0.5345 -0.2544  0.1836
16695TIP3    H171576   4.436   1.496   3.855  0.0284  0.0366 -1.7803
16695TIP3    H271577   4.535   1.601   3.899 -0.2673 -0.7644  0.9703
16696TIP3   OH271578   5.689   1.432  11.073 -0.1287 -0.9258 -0.3990
16696TIP3    H171579   5.644   1.384  11.003 -1.2995  1.4941 -1.4283
16696TIP3    H271580   5.725   1.510  11.029  1.4266 -0.6506  1.2363
16697TIP3   OH271581   0.086   3.544  17.204  0.3669  0.3454  0.3315
16697TIP3    H171582   0.028   3.488  17.256  1.8452 -2.3748 -0.7261
16697TIP3    H271583   0.093   3.625  17.255 -1.5295 -0.5759  2.2149
16698TIP3   OH271584   3.048   3.408  14.585 -0.3096  0.4216  0.1771
16698TIP3    H171585   3.009   3.320  14.588  0.0213  0.3022  2.2412
16698TIP3    H271586   2.975   3.467  14.606 -0.2517  0.5377  0.0500
16699TIP3   OH271587   0.899   0.413   6.273  0.5379 -0.1584 -0.1276
16699TIP3    H171588   0.978   0.463   6.293  0.3555 -0.1857  0.7002
16699TIP3    H271589   0.919   0.323   6.298  0.4857 -0.2972 -0.5778
16700TIP3   OH271590   3.805   4.171  15.879 -0.3128 -0.4858  0.6689
16700TIP3    H171591   3.756   4.089  15.883 -0.5065 -0.3838  0.4326
16700TIP3    H271592   3.801   4.205  15.968 -0.1262 -0.7937  0.7970
16701TIP3   OH271593   0.888   3.584  16.927 -0.0734 -0.0635  0.6692
16701TIP3    H171594   0.913   3.581  16.834  0.3335 -0.7861  0.7931
16701TIP3    H271595   0.972   3.582  16.974 -0.3112 -1.8671  1.0845
16702TIP3   OH271596   3.850   1.362  11.999  0.5819 -0.2749  0.0292
16702TIP3    H171597   3.918   1.337  11.936  0.2322 -0.2908 -0.3499
16702TIP3    H271598   3.825   1.280  12.041  0.7115 -0.2889  0.0773
16703TIP3   OH271599   3.863   0.777  12.457 -0.6397  0.2588 -0.1564
16703TIP3    H171600   3.950   0.810  12.432 -0.0937 -0.7295  0.3758
16703TIP3    H271601   3.859   0.792  12.552 -0.1724 -1.6029  0.1913
16704TIP3   OH271602   2.165   1.431   5.822  0.7996 -0.3399  0.2537
16704TIP3    H171603   2.156   1.526   5.814  1.2321 -0.2211  1.0724
16704TIP3    H271604   2.138   1.412   5.911  0.8193 -0.9771  0.1260
16705TIP3   OH271605   4.282   2.007   2.898  0.2391 -0.2739  0.0846
16705TIP3    H171606   4.313   2.021   2.987  0.3199 -0.7471  0.1349
16705TIP3    H271607   4.208   2.067   2.888  0.8733  0.5319  0.1200
16706TIP3   OH271608   1.274   3.431  14.942  0.4226 -0.1631  0.2973
16706TIP3    H171609   1.364   3.403  14.958  0.8575  1.3811  0.7191
16706TIP3    H271610   1.269   3.519  14.981 -1.4709 -0.5048  0.9158
16707TIP3   OH271611   5.066   5.093   1.371 -0.4911 -0.1813  0.0917
16707TIP3    H171612   4.999   5.047   1.422 -0.3826  1.1391  1.5177
16707TIP3    H271613   5.023   5.174   1.344 -0.7258 -1.0904 -2.4890
16708TIP3   OH271614   0.652   4.725   3.675 -0.4243 -0.1141  0.3165
16708TIP3    H171615   0.639   4.654   3.612 -0.8202  0.8113 -0.6791
16708TIP3    H271616   0.747   4.729   3.687 -0.0158  1.5076 -2.4678
16709TIP3   OH271617   1.856   1.725   4.356  0.2727 -0.0161 -0.5280
16709TIP3    H171618   1.813   1.677   4.428 -0.6076  0.6986 -0.5672
16709TIP3    H271619   1.853   1.664   4.282  1.5184 -0.9088  0.1124
16710TIP3   OH271620   5.024   5.234   2.152  0.4988  0.1260  0.2344
16710TIP3    H171621   4.953   5.280   2.108  1.0875 -0.4665 -1.4521
16710TIP3    H271622   4.980   5.170   2.209 -0.3289  0.0053 -0.5146
16711TIP3   OH271623   0.826   6.550   3.287 -0.3495 -0.0890 -0.1259
16711TIP3    H171624   0.858   6.640   3.286 -0.4306 -0.0701 -1.0668
16711TIP3    H271625   0.869   6.511   3.363  0.6992  0.3734 -0.4703
16712TIP3   OH271626   5.244   5.788   5.071  0.0754 -0.7378  0.5535
16712TIP3    H171627   5.197   5.850   5.127 -0.9493 -2.0659  1.2415
16712TIP3    H271628   5.216   5.702   5.103 -1.0193 -1.5876 -2.3641
16713TIP3   OH271629   4.575   1.688  16.246  0.0987 -0.5243 -0.4278
16713TIP3    H171630   4.502   1.747  16.267  0.9786  1.5079 -2.5578
16713TIP3    H271631   4.645   1.714  16.306 -0.0644 -0.5789 -0.2141
16714TIP3   OH271632   6.125   0.257  14.324 -0.6279  0.7411 -0.3856
16714TIP3    H171633   6.163   0.285  14.407 -0.2735  0.3431 -0.4101
16714TIP3    H271634   6.183   0.188  14.293 -1.4813 -0.0295 -0.3191
16715TIP3   OH271635   2.618   2.397  13.717  0.1237 -0.1941  0.5025
16715TIP3    H171636   2.696   2.439  13.755 -0.4054 -0.6258  2.1763
16715TIP3    H271637   2.650   2.313  13.686  0.4240 -0.1902  0.7842
16716TIP3   OH271638   3.694   4.415  10.658  0.1604 -0.1175  0.3691
16716TIP3    H171639   3.634   4.395  10.586  0.6288 -1.0840  0.2226
16716TIP3    H271640   3.742   4.492  10.628  0.4450 -0.5893 -0.4297
16717TIP3   OH271641   0.373   5.966  13.954  0.4421  0.5058  0.0244
16717TIP3    H171642   0.296   5.952  13.899 -0.2579 -3.0092  1.6195
16717TIP3    H271643   0.448   5.952  13.896 -0.1675  0.9999 -0.8974
16718TIP3   OH271644   1.142   0.663  15.275  0.5112 -0.5235  0.0228
16718TIP3    H171645   1.155   0.757  15.287 -0.2957 -0.3439 -0.4640
16718TIP3    H271646   1.057   0.645  15.315 -0.4592 -0.5957 -1.9662
16719TIP3   OH271647   6.605   5.207  11.458 -0.2052 -0.1185  0.1408
16719TIP3    H171648   6.513   5.226  11.443 -0.9331 -2.0463  1.6939
16719TIP3    H271649   6.629   5.148  11.386 -1.1987 -2.2925  1.4834
16720TIP3   OH271650   1.769   5.377   2.159 -0.0248  0.3446 -0.0884
16720TIP3    H171651   1.734   5.305   2.105  1.8783 -0.3141 -0.5265
16720TIP3    H271652   1.740   5.356   2.248 -0.2069 -0.5108 -0.3389
16721TIP3   OH271653   1.090   1.473   2.906  0.1077 -0.1235 -0.5199
16721TIP3    H171654   1.173   1.505   2.940 -0.0074  0.1555 -0.5012
16721TIP3    H271655   1.114   1.421   2.829  0.2676  0.2958 -0.7568
16722TIP3   OH271656   0.835   2.712  14.584 -0.1558  0.5723 -0.0655
16722TIP3    H171657   0.768   2.769  14.546 -0.1818  0.8519  0.3883
16722TIP3    H271658   0.877   2.766  14.650 -0.6580 -0.1598  0.8802
16723TIP3   OH271659   4.311   6.801  16.520  0.1128  0.2908  0.5468
16723TIP3    H171660   4.378   6.751  16.566  1.0706  2.3112  1.4615
16723TIP3    H271661   4.233   6.792  16.574  0.1760 -0.4684  0.5183
16724TIP3   OH271662   4.627   5.712   4.482 -0.4026 -0.3179 -0.6783
16724TIP3    H171663   4.660   5.631   4.519 -0.0416  0.4096  0.6502
16724TIP3    H271664   4.699   5.774   4.492 -0.1118 -0.1932 -3.0693
16725TIP3   OH271665   0.928   2.698  13.842 -0.0980  0.1174  0.3011
16725TIP3    H171666   0.889   2.783  13.822 -0.0205 -0.1815 -1.2064
16725TIP3    H271667   0.946   2.702  13.936 -3.9705  0.2028  1.2318
16726TIP3   OH271668   2.980   1.423  15.430  0.0236 -0.2015 -0.5044
16726TIP3    H171669   3.041   1.431  15.504  0.7817  0.1770 -1.1545
16726TIP3    H271670   2.960   1.330  15.426 -1.0214 -0.0864  0.9407
16727TIP3   OH271671   4.324   6.419  11.318 -0.2584 -0.0140  0.4376
16727TIP3    H171672   4.260   6.365  11.363 -1.5441  0.6489 -0.5140
16727TIP3    H271673   4.399   6.362  11.304 -1.8308 -1.8225 -1.1917
16728TIP3   OH271674   6.759   0.246   1.989 -0.0212 -0.3162  0.5129
16728TIP3    H171675   6.759   0.157   2.023  0.8887  0.1798  1.8687
16728TIP3    H271676   6.815   0.295   2.048  0.2576  0.9700 -0.7529
16729TIP3   OH271677   1.985   1.530  14.555 -0.2798  0.1681  0.1257
16729TIP3    H171678   2.058   1.545  14.495 -1.9081  0.6818 -1.8544
16729TIP3    H271679   1.952   1.443  14.531 -0.9724  0.3926  0.2495
16730TIP3   OH271680   3.601   1.890   5.609 -0.3227  0.2031 -0.2785
16730TIP3    H171681   3.574   1.799   5.607 -0.5745  0.2177  1.0611
16730TIP3    H271682   3.614   1.914   5.518 -2.4923 -0.5110 -0.8485
16731TIP3   OH271683   1.788   1.363  14.898 -0.2321  0.2401 -0.1719
16731TIP3    H171684   1.702   1.384  14.860 -0.3241  0.0278 -0.0828
16731TIP3    H271685   1.813   1.442  14.945  0.7507  1.2349 -2.2354
16732TIP3   OH271686   1.671   2.841   5.937 -0.3561 -0.3481  0.7656
16732TIP3    H171687   1.590   2.886   5.911 -0.1119 -0.3667 -0.0398
16732TIP3    H271688   1.678   2.858   6.031  0.1146  1.9792  0.3899
16733TIP3   OH271689   1.191   3.864   5.656 -0.4079 -0.6111  0.1971
16733TIP3    H171690   1.285   3.846   5.657 -0.3285 -0.2281 -0.2843
16733TIP3    H271691   1.171   3.887   5.746 -0.0371 -0.6833  0.3026
16734TIP3   OH271692   4.359   2.110   3.138 -0.6086 -0.2553  0.4211
16734TIP3    H171693   4.396   2.181   3.190 -2.0623  2.1666 -1.5675
16734TIP3    H271694   4.283   2.080   3.189 -0.0141 -0.3489  1.2625
16735TIP3   OH271695   2.166   5.564  15.945  1.1189 -0.1230  0.0118
16735TIP3    H171696   2.182   5.550  15.851  1.7078  0.0575  0.0788
16735TIP3    H271697   2.175   5.659  15.956 -0.6138  0.0688 -0.0413
16736TIP3   OH271698   3.886   6.248   0.029 -0.3898  0.7169  0.0615
16736TIP3    H171699   3.914   6.157   0.033  0.7726  1.0861  0.5377
16736TIP3    H271700   3.868   6.264  -0.064 -2.7632 -0.5996  0.2089
16737TIP3   OH271701   0.548   0.392   1.451  0.7399 -0.5714 -0.1424
16737TIP3    H171702   0.470   0.416   1.500  1.0342 -0.3350  0.2189
16737TIP3    H271703   0.545   0.447   1.373  0.8638 -0.1131  0.1712
16738TIP3   OH271704   5.450   3.197   0.942  0.8041 -0.3009  0.4737
16738TIP3    H171705   5.410   3.260   0.882  0.3886 -1.0564 -0.0659
16738TIP3    H271706   5.406   3.114   0.921  1.4599 -0.7982  1.0514
16739TIP3   OH271707   2.185   0.560   6.306  0.2802  0.2035 -0.1565
16739TIP3    H171708   2.183   0.594   6.395  1.5659 -0.9261  0.3417
16739TIP3    H271709   2.155   0.633   6.252  1.0498  1.4717  1.0392
16740TIP3   OH271710   4.926   1.862   4.061 -0.1578 -0.0600  0.2632
16740TIP3    H171711   4.956   1.896   4.145  0.3564 -0.2370  0.1580
16740TIP3    H271712   4.972   1.778   4.052 -0.6516 -0.3093  0.0688
16741TIP3   OH271713   5.547   6.326  15.184  0.0345  0.5202  0.4057
16741TIP3    H171714   5.480   6.370  15.235 -0.9194  1.7863 -1.7648
16741TIP3    H271715   5.629   6.345  15.229 -1.0132 -1.5927  3.4809
16742TIP3   OH271716   3.554   0.413  11.853 -0.4704 -0.0698  0.4835
16742TIP3    H171717   3.520   0.473  11.920 -2.9277  2.4849 -2.7175
16742TIP3    H271718   3.625   0.462  11.811 -1.0636 -0.2586 -0.7811
16743TIP3   OH271719   0.578   2.334   2.319  0.5618  0.0752 -0.0585
16743TIP3    H171720   0.536   2.395   2.379  0.6672 -1.0563  1.2002
16743TIP3    H271721   0.509   2.309   2.258 -0.0620 -0.2307  0.7598
16744TIP3   OH271722   3.886   0.378   4.294  0.6953 -0.5015  0.5774
16744TIP3    H171723   3.804   0.347   4.331  1.2839 -0.6390  1.8383
16744TIP3    H271724   3.940   0.401   4.371  1.2566  1.0935 -0.2497
16745TIP3   OH271725   3.118   0.671  10.549  0.0224 -0.4879 -0.0526
16745TIP3    H171726   3.181   0.621  10.601  0.3784 -0.1972 -0.2022
16745TIP3    H271727   3.167   0.696  10.471 -0.5951 -1.1799 -0.6726
16746TIP3   OH271728   1.435   4.417  12.038  0.4192  0.5233  0.3680
16746TIP3    H171729   1.520   4.399  12.078  0.0512  0.0680  0.9693
16746TIP3    H271730   1.378   4.441  12.112 -0.1342  0.2081  0.0519
16747TIP3   OH271731   5.513   1.847   6.365  0.5240  0.1218  0.0479
16747TIP3    H171732   5.427   1.805   6.368  0.2042  0.6342 -1.1531
16747TIP3    H271733   5.544   1.847   6.456  0.5883 -2.7750  0.1096
16748TIP3   OH271734   6.191   6.636  11.401 -0.1567  0.2974  0.9164
16748TIP3    H171735   6.247   6.573  11.445 -1.4363 -1.5014  0.0824
16748TIP3    H271736   6.157   6.589  11.325 -0.0183  2.4698 -0.5834
16749TIP3   OH271737   3.690   3.979  13.204  0.1153 -0.4144  0.4564
16749TIP3    H171738   3.658   3.999  13.292  0.9811 -0.4865  0.7987
16749TIP3    H271739   3.769   4.033  13.194  0.8101 -1.4257  0.2683
16750TIP3   OH271740   5.494   2.003   0.898 -0.1141  0.1564 -0.6570
16750TIP3    H171741   5.502   2.068   0.968 -0.4106 -0.3260 -0.1710
16750TIP3    H271742   5.529   1.922   0.935  1.9840  0.4367 -1.8661
16751TIP3   OH271743   1.811   1.879   1.716 -0.0494 -0.5204  0.6119
16751TIP3    H171744   1.797   1.785   1.705  0.4327 -0.5517  0.2049
16751TIP3    H271745   1.727   1.913   1.747 -1.2975 -0.5860 -2.3962
16752TIP3   OH271746   0.831   3.761   2.846  0.1452 -0.1826 -0.3151
16752TIP3    H171747   0.781   3.702   2.902 -0.2274 -0.2167 -0.6803
16752TIP3    H271748   0.766   3.822   2.812  0.5623  0.6195  0.2762
16753TIP3   OH271749   5.090   1.635   4.063 -0.0845 -0.6334  0.0442
16753TIP3    H171750   5.175   1.649   4.104 -1.0424 -0.1955  1.9992
16753TIP3    H271751   5.076   1.541   4.067  0.0533 -0.6435  0.2946
16754TIP3   OH271752   2.848   0.370  13.308 -0.5748  0.3717  0.4745
16754TIP3    H171753   2.863   0.275  13.304  0.1878  0.5114 -3.2273
16754TIP3    H271754   2.932   0.408  13.283 -1.4799  1.9504 -0.2407
16755TIP3   OH271755   6.781   3.029  15.610 -0.3932  0.0966 -0.4301
16755TIP3    H171756   6.693   2.992  15.612 -0.4277  0.1822 -0.3425
16755TIP3    H271757   6.777   3.098  15.544 -0.2468 -0.2574 -0.8113
16756TIP3   OH271758   2.152   4.289   4.038  0.0189 -0.4748 -0.1568
16756TIP3    H171759   2.226   4.229   4.046  0.1629 -0.4048 -0.9306
16756TIP3    H271760   2.187   4.365   3.991 -0.4690 -0.3140 -0.2702
16757TIP3   OH271761   0.882   3.274   4.771 -0.4537  0.0896 -0.4542
16757TIP3    H171762   0.787   3.265   4.763 -0.5052  0.1647  0.0392
16757TIP3    H271763   0.894   3.328   4.849 -0.0801  2.1730 -1.8789
16758TIP3   OH271764   6.635   5.616  15.597 -0.3672  0.5449 -0.0848
16758TIP3    H171765   6.721   5.641  15.562  0.4200  0.3924  1.6618
16758TIP3    H271766   6.593   5.700  15.617  0.3689  0.6146  1.3053
16759TIP3   OH271767   5.852   4.140  16.529 -0.8650 -0.7407 -0.3295
16759TIP3    H171768   5.882   4.050  16.542  0.9606 -0.2468 -0.8703
16759TIP3    H271769   5.773   4.146  16.583 -0.7996 -2.5393  0.0479
16760TIP3   OH271770   2.834   6.417  14.040  0.3258  0.4539  0.2201
16760TIP3    H171771   2.774   6.471  14.091 -1.9004 -0.9658 -0.7569
16760TIP3    H271772   2.875   6.360  14.105 -0.3344  0.5847  0.7621
16761TIP3   OH271773   0.019   1.278  11.250  0.3491 -0.2644  0.1440
16761TIP3    H171774  -0.000   1.217  11.179  0.7126 -2.1260  1.5617
16761TIP3    H271775  -0.066   1.312  11.276  0.0463 -0.7439 -0.1993
16762TIP3   OH271776   1.898   1.339   4.457 -0.2046  0.2373 -0.5085
16762TIP3    H171777   1.909   1.384   4.374 -1.3462 -0.0890 -0.8546
16762TIP3    H271778   1.808   1.306   4.455 -0.5939  1.0565  1.2566
16763TIP3   OH271779   3.305   5.780   0.342 -0.0715  0.0889  0.1312
16763TIP3    H171780   3.253   5.812   0.416  0.8993  0.3499  0.7249
16763TIP3    H271781   3.376   5.844   0.334  0.6132 -0.6874 -0.1313
16764TIP3   OH271782   2.677   5.342   3.623  0.2457 -0.3837  0.0278
16764TIP3    H171783   2.673   5.296   3.539  1.1776 -0.0620 -0.2080
16764TIP3    H271784   2.650   5.431   3.604 -0.0097 -0.4292  0.1696
16765TIP3   OH271785   4.722   2.676  16.334  0.3160  0.1374  0.2916
16765TIP3    H171786   4.777   2.695  16.411  0.0958 -0.4558  0.6026
16765TIP3    H271787   4.659   2.611  16.365  1.1896 -1.2867 -0.7711
16766TIP3   OH271788   0.018   0.400   4.244  0.8163 -0.3793  0.3125
16766TIP3    H171789  -0.014   0.458   4.313 -0.3285 -0.8904  0.2481
16766TIP3    H271790  -0.038   0.419   4.169  2.0439  0.1665 -0.4958
16767TIP3   OH271791   6.777   0.760  16.290 -0.0723  0.3633  0.3311
16767TIP3    H171792   6.815   0.788  16.373  1.8758 -0.5571 -0.1864
16767TIP3    H271793   6.747   0.841  16.249  1.0392  1.1225  0.9536
16768TIP3   OH271794   3.595   6.094  11.025  0.2146  0.1597  0.4498
16768TIP3    H171795   3.623   6.126  11.111 -1.8072 -0.6479  1.4720
16768TIP3    H271796   3.648   6.016  11.009  3.1651  2.2231 -0.7744
16769TIP3   OH271797   3.933   0.428   6.173 -0.3436  0.3936  0.3179
16769TIP3    H171798   3.955   0.360   6.110 -1.5420 -0.7599  1.1025
16769TIP3    H271799   3.972   0.508   6.136 -1.6944 -0.0560 -2.3352
16770TIP3   OH271800   3.033   1.983  12.460 -0.0300 -0.4632 -0.3017
16770TIP3    H171801   3.020   1.888  12.457 -1.2211 -0.3462  0.3567
16770TIP3    H271802   3.075   1.999  12.544  1.9039 -0.5635 -1.2128
16771TIP3   OH271803   0.330   0.806   1.234 -0.1244 -0.2665 -0.3755
16771TIP3    H171804   0.239   0.827   1.254 -0.0473  1.6320 -1.7339
16771TIP3    H271805   0.328   0.767   1.147  0.2057 -2.0294  0.3705
16772TIP3   OH271806   4.140   1.143  15.689  0.1532  1.0060 -0.2400
16772TIP3    H171807   4.053   1.175  15.713 -0.0993  0.6995 -0.7230
16772TIP3    H271808   4.126   1.096  15.607  0.4637 -0.5055  0.5340
16773TIP3   OH271809   6.208   0.516   3.371 -0.3624  0.1395  0.4883
16773TIP3    H171810   6.207   0.604   3.336 -2.5897 -0.4000 -1.0151
16773TIP3    H271811   6.120   0.503   3.406  0.3757 -0.9985  2.0533
16774TIP3   OH271812   2.492   4.251  14.244  0.7220  0.8335 -0.0215
16774TIP3    H171813   2.585   4.230  14.258  1.0383  2.3229  0.3046
16774TIP3    H271814   2.452   4.241  14.330 -0.1102 -2.6348 -0.6406
16775TIP3   OH271815   6.007   5.459   4.777  0.1565  0.2774  0.1889
16775TIP3    H171816   5.929   5.409   4.752  0.1545 -0.8191  2.1884
16775TIP3    H271817   5.981   5.550   4.767 -0.4162 -0.0443 -1.8730
16776TIP3   OH271818   0.769   3.283  14.474 -0.1034  0.2369 -0.3286
16776TIP3    H171819   0.798   3.239  14.395  1.1237  0.6290 -0.1206
16776TIP3    H271820   0.807   3.233  14.546 -1.5245 -0.3430  0.0487
16777TIP3   OH271821   1.293   1.617   0.799  0.1413  0.8622 -0.6422
16777TIP3    H171822   1.204   1.616   0.836  0.6012  3.9067  0.8737
16777TIP3    H271823   1.321   1.708   0.808  3.2282  0.1115 -1.6518
16778TIP3   OH271824   4.723   3.747  13.735  0.6926  0.3822  0.1509
16778TIP3    H171825   4.803   3.799  13.733 -0.5616  2.4169 -0.2340
16778TIP3    H271826   4.710   3.719  13.645 -0.6797  2.8483 -0.5007
16779TIP3   OH271827   5.698   5.666  14.743  0.2676 -0.2328  0.3448
16779TIP3    H171828   5.708   5.759  14.764 -0.3629 -0.4381  1.6451
16779TIP3    H271829   5.670   5.625  14.825  1.1386 -1.6819 -0.0313
16780TIP3   OH271830   6.674   6.770   0.767 -0.0420 -0.0437 -0.1622
16780TIP3    H171831   6.626   6.731   0.840 -1.6289  0.3913 -0.9295
16780TIP3    H271832   6.671   6.704   0.698  1.5020 -0.4765  0.1327
16781TIP3   OH271833   1.547   6.722   0.266  0.0294  0.3696  0.3380
16781TIP3    H171834   1.546   6.813   0.295  0.1152 -0.0005  1.5659
16781TIP3    H271835   1.623   6.716   0.208  0.0730  1.0593  0.3164
16782TIP3   OH271836   6.350   3.817  14.228 -0.2277  0.0913 -0.4337
16782TIP3    H171837   6.259   3.843  14.214 -1.0550 -1.4475  1.5183
16782TIP3    H271838   6.401   3.876  14.172 -2.5037 -0.4180 -3.2626
16783TIP3   OH271839   6.589   2.629   1.977  0.0924 -0.1519 -0.8345
16783TIP3    H171840   6.543   2.553   1.942 -2.0053  1.6155 -2.1950
16783TIP3    H271841   6.576   2.623   2.071 -1.3546 -0.7388 -1.0337
16784TIP3   OH271842   4.292   6.408  14.520 -0.6340 -0.0455 -0.1356
16784TIP3    H171843   4.271   6.497  14.493  1.3146  0.1829 -1.0601
16784TIP3    H271844   4.254   6.399  14.608  1.1241  2.5173  0.9870
16785TIP3   OH271845   6.386   6.678   4.424 -0.3026 -0.0581 -0.0232
16785TIP3    H171846   6.349   6.760   4.393 -0.2581  0.2081  0.6172
16785TIP3    H271847   6.316   6.639   4.478 -0.2310 -0.3129 -0.1129
16786TIP3   OH271848   4.935   1.415   3.015 -0.2485  0.6195 -0.2522
16786TIP3    H171849   4.951   1.506   2.990 -1.2931  1.0916  0.7117
16786TIP3    H271850   4.969   1.409   3.104 -0.0473  0.0084 -0.3659
16787TIP3   OH271851   3.407   3.741  14.569 -0.1398 -0.6700 -0.3897
16787TIP3    H171852   3.435   3.666  14.516 -1.3828 -0.1952 -1.7670
16787TIP3    H271853   3.312   3.735  14.571 -0.1781 -0.1003  0.9949
16788TIP3   OH271854   3.251   1.714   2.330 -0.0360 -0.0921 -0.0640
16788TIP3    H171855   3.262   1.621   2.312 -0.3140 -0.0032 -0.7290
16788TIP3    H271856   3.312   1.758   2.270  1.2956  0.1006  1.3746
16789TIP3   OH271857   1.898   1.011   3.675  0.4193  0.0546 -0.3421
16789TIP3    H171858   1.867   0.935   3.624  0.8391 -1.3789  1.4407
16789TIP3    H271859   1.844   1.010   3.754  2.5710 -0.3615  1.1950
16790TIP3   OH271860   5.985   2.831  16.053  0.9401 -0.2286  0.8418
16790TIP3    H171861   6.020   2.881  15.980 -1.2083 -2.4973 -1.9943
16790TIP3    H271862   5.964   2.896  16.120  0.1850  2.4158 -1.7801
16791TIP3   OH271863   2.170   0.566  12.993  0.2310  0.0921 -0.3988
16791TIP3    H171864   2.160   0.532  12.904  0.7280  1.5983 -1.0745
16791TIP3    H271865   2.089   0.614  13.009 -0.6227 -1.6295  0.6835
16792TIP3   OH271866   0.388   0.881   4.642 -0.3658  0.7196 -0.3137
16792TIP3    H171867   0.333   0.919   4.711 -1.7815 -1.3001 -0.2460
16792TIP3    H271868   0.327   0.855   4.574  0.4552 -1.4944 -0.3007
16793TIP3   OH271869   0.510   0.738   0.143  0.1608  0.0388  0.2953
16793TIP3    H171870   0.573   0.696   0.201  0.2001  0.0998  0.2962
16793TIP3    H271871   0.425   0.721   0.184  0.0617 -1.0740 -0.3175
16794TIP3   OH271872   3.899   2.441   5.022 -0.2526 -0.8114 -0.4402
16794TIP3    H171873   3.872   2.354   4.993  0.1439 -0.8932 -0.5785
16794TIP3    H271874   3.955   2.473   4.951  1.4012 -1.3514  0.5635
16795TIP3   OH271875   5.237   6.152   5.050  0.7852  0.4417  0.1492
16795TIP3    H171876   5.251   6.198   4.967  0.0388 -0.3071 -0.3952
16795TIP3    H271877   5.321   6.159   5.095  1.5605 -0.1449 -1.1638
16796TIP3   OH271878   0.335   2.142   3.973 -0.3590  0.4104 -0.3607
16796TIP3    H171879   0.291   2.210   3.922 -0.5396  1.8366  1.6086
16796TIP3    H271880   0.349   2.181   4.059 -0.9183 -2.2438  1.0224
16797TIP3   OH271881   4.808   4.031  15.107 -0.1825 -0.2526 -0.4250
16797TIP3    H171882   4.881   3.979  15.141 -1.8323 -0.6541  2.8986
16797TIP3    H271883   4.736   3.969  15.097 -0.8335  0.5859 -1.1547
16798TIP3   OH271884   0.143   4.599  16.895  0.0476  0.4804  0.2933
16798TIP3    H171885   0.226   4.621  16.937  0.0714 -0.4237  0.7503
16798TIP3    H271886   0.168   4.566  16.809  0.1301  0.5917  0.2741
16799TIP3   OH271887   5.015   0.319  13.428 -0.0569 -0.2297 -0.4153
16799TIP3    H171888   4.967   0.284  13.352 -0.4662 -1.0953  0.2290
16799TIP3    H271889   5.106   0.295  13.411  0.0347  0.6189 -1.2020
16800TIP3   OH271890   5.186   3.029   4.830  0.1935 -0.0928  0.1377
16800TIP3    H171891   5.162   2.956   4.886 -1.2313  0.5190  0.3761
16800TIP3    H271892   5.190   3.104   4.889 -0.9711  0.4911 -0.4818
16801TIP3   OH271893   0.358   2.298   0.920 -0.0800 -1.1745 -0.0857
16801TIP3    H171894   0.412   2.361   0.968 -0.0295 -2.3771  1.5270
16801TIP3    H271895   0.416   2.223   0.907 -0.0747 -0.8576 -2.1646
16802TIP3   OH271896   5.183   4.443  16.307  0.6042 -0.7447  0.4876
16802TIP3    H171897   5.152   4.454  16.217 -1.0811 -1.5174  0.9388
16802TIP3    H271898   5.259   4.501  16.313  0.0052  0.2768 -1.0668
16803TIP3   OH271899   2.150   2.559  14.944  0.1265  0.6260  0.8806
16803TIP3    H171900   2.109   2.477  14.972  0.9974 -0.0968  0.1020
16803TIP3    H271901   2.077   2.617  14.924 -0.5332 -0.5328 -0.2031
16804TIP3   OH271902   6.794   1.133   2.766  0.0011  0.6176 -0.1804
16804TIP3    H171903   6.777   1.046   2.801  0.8506 -0.1811 -1.6501
16804TIP3    H271904   6.873   1.163   2.811 -1.1359  1.3127  1.4360
16805TIP3   OH271905   6.139   2.908  12.643 -0.0730 -0.1626  0.3804
16805TIP3    H171906   6.217   2.913  12.588  0.6915 -0.0755  1.4393
16805TIP3    H271907   6.111   2.816  12.637  1.2270 -0.6695  1.4400
16806TIP3   OH271908   2.237   6.447  17.033 -0.1604 -0.8649 -0.5717
16806TIP3    H171909   2.232   6.432  16.939  3.3594 -1.0223 -0.8364
16806TIP3    H271910   2.181   6.379  17.071  0.0914 -2.1848 -2.4559
16807TIP3   OH271911   4.255   6.232  11.593 -0.4670  0.2885  0.1898
16807TIP3    H171912   4.304   6.194  11.521  0.9497 -0.8487  1.7065
16807TIP3    H271913   4.309   6.305  11.623 -1.3038  1.0919 -0.1911
16808TIP3   OH271914   4.728   2.090   0.904  0.5541  0.1895 -0.4503
16808TIP3    H171915   4.706   2.113   0.814 -0.6481  0.0988 -0.1897
16808TIP3    H271916   4.755   1.998   0.899  1.8251  0.5629 -0.9137
16809TIP3   OH271917   2.946   0.116  10.951 -0.4591  0.1021 -0.6608
16809TIP3    H171918   3.021   0.139  10.897  1.1614 -1.3349  0.8564
16809TIP3    H271919   2.887   0.070  10.892  1.4949 -1.8733 -1.1926
16810TIP3   OH271920   0.938   2.755   1.857  0.2978 -0.5060  0.2095
16810TIP3    H171921   0.965   2.665   1.872  0.0699 -0.8574 -1.3056
16810TIP3    H271922   0.846   2.748   1.829  0.3775  0.1665 -0.2337
16811TIP3   OH271923   3.060   0.099  15.790 -0.1257 -0.2066  0.2780
16811TIP3    H171924   3.104   0.184  15.792 -0.7737  0.1291  0.7445
16811TIP3    H271925   3.104   0.048  15.857 -0.5445  0.1850  0.8611
16812TIP3   OH271926   4.598   4.589   5.648  0.1848  0.0946  0.5474
16812TIP3    H171927   4.671   4.556   5.702  1.1350 -1.0268 -1.3271
16812TIP3    H271928   4.632   4.589   5.559 -0.2610  4.8340  0.1124
16813TIP3   OH271929   2.178   4.646  11.095 -0.2959  0.5124 -0.4828
16813TIP3    H171930   2.090   4.635  11.057  0.0994 -0.1832 -1.2197
16813TIP3    H271931   2.234   4.590  11.042  0.4947  0.4542  0.3940
16814TIP3   OH271932   2.615   0.391  17.136 -0.5207 -0.4518  0.1409
16814TIP3    H171933   2.589   0.456  17.201 -1.0246  0.3133 -0.8072
16814TIP3    H271934   2.562   0.410  17.059 -0.0476 -1.4367 -0.4585
16815TIP3   OH271935   1.008   0.927   5.481  0.1327 -0.0701 -0.3918
16815TIP3    H171936   0.964   0.984   5.418 -0.3836  0.4187  0.4010
16815TIP3    H271937   1.098   0.960   5.484 -0.4049  1.4008  0.8274
16816TIP3   OH271938   5.793   6.519   0.535  0.4098 -0.2465  0.0146
16816TIP3    H171939   5.719   6.466   0.565 -0.8414  1.2363 -0.2888
16816TIP3    H271940   5.824   6.475   0.456 -0.9663 -0.2472 -0.5571
16817TIP3   OH271941   3.807   3.593   0.016  0.5620 -0.1580  0.0498
16817TIP3    H171942   3.820   3.625   0.106 -0.5554  0.1289  0.1227
16817TIP3    H271943   3.752   3.659  -0.026 -0.7253 -1.3096 -0.1840
16818TIP3   OH271944   6.315   6.151  14.857  0.0351 -0.6681  0.4923
16818TIP3    H171945   6.340   6.080  14.915 -0.6171 -0.7638  0.6625
16818TIP3    H271946   6.332   6.116  14.769 -2.4026 -1.9240  0.4484
16819TIP3   OH271947   4.829   0.515  11.432  0.4667 -0.4810  0.1781
16819TIP3    H171948   4.822   0.474  11.345 -1.6072 -2.0066  0.9756
16819TIP3    H271949   4.755   0.479  11.481  0.8194  1.3431  2.1940
16820TIP3   OH271950   3.340   0.689  11.410 -0.5722 -0.4692 -0.1306
16820TIP3    H171951   3.258   0.739  11.407  0.3060  0.9941 -0.9905
16820TIP3    H271952   3.407   0.753  11.435  0.2825 -1.7212  0.9768
16821TIP3   OH271953   5.117   3.672   1.116 -0.8130 -0.1635 -0.0779
16821TIP3    H171954   5.187   3.665   1.181 -0.0859 -0.6196 -0.8935
16821TIP3    H271955   5.082   3.760   1.130 -0.9146 -0.3746  1.1624
16822TIP3   OH271956   5.967   5.684  15.518 -0.6481  0.5792  0.5211
16822TIP3    H171957   5.993   5.643  15.601  0.7771 -0.2035 -0.2702
16822TIP3    H271958   6.031   5.753  15.504 -1.7027  1.6316  0.7204
16823TIP3   OH271959   4.845   4.749   6.659 -0.2282  0.5880 -0.1341
16823TIP3    H171960   4.811   4.756   6.570 -0.0397 -1.5611 -0.4324
16823TIP3    H271961   4.936   4.779   6.652 -0.5076  1.3594 -0.4572
16824TIP3   OH271962   1.828   6.185  10.521  0.2723  0.0926  0.4755
16824TIP3    H171963   1.740   6.157  10.497  0.1958  1.0098 -0.3827
16824TIP3    H271964   1.878   6.104  10.528 -0.0355 -0.3311 -1.5213
16825TIP3   OH271965   3.195   5.724  12.291 -0.4072  0.0756 -0.6522
16825TIP3    H171966   3.246   5.713  12.211 -0.4859  0.0367 -0.6971
16825TIP3    H271967   3.191   5.819  12.304  1.6391  0.0464  0.6187
16826TIP3   OH271968   6.673   1.571  17.137  0.2237 -0.0680  0.2882
16826TIP3    H171969   6.655   1.645  17.195  1.8417  0.2353  0.4632
16826TIP3    H271970   6.761   1.587  17.104  0.7228 -2.0050  0.5024
16827TIP3   OH271971   2.128   5.315   0.744 -0.2160 -0.0661 -0.0292
16827TIP3    H171972   2.055   5.376   0.740 -0.8405 -0.8366 -0.9976
16827TIP3    H271973   2.198   5.357   0.694  0.1968  0.8706  1.2653
16828TIP3   OH271974   5.044   6.267  11.363 -0.3353  0.0214 -0.4330
16828TIP3    H171975   5.005   6.192  11.320 -0.1707 -0.4864  0.2898
16828TIP3    H271976   4.991   6.280  11.442  1.0944 -0.8533  0.7082
16829TIP3   OH271977   4.654   4.042   2.960  0.6734 -0.5903 -0.6343
16829TIP3    H171978   4.648   4.131   2.995  3.9277  0.4149 -2.2324
16829TIP3    H271979   4.584   4.037   2.896 -0.8225  0.0546  0.8649
16830TIP3   OH271980   5.322   2.218   2.159  0.0357 -0.1250  0.2610
16830TIP3    H171981   5.379   2.256   2.092  0.4260 -0.1984  0.5436
16830TIP3    H271982   5.256   2.170   2.110  1.6291 -2.1223 -0.0824
16831TIP3   OH271983   5.260   4.591  13.375  0.6286 -0.2842  0.0982
16831TIP3    H171984   5.228   4.673  13.412  0.3531 -0.5419  0.4321
16831TIP3    H271985   5.222   4.588  13.287 -2.0851 -1.6091  1.2027
16832TIP3   OH271986   1.214   6.541  16.312  0.5907  0.0426 -0.7299
16832TIP3    H171987   1.258   6.624  16.329 -0.4578  0.7212 -1.2546
16832TIP3    H271988   1.232   6.523  16.219 -1.4268  1.1054 -1.3949
16833TIP3   OH271989   4.083   1.023   3.885  0.1273  0.5600  0.0660
16833TIP3    H171990   4.173   0.991   3.873 -0.2137  0.1779 -1.8192
16833TIP3    H271991   4.029   0.945   3.891 -0.6305  0.5443 -3.9408
16834TIP3   OH271992   0.157   2.869  12.743 -0.3939 -0.3440  0.6412
16834TIP3    H171993   0.217   2.802  12.710 -0.6818 -0.4538  0.3392
16834TIP3    H271994   0.176   2.946  12.689  0.0109 -0.1435  1.0565
16835TIP3   OH271995   3.612   0.414  17.139  0.6326  0.3554 -0.0379
16835TIP3    H171996   3.545   0.374  17.195  0.6524  0.4565  0.0576
16835TIP3    H271997   3.609   0.362  17.058 -0.4477  1.1416 -0.5267
16836TIP3   OH271998   2.183   3.111  11.132 -0.1505  0.2266  0.2594
16836TIP3    H171999   2.190   3.190  11.187  0.4402 -0.5931  1.4080
16836TIP3    H272000   2.153   3.144  11.047  1.7916  1.9165  0.1433
16837TIP3   OH272001   0.234   1.152  16.599 -0.1814 -0.3778  0.1585
16837TIP3    H172002   0.279   1.227  16.639 -0.2512  0.1613 -0.7376
16837TIP3    H272003   0.153   1.189  16.564 -0.1753 -0.8583 -0.3616
16838TIP3   OH272004   3.726   5.190   1.559  0.0008  0.5937  0.1053
16838TIP3    H172005   3.774   5.181   1.641 -0.2986  0.5674  0.2780
16838TIP3    H272006   3.727   5.103   1.520 -1.2451  0.2148  0.8576
16839TIP3   OH272007   0.820   6.559   5.617 -0.0433  0.1842  0.1041
16839TIP3    H172008   0.801   6.481   5.566 -0.4620 -0.1472  0.7565
16839TIP3    H272009   0.848   6.624   5.552 -0.3814 -0.2846 -0.5189
16840TIP3   OH272010   4.719   2.676  11.709  0.4634  0.6300  0.1063
16840TIP3    H172011   4.726   2.637  11.622 -0.4909  0.1217  0.2519
16840TIP3    H272012   4.775   2.753  11.705  0.6641  0.4431 -0.8627
16841TIP3   OH272013   6.297   2.098  15.719 -0.6065 -0.6583  0.1674
16841TIP3    H172014   6.378   2.096  15.769  0.0207 -3.1933 -0.7939
16841TIP3    H272015   6.319   2.058  15.635 -1.9897  2.0439 -1.6475
16842TIP3   OH272016   2.958   6.203   3.812 -0.6926  0.2254 -0.0448
16842TIP3    H172017   2.921   6.178   3.897 -0.1236 -2.1124 -0.4095
16842TIP3    H272018   2.884   6.240   3.763 -0.6656  3.3354  1.9938
16843TIP3   OH272019   4.229   2.181  14.965 -0.0477 -0.0245 -0.3467
16843TIP3    H172020   4.320   2.171  14.992  0.4266  3.1145 -0.4090
16843TIP3    H272021   4.188   2.097  14.988  2.1834 -0.5298  2.3508
16844TIP3   OH272022   0.163   3.582   0.358 -0.6315  0.6483  0.7591
16844TIP3    H172023   0.183   3.509   0.416 -0.4293  0.2130  0.1449
16844TIP3    H272024   0.071   3.572   0.337 -0.1424 -0.6463 -0.9797
16845TIP3   OH272025   5.452   4.493   4.956  0.7678 -0.0920  0.1529
16845TIP3    H172026   5.407   4.515   4.875  0.1870 -1.9877 -0.0834
16845TIP3    H272027   5.504   4.415   4.935  1.4102 -0.0218  1.3445
16846TIP3   OH272028   6.241   2.856  12.931  0.2275  0.2605 -0.3700
16846TIP3    H172029   6.203   2.919  12.993  1.6041 -0.1902  0.9987
16846TIP3    H272030   6.186   2.863  12.853 -1.2688  1.2236  0.7114
16847TIP3   OH272031   0.180   1.728  14.773  0.0383  0.2088  0.1507
16847TIP3    H172032   0.147   1.668  14.840  1.6678 -0.1250  0.7021
16847TIP3    H272033   0.223   1.798  14.822  0.0564  0.6764 -0.5214
16848TIP3   OH272034   2.638   4.236  15.050 -0.5629 -0.3441  0.3284
16848TIP3    H172035   2.680   4.322  15.044 -0.2451 -0.5888 -1.6802
16848TIP3    H272036   2.556   4.253  15.097 -0.2609  0.9530  0.4345
16849TIP3   OH272037   6.011   1.310   5.845  0.7520  0.3970  0.0943
16849TIP3    H172038   5.917   1.304   5.862  0.5750 -2.1358 -1.3057
16849TIP3    H272039   6.018   1.333   5.752  1.4152 -1.9412 -0.5021
16850TIP3   OH272040   4.172   4.010   1.536 -0.5150  0.6609 -0.5488
16850TIP3    H172041   4.106   3.947   1.507  0.3497 -0.0226 -1.0635
16850TIP3    H272042   4.123   4.092   1.546 -1.1935  0.4981 -2.2307
16851TIP3   OH272043   5.699   6.576   5.786 -0.2297 -0.3462  0.3197
16851TIP3    H172044   5.734   6.582   5.697 -0.3579 -2.2805  0.0893
16851TIP3    H272045   5.772   6.545   5.839 -0.7026 -1.2787  0.4511
16852TIP3   OH272046   4.036   4.245   4.189  0.1611  0.3658 -0.2909
16852TIP3    H172047   4.032   4.191   4.267 -1.5234  1.2083  0.2437
16852TIP3    H272048   3.965   4.214   4.133 -0.0519  1.2023 -0.5113
16853TIP3   OH272049   2.331   3.753  16.765  0.3637 -0.5446 -0.2305
16853TIP3    H172050   2.253   3.748  16.819 -0.1539  0.7326 -0.8211
16853TIP3    H272051   2.301   3.729  16.677  1.0428 -1.8833 -0.1203
16854TIP3   OH272052   5.009   4.666  14.455  0.2816 -0.1594 -0.0380
16854TIP3    H172053   5.092   4.709  14.434  0.3351  0.0510  0.5791
16854TIP3    H272054   5.003   4.595  14.392  1.1476 -0.4493  0.1883
16855TIP3   OH272055   1.764   6.017   0.704  0.3857  0.4888 -0.2689
16855TIP3    H172056   1.685   6.040   0.655  0.5495 -1.5976 -1.6691
16855TIP3    H272057   1.835   6.062   0.659  0.2398  0.5674 -0.4200
16856TIP3   OH272058   0.773   2.596  11.299 -0.3391 -0.0404  0.4893
16856TIP3    H172059   0.690   2.554  11.275  0.6951 -2.5503  1.0085
16856TIP3    H272060   0.747   2.668  11.358 -2.1344 -0.9005  0.8319
16857TIP3   OH272061   4.893   4.827   2.299  0.0391 -0.1662  0.0645
16857TIP3    H172062   4.920   4.769   2.228 -1.4442 -0.6445 -0.1575
16857TIP3    H272063   4.932   4.788   2.378  2.0097  0.5851 -0.4774
16858TIP3   OH272064   1.448   5.005  16.683  0.5320 -0.1772  0.6448
16858TIP3    H172065   1.356   4.993  16.709  0.7142 -2.8845  0.4050
16858TIP3    H272066   1.458   4.946  16.608  2.2960  0.6709  0.1799
16859TIP3   OH272067   6.148   3.007  15.863 -0.2229  0.2091  0.1387
16859TIP3    H172068   6.204   2.947  15.911 -0.8289 -0.8434 -0.4442
16859TIP3    H272069   6.208   3.076  15.833  1.1358 -1.6903 -1.8282
16860TIP3   OH272070   0.168   0.759   0.765 -0.2911 -0.5360 -0.2094
16860TIP3    H172071   0.129   0.678   0.732  0.9745 -1.6538  0.9167
16860TIP3    H272072   0.220   0.731   0.841  1.0954  1.1541 -0.4849
16861TIP3   OH272073   3.384   0.194  11.908 -0.5080 -0.1084  0.0894
16861TIP3    H172074   3.308   0.171  11.854 -1.4664  2.4093  0.2056
16861TIP3    H272075   3.437   0.249  11.851 -0.6233  1.1012  1.1083
16862TIP3   OH272076   3.745   3.746   4.310  0.1636  0.1347  0.0523
16862TIP3    H172077   3.694   3.665   4.304 -0.1301  0.3644 -0.6914
16862TIP3    H272078   3.747   3.766   4.403 -0.2720 -0.4108  0.1858
16863TIP3   OH272079   1.088   0.730   5.067 -0.0239 -0.2593  0.0449
16863TIP3    H172080   1.121   0.752   5.155  1.6171 -0.3567 -0.5098
16863TIP3    H272081   1.034   0.805   5.042  0.9794  0.6061  0.4140
16864TIP3   OH272082   3.750   4.907  15.711  0.5770 -0.3199 -0.6555
16864TIP3    H172083   3.790   4.927  15.795  1.0624  0.5440 -1.0786
16864TIP3    H272084   3.744   4.811  15.709  0.0609 -0.3292  0.5738
16865TIP3   OH272085   5.693   4.697   0.863  0.5609 -0.1647 -0.6042
16865TIP3    H172086   5.681   4.785   0.828  0.6090 -0.0128 -0.2474
16865TIP3    H272087   5.763   4.659   0.810  0.0420 -0.2484 -1.2344
16866TIP3   OH272088   6.718   6.342   4.035 -0.1745 -0.5373 -0.3045
16866TIP3    H172089   6.627   6.345   4.065 -0.3237 -2.3772 -0.4083
16866TIP3    H272090   6.712   6.340   3.940 -0.0182 -0.5192 -0.3148
16867TIP3   OH272091   4.891   6.790  14.149  0.3281  0.3340  0.3777
16867TIP3    H172092   4.849   6.855  14.204  0.2333  0.0620  0.6251
16867TIP3    H272093   4.982   6.821  14.141  0.1746  0.7337  0.1233
16868TIP3   OH272094   3.678   3.379  13.907  0.4112  0.5103  0.9246
16868TIP3    H172095   3.712   3.313  13.968  0.0537 -0.9425 -0.3816
16868TIP3    H272096   3.755   3.408  13.858  0.0311 -2.9789 -2.2257
16869TIP3   OH272097   5.722   5.177  16.986 -0.2824  0.1984 -0.5620
16869TIP3    H172098   5.808   5.135  16.981 -0.4772 -0.2947  0.1316
16869TIP3    H272099   5.741   5.271  16.979  0.6548  0.3515  2.5703
16870TIP3   OH272100   3.288   1.842   6.208  0.6169 -0.2656  0.2353
16870TIP3    H172101   3.348   1.859   6.135 -1.1430 -2.3241 -1.8647
16870TIP3    H272102   3.314   1.756   6.240  0.4609  0.0048  1.1122
16871TIP3   OH272103   6.324   1.894   2.953  0.0410 -0.3024 -0.8271
16871TIP3    H172104   6.315   1.848   3.037 -1.1048 -1.0495 -1.3495
16871TIP3    H272105   6.356   1.827   2.892  1.0140  0.2742 -0.9843
16872TIP3   OH272106   1.494   4.870  16.427 -0.2814 -0.2047 -0.1634
16872TIP3    H172107   1.554   4.944  16.416 -0.0176 -0.5499 -1.1120
16872TIP3    H272108   1.552   4.794  16.436 -0.5600 -0.5834 -1.4107
16873TIP3   OH272109   6.399   0.771   5.077 -0.0927 -0.5210 -0.0775
16873TIP3    H172110   6.473   0.733   5.125 -0.6014 -2.2479 -0.5717
16873TIP3    H272111   6.325   0.763   5.137  0.0613  1.0441  0.3504
16874TIP3   OH272112   2.913   0.383  11.557  0.3353 -0.2080 -0.0965
16874TIP3    H172113   2.934   0.431  11.477 -0.8543 -1.2635 -1.1008
16874TIP3    H272114   2.993   0.384  11.608  1.4409 -0.3273 -1.7488
16875TIP3   OH272115   0.960   2.128  13.477  0.1793 -0.3548 -0.2268
16875TIP3    H172116   0.942   2.034  13.482 -0.0427 -0.2630  0.9506
16875TIP3    H272117   0.948   2.160  13.566 -1.8469  1.1992 -0.9757
16876TIP3   OH272118   3.663   4.412  15.825 -0.2756 -0.2871 -0.4414
16876TIP3    H172119   3.730   4.345  15.834  1.0279  0.9176 -0.7703
16876TIP3    H272120   3.581   4.364  15.824  0.5638 -1.8035  0.0937
16877TIP3   OH272121   0.460   2.425   0.640 -0.0964  0.0514  0.4807
16877TIP3    H172122   0.515   2.498   0.669 -0.5626  0.1120  1.2330
16877TIP3    H272123   0.430   2.451   0.553 -0.3026  0.7895  0.7603
16878TIP3   OH272124   4.261   3.040   2.526 -0.3684  0.0596 -0.5167
16878TIP3    H172125   4.182   2.991   2.501  0.0353 -0.9875  0.1817
16878TIP3    H272126   4.246   3.063   2.618  1.4628 -3.0361  0.7121
16879TIP3   OH272127   2.279   4.579  11.527 -0.0889  0.3115  0.6231
16879TIP3    H172128   2.284   4.553  11.619  2.2336  2.1903  1.1136
16879TIP3    H272129   2.330   4.660  11.521  1.5008 -0.7234 -2.6721
16880TIP3   OH272130   3.328   4.431  15.396  0.1598 -0.5421 -0.3745
16880TIP3    H172131   3.294   4.351  15.355 -2.0579 -1.2639  2.4738
16880TIP3    H272132   3.407   4.403  15.442 -0.9112 -1.3237  1.0716
16881TIP3   OH272133   6.717   5.153   1.932 -0.2075  0.5210  0.1785
16881TIP3    H172134   6.779   5.201   1.988  0.6199  0.1080 -0.3568
16881TIP3    H272135   6.770   5.083   1.894 -0.8816  0.4797 -0.7039
16882TIP3   OH272136   3.655   4.966   2.681  0.1977  0.6002  0.3318
16882TIP3    H172137   3.663   4.975   2.586  1.1055 -0.6317  0.2615
16882TIP3    H272138   3.710   5.037   2.715  1.2250  0.0421 -0.0989
16883TIP3   OH272139   2.596   6.554  14.183 -0.2020  0.2793  0.3040
16883TIP3    H172140   2.609   6.640  14.222 -0.2496  1.0948 -1.3884
16883TIP3    H272141   2.510   6.525  14.216 -0.1799  0.8593  0.8931
16884TIP3   OH272142   4.376   2.741  12.215 -0.0685  0.4116  0.3428
16884TIP3    H172143   4.338   2.824  12.187  0.1597  0.5222  0.3581
16884TIP3    H272144   4.424   2.763  12.295  1.8479  0.7234 -0.8241
16885TIP3   OH272145   6.142   4.686  16.483 -0.6119 -0.5312  0.5281
16885TIP3    H172146   6.218   4.735  16.449 -0.8323  0.1462  1.0019
16885TIP3    H272147   6.066   4.730  16.444 -0.7920 -0.8778  0.4809
16886TIP3   OH272148   0.877   5.330   1.656 -0.8077 -0.0271 -0.6725
16886TIP3    H172149   0.934   5.267   1.701 -0.2777  0.9838  0.1124
16886TIP3    H272150   0.855   5.395   1.723 -1.5882  0.4617 -1.3834
16887TIP3   OH272151   1.294   0.315  12.880  0.7885  0.4461 -0.0988
16887TIP3    H172152   1.212   0.271  12.899  0.2696  0.5108 -1.9540
16887TIP3    H272153   1.361   0.248  12.891  0.5158  0.3962  1.4380
16888TIP3   OH272154   0.144   3.191  15.722  0.2038  0.3434  0.4193
16888TIP3    H172155   0.235   3.160  15.723  0.2224  0.2551 -1.1379
16888TIP3    H272156   0.095   3.121  15.680 -0.4362  0.7455  0.4862
16889TIP3   OH272157   3.903   3.897   6.178  0.5578 -0.2467  0.5175
16889TIP3    H172158   3.967   3.834   6.209 -0.0927  0.1279  2.8051
16889TIP3    H272159   3.821   3.847   6.176  0.4127  0.0009  0.3596
16890TIP3   OH272160   3.055   0.892  15.289 -0.6476 -0.1643  0.2923
16890TIP3    H172161   2.991   0.915  15.356 -2.5532  1.2220 -1.8344
16890TIP3    H272162   3.006   0.897  15.207  1.8323 -0.6778 -1.3367
16891TIP3   OH272163   0.946   4.670   4.201 -0.3160 -0.0392  0.1028
16891TIP3    H172164   0.919   4.592   4.250 -0.7593 -0.4668 -0.7913
16891TIP3    H272165   1.015   4.709   4.254  0.6997 -1.6605  0.0395
16892TIP3   OH272166   5.884   5.247  15.090 -0.0969  0.0676  0.2816
16892TIP3    H172167   5.970   5.216  15.118 -0.3208  0.0696  0.9752
16892TIP3    H272168   5.824   5.179  15.118 -0.4239  0.4648  0.5435
16893TIP3   OH272169   2.262   1.213  14.746  0.3195  0.7934 -0.6174
16893TIP3    H172170   2.178   1.182  14.779  0.2014  1.5498 -0.1812
16893TIP3    H272171   2.275   1.298  14.789  2.4431 -0.3673  1.2744
16894TIP3   OH272172   5.101   1.887  15.242  0.0387 -0.3946 -0.3529
16894TIP3    H172173   5.054   1.822  15.294  0.5948 -0.6486 -0.1619
16894TIP3    H272174   5.192   1.881  15.273 -0.0502  1.0666  0.2805
16895TIP3   OH272175   5.363   3.842   1.810  0.7594 -0.1991  0.4170
16895TIP3    H172176   5.427   3.792   1.860  2.9657  1.9175 -0.0901
16895TIP3    H272177   5.350   3.792   1.730  1.6869 -0.7527  0.5979
16896TIP3   OH272178   1.314   1.329   3.715 -0.4998  0.4027  0.0822
16896TIP3    H172179   1.294   1.266   3.783 -0.8468  1.8470  1.3793
16896TIP3    H272180   1.231   1.341   3.669 -0.1296 -1.0065 -1.0268
16897TIP3   OH272181   2.552   5.364   1.681 -0.4291  0.7719  0.3524
16897TIP3    H172182   2.463   5.373   1.649 -0.1612  1.7453 -0.1414
16897TIP3    H272183   2.563   5.437   1.742  0.1053  0.7970  0.2277
16898TIP3   OH272184   3.311   4.161  16.486  0.0128 -0.0883 -0.1595
16898TIP3    H172185   3.321   4.173  16.392 -1.0396 -0.9263 -0.4045
16898TIP3    H272186   3.315   4.249  16.522  0.9045  0.2001 -0.9307
16899TIP3   OH272187   4.765   1.421  12.047  0.1455 -0.0551 -0.5753
16899TIP3    H172188   4.763   1.513  12.019 -3.6502 -0.0243 -0.7259
16899TIP3    H272189   4.711   1.375  11.983 -1.5293 -1.5756  1.7726
16900TIP3   OH272190   5.352   0.048  12.800 -0.2769  0.1433  0.0565
16900TIP3    H172191   5.423   0.106  12.827 -0.1279  0.4875 -1.0147
16900TIP3    H272192   5.363  -0.030  12.855  0.2383  0.6419  0.6827
16901TIP3   OH272193   4.913   6.761   5.025  0.4306 -0.0758  0.1408
16901TIP3    H172194   4.819   6.745   5.034  0.3405 -0.0145 -0.6310
16901TIP3    H272195   4.925   6.782   4.932  0.6268  3.7116  0.8442
16902TIP3   OH272196   3.003   4.264   6.168  0.2694  0.3130  0.5118
16902TIP3    H172197   2.948   4.289   6.093 -0.0344  2.1203  1.2765
16902TIP3    H272198   2.992   4.170   6.175 -0.6177  0.2625 -1.0075
16903TIP3   OH272199   4.662   5.476  13.203  0.1878 -0.2672 -0.0364
16903TIP3    H172200   4.667   5.391  13.159  0.2932 -0.6876  0.7522
16903TIP3    H272201   4.753   5.505  13.209  0.2406 -0.5012  0.4189
16904TIP3   OH272202   0.123   4.593   5.816  0.0410 -0.1254  0.6079
16904TIP3    H172203   0.047   4.572   5.761 -1.3794  2.7585  1.2526
16904TIP3    H272204   0.109   4.543   5.896 -1.1357  0.2282  0.6472
16905TIP3   OH272205   1.217   2.862   1.953 -0.0701  0.2674  0.2949
16905TIP3    H172206   1.125   2.833   1.951  0.0151  0.0168 -0.1602
16905TIP3    H272207   1.216   2.947   1.908 -0.5474  1.6935  2.8131
16906TIP3   OH272208   0.262   4.187  14.556  0.0478 -0.0535 -0.1345
16906TIP3    H172209   0.338   4.218  14.506 -0.2592  0.5416 -0.2387
16906TIP3    H272210   0.215   4.131  14.494  1.4106 -2.0316  0.5205
16907TIP3   OH272211   5.898   5.370   2.114  0.7650 -0.2819  0.2169
16907TIP3    H172212   5.968   5.405   2.059  1.2105 -2.1355 -0.4658
16907TIP3    H272213   5.818   5.411   2.079  1.2575  0.0520 -0.5399
16908TIP3   OH272214   0.289   0.579  11.948  0.1784 -0.1436 -0.0510
16908TIP3    H172215   0.315   0.599  12.038 -0.1221  0.1061 -0.0191
16908TIP3    H272216   0.313   0.657  11.898  1.8745 -0.8964 -0.5033
16909TIP3   OH272217   5.776   0.128  13.759  0.0593 -0.5296 -0.2272
16909TIP3    H172218   5.696   0.178  13.771  0.5430  0.3370 -0.4988
16909TIP3    H272219   5.838   0.191  13.723  0.2455 -1.6813 -2.0510
16910TIP3   OH272220   0.407   6.788  16.758  0.0215  0.1332 -0.1778
16910TIP3    H172221   0.377   6.721  16.819 -2.9273  0.0800 -1.5585
16910TIP3    H272222   0.449   6.854  16.814 -2.9814  0.3427  2.0574
16911TIP3   OH272223   4.364   2.491  16.216 -0.4266  0.7527  0.3405
16911TIP3    H172224   4.421   2.481  16.292  1.4005 -2.1801 -1.2372
16911TIP3    H272225   4.285   2.440  16.239 -0.0922  0.2872  0.4730
16912TIP3   OH272226   0.729   5.001   3.668  0.2414  0.6780  0.2124
16912TIP3    H172227   0.709   5.014   3.575  0.8367 -0.7576 -0.1310
16912TIP3    H272228   0.691   4.916   3.689  0.2849  0.9010  1.2536
16913TIP3   OH272229   4.274   3.547  14.491  0.0203 -0.4363  0.2938
16913TIP3    H172230   4.280   3.616  14.556 -1.4269  0.6990 -0.7143
16913TIP3    H272231   4.345   3.565  14.429 -0.3923  0.2181 -0.0022
16914TIP3   OH272232   3.374   0.452  16.521  0.3823  0.7479  0.2265
16914TIP3    H172233   3.343   0.499  16.444  0.4233  2.0990  0.9980
16914TIP3    H272234   3.299   0.398  16.548 -0.0170  1.1345 -0.1053
16915TIP3   OH272235   3.417   1.853  12.421  0.0846 -0.3024 -0.2129
16915TIP3    H172236   3.372   1.860  12.336 -1.2204 -1.2498  0.3706
16915TIP3    H272237   3.433   1.759  12.431  0.2821 -0.1863  0.5729
16916TIP3   OH272238   0.756   3.651  13.976  0.6848  0.2174 -0.2181
16916TIP3    H172239   0.671   3.655  14.019 -0.8614 -0.8833 -2.9465
16916TIP3    H272240   0.768   3.738  13.938  0.1827  0.0339 -0.8181
16917TIP3   OH272241   0.658   4.281  13.813 -0.1725  0.4448 -0.3917
16917TIP3    H172242   0.710   4.267  13.891 -1.2948  2.7897  0.8839
16917TIP3    H272243   0.580   4.226  13.825 -0.2075  0.5844  0.0175
16918TIP3   OH272244   0.251   5.979  15.931  0.0866  0.6239 -0.4668
16918TIP3    H172245   0.321   5.916  15.949 -0.1575  0.1935 -0.9975
16918TIP3    H272246   0.285   6.062  15.965  0.4883  0.2501  0.0760
16919TIP3   OH272247   3.821   4.618   3.684  0.2618  0.1700 -0.2472
16919TIP3    H172248   3.744   4.673   3.671 -0.0773 -0.7089 -2.2358
16919TIP3    H272249   3.785   4.534   3.713  0.3920 -0.4351 -1.7760
16920TIP3   OH272250   4.149   4.069  14.786  0.2676  0.2445 -0.5178
16920TIP3    H172251   4.129   4.087  14.694  2.2733  1.1249 -0.8379
16920TIP3    H272252   4.162   4.156  14.824 -0.1091 -0.1361  0.5068
16921TIP3   OH272253   5.090   4.215   1.066  0.0452 -0.4829 -0.2229
16921TIP3    H172254   5.146   4.220   0.988 -0.6785 -0.3430 -0.7462
16921TIP3    H272255   5.087   4.304   1.099  0.8648 -0.6544  0.3466
16922TIP3   OH272256   2.033   6.238   4.847  0.0958  0.4287 -0.4940
16922TIP3    H172257   2.108   6.243   4.907 -0.7589 -1.8758  0.9431
16922TIP3    H272258   2.013   6.144   4.843 -2.2606  0.8997 -1.3955
16923TIP3   OH272259   4.381   2.638   3.625  0.2676 -0.3145  0.5794
16923TIP3    H172260   4.424   2.713   3.584  1.9764 -1.4055  0.2863
16923TIP3    H272261   4.308   2.677   3.673 -0.0110  1.3276 -1.0455
16924TIP3   OH272262   5.395   2.795  15.455 -0.3447 -0.4968 -0.5952
16924TIP3    H172263   5.330   2.789  15.525  1.7187  2.6883  1.8541
16924TIP3    H272264   5.478   2.776  15.497  0.9285  1.1297 -2.2394
16925TIP3   OH272265   0.420   4.219   4.874 -0.7159  0.3847  0.4757
16925TIP3    H172266   0.441   4.129   4.847 -1.9081 -0.7359  2.9960
16925TIP3    H272267   0.326   4.218   4.891 -0.5799  1.8375  1.5145
16926TIP3   OH272268   6.235   3.932   2.458 -0.4168  0.1289  0.0739
16926TIP3    H172269   6.180   3.936   2.536  0.5647  1.1186  0.7493
16926TIP3    H272270   6.302   3.999   2.473  2.0127 -2.1738  0.0752
16927TIP3   OH272271   6.357   1.874   2.615  0.8938 -0.0215  0.0740
16927TIP3    H172272   6.450   1.868   2.636  0.3744  0.7793  3.0583
16927TIP3    H272273   6.327   1.783   2.611  1.5601 -0.2549  0.3066
16928TIP3   OH272274   0.287   0.414   2.294 -0.1565 -0.5794 -0.4169
16928TIP3    H172275   0.196   0.387   2.282 -0.0549 -0.5292 -1.4373
16928TIP3    H272276   0.318   0.431   2.205  0.9795 -1.0206 -0.1199
16929TIP3   OH272277   0.473   4.616  15.755 -0.1406  0.4047 -0.1837
16929TIP3    H172278   0.408   4.553  15.724 -0.3894 -0.9451  2.7395
16929TIP3    H272279   0.421   4.691  15.784 -0.2758  0.0489  0.5219
16930TIP3   OH272280   4.421   3.612  17.050 -0.0997 -0.9379 -0.2048
16930TIP3    H172281   4.397   3.640  16.962  0.8878  0.1708 -0.1506
16930TIP3    H272282   4.472   3.685  17.085 -1.8143 -0.6205  1.8812
16931TIP3   OH272283   1.135   3.521   0.996  0.1285 -0.2442  0.4402
16931TIP3    H172284   1.227   3.527   0.968 -0.2695  0.1232 -0.8785
16931TIP3    H272285   1.135   3.454   1.064  1.1326 -1.4215 -0.6664
16932TIP3   OH272286   0.464   5.595  16.521 -0.6500 -0.5397 -0.1276
16932TIP3    H172287   0.383   5.585  16.470  0.8077  0.9459 -2.9755
16932TIP3    H272288   0.534   5.571  16.460  1.1856  0.2712  1.5526
16933TIP3   OH272289   1.630   6.604   1.898  0.1200 -0.1820 -0.1173
16933TIP3    H172290   1.600   6.694   1.910 -0.7904  0.0041 -3.0503
16933TIP3    H272291   1.680   6.585   1.977  0.7260  3.0550  0.4215
16934TIP3   OH272292   2.980   4.908  14.167  0.0713  0.5374  0.6511
16934TIP3    H172293   2.975   4.845  14.094 -0.3063 -0.5638  1.5901
16934TIP3    H272294   2.981   4.993  14.125  1.6005 -0.1022 -0.7296
16935TIP3   OH272295   3.403   2.848  11.849  0.1370  0.2147 -0.0500
16935TIP3    H172296   3.345   2.827  11.776  0.4346  0.5406 -0.3817
16935TIP3    H272297   3.416   2.942  11.845  1.7014  0.0109 -0.7707
16936TIP3   OH272298   3.532   0.682  13.794 -0.1537  0.4867  0.4200
16936TIP3    H172299   3.491   0.744  13.734 -0.4333 -0.7259 -0.7131
16936TIP3    H272300   3.462   0.620  13.816  0.3321  0.0578  0.7957
16937TIP3   OH272301   1.911   6.051   2.449 -0.3701  0.3250 -0.1270
16937TIP3    H172302   1.889   6.142   2.470  0.3497  0.1139  1.7446
16937TIP3    H272303   1.940   6.014   2.532 -1.8775 -2.0095 -0.5451
16938TIP3   OH272304   5.256   1.555  16.817 -0.0203 -0.1300  0.3870
16938TIP3    H172305   5.219   1.467  16.828 -2.9979  0.8205 -0.9963
16938TIP3    H272306   5.348   1.545  16.841 -0.1947 -3.6551  0.1521
16939TIP3   OH272307   6.340   1.458   5.676  0.1640  0.0967 -0.6968
16939TIP3    H172308   6.291   1.387   5.718  1.4518  0.0790  0.8944
16939TIP3    H272309   6.336   1.530   5.739  1.4095  0.3803 -0.9103
16940TIP3   OH272310   5.353   3.281  12.718 -0.2259 -0.2138  0.3933
16940TIP3    H172311   5.415   3.317  12.655  0.9997 -0.7392  1.2638
16940TIP3    H272312   5.371   3.187  12.719 -0.6005 -0.2887  1.1184
16941TIP3   OH272313   2.665   0.875  15.949 -0.3636  0.3613 -0.2274
16941TIP3    H172314   2.619   0.853  16.030 -0.4590 -2.3214 -0.9130
16941TIP3    H272315   2.685   0.969  15.957 -1.8089  0.5483  2.1357
16942TIP3   OH272316   5.887   5.031  14.761 -0.1219 -0.6099 -0.0517
16942TIP3    H172317   5.795   5.036  14.733  0.1490  0.4441 -0.8354
16942TIP3    H272318   5.883   4.994  14.849 -1.2336 -1.3691 -0.3967
16943TIP3   OH272319   1.451   5.480  10.871 -0.4661 -0.2861  0.0689
16943TIP3    H172320   1.514   5.408  10.866 -0.6376 -0.3786 -1.3974
16943TIP3    H272321   1.387   5.460  10.803 -0.8850  0.9088  0.0863
16944TIP3   OH272322   3.553   2.683   4.487 -0.0588  0.3830 -0.3058
16944TIP3    H172323   3.551   2.672   4.582 -1.4064  1.0045 -0.2410
16944TIP3    H272324   3.550   2.777   4.473  0.0319  0.2939 -0.9668
16945TIP3   OH272325   3.181   4.987   6.182  0.0189 -0.2933  0.5462
16945TIP3    H172326   3.115   4.920   6.160 -0.1938 -0.3589  1.3479
16945TIP3    H272327   3.252   4.971   6.121  0.9397 -2.6922  2.0729
16946TIP3   OH272328   0.046   5.689   4.592 -0.4045 -0.0322  0.4279
16946TIP3    H172329   0.034   5.777   4.556  1.7871  0.8844  1.6559
16946TIP3    H272330   0.017   5.697   4.683  0.6735 -0.2815  0.8097
16947TIP3   OH272331   1.826   6.696   3.130 -0.5834  0.0875  0.3399
16947TIP3    H172332   1.833   6.791   3.124  2.1784  0.0506  1.2690
16947TIP3    H272333   1.784   6.669   3.048  0.4802  1.9983 -0.9074
16948TIP3   OH272334   6.324   0.442  12.501  0.1496 -0.5491  0.0729
16948TIP3    H172335   6.360   0.361  12.465 -0.1310 -1.1340  1.0617
16948TIP3    H272336   6.335   0.434  12.596 -0.8099  0.1097  0.2649
16949TIP3   OH272337   5.544   1.494  17.144  0.0416 -0.3107 -0.4607
16949TIP3    H172338   5.506   1.543  17.071  1.0737 -1.4830 -1.8347
16949TIP3    H272339   5.622   1.544  17.167 -1.4293  1.2812  1.3827
16950TIP3   OH272340   6.359   6.356  15.638 -0.4060  0.3467 -0.4646
16950TIP3    H172341   6.299   6.429  15.625 -0.1092  0.5491 -0.7010
16950TIP3    H272342   6.446   6.392  15.620  0.1651  0.8364  2.5715
16951TIP3   OH272343   3.041   3.983   5.815 -0.1786  0.5241 -0.3036
16951TIP3    H172344   2.949   4.004   5.799 -0.6315 -0.6927  0.5127
16951TIP3    H272345   3.039   3.916   5.883  1.2468 -0.4378 -1.1336
16952TIP3   OH272346   2.233   3.990  16.518  0.5467  0.6709 -0.5078
16952TIP3    H172347   2.255   3.898  16.503  0.5715  0.3830  1.1348
16952TIP3    H272348   2.138   3.994  16.512  0.4373  0.2554  0.7604
16953TIP3   OH272349   0.588   6.322  12.040 -0.0375  0.2712 -0.7085
16953TIP3    H172350   0.515   6.274  12.001 -0.1425 -1.6360  1.5997
16953TIP3    H272351   0.551   6.363  12.118  0.4997  2.7739 -1.6525
16954TIP3   OH272352   3.785   3.143  14.067 -0.0280 -0.0800 -0.1979
16954TIP3    H172353   3.866   3.094  14.053  0.9318  0.8718  1.6045
16954TIP3    H272354   3.715   3.082  14.044  1.1727 -1.5180 -0.1407
16955TIP3   OH272355   2.069   3.814   5.512  0.0951  0.0065 -0.0752
16955TIP3    H172356   1.995   3.867   5.542 -0.1805 -0.2496 -0.3025
16955TIP3    H272357   2.146   3.870   5.528  0.0376 -0.3516  1.7211
16956TIP3   OH272358   0.108   0.371  17.205  0.1330  0.3175 -0.3697
16956TIP3    H172359   0.183   0.416  17.165  0.4020  0.4624  0.2829
16956TIP3    H272360   0.032   0.423  17.180  0.1793 -0.1576 -1.5266
16957TIP3   OH272361   6.592   1.820  16.417  0.3120 -0.5161  0.0988
16957TIP3    H172362   6.524   1.867  16.466  1.0783  0.6118  0.1142
16957TIP3    H272363   6.671   1.872  16.429  0.7146 -0.6363 -1.6783
16958TIP3   OH272364   3.731   0.239   5.992  0.5912  0.5109  0.0531
16958TIP3    H172365   3.685   0.157   5.978  0.3263  0.7969 -0.8079
16958TIP3    H272366   3.718   0.259   6.085  1.0683 -0.6520  0.3821
16959TIP3   OH272367   5.983   2.246   0.065  0.2882 -0.0017  0.1739
16959TIP3    H172368   5.966   2.236  -0.028 -0.9648  0.6753  0.3081
16959TIP3    H272369   6.026   2.165   0.091  0.1876 -0.4056 -0.8839
16960TIP3   OH272370   0.262   6.748  13.014 -0.2581 -0.2360  0.0178
16960TIP3    H172371   0.201   6.771  12.943  0.6237  1.6994 -0.1866
16960TIP3    H272372   0.304   6.667  12.984 -0.5023  0.0955 -1.2916
16961TIP3   OH272373   3.588   2.601  15.646 -0.4236  0.2141 -0.0873
16961TIP3    H172374   3.520   2.540  15.618  0.7731 -1.8546  1.2047
16961TIP3    H272375   3.660   2.587  15.585 -0.3587  0.8395 -0.1667
16962TIP3   OH272376   4.264   3.054  16.491  0.2171 -0.4307 -0.0215
16962TIP3    H172377   4.207   3.060  16.414 -1.5063 -1.9790  1.0680
16962TIP3    H272378   4.319   2.978  16.473  0.7133 -0.0247 -0.2590
16963TIP3   OH272379   5.038   6.562  14.223 -0.0847  0.2007  0.2213
16963TIP3    H172380   5.006   6.651  14.233  1.5567  0.6553  2.1866
16963TIP3    H272381   4.986   6.510  14.284  1.1186  0.4735  1.5322
16964TIP3   OH272382   4.497   0.482  11.836 -0.1544  0.1884  0.1799
16964TIP3    H172383   4.441   0.405  11.826  0.0107 -0.1145  1.4281
16964TIP3    H272384   4.436   0.556  11.837 -0.2844  0.1476 -1.4616
16965TIP3   OH272385   1.585   3.999  15.109 -0.2570  0.1706 -0.0176
16965TIP3    H172386   1.644   4.050  15.165  0.6624 -1.6272  0.7276
16965TIP3    H272387   1.547   4.064  15.049  1.8641  1.5394  0.0103
16966TIP3   OH272388   3.661   3.598  12.036 -0.1404 -0.6256  0.0194
16966TIP3    H172389   3.571   3.612  12.063 -0.4386 -1.8448 -0.2861
16966TIP3    H272390   3.655   3.546  11.955  0.8198 -0.5106 -0.1432
16967TIP3   OH272391   4.679   0.188  12.589  0.1566 -0.0459  0.4420
16967TIP3    H172392   4.647   0.176  12.500 -0.2402  1.8719  0.2908
16967TIP3    H272393   4.730   0.269  12.586 -1.6313  1.2550  2.3624
16968TIP3   OH272394   4.287   4.204  17.193 -0.4982 -0.4255  0.3017
16968TIP3    H172395   4.217   4.151  17.231 -1.2491  2.2727  3.0907
16968TIP3    H272396   4.257   4.223  17.105 -1.8749 -1.6778  0.4536
16969TIP3   OH272397   3.897   1.014   0.689 -0.3646 -0.4771 -0.3972
16969TIP3    H172398   3.832   1.032   0.621 -1.8124 -1.5480  0.6374
16969TIP3    H272399   3.874   0.928   0.723  0.3165  0.0023  1.4261
16970TIP3   OH272400   5.026   1.560  14.180  0.1719 -0.3295 -0.1384
16970TIP3    H172401   5.069   1.550  14.095  1.2246  0.8758  0.2161
16970TIP3    H272402   4.976   1.641  14.172  1.2327  0.4298  0.7615
16971TIP3   OH272403   5.689   2.187   3.104 -0.0361 -0.1443 -0.2983
16971TIP3    H172404   5.778   2.206   3.074  0.4811 -3.5659 -1.3876
16971TIP3    H272405   5.691   2.204   3.198  1.2691  1.3596 -0.5564
16972TIP3   OH272406   3.895   4.587  14.978  0.2128  0.0228  0.0274
16972TIP3    H172407   3.856   4.669  15.010  0.3779 -0.0973  0.5351
16972TIP3    H272408   3.821   4.527  14.970  0.5239 -0.8791  3.0287
16973TIP3   OH272409   3.340   2.208   2.835  0.0866  0.0026  0.5682
16973TIP3    H172410   3.282   2.169   2.902  0.0353  1.1020  1.1815
16973TIP3    H272411   3.389   2.274   2.883  2.1453 -1.1452  0.1340
16974TIP3   OH272412   4.986   6.370   4.086  0.4609 -0.7008  0.2770
16974TIP3    H172413   4.945   6.368   4.172  0.7532  0.6339  0.4676
16974TIP3    H272414   5.036   6.452   4.085 -0.8988  0.1961 -1.7772
16975TIP3   OH272415   0.482   3.745   0.557 -0.2608 -0.0124 -0.6926
16975TIP3    H172416   0.447   3.780   0.475 -1.4733  0.7684  0.1135
16975TIP3    H272417   0.444   3.658   0.565 -0.1492 -0.0847 -0.9593
16976TIP3   OH272418   2.421   6.202  13.453  0.3861  0.8882  0.0280
16976TIP3    H172419   2.510   6.227  13.475 -0.1853  0.8109  2.8386
16976TIP3    H272420   2.424   6.107  13.442  0.6905  0.9159 -0.1282
16977TIP3   OH272421   4.365   5.722   4.822 -0.0058  0.1883 -0.5054
16977TIP3    H172422   4.396   5.631   4.824  0.7227  0.3621 -2.2977
16977TIP3    H272423   4.419   5.767   4.887  1.1172 -0.2349 -1.1142
16978TIP3   OH272424   2.752   6.768   0.160 -0.1645  0.2054 -0.8638
16978TIP3    H172425   2.830   6.726   0.195  1.4041  0.2377 -4.0343
16978TIP3    H272426   2.780   6.808   0.078 -2.8512  2.8209 -0.6816
16979TIP3   OH272427   5.933   2.416  14.971  0.2935  0.5128 -0.3304
16979TIP3    H172428   5.848   2.409  14.927  0.0045  1.0830  0.1119
16979TIP3    H272429   5.991   2.454  14.905 -0.0092  0.8913 -0.3871
16980TIP3   OH272430   4.444   4.496  15.727 -0.2056  0.7440 -0.3534
16980TIP3    H172431   4.440   4.583  15.687  1.7166  1.0858  0.0953
16980TIP3    H272432   4.355   4.480  15.758 -0.5932  2.5931 -0.3857
16981TIP3   OH272433   6.337   5.890  12.927 -0.2911 -0.1110  0.1552
16981TIP3    H172434   6.287   5.956  12.878  1.0232  0.5359 -0.3650
16981TIP3    H272435   6.324   5.809  12.877 -0.5788  0.1124 -0.1382
16982TIP3   OH272436   4.276   4.195  15.217  0.2800  0.1112 -0.0747
16982TIP3    H172437   4.212   4.136  15.178 -1.2863  1.2677  0.6794
16982TIP3    H272438   4.251   4.282  15.186  2.0864  0.5201 -0.5486
16983TIP3   OH272439   6.492   3.456   0.133  0.3108 -0.7415 -0.1002
16983TIP3    H172440   6.526   3.371   0.163  0.4323 -0.7529 -0.2661
16983TIP3    H272441   6.401   3.457   0.160 -0.0757 -1.5001 -1.2977
16984TIP3   OH272442   2.931   0.801   0.916 -0.0426  0.9155  0.1218
16984TIP3    H172443   3.024   0.814   0.897  0.1472  0.5299  0.7392
16984TIP3    H272444   2.908   0.720   0.870 -0.5134  1.8849 -1.4164
16985TIP3   OH272445   3.064   3.492   2.403  0.0161 -0.3687 -0.0263
16985TIP3    H172446   3.043   3.489   2.497  0.0737  1.6642  0.0856
16985TIP3    H272447   3.140   3.548   2.397 -1.7062  1.9753 -1.5245
16986TIP3   OH272448   4.490   2.052  16.969 -0.0770 -0.4264  0.6935
16986TIP3    H172449   4.537   2.103  17.036 -1.8064  0.5157  1.2373
16986TIP3    H272450   4.536   2.072  16.887  1.4821 -0.8546  1.4285
16987TIP3   OH272451   2.260   2.602   2.850 -0.0210  0.5648  0.4379
16987TIP3    H172452   2.276   2.510   2.873  0.1510  0.1297 -1.3143
16987TIP3    H272453   2.165   2.612   2.858 -0.0354  0.2573  0.6952
16988TIP3   OH272454   3.390   4.896  16.507  0.2449  0.1562 -0.4475
16988TIP3    H172455   3.295   4.900  16.499  0.1758  0.4046  0.4392
16988TIP3    H272456   3.421   4.890  16.416 -0.6589 -1.3580 -0.6980
16989TIP3   OH272457   0.530   0.290   4.171 -0.1812  0.1593 -0.6753
16989TIP3    H172458   0.502   0.238   4.246 -1.3344  0.1418 -1.1080
16989TIP3    H272459   0.593   0.234   4.125  0.6134  0.2065  0.3072
16990TIP3   OH272460   0.856   6.718   2.752 -0.5243  0.1485 -1.0944
16990TIP3    H172461   0.903   6.645   2.792 -1.3207  1.3420  2.3567
16990TIP3    H272462   0.764   6.700   2.771 -0.6980  2.3058  0.4583
16991TIP3   OH272463   3.722   0.666  12.943 -0.1701  0.1561  0.4718
16991TIP3    H172464   3.765   0.636  13.022  0.9642 -0.1563 -0.2440
16991TIP3    H272465   3.676   0.746  12.969  2.6927  1.8098  0.7948
16992TIP3   OH272466   5.651   0.761   0.163  0.4616 -0.2688 -0.1536
16992TIP3    H172467   5.652   0.735   0.255 -1.9179  2.3999  0.7587
16992TIP3    H272468   5.564   0.736   0.132  0.3727  0.9812 -0.9715
16993TIP3   OH272469   1.968   0.527  14.453  0.2298 -0.3684  0.0735
16993TIP3    H172470   1.910   0.604  14.456  0.4679 -0.1734 -0.2988
16993TIP3    H272471   2.020   0.533  14.533 -0.3892 -0.6463  0.5077
16994TIP3   OH272472   2.820   1.001   2.442  0.0444 -0.3772  0.0658
16994TIP3    H172473   2.866   1.017   2.524  0.2307 -1.0432  0.0917
16994TIP3    H272474   2.761   0.928   2.460  1.2850 -1.6554 -0.8323
16995TIP3   OH272475   4.665   0.138   0.093 -0.0091  0.2428  0.3541
16995TIP3    H172476   4.726   0.072   0.125  0.8918  0.5557 -0.6585
16995TIP3    H272477   4.707   0.174   0.015 -1.4374  0.5555 -0.3044
16996TIP3   OH272478   4.101   0.446  12.975 -0.0665  0.2132  0.3468
16996TIP3    H172479   4.120   0.540  12.969  0.6612 -0.0149 -1.4863
16996TIP3    H272480   4.154   0.416  13.049  1.6005  0.8382 -0.5365
16997TIP3   OH272481   1.047   0.053   3.850 -0.3022 -0.3775 -0.2066
16997TIP3    H172482   1.124   0.000   3.871 -1.2520 -0.8828  2.3283
16997TIP3    H272483   1.007   0.073   3.935 -2.4959  0.5931 -1.3786
16998TIP3   OH272484   4.299   5.827  16.379  0.0454 -0.4568 -0.0937
16998TIP3    H172485   4.321   5.786  16.295  1.4816 -1.6354  0.8083
16998TIP3    H272486   4.211   5.861  16.366  0.5351  0.1631 -2.3572
16999TIP3   OH272487   0.422   1.441   6.339  0.3866 -0.1128 -0.1558
16999TIP3    H172488   0.491   1.377   6.325 -0.0370 -0.4528 -0.7161
16999TIP3    H272489   0.462   1.525   6.316  0.2141 -0.4661 -1.8735
17000TIP3   OH272490   1.096   0.423  12.008 -0.5208 -0.4269  0.2126
17000TIP3    H172491   1.033   0.352  11.991 -1.1969  0.4440 -1.1563
17000TIP3    H272492   1.130   0.445  11.922  3.3129 -2.2313  1.0867
17001TIP3   OH272493   1.355   4.589   5.262 -0.4994 -0.3090 -0.2285
17001TIP3    H172494   1.300   4.661   5.293  0.0667  0.0088  0.0620
17001TIP3    H272495   1.378   4.612   5.172 -0.6607 -0.3374 -0.2774
17002TIP3   OH272496   2.958   4.137   4.840  0.1018 -0.3249  0.6318
17002TIP3    H172497   2.893   4.119   4.909 -0.7399 -0.2049 -0.1202
17002TIP3    H272498   2.976   4.231   4.848 -1.6573  0.1704 -0.7040
17003TIP3   OH272499   5.605   5.406   1.355 -0.2783 -0.2714 -0.2265
17003TIP3    H172500   5.686   5.443   1.389 -1.0409 -0.5006  1.9956
17003TIP3    H272501   5.556   5.482   1.322 -0.0021  0.1237  0.2653
17004TIP3   OH272502   0.729   4.516  16.930  0.6009  0.5614  0.0519
17004TIP3    H172503   0.795   4.563  16.879  2.7860 -2.1307  0.1532
17004TIP3    H272504   0.780   4.464  16.992 -1.4793 -2.6256 -0.6606
17005TIP3   OH272505   0.892   3.394   3.265  0.3127 -0.1289  0.8434
17005TIP3    H172506   0.936   3.396   3.180 -1.0911 -2.0976 -0.0039
17005TIP3    H272507   0.944   3.333   3.317 -0.0931 -0.7001  0.5969
17006TIP3   OH272508   1.950   4.898  11.342  0.2797  0.1607 -0.1855
17006TIP3    H172509   1.981   4.811  11.367 -0.5257  0.4023  1.8731
17006TIP3    H272510   2.002   4.958  11.395 -0.9663  0.7471  0.4313
17007TIP3   OH272511   0.521   1.392  11.526 -0.3172  0.1025  0.7594
17007TIP3    H172512   0.533   1.414  11.434 -2.7066  0.4426  0.4751
17007TIP3    H272513   0.609   1.396  11.563  0.8049 -0.7171 -1.6230
17008TIP3   OH272514   4.859   4.650  11.119 -0.2591  0.1667  0.4779
17008TIP3    H172515   4.947   4.637  11.157  0.2645 -0.0594 -0.7540
17008TIP3    H272516   4.872   4.719  11.053 -0.6329 -0.9803 -0.8445
17009TIP3   OH272517   4.368   2.798   5.356  0.2227 -0.3506  0.3388
17009TIP3    H172518   4.288   2.826   5.400  0.2274 -1.0082  0.7836
17009TIP3    H272519   4.369   2.703   5.366  0.2733 -0.5042 -1.0068
17010TIP3   OH272520   0.377   4.176  13.132  0.7405  0.3999  0.3585
17010TIP3    H172521   0.437   4.171  13.058  0.2418 -1.3827  0.0255
17010TIP3    H272522   0.316   4.103  13.119  0.4001  0.2708  2.3206
17011TIP3   OH272523   4.928   1.556   2.338 -0.2192 -0.2382 -0.6368
17011TIP3    H172524   4.976   1.545   2.420 -1.1241  2.6009  0.3959
17011TIP3    H272525   4.994   1.587   2.275 -0.3502  2.5441  0.4688
17012TIP3   OH272526   2.768   5.254  14.506 -0.1634 -0.5461  0.2143
17012TIP3    H172527   2.800   5.220  14.422 -1.8897  0.8459 -1.0998
17012TIP3    H272528   2.843   5.249  14.565  1.4117 -0.6127 -1.7117
17013TIP3   OH272529   0.400   0.322  11.896 -0.6422  0.3230 -0.7954
17013TIP3    H172530   0.459   0.317  11.821  0.1425  0.2372 -0.1823
17013TIP3    H272531   0.383   0.415  11.907 -0.8442  0.3298 -1.1316
17014TIP3   OH272532   6.722   3.567   0.279  0.4685  0.4079 -0.2815
17014TIP3    H172533   6.689   3.478   0.291  1.0766  0.4405  1.9649
17014TIP3    H272534   6.647   3.623   0.299 -0.0575  0.4693 -2.1649
17015TIP3   OH272535   1.416   2.456  11.129  0.5631 -0.1405  0.0975
17015TIP3    H172536   1.463   2.539  11.123  2.5203 -1.1673  0.2704
17015TIP3    H272537   1.332   2.472  11.086  1.0570  1.7958 -0.2266
17016TIP3   OH272538   6.804   5.363  12.250  0.3649 -0.2020 -0.7863
17016TIP3    H172539   6.882   5.383  12.198 -0.3719 -0.0360 -1.8538
17016TIP3    H272540   6.820   5.407  12.334  1.2148  0.2208 -1.1531
17017TIP3   OH272541   0.853   6.706  12.920 -0.3294 -0.7307 -0.2720
17017TIP3    H172542   0.871   6.707  13.014 -0.5913 -0.1263 -0.2242
17017TIP3    H272543   0.910   6.637  12.885 -1.1782 -1.8653  0.5096
17018TIP3   OH272544   4.419   1.459  15.888 -0.3082 -0.1125  0.1881
17018TIP3    H172545   4.382   1.374  15.911  0.4848 -0.4484  0.2504
17018TIP3    H272546   4.391   1.517  15.959  0.0099 -0.5630  0.6866
17019TIP3   OH272547   5.881   5.724   6.148 -0.2848 -0.1730  0.8237
17019TIP3    H172548   5.836   5.712   6.231 -0.5890 -2.1890  0.4160
17019TIP3    H272549   5.974   5.716   6.170 -0.3882 -1.2310  0.9026
17020TIP3   OH272550   3.120   3.747   0.533 -1.0174 -0.1829 -0.1309
17020TIP3    H172551   3.054   3.813   0.511 -0.2225  0.6823  0.0065
17020TIP3    H272552   3.168   3.785   0.607 -0.7935 -1.0961  0.2050
17021TIP3   OH272553   3.637   0.669   2.127  0.2325  0.2514 -0.1609
17021TIP3    H172554   3.619   0.758   2.156 -0.5860 -0.2776  1.0684
17021TIP3    H272555   3.678   0.679   2.041 -0.1640  1.7886 -0.2015
17022TIP3   OH272556   0.105   0.779  15.695  0.5006 -0.0521 -0.2490
17022TIP3    H172557   0.123   0.724  15.619  2.4240  0.3421 -0.1264
17022TIP3    H272558   0.152   0.738  15.767  0.0840  0.5057  0.3537
17023TIP3   OH272559   5.384   3.603   1.664  0.1237  0.1062 -0.5973
17023TIP3    H172560   5.415   3.515   1.685 -1.8069 -0.4999 -0.1432
17023TIP3    H272561   5.407   3.615   1.572  0.5000 -0.8186 -0.6361
17024TIP3   OH272562   0.416   6.681   3.514 -0.3477  0.5612  0.2523
17024TIP3    H172563   0.425   6.709   3.605 -0.9014 -0.5323  0.6621
17024TIP3    H272564   0.368   6.751   3.471 -1.4483  0.3972  1.1750
17025TIP3   OH272565   0.355   6.180  14.582 -0.2860 -1.0247  0.0140
17025TIP3    H172566   0.436   6.221  14.612 -0.5305  0.3612 -1.1266
17025TIP3    H272567   0.302   6.170  14.661 -0.8838  2.3832  0.1773
17026TIP3   OH272568   2.647   0.158   2.082  0.7285 -0.4777  0.0103
17026TIP3    H172569   2.684   0.083   2.035 -0.6309 -0.4535 -1.1639
17026TIP3    H272570   2.687   0.234   2.040  0.7554 -0.5013 -0.0069
17027TIP3   OH272571   3.441   0.566   5.533 -0.6865 -0.1501  1.1435
17027TIP3    H172572   3.364   0.533   5.487 -1.8636  0.7201  2.4031
17027TIP3    H272573   3.411   0.647   5.575  1.5305  1.4917 -0.1918
17028TIP3   OH272574   0.591   0.868   5.152 -0.3105 -0.3205 -0.2730
17028TIP3    H172575   0.545   0.787   5.132  0.8293 -0.9496 -0.4606
17028TIP3    H272576   0.557   0.931   5.088 -0.1134 -1.0642 -1.1312
17029TIP3   OH272577   3.270   4.317  10.650 -0.3739  0.1435  1.0192
17029TIP3    H172578   3.297   4.230  10.623 -0.5892 -0.2434  2.0254
17029TIP3    H272579   3.176   4.310  10.665 -0.3006  0.4138  1.6159
17030TIP3   OH272580   2.933   3.834   2.991  0.1187  0.6921  0.0406
17030TIP3    H172581   2.930   3.846   2.896  0.3422 -1.3173 -0.2654
17030TIP3    H272582   2.842   3.824   3.017  0.1089  0.5387 -0.0560
17031TIP3   OH272583   4.655   6.636   4.600 -0.2809 -0.1497  0.0482
17031TIP3    H172584   4.597   6.712   4.611 -1.8471 -1.5367  2.1563
17031TIP3    H272585   4.596   6.561   4.598  1.3438 -1.4715 -0.0107
17032TIP3   OH272586   1.160   3.046  13.828 -0.4834 -0.4477 -0.0108
17032TIP3    H172587   1.082   3.040  13.883  1.2709 -0.8409  2.6065
17032TIP3    H272588   1.219   2.978  13.862  1.2320  0.1887 -1.5308
17033TIP3   OH272589   2.493   4.038   1.202 -0.1364 -0.0786  0.3385
17033TIP3    H172590   2.457   4.071   1.120 -0.9474  0.1472  0.7716
17033TIP3    H272591   2.421   3.988   1.241  0.5574 -1.0305  0.4464
17034TIP3   OH272592   4.256   6.074   2.513 -0.1828 -0.2257 -0.3399
17034TIP3    H172593   4.205   6.145   2.476 -1.6193 -0.6530  0.7254
17034TIP3    H272594   4.229   6.070   2.605  0.5028 -1.5889 -0.1657
17035TIP3   OH272595   4.646   2.595   2.887  0.2966  0.1360  0.2856
17035TIP3    H172596   4.568   2.564   2.841  0.0548 -1.2554  1.5252
17035TIP3    H272597   4.716   2.588   2.823  0.1437 -2.6221  0.2911
17036TIP3   OH272598   1.618   1.682  14.482  0.1781  0.0581  0.1037
17036TIP3    H172599   1.633   1.676  14.388 -0.4651 -1.0399  0.0436
17036TIP3    H272600   1.538   1.733  14.491  0.0822 -0.0785  0.0315
17037TIP3   OH272601   2.503   6.793   0.814  0.1918 -0.0666 -0.3956
17037TIP3    H172602   2.582   6.839   0.845 -0.2186  0.8079 -0.6222
17037TIP3    H272603   2.456   6.770   0.894 -0.8580  2.1693 -0.3012
17038TIP3   OH272604   2.977   6.332   6.598 -0.0788  0.3230  0.5100
17038TIP3    H172605   2.923   6.271   6.546 -1.2200  0.9505  0.9277
17038TIP3    H272606   3.061   6.287   6.606 -0.4652 -0.6092 -0.3202
17039TIP3   OH272607   4.068   4.766   4.173  0.0783  0.0778 -0.1410
17039TIP3    H172608   4.066   4.862   4.177 -0.1580  0.1901 -2.1977
17039TIP3    H272609   3.983   4.741   4.138  0.9730 -0.7195 -1.8538
17040TIP3   OH272610   4.046   5.772  12.549 -0.5571  0.0941 -0.4052
17040TIP3    H172611   4.098   5.694  12.530  1.5715  1.6327 -1.3326
17040TIP3    H272612   4.018   5.804  12.463 -1.5592  0.2658 -0.0266
17041TIP3   OH272613   5.422   0.569  15.076 -0.0692  0.5472 -0.0632
17041TIP3    H172614   5.370   0.504  15.122 -1.5314  1.0762 -0.9010
17041TIP3    H272615   5.358   0.629  15.037  1.1332  0.9649 -1.5280
17042TIP3   OH272616   4.112   1.883   2.622 -0.5696 -0.1947 -0.7981
17042TIP3    H172617   4.092   1.952   2.559 -2.0783 -0.1441 -0.2996
17042TIP3    H272618   4.066   1.909   2.701  3.5297  1.2686  1.3931
17043TIP3   OH272619   5.278   0.246  13.350 -0.4005  0.5338  0.4001
17043TIP3    H172620   5.309   0.227  13.262  0.5409  1.1172  0.5942
17043TIP3    H272621   5.298   0.167  13.401 -2.9959 -0.7419 -0.3644
17044TIP3   OH272622   2.917   5.707  15.411 -0.5422  0.0721  0.3477
17044TIP3    H172623   2.982   5.755  15.359 -0.5663  0.8857  1.0576
17044TIP3    H272624   2.909   5.623  15.366 -0.3035  0.6188 -0.7763
17045TIP3   OH272625   3.420   2.731  14.728  0.2246 -0.7268 -0.1337
17045TIP3    H172626   3.468   2.651  14.708 -0.7045 -1.2115 -0.4807
17045TIP3    H272627   3.474   2.801  14.692  0.2167 -1.3302 -1.3867
17046TIP3   OH272628   5.339   1.866  13.677 -0.2149  0.7279 -0.1525
17046TIP3    H172629   5.405   1.894  13.741 -0.2589  0.4498  0.0169
17046TIP3    H272630   5.259   1.912  13.703 -0.6540 -0.6030  0.9820
17047TIP3   OH272631   4.136   4.836  15.409  0.1104  0.4457  0.0277
17047TIP3    H172632   4.142   4.797  15.496 -0.6958 -0.2921 -0.2403
17047TIP3    H272633   4.053   4.883  15.408 -1.4215 -2.0746 -1.3110
17048TIP3   OH272634   2.065   0.986   2.364 -0.0566  0.4355  0.2756
17048TIP3    H172635   2.043   1.069   2.407  1.3500  1.3187 -0.6228
17048TIP3    H272636   2.036   0.919   2.426  2.3789  1.6325  2.9814
17049TIP3   OH272637   1.870   2.465  12.443  0.1381 -0.0699  0.0645
17049TIP3    H172638   1.857   2.522  12.367  1.1562 -0.1403 -0.1770
17049TIP3    H272639   1.902   2.383  12.407 -2.1189 -1.1642  0.3232
17050TIP3   OH272640   3.851   6.161   6.198 -0.6235  0.5521 -0.3206
17050TIP3    H172641   3.865   6.081   6.249  0.2540  0.5933 -0.4801
17050TIP3    H272642   3.771   6.199   6.234 -1.2080 -0.5422 -0.4281
17051TIP3   OH272643   3.613   5.784   3.746 -0.3951  0.1055  0.0239
17051TIP3    H172644   3.702   5.759   3.772  0.1691  1.6827 -0.2484
17051TIP3    H272645   3.584   5.715   3.687  0.6986 -0.3861  0.0473
17052TIP3   OH272646   6.598   4.547   0.479  0.2896  0.3641 -0.1571
17052TIP3    H172647   6.615   4.476   0.540  0.0428 -0.6349 -1.2095
17052TIP3    H272648   6.650   4.525   0.401 -0.3501  0.9534 -0.7684
17053TIP3   OH272649   4.418   2.309   3.390 -0.3679 -0.3261 -0.2677
17053TIP3    H172650   4.393   2.397   3.361  0.9585  0.3018  0.4045
17053TIP3    H272651   4.357   2.289   3.461  0.5661  0.9190  0.9373
17054TIP3   OH272652   4.874   6.296   3.846 -0.3690 -0.5590 -1.1629
17054TIP3    H172653   4.793   6.344   3.827 -0.7537 -1.0697 -0.8491
17054TIP3    H272654   4.914   6.343   3.919 -2.2416 -2.3359  1.1845
17055TIP3   OH272655   2.563   0.698   4.953  0.3872 -0.0400 -0.4571
17055TIP3    H172656   2.501   0.746   4.898  0.5829  0.3038 -0.3794
17055TIP3    H272657   2.633   0.761   4.970  1.1064 -0.6394 -1.1179
17056TIP3   OH272658   4.494   4.854  12.670 -0.6511  0.2916 -0.1935
17056TIP3    H172659   4.448   4.919  12.724  0.2831  1.3095 -0.5890
17056TIP3    H272660   4.584   4.887  12.665  0.5669 -2.3444  1.7454
17057TIP3   OH272661   0.209   2.454  11.170  0.4097  0.0547 -0.6367
17057TIP3    H172662   0.133   2.500  11.207  0.3216 -1.1563  0.7742
17057TIP3    H272663   0.229   2.503  11.090 -2.0139  0.2815 -1.2056
17058TIP3   OH272664   3.673   6.107  12.349  0.3362  0.1171 -0.0260
17058TIP3    H172665   3.647   6.112  12.257  2.5701 -0.4204 -0.7535
17058TIP3    H272666   3.695   6.197  12.374  3.0298 -0.1149 -1.1589
17059TIP3   OH272667   0.995   3.937   2.573 -0.1981  0.3211  0.3104
17059TIP3    H172668   1.054   3.905   2.641 -1.3618 -1.4293  0.5750
17059TIP3    H272669   0.944   4.005   2.615 -0.5282 -0.3695  1.0470
17060TIP3   OH272670   2.409   2.030   1.686 -0.5340 -0.2422  0.7737
17060TIP3    H172671   2.318   2.035   1.714 -0.9100  0.3009 -0.4797
17060TIP3    H272672   2.440   2.120   1.688 -0.9367  0.0077 -1.6174
17061TIP3   OH272673   3.393   4.649  13.315  0.7265 -0.3350  0.3417
17061TIP3    H172674   3.399   4.595  13.236 -0.4603  0.9678 -0.6884
17061TIP3    H272675   3.300   4.651  13.336  0.7196  1.2803  0.3263
17062TIP3   OH272676   2.413   1.832  12.725 -0.4500 -0.5557 -0.0104
17062TIP3    H172677   2.351   1.879  12.668  0.2308  2.4106  1.4810
17062TIP3    H272678   2.497   1.874  12.708  0.1381 -0.9544  1.7343
17063TIP3   OH272679   2.602   4.778  11.633 -0.4524 -0.6186  0.3931
17063TIP3    H172680   2.579   4.793  11.725  0.2700 -2.2623  0.8847
17063TIP3    H272681   2.532   4.820  11.584 -0.8600  0.2888  1.6899
17064TIP3   OH272682   3.629   3.378  11.318 -0.5651 -0.3212 -1.2798
17064TIP3    H172683   3.716   3.402  11.285 -0.3620  0.8042 -0.0201
17064TIP3    H272684   3.617   3.433  11.395 -1.1801 -2.5731  0.3158
17065TIP3   OH272685   6.125   4.538  10.913 -0.4744 -0.3536 -0.1200
17065TIP3    H172686   6.151   4.572  10.999  0.4610 -0.8642 -0.1864
17065TIP3    H272687   6.033   4.513  10.924  0.0493 -1.9314  1.2477
17066TIP3   OH272688   2.430   2.081  13.735 -0.2560 -0.5728 -0.0780
17066TIP3    H172689   2.382   2.162  13.716 -1.2347 -1.2696 -0.6413
17066TIP3    H272690   2.517   2.096  13.698 -0.0755  0.6319  0.7733
17067TIP3   OH272691   6.593   6.703   3.845 -0.2022 -0.3943 -0.4013
17067TIP3    H172692   6.689   6.709   3.844 -0.2219  0.8341 -2.6611
17067TIP3    H272693   6.573   6.630   3.786 -0.6819 -1.8149  1.4334
17068TIP3   OH272694   5.245   0.893  15.506 -0.0994  0.2147 -0.0295
17068TIP3    H172695   5.263   0.856  15.592 -1.4677  2.2274  1.2365
17068TIP3    H272696   5.165   0.848  15.477  2.2471 -3.0713 -2.0464
17069TIP3   OH272697   2.947   3.784   4.075 -0.0426  0.0944 -0.3077
17069TIP3    H172698   3.009   3.786   4.147 -0.5052 -1.9662  0.2230
17069TIP3    H272699   2.877   3.844   4.101 -0.6743 -1.3231  1.4659
17070TIP3   OH272700   0.935   3.505  10.909 -0.2617 -0.4161  0.3103
17070TIP3    H172701   0.908   3.438  10.846 -1.6356 -0.7786  1.2366
17070TIP3    H272702   1.031   3.503  10.907 -0.2862 -0.7341 -1.4155
17071TIP3   OH272703   5.558   5.728   0.149 -0.1054  0.2521 -0.1602
17071TIP3    H172704   5.594   5.816   0.161 -2.6860  1.2292  1.5101
17071TIP3    H272705   5.633   5.669   0.157  1.2352  2.1026  2.5652
17072TIP3   OH272706   0.401   6.217  16.536 -0.3605  0.4466  0.3298
17072TIP3    H172707   0.322   6.270  16.543 -1.9024 -1.5869 -0.4898
17072TIP3    H272708   0.415   6.206  16.442 -0.6881 -1.3372  0.4432
17073TIP3   OH272709   5.814   6.026   5.571  0.0767 -0.7353  0.1847
17073TIP3    H172710   5.841   6.062   5.487 -1.6102 -2.1097 -1.0289
17073TIP3    H272711   5.823   6.099   5.633 -0.5041  0.9160 -1.5776
17074TIP3   OH272712   3.573   0.145   2.975 -0.5663  0.4442  0.4035
17074TIP3    H172713   3.637   0.210   2.947 -0.1593 -1.1470 -2.7790
17074TIP3    H272714   3.588   0.136   3.070 -0.2442  4.3806  0.8729
17075TIP3   OH272715   3.499   4.125   0.389  0.5491 -0.5424 -0.0690
17075TIP3    H172716   3.525   4.038   0.360  0.4205 -0.1231 -1.5385
17075TIP3    H272717   3.575   4.180   0.368  0.4200 -0.2043  0.3406
17076TIP3   OH272718   3.538   4.116   0.677 -0.0091  0.0615  0.0481
17076TIP3    H172719   3.608   4.059   0.708  1.3813  0.3794 -2.2498
17076TIP3    H272720   3.519   4.084   0.589 -1.4622  1.1597 -0.0656
17077TIP3   OH272721   4.022   3.111   4.253  0.0168 -0.2181  0.7674
17077TIP3    H172722   3.947   3.092   4.309 -1.2588 -0.3528 -0.9101
17077TIP3    H272723   4.020   3.206   4.241  0.6982 -0.1045  1.4660
17078TIP3   OH272724   3.077   4.744  15.456  0.3004 -0.2076  0.6530
17078TIP3    H172725   3.026   4.771  15.380  3.0917  1.2831 -0.8407
17078TIP3    H272726   3.048   4.654  15.474 -0.1812 -0.7654 -2.4386
17079TIP3   OH272727   4.907   5.789  12.216 -0.0935  0.2558 -0.1422
17079TIP3    H172728   4.860   5.809  12.135  0.1539 -0.0299 -0.3603
17079TIP3    H272729   4.839   5.768  12.280 -0.2755  0.2256 -0.3482
17080TIP3   OH272730   4.764   2.242  15.124 -0.2675  0.5373  0.2452
17080TIP3    H172731   4.846   2.194  15.115 -1.4687 -1.2242 -2.4332
17080TIP3    H272732   4.733   2.222  15.212  0.2534 -2.0887 -0.1141
17081TIP3   OH272733   2.078   3.501   1.823 -0.5344  0.5269 -0.0064
17081TIP3    H172734   2.064   3.562   1.896 -1.7135  1.0303 -0.6423
17081TIP3    H272735   2.002   3.444   1.824 -0.1097 -0.0594 -0.2943
17082TIP3   OH272736   5.688   3.503   4.462  0.3296  0.5584  0.0524
17082TIP3    H172737   5.632   3.579   4.477  1.0492  1.1139 -0.0468
17082TIP3    H272738   5.666   3.443   4.534 -0.2342  0.8582  0.1393
17083TIP3   OH272739   0.907   4.384  16.308 -0.0142  0.6494  0.0907
17083TIP3    H172740   0.969   4.380  16.381  1.0824 -1.7856 -0.8912
17083TIP3    H272741   0.827   4.344  16.342  1.1286 -2.3972 -0.5211
17084TIP3   OH272742   0.901   5.161   0.108 -0.0538 -0.6356  0.2013
17084TIP3    H172743   0.950   5.203   0.037 -2.3380 -1.0252 -1.7415
17084TIP3    H272744   0.845   5.097   0.063 -1.7053 -0.7899  2.3516
17085TIP3   OH272745   1.485   4.531  13.153  0.3391  0.1357 -0.3515
17085TIP3    H172746   1.478   4.610  13.206 -0.8850  0.4436 -0.9311
17085TIP3    H272747   1.430   4.549  13.077  0.9383 -0.8457 -1.0363
17086TIP3   OH272748   4.039   2.720   4.477 -0.3577  0.0591 -0.0383
17086TIP3    H172749   3.966   2.766   4.518 -0.8212  0.1942 -0.9838
17086TIP3    H272750   4.044   2.756   4.389  0.6599 -0.1732 -0.0910
17087TIP3   OH272751   0.579   4.398   2.761  0.5514  0.1977 -0.1642
17087TIP3    H172752   0.598   4.368   2.672 -0.2688 -1.0661  0.0675
17087TIP3    H272753   0.665   4.402   2.803  0.8870  0.2390 -0.8393
17088TIP3   OH272754   4.558   4.211  16.171 -0.0345  0.0813  0.1246
17088TIP3    H172755   4.610   4.291  16.169  1.1569 -0.6857 -1.2418
17088TIP3    H272756   4.528   4.199  16.081 -0.1856 -1.0215  0.3112
17089TIP3   OH272757   6.535   6.774   1.169  0.1185 -0.6632  0.1259
17089TIP3    H172758   6.504   6.779   1.259 -0.0533 -0.2147  0.0435
17089TIP3    H272759   6.628   6.794   1.174 -0.4071  2.3105 -0.1157
17090TIP3   OH272760   4.081   2.449   4.417 -0.1360 -0.2943 -0.1617
17090TIP3    H172761   4.069   2.538   4.450 -0.8351 -0.4140 -0.0596
17090TIP3    H272762   4.148   2.456   4.350  1.2840 -0.0304  1.2314
17091TIP3   OH272763   0.606   3.544  10.134 -0.0494 -0.3162  0.0314
17091TIP3    H172764   0.590   3.635  10.157 -1.8108 -0.6555  0.2649
17091TIP3    H272765   0.695   3.544  10.097  0.2544  1.3527  0.6698
17092TIP3   OH272766   1.565   0.346  15.834  0.5438 -0.4946  0.2802
17092TIP3    H172767   1.577   0.293  15.913 -0.0481  0.2027  0.8574
17092TIP3    H272768   1.538   0.432  15.867  0.0838 -0.2532 -0.6937
17093TIP3   OH272769   4.723   6.354   2.736 -0.0437  0.1818 -0.0378
17093TIP3    H172770   4.780   6.288   2.696  0.9384  0.8947  0.1545
17093TIP3    H272771   4.668   6.303   2.796  2.0900 -0.2849  1.6696
17094TIP3   OH272772   0.374   2.471   0.320  0.1386  0.3315 -0.2234
17094TIP3    H172773   0.381   2.385   0.278 -0.1327 -0.2558  0.8861
17094TIP3    H272774   0.413   2.532   0.257 -1.8061 -0.2338 -2.0941
17095TIP3   OH272775   2.671   3.884   1.331 -0.4173 -0.3283  0.1933
17095TIP3    H172776   2.613   3.952   1.299 -0.3975 -0.3295  0.1539
17095TIP3    H272777   2.693   3.832   1.253 -1.5741 -1.2478  0.4533
17096TIP3   OH272778   5.230   2.382  17.093 -0.1879 -0.3584  0.0855
17096TIP3    H172779   5.137   2.361  17.087 -0.0899 -0.5078 -1.2973
17096TIP3    H272780   5.248   2.389  17.187 -1.5293 -0.5855  0.3698
17097TIP3   OH272781   6.065   6.303  14.916 -0.0633  0.1003  0.1794
17097TIP3    H172782   6.065   6.396  14.893 -4.3988  0.3416  0.2170
17097TIP3    H272783   6.110   6.261  14.843 -1.4688  2.0061 -1.9665
17098TIP3   OH272784   5.704   6.790  15.180 -0.8228 -0.3358 -0.0417
17098TIP3    H172785   5.615   6.758  15.196 -0.5148 -1.4931 -0.5771
17098TIP3    H272786   5.701   6.827  15.092 -1.1902  1.2540  0.5899
17099TIP3   OH272787   0.187   4.635   5.432 -0.1403 -0.0808  0.1270
17099TIP3    H172788   0.173   4.686   5.353  0.3445  0.3533  0.3160
17099TIP3    H272789   0.126   4.562   5.425 -0.0282 -0.0985 -0.6898
17100TIP3   OH272790   0.623   0.703   3.577  0.3162  0.0326 -0.1926
17100TIP3    H172791   0.574   0.712   3.495  1.7646 -2.4226 -1.4637
17100TIP3    H272792   0.715   0.700   3.550  0.9182  0.4155  1.6724
17101TIP3   OH272793   3.949   3.232  14.405  0.5411 -0.5804  0.1554
17101TIP3    H172794   3.904   3.158  14.445 -0.9843  0.7370  0.9822
17101TIP3    H272795   3.884   3.271  14.347  0.9673  0.7257  0.5368
17102TIP3   OH272796   1.726   2.315   4.138  0.1417 -0.8587 -0.6937
17102TIP3    H172797   1.761   2.321   4.227  4.1986 -0.2025 -2.1278
17102TIP3    H272798   1.724   2.405   4.106 -2.1140 -0.9914 -1.0585
17103TIP3   OH272799   2.589   0.014  12.897  0.0254 -0.2424 -0.2988
17103TIP3    H172800   2.621   0.089  12.946 -1.4407 -0.1436  0.5697
17103TIP3    H272801   2.645  -0.059  12.924 -0.7052 -0.1783  1.5284
17104TIP3   OH272802   3.668   5.268   2.364  0.1963  0.4175  0.1100
17104TIP3    H172803   3.733   5.228   2.422 -0.0148 -1.9847 -1.2232
17104TIP3    H272804   3.589   5.276   2.419  0.1496 -1.3343  0.3461
17105TIP3   OH272805   3.858   1.683   4.495  0.6458 -0.1307 -0.6128
17105TIP3    H172806   3.884   1.753   4.435 -1.2171  0.8341 -0.3747
17105TIP3    H272807   3.774   1.652   4.461 -0.7472  0.8144  1.7096
17106TIP3   OH272808   5.952   3.109   2.442 -0.4034 -0.1043  0.4298
17106TIP3    H172809   5.951   3.192   2.394  1.3414  0.0654  0.6270
17106TIP3    H272810   6.002   3.129   2.521 -2.7011 -0.5329  2.0902
17107TIP3   OH272811   1.735   1.376  13.472 -0.8099 -0.4056  0.7133
17107TIP3    H172812   1.727   1.335  13.386  0.5993 -0.2761  0.4964
17107TIP3    H272813   1.826   1.361  13.498 -0.8381  0.7217  1.5733
17108TIP3   OH272814   5.752   1.083   0.405 -0.3548 -0.0718  0.4624
17108TIP3    H172815   5.770   1.078   0.499 -0.7620  1.7825  0.6817
17108TIP3    H272816   5.747   1.177   0.386  1.3378 -0.3426 -1.7445
17109TIP3   OH272817   6.127   2.155   3.513 -0.1946 -0.4916 -0.0302
17109TIP3    H172818   6.046   2.117   3.481  0.5299 -0.0296 -2.6363
17109TIP3    H272819   6.104   2.246   3.533 -0.0867  0.0551 -2.1423
17110TIP3   OH272820   0.848   3.327   5.726  0.7897 -0.1684 -0.0250
17110TIP3    H172821   0.902   3.363   5.797  0.0189  1.0141 -0.0035
17110TIP3    H272822   0.900   3.255   5.691  0.2444 -2.3590  3.1955
17111TIP3   OH272823   4.150   2.206  15.989 -0.2498  0.2863 -0.0657
17111TIP3    H172824   4.119   2.116  15.986  0.9577 -0.1458 -2.5307
17111TIP3    H272825   4.070   2.259  15.989 -0.9658 -0.7562  0.7578
17112TIP3   OH272826   0.645   6.554   2.579 -0.7929  0.3317 -0.3849
17112TIP3    H172827   0.568   6.544   2.523  0.0176 -0.0387 -1.4644
17112TIP3    H272828   0.716   6.512   2.530 -0.2359 -0.8446  1.3320
17113TIP3   OH272829   2.924   1.785  13.349 -0.0386  0.1249 -0.1108
17113TIP3    H172830   3.019   1.791  13.358 -0.2680  2.9246  1.2990
17113TIP3    H272831   2.901   1.848  13.281 -1.0085  0.5426  0.5757
17114TIP3   OH272832   2.343   2.869  13.376  0.4402 -0.1074  0.6698
17114TIP3    H172833   2.293   2.839  13.301  0.1576  0.5723  0.5854
17114TIP3    H272834   2.386   2.790  13.409  2.5323 -0.0666 -1.6356
17115TIP3   OH272835   2.425   0.024   1.399 -0.5165  0.3461  0.0977
17115TIP3    H172836   2.374  -0.049   1.366  0.9180 -1.1746  1.0875
17115TIP3    H272837   2.483   0.048   1.326 -0.6272  0.1412 -0.0567
17116TIP3   OH272838   0.567   0.560  14.774  1.0028 -0.5586  0.0008
17116TIP3    H172839   0.628   0.523  14.710 -1.6192  0.9669 -3.7406
17116TIP3    H272840   0.481   0.534  14.743 -0.4986  0.0617  3.2015
17117TIP3   OH272841   5.300   2.318   6.439 -0.0825  0.1144 -0.0330
17117TIP3    H172842   5.287   2.229   6.405  0.7709 -0.0037 -0.0676
17117TIP3    H272843   5.234   2.327   6.508  0.6560 -1.0181  0.8633
17118TIP3   OH272844   2.460   2.757  12.818 -0.9847 -0.3197 -0.2753
17118TIP3    H172845   2.468   2.767  12.723  1.4705 -0.7987 -0.1733
17118TIP3    H272846   2.456   2.847  12.851  0.3821 -0.0647 -0.7244
17119TIP3   OH272847   4.340   1.428   1.321  0.2070 -0.3051  0.2100
17119TIP3    H172848   4.396   1.458   1.249  0.3985 -0.9311  0.0903
17119TIP3    H272849   4.315   1.508   1.367 -0.3761  0.1592 -0.8798
17120TIP3   OH272850   2.381   3.664  14.297 -0.1311 -0.5195 -0.0245
17120TIP3    H172851   2.415   3.752  14.317 -0.0076 -0.5213 -0.2222
17120TIP3    H272852   2.316   3.648  14.365  0.6024 -0.7048  0.6562
17121TIP3   OH272853   4.838   4.535  11.917 -1.0339  0.6479 -0.1198
17121TIP3    H172854   4.813   4.570  11.832 -1.1021 -1.5111 -1.0560
17121TIP3    H272855   4.781   4.460  11.930  0.4504 -0.3736  0.8115
17122TIP3   OH272856   1.235   4.396   2.956 -0.0552 -0.1169  0.2365
17122TIP3    H172857   1.150   4.405   2.999  0.4521 -1.9508  1.7867
17122TIP3    H272858   1.244   4.475   2.903 -0.8065  2.3976  3.4809
17123TIP3   OH272859   0.216   4.555  14.954 -0.1860 -1.1160  0.5147
17123TIP3    H172860   0.152   4.592  14.893  1.1265 -2.2249 -1.6645
17123TIP3    H272861   0.278   4.626  14.970 -0.1057 -1.0480 -0.0795
17124TIP3   OH272862   4.166   0.073   2.049  0.8561  0.1951  0.0374
17124TIP3    H172863   4.219   0.100   1.975  1.9303 -0.4457  0.5365
17124TIP3    H272864   4.191  -0.018   2.064 -0.6381 -0.2368  0.1009
17125TIP3   OH272865   5.869   0.669   3.571  0.0412  0.7143 -0.0507
17125TIP3    H172866   5.850   0.623   3.653 -0.6679  0.7804 -0.1781
17125TIP3    H272867   5.786   0.673   3.525  0.6562 -0.4130 -1.3436
17126TIP3   OH272868   0.791   6.602   1.389  0.4049  0.8876  0.2330
17126TIP3    H172869   0.811   6.560   1.473 -1.4224  0.3085  0.4162
17126TIP3    H272870   0.819   6.693   1.400 -1.1078  1.1937  2.0137
17127TIP3   OH272871   4.745   4.344  14.376  0.8521 -0.7930  0.7212
17127TIP3    H172872   4.662   4.370  14.418  1.0216 -0.5478  0.9045
17127TIP3    H272873   4.749   4.397  14.296  1.6855  0.5055  1.5948
17128TIP3   OH272874   5.480   0.033   0.551  0.1352  0.5014  0.0766
17128TIP3    H172875   5.502   0.126   0.539 -1.3249  0.8195 -0.3991
17128TIP3    H272876   5.453   0.026   0.642 -0.0470  0.6097  0.0309
17129TIP3   OH272877   4.109   3.686  13.657 -0.1805 -0.4869  0.2598
17129TIP3    H172878   4.119   3.760  13.716 -1.5470  0.4242 -0.5798
17129TIP3    H272879   4.158   3.710  13.579 -0.3984 -0.5790  0.0917
17130TIP3   OH272880   0.987   4.641  12.522 -0.3510  0.5859 -0.3438
17130TIP3    H172881   0.917   4.703  12.500 -1.4937 -0.4975  0.0572
17130TIP3    H272882   1.054   4.655  12.455 -1.0322  1.5402 -0.8512
17131TIP3   OH272883   5.865   3.757  11.500 -0.3050  0.7659  0.7632
17131TIP3    H172884   5.802   3.722  11.563  1.4144 -1.8757  1.1926
17131TIP3    H272885   5.871   3.690  11.432  0.6513  1.8043 -0.2167
17132TIP3   OH272886   1.412   1.185  12.008  0.5659  0.4571 -0.1196
17132TIP3    H172887   1.487   1.132  11.980 -0.7703 -0.9605 -1.2324
17132TIP3    H272888   1.437   1.218  12.094  1.8121 -1.3617  0.2928
17133TIP3   OH272889   0.755   4.950   4.017  0.5938  0.0023 -0.3991
17133TIP3    H172890   0.809   5.006   3.961 -0.1316  1.0524 -0.0750
17133TIP3    H272891   0.794   4.863   4.009  3.4322  1.0083  1.1485
17134TIP3   OH272892   4.833   6.523   4.333 -1.2162 -0.4722 -0.1899
17134TIP3    H172893   4.793   6.453   4.384  0.0202 -2.5490 -1.9319
17134TIP3    H272894   4.762   6.556   4.277 -1.6042 -0.9255  0.0271
17135TIP3   OH272895   5.370   2.442  14.151 -0.4188 -0.1258  0.3535
17135TIP3    H172896   5.461   2.447  14.121 -0.0491 -1.7955  1.0625
17135TIP3    H272897   5.377   2.430  14.246 -1.4929  2.4376  0.8281
17136TIP3   OH272898   1.516   3.248   5.648  0.5017 -0.6077 -0.2408
17136TIP3    H172899   1.444   3.311   5.645  1.4808  0.8080  2.3295
17136TIP3    H272900   1.592   3.296   5.616  0.8268 -1.2068 -0.3870
17137TIP3   OH272901   0.224   3.729  15.779  0.3926 -0.2242  0.1831
17137TIP3    H172902   0.279   3.743  15.856  0.8334 -0.5229 -0.0692
17137TIP3    H272903   0.200   3.637  15.783  0.0897 -0.1441  0.1779
17138TIP3   OH272904   4.367   4.398  11.487 -0.1344 -0.3824  0.2724
17138TIP3    H172905   4.458   4.377  11.507 -0.4342 -0.4490  1.6843
17138TIP3    H272906   4.360   4.387  11.392  1.6502  0.9265 -0.0663
17139TIP3   OH272907   5.103   0.297  14.991 -0.1317  0.0047  0.4042
17139TIP3    H172908   5.029   0.345  15.029 -0.0355  0.5140 -0.0314
17139TIP3    H272909   5.098   0.317  14.897 -0.7601 -1.7574  0.0172
17140TIP3   OH272910   1.468   4.326   2.761  0.4965  0.4751  0.1820
17140TIP3    H172911   1.545   4.347   2.814  0.5953  0.8789 -0.1129
17140TIP3    H272912   1.401   4.389   2.788  0.3023  0.1925  0.3633
17141TIP3   OH272913   1.405   0.755   6.055 -0.2519 -0.1909  0.4162
17141TIP3    H172914   1.439   0.668   6.072  0.0692 -0.3511 -0.9576
17141TIP3    H272915   1.457   0.788   5.982  0.0164  1.3898  1.2560
17142TIP3   OH272916   1.844   1.937  12.512 -0.2694 -0.3386 -0.5352
17142TIP3    H172917   1.836   1.949  12.607 -0.3465 -0.6174 -0.5061
17142TIP3    H272918   1.763   1.974  12.477 -0.1063  0.0444 -0.5188
17143TIP3   OH272919   6.530   4.451   5.793  0.3603  0.3098  0.0509
17143TIP3    H172920   6.495   4.377   5.841 -0.7685  0.3829 -0.6361
17143TIP3    H272921   6.454   4.502   5.767  1.1562  2.5080  1.7097
17144TIP3   OH272922   1.504   5.062  16.121 -0.3572  0.2003  0.2322
17144TIP3    H172923   1.537   5.032  16.036 -1.4765 -0.3901 -0.0165
17144TIP3    H272924   1.558   5.015  16.185 -1.9858 -2.4457 -0.1451
17145TIP3   OH272925   2.737   4.295  10.765 -0.3887 -0.5362  0.6122
17145TIP3    H172926   2.714   4.354  10.837 -0.4093 -0.7928  0.8175
17145TIP3    H272927   2.661   4.296  10.707  0.1188  0.6694 -0.0738
17146TIP3   OH272928   5.961   3.330   6.461  0.0544  0.0511  0.0078
17146TIP3    H172929   5.912   3.274   6.400 -0.8204  1.5405 -0.7132
17146TIP3    H272930   5.984   3.272   6.533 -2.4869 -0.8291  0.2253
17147TIP3   OH272931   3.731   6.695   0.299  0.0725 -0.0587  0.5992
17147TIP3    H172932   3.705   6.686   0.208 -0.9857 -0.7347  0.9403
17147TIP3    H272933   3.741   6.789   0.313  0.6363  0.0204 -0.3076
17148TIP3   OH272934   3.146   1.182  13.261 -0.1358 -0.3192  0.5219
17148TIP3    H172935   3.089   1.134  13.201  0.3792  1.0016 -1.1236
17148TIP3    H272936   3.219   1.210  13.206 -0.5501  2.5378  1.2751
17149TIP3   OH272937   0.703   4.176  16.904  0.1350 -0.0554 -0.3803
17149TIP3    H172938   0.685   4.082  16.901 -0.0174 -0.0367 -0.0121
17149TIP3    H272939   0.795   4.182  16.930  0.2584 -0.1086 -0.7838
17150TIP3   OH272940   4.472   6.658  16.685 -0.0005 -0.6822  0.0811
17150TIP3    H172941   4.487   6.619  16.771  0.1305  0.9085  0.8004
17150TIP3    H272942   4.560   6.680  16.653 -0.1884  1.9348  1.1183
17151TIP3   OH272943   0.033   1.831   5.860 -0.7308  0.6579  0.0534
17151TIP3    H172944   0.017   1.849   5.952 -0.2093 -0.3612  0.3592
17151TIP3    H272945  -0.032   1.765   5.836 -0.3006  0.2654 -0.0602
17152TIP3   OH272946   4.624   1.975  12.986 -0.1400  0.3473 -0.1086
17152TIP3    H172947   4.577   1.913  13.042  0.2884 -0.5819 -0.7597
17152TIP3    H272948   4.715   1.945  12.987  0.4614  2.0385  1.0205
17153TIP3   OH272949   1.358   3.835  14.760  0.0524  0.0424 -0.4435
17153TIP3    H172950   1.425   3.903  14.749  0.2886 -0.4435 -2.2664
17153TIP3    H272951   1.347   3.798  14.672  1.9343 -4.2094  0.8587
17154TIP3   OH272952   6.639   1.263   4.233  0.2280 -0.8187 -0.7665
17154TIP3    H172953   6.692   1.266   4.312  0.9078 -0.3564 -1.2253
17154TIP3    H272954   6.610   1.353   4.219 -3.6637 -1.5026  1.3869
17155TIP3   OH272955   3.628   2.667   4.796 -0.3026 -0.0392  0.0934
17155TIP3    H172956   3.648   2.647   4.888  1.3474 -1.8753 -0.6081
17155TIP3    H272957   3.681   2.744   4.777  0.6999 -0.6835  0.2223
17156TIP3   OH272958   4.703   4.469   6.130 -0.0876  0.3114 -0.2408
17156TIP3    H172959   4.620   4.498   6.168  0.6805  0.3662  1.4798
17156TIP3    H272960   4.762   4.459   6.205  0.9533 -1.4777 -1.2134
17157TIP3   OH272961   4.058   3.436   3.988  0.4432  0.8932 -0.9613
17157TIP3    H172962   4.108   3.376   3.933 -0.9411 -2.3147  1.0135
17157TIP3    H272963   3.968   3.430   3.956  0.0878  1.0181 -0.0128
17158TIP3   OH272964   1.555   4.118  12.425  0.3843 -0.1720  0.1436
17158TIP3    H172965   1.530   4.044  12.480  1.4901  1.2024  2.6634
17158TIP3    H272966   1.494   4.188  12.450  0.4921  0.3012 -0.8744
17159TIP3   OH272967   1.527   5.535  11.458  0.1963 -0.3927  0.1525
17159TIP3    H172968   1.527   5.473  11.530  1.9627  0.7377  1.1960
17159TIP3    H272969   1.616   5.534  11.424 -0.2011  0.2535 -0.9787
17160TIP3   OH272970   4.661   2.239   3.881  0.4578 -0.1440 -0.2797
17160TIP3    H172971   4.751   2.214   3.857  0.4906  0.5198 -0.8695
17160TIP3    H272972   4.632   2.296   3.809 -0.4990 -0.4941 -0.1812
17161TIP3   OH272973   0.343   3.792  16.497  0.3545 -0.6513 -0.1563
17161TIP3    H172974   0.293   3.726  16.449 -0.9832 -0.3794  0.8031
17161TIP3    H272975   0.311   3.786  16.587  0.3556  1.1342  0.0030
17162TIP3   OH272976   1.798   2.459  11.726 -0.3236  0.6405 -0.0213
17162TIP3    H172977   1.704   2.451  11.742 -0.4225  0.0295 -0.8383
17162TIP3    H272978   1.819   2.386  11.668  0.5774  1.0037 -0.1721
17163TIP3   OH272979   1.054   6.562   4.066 -0.0293 -0.2006  0.6849
17163TIP3    H172980   1.110   6.509   4.122  1.3425 -1.0747 -1.3857
17163TIP3    H272981   0.984   6.503   4.039  0.0365 -0.1878  0.4794
17164TIP3   OH272982   2.456   5.285  11.624 -0.2551  0.1256 -0.2622
17164TIP3    H172983   2.426   5.375  11.631  2.0066  0.9819 -0.8681
17164TIP3    H272984   2.525   5.287  11.557 -0.7085 -2.2118 -0.9053
17165TIP3   OH272985   2.792   4.033  10.989 -0.1785 -0.0108 -0.5160
17165TIP3    H172986   2.798   3.941  10.962 -2.9111 -0.3248 -0.3242
17165TIP3    H272987   2.848   4.039  11.067 -0.7014 -1.7578  0.0367
17166TIP3   OH272988   3.796   4.747  12.348 -0.2130 -0.2326 -0.1014
17166TIP3    H172989   3.779   4.803  12.424 -0.4483  1.4366 -1.3207
17166TIP3    H272990   3.751   4.791  12.276  2.0485 -0.4031 -1.7223
17167TIP3   OH272991   3.242   2.076   5.425  0.3947  0.0285 -0.5960
17167TIP3    H172992   3.235   1.996   5.373  0.5882 -2.2562  2.5743
17167TIP3    H272993   3.152   2.106   5.433 -0.0784 -1.4991  0.3635
17168TIP3   OH272994   4.550   2.321   1.788  0.0722  0.0516 -0.5557
17168TIP3    H172995   4.594   2.375   1.854 -0.5876 -0.0819  0.0016
17168TIP3    H272996   4.456   2.334   1.805 -0.0960 -0.8691 -0.7529
17169TIP3   OH272997   4.462   2.852  11.675 -0.2000 -0.0270  0.7246
17169TIP3    H172998   4.411   2.781  11.715 -1.3303 -0.5477 -1.5104
17169TIP3    H272999   4.521   2.809  11.614 -0.3263  0.9063 -0.0779
17170TIP3   OH273000   2.551   6.521   3.949 -0.1211  0.0257  1.0352
17170TIP3    H173001   2.641   6.539   3.921 -0.0263  1.6325  2.2629
17170TIP3    H273002   2.508   6.487   3.871  1.2735  0.2270  0.1497
17171TIP3   OH273003   6.348   3.772  16.083 -0.4531  0.3528  0.2536
17171TIP3    H173004   6.410   3.735  16.021 -0.5292 -0.4194  0.6284
17171TIP3    H273005   6.293   3.830  16.030 -0.1339  0.1693 -0.2827
17172TIP3   OH273006   2.963   1.221   4.357  0.1364 -0.5827 -0.3439
17172TIP3    H173007   2.986   1.309   4.386 -3.0840  0.5734 -0.8879
17172TIP3    H273008   3.031   1.165   4.395  2.4771  2.0887 -0.1789
17173TIP3   OH273009   0.154   5.366  15.547  0.3681 -0.3169  0.0023
17173TIP3    H173010   0.140   5.447  15.498  0.8322 -0.5584 -0.5441
17173TIP3    H273011   0.121   5.385  15.635  0.9998  0.6597  0.0457
17174TIP3   OH273012   0.457   6.313  12.624  0.0258  0.1287 -0.8545
17174TIP3    H173013   0.458   6.333  12.717  1.1030  0.4618 -0.9235
17174TIP3    H273014   0.368   6.284  12.606 -0.1943  0.0812  0.2731
17175TIP3   OH273015   4.083   0.633  15.394  0.0505 -0.0081 -0.7877
17175TIP3    H173016   4.119   0.571  15.331  0.8579  0.8089 -1.1520
17175TIP3    H273017   4.013   0.678  15.346 -0.6271 -0.7111 -0.4804
17176TIP3   OH273018   0.113   2.823  16.394 -0.1550  0.4778  0.8987
17176TIP3    H173019   0.083   2.892  16.334 -2.3831  0.7858  2.2538
17176TIP3    H273020   0.042   2.760  16.396  1.5899 -1.6480  0.1743
17177TIP3   OH273021   2.299   1.974   1.382 -0.0969  0.1254 -0.1887
17177TIP3    H173022   2.264   2.031   1.451  1.4715  1.8817 -0.7621
17177TIP3    H273023   2.315   2.033   1.308  0.4115 -1.3088 -1.2692
17178TIP3   OH273024   6.612   4.871   1.097 -0.3471  0.2434 -0.5163
17178TIP3    H173025   6.585   4.803   1.034 -0.4915 -0.8004  0.6351
17178TIP3    H273026   6.708   4.871   1.091 -0.3986  1.6630 -2.2462
17179TIP3   OH273027   2.559   4.486  11.656  0.3975 -0.2306 -0.2906
17179TIP3    H173028   2.478   4.493  11.705  1.0189  0.6229  0.6701
17179TIP3    H273029   2.564   4.568  11.606  1.8457  0.9369  1.6137
17180TIP3   OH273030   6.660   6.410   6.434 -0.5675  0.1076  0.0737
17180TIP3    H173031   6.717   6.427   6.508 -0.6450 -0.1126  0.1858
17180TIP3    H273032   6.645   6.315   6.436 -1.4554  0.2416  0.4344
17181TIP3   OH273033   1.908   4.401   5.404 -0.5193 -0.5330  0.3488
17181TIP3    H173034   1.821   4.363   5.394 -0.4270 -1.2647  2.0814
17181TIP3    H273035   1.893   4.487   5.443 -0.5684  0.3037 -1.4054
17182TIP3   OH273036   4.690   1.821  12.742 -0.5191 -0.6060 -0.3813
17182TIP3    H173037   4.740   1.748  12.780 -1.6792 -0.9186  0.6041
17182TIP3    H273038   4.723   1.828  12.652  1.8782 -0.2405  0.4459
17183TIP3   OH273039   1.347   0.329   4.569  0.3158  0.2965  0.2467
17183TIP3    H173040   1.274   0.390   4.583 -0.3017 -0.7338  1.7945
17183TIP3    H273041   1.364   0.292   4.656  1.4986 -0.8170 -0.4332
17184TIP3   OH273042   2.450   5.414  17.087  0.2451 -0.4659 -0.0687
17184TIP3    H173043   2.448   5.322  17.113  0.5717 -0.1566  1.1224
17184TIP3    H273044   2.498   5.414  17.005  1.1245 -1.2618  0.4183
17185TIP3   OH273045   0.096   3.046   2.565 -0.1220 -0.1154 -0.2596
17185TIP3    H173046   0.096   2.953   2.544 -1.9843 -0.5567  1.3571
17185TIP3    H273047   0.180   3.078   2.534  0.7983 -2.4388 -0.3485
17186TIP3   OH273048   0.514   2.162  15.129 -1.0890 -0.3172  0.0943
17186TIP3    H173049   0.567   2.205  15.195 -1.0030  3.3671 -2.1215
17186TIP3    H273050   0.424   2.172  15.159 -1.3154  3.8118 -1.3116
17187TIP3   OH273051   3.990   4.860  17.051 -0.0779  0.5554 -0.4117
17187TIP3    H173052   3.937   4.895  17.123  1.7418  0.4668  1.0393
17187TIP3    H273053   3.927   4.815  16.995 -1.2844 -2.1016  2.7383
17188TIP3   OH273054   2.214   6.537   0.252 -0.6243  0.2868  0.5265
17188TIP3    H173055   2.228   6.443   0.244 -0.7557  0.2594  0.6097
17188TIP3    H273056   2.233   6.572   0.165 -1.7709  0.0209  0.1459
17189TIP3   OH273057   6.339   6.634   3.571 -0.1567  0.3750 -0.0023
17189TIP3    H173058   6.261   6.581   3.554 -0.7615  0.8720  1.0614
17189TIP3    H273059   6.308   6.701   3.633  0.7765  1.4594 -0.6808
17190TIP3   OH273060   3.771   3.451  16.031  0.3435 -0.1234  0.4683
17190TIP3    H173061   3.859   3.487  16.042  0.5377  0.0059 -1.2160
17190TIP3    H273062   3.732   3.503  15.961  0.1704 -2.3180 -1.1662
17191TIP3   OH273063   1.778   6.710   0.129 -0.0003  0.1545  0.3315
17191TIP3    H173064   1.827   6.758   0.063 -0.3202  0.7582  0.5208
17191TIP3    H273065   1.822   6.626   0.135  0.4441  0.3439 -0.1626
17192TIP3   OH273066   0.063   4.953   4.720  0.2714 -0.1464  0.1757
17192TIP3    H173067   0.031   4.999   4.798  1.6779 -1.4023  1.5482
17192TIP3    H273068   0.018   4.869   4.721 -0.3233  0.1331 -0.8717
17193TIP3   OH273069   3.023   6.090   4.295 -0.5476  0.1509 -0.3866
17193TIP3    H173070   2.991   6.022   4.355 -2.2566 -0.1731 -1.5737
17193TIP3    H273071   3.058   6.042   4.220 -1.7312  0.5257 -1.2196
17194TIP3   OH273072   1.771   0.787   3.516 -0.1724 -0.1185 -0.2398
17194TIP3    H173073   1.766   0.807   3.423  1.3752 -2.9512 -1.0564
17194TIP3    H273074   1.725   0.703   3.525  1.2299 -0.8045  1.1636
17195TIP3   OH273075   3.420   5.823   6.227 -0.6059  0.0789  0.7645
17195TIP3    H173076   3.444   5.735   6.199 -1.4605  0.1824 -0.3982
17195TIP3    H273077   3.492   5.878   6.196 -0.8541 -0.0081 -0.0043
17196TIP3   OH273078   6.286   4.479   0.755  0.3183 -0.5943 -0.7442
17196TIP3    H173079   6.303   4.548   0.690  0.0681 -0.3923 -0.5962
17196TIP3    H273080   6.256   4.526   0.832 -0.6295 -0.9206 -0.9041
17197TIP3   OH273081   1.175   0.102  13.339 -0.1737  0.0370 -0.0829
17197TIP3    H173082   1.219   0.187  13.345  0.1227 -0.1514  0.4944
17197TIP3    H273083   1.084   0.121  13.364 -0.6462  0.5634 -1.9818
17198TIP3   OH273084   6.530   5.772  16.790 -0.5005 -0.2609  0.1634
17198TIP3    H173085   6.544   5.742  16.880  0.0899 -0.1530  0.1110
17198TIP3    H273086   6.451   5.825  16.795 -0.6318 -0.4846  0.5680
17199TIP3   OH273087   3.567   1.680   1.675 -0.5591  0.4124 -0.2788
17199TIP3    H173088   3.626   1.700   1.602 -0.1296 -1.1454 -0.3980
17199TIP3    H273089   3.616   1.707   1.753 -0.4001  0.7067 -0.4788
17200TIP3   OH273090   0.765   6.080   1.496 -0.2501  0.4917  0.2270
17200TIP3    H173091   0.705   6.086   1.571  0.6808  1.6674  0.9138
17200TIP3    H273092   0.852   6.082   1.535  0.2633 -0.8463 -0.7900
17201TIP3   OH273093   3.931   5.865   1.763  0.3035  0.0247  0.1280
17201TIP3    H173094   3.976   5.934   1.812  1.1726  0.4156 -1.1699
17201TIP3    H273095   3.985   5.851   1.686  0.3665 -2.4114  0.5260
17202TIP3   OH273096   6.038   2.516   2.410  0.1346  0.4876  0.5203
17202TIP3    H173097   6.032   2.593   2.467  0.8672  0.9120  0.0506
17202TIP3    H273098   6.026   2.441   2.469 -0.3955  0.9526  1.0152
17203TIP3   OH273099   3.938   2.672   5.515 -0.3324  0.8692  0.4641
17203TIP3    H173100   3.875   2.705   5.580 -0.8670 -1.4439  1.1945
17203TIP3    H273101   3.896   2.691   5.431 -1.4714  0.4689  0.9141
17204TIP3   OH273102   1.385   1.189   1.464  0.6355  0.5115 -0.2009
17204TIP3    H173103   1.308   1.189   1.521  1.1603 -0.1759  0.5334
17204TIP3    H273104   1.379   1.271   1.414  0.7579  1.7222  1.6786
17205TIP3   OH273105   2.386   0.067  13.082 -0.2031 -0.3687 -0.4579
17205TIP3    H173106   2.420   0.155  13.069 -0.4216 -0.3009 -0.5648
17205TIP3    H273107   2.421   0.017  13.008  0.9920 -0.6860  0.2901
17206TIP3   OH273108   1.945   1.429  12.039  0.2554  0.1130  0.0894
17206TIP3    H173109   1.945   1.403  12.131  0.5133 -1.3785 -0.3046
17206TIP3    H273110   2.013   1.497  12.033  0.0903  0.3724  1.0214
17207TIP3   OH273111   5.729   5.456   1.924  0.2150 -0.3046 -0.0715
17207TIP3    H173112   5.646   5.426   1.960 -0.8231  2.4095  0.0772
17207TIP3    H273113   5.741   5.406   1.843 -1.1216 -1.3339  0.3403
17208TIP3   OH273114   2.132   2.343   1.173 -0.5476  0.1466  0.0125
17208TIP3    H173115   2.122   2.301   1.088  1.8873 -1.8321  0.5869
17208TIP3    H273116   2.099   2.279   1.236 -0.7253  0.8679  0.6765
17209TIP3   OH273117   0.827   3.210  10.365 -0.3507  0.0644  0.6743
17209TIP3    H173118   0.833   3.240  10.275  2.9380 -2.1544 -0.0139
17209TIP3    H273119   0.737   3.176  10.373 -0.3913 -0.7078 -2.1676
17210TIP3   OH273120   2.313   5.768  13.002  0.2661 -0.1928 -0.2104
17210TIP3    H173121   2.248   5.759  12.932  0.6318 -0.2622 -0.5410
17210TIP3    H273122   2.397   5.751  12.960  0.6779  1.5613 -0.1826
17211TIP3   OH273123   5.955   0.516  16.117  0.3104 -0.6453 -0.1713
17211TIP3    H173124   5.985   0.447  16.058 -0.1478 -0.3714 -0.7329
17211TIP3    H273125   6.032   0.572  16.128  0.9189 -1.6450  0.9069
17212TIP3   OH273126   3.718   1.381   5.519  0.1659  0.2744 -0.2022
17212TIP3    H173127   3.788   1.440   5.492 -1.3079  1.4774 -1.6340
17212TIP3    H273128   3.762   1.311   5.567  2.0473  2.2503  1.1159
17213TIP3   OH273129   1.261   3.787  10.928 -0.2252  0.5556  0.0996
17213TIP3    H173130   1.184   3.844  10.938  1.0794  2.1480  1.6387
17213TIP3    H273131   1.303   3.818  10.848 -0.9935 -0.1086 -0.5731
17214TIP3   OH273132   5.554   6.121  13.181  0.2728  0.8270 -0.1324
17214TIP3    H173133   5.625   6.062  13.208 -0.9561 -0.2663  0.8099
17214TIP3    H273134   5.599   6.192  13.135  1.7299 -1.4226 -2.4495
17215TIP3   OH273135   0.377   4.610   3.738  0.1391 -0.1128 -0.2176
17215TIP3    H173136   0.370   4.522   3.700 -4.2585 -1.5080  2.9522
17215TIP3    H273137   0.450   4.604   3.799  1.5232 -0.6277 -1.8226
17216TIP3   OH273138   4.198   0.513  11.552 -0.3174  0.0048  0.7184
17216TIP3    H173139   4.165   0.551  11.471 -2.7515 -0.2473  1.5235
17216TIP3    H273140   4.214   0.421  11.530  2.0508  0.5544 -0.2302
17217TIP3   OH273141   2.232   1.692   4.174  0.4106  0.3004 -0.3088
17217TIP3    H173142   2.277   1.621   4.128 -0.1536 -0.9254  0.9567
17217TIP3    H273143   2.292   1.718   4.243  0.2961  0.5137 -0.2887
17218TIP3   OH273144   6.395   3.852  13.910  0.5209  0.0015  0.1588
17218TIP3    H173145   6.366   3.764  13.932  1.1257 -0.2550 -0.0434
17218TIP3    H273146   6.314   3.903  13.901  0.1658 -0.5582  0.1600
17219TIP3   OH273147   1.894   5.178  13.629  0.2161 -0.2923 -0.3936
17219TIP3    H173148   1.952   5.230  13.573  1.4993 -1.1270  0.1143
17219TIP3    H273149   1.845   5.123  13.567  0.5502 -0.1484 -0.7947
17220TIP3   OH273150   0.383   5.027   5.724 -0.0032  0.7405  0.0041
17220TIP3    H173151   0.387   4.972   5.646  1.4820  1.5873 -0.5455
17220TIP3    H273152   0.459   5.001   5.776  0.2178  1.6638  0.1501
17221TIP3   OH273153   6.359   2.735  16.574 -0.1447  0.5591  0.7730
17221TIP3    H173154   6.400   2.711  16.491 -0.0952  0.5108  0.8116
17221TIP3    H273155   6.390   2.824  16.590  1.9445 -0.3236  2.0121
17222TIP3   OH273156   3.631   4.523   5.193 -0.8301 -0.0610  0.2398
17222TIP3    H173157   3.550   4.514   5.243 -1.3680 -0.6957 -0.7328
17222TIP3    H273158   3.603   4.531   5.102  0.2086 -0.6615 -0.1527
17223TIP3   OH273159   6.061   2.906  15.013 -0.6887 -0.3023 -0.2006
17223TIP3    H173160   6.128   2.871  15.071  1.1904  1.1908 -1.3413
17223TIP3    H273161   6.013   2.969  15.068  1.0136  1.0453 -0.1923
17224TIP3   OH273162   4.306   0.584   3.043  0.6604 -0.3943  0.0533
17224TIP3    H173163   4.303   0.669   3.087  2.3219 -0.8184  1.0738
17224TIP3    H273164   4.275   0.522   3.110  1.7013 -0.8595  0.1149
17225TIP3   OH273165   0.629   2.151   1.579  0.0842  0.7805 -1.0647
17225TIP3    H173166   0.670   2.133   1.494  0.4075 -1.3375 -0.5220
17225TIP3    H273167   0.535   2.143   1.562  0.1088  1.1106 -1.3674
17226TIP3   OH273168   2.537   2.614   3.107  0.0489  0.6087  0.1244
17226TIP3    H173169   2.490   2.697   3.103  0.2609  0.7200 -0.1071
17226TIP3    H273170   2.556   2.592   3.015  0.4852  0.5907  0.2156
17227TIP3   OH273171   6.521   1.548   2.228  0.3320  0.0788  0.5056
17227TIP3    H173172   6.588   1.547   2.296  0.0515 -1.3922  0.8048
17227TIP3    H273173   6.495   1.640   2.221  3.1822  0.9119 -0.4514
17228TIP3   OH273174   0.044   5.743  17.197  0.5629 -0.0145 -0.7217
17228TIP3    H173175   0.045   5.821  17.141  0.7111  0.9582  0.5884
17228TIP3    H273176   0.001   5.772  17.277 -0.1009 -1.5166 -0.5134
17229TIP3   OH273177   4.348   1.404   2.443  0.4872 -0.3858 -0.6107
17229TIP3    H173178   4.273   1.345   2.446  0.1829  0.0241  0.5888
17229TIP3    H273179   4.368   1.415   2.350 -1.6767  0.4399 -1.0180
17230TIP3   OH273180   0.518   6.743  14.411 -0.2657 -0.5468 -0.1829
17230TIP3    H173181   0.425   6.763  14.414 -0.7514 -2.4672 -0.6990
17230TIP3    H273182   0.559   6.805  14.471 -2.0992 -0.8169  1.4428
17231TIP3   OH273183   5.723   3.709   1.162 -0.0096  0.0609 -0.3753
17231TIP3    H173184   5.778   3.751   1.229  0.4311 -0.5054 -0.3723
17231TIP3    H273185   5.664   3.778   1.133  0.0480  0.4205  0.3286
17232TIP3   OH273186   6.760   1.269  15.932 -0.3689 -0.3902 -0.2398
17232TIP3    H173187   6.760   1.332  15.860  1.4036 -0.2233 -0.1429
17232TIP3    H273188   6.850   1.237  15.936 -0.3637 -0.2603  2.0268
17233TIP3   OH273189   1.584   4.603  15.010  0.2608  0.4013 -0.0178
17233TIP3    H173190   1.550   4.690  14.986  1.5695  0.6326 -1.1775
17233TIP3    H273191   1.505   4.551  15.028 -0.6598  1.2554 -1.3710
17234TIP3   OH273192   0.987   2.101  14.162 -0.3004 -0.5871 -0.4563
17234TIP3    H173193   0.966   2.094  14.069  1.2607  1.2839 -1.0380
17234TIP3    H273194   0.962   2.191  14.185  0.1349 -0.7418  0.6913
17235TIP3   OH273195   6.556   2.652  15.537 -0.2421 -0.0500  0.0277
17235TIP3    H173196   6.543   2.559  15.516 -0.4677 -0.6199  2.3570
17235TIP3    H273197   6.648   2.658  15.560 -0.8641 -0.5546  3.1796
17236TIP3   OH273198   2.140   3.877  12.198 -0.1328  0.1222  0.4897
17236TIP3    H173199   2.191   3.797  12.192  0.9071  0.8439 -1.2575
17236TIP3    H273200   2.065   3.862  12.141  1.3092  1.1750 -1.8325
17237TIP3   OH273201   2.874   0.736  16.448  0.3831 -0.0718  0.4707
17237TIP3    H173202   2.815   0.725  16.523 -0.3619  1.6464  0.1806
17237TIP3    H273203   2.939   0.799  16.479  0.9966 -0.5689  0.1891
17238TIP3   OH273204   5.976   4.414  14.646 -0.3238  0.3154 -0.8423
17238TIP3    H173205   5.932   4.392  14.729  1.0731 -1.3352 -0.4805
17238TIP3    H273206   6.034   4.487  14.669 -0.9582  0.7879 -0.7119
17239TIP3   OH273207   5.225   0.243   4.053  0.1094 -0.6080  0.0248
17239TIP3    H173208   5.133   0.269   4.049  0.6014  1.0988 -2.1106
17239TIP3    H273209   5.250   0.231   3.961  1.7445 -2.1517  0.6263
17240TIP3   OH273210   4.748   4.224   5.789 -0.0106 -0.4065  0.2177
17240TIP3    H173211   4.749   4.319   5.793 -2.3815 -0.3116  0.1037
17240TIP3    H273212   4.807   4.196   5.859 -1.3191  1.1803  2.0607
17241TIP3   OH273213   5.269   4.998   5.188 -0.0931 -0.0734 -0.4174
17241TIP3    H173214   5.357   5.016   5.221 -0.2229 -0.0956 -0.0523
17241TIP3    H273215   5.273   4.909   5.155  0.4260  0.4342 -1.7893
17242TIP3   OH273216   6.243   0.233  11.864 -0.2242 -0.0295  0.0028
17242TIP3    H173217   6.330   0.273  11.862 -0.3484  0.2295 -1.2728
17242TIP3    H273218   6.241   0.183  11.945  0.9542  0.3164  0.2598
17243TIP3   OH273219   5.819   2.482   2.260 -0.2129 -0.0075  0.1336
17243TIP3    H173220   5.882   2.483   2.332  1.7603  1.0219 -1.4837
17243TIP3    H273221   5.786   2.572   2.256  0.1649  0.1135 -0.5773
17244TIP3   OH273222   4.423   3.246   1.462  0.4893  0.9795 -0.7829
17244TIP3    H173223   4.416   3.317   1.526 -1.8690  1.0427 -1.0225
17244TIP3    H273224   4.372   3.175   1.501  0.9031  0.2199 -1.5988
17245TIP3   OH273225   3.066   6.727  11.105  0.0670 -0.1943 -0.5475
17245TIP3    H173226   3.029   6.813  11.085  1.3750  0.0297 -2.2851
17245TIP3    H273227   3.108   6.739  11.190  2.0534  1.5917 -1.6564
17246TIP3   OH273228   4.340   3.965   1.202  0.0290 -0.2833  0.6795
17246TIP3    H173229   4.297   3.888   1.164  0.2896  0.3005 -0.8508
17246TIP3    H273230   4.428   3.965   1.163  1.1233 -0.8579  2.9350
17247TIP3   OH273231   0.351   5.205  14.382  0.0931 -0.2114  0.4286
17247TIP3    H173232   0.333   5.114  14.359  0.2352 -0.6175  1.7831
17247TIP3    H273233   0.281   5.255  14.341  0.3492 -0.8464 -0.8385
17248TIP3   OH273234   5.187   0.483   1.172 -0.0648  0.3807 -0.4649
17248TIP3    H173235   5.135   0.525   1.240 -1.2120  1.7026 -2.0642
17248TIP3    H273236   5.225   0.555   1.123  0.8782 -0.5351 -1.1239
17249TIP3   OH273237   0.546   4.608   4.001 -0.1661  0.1656 -0.1341
17249TIP3    H173238   0.561   4.554   4.078 -0.0046 -2.6758 -2.0143
17249TIP3    H273239   0.631   4.613   3.957 -0.7693 -0.5579 -1.4622
17250TIP3   OH273240   6.242   1.517  16.123 -0.2007  1.1341  0.1084
17250TIP3    H173241   6.211   1.510  16.214 -0.8498  1.4450 -0.0866
17250TIP3    H273242   6.162   1.516  16.070  0.1277  1.7198 -0.4108
17251TIP3   OH273243   6.775   4.449  16.061  0.1307  0.1975  0.1994
17251TIP3    H173244   6.765   4.544  16.058  2.6535  0.5103 -3.0632
17251TIP3    H273245   6.848   4.435  16.122 -0.1668  0.3290  0.5937
17252TIP3   OH273246   5.194   3.616  12.953  0.1526 -0.1238 -0.2856
17252TIP3    H173247   5.217   3.629  12.861  1.1339 -1.4773 -0.2551
17252TIP3    H273248   5.099   3.625  12.955  0.0630 -0.6010 -1.5323
17253TIP3   OH273249   5.670   3.295   4.646  0.4143 -0.3531 -0.4021
17253TIP3    H173250   5.693   3.237   4.573  2.0011 -1.2116  0.7088
17253TIP3    H273251   5.608   3.244   4.698  0.1496 -0.1886 -0.5555
17254TIP3   OH273252   5.300   2.748  16.155 -0.2047 -0.3313 -0.2937
17254TIP3    H173253   5.349   2.700  16.088 -1.4258 -2.3904  0.2045
17254TIP3    H273254   5.217   2.770  16.112 -0.7432 -1.1264  0.2956
17255TIP3   OH273255   2.783   2.916   5.738  0.5961 -0.2187 -0.2624
17255TIP3    H173256   2.727   2.901   5.663 -1.9907  0.9530  1.2902
17255TIP3    H273257   2.754   3.000   5.774  1.7830 -0.6816  1.9905
17256TIP3   OH273258   2.030   5.997   4.692 -0.4728  0.0459 -0.0944
17256TIP3    H173259   1.998   6.033   4.609  0.5864  0.5314 -0.3118
17256TIP3    H273260   2.090   5.927   4.666 -0.4920 -0.1081  0.2714
17257TIP3   OH273261   1.761   3.357  13.270  0.2777 -0.1012  0.6316
17257TIP3    H173262   1.718   3.410  13.337 -0.1246 -0.3000  0.5358
17257TIP3    H273263   1.689   3.318  13.220  0.5422 -1.6158  1.3792
17258TIP3   OH273264   2.293   0.430  16.197 -0.5932  0.3160  0.0782
17258TIP3    H173265   2.340   0.407  16.277 -0.0738 -0.1966 -0.3648
17258TIP3    H273266   2.361   0.436  16.130 -0.9293  1.4773 -0.1757
17259TIP3   OH273267   1.786   5.514   5.007 -0.3228  0.3212  0.3857
17259TIP3    H173268   1.827   5.595   4.978  0.8749 -0.5174 -0.3623
17259TIP3    H273269   1.736   5.539   5.085 -1.1687  2.0435 -0.6387
17260TIP3   OH273270   0.043   5.996  14.009 -0.0900 -0.3892 -0.5594
17260TIP3    H173271  -0.016   6.050  13.956  1.0789  2.1726  0.5511
17260TIP3    H273272   0.121   6.051  14.020  1.5131 -2.6699  0.0461
17261TIP3   OH273273   4.230   6.098   3.689  0.0438 -0.3043 -0.1447
17261TIP3    H173274   4.139   6.127   3.696 -0.5138 -2.0290  0.2553
17261TIP3    H273275   4.265   6.107   3.777 -0.3505 -1.4579  0.1475
17262TIP3   OH273276   2.893   1.270   0.589 -0.1539  0.2733 -0.2437
17262TIP3    H173277   2.892   1.187   0.541  0.7760  0.8129 -1.2451
17262TIP3    H273278   2.900   1.245   0.681  0.2971 -0.7657 -0.5461
17263TIP3   OH273279   3.456   3.748   4.555 -0.4697  0.1108  0.1098
17263TIP3    H173280   3.362   3.763   4.554 -1.0650 -2.9689 -1.4417
17263TIP3    H273281   3.475   3.702   4.474  2.4968  0.9720  0.1734
17264TIP3   OH273282   6.695   0.519  15.467  0.2122  0.4430 -0.0044
17264TIP3    H173283   6.744   0.543  15.546  1.8006 -0.2816 -0.7284
17264TIP3    H273284   6.694   0.423  15.467 -1.2294  0.4350 -0.0210
17265TIP3   OH273285   0.902   4.683   2.572  0.1253 -0.1372  0.3039
17265TIP3    H173286   0.819   4.726   2.594  0.0776  0.2424 -0.5928
17265TIP3    H273287   0.968   4.750   2.586  0.0050  0.4302 -1.5638
17266TIP3   OH273288   1.178   4.937   1.944  0.4257 -0.2951  0.1242
17266TIP3    H173289   1.215   4.854   1.914  0.6524 -0.4153  0.7184
17266TIP3    H273290   1.168   4.989   1.864 -0.4190 -1.1545 -0.3589
17267TIP3   OH273291   5.970   1.285  14.559 -0.4938 -0.3632 -0.1921
17267TIP3    H173292   6.055   1.259  14.593 -0.2562 -1.3402 -1.4558
17267TIP3    H273293   5.988   1.362  14.505 -0.7138  0.5283  0.9479
17268TIP3   OH273294   0.297   1.870  13.238  0.3720  0.8210 -0.2464
17268TIP3    H173295   0.312   1.933  13.309  1.5063  0.0151  0.2771
17268TIP3    H273296   0.219   1.822  13.266  2.0782 -1.0562  1.7378
17269TIP3   OH273297   0.655   3.811   2.135  0.2676  0.3762 -0.3244
17269TIP3    H173298   0.689   3.791   2.223  0.1667 -1.7258 -0.7052
17269TIP3    H273299   0.560   3.800   2.144 -0.0538  2.8397 -0.0937
17270TIP3   OH273300   0.930   5.395  14.842 -0.2179 -1.2152  0.3917
17270TIP3    H173301   1.017   5.411  14.878  0.3637 -0.4703 -1.2782
17270TIP3    H273302   0.871   5.416  14.915  0.6123  4.9766 -0.1436
17271TIP3   OH273303   5.709   5.753   1.207 -0.7321 -0.2350  0.0220
17271TIP3    H173304   5.714   5.830   1.263  0.1404  0.3578 -0.8338
17271TIP3    H273305   5.759   5.686   1.254  0.9073  0.5683 -0.4787
17272TIP3   OH273306   4.630   4.530   1.763 -0.1334 -0.3978 -0.0808
17272TIP3    H173307   4.568   4.483   1.819 -2.1314  2.7238  0.5931
17272TIP3    H273308   4.706   4.545   1.818 -0.9131  0.1211  0.8965
17273TIP3   OH273309   5.672   6.753   0.851 -0.0945 -0.1973  0.0096
17273TIP3    H173310   5.704   6.721   0.935  0.1430  0.8970  0.3495
17273TIP3    H273311   5.577   6.755   0.860 -0.0633  0.0162  0.2937
17274TIP3   OH273312   6.158   2.208   3.229  0.2026 -0.1313  0.4684
17274TIP3    H173313   6.137   2.153   3.305 -0.1920  2.5942  2.4997
17274TIP3    H273314   6.090   2.187   3.165 -0.6171 -1.1781  1.6187
17275TIP3   OH273315   2.088   5.014  15.254  0.1205 -0.3778  0.0664
17275TIP3    H173316   2.166   5.055  15.291 -0.5687  1.2240 -0.1535
17275TIP3    H273317   2.072   5.062  15.172 -0.2380 -1.6864 -0.6549
17276TIP3   OH273318   6.145   0.091   5.461  0.2639  0.1416 -0.3771
17276TIP3    H173319   6.213   0.143   5.418  0.7714 -0.9901 -0.9930
17276TIP3    H273320   6.152   0.004   5.421 -1.4191 -0.0612 -0.3171
17277TIP3   OH273321   4.010   5.122  14.054 -0.2957 -0.4089 -0.0323
17277TIP3    H173322   3.968   5.109  14.138  0.8984 -1.6589  0.4170
17277TIP3    H273323   4.096   5.080  14.063  2.3652  4.2992  0.1088
17278TIP3   OH273324   3.784   2.310  11.541 -0.2911  0.3699 -0.5859
17278TIP3    H173325   3.816   2.306  11.451  0.1615  0.2017 -0.4195
17278TIP3    H273326   3.729   2.232  11.549  0.9035 -0.4622 -0.2530
17279TIP3   OH273327   1.405   0.860   5.105  0.0138 -0.1867  0.9095
17279TIP3    H173328   1.426   0.792   5.041  0.6832  0.4216  0.4698
17279TIP3    H273329   1.386   0.937   5.052  0.3380  0.2552  1.4280
17280TIP3   OH273330   5.540   3.666   3.492  0.0601  0.4248 -0.1509
17280TIP3    H173331   5.465   3.687   3.437 -1.7780 -0.6846  1.7983
17280TIP3    H273332   5.503   3.650   3.579  2.5106 -0.5386  0.8125
17281TIP3   OH273333   2.633   0.733   4.232  0.3695  0.2904 -0.1729
17281TIP3    H173334   2.693   0.730   4.306  0.6378  1.0592 -0.3398
17281TIP3    H273335   2.590   0.648   4.231  0.3277  0.2957  0.8889
17282TIP3   OH273336   6.752   1.192  11.657 -0.2804  0.2102 -0.1958
17282TIP3    H173337   6.819   1.238  11.607 -0.0703  0.5461  0.3793
17282TIP3    H273338   6.782   1.101  11.660 -0.1655  0.2389 -0.4617
17283TIP3   OH273339   1.362   1.979  12.775  0.0967  0.5900  0.1458
17283TIP3    H173340   1.315   2.032  12.711  0.6177  0.3331 -0.4724
17283TIP3    H273341   1.394   1.904  12.724 -0.8214 -0.4357  1.0436
17284TIP3   OH273342   3.084   4.382   4.605  0.0232  0.3006 -0.1488
17284TIP3    H173343   3.154   4.342   4.554 -0.0500  1.1415 -0.9225
17284TIP3    H273344   3.033   4.307   4.638  0.1968 -0.2666 -1.1285
17285TIP3   OH273345   2.523   5.994   0.284  0.2506 -0.9584 -0.7657
17285TIP3    H173346   2.474   6.041   0.352 -0.5616  0.9614 -2.5531
17285TIP3    H273347   2.457   5.973   0.218  1.5653  0.6516 -2.7079
17286TIP3   OH273348   0.390   5.068  12.713  0.3974 -0.5243  0.5472
17286TIP3    H173349   0.322   5.056  12.779 -0.5573  2.3334  0.2413
17286TIP3    H273350   0.444   5.139  12.748  0.4511  0.3810 -1.2633
17287TIP3   OH273351   5.340   6.531  17.225 -0.1708 -0.0285 -0.2350
17287TIP3    H173352   5.283   6.582  17.283  0.2680 -1.8911  1.9551
17287TIP3    H273353   5.415   6.508  17.280  0.1420 -2.1192 -1.4600
17288TIP3   OH273354   1.847   0.684  10.967  0.4628 -0.8889 -0.3767
17288TIP3    H173355   1.767   0.679  10.915  0.0203 -1.0375  0.2953
17288TIP3    H273356   1.866   0.778  10.974  0.0883 -0.8259 -0.1656
17289TIP3   OH273357   2.178   3.662   3.087 -0.0686  0.3235  0.8389
17289TIP3    H173358   2.165   3.568   3.098  0.4456 -0.2135 -2.3425
17289TIP3    H273359   2.270   3.671   3.061 -0.1919  1.6767  0.7753
17290TIP3   OH273360   6.385   2.229  13.297  0.6911  0.7086  0.0392
17290TIP3    H173361   6.445   2.251  13.225  0.4463 -1.6804 -0.9984
17290TIP3    H273362   6.343   2.312  13.320  1.8650  1.8028 -1.5739
17291TIP3   OH273363   5.800   3.656  16.787  0.0587 -0.1320  0.5333
17291TIP3    H173364   5.727   3.712  16.763 -1.7910 -2.4338  0.3797
17291TIP3    H273365   5.837   3.628  16.704 -1.1766 -1.6960  0.4564
17292TIP3   OH273366   3.501   5.741  11.447 -0.8205 -0.1937 -0.3761
17292TIP3    H173367   3.427   5.686  11.471 -1.3178  1.6148  2.6314
17292TIP3    H273368   3.462   5.824  11.420  0.0658  0.5693  0.6195
17293TIP3   OH273369   1.387   4.492  11.635  0.1755 -0.7217  0.1005
17293TIP3    H173370   1.383   4.556  11.563 -0.9734 -0.6558  0.2051
17293TIP3    H273371   1.478   4.464  11.637  0.1786 -0.9571 -1.6024
17294TIP3   OH273372   6.781   0.382  11.265 -0.1899  0.1576  0.5044
17294TIP3    H173373   6.864   0.344  11.295 -1.4042 -3.0598  0.1765
17294TIP3    H273374   6.738   0.411  11.346  0.6039  0.4228  0.8390
17295TIP3   OH273375   2.713   5.144  15.381  0.0137  0.1923 -0.2376
17295TIP3    H173376   2.721   5.069  15.440 -0.8529 -1.6466 -2.3577
17295TIP3    H273377   2.741   5.219  15.435  0.0802 -1.4756  2.2175
17296TIP3   OH273378   6.688   4.265   1.912  0.2113 -0.3351 -0.3707
17296TIP3    H173379   6.716   4.329   1.977 -0.8551  0.7954 -0.9760
17296TIP3    H273380   6.592   4.270   1.914 -0.0230 -3.4129  1.0116
17297TIP3   OH273381   5.437   1.343   3.345  0.2177  0.8178  0.4102
17297TIP3    H173382   5.511   1.308   3.393  1.7820 -0.9243 -2.9531
17297TIP3    H273383   5.449   1.438   3.348  1.2759  0.6689  1.7499
17298TIP3   OH273384   2.368   6.084   0.489 -0.3107 -0.1007 -0.2124
17298TIP3    H173385   2.367   6.156   0.551 -0.3790 -0.7531  0.5566
17298TIP3    H273386   2.316   6.015   0.531  0.9038 -1.1040 -0.3044
17299TIP3   OH273387   0.182   3.393   2.186  0.1664 -0.9206  0.5310
17299TIP3    H173388   0.116   3.370   2.251 -0.2204 -1.1461  0.0681
17299TIP3    H273389   0.151   3.476   2.149  0.0932 -1.0675  0.2568
17300TIP3   OH273390   5.172   1.793   3.838 -0.0108  0.1587 -0.4376
17300TIP3    H173391   5.173   1.888   3.850 -0.9288  0.0744  0.4854
17300TIP3    H273392   5.135   1.759   3.920 -1.3039 -0.8684 -1.4020
17301TIP3   OH273393   1.267   2.322  15.718 -0.4061  0.1877  0.3525
17301TIP3    H173394   1.308   2.355  15.798 -0.8345  0.7108  0.3667
17301TIP3    H273395   1.280   2.393  15.654  0.5252 -0.5014 -0.2456
17302TIP3   OH273396   6.776   1.927   3.540 -0.1244 -0.4189  0.3005
17302TIP3    H173397   6.685   1.959   3.540  0.2789  0.8240 -0.4713
17302TIP3    H273398   6.813   1.958   3.622 -0.2896 -0.5687  0.4303
17303TIP3   OH273399   2.575   3.368  13.682 -0.3084 -0.2253 -0.4012
17303TIP3    H173400   2.484   3.398  13.674 -0.0895  0.4147 -0.5993
17303TIP3    H273401   2.587   3.308  13.609  0.7282  3.1036 -3.2678
17304TIP3   OH273402   4.054   2.468  12.821 -0.0897 -0.0126 -0.5575
17304TIP3    H173403   4.074   2.478  12.728  0.8332 -0.5368 -0.4285
17304TIP3    H273404   3.973   2.416  12.823  0.1589 -0.4264 -1.0616
17305TIP3   OH273405   4.025   4.771   5.456  0.2532 -0.0672  0.1477
17305TIP3    H173406   4.116   4.793   5.473  0.7005 -2.0406  0.5627
17305TIP3    H273407   3.978   4.802   5.534  1.0059 -1.3823  1.1754
17306TIP3   OH273408   3.375   3.354  13.372 -0.1453 -0.2658 -0.0994
17306TIP3    H173409   3.374   3.302  13.291  0.3342  0.0483 -0.3118
17306TIP3    H273410   3.371   3.445  13.342 -3.7578 -0.1334  0.3071
17307TIP3   OH273411   2.465   4.748  13.014 -0.3713  0.8496 -0.7675
17307TIP3    H173412   2.475   4.839  13.042 -1.2944  1.0216 -0.9723
17307TIP3    H273413   2.413   4.707  13.083 -3.5344  1.5184 -2.5443
17308TIP3   OH273414   5.681   2.056  12.576  0.3725  0.7655  0.6469
17308TIP3    H173415   5.749   2.119  12.601  0.7924  0.2998  0.6799
17308TIP3    H273416   5.699   2.036  12.484  0.7859  0.0099  0.8874
17309TIP3   OH273417   1.932   3.580   4.031 -0.1372 -0.0052  1.0267
17309TIP3    H173418   1.848   3.562   4.072  0.0416 -2.2584  0.5258
17309TIP3    H273419   1.969   3.652   4.082 -1.7040  0.0216  2.1799
17310TIP3   OH273420   6.264   6.354   5.523  0.4649  0.7855 -0.2600
17310TIP3    H173421   6.195   6.410   5.560  0.4486  1.9100 -1.8954
17310TIP3    H273422   6.345   6.385   5.563  0.2234  0.5283  0.4484
17311TIP3   OH273423   5.584   2.809  13.778  0.2673  0.0874  0.5324
17311TIP3    H173424   5.542   2.768  13.854 -0.6251 -0.8478 -0.4295
17311TIP3    H273425   5.678   2.803  13.796  0.1086 -1.1663  1.0432
17312TIP3   OH273426   5.714   3.183  15.405 -0.0997 -0.1731 -0.0726
17312TIP3    H173427   5.801   3.169  15.367  0.1953  0.6514  0.2792
17312TIP3    H273428   5.654   3.150  15.339  0.5041 -1.9172  0.1939
17313TIP3   OH273429   5.340   1.170  16.253  0.4781 -0.3160 -0.3869
17313TIP3    H173430   5.339   1.081  16.286  4.1654 -0.8348 -1.2442
17313TIP3    H273431   5.252   1.184  16.218 -1.4867 -2.1167  3.1786
17314TIP3   OH273432   3.159   3.504  16.324 -0.2387  0.5907 -0.0843
17314TIP3    H173433   3.109   3.578  16.288  0.4438  1.1143  0.0254
17314TIP3    H273434   3.105   3.427  16.303  0.3575  0.7924 -2.7371
17315TIP3   OH273435   2.826   3.950   0.616  0.4918  0.4199 -0.4512
17315TIP3    H173436   2.764   4.023   0.614 -0.9099 -0.7366 -0.4335
17315TIP3    H273437   2.795   3.890   0.548  0.8235 -0.7931  0.4339
17316TIP3   OH273438   2.434   0.372  13.051 -0.0125  0.0122  0.0731
17316TIP3    H173439   2.349   0.398  13.087 -0.9607 -0.3373 -1.7863
17316TIP3    H273440   2.470   0.453  13.014  0.5822  0.1991  1.0188
17317TIP3   OH273441   4.695   6.631   3.448 -0.0281 -0.1093 -0.1177
17317TIP3    H173442   4.766   6.581   3.408 -0.5862 -0.4708 -0.6973
17317TIP3    H273443   4.627   6.565   3.464 -0.3601  0.2856  0.0990
17318TIP3   OH273444   3.357   4.897  15.160  0.0513  0.1445 -0.1845
17318TIP3    H173445   3.342   4.804  15.140  0.2971  0.2120 -0.6828
17318TIP3    H273446   3.287   4.943  15.113  1.9137  0.4912 -2.7942
17319TIP3   OH273447   2.956   6.249  15.423  0.2494 -0.0271  0.0117
17319TIP3    H173448   2.940   6.268  15.515  0.7128  0.0646  0.0769
17319TIP3    H273449   2.917   6.163  15.408 -0.5144  0.2972  0.0974
17320TIP3   OH273450   6.748   4.450  15.568  0.1104  0.2281  0.2306
17320TIP3    H173451   6.686   4.522  15.580  2.2822  2.3152 -0.4869
17320TIP3    H273452   6.773   4.425  15.657 -0.6895  0.2870  0.4830
17321TIP3   OH273453   2.982   3.738   1.611 -0.2276 -0.1641 -0.2324
17321TIP3    H173454   3.040   3.750   1.537  1.0505 -0.1400  0.7369
17321TIP3    H273455   2.973   3.643   1.620 -0.3515 -0.1672 -0.3917
17322TIP3   OH273456   3.989   3.154   2.741  0.1526  0.0160 -0.2207
17322TIP3    H173457   4.040   3.073   2.745 -0.0107 -0.2774 -2.6947
17322TIP3    H273458   3.907   3.132   2.785  1.0082 -0.3935  1.2377
17323TIP3   OH273459   3.373   4.300  12.087 -0.1838 -0.1801  0.2411
17323TIP3    H173460   3.417   4.222  12.120  0.3237  0.2854  0.6708
17323TIP3    H273461   3.309   4.266  12.024  1.2352 -0.8283 -0.9146
17324TIP3   OH273462   4.523   4.158   0.172  0.6196  0.1907  0.2116
17324TIP3    H173463   4.472   4.238   0.185 -1.2719 -0.9815  0.4397
17324TIP3    H273464   4.465   4.100   0.122  2.7770 -0.2617 -1.9844
17325TIP3   OH273465   6.528   2.739  12.839  0.1185 -0.0868 -0.2081
17325TIP3    H173466   6.465   2.808  12.861  0.3362  0.2269 -0.5569
17325TIP3    H273467   6.511   2.670  12.903  0.1876  0.4647  0.4221
17326TIP3   OH273468   1.160   5.075  12.653 -0.5285  0.1317  0.2457
17326TIP3    H173469   1.187   5.010  12.588  3.0896  0.3248  1.3735
17326TIP3    H273470   1.113   5.141  12.602  1.1986 -0.2632 -2.0380
17327TIP3   OH273471   5.576   5.605  11.751 -0.2158 -0.5577 -0.2570
17327TIP3    H173472   5.671   5.607  11.747 -0.0921 -2.3149  0.9445
17327TIP3    H273473   5.549   5.564  11.669  0.1956 -1.9176  0.2674
17328TIP3   OH273474   3.507   5.950  16.292 -0.2248  0.2008 -0.3866
17328TIP3    H173475   3.578   5.907  16.244  0.0801 -0.2839  0.4769
17328TIP3    H273476   3.441   5.881  16.303 -0.2643  0.2888 -0.0583
17329TIP3   OH273477   2.618   6.509   1.285  0.7500  0.5311  0.5354
17329TIP3    H173478   2.713   6.507   1.272  0.5438 -0.6762 -0.9134
17329TIP3    H273479   2.608   6.500   1.380  2.0660 -0.2418  0.6344
17330TIP3   OH273480   3.956   6.569   3.187  0.1398 -0.1863 -0.5545
17330TIP3    H173481   3.902   6.496   3.216 -1.0472  0.1916 -1.7133
17330TIP3    H273482   3.992   6.540   3.103 -0.0006  0.3892 -0.8158
17331TIP3   OH273483   6.673   5.432   2.160 -0.2921 -0.5436  0.2425
17331TIP3    H173484   6.601   5.374   2.136 -0.6377  0.3365 -0.9787
17331TIP3    H273485   6.733   5.429   2.085  0.0690  0.0758  0.4970
17332TIP3   OH273486   3.300   2.133   5.116 -0.0148 -0.2680 -0.1426
17332TIP3    H173487   3.247   2.162   5.190  0.5708  0.9460 -0.1640
17332TIP3    H273488   3.372   2.196   5.113  1.3582 -1.7877 -0.1932
17333TIP3   OH273489   3.756   5.856  12.958 -0.1952  0.4827  0.0726
17333TIP3    H173490   3.768   5.823  12.869 -1.3556 -1.1396  0.4525
17333TIP3    H273491   3.663   5.842  12.975  0.2219 -0.2882  1.9150
17334TIP3   OH273492   0.436   4.009   5.608 -0.3827 -0.1395  0.2460
17334TIP3    H173493   0.369   3.992   5.674  1.0581 -1.2786  1.4885
17334TIP3    H273494   0.519   4.001   5.655  0.6941 -0.4827 -1.5962
17335TIP3   OH273495   5.339   1.518   5.830 -0.6266 -0.4543  0.7268
17335TIP3    H173496   5.256   1.480   5.859 -2.3850  1.6190 -1.1581
17335TIP3    H273497   5.362   1.469   5.751 -0.3140 -0.6948  0.9649
17336TIP3   OH273498   6.725   1.858  13.405 -0.4712 -0.1833  0.1246
17336TIP3    H173499   6.700   1.950  13.396 -0.3144 -0.2837 -1.8487
17336TIP3    H273500   6.803   1.859  13.459  0.5338  1.0542 -1.2696
17337TIP3   OH273501   2.681   1.645  12.267 -0.0180 -0.4374  0.0722
17337TIP3    H173502   2.753   1.708  12.267 -0.7642  0.4345 -0.0298
17337TIP3    H273503   2.724   1.560  12.258  1.1682 -0.1644  2.4348
17338TIP3   OH273504   4.444   5.779   3.401  0.3010 -0.2822  0.2726
17338TIP3    H173505   4.362   5.816   3.433  0.6057 -0.3891  1.2396
17338TIP3    H273506   4.487   5.851   3.356  0.2173  0.1316  0.8336
17339TIP3   OH273507   5.291   5.355   0.873 -0.4454  0.0012  0.1070
17339TIP3    H173508   5.313   5.404   0.794 -0.3932  1.5000  1.0160
17339TIP3    H273509   5.230   5.287   0.844 -0.3117  0.4425 -1.2307
17340TIP3   OH273510   4.693   1.583   0.771  0.1103 -0.6571  0.0696
17340TIP3    H173511   4.607   1.598   0.811  0.2985 -0.6703  0.4861
17340TIP3    H273512   4.754   1.580   0.845  0.5445 -0.1416 -0.2590
17341TIP3   OH273513   6.658   6.261  11.063  0.0494  0.3854 -0.0765
17341TIP3    H173514   6.664   6.272  10.968 -0.3041  0.4781 -0.0867
17341TIP3    H273515   6.608   6.337  11.093 -0.1787  0.1464  0.1433
17342TIP3   OH273516   1.094   3.235   4.460 -0.3793 -0.1485  0.1836
17342TIP3    H173517   1.085   3.325   4.427 -1.5293 -0.6905 -1.0663
17342TIP3    H273518   1.135   3.245   4.546  1.4435  1.4318 -0.7875
17343TIP3   OH273519   5.576   4.658  16.527  0.4759  0.0896  0.8040
17343TIP3    H173520   5.660   4.640  16.485  1.0295 -1.2523  2.3987
17343TIP3    H273521   5.595   4.661  16.620 -1.2178 -0.0674  1.2023
17344TIP3   OH273522   1.576   2.291  10.990 -0.6194  0.7734  0.1256
17344TIP3    H173523   1.611   2.341  10.916 -0.8889  1.0544  0.1856
17344TIP3    H273524   1.525   2.355  11.041 -0.0463  0.6922  0.8184
17345TIP3   OH273525   3.986   4.361  17.037  0.4173 -0.1323 -0.4502
17345TIP3    H173526   4.045   4.418  16.988  3.1235 -0.3194  2.2909
17345TIP3    H273527   4.044   4.295  17.077 -1.8139 -1.0936  1.4360
17346TIP3   OH273528   0.972   5.721  14.088 -0.1060  0.1348 -0.3610
17346TIP3    H173529   1.045   5.660  14.074  0.1302  0.0899  0.8939
17346TIP3    H273530   0.924   5.684  14.162 -1.7298 -0.0994 -1.4788
17347TIP3   OH273531   0.423   3.772   1.102  0.3517 -0.3451 -0.0387
17347TIP3    H173532   0.481   3.785   1.177 -1.5552  0.5519  1.3669
17347TIP3    H273533   0.368   3.850   1.101 -1.1872 -1.3930 -0.9714
17348TIP3   OH273534   2.235   1.260  15.535  0.5809 -0.4242 -0.0973
17348TIP3    H173535   2.143   1.234  15.541 -0.5110  3.1069  1.2396
17348TIP3    H273536   2.259   1.245  15.444 -1.4387 -1.0323 -0.5724
17349TIP3   OH273537   3.911   2.536  13.807 -0.6361 -0.0941  0.3176
17349TIP3    H173538   3.911   2.444  13.784 -1.2491 -0.7214  2.5328
17349TIP3    H273539   3.822   2.566  13.791 -0.3686  0.2120 -0.6631
17350TIP3   OH273540   5.557   0.288   5.204 -0.0621  0.0291 -0.1861
17350TIP3    H173541   5.479   0.324   5.246  1.2925  1.2085  1.4356
17350TIP3    H273542   5.554   0.194   5.223 -1.4635 -0.0852 -0.8415
17351TIP3   OH273543   3.003   6.698   0.962 -0.3768 -0.5033 -0.0015
17351TIP3    H173544   3.088   6.734   0.988 -0.2142 -1.8050  1.4579
17351TIP3    H273545   3.025   6.628   0.901 -0.2834 -1.5315  1.1705
17352TIP3   OH273546   3.685   2.107  17.134  0.4382 -0.5792  0.0313
17352TIP3    H173547   3.655   2.019  17.113  0.2291 -0.8723  1.4382
17352TIP3    H273548   3.625   2.137  17.203  0.1470  0.8988 -0.8104
17353TIP3   OH273549   0.638   3.529  11.794 -0.1298 -0.1092  0.0159
17353TIP3    H173550   0.546   3.509  11.811  0.2520 -1.3912  0.7002
17353TIP3    H273551   0.680   3.524  11.880  0.5043  0.9362 -0.2178
17354TIP3   OH273552   5.224   2.325  12.121 -0.3494  0.2680  0.1417
17354TIP3    H173553   5.240   2.396  12.183 -1.8282  1.2123 -0.4816
17354TIP3    H273554   5.184   2.369  12.046  1.6886 -0.7695 -1.6670
17355TIP3   OH273555   5.770   2.904  14.200 -0.6371  0.3357  0.1814
17355TIP3    H173556   5.752   2.820  14.159  0.5425  0.0032  0.2883
17355TIP3    H273557   5.692   2.957  14.184 -1.6034 -0.9446  0.5610
17356TIP3   OH273558   2.805   1.114  16.621 -0.0965 -0.5340  0.1631
17356TIP3    H173559   2.729   1.153  16.665  0.3995  0.2775  0.3350
17356TIP3    H273560   2.782   1.117  16.528 -0.7404 -1.3492  0.2819
17357TIP3   OH273561   4.946   1.881  13.523  0.3454  0.0733 -0.1822
17357TIP3    H173562   4.924   1.816  13.456 -1.4656  0.0515  0.3929
17357TIP3    H273563   5.023   1.927  13.487  1.2250 -1.8719 -0.9206
17358TIP3   OH273564   3.673   4.193   2.809 -0.3803 -0.4086 -0.4974
17358TIP3    H173565   3.642   4.142   2.734 -0.5920 -0.6773 -0.2268
17358TIP3    H273566   3.664   4.284   2.781 -1.1158 -0.4878 -0.5438
17359TIP3   OH273567   5.746   6.746  11.603  0.1354  1.1566  0.0331
17359TIP3    H173568   5.691   6.672  11.629  0.2370  0.9511 -0.3346
17359TIP3    H273569   5.691   6.797  11.544  0.0835  1.3439  0.2457
17360TIP3   OH273570   4.707   4.744   3.489  0.5248 -0.4948  0.0462
17360TIP3    H173571   4.619   4.772   3.515  0.5028 -1.0602  0.6198
17360TIP3    H273572   4.757   4.825   3.486 -0.0618 -0.1417 -0.4847
17361TIP3   OH273573   1.599   4.897  15.902  0.0869 -0.3535  0.5193
17361TIP3    H173574   1.535   4.871  15.835 -0.4337 -0.5113  1.0701
17361TIP3    H273575   1.666   4.945  15.853 -0.4843 -0.1273 -0.0622
17362TIP3   OH273576   4.688   1.935  11.812 -0.3230  0.3425 -0.2143
17362TIP3    H173577   4.684   2.006  11.875 -1.6048 -0.5553  0.7647
17362TIP3    H273578   4.762   1.957  11.755  1.0935  1.0163  1.7800
17363TIP3   OH273579   1.791   3.567  12.008 -0.6947  0.4135  0.4246
17363TIP3    H173580   1.788   3.497  12.073 -1.8952 -0.6214 -0.6728
17363TIP3    H273581   1.766   3.525  11.926 -0.2162  1.8844 -0.5269
17364TIP3   OH273582   0.758   3.372  12.319  0.1752  0.1413  0.4052
17364TIP3    H173583   0.752   3.464  12.344 -0.4884  0.3635 -0.5434
17364TIP3    H273584   0.719   3.325  12.393 -1.7615  0.7882 -0.1521
17365TIP3   OH273585   1.625   0.713   4.372  0.2286 -0.0050  0.2500
17365TIP3    H173586   1.564   0.785   4.385  0.7956  0.8069 -1.2790
17365TIP3    H273587   1.572   0.634   4.377 -0.8060  0.6447 -0.3485
17366TIP3   OH273588   3.226   6.292  16.161  0.3021 -0.4707  0.0359
17366TIP3    H173589   3.196   6.210  16.122  1.3864 -1.1168  0.5012
17366TIP3    H273590   3.146   6.342  16.177 -0.3837 -1.4654 -0.2096
17367TIP3   OH273591   2.779   1.827   2.682 -0.5835 -0.6927 -0.5082
17367TIP3    H173592   2.702   1.858   2.729  0.4573  1.0418  0.1539
17367TIP3    H273593   2.807   1.902   2.629  1.2376 -0.9030  0.0897
17368TIP3   OH273594   6.327   6.536   0.969  0.1837 -0.5192 -0.0193
17368TIP3    H173595   6.305   6.543   0.876 -2.3783  0.2077  0.5564
17368TIP3    H273596   6.269   6.467   1.002  0.0966  0.1504  1.2906
17369TIP3   OH273597   2.384   6.497  10.269 -0.1694 -0.2992  1.1207
17369TIP3    H173598   2.427   6.510  10.354  1.0767  2.3897  0.1557
17369TIP3    H273599   2.449   6.523  10.204 -2.3342  1.4536 -0.5079
17370TIP3   OH273600   0.382   3.831   2.997  0.6271 -0.2298 -0.5863
17370TIP3    H173601   0.325   3.866   2.928  0.4586  0.1795 -0.2478
17370TIP3    H273602   0.417   3.909   3.040  0.6674 -0.4816 -0.1601
17371TIP3   OH273603   3.732   4.469  12.407 -0.6733 -0.2901 -0.6460
17371TIP3    H173604   3.786   4.549  12.409  0.3986 -0.9916 -0.8401
17371TIP3    H273605   3.658   4.492  12.351  0.3159  0.1654 -1.8083
17372TIP3   OH273606   1.745   4.455   2.246 -0.3806  0.6671 -0.5985
17372TIP3    H173607   1.656   4.475   2.274  0.4461  2.9595  0.7574
17372TIP3    H273608   1.800   4.511   2.302  1.9523 -1.1735 -0.8927
17373TIP3   OH273609   2.791   3.710  14.924  0.0450  0.1245  0.0607
17373TIP3    H173610   2.772   3.619  14.947 -0.8191  0.2416 -0.1635
17373TIP3    H273611   2.710   3.742  14.885  0.2889  1.0413  0.2951
17374TIP3   OH273612   4.308   5.347  16.717 -0.4077  0.2267  0.3281
17374TIP3    H173613   4.301   5.289  16.793 -3.1885  1.6812  1.3048
17374TIP3    H273614   4.378   5.408  16.740  1.8653 -1.9840 -0.2922
17375TIP3   OH273615   0.873   4.665   1.121  0.4330  0.3792 -0.0620
17375TIP3    H173616   0.825   4.623   1.049 -0.3175  1.6228 -0.3118
17375TIP3    H273617   0.961   4.628   1.116  0.1561 -0.1689 -1.1045
17376TIP3   OH273618   2.257   6.492  15.654 -0.6851 -0.1803  0.1040
17376TIP3    H173619   2.236   6.573  15.701 -0.9360  0.3449 -0.8788
17376TIP3    H273620   2.311   6.520  15.581 -0.2763 -0.9875  0.0874
17377TIP3   OH273621   6.779   2.680  14.570 -0.5283  0.1326 -0.0356
17377TIP3    H173622   6.867   2.708  14.545 -0.3796  0.6070  0.9593
17377TIP3    H273623   6.767   2.716  14.658 -1.5065 -0.3949  0.0575
17378TIP3   OH273624   5.571   0.335  13.799 -0.1850 -0.3333 -0.1680
17378TIP3    H173625   5.611   0.364  13.881  0.3936 -1.3621 -0.0763
17378TIP3    H273626   5.479   0.324  13.820 -0.4609  1.5483 -0.2409
17379TIP3   OH273627   5.576   3.683  16.249 -0.5949  0.2961  0.4054
17379TIP3    H173628   5.615   3.678  16.336  2.0934  1.5069 -0.6191
17379TIP3    H273629   5.582   3.776  16.225  2.1263 -0.4190 -2.4022
17380TIP3   OH273630   2.427   3.917  17.234  0.4574 -0.2745 -0.0600
17380TIP3    H173631   2.374   3.841  17.211  1.3442 -0.7728 -0.5019
17380TIP3    H273632   2.414   3.979  17.162  0.6997 -0.5197 -0.3176
17381TIP3   OH273633   0.680   1.152  11.251 -0.2582  0.2658 -0.1575
17381TIP3    H173634   0.707   1.098  11.177 -0.8557 -0.0346 -0.1668
17381TIP3    H273635   0.724   1.114  11.327 -2.5716 -1.8424  0.2567
17382TIP3   OH273636   3.558   1.599  13.203 -0.0445 -0.3604 -0.1736
17382TIP3    H173637   3.565   1.672  13.265  1.0333 -0.3710 -0.2577
17382TIP3    H273638   3.529   1.640  13.121  2.1296  0.2775 -0.6882
17383TIP3   OH273639   0.614   4.660   1.300 -0.3258  0.4276 -0.0237
17383TIP3    H173640   0.679   4.673   1.232 -0.5710  0.4763 -0.2511
17383TIP3    H273641   0.583   4.570   1.286 -0.4413  0.4689 -0.0333
17384TIP3   OH273642   5.973   5.372   1.221  0.1250  0.3332 -0.1938
17384TIP3    H173643   5.923   5.435   1.273  0.6340  0.1613  0.5207
17384TIP3    H273644   6.018   5.318   1.286  1.0078  0.3063 -0.8089
17385TIP3   OH273645   5.198   4.040   0.458  0.1418  0.5099 -0.0822
17385TIP3    H173646   5.241   3.955   0.448  1.4311  1.2433 -1.0835
17385TIP3    H273647   5.143   4.031   0.535  1.6998 -0.6526  0.9353
17386TIP3   OH273648   0.767   4.803   6.566  0.6542 -0.5301 -0.7971
17386TIP3    H173649   0.842   4.790   6.623 -0.6061 -1.2433  0.7971
17386TIP3    H273650   0.777   4.737   6.498  2.3350  0.5256 -1.6367
17387TIP3   OH273651   4.427   2.991  17.047 -0.0566 -0.3566  0.1716
17387TIP3    H173652   4.484   2.981  16.970  0.6833  1.8920  0.3486
17387TIP3    H273653   4.487   2.999  17.121 -0.7718 -3.1824  1.1807
17388TIP3   OH273654   4.972   2.433  15.093 -0.4222 -0.3112  0.1524
17388TIP3    H173655   4.893   2.388  15.119 -0.4967 -0.0182  0.4410
17388TIP3    H273656   4.942   2.521  15.067  0.0256  0.5340  2.2569
17389TIP3   OH273657   3.726   5.128  12.032 -0.5483 -0.4276  0.1660
17389TIP3    H173658   3.661   5.196  12.015 -1.8620 -1.9075 -1.0093
17389TIP3    H273659   3.775   5.120  11.950 -1.6751 -2.1583 -0.3949
17390TIP3   OH273660   1.342   6.273   3.545 -0.6716 -0.6959 -0.6391
17390TIP3    H173661   1.415   6.335   3.544 -1.4892  0.4732  2.3946
17390TIP3    H273662   1.276   6.314   3.489 -0.2622 -0.0684 -0.6790
17391TIP3   OH273663   1.488   1.624   3.417  0.2213 -0.3000 -0.3690
17391TIP3    H173664   1.457   1.614   3.506 -0.4334 -1.5430 -0.7174
17391TIP3    H273665   1.459   1.545   3.372 -1.0883  1.1051 -2.1698
17392TIP3   OH273666   1.349   2.526  15.257 -0.4169  0.2680  0.1104
17392TIP3    H173667   1.265   2.482  15.263 -0.6032  0.6847  0.6934
17392TIP3    H273668   1.357   2.552  15.165 -0.8713  0.1289  0.0307
17393TIP3   OH273669   6.744   2.848   0.245 -0.6687  0.2840  0.2745
17393TIP3    H173670   6.817   2.879   0.298 -0.7434 -0.9970  1.1730
17393TIP3    H273671   6.785   2.803   0.171 -0.5678  1.7802 -0.6226
17394TIP3   OH273672   0.019   2.656   4.441 -0.0965 -0.2276 -0.0522
17394TIP3    H173673   0.019   2.719   4.514  0.9515 -0.4317  0.1343
17394TIP3    H273674  -0.041   2.695   4.377  0.7013  1.0901 -0.0425
17395TIP3   OH273675   2.743   5.018  16.464  0.3758  0.5801 -0.2814
17395TIP3    H173676   2.712   4.944  16.411 -1.3642 -0.0517  1.5108
17395TIP3    H273677   2.667   5.046  16.514  1.7203  1.6755  1.2779
17396TIP3   OH273678   1.638   2.538   2.945 -0.6006 -0.4120 -0.1964
17396TIP3    H173679   1.654   2.582   2.862 -4.1604  1.5818 -0.0449
17396TIP3    H273680   1.697   2.580   3.007 -0.4589  0.6857 -1.0544
17397TIP3   OH273681   5.345   5.484  16.718  0.0597 -0.3838 -0.1557
17397TIP3    H173682   5.286   5.540  16.667  0.2389 -1.9619 -2.2260
17397TIP3    H273683   5.386   5.543  16.780 -0.7260  1.5278 -1.3501
17398TIP3   OH273684   0.403   3.592   0.057  0.0470 -0.1421 -0.3692
17398TIP3    H173685   0.333   3.540   0.096  0.4761 -1.0433 -0.7668
17398TIP3    H273686   0.379   3.600  -0.036 -0.2241  0.7334 -0.2347
17399TIP3   OH273687   0.055   4.080   3.773  0.3668 -0.5241 -0.2789
17399TIP3    H173688   0.053   4.044   3.685  2.0537  2.6067 -1.7370
17399TIP3    H273689  -0.018   4.143   3.776  0.8375  0.0137  0.2481
17400TIP3   OH273690   2.878   6.306   0.887 -0.6100  0.2659 -0.3662
17400TIP3    H173691   2.851   6.263   0.968 -1.2465  2.3363  0.6042
17400TIP3    H273692   2.797   6.345   0.853  0.2315  2.5915  0.0725
17401TIP3   OH273693   2.330   4.346   2.514  0.1950 -0.5090  0.1739
17401TIP3    H173694   2.337   4.429   2.468  0.4283 -0.9689 -0.6296
17401TIP3    H273695   2.243   4.349   2.556  0.1534  0.0795  0.0474
17402TIP3   OH273696   6.727   2.434   5.039 -0.1968 -0.0028 -0.1004
17402TIP3    H173697   6.807   2.449   5.090 -0.3650  0.1897  0.1112
17402TIP3    H273698   6.757   2.397   4.957  0.2054  1.1494 -0.4932
17403TIP3   OH273699   0.595   3.276  10.646  0.1328  0.3808  0.3292
17403TIP3    H173700   0.592   3.263  10.551  0.3855  1.8979  0.0846
17403TIP3    H273701   0.602   3.188  10.682 -1.9399 -0.3643 -0.9567
17404TIP3   OH273702   5.551   4.734   3.556  0.0839  0.2252  0.1737
17404TIP3    H173703   5.589   4.683   3.484  0.4038 -0.9722  1.1585
17404TIP3    H273704   5.469   4.688   3.576 -0.2469  0.8481  0.2526
17405TIP3   OH273705   3.244   3.997  15.460 -0.1074  0.3729  0.2886
17405TIP3    H173706   3.298   3.935  15.410 -0.8060 -0.7861  0.9134
17405TIP3    H273707   3.154   3.968  15.444 -0.4335  1.1119  0.7617
17406TIP3   OH273708   6.391   3.247   5.749  0.3676  0.0843 -0.0047
17406TIP3    H173709   6.444   3.319   5.717 -1.6949  1.3551 -0.7575
17406TIP3    H273710   6.406   3.245   5.843 -1.3103  3.1104  0.4252
17407TIP3   OH273711   5.624   3.421  16.620  0.1852 -0.1633  0.5409
17407TIP3    H173712   5.690   3.360  16.655  0.5132 -0.6700 -0.8911
17407TIP3    H273713   5.543   3.397  16.664 -0.0244 -2.6713 -0.9991
17408TIP3   OH273714   0.771   1.343   4.408 -0.0236 -0.3421  0.3691
17408TIP3    H173715   0.679   1.363   4.390  0.0621  1.0434  1.3389
17408TIP3    H273716   0.777   1.248   4.395 -1.0313 -0.1486 -1.9678
17409TIP3   OH273717   5.569   0.188  16.112  0.7307  0.1719  1.2899
17409TIP3    H173718   5.496   0.129  16.126  1.0325 -0.0524  1.9277
17409TIP3    H273719   5.548   0.233  16.030 -0.7835  1.1083  2.1585
17410TIP3   OH273720   6.770   3.685  11.811 -0.1458 -0.4324  0.0508
17410TIP3    H173721   6.707   3.652  11.874  0.5349  1.3934  1.7931
17410TIP3    H273722   6.808   3.762  11.853  2.2837 -0.6883 -1.4776
17411TIP3   OH273723   3.379   1.018   1.690  0.0831 -0.0006  0.1892
17411TIP3    H173724   3.343   0.965   1.619  1.5183 -2.6598  1.2938
17411TIP3    H273725   3.313   1.086   1.705 -0.4329  0.4975 -3.3706
17412TIP3   OH273726   2.167   3.370   2.594  0.1986  0.6290  0.5303
17412TIP3    H173727   2.094   3.416   2.552 -1.0943 -0.8346  1.0931
17412TIP3    H273728   2.168   3.284   2.552  0.5929  0.0856  1.6248
17413TIP3   OH273729   6.421   1.242  16.332 -0.0238 -0.1766 -0.3202
17413TIP3    H173730   6.429   1.149  16.349  0.6375  0.2598  2.0850
17413TIP3    H273731   6.511   1.272  16.318 -0.0090  0.3881  0.8430
17414TIP3   OH273732   6.624   0.788  14.676  0.0677  0.3649  0.4625
17414TIP3    H173733   6.619   0.858  14.740 -2.0836 -0.3432  1.1629
17414TIP3    H273734   6.603   0.830  14.592  0.3470  0.8406  0.6310
17415TIP3   OH273735   5.131   2.090  13.091  0.2283 -0.0130 -0.2639
17415TIP3    H173736   5.096   2.179  13.087 -0.0434 -0.1231 -0.3403
17415TIP3    H273737   5.142   2.064  12.999 -0.8186 -0.4970 -0.2723
17416TIP3   OH273738   6.287   5.328  16.239  0.0354 -0.1271 -0.0420
17416TIP3    H173739   6.209   5.373  16.209 -0.0004  0.8495  1.4033
17416TIP3    H273740   6.334   5.304  16.159 -1.6106 -0.5345 -0.9139
17417TIP3   OH273741   2.623   2.001  13.326 -0.4883  0.0325  0.2637
17417TIP3    H173742   2.531   2.007  13.353 -0.5355 -0.9949  0.3538
17417TIP3    H273743   2.645   2.090  13.299 -1.5085  0.3017  0.2581
17418TIP3   OH273744   4.329   6.569   2.445 -0.9170  0.2356  0.3295
17418TIP3    H173745   4.371   6.487   2.471 -0.4394  0.7414  1.1721
17418TIP3    H273746   4.373   6.594   2.364 -1.8126 -0.8884 -0.5526
17419TIP3   OH273747   1.362   0.460   5.184 -0.0185  0.1358 -0.0119
17419TIP3    H173748   1.394   0.545   5.214  0.8783  0.1412 -0.9651
17419TIP3    H273749   1.415   0.396   5.232  0.5915  0.1328 -0.6894
17420TIP3   OH273750   5.227   4.679   5.975 -0.2010  0.0377  0.3099
17420TIP3    H173751   5.309   4.638   6.003 -0.4766  0.3434  1.6252
17420TIP3    H273752   5.250   4.770   5.956  0.2533 -0.4776 -1.8481
17421TIP3   OH273753   3.048   5.386  12.558 -0.4480  0.2883  0.3615
17421TIP3    H173754   3.114   5.454  12.539 -0.8376  1.1096  1.8414
17421TIP3    H273755   3.085   5.336  12.631 -0.4240 -0.7570 -0.3453
17422TIP3   OH273756   3.098   5.232  14.868  0.2223 -0.7691 -0.1709
17422TIP3    H173757   3.186   5.264  14.852  1.0127 -2.5087  0.4685
17422TIP3    H273758   3.064   5.211  14.781  1.4084 -2.4571 -0.2586
17423TIP3   OH273759   6.115   0.001   1.408 -0.3479  0.0587 -0.1172
17423TIP3    H173760   6.154   0.036   1.488 -2.2276  0.7538  0.5624
17423TIP3    H273761   6.064   0.073   1.372  0.2223 -0.3451 -1.7890
17424TIP3   OH273762   4.710   2.430   1.997  0.1637  0.2039 -0.1092
17424TIP3    H173763   4.709   2.511   2.049 -1.4155  0.6306 -0.7446
17424TIP3    H273764   4.757   2.367   2.052 -0.6437  0.8971  1.4423
17425TIP3   OH273765   1.338   6.212  13.736 -0.3409  0.1464  0.6677
17425TIP3    H173766   1.418   6.248  13.774 -0.7484  0.8613  0.8597
17425TIP3    H273767   1.350   6.222  13.642 -0.0831 -0.0154  0.6806
17426TIP3   OH273768   0.565   1.819  12.329  0.2391  0.0792  0.3364
17426TIP3    H173769   0.564   1.913  12.344  0.4075  0.1721 -0.2115
17426TIP3    H273770   0.475   1.797  12.306  0.5370  0.4149 -1.3032
17427TIP3   OH273771   4.146   6.575  16.241  0.0990  0.6336  0.3601
17427TIP3    H173772   4.156   6.666  16.212  1.1307  0.0791 -1.1729
17427TIP3    H273773   4.193   6.524  16.175 -1.4541 -1.1168  0.5353
17428TIP3   OH273774   1.780   6.244  13.926 -0.5077 -0.8622 -0.0238
17428TIP3    H173775   1.806   6.207  13.841  1.0784 -1.4294  0.6637
17428TIP3    H273776   1.758   6.335  13.907 -0.9989 -1.1929 -1.1667
17429TIP3   OH273777   5.517   3.393   4.865 -0.4019 -0.3309 -0.6566
17429TIP3    H173778   5.582   3.356   4.805 -0.3410  0.5948 -1.1891
17429TIP3    H273779   5.570   3.427   4.938 -0.3515 -0.2782 -0.7169
17430TIP3   OH273780   0.026   4.962  11.720  0.0821  0.3590  0.6201
17430TIP3    H173781   0.069   4.896  11.775  0.8265 -2.2147 -2.7028
17430TIP3    H273782   0.097   5.017  11.688 -0.0429  0.4511  0.5003
17431TIP3   OH273783   5.870   6.354   0.341  0.0356 -0.1011 -0.3027
17431TIP3    H173784   5.964   6.372   0.338  0.1794 -0.6757  0.4442
17431TIP3    H273785   5.863   6.259   0.349 -0.5262  0.0462  1.6374
17432TIP3   OH273786   4.738   0.069   3.631  0.0733  0.5174  0.0359
17432TIP3    H173787   4.736   0.088   3.724  0.1865 -1.8367  0.5747
17432TIP3    H273788   4.658   0.108   3.597  0.3961  2.0576  0.9364
17433TIP3   OH273789   6.751   3.750   2.598  0.1855 -0.7836  0.2068
17433TIP3    H173790   6.800   3.668   2.583  2.4912  0.3374  1.0424
17433TIP3    H273791   6.722   3.777   2.511  0.5395 -1.8349 -0.2566
17434TIP3   OH273792   5.071   0.423  12.882  0.3965  0.2434  0.0945
17434TIP3    H173793   5.069   0.332  12.910  1.3232  1.0389  3.0503
17434TIP3    H273794   5.160   0.436  12.849  0.4184  0.1963  0.1350
17435TIP3   OH273795   5.162   6.255   3.306  0.5688  0.1981 -1.0048
17435TIP3    H173796   5.221   6.262   3.382  0.3919 -0.0620 -0.8413
17435TIP3    H273797   5.193   6.322   3.245  1.7668 -0.7200 -1.4306
17436TIP3   OH273798   4.457   3.290   5.591  0.0851 -0.0924  0.0287
17436TIP3    H173799   4.430   3.382   5.591  1.6453  0.4928  2.8677
17436TIP3    H273800   4.375   3.241   5.603 -0.6207  1.0172 -0.1376
17437TIP3   OH273801   1.107   5.022  11.952 -0.0704 -0.2781 -0.0892
17437TIP3    H173802   1.027   5.047  11.906  0.1803  0.1251 -0.3073
17437TIP3    H273803   1.171   5.008  11.882 -0.2083 -1.5658  0.0159
17438TIP3   OH273804   5.764   3.070   0.477 -0.4151 -0.2633  0.4037
17438TIP3    H173805   5.820   3.136   0.519 -0.7812  0.5591 -0.3624
17438TIP3    H273806   5.699   3.049   0.544  0.9342 -1.4344  1.4028
17439TIP3   OH273807   1.207   0.918  12.026 -0.1454 -0.2485  0.1029
17439TIP3    H173808   1.200   1.009  12.054 -0.3405 -0.6363  1.3636
17439TIP3    H273809   1.160   0.868  12.093 -1.7478 -1.1161 -1.5954
17440TIP3   OH273810   4.441   6.043   5.581 -0.3803 -0.3337  0.1362
17440TIP3    H173811   4.500   6.053   5.506 -0.3430 -3.6019 -0.4073
17440TIP3    H273812   4.462   5.957   5.617 -2.2833 -0.0068  2.2712
17441TIP3   OH273813   4.998   5.042   5.629  0.1683 -0.1214  0.0367
17441TIP3    H173814   4.915   5.082   5.655  0.7218  1.7226 -0.8841
17441TIP3    H273815   4.990   5.030   5.534  0.8447 -0.2354 -0.0085
17442TIP3   OH273816   6.150   2.429  15.896  0.1617  0.5195  0.3535
17442TIP3    H173817   6.081   2.486  15.929  1.2769  1.6256  0.8509
17442TIP3    H273818   6.161   2.363  15.964 -1.8186 -0.9593 -0.6639
17443TIP3   OH273819   5.504   5.364   2.037  0.1496  1.0358 -0.3937
17443TIP3    H173820   5.409   5.369   2.023 -0.3828 -2.2674  1.2049
17443TIP3    H273821   5.516   5.380   2.130  0.8219 -0.9797 -0.0846
17444TIP3   OH273822   5.364   3.814   6.214 -0.2569  0.5712  0.1773
17444TIP3    H173823   5.331   3.726   6.232 -1.6392  1.0030 -0.1414
17444TIP3    H273824   5.297   3.854   6.159 -0.7470  2.5548  2.0607
17445TIP3   OH273825   5.228   2.460   2.462 -0.2052 -0.9885  0.1634
17445TIP3    H173826   5.158   2.445   2.526 -0.1368 -0.7327  0.2996
17445TIP3    H273827   5.307   2.468   2.515 -0.3581  0.7161  0.1725
17446TIP3   OH273828   6.289   2.367  15.429 -0.3303  0.3103  0.0821
17446TIP3    H173829   6.272   2.289  15.376  1.5863 -0.7639  0.9232
17446TIP3    H273830   6.219   2.367  15.495 -1.4771  0.4504 -1.1030
17447TIP3   OH273831   5.838   3.426   1.338 -0.0676 -0.4041  0.2803
17447TIP3    H173832   5.805   3.499   1.389 -0.9119  0.5190 -1.5038
17447TIP3    H273833   5.770   3.409   1.272  1.1368 -1.2414 -0.8090
17448TIP3   OH273834   0.625   6.641  14.966 -0.5928 -0.2505 -0.4012
17448TIP3    H173835   0.673   6.697  15.027 -0.4682 -0.5653 -0.2044
17448TIP3    H273836   0.547   6.614  15.014 -0.6314 -0.2787 -0.4801
17449TIP3   OH273837   0.832   2.474  11.036  0.6247  0.4657 -0.0847
17449TIP3    H173838   0.817   2.541  10.969  1.5762  0.8626  0.0891
17449TIP3    H273839   0.857   2.523  11.114 -0.5477  0.0124  0.6034
17450TIP3   OH273840   4.457   4.965  15.874  0.1415  0.0506 -0.0611
17450TIP3    H173841   4.505   5.047  15.889 -0.0032  0.2251 -0.5546
17450TIP3    H273842   4.418   4.975  15.788 -1.2125  0.1162  0.5263
17451TIP3   OH273843   4.993   2.197  16.891  0.4713 -0.1024 -0.0216
17451TIP3    H173844   4.950   2.167  16.811 -0.1626  1.8302 -0.4640
17451TIP3    H273845   4.993   2.292  16.883  0.8641  0.1081  2.0502
17452TIP3   OH273846   5.702   0.373   0.215 -0.1752 -0.3389 -0.4919
17452TIP3    H173847   5.632   0.427   0.252 -0.5791 -0.1505 -1.4986
17452TIP3    H273848   5.665   0.285   0.212 -0.0521 -0.4003 -0.2184
17453TIP3   OH273849   2.209   3.896  15.820 -0.4819  0.6539 -0.4893
17453TIP3    H173850   2.143   3.832  15.849 -0.6100  0.2323 -1.6619
17453TIP3    H273851   2.170   3.981  15.840 -0.4139  0.3854  0.8682
17454TIP3   OH273852   1.188   5.999   0.951  0.2282  0.0808 -0.2838
17454TIP3    H173853   1.250   6.071   0.961 -0.3140  0.4083  0.8857
17454TIP3    H273854   1.242   5.920   0.961  0.9967  0.2560 -2.5611
17455TIP3   OH273855   1.154   0.344   3.986  0.5489  0.6723  0.0772
17455TIP3    H173856   1.072   0.362   3.941 -0.0046 -0.4131  0.5968
17455TIP3    H273857   1.219   0.339   3.916  0.3410  2.3583 -0.2645
17456TIP3   OH273858   1.154   1.215   1.625  0.2835  0.1426  0.3816
17456TIP3    H173859   1.169   1.310   1.629 -0.9861  0.3966 -0.3338
17456TIP3    H273860   1.082   1.205   1.563  0.6206 -1.3286  0.1891
17457TIP3   OH273861   1.129   0.102  11.209 -0.0310  0.2013  0.3437
17457TIP3    H173862   1.153   0.093  11.117 -0.4376 -0.4936  0.2976
17457TIP3    H273863   1.039   0.070  11.214 -0.4039  1.2801  0.7920
17458TIP3   OH273864   1.499   6.194   2.894 -0.0411  0.3852  0.5335
17458TIP3    H173865   1.417   6.187   2.845 -0.3902  0.6414  1.0773
17458TIP3    H273866   1.538   6.277   2.864  0.5189 -0.2066 -0.4589
17459TIP3   OH273867   3.485   0.106  13.825 -0.8301 -0.1881  0.0983
17459TIP3    H173868   3.394   0.095  13.798 -0.9355  1.4750 -0.3172
17459TIP3    H273869   3.536   0.086  13.747 -0.9119  0.1775 -0.0506
17460TIP3   OH273870   3.917   4.421  11.273  0.2932 -0.2601  0.3260
17460TIP3    H173871   3.989   4.450  11.329 -0.8590  0.0522  1.7246
17460TIP3    H273872   3.956   4.356  11.215  1.6369 -0.2822  1.2118
17461TIP3   OH273873   3.958   5.774  14.089  0.0460 -0.0835  0.1483
17461TIP3    H173874   3.929   5.685  14.068  0.6045 -0.3237  0.3665
17461TIP3    H273875   4.054   5.767  14.095  0.3725  1.0237 -2.2816
17462TIP3   OH273876   6.204   0.462   4.925 -0.5244  0.4960  1.1633
17462TIP3    H173877   6.232   0.441   5.014  0.9696  1.9719  1.1060
17462TIP3    H273878   6.248   0.397   4.870  1.3238  1.5818  1.2632
17463TIP3   OH273879   3.568   1.020  15.961 -0.3661  0.1031  1.2855
17463TIP3    H173880   3.617   1.064  16.030 -0.3291  1.3985  0.4770
17463TIP3    H273881   3.555   0.931  15.993  0.2396  0.4829  2.6453
17464TIP3   OH273882   1.153   3.220   4.721 -0.5662 -0.4721 -0.0336
17464TIP3    H173883   1.224   3.254   4.775  0.4881 -0.0881 -1.5781
17464TIP3    H273884   1.073   3.255   4.761  0.1640 -0.2370  1.2682
17465TIP3   OH273885   6.632   5.133  11.775  0.2754 -0.4926 -0.0728
17465TIP3    H173886   6.700   5.079  11.737  0.9796  0.7626 -0.6619
17465TIP3    H273887   6.632   5.213  11.722 -2.6708 -1.0248 -1.0658
17466TIP3   OH273888   3.153   5.189  13.700 -0.0258 -0.7125  0.5766
17466TIP3    H173889   3.169   5.184  13.606 -0.1474 -2.6318  0.6117
17466TIP3    H273890   3.241   5.198  13.739  0.1574 -1.3737  0.3294
17467TIP3   OH273891   0.326   6.353   3.528 -0.1315 -0.5290  0.1001
17467TIP3    H173892   0.250   6.342   3.471 -1.7214 -1.1345  2.1751
17467TIP3    H273893   0.318   6.282   3.592  2.0300 -0.3966  0.6028
17468TIP3   OH273894   5.131   2.867   6.011 -0.3536 -0.1315 -0.0021
17468TIP3    H173895   5.051   2.894   6.056  0.0361 -1.4848  1.6266
17468TIP3    H273896   5.192   2.940   6.023 -0.3225 -0.3825  1.5934
17469TIP3   OH273897   5.795   2.669   5.583 -0.3341 -0.0740 -0.3486
17469TIP3    H173898   5.835   2.756   5.591  2.0145 -1.1011  0.1222
17469TIP3    H273899   5.836   2.617   5.653  0.1171 -2.1497 -2.0485
17470TIP3   OH273900   5.262   4.870  11.976 -0.0084 -0.8060  0.2019
17470TIP3    H173901   5.316   4.817  11.918 -1.7356 -0.3013 -2.0164
17470TIP3    H273902   5.199   4.808  12.014 -0.0449 -0.8373  0.0887
17471TIP3   OH273903   1.035   3.867   0.273  0.1037  0.2474 -0.4681
17471TIP3    H173904   0.973   3.831   0.209  0.5490  1.2801 -1.5066
17471TIP3    H273905   1.117   3.878   0.224  0.2171  1.8550  0.0200
17472TIP3   OH273906   0.314   2.726  11.891 -0.0695 -0.3203  0.6010
17472TIP3    H173907   0.289   2.643  11.931 -0.2193 -0.6682 -0.2073
17472TIP3    H273908   0.285   2.719  11.800  1.4454 -0.0688  0.0677
17473TIP3   OH273909   1.801   3.132  12.093  0.5499  0.4112  0.2868
17473TIP3    H173910   1.747   3.202  12.129  1.6690  1.7676 -0.5595
17473TIP3    H273911   1.764   3.115  12.007 -0.8101 -1.3468  1.1391
17474TIP3   OH273912   1.123   2.224   0.048 -0.6467 -0.3407 -0.8372
17474TIP3    H173913   1.136   2.140   0.005  0.5852  1.0273 -3.3484
17474TIP3    H273914   1.138   2.289  -0.020 -1.2461  1.9641  1.0721
17475TIP3   OH273915   5.908   4.736   2.960  0.0644  0.0596  0.0581
17475TIP3    H173916   5.867   4.823   2.958 -0.9307 -0.3506  1.2945
17475TIP3    H273917   5.989   4.747   2.911 -0.5894  1.3988 -0.7746
17476TIP3   OH273918   0.655   5.762  14.826  0.4841 -0.5809  0.5061
17476TIP3    H173919   0.637   5.835  14.886  0.6007 -1.1030  1.1818
17476TIP3    H273920   0.750   5.760  14.819  0.4607 -0.3727  0.1164
17477TIP3   OH273921   6.063   0.296   1.352 -0.2533 -0.1806  0.1223
17477TIP3    H173922   6.021   0.260   1.430  0.0402 -1.6167 -0.3602
17477TIP3    H273923   6.103   0.378   1.382 -1.3073 -0.0136  1.1430
17478TIP3   OH273924   0.141   2.153  14.755 -0.2196 -0.6139  0.1043
17478TIP3    H173925   0.226   2.193  14.735 -0.9356  0.4028 -1.0035
17478TIP3    H273926   0.077   2.218  14.727 -1.3840 -0.4963  2.7148
17479TIP3   OH273927   1.585   4.139  13.660 -0.4560  0.2981 -0.7543
17479TIP3    H173928   1.643   4.176  13.726 -2.4278  1.6791  0.3429
17479TIP3    H273929   1.631   4.151  13.577  1.1792  0.4577  0.1346
17480TIP3   OH273930   4.474   3.757   6.602  0.2674 -0.5535  0.2344
17480TIP3    H173931   4.400   3.702   6.627 -0.3688 -0.0869 -0.5437
17480TIP3    H273932   4.478   3.824   6.670 -1.6820  0.9270 -1.0032
17481TIP3   OH273933   0.512   0.066  14.752 -0.2299 -0.3768  0.0293
17481TIP3    H173934   0.469  -0.018  14.767  0.3172 -0.6718 -0.0218
17481TIP3    H273935   0.598   0.057  14.793  0.8589 -0.7858 -2.2175
17482TIP3   OH273936   4.896   3.713   3.248  0.0758  0.1414 -0.5227
17482TIP3    H173937   4.896   3.620   3.228 -1.0543  0.2952 -1.3714
17482TIP3    H273938   4.832   3.751   3.186  1.0345  1.5787 -0.6888
17483TIP3   OH273939   3.664   1.914   1.457  0.4047 -0.4411 -0.0885
17483TIP3    H173940   3.643   1.921   1.364 -1.0733  0.3647  0.2716
17483TIP3    H273941   3.758   1.935   1.462  0.4704 -0.3593 -1.3786
17484TIP3   OH273942   5.934   5.630   5.093 -0.1482 -0.2665 -0.9396
17484TIP3    H173943   5.911   5.632   5.001 -2.3927 -0.9152 -0.4529
17484TIP3    H273944   5.907   5.715   5.127 -0.4328 -0.4693 -0.6520
17485TIP3   OH273945   0.878   5.196  14.236  0.0175 -0.3423 -0.1583
17485TIP3    H173946   0.794   5.221  14.198 -0.9215 -2.6021  0.2950
17485TIP3    H273947   0.885   5.250  14.315 -1.4172 -0.6738  0.2277
17486TIP3   OH273948   3.991   3.978  13.012  0.4479 -0.0260  0.1525
17486TIP3    H173949   3.994   4.065  13.050  1.3091 -0.0421  0.1383
17486TIP3    H273950   3.995   3.919  13.088 -2.5867 -0.1253  0.3900
17487TIP3   OH273951   1.902   4.754   5.944  0.2872 -0.3784 -0.3411
17487TIP3    H173952   1.853   4.704   5.878  0.9385 -0.8024 -0.5042
17487TIP3    H273953   1.932   4.832   5.896 -0.0201 -0.2274 -0.2975
17488TIP3   OH273954   3.602   5.974   6.087  0.8566  0.0022 -0.4885
17488TIP3    H173955   3.538   5.981   6.016  0.6200  0.9205 -0.1927
17488TIP3    H273956   3.634   6.063   6.100  0.7183 -0.1084  0.7205
17489TIP3   OH273957   3.247   5.816  16.948 -0.2379  0.4510 -0.5742
17489TIP3    H173958   3.303   5.849  17.018 -2.8016  3.1818  0.3910
17489TIP3    H273959   3.237   5.890  16.889 -0.9264 -0.7328 -2.0051
17490TIP3   OH273960   3.418   4.165  14.986  0.0895 -0.0920 -0.2078
17490TIP3    H173961   3.380   4.253  14.975 -0.1589 -0.0392  0.8682
17490TIP3    H273962   3.416   4.151  15.081  1.7963 -0.5295 -0.2085
17491TIP3   OH273963   0.612   3.986   2.580 -0.2049  0.1809 -0.4135
17491TIP3    H173964   0.575   3.904   2.611 -0.1920  0.9969  1.9741
17491TIP3    H273965   0.646   3.966   2.493 -2.7389 -1.5932 -1.1108
17492TIP3   OH273966   6.420   5.108   3.596 -0.3856 -0.1347 -0.4340
17492TIP3    H173967   6.360   5.175   3.561 -0.6878 -0.6252 -0.8678
17492TIP3    H273968   6.500   5.157   3.616 -0.4595  0.2933 -1.1313
17493TIP3   OH273969   0.344   5.238   1.333  0.1674  0.2247  0.0026
17493TIP3    H173970   0.268   5.296   1.339  0.7155  0.8403  2.8837
17493TIP3    H273971   0.320   5.162   1.386  1.4939  0.4371  0.9736
17494TIP3   OH273972   6.378   5.074   0.827 -0.0065  0.8223  0.1464
17494TIP3    H173973   6.367   5.024   0.908 -0.7290  0.3073 -0.2596
17494TIP3    H273974   6.307   5.139   0.829  1.3195  2.3119  0.9915
17495TIP3   OH273975   2.790   5.000  16.803  0.1304 -0.1744 -0.4017
17495TIP3    H173976   2.797   4.924  16.746 -0.4236 -0.8019  0.3490
17495TIP3    H273977   2.878   5.039  16.802  0.1643 -0.2580 -1.5477
17496TIP3   OH273978   2.056   5.663  12.440 -0.1608  0.2273 -0.1468
17496TIP3    H173979   1.984   5.706  12.393 -0.7677 -0.7173 -0.1193
17496TIP3    H273980   2.108   5.621  12.372  0.8658  1.5830 -0.2441
17497TIP3   OH273981   1.839   2.327   1.072  0.0200  0.1159  0.0354
17497TIP3    H173982   1.811   2.259   1.134  0.7946  2.1880  2.9028
17497TIP3    H273983   1.914   2.288   1.027  0.1377 -1.1399  1.2359
17498TIP3   OH273984   3.689   6.542  16.787  0.5117 -0.1331 -0.1256
17498TIP3    H173985   3.670   6.492  16.867  1.8588 -1.3264 -0.4975
17498TIP3    H273986   3.622   6.513  16.724  1.2073 -1.4505 -0.3011
17499TIP3   OH273987   5.961   1.894  12.472 -0.5055 -0.4231 -0.3725
17499TIP3    H173988   5.905   1.944  12.532  0.9177 -0.6664  1.2235
17499TIP3    H273989   5.899   1.847  12.416 -1.8859  1.8181 -0.8712
17500TIP3   OH273990   2.010   5.844  11.759  0.3682 -0.6034 -0.5012
17500TIP3    H173991   1.968   5.764  11.792  0.4498 -0.4816 -0.1008
17500TIP3    H273992   2.074   5.867  11.827  1.5798 -1.1733 -1.3921
17501TIP3   OH273993   0.842   4.990  10.867  0.0466  0.3731  0.2541
17501TIP3    H173994   0.901   4.976  10.794 -0.4671 -1.8610  0.1970
17501TIP3    H273995   0.765   5.030  10.828 -0.4409 -1.2804 -0.5877
17502TIP3   OH273996   3.315   6.709  13.165  0.5165  0.4041  0.2173
17502TIP3    H173997   3.366   6.787  13.143 -1.4811  1.5765 -0.5557
17502TIP3    H273998   3.336   6.646  13.096  1.6073  0.5122  0.4401
17503TIP3   OH273999   1.214   0.677   3.531  0.0377  0.4000  0.7032
17503TIP3    H174000   1.227   0.770   3.549 -0.1204  0.4008  0.8131
17503TIP3    H274001   1.288   0.653   3.476  1.2365  0.0729  2.4065
17504TIP3   OH274002   5.524   0.995  13.731 -1.0555  0.2325 -0.3481
17504TIP3    H174003   5.533   1.076  13.782 -0.3211  0.6136 -1.0587
17504TIP3    H274004   5.442   0.956  13.762  0.1816 -0.4469  2.3644
17505TIP3   OH274005   1.874   0.085  10.412  0.0810  0.0775  0.5512
17505TIP3    H174006   1.807   0.141  10.373 -0.9482 -1.1970  0.4232
17505TIP3    H274007   1.954   0.105  10.363 -0.2482  1.4518  0.5510
17506TIP3   OH274008   6.029   2.062  16.390 -0.1472 -0.5198  0.9327
17506TIP3    H174009   6.045   1.968  16.382  1.5255 -0.3641  2.0033
17506TIP3    H274010   6.082   2.089  16.465 -0.2726  1.3662  0.3885
17507TIP3   OH274011   2.510   0.187   4.047  0.3612  0.2692  0.0828
17507TIP3    H174012   2.450   0.158   3.978 -1.5796 -2.0603  2.5351
17507TIP3    H274013   2.593   0.144   4.026  0.3720  1.0700 -1.7104
17508TIP3   OH274014   2.184   5.129   4.381  0.2317  0.1421  0.0182
17508TIP3    H174015   2.099   5.163   4.410  0.3341  1.2711 -0.9641
17508TIP3    H274016   2.164   5.079   4.302  0.4775  0.4350 -0.2318
17509TIP3   OH274017   5.734   0.636  13.072  0.4835  0.0435 -0.0370
17509TIP3    H174018   5.680   0.714  13.066 -0.3959 -0.6070 -1.0629
17509TIP3    H274019   5.817   0.661  13.032  1.0131  1.0871  1.6528
17510TIP3   OH274020   0.514   6.749   1.833 -0.1795 -0.3442  0.2990
17510TIP3    H174021   0.430   6.703   1.839 -1.4072  1.7130  0.0591
17510TIP3    H274022   0.523   6.791   1.919 -0.1468  0.6260 -0.1672
17511TIP3   OH274023   2.331   0.187  11.980  0.0236  0.1104  0.6608
17511TIP3    H174024   2.251   0.176  11.928 -0.7778  0.4801  1.7641
17511TIP3    H274025   2.341   0.105  12.027  0.0895  0.1967  0.7978
17512TIP3   OH274026   4.649   6.747  15.735 -0.0965  0.1991  0.3498
17512TIP3    H174027   4.658   6.773  15.644  1.0492 -1.2848  0.0039
17512TIP3    H274028   4.634   6.829  15.782 -0.6004  0.9903 -1.1457
17513TIP3   OH274029   6.207   1.440  11.896  0.0731  0.6770 -0.6571
17513TIP3    H174030   6.231   1.527  11.929 -0.9255  0.2036  1.4437
17513TIP3    H274031   6.244   1.379  11.960  0.7753 -0.5016 -2.1095
17514TIP3   OH274032   0.689   4.100   6.037 -0.2478  0.5448 -0.5131
17514TIP3    H174033   0.735   4.021   6.065 -0.1251  0.2257 -1.5591
17514TIP3    H274034   0.613   4.106   6.095 -0.9099 -1.0160 -1.1695
17515TIP3   OH274035   1.985   6.613  15.582  0.3857  0.5112  0.1081
17515TIP3    H174036   2.036   6.649  15.655 -1.5887  1.5489  1.0453
17515TIP3    H274037   1.961   6.690  15.530  0.5352 -0.0653 -0.8364
17516TIP3   OH274038   6.273   0.459  12.791 -0.4247 -0.3603  0.2561
17516TIP3    H174039   6.179   0.444  12.792 -0.5104  0.1598  1.2644
17516TIP3    H274040   6.295   0.484  12.880 -0.0353  3.5626 -0.7314
17517TIP3   OH274041   4.415   1.014  13.476 -0.0141 -0.4275 -0.1617
17517TIP3    H174042   4.499   0.993  13.515 -0.1573  0.1557  0.4719
17517TIP3    H274043   4.353   1.013  13.549 -0.9837 -2.9894 -0.9019
17518TIP3   OH274044   4.636   1.348   1.778 -0.3805  0.3913  0.3901
17518TIP3    H174045   4.694   1.277   1.751 -0.8045 -0.5672  1.9306
17518TIP3    H274046   4.566   1.349   1.711 -0.2846 -0.5257  0.2717
17519TIP3   OH274047   5.081   4.122   4.369  0.4164  0.2035 -0.0931
17519TIP3    H174048   5.098   4.040   4.322  1.1702  0.8909 -1.0518
17519TIP3    H274049   5.029   4.095   4.445 -1.7110 -0.8580 -1.8072
17520TIP3   OH274050   1.342   6.500   2.196  0.2591  0.5118  0.3073
17520TIP3    H174051   1.416   6.439   2.196 -0.9228 -0.9752  0.9485
17520TIP3    H274052   1.331   6.523   2.288  0.2568  1.1713  0.1470
17521TIP3   OH274053   1.193   3.584  12.767 -0.7909 -1.2529 -0.3621
17521TIP3    H174054   1.287   3.603  12.765 -0.6953 -1.3982  1.2057
17521TIP3    H274055   1.174   3.548  12.681  0.9210 -2.6891 -0.1977
17522TIP3   OH274056   1.215   5.892   1.877  0.5564 -0.1624  0.4505
17522TIP3    H174057   1.215   5.951   1.802 -2.9207 -0.0159  0.4280
17522TIP3    H274058   1.197   5.806   1.840 -0.7937 -0.1540  1.0418
17523TIP3   OH274059   2.559   4.812   4.954  0.7001  0.4324 -0.0236
17523TIP3    H174060   2.565   4.718   4.937  3.3282  0.5681 -0.2198
17523TIP3    H274061   2.508   4.847   4.881 -1.9801 -0.9994  1.0107
17524TIP3   OH274062   1.104   0.917  11.678 -0.1005  0.0498  0.3590
17524TIP3    H174063   1.155   0.983  11.724  2.7216 -1.0645 -0.9151
17524TIP3    H274064   1.125   0.931  11.586  1.4162 -3.0993  0.0970
17525TIP3   OH274065   6.624   5.525   1.166  0.2734  0.0915  0.4447
17525TIP3    H174066   6.679   5.598   1.137 -0.6987  0.7910  0.3390
17525TIP3    H274067   6.535   5.557   1.158 -0.2948 -1.7409 -1.3867
17526TIP3   OH274068   4.767   5.749  14.399  0.0884 -0.0216 -0.1821
17526TIP3    H174069   4.699   5.738  14.333 -1.5929  1.8901  1.1297
17526TIP3    H274070   4.721   5.741  14.483  1.9552 -1.2443  0.8089
17527TIP3   OH274071   4.521   0.199   3.435 -0.2288  1.1481 -0.4501
17527TIP3    H174072   4.496   0.127   3.378  2.6640  0.0117 -0.4755
17527TIP3    H274073   4.523   0.275   3.378  0.5022  0.4463 -1.3968
17528TIP3   OH274074   3.499   5.728  17.073  0.0642  0.2360 -0.3551
17528TIP3    H174075   3.484   5.776  17.154 -0.3247 -1.5311  0.6676
17528TIP3    H274076   3.589   5.749  17.048  0.2028  0.7577  0.5704
17529TIP3   OH274077   6.519   1.103  16.911 -0.0592  0.5036 -0.2509
17529TIP3    H174078   6.479   1.184  16.882 -0.4645  0.3196 -0.2167
17529TIP3    H274079   6.452   1.061  16.966  0.1198  0.1228 -0.3151
17530TIP3   OH274080   4.404   1.872   4.949 -0.0025 -1.0203 -0.4784
17530TIP3    H174081   4.473   1.806   4.949  1.1044  0.0781 -1.6968
17530TIP3    H274082   4.449   1.954   4.930 -1.0112  0.5198  2.9314
17531TIP3   OH274083   2.428   1.852  14.602 -0.2986  0.6248 -0.5312
17531TIP3    H174084   2.503   1.903  14.634  0.7373 -1.0730 -0.1520
17531TIP3    H274085   2.391   1.812  14.681 -0.0903 -0.4994 -0.9864
17532TIP3   OH274086   0.926   2.349  14.726 -0.4980 -0.0198  0.4360
17532TIP3    H174087   0.867   2.337  14.800 -1.9163 -0.7453 -0.7629
17532TIP3    H274088   0.873   2.389  14.658  0.2157 -1.1633 -0.8586
17533TIP3   OH274089   6.560   2.123  15.828  0.6177 -0.2421 -0.0874
17533TIP3    H174090   6.579   2.030  15.841  1.8301 -0.0815 -0.5984
17533TIP3    H274091   6.611   2.167  15.895 -0.7272  0.0310  0.8062
17534TIP3   OH274092   3.845   2.942  11.972  0.0844 -0.5482 -0.1021
17534TIP3    H174093   3.862   2.922  12.064  0.1159  0.5197  0.1441
17534TIP3    H274094   3.898   3.020  11.955 -1.5983  0.5982 -0.3872
17535TIP3   OH274095   4.300   6.501   3.571 -0.1224 -0.3016  0.1581
17535TIP3    H174096   4.284   6.595   3.562  0.5201 -0.1147  0.8686
17535TIP3    H274097   4.276   6.480   3.661  0.8924 -0.5711  0.3783
17536TIP3   OH274098   2.749   4.216  12.883 -0.3595 -0.0497 -0.4827
17536TIP3    H174099   2.779   4.277  12.816  0.4430  0.4300  0.2918
17536TIP3    H274100   2.810   4.142  12.877 -0.9495 -0.5147 -0.9960
17537TIP3   OH274101   6.221   4.751  11.172  0.9875 -0.4209  0.1246
17537TIP3    H174102   6.309   4.783  11.153  1.2983 -1.2680  0.0782
17537TIP3    H274103   6.163   4.812  11.127  1.6535 -1.9507 -3.0932
17538TIP3   OH274104   1.104   4.392  11.289  0.2209 -0.0062 -0.6769
17538TIP3    H174105   1.086   4.308  11.246 -1.0147 -0.7464  1.1613
17538TIP3    H274106   1.085   4.458  11.222 -1.8806 -1.0911 -1.2443
17539TIP3   OH274107   6.465   4.950  12.612 -0.3512 -0.0189  0.1396
17539TIP3    H174108   6.515   5.023  12.648 -2.4269  2.6107 -1.8598
17539TIP3    H274109   6.508   4.930  12.529 -0.6575  0.0031 -0.0266
17540TIP3   OH274110   4.152   1.460  13.252 -0.1460  0.1752 -0.2689
17540TIP3    H174111   4.201   1.517  13.193  0.2550  1.3088  1.1139
17540TIP3    H274112   4.125   1.386  13.197  2.7820 -0.3279 -1.2222
17541TIP3   OH274113   1.825   5.518  11.414 -0.2905 -0.4187  0.2085
17541TIP3    H174114   1.889   5.574  11.458 -1.8591  1.2474  0.4717
17541TIP3    H274115   1.851   5.429  11.437  1.6487  0.2192  0.6650
17542TIP3   OH274116   3.329   5.364   0.528  0.1550 -0.1727 -0.0666
17542TIP3    H174117   3.368   5.277   0.515 -0.3664 -0.5002  0.5185
17542TIP3    H274118   3.235   5.348   0.523  0.0333  0.2386  0.7738
17543TIP3   OH274119   2.813   2.963  12.748 -0.3336  0.7279  0.4044
17543TIP3    H174120   2.826   2.887  12.805  0.2735 -1.0211 -1.9130
17543TIP3    H274121   2.825   3.038  12.806  0.3554 -0.9125  2.5403
17544TIP3   OH274122   2.107   0.260  16.337  0.0073  0.3947  0.3629
17544TIP3    H174123   2.149   0.313  16.270 -0.9693  0.5803 -0.1245
17544TIP3    H274124   2.024   0.233  16.298  0.1360 -0.8523  0.8910
17545TIP3   OH274125   1.084   6.784   4.755  0.3698 -0.0855  0.0646
17545TIP3    H174126   1.158   6.798   4.696 -1.1108 -0.3524 -1.9377
17545TIP3    H274127   1.075   6.689   4.761  0.6111 -0.0658  0.8863
17546TIP3   OH274128   4.713   5.658  11.570 -0.3885 -0.1972  0.2053
17546TIP3    H174129   4.656   5.641  11.495  0.1057 -1.6749  0.1234
17546TIP3    H274130   4.786   5.709  11.535 -0.9121  0.4079 -0.0008
17547TIP3   OH274131   2.044   2.539   3.984 -0.0309  0.2234  0.2790
17547TIP3    H174132   2.109   2.524   4.053 -2.2287 -0.1016  2.4244
17547TIP3    H274133   1.977   2.473   4.000 -1.7931  1.6983 -0.6680
17548TIP3   OH274134   5.714   4.477   4.561  0.5559  0.9436  0.3295
17548TIP3    H174135   5.660   4.547   4.598 -0.1779 -0.0748  1.2463
17548TIP3    H274136   5.755   4.516   4.484 -1.0149  1.9266 -0.0449
17549TIP3   OH274137   6.386   0.711  16.219  0.3630 -0.2773  0.1921
17549TIP3    H174138   6.342   0.670  16.294  1.2659  1.2014  1.6058
17549TIP3    H274139   6.395   0.803  16.244  1.0261  0.1786 -1.5943
17550TIP3   OH274140   4.837   1.611  12.881  0.1718 -0.2635  0.2600
17550TIP3    H174141   4.898   1.560  12.828  1.1254 -0.4014  1.4581
17550TIP3    H274142   4.878   1.697  12.890 -1.4056  0.8069 -1.7164
17551TIP3   OH274143   0.397   1.403  12.732  0.1056  0.9512 -0.2318
17551TIP3    H174144   0.356   1.352  12.801 -1.0503  1.2782 -0.6522
17551TIP3    H274145   0.341   1.390  12.656  1.1711  0.8612 -1.0267
17552TIP3   OH274146   6.533   1.177  12.112  0.4951  0.3138  0.1540
17552TIP3    H174147   6.529   1.258  12.162 -0.2790 -1.2562  2.8326
17552TIP3    H274148   6.590   1.197  12.038 -1.3434  3.8483 -0.5054
17553TIP3   OH274149   4.608   2.041   2.882  0.1457  0.1690  0.1479
17553TIP3    H174150   4.570   1.980   2.818 -0.6805 -0.3965  1.1411
17553TIP3    H274151   4.539   2.104   2.899  1.0404  1.4882 -0.9614
17554TIP3   OH274152   5.238   5.954   4.272 -0.0285  0.0940  0.5311
17554TIP3    H174153   5.162   5.898   4.285  0.8069 -0.9623  0.9917
17554TIP3    H274154   5.285   5.913   4.199 -0.4049  1.3060 -0.4202
17555TIP3   OH274155   3.200   2.984   2.001  0.1107 -0.0165  0.1267
17555TIP3    H174156   3.201   2.903   1.950 -2.3363 -1.5660  2.2992
17555TIP3    H274157   3.182   2.956   2.090 -1.1118  2.9360  0.9285
17556TIP3   OH274158   0.535   2.871  14.515 -0.3887  0.7706 -0.1275
17556TIP3    H174159   0.522   2.870  14.610  1.5054 -0.5486  0.1764
17556TIP3    H274160   0.532   2.963  14.492 -1.0127  1.1119  1.2024
17557TIP3   OH274161   4.329   0.219  16.652 -0.5942  0.2945 -0.1897
17557TIP3    H174162   4.394   0.258  16.594 -0.8280  0.9213 -0.0319
17557TIP3    H274163   4.311   0.133  16.613  0.6674 -0.0974  0.0204
17558TIP3   OH274164   2.904   5.660   0.486 -0.3622 -0.7637 -0.1135
17558TIP3    H174165   2.829   5.657   0.426 -0.1134  0.2541 -0.4873
17558TIP3    H274166   2.890   5.585   0.544 -1.3634 -0.9300 -0.5361
17559TIP3   OH274167   4.091   1.111  11.298  0.3766  0.2468  0.2532
17559TIP3    H174168   4.144   1.092  11.221  0.6646 -0.9253  0.7035
17559TIP3    H274169   4.059   1.025  11.327  1.0033  0.5362  1.9362
17560TIP3   OH274170   3.859   5.706  13.603 -0.3625  0.0905  0.1740
17560TIP3    H174171   3.930   5.708  13.667 -0.1089 -1.4591 -0.0118
17560TIP3    H274172   3.836   5.798  13.589  0.3348  0.5136  1.6363
17561TIP3   OH274173   3.285   1.669   4.417 -0.3719  0.6720  0.1431
17561TIP3    H174174   3.298   1.707   4.504 -0.8496 -1.8470  1.3978
17561TIP3    H274175   3.373   1.654   4.384 -0.1850  1.6561  0.1627
17562TIP3   OH274176   4.776   4.021   5.575 -0.1528  0.3752 -0.1604
17562TIP3    H174177   4.847   4.058   5.523  0.2402 -0.9946 -0.6222
17562TIP3    H274178   4.767   4.082   5.649  0.4040  1.4318 -0.9424
17563TIP3   OH274179   3.484   1.716  12.942 -0.3982  0.5641  0.3349
17563TIP3    H174180   3.456   1.710  12.851 -0.2716  2.5294  0.1186
17563TIP3    H274181   3.521   1.804  12.950 -0.2607  0.3781  2.2547
17564TIP3   OH274182   0.007   5.641   5.594 -0.3220  0.0072 -1.0480
17564TIP3    H174183  -0.042   5.646   5.676 -1.6275 -1.2449 -1.7190
17564TIP3    H274184   0.095   5.614   5.621 -0.2684  1.2130  0.0696
17565TIP3   OH274185   2.039   4.200  14.687  0.0921  0.1988  0.2869
17565TIP3    H174186   2.003   4.214  14.599 -0.2187 -2.4226 -0.0875
17565TIP3    H274187   2.125   4.161  14.672  0.9732  1.7148  1.1922
17566TIP3   OH274188   5.639   1.419  16.769 -0.0945  0.3139  0.0996
17566TIP3    H174189   5.551   1.382  16.774 -0.4362  1.2662  2.1865
17566TIP3    H274190   5.677   1.401  16.855  0.2683  3.3554  0.7001
17567TIP3   OH274191   4.770   0.707   0.368 -0.9343 -0.2513 -0.5267
17567TIP3    H174192   4.805   0.688   0.281 -0.8408  1.7652 -0.9881
17567TIP3    H274193   4.685   0.665   0.370 -0.8582 -0.4665 -1.5266
17568TIP3   OH274194   5.103   0.545  17.065  0.5355 -0.7670  0.3181
17568TIP3    H174195   5.073   0.458  17.037  2.1363 -1.0536 -0.6168
17568TIP3    H274196   5.022   0.596  17.073 -0.4429 -2.3467  0.9738
17569TIP3   OH274197   2.418   6.419  15.429  0.0789 -0.5150 -0.0171
17569TIP3    H174198   2.483   6.380  15.487  1.0711 -0.9654 -1.3719
17569TIP3    H274199   2.450   6.399  15.341 -0.7796  1.0942 -0.7387
17570TIP3   OH274200   6.562   4.069  14.312  0.2094  1.0343 -0.4522
17570TIP3    H174201   6.622   4.117  14.370  0.0200  1.1863 -0.3841
17570TIP3    H274202   6.589   4.095  14.224  0.7367  0.5219 -0.4507
17571TIP3   OH274203   4.187   0.030  13.812 -0.1713 -0.1205 -0.2150
17571TIP3    H174204   4.094   0.037  13.791  0.0982  1.0778 -1.0963
17571TIP3    H274205   4.196   0.078  13.895 -0.0857  1.1314 -0.9360
17572TIP3   OH274206   0.856   6.425  12.590  0.4636  0.3415 -0.1479
17572TIP3    H174207   0.786   6.482  12.560  0.6141  0.5811 -0.0449
17572TIP3    H274208   0.914   6.483  12.640  1.9637  0.6260 -2.1363
17573TIP3   OH274209   2.993   5.835   0.175  0.1969  0.6782  0.0878
17573TIP3    H174210   3.034   5.833   0.262 -0.0665 -0.1875  0.1999
17573TIP3    H274211   3.016   5.921   0.140 -0.3730  1.3725  1.3415
17574TIP3   OH274212   1.090   3.230  17.060  0.1648  0.0223  0.2803
17574TIP3    H174213   1.056   3.254  16.974 -1.2633 -3.2069 -0.1949
17574TIP3    H274214   1.022   3.261  17.121 -0.2024 -0.1901 -0.0174
17575TIP3   OH274215   3.994   2.615   0.317  0.0945  0.2706  0.3709
17575TIP3    H174216   3.941   2.660   0.382  0.6561 -0.0601  1.0694
17575TIP3    H274217   4.076   2.595   0.362  0.5922  0.2614 -0.5173
17576TIP3   OH274218   0.441   6.531  16.399 -0.4530  0.1067  0.2803
17576TIP3    H174219   0.355   6.508  16.434 -0.8423  0.1928 -0.5936
17576TIP3    H274220   0.465   6.612  16.444  0.7999 -1.7059  3.1898
17577TIP3   OH274221   3.768   4.645  10.501 -0.3890 -0.0857 -0.4851
17577TIP3    H174222   3.790   4.608  10.416  0.3332 -0.2480 -0.2410
17577TIP3    H274223   3.815   4.728  10.504  0.8601 -0.7798  0.3428
17578TIP3   OH274224   4.592   6.313  11.681 -0.2101 -0.5454 -0.2108
17578TIP3    H174225   4.600   6.346  11.771 -0.2761  0.0473 -0.4177
17578TIP3    H274226   4.604   6.391  11.626  0.1444 -0.9542 -0.7263
17579TIP3   OH274227   3.523   1.278  12.255 -0.2441  0.1668 -0.3874
17579TIP3    H174228   3.544   1.219  12.183 -1.9479 -1.3324  0.2749
17579TIP3    H274229   3.589   1.258  12.322  0.1473  0.1571 -0.7732
17580TIP3   OH274230   6.622   6.698   2.407 -0.0786 -0.5586 -0.5044
17580TIP3    H174231   6.574   6.648   2.340 -1.2331 -0.3651  0.1491
17580TIP3    H274232   6.709   6.710   2.370 -0.3420 -1.4686 -1.4671
17581TIP3   OH274233   5.300   4.898   4.858 -0.8119  0.3236 -0.1947
17581TIP3    H174234   5.298   4.989   4.888 -1.3405 -0.1867  1.4800
17581TIP3    H274235   5.216   4.861   4.889  0.0967 -1.1371  0.6522
17582TIP3   OH274236   5.359   2.011  14.628 -0.3296  0.0366 -0.0404
17582TIP3    H174237   5.364   1.919  14.653  0.3200  0.2153  0.5070
17582TIP3    H274238   5.266   2.033  14.639 -0.0761  0.1128  2.2881
17583TIP3   OH274239   6.702   6.717   5.105  0.5151  0.3848 -0.3787
17583TIP3    H174240   6.718   6.637   5.156  0.2114  0.0422 -0.8023
17583TIP3    H274241   6.612   6.741   5.126  0.8112  0.9881  0.2358
17584TIP3   OH274242   2.579   6.489  10.498 -0.0888 -0.1947 -0.0042
17584TIP3    H174243   2.626   6.413  10.463  0.9670  0.8252 -0.8755
17584TIP3    H274244   2.637   6.525  10.564  0.1060  0.7179 -0.6549
17585TIP3   OH274245   3.079   2.901   4.630 -0.2647  0.1210  0.0926
17585TIP3    H174246   3.155   2.845   4.644 -0.2553  0.4546  1.6534
17585TIP3    H274247   3.032   2.861   4.557  0.7520 -0.7973 -0.0846
17586TIP3   OH274248   0.263   0.340  16.580 -0.5875  0.0235 -0.1988
17586TIP3    H174249   0.335   0.331  16.517 -0.2774 -0.5586  0.2250
17586TIP3    H274250   0.193   0.286  16.545 -1.6436  2.2712 -1.7326
17587TIP3   OH274251   6.486   5.868   4.336 -0.3960  0.1962 -0.4330
17587TIP3    H174252   6.531   5.947   4.306  1.2910 -0.5936 -0.1160
17587TIP3    H274253   6.524   5.797   4.283  1.3776 -0.9787  2.1973
17588TIP3   OH274254   1.548   1.402   5.067 -0.3382  0.6147 -0.1393
17588TIP3    H174255   1.457   1.380   5.087 -0.1154 -1.0438 -0.8228
17588TIP3    H274256   1.599   1.365   5.139 -0.1063  0.4987 -0.3598
17589TIP3   OH274257   1.012   2.051   2.132 -0.5110  0.0225  0.1955
17589TIP3    H174258   0.961   2.123   2.093  0.5121 -0.0563 -1.3584
17589TIP3    H274259   0.989   1.975   2.079  2.8613  0.4151 -2.1430
17590TIP3   OH274260   6.688   1.236   1.358  0.3147 -0.3909  0.5692
17590TIP3    H174261   6.620   1.170   1.371  0.0269  0.2193  2.3548
17590TIP3    H274262   6.756   1.213   1.422  0.5465  0.6058  0.6947
17591TIP3   OH274263   0.091   6.744   1.846  0.0159 -0.0043 -0.8235
17591TIP3    H174264   0.131   6.831   1.856 -0.9208  0.2775  1.0091
17591TIP3    H274265   0.091   6.708   1.935  0.7424 -2.0791 -1.6031
17592TIP3   OH274266   4.773   0.687  11.727  0.1020 -0.2860 -0.2473
17592TIP3    H174267   4.743   0.659  11.814  0.5750 -0.0857 -0.0154
17592TIP3    H274268   4.694   0.724  11.686 -0.2693 -0.9595 -0.1495
17593TIP3   OH274269   0.371   2.344  14.045  0.5405  0.6170  1.1207
17593TIP3    H174270   0.290   2.388  14.071 -0.4587 -0.9907  0.8919
17593TIP3    H274271   0.407   2.310  14.128  0.9146  1.1928  1.2017
17594TIP3   OH274272   0.213   6.535  15.238  0.6551  0.3773  0.0345
17594TIP3    H174273   0.220   6.450  15.282  0.7378 -0.0023 -0.6878
17594TIP3    H274274   0.304   6.562  15.225  0.6330  0.3952 -0.0783
17595TIP3   OH274275   1.503   0.540  11.348  0.6116  0.1054  0.6261
17595TIP3    H174276   1.566   0.572  11.412  0.2423  1.1356  0.4913
17595TIP3    H274277   1.556   0.510  11.274  0.9827 -0.0503  0.9541
17596TIP3   OH274278   1.259   0.540  11.709 -0.2488  0.1537  0.8943
17596TIP3    H174279   1.304   0.472  11.759  0.5195 -1.4055 -1.7603
17596TIP3    H274280   1.230   0.497  11.629 -0.3381  2.7859 -0.6094
17597TIP3   OH274281   1.331   2.209  14.733  0.1376 -0.0939 -0.5588
17597TIP3    H174282   1.262   2.180  14.673 -1.5651  0.5010  1.0036
17597TIP3    H274283   1.331   2.142  14.802 -1.2969  1.5760  1.1894
17598TIP3   OH274284   2.137   3.512   0.262  0.0091 -0.1262 -0.2699
17598TIP3    H174285   2.109   3.535   0.351  0.0351 -0.7733 -0.0931
17598TIP3    H274286   2.061   3.530   0.208 -0.2534 -0.4500 -0.0086
17599TIP3   OH274287   5.373   3.256   5.325  0.2138  0.4445 -0.0869
17599TIP3    H174288   5.281   3.242   5.303  0.5675  1.2783 -2.2768
17599TIP3    H274289   5.374   3.342   5.367 -0.2879 -0.6517  2.4146
17600TIP3   OH274290   3.780   1.921   4.667  0.4595 -0.0090 -0.3813
17600TIP3    H174291   3.820   1.941   4.752 -0.4424 -0.9402  0.2896
17600TIP3    H274292   3.836   1.852   4.630  0.9218  0.4815 -0.5965
17601TIP3   OH274293   0.561   3.931   5.364  0.3115 -0.0270 -0.1244
17601TIP3    H174294   0.503   3.982   5.421 -0.1195 -0.8569  0.1865
17601TIP3    H274295   0.614   3.997   5.319  2.2315  0.6292  2.8130
17602TIP3   OH274296   0.739   1.347   1.436 -0.3758  0.4770 -0.0386
17602TIP3    H174297   0.796   1.270   1.437 -0.6890  0.2321 -0.7330
17602TIP3    H274298   0.725   1.366   1.343 -1.9467  0.1605  0.1085
17603TIP3   OH274299   4.532   4.891   0.103  0.0111 -0.0652 -0.1937
17603TIP3    H174300   4.591   4.905   0.029  1.1739 -0.9798  0.5245
17603TIP3    H274301   4.444   4.898   0.065  0.5668  0.4225 -1.4605
17604TIP3   OH274302   6.354   5.039  14.341 -0.0789 -0.5095 -0.5689
17604TIP3    H174303   6.444   5.026  14.313  0.2711 -1.0325  0.7380
17604TIP3    H274304   6.328   4.957  14.382 -0.1060  0.5741  1.7610
17605TIP3   OH274305   4.317   2.761   3.966 -0.3125  0.3541  0.1043
17605TIP3    H174306   4.270   2.840   3.991 -0.4542 -0.3476  2.2592
17605TIP3    H274307   4.410   2.787   3.967 -0.2473  0.1855  2.2660
17606TIP3   OH274308   2.380   1.187  15.760  0.4798  0.4316  0.0802
17606TIP3    H174309   2.371   1.248  15.687 -3.1118  1.8268  1.4384
17606TIP3    H274310   2.324   1.113  15.736 -1.7950  1.4719  1.7766
17607TIP3   OH274311   4.083   3.334   0.381  0.6151  0.1073  0.2190
17607TIP3    H174312   4.035   3.416   0.393 -1.6337 -0.8934 -1.3230
17607TIP3    H274313   4.120   3.340   0.293 -1.0661 -1.1754 -0.6307
17608TIP3   OH274314   3.490   1.810   1.210  0.1629 -0.1609 -0.4143
17608TIP3    H174315   3.548   1.818   1.134  0.5950 -0.0380 -0.0777
17608TIP3    H274316   3.434   1.888   1.205 -0.8953 -0.9591 -1.4893
17609TIP3   OH274317   2.669   0.272   1.810  0.1491  0.5448  0.1195
17609TIP3    H174318   2.737   0.233   1.754 -2.1542 -0.0852 -2.4094
17609TIP3    H274319   2.672   0.365   1.791 -2.3426  0.0887 -3.3369
17610TIP3   OH274320   0.747   3.907   1.622  0.1141  0.0225 -0.5288
17610TIP3    H174321   0.665   3.866   1.595  0.1527  0.5647 -1.5196
17610TIP3    H274322   0.799   3.836   1.658 -1.0677 -0.2067  0.8090
17611TIP3   OH274323   4.416   3.905   1.990 -0.2506  0.4323  0.2557
17611TIP3    H174324   4.500   3.939   2.019  0.2486  0.2107 -0.8877
17611TIP3    H274325   4.434   3.865   1.905 -1.5245  0.4521 -0.0462
17612TIP3   OH274326   3.003   0.300  14.167 -0.6049  0.3242  0.2887
17612TIP3    H174327   3.068   0.370  14.156 -1.4425  1.1802  0.6564
17612TIP3    H274328   3.004   0.281  14.260 -0.2853 -0.2669  0.1707
17613TIP3   OH274329   5.721   3.792   5.210 -0.4420  0.0427 -0.0428
17613TIP3    H174330   5.705   3.714   5.263  0.3476 -0.5595 -0.6509
17613TIP3    H274331   5.812   3.815   5.229 -0.3793  0.2507 -0.5725
17614TIP3   OH274332   0.338   4.373  16.042  0.1886  0.1673  0.1167
17614TIP3    H174333   0.432   4.390  16.048  0.3306 -0.3083 -0.7340
17614TIP3    H274334   0.297   4.450  16.083  0.9606 -0.3230  1.9159
17615TIP3   OH274335   0.629   3.376  16.787 -0.1001  0.1098 -0.3299
17615TIP3    H174336   0.635   3.418  16.873 -0.0880  1.2884 -0.8884
17615TIP3    H274337   0.621   3.282  16.807  1.0257  0.2442  0.9254
17616TIP3   OH274338   4.874   2.865   3.582 -0.0882  0.2078 -0.3253
17616TIP3    H174339   4.825   2.785   3.562 -0.6372  0.1597  1.0708
17616TIP3    H274340   4.811   2.936   3.571 -0.1650  0.2533  0.3414
17617TIP3   OH274341   3.663   0.254   4.369  0.0215 -0.2976 -0.7909
17617TIP3    H174342   3.650   0.204   4.289 -0.8105 -1.0599 -0.1972
17617TIP3    H274343   3.575   0.279   4.397  0.1850 -1.1196  0.5458
17618TIP3   OH274344   6.701   0.529  17.124  0.2808 -0.1050  0.1656
17618TIP3    H174345   6.731   0.606  17.174  1.5008 -1.6584  1.9715
17618TIP3    H274346   6.637   0.564  17.063 -0.3216  2.1455  1.9366
17619TIP3   OH274347   3.407   3.017   3.675 -0.3876 -0.0837 -0.0091
17619TIP3    H174348   3.404   3.112   3.669  0.8605 -0.0935 -0.9327
17619TIP3    H274349   3.329   2.988   3.627 -0.1356  0.4359 -0.7447
17620TIP3   OH274350   6.603   1.803   3.935  0.0106 -0.0276 -0.1921
17620TIP3    H174351   6.664   1.862   3.979  1.2944 -1.7748  0.4935
17620TIP3    H274352   6.597   1.726   3.992 -2.1896 -0.2999 -0.6702
17621TIP3   OH274353   3.750   6.371   4.064 -0.0785 -0.2143  0.4658
17621TIP3    H174354   3.720   6.416   4.143 -1.7917 -1.7060  0.7432
17621TIP3    H274355   3.684   6.392   3.998  0.7016  0.0559 -0.2443
17622TIP3   OH274356   0.300   5.015   4.918 -0.2322  0.2841 -0.6855
17622TIP3    H174357   0.205   5.018   4.914 -0.2089  1.0032 -0.8451
17622TIP3    H274358   0.327   5.107   4.911  0.3698  0.4716  2.6885
17623TIP3   OH274359   0.894   1.151   2.626  0.2530 -0.2500  0.1922
17623TIP3    H174360   0.899   1.059   2.601  0.8138 -0.2783  0.4063
17623TIP3    H274361   0.801   1.165   2.647  0.2559 -0.9026  0.6721
17624TIP3   OH274362   3.701   1.799  15.052  0.7720 -0.1508  0.5647
17624TIP3    H174363   3.641   1.822  14.982  0.0863 -0.9597  0.8605
17624TIP3    H274364   3.781   1.772  15.008  0.5599 -0.0588  0.1206
17625TIP3   OH274365   0.031   3.774   4.865  0.1400 -0.1080 -0.2488
17625TIP3    H174366  -0.044   3.714   4.871  0.1069 -0.0608 -0.1877
17625TIP3    H274367   0.097   3.735   4.922  0.4460 -0.5611 -0.9031
17626TIP3   OH274368   0.799   4.329  14.925  0.2519  0.1570  0.1836
17626TIP3    H174369   0.717   4.376  14.913  1.3074  1.4976 -2.5742
17626TIP3    H274370   0.845   4.378  14.993  0.1616  1.5040 -0.6833
17627TIP3   OH274371   2.468   1.039  14.836 -0.6769  0.1815  0.1476
17627TIP3    H174372   2.551   1.087  14.828 -0.5016 -0.0438  0.5705
17627TIP3    H274373   2.401   1.101  14.808 -0.3028  0.1437 -0.8810
17628TIP3   OH274374   0.895   5.478   2.307  0.4931 -0.3161  1.0186
17628TIP3    H174375   0.811   5.432   2.305 -0.5178  1.3852  1.9705
17628TIP3    H274376   0.931   5.459   2.393  1.6832 -1.9835  0.1950
17629TIP3   OH274377   4.466   3.409   5.871 -0.4499  0.0776  0.5802
17629TIP3    H174378   4.436   3.428   5.782 -3.1664  0.0861  1.4192
17629TIP3    H274379   4.477   3.314   5.873 -0.2382  0.0928  0.1909
17630TIP3   OH274380   6.516   6.599   3.282 -0.5245  0.3594 -1.1385
17630TIP3    H174381   6.601   6.618   3.242 -1.0364 -0.7142 -2.8397
17630TIP3    H274382   6.508   6.663   3.353  1.4440  0.8467 -1.2946
17631TIP3   OH274383   2.180   1.790   4.470  0.0860 -0.1698 -0.6328
17631TIP3    H174384   2.147   1.785   4.560 -0.6350  1.2876 -0.7922
17631TIP3    H274385   2.113   1.745   4.418 -0.6456  0.9254 -0.6874
17632TIP3   OH274386   2.560   3.393   3.248  0.4463 -0.3898  0.1582
17632TIP3    H174387   2.512   3.349   3.177  0.2869 -0.7871  0.5094
17632TIP3    H274388   2.496   3.400   3.319  0.6448 -0.1064  0.3095
17633TIP3   OH274389   5.566   3.701  13.130 -0.3856  0.2987  0.2867
17633TIP3    H174390   5.535   3.787  13.158  0.8204  0.4366  1.3088
17633TIP3    H274391   5.616   3.719  13.050  1.3090  0.8585  1.4064
17634TIP3   OH274392   2.821   6.670  13.647  0.3546  0.5775  0.1255
17634TIP3    H174393   2.869   6.622  13.580 -1.1064 -0.1577 -0.4401
17634TIP3    H274394   2.873   6.658  13.727  1.3838  0.2836 -0.5697
17635TIP3   OH274395   2.811   0.095  13.241  0.3553  0.0971 -0.8434
17635TIP3    H174396   2.888   0.048  13.271  0.2712 -0.3677 -1.3192
17635TIP3    H274397   2.738   0.034  13.258  0.2491  0.0298 -1.4872
17636TIP3   OH274398   5.902   1.770   1.144 -0.2147  0.5416  0.5207
17636TIP3    H174399   5.937   1.770   1.233 -0.7297 -0.0271  0.7374
17636TIP3    H274400   5.964   1.822   1.093  0.9064 -0.3799  0.8962
17637TIP3   OH274401   4.310   5.113  13.052 -0.3530 -0.2788  0.8266
17637TIP3    H174402   4.338   5.091  12.963  1.8051 -0.5492  1.5046
17637TIP3    H274403   4.299   5.029  13.095  0.4534 -0.1441  1.3168
17638TIP3   OH274404   4.771   3.705   4.902  0.1334 -0.1986  0.4283
17638TIP3    H174405   4.835   3.636   4.886  0.7295 -0.4274  3.3060
17638TIP3    H274406   4.701   3.687   4.839  1.1666 -2.2069 -0.2564
17639TIP3   OH274407   0.546   4.428   3.281  0.2990 -0.1565 -0.3011
17639TIP3    H174408   0.591   4.396   3.203  1.7853 -0.4594  0.6307
17639TIP3    H274409   0.563   4.522   3.282  0.3323 -0.1624 -0.3134
17640TIP3   OH274410   3.544   0.544   1.604 -0.8585 -0.0972  0.2165
17640TIP3    H174411   3.523   0.595   1.527 -0.2662  0.4142  0.3853
17640TIP3    H274412   3.616   0.591   1.646  0.0418 -1.3180  0.1076
17641TIP3   OH274413   1.600   4.049   6.268 -0.2825 -0.4506  0.1873
17641TIP3    H174414   1.685   4.014   6.295 -0.1114  1.0809  1.9066
17641TIP3    H274415   1.536   3.992   6.310 -0.0698 -0.6401  0.2562
17642TIP3   OH274416   0.370   6.178  11.951 -0.2694  0.3563 -0.0634
17642TIP3    H174417   0.337   6.101  11.904  0.3805 -0.1303  0.2526
17642TIP3    H274418   0.314   6.250  11.922 -1.7313 -0.4690  0.5986
17643TIP3   OH274419   5.718   1.251   2.638 -0.1854  0.0523  0.7829
17643TIP3    H174420   5.748   1.341   2.654  0.2894 -0.1943  1.3334
17643TIP3    H274421   5.709   1.213   2.726 -1.1122 -0.2067  0.5840
17644TIP3   OH274422   4.160   6.312   6.329  0.4374 -0.4166  0.3889
17644TIP3    H174423   4.167   6.224   6.366  1.7721 -0.6085 -0.2740
17644TIP3    H274424   4.199   6.369   6.396  1.1426 -0.5429  0.0935
17645TIP3   OH274425   0.537   5.552   3.610 -0.0980 -0.3267 -0.1143
17645TIP3    H174426   0.567   5.514   3.528  2.8198 -0.9061  1.0766
17645TIP3    H274427   0.511   5.477   3.663  2.7439 -0.5564  1.1430
17646TIP3   OH274428   2.207   4.732   5.677  0.1990  0.1230  0.1986
17646TIP3    H174429   2.175   4.770   5.759 -0.5845 -0.7120  0.2956
17646TIP3    H274430   2.290   4.776   5.662 -0.4345  1.5152  0.5549
17647TIP3   OH274431   5.914   4.069   1.169  0.0863 -0.1115 -0.5774
17647TIP3    H174432   5.964   4.142   1.205  0.3081 -1.3012  1.6998
17647TIP3    H274433   5.980   4.014   1.127  0.1979  0.0308 -0.5901
17648TIP3   OH274434   1.097   4.545  10.337 -0.3419  0.0843 -0.3957
17648TIP3    H174435   1.098   4.578  10.427 -1.8905 -0.5598 -0.1094
17648TIP3    H274436   1.186   4.516  10.321  0.4987  2.1536  0.1705
17649TIP3   OH274437   2.696   6.151   5.967  0.7032  0.7244 -0.4950
17649TIP3    H174438   2.624   6.194   5.920 -0.6220 -0.0420  0.7339
17649TIP3    H274439   2.725   6.216   6.031 -1.0742  0.0346  1.1331
17650TIP3   OH274440   2.159   0.895   0.884 -0.0630 -0.0392  0.8736
17650TIP3    H174441   2.170   0.839   0.960 -0.6190 -0.5267  0.6021
17650TIP3    H274442   2.226   0.866   0.822 -1.7914 -2.0326 -0.2055
17651TIP3   OH274443   5.179   4.559   2.816  0.0472 -0.1923  0.9762
17651TIP3    H174444   5.115   4.487   2.815 -1.4793  1.0881 -0.7951
17651TIP3    H274445   5.243   4.533   2.750  0.0963 -0.4217  1.1122
17652TIP3   OH274446   1.381   3.332   1.327  0.5015 -0.5293 -0.1375
17652TIP3    H174447   1.383   3.348   1.421  1.2234 -0.9807 -0.0708
17652TIP3    H274448   1.445   3.393   1.291 -0.5133  0.3680 -0.4596
17653TIP3   OH274449   0.620   5.570  13.252  0.3053  0.6793  0.4516
17653TIP3    H174450   0.700   5.526  13.225 -0.0373  0.1336  0.3076
17653TIP3    H274451   0.559   5.554  13.179  0.5997  2.5923 -0.2745
17654TIP3   OH274452   2.750   2.165   3.694 -0.2845 -0.1762 -0.0031
17654TIP3    H174453   2.787   2.087   3.654 -0.6384  0.7703 -2.3621
17654TIP3    H274454   2.657   2.161   3.673 -0.4692  0.4568  0.6233
17655TIP3   OH274455   2.873   1.579  11.571  0.3593  0.3251 -0.0664
17655TIP3    H174456   2.817   1.652  11.544  1.2283  0.4430 -1.7054
17655TIP3    H274457   2.812   1.509  11.593 -0.5193  1.6190  1.9341
17656TIP3   OH274458   5.838   6.445   1.820  0.4813 -0.1973 -0.8768
17656TIP3    H174459   5.782   6.495   1.760  1.3122  1.2088 -0.5191
17656TIP3    H274460   5.786   6.368   1.843 -1.3262  1.0592 -0.5547
17657TIP3   OH274461   0.549   1.750  14.860  0.0133 -0.1436 -0.1779
17657TIP3    H174462   0.511   1.838  14.856 -0.9641 -0.5221  0.4509
17657TIP3    H274463   0.620   1.757  14.924 -0.1310  0.1559 -0.0491
17658TIP3   OH274464   1.355   5.901   6.101 -0.4012 -0.2192 -0.1880
17658TIP3    H174465   1.367   5.866   6.013 -0.8753  0.4176 -0.5148
17658TIP3    H274466   1.267   5.940   6.099 -0.0798  0.5510  0.3017
17659TIP3   OH274467   6.267   0.594  14.209  0.1029 -0.7478  0.5148
17659TIP3    H174468   6.294   0.662  14.147  0.6113 -1.1534  0.2809
17659TIP3    H274469   6.194   0.632  14.257  1.0957  0.3746  1.1639
17660TIP3   OH274470   2.311   2.054   3.905 -0.1195 -0.2289  0.4675
17660TIP3    H174471   2.374   1.983   3.904  0.1214 -0.1170 -3.0810
17660TIP3    H274472   2.227   2.013   3.885  0.0619  0.3942 -1.8792
17661TIP3   OH274473   1.877   2.742   0.001  0.6553  0.0350 -0.0615
17661TIP3    H174474   1.937   2.673   0.025  0.0364  0.2508  2.2987
17661TIP3    H274475   1.876   2.801   0.076  0.9859  2.5347 -1.8722
17662TIP3   OH274476   4.308   1.892  12.785  0.0656 -0.3449  0.5483
17662TIP3    H174477   4.243   1.919  12.721 -0.5401  1.7106  1.9317
17662TIP3    H274478   4.320   1.798  12.770 -1.7206 -0.3625 -1.0372
17663TIP3   OH274479   0.736   0.137  17.161 -0.3607  0.3961 -0.2101
17663TIP3    H174480   0.826   0.154  17.134 -0.2016 -0.9524 -0.5907
17663TIP3    H274481   0.704   0.222  17.194  1.2625  0.7358  0.5848
17664TIP3   OH274482   2.220   5.867   0.587 -0.0042 -0.7067 -0.0250
17664TIP3    H174483   2.159   5.805   0.548  0.3804 -1.8316  1.0662
17664TIP3    H274484   2.305   5.823   0.581  0.3487 -0.0876  0.3503
17665TIP3   OH274485   6.523   1.570  12.735  0.1005 -0.0210  0.4738
17665TIP3    H174486   6.550   1.518  12.659  0.1977 -0.9922  1.1593
17665TIP3    H274487   6.427   1.569  12.731  0.0183 -1.9993  1.5884
17666TIP3   OH274488   1.142   4.341  12.208 -0.5426  0.3273 -0.6629
17666TIP3    H174489   1.214   4.356  12.269 -1.1037  1.1987 -0.1872
17666TIP3    H274490   1.132   4.245  12.206  1.2842  0.1052 -1.5667
17667TIP3   OH274491   0.102   0.110   4.308  0.0984 -0.3048  0.2124
17667TIP3    H174492   0.084   0.198   4.276 -0.9928  0.2549  2.1689
17667TIP3    H274493   0.031   0.092   4.370  0.9416 -2.0944  0.7395
17668TIP3   OH274494   0.095   1.920   1.534  0.3917 -0.4335 -0.2000
17668TIP3    H174495   0.083   1.994   1.475 -3.1645  0.0236  0.8375
17668TIP3    H274496   0.043   1.849   1.496  0.6880 -1.1626  0.7028
17669TIP3   OH274497   1.426   0.808  11.346 -0.0561  0.1649 -0.0629
17669TIP3    H174498   1.443   0.715  11.326  2.2630  0.2625  1.0978
17669TIP3    H274499   1.393   0.807  11.436 -1.1346  0.4145 -0.4422
17670TIP3   OH274500   5.013   0.239   1.222 -0.0417  0.6278 -0.1713
17670TIP3    H174501   5.071   0.304   1.183  0.8962 -0.4099 -0.5643
17670TIP3    H274502   5.048   0.227   1.311 -0.5914  1.0920  0.1157
17671TIP3   OH274503   2.068   2.690   2.399 -0.1240 -0.4189  0.2589
17671TIP3    H174504   2.017   2.615   2.429 -0.6528  0.5338  1.8505
17671TIP3    H274505   2.158   2.658   2.396 -0.3693 -1.1715  0.7153
17672TIP3   OH274506   6.440   3.989  15.243 -0.2963  0.1471 -0.5554
17672TIP3    H174507   6.533   3.976  15.260 -0.0332  0.9425 -1.3438
17672TIP3    H274508   6.417   3.919  15.181  0.1564  0.8813 -1.5805
17673TIP3   OH274509   1.699   1.447  14.263 -0.3588 -0.3095 -0.6831
17673TIP3    H174510   1.692   1.365  14.215  0.5855  1.2158 -3.6852
17673TIP3    H274511   1.793   1.461  14.273 -0.5115 -0.7453  2.1170
17674TIP3   OH274512   6.801   1.262  14.862 -1.0947 -0.2047 -0.5722
17674TIP3    H174513   6.809   1.348  14.904  0.6080  0.6593 -2.4522
17674TIP3    H274514   6.890   1.241  14.834 -1.7705 -1.7679 -1.7211
17675TIP3   OH274515   0.204   6.594   3.334  0.2950  0.3466 -0.4881
17675TIP3    H174516   0.266   6.639   3.277 -1.0538  0.7338 -1.7321
17675TIP3    H274517   0.257   6.534   3.386  1.5981 -0.0918 -2.2415
17676TIP3   OH274518   4.092   3.462  16.977  0.1293  0.1220 -0.1805
17676TIP3    H174519   4.132   3.381  16.945  2.6045  1.3259 -0.4196
17676TIP3    H274520   4.038   3.492  16.904 -2.3559 -2.1568  0.5779
17677TIP3   OH274521   0.161   1.525   1.701  0.2538  0.0574  0.0326
17677TIP3    H174522   0.102   1.473   1.756 -0.8669  0.6197 -0.6103
17677TIP3    H274523   0.240   1.535   1.754 -0.5784  0.0968  1.3127
17678TIP3   OH274524   2.913   3.189  14.556  0.2455  0.2407  0.1682
17678TIP3    H174525   2.904   3.104  14.513  0.9694 -0.3898  1.2366
17678TIP3    H274526   2.850   3.186  14.628 -1.9803  1.8191 -1.5485
17679TIP3   OH274527   6.302   4.663   0.302  0.3477 -0.0507 -0.6389
17679TIP3    H174528   6.343   4.577   0.312 -1.8242 -0.9108  2.1723
17679TIP3    H274529   6.251   4.656   0.221 -0.8068 -1.9611  0.1682
17680TIP3   OH274530   4.786   6.440   5.809 -0.6863 -0.0984  0.1880
17680TIP3    H174531   4.867   6.472   5.849 -0.4178 -0.4862 -0.0309
17680TIP3    H274532   4.721   6.507   5.828 -1.0218 -1.0154  2.7785
17681TIP3   OH274533   2.259   0.960  16.587  0.7702  0.2802  0.0611
17681TIP3    H174534   2.235   1.043  16.628 -3.0328  0.5159 -2.1232
17681TIP3    H274535   2.198   0.952  16.513  0.7368 -4.6184  0.3226
17682TIP3   OH274536   4.779   4.732  16.252  0.4353  0.1853  0.3144
17682TIP3    H174537   4.753   4.645  16.284 -0.4352 -0.0097 -0.8732
17682TIP3    H274538   4.806   4.779  16.331 -0.4250 -0.7041  1.1705
17683TIP3   OH274539   5.828   5.705  11.782 -0.1673  0.4268 -0.4173
17683TIP3    H174540   5.827   5.753  11.699 -0.3903  0.1231 -0.5932
17683TIP3    H274541   5.916   5.718  11.816  1.1013 -2.2499 -2.3664
17684TIP3   OH274542   4.141   1.950  12.562  0.2318  0.1758  0.2293
17684TIP3    H174543   4.208   2.009  12.528  0.3092  0.1628  0.3588
17684TIP3    H274544   4.059   1.999  12.552  0.3258  0.4104  0.5741
17685TIP3   OH274545   6.261   1.792   0.559  0.1250 -0.1759  0.0673
17685TIP3    H174546   6.195   1.745   0.611  0.9317 -1.3482  0.0675
17685TIP3    H274547   6.344   1.751   0.583  0.7386  0.5815 -0.7034
17686TIP3   OH274548   6.741   5.289   3.001  0.3771 -0.7175  0.1127
17686TIP3    H174549   6.805   5.225   3.033 -0.6835 -1.9627 -0.1891
17686TIP3    H274550   6.749   5.285   2.905  0.7983  0.1277  0.1075
17687TIP3   OH274551   0.781   6.185   0.699  0.3788 -0.0554  0.0418
17687TIP3    H174552   0.690   6.164   0.721  0.1333 -0.3081 -1.1635
17687TIP3    H274553   0.833   6.127   0.755 -0.1820  0.4174  1.0719
17688TIP3   OH274554   4.552   6.260  15.379  0.1335  0.4301  0.0984
17688TIP3    H174555   4.627   6.204  15.357 -1.4022 -0.6093 -3.2573
17688TIP3    H274556   4.476   6.202  15.373 -1.1852  2.0534  0.3743
17689TIP3   OH274557   0.430   4.847   3.611  0.1393 -0.0577  0.1595
17689TIP3    H174558   0.356   4.786   3.619 -0.0808 -0.0824 -1.5935
17689TIP3    H274559   0.505   4.797   3.642 -0.1301 -1.0436 -0.7221
17690TIP3   OH274560   5.590   0.716   3.462 -0.0665 -0.4317  0.2815
17690TIP3    H174561   5.517   0.687   3.406  1.5087 -2.8337 -0.6920
17690TIP3    H274562   5.560   0.799   3.498 -3.2064 -1.1904 -0.2350
17691TIP3   OH274563   6.016   0.565   2.964 -0.1341  0.1610  0.0554
17691TIP3    H174564   6.103   0.575   3.002  0.3428 -0.9780 -0.6579
17691TIP3    H274565   6.031   0.514   2.884 -1.2030  1.7387 -1.2163
17692TIP3   OH274566   4.447   1.846   5.866  0.4699  0.3283  0.2838
17692TIP3    H174567   4.417   1.937   5.864 -2.8534 -0.6338  1.2880
17692TIP3    H274568   4.373   1.795   5.832  1.0503 -2.2503  2.5548
17693TIP3   OH274569   4.654   3.773  16.200 -0.0873 -0.6617  0.6429
17693TIP3    H174570   4.671   3.780  16.106 -0.5566 -0.3486  0.5785
17693TIP3    H274571   4.677   3.683  16.222  0.8579 -0.4901  0.3990
17694TIP3   OH274572   0.858   0.012   5.792  0.0028  0.1374 -0.0633
17694TIP3    H174573   0.787  -0.048   5.811  1.1771 -1.1679  0.3946
17694TIP3    H274574   0.881   0.051   5.877 -1.7188  2.4487 -0.5582
17695TIP3   OH274575   4.819   0.750  12.869 -0.3287  0.4269 -0.4486
17695TIP3    H174576   4.858   0.679  12.920 -1.8006 -1.8554 -2.2902
17695TIP3    H274577   4.754   0.788  12.928  0.3072  0.1174  0.4855
17696TIP3   OH274578   4.962   2.282  12.319  0.6306 -0.3172  0.2831
17696TIP3    H174579   4.933   2.343  12.250  0.2474 -0.5570  0.2286
17696TIP3    H274580   4.902   2.207  12.311  0.1957 -0.0875  1.2684
17697TIP3   OH274581   2.781   0.878  10.380 -0.0402 -0.4732  0.3395
17697TIP3    H174582   2.690   0.876  10.351 -0.3146 -3.0441  1.1414
17697TIP3    H274583   2.785   0.818  10.454  1.9708  0.9582  1.4975
17698TIP3   OH274584   2.031   5.722  17.135 -1.1293 -0.0301  0.3185
17698TIP3    H174585   2.012   5.814  17.149 -2.3851 -0.0994 -0.7332
17698TIP3    H274586   1.994   5.702  17.049 -0.3587 -1.3745  0.2646
17699TIP3   OH274587   5.504   0.976   5.253 -0.3401  0.0843  0.2777
17699TIP3    H174588   5.437   0.970   5.185  2.2517  0.4705 -2.5089
17699TIP3    H274589   5.504   1.068   5.280  0.2932  0.5126 -1.1088
17700TIP3   OH274590   0.515   3.176   0.326  0.5055 -0.3979  0.1543
17700TIP3    H174591   0.449   3.171   0.395  0.9257 -2.4796  0.4922
17700TIP3    H274592   0.598   3.163   0.371  0.8001 -1.5743 -0.6723
17701TIP3   OH274593   6.122   0.823  16.360 -0.1701  0.0730  0.2469
17701TIP3    H174594   6.160   0.900  16.404  0.0410  0.1335 -0.0336
17701TIP3    H274595   6.030   0.823  16.387 -0.3170  0.7791 -0.2331
17702TIP3   OH274596   2.514   3.327   4.239  0.3606  0.3708 -0.0773
17702TIP3    H174597   2.529   3.305   4.332  1.0542 -0.0692 -0.2822
17702TIP3    H274598   2.510   3.243   4.195  2.2297  0.5816 -0.7575
17703TIP3   OH274599   2.778   4.583  16.499  0.1605 -0.0400  0.2900
17703TIP3    H174600   2.819   4.591  16.413  0.4605  0.2133  0.4559
17703TIP3    H274601   2.684   4.593  16.482  0.2966  0.9817  0.1210
17704TIP3   OH274602   1.214   2.115  16.698  0.3826  0.0413  0.0956
17704TIP3    H174603   1.200   2.155  16.613 -0.4891 -0.8490 -0.1910
17704TIP3    H274604   1.127   2.110  16.738  0.5004 -1.2910  0.2365
17705TIP3   OH274605   4.028   3.248   6.002  0.0323 -0.5385  0.0477
17705TIP3    H174606   4.102   3.308   6.015 -0.4999 -0.2857  2.1287
17705TIP3    H274607   4.050   3.172   6.056  0.0303 -1.6643 -1.4726
17706TIP3   OH274608   0.991   0.143   6.371  0.1342  0.1343  0.1356
17706TIP3    H174609   1.046   0.190   6.434  0.5157  1.4011 -1.0800
17706TIP3    H274610   1.042   0.146   6.290  0.1166 -2.3418 -0.0209
17707TIP3   OH274611   3.762   4.410  16.174 -0.1242 -0.1751  0.0137
17707TIP3    H174612   3.772   4.318  16.199  0.2421  0.0903  0.8706
17707TIP3    H274613   3.679   4.436  16.213 -0.9758 -0.5381 -1.4870
17708TIP3   OH274614   2.672   3.503   2.572 -0.1261 -0.4278 -0.0939
17708TIP3    H174615   2.577   3.501   2.580 -0.2929  0.0179 -1.6020
17708TIP3    H274616   2.693   3.427   2.518  0.3196 -0.1794 -0.2734
17709TIP3   OH274617   4.090   1.208   0.655  0.2272 -0.2574  0.2332
17709TIP3    H174618   4.072   1.300   0.671  1.3996 -0.3650  2.5754
17709TIP3    H274619   4.004   1.168   0.645 -0.3067  0.9864 -0.2908
17710TIP3   OH274620   4.713   1.178   3.158  0.7173  0.1686 -0.1315
17710TIP3    H174621   4.650   1.241   3.193  1.6362  1.3437 -0.5407
17710TIP3    H274622   4.763   1.149   3.235  0.3949  0.0564  0.0364
17711TIP3   OH274623   2.282   5.198   5.357 -0.5108 -0.5409  0.3828
17711TIP3    H174624   2.189   5.189   5.377 -0.5037 -2.8522 -0.3481
17711TIP3    H274625   2.289   5.174   5.264  0.5634  1.7004 -0.1835
17712TIP3   OH274626   6.301   3.761   1.215  1.5661 -0.0908  0.1968
17712TIP3    H174627   6.276   3.837   1.269 -0.2332  0.4664 -1.2905
17712TIP3    H274628   6.260   3.687   1.258 -0.0645  0.3836 -0.4688
17713TIP3   OH274629   1.684   1.351   1.648  0.3629  0.1844 -0.4779
17713TIP3    H174630   1.710   1.267   1.610 -0.8155  0.4487 -2.0126
17713TIP3    H274631   1.641   1.328   1.731  0.4785 -0.6909 -0.6499
17714TIP3   OH274632   3.499   0.177   4.150  0.1263  0.8575 -0.2132
17714TIP3    H174633   3.453   0.247   4.196 -0.0468  0.3662  0.3730
17714TIP3    H274634   3.432   0.109   4.139  0.5690  0.3540  0.1759
17715TIP3   OH274635   2.113   3.257   4.814  0.1169  0.2461 -0.1086
17715TIP3    H174636   2.163   3.246   4.734  1.5496 -3.1869  1.0653
17715TIP3    H274637   2.055   3.181   4.818 -0.9549  1.0568  1.4743
17716TIP3   OH274638   1.573   1.147  16.821  0.0618  1.1343 -0.5368
17716TIP3    H174639   1.510   1.219  16.815 -0.7790  0.4670  0.0043
17716TIP3    H274640   1.534   1.087  16.885  1.7824  1.2164  0.6258
17717TIP3   OH274641   5.827   3.679  13.271 -0.1760 -0.1853  0.0051
17717TIP3    H174642   5.756   3.715  13.219  0.4478  2.2877  0.7243
17717TIP3    H274643   5.793   3.597  13.306 -1.7629 -0.2599 -1.5940
17718TIP3   OH274644   4.772   0.035   6.027 -0.0013 -0.2541 -0.1320
17718TIP3    H174645   4.770   0.121   6.071 -0.5008 -0.4612  0.2574
17718TIP3    H274646   4.761   0.055   5.934 -2.9760 -0.0580  0.1850
17719TIP3   OH274647   2.302   0.377  11.658 -0.3993  0.4092  0.1353
17719TIP3    H174648   2.301   0.281  11.648  0.5735  0.1260  2.1862
17719TIP3    H274649   2.376   0.394  11.717 -1.2079  2.3257  0.6681
17720TIP3   OH274650   6.248   2.136   2.635  0.0709  0.0281  0.9047
17720TIP3    H174651   6.259   2.041   2.631 -0.1483  0.0282  0.1784
17720TIP3    H274652   6.329   2.168   2.677  2.1543 -0.1434 -2.5526
17721TIP3   OH274653   3.362   0.601  11.726  0.5192  0.3825 -0.0247
17721TIP3    H174654   3.364   0.639  11.814  2.4108  0.1715  0.0703
17721TIP3    H274655   3.438   0.640  11.682  1.1006 -1.4378 -0.7138
17722TIP3   OH274656   3.436   5.281   4.941  0.1127 -0.0392 -0.1745
17722TIP3    H174657   3.507   5.339   4.916 -0.6122  0.3081 -1.5682
17722TIP3    H274658   3.374   5.337   4.989 -0.0418  0.0867 -0.5134
17723TIP3   OH274659   1.868   1.407   0.775 -0.3123  0.1863 -0.7687
17723TIP3    H174660   1.871   1.336   0.711  0.8978 -0.6711  0.2044
17723TIP3    H274661   1.793   1.386   0.831  0.9574 -1.2101  0.4686
17724TIP3   OH274662   2.611   1.632   3.278  0.2532 -0.0190 -0.4418
17724TIP3    H174663   2.577   1.570   3.213  1.6653  0.2371 -1.4783
17724TIP3    H274664   2.548   1.705   3.276  0.0824 -0.1726 -1.2858
17725TIP3   OH274665   4.071   0.295  13.567  0.3145 -0.0130 -0.2088
17725TIP3    H174666   3.983   0.319  13.540 -0.6098 -1.9150  0.9355
17725TIP3    H274667   4.080   0.330  13.656  0.4113 -0.4945 -0.0248
17726TIP3   OH274668   1.073   0.287  11.728 -0.2509  0.3533  0.1430
17726TIP3    H174669   1.080   0.325  11.640 -0.0146 -0.8338 -0.3743
17726TIP3    H274670   1.164   0.279  11.757 -0.1170 -1.9250 -0.7224
17727TIP3   OH274671   2.881   5.550  14.691 -0.1037 -0.6019 -0.4416
17727TIP3    H174672   2.910   5.641  14.700 -0.5111 -0.5446  0.3184
17727TIP3    H274673   2.861   5.522  14.780 -2.7695 -0.5151 -0.9357
17728TIP3   OH274674   5.206   3.252   4.037  0.0486 -0.0037  0.1085
17728TIP3    H174675   5.211   3.158   4.019  3.1829  0.0815 -0.1107
17728TIP3    H274676   5.240   3.261   4.126 -0.8500  0.8930  0.3792
17729TIP3   OH274677   4.775   3.018   1.187  0.1032 -0.5950  0.5711
17729TIP3    H174678   4.802   3.107   1.163  0.8159 -1.2550 -1.2396
17729TIP3    H274679   4.703   3.031   1.249 -0.5406  1.2730 -0.4803
17730TIP3   OH274680   0.280   0.003   2.536 -0.4756  0.3626  0.1026
17730TIP3    H174681   0.309   0.063   2.605  0.6386 -0.8949  0.7746
17730TIP3    H274682   0.221  -0.058   2.581  0.2567 -0.4611 -0.0392
17731TIP3   OH274683   2.190   2.663  12.902 -0.3174 -0.4984  0.2214
17731TIP3    H174684   2.275   2.683  12.862  0.1679  1.6102  2.0993
17731TIP3    H274685   2.126   2.701  12.842 -0.1596 -3.2703 -1.9207
17732TIP3   OH274686   3.961   3.906  12.748  1.0183 -0.2044  0.4138
17732TIP3    H174687   4.013   3.960  12.687  0.3728  0.3631  0.3551
17732TIP3    H274688   3.991   3.933  12.835  0.4622  0.5070  0.3949
17733TIP3   OH274689   5.907   2.556   3.331 -0.2644 -0.5337 -0.0033
17733TIP3    H174690   5.854   2.504   3.392 -1.4496 -1.1135 -1.4575
17733TIP3    H274691   5.843   2.596   3.272  0.5938  2.6048  0.9925
17734TIP3   OH274692   1.450   6.605  17.191 -0.7348  0.2033 -0.7082
17734TIP3    H174693   1.493   6.653  17.262 -1.6233  1.3770 -0.9284
17734TIP3    H274694   1.424   6.522  17.231  1.1596 -0.3136 -0.4110
17735TIP3   OH274695   3.173   6.073   1.481 -0.4464 -0.4080 -0.0138
17735TIP3    H174696   3.260   6.053   1.446  0.1825 -0.0328  1.2885
17735TIP3    H274697   3.174   6.040   1.570 -1.2286  0.6729  0.4180
17736TIP3   OH274698   4.848   2.133  15.565 -0.1420 -0.0906  0.3344
17736TIP3    H174699   4.902   2.178  15.630  0.7727 -2.1546  1.1173
17736TIP3    H274700   4.825   2.050  15.607 -2.6718  0.0607 -0.6005
17737TIP3   OH274701   6.306   4.811  14.831  0.4401  0.0919  0.1430
17737TIP3    H174702   6.388   4.763  14.828  0.5723  0.0088  2.6704
17737TIP3    H274703   6.239   4.746  14.809  0.5917 -1.4586  3.6448
17738TIP3   OH274704   5.380   0.883  15.753 -0.0264  0.5735 -0.4401
17738TIP3    H174705   5.374   0.977  15.770  1.5682  0.4132  1.3493
17738TIP3    H274706   5.471   0.870  15.726 -0.6260 -0.2758 -2.1572
17739TIP3   OH274707   5.857   6.020   2.603 -0.3086  0.2762  0.3450
17739TIP3    H174708   5.864   6.007   2.508  0.3329 -2.1093  0.6612
17739TIP3    H274709   5.768   6.051   2.617 -0.6407 -0.0331 -0.9732
17740TIP3   OH274710   5.909   6.224  16.708 -0.0481 -0.6431  0.0427
17740TIP3    H174711   5.953   6.305  16.736  0.0245 -0.3996 -0.7588
17740TIP3    H274712   5.964   6.190  16.637  0.4138 -1.8856  0.9595
17741TIP3   OH274713   3.973   1.894   2.928 -0.2733 -0.3910 -0.1332
17741TIP3    H174714   3.924   1.957   2.876  0.5079 -0.6303 -1.1837
17741TIP3    H274715   3.956   1.920   3.019 -1.2587  0.3313 -0.5039
17742TIP3   OH274716   0.750   0.650   5.209  0.4377  0.2254  0.5695
17742TIP3    H174717   0.739   0.744   5.193  0.1815 -0.0512 -1.0382
17742TIP3    H274718   0.668   0.611   5.178  0.7210 -0.5714  0.8113
17743TIP3   OH274719   2.716   4.291   3.375  0.6113  0.3230 -0.3806
17743TIP3    H174720   2.695   4.338   3.294  2.6365  2.1147  0.0599
17743TIP3    H274721   2.780   4.225   3.348 -0.7596 -0.9477 -0.6547
17744TIP3   OH274722   4.509   3.110  11.702  0.0174  0.6190  0.5066
17744TIP3    H174723   4.547   3.131  11.787  1.5662 -0.9203  0.2561
17744TIP3    H274724   4.499   3.015  11.704 -0.3426  0.6105 -0.8787
17745TIP3   OH274725   3.277   2.283   3.229 -1.0067 -0.5176  0.1948
17745TIP3    H174726   3.258   2.377   3.226 -0.4905 -0.3893  0.6950
17745TIP3    H274727   3.323   2.265   3.147 -0.9036 -0.2871  0.2029
17746TIP3   OH274728   2.094   1.585   1.548  0.0650 -0.4179  0.3656
17746TIP3    H174729   2.178   1.612   1.511 -0.8264  2.0658 -0.0322
17746TIP3    H274730   2.031   1.600   1.478 -1.2264  1.4126  1.8436
17747TIP3   OH274731   2.431   3.413   1.431  0.3384  0.6643 -0.3972
17747TIP3    H174732   2.408   3.374   1.516 -0.4554 -0.0966 -0.9407
17747TIP3    H274733   2.501   3.475   1.452 -0.2113  0.8913  0.8906
17748TIP3   OH274734   0.286   5.003  13.229  0.0479 -0.4350  0.5528
17748TIP3    H174735   0.359   4.966  13.179  0.9046  3.3292 -1.3300
17748TIP3    H274736   0.211   4.998  13.170  0.6934  2.5777 -0.6816
17749TIP3   OH274737   4.168   2.876  16.072  0.0155  0.0889 -0.1096
17749TIP3    H174738   4.074   2.869  16.060  0.0580 -1.0019  0.1215
17749TIP3    H274739   4.178   2.918  16.158 -0.2477  0.9309 -0.4788
17750TIP3   OH274740   4.746   5.923  13.840 -0.3926 -0.0186 -0.0393
17750TIP3    H174741   4.799   5.889  13.768  0.1671  3.7419 -1.6441
17750TIP3    H274742   4.807   5.935  13.912  0.1869  0.9104 -0.6707
17751TIP3   OH274743   3.861   5.208   3.893  0.6662 -0.1495  0.2099
17751TIP3    H174744   3.925   5.137   3.893  1.3904  0.4789 -0.3792
17751TIP3    H274745   3.897   5.272   3.954  2.2576  1.5840 -2.3299
17752TIP3   OH274746   5.003   6.639   0.321 -0.1020 -0.0950  0.9456
17752TIP3    H174747   5.027   6.566   0.378 -1.2941 -1.0105  0.3129
17752TIP3    H274748   5.031   6.612   0.234 -1.9328 -0.5153  0.4465
17753TIP3   OH274749   3.304   5.087   0.989  0.3162  0.2124 -0.0609
17753TIP3    H174750   3.326   5.179   1.002 -0.6027  0.3313  0.7026
17753TIP3    H274751   3.234   5.088   0.924  0.5227  0.0274 -0.2878
17754TIP3   OH274752   3.583   3.560   1.373 -0.2589  0.5618  0.5162
17754TIP3    H174753   3.513   3.600   1.423 -1.2496  1.6661 -1.6198
17754TIP3    H274754   3.540   3.523   1.296  1.5285  2.0963 -1.3556
17755TIP3   OH274755   1.493   2.563  11.935 -0.2551 -0.1312 -0.3529
17755TIP3    H174756   1.487   2.544  12.029 -1.0876  0.2996 -0.3139
17755TIP3    H274757   1.547   2.642  11.930 -0.3675 -0.0454 -0.2221
17756TIP3   OH274758   0.759   6.470  15.251  0.6716  0.2658  0.5989
17756TIP3    H174759   0.810   6.551  15.257  0.5260  0.5192 -1.0477
17756TIP3    H274760   0.796   6.413  15.318  1.2236  1.4514  1.3371
17757TIP3   OH274761   4.069   5.035   3.815 -0.1103  0.3874 -0.7600
17757TIP3    H174762   4.162   5.042   3.836  0.1391 -1.2107 -1.1952
17757TIP3    H274763   4.061   5.073   3.728  0.5483 -1.2509 -1.5916
17758TIP3   OH274764   3.120   5.501   5.567  0.0733 -0.1233 -0.8679
17758TIP3    H174765   3.079   5.525   5.483 -0.1904  3.4020  0.0727
17758TIP3    H274766   3.156   5.584   5.599 -1.1678 -0.9463  3.2003
17759TIP3   OH274767   5.021   6.001  10.585  0.1978  0.4235 -0.2855
17759TIP3    H174768   5.065   5.977  10.504  0.1504  1.6863 -0.7037
17759TIP3    H274769   4.927   5.995  10.564  0.1034 -2.1472  0.5666
17760TIP3   OH274770   0.946   1.923   5.888  0.0507  0.3782 -0.0184
17760TIP3    H174771   1.036   1.889   5.886 -0.1428 -0.1391 -0.1095
17760TIP3    H274772   0.951   2.008   5.845  0.5716  0.5317  0.3369
17761TIP3   OH274773   1.116   3.852  15.524 -0.0597 -0.1080  0.5519
17761TIP3    H174774   1.046   3.909  15.556 -0.6362 -0.4686 -0.0206
17761TIP3    H274775   1.138   3.797  15.599 -0.7315 -0.3118  0.6088
17762TIP3   OH274776   0.132   5.002  15.243  0.0290 -0.1391  0.1253
17762TIP3    H174777   0.055   5.053  15.270  0.0695  0.4617 -0.8622
17762TIP3    H274778   0.096   4.924  15.201 -0.0403 -0.0380 -0.0027
17763TIP3   OH274779   5.734   2.855  13.518  0.1561 -0.1418 -0.3993
17763TIP3    H174780   5.700   2.871  13.606 -0.1233  1.6240 -0.7811
17763TIP3    H274781   5.658   2.825  13.467 -0.2468  1.0637 -0.5609
17764TIP3   OH274782   3.276   3.983   6.557  0.1231  0.0065  0.1224
17764TIP3    H174783   3.230   3.984   6.641 -0.4485  1.6305 -0.1656
17764TIP3    H274784   3.305   3.892   6.546  1.4270  0.0379  2.6944
17765TIP3   OH274785   4.563   0.150  15.857 -0.2027  0.3177 -0.0777
17765TIP3    H174786   4.600   0.236  15.839  1.4879 -0.4611 -0.4649
17765TIP3    H274787   4.559   0.145  15.953  0.0573  0.6666 -0.0469
17766TIP3   OH274788   5.814   3.037  15.934  0.0748 -0.2542  0.3499
17766TIP3    H174789   5.901   3.070  15.955  1.3177 -2.3699 -1.0298
17766TIP3    H274790   5.789   3.082  15.853 -0.4182  0.8117  1.0824
17767TIP3   OH274791   0.987   0.557   2.319 -0.2306 -0.4417  0.5958
17767TIP3    H174792   1.015   0.515   2.400 -0.2209  0.3244  0.9953
17767TIP3    H274793   1.019   0.499   2.250 -0.0394 -0.9803  1.1280
17768TIP3   OH274794   3.199   2.513  14.672 -0.2770 -0.3854  0.0066
17768TIP3    H174795   3.231   2.541  14.757 -1.0457 -0.9139  0.4836
17768TIP3    H274796   3.277   2.507  14.617  0.2671 -0.3805  0.7718
17769TIP3   OH274797   5.667   3.461   2.818  0.1922 -0.1601  0.2121
17769TIP3    H174798   5.581   3.496   2.795 -0.6187 -1.3593  1.2570
17769TIP3    H274799   5.727   3.534   2.805 -1.2272  1.2239  1.0239
17770TIP3   OH274800   3.660   4.354  15.192  0.0980 -0.5969 -0.1531
17770TIP3    H174801   3.751   4.331  15.174  1.0705  2.4011  0.2285
17770TIP3    H274802   3.625   4.379  15.107 -0.4250 -1.8004 -0.3078
17771TIP3   OH274803   0.127   6.476  15.756  0.1497  0.0091  0.0602
17771TIP3    H174804   0.128   6.562  15.716  1.5039 -0.1032 -0.2141
17771TIP3    H274805   0.188   6.424  15.704 -0.1966 -0.9472  0.5712
17772TIP3   OH274806   0.834   4.955  11.611 -0.6353  0.1067  0.3551
17772TIP3    H174807   0.902   4.889  11.627 -0.9791 -0.6728 -1.2301
17772TIP3    H274808   0.752   4.908  11.626 -0.8666  0.7447  1.1710
17773TIP3   OH274809   1.240   1.554  12.160 -0.1504 -0.2811  0.0069
17773TIP3    H174810   1.148   1.576  12.145  0.0888  1.0353  0.3141
17773TIP3    H274811   1.281   1.562  12.073 -0.1664  0.0260  0.0242
17774TIP3   OH274812   0.644   1.278   6.316  0.8299  0.0312  0.1131
17774TIP3    H174813   0.651   1.255   6.409  0.6063  0.6331  0.2852
17774TIP3    H274814   0.616   1.198   6.273 -0.4520  0.1139  0.7709
17775TIP3   OH274815   5.544   2.393  13.310 -0.1059  0.0128  0.0708
17775TIP3    H174816   5.461   2.360  13.346 -0.4028 -0.3412 -0.9208
17775TIP3    H274817   5.607   2.324  13.329 -0.0959  0.1393  0.5328
17776TIP3   OH274818   3.852   6.532  16.323  0.1935  0.0067  0.1751
17776TIP3    H174819   3.863   6.524  16.417 -0.4164 -0.0782  0.2453
17776TIP3    H274820   3.941   6.540  16.289  0.6638 -2.6918  0.4946
17777TIP3   OH274821   1.759   2.099   3.507  0.5714  0.0437 -0.0872
17777TIP3    H174822   1.789   2.123   3.420  1.5716  1.8417  0.7081
17777TIP3    H274823   1.708   2.174   3.537 -0.3216 -0.8203  0.6388
17778TIP3   OH274824   3.771   4.656  15.382  0.0179  1.0401  0.2766
17778TIP3    H174825   3.719   4.736  15.381 -1.9137 -0.1027 -2.0502
17778TIP3    H274826   3.711   4.589  15.417  0.7387  0.1575 -0.1257
17779TIP3   OH274827   3.709   6.290  11.300  0.4403 -0.2688 -0.3083
17779TIP3    H174828   3.636   6.280  11.361  0.3961 -2.7684 -0.6746
17779TIP3    H274829   3.784   6.311  11.355 -0.3586  1.7682  0.1273
17780TIP3   OH274830   0.954   4.942  14.303  0.2643 -0.4278  0.7482
17780TIP3    H174831   0.935   5.035  14.298  1.0926 -0.3060 -0.4340
17780TIP3    H274832   0.957   4.913  14.211  1.5967 -1.2825  1.0422
17781TIP3   OH274833   1.672   5.097  12.811 -0.1740  0.4170  0.5119
17781TIP3    H174834   1.630   5.105  12.896 -1.5284 -0.8005 -0.0049
17781TIP3    H274835   1.633   5.166  12.758 -0.6904  0.0155  0.3634
17782TIP3   OH274836   1.809   4.213  13.928  0.7742  0.3149 -0.3084
17782TIP3    H174837   1.806   4.240  13.836 -0.0826 -1.2154 -0.7636
17782TIP3    H274838   1.780   4.291  13.976  2.1280  1.4470 -1.2170
17783TIP3   OH274839   0.939   5.703   0.505 -0.0477 -0.0660 -0.6079
17783TIP3    H174840   0.867   5.759   0.478  0.5918 -0.0049 -2.2680
17783TIP3    H274841   0.916   5.676   0.594 -0.5496  2.5133  0.1324
17784TIP3   OH274842   4.376   3.994  11.946 -0.0726  0.3451 -0.0937
17784TIP3    H174843   4.285   3.990  11.975 -0.2409 -0.7512 -0.7194
17784TIP3    H274844   4.418   4.056  12.005 -1.0201  0.1769  0.7731
17785TIP3   OH274845   2.696   4.829  15.254  0.3611 -0.6414 -0.3772
17785TIP3    H174846   2.605   4.860  15.250  0.7119  0.3167 -1.3770
17785TIP3    H274847   2.734   4.878  15.327  0.1448 -0.8785 -0.1003
17786TIP3   OH274848   2.876   2.654  14.894 -0.0435  0.0897 -0.3277
17786TIP3    H174849   2.885   2.576  14.840  1.6032  0.7421 -1.0783
17786TIP3    H274850   2.909   2.628  14.980 -3.2577 -1.1344  0.6730
17787TIP3   OH274851   6.100   0.574  16.973 -0.1527 -0.8966 -0.2015
17787TIP3    H174852   6.111   0.479  16.978  0.8805 -0.9367 -2.2166
17787TIP3    H274853   6.022   0.586  16.920  0.1954 -0.6498 -0.6708
17788TIP3   OH274854   3.612   2.599  10.814  0.1810  0.2103 -0.0545
17788TIP3    H174855   3.649   2.568  10.731 -0.7512 -1.0660 -0.0189
17788TIP3    H274856   3.642   2.537  10.879 -0.1745  0.4532  0.3478
17789TIP3   OH274857   6.099   4.748   1.216  0.4710  0.4000  0.3730
17789TIP3    H174858   6.122   4.741   1.309  0.1125  1.6800  0.5666
17789TIP3    H274859   6.013   4.789   1.215 -0.7929 -2.0531 -0.4587
17790TIP3   OH274860   4.798   2.553   4.519 -0.2401 -0.6170  0.6076
17790TIP3    H174861   4.797   2.461   4.496 -1.4945 -0.6393  0.6537
17790TIP3    H274862   4.789   2.599   4.436 -1.3435 -0.6044  0.7140
17791TIP3   OH274863   0.752   5.314   5.014  0.0702 -0.2771  0.2609
17791TIP3    H174864   0.713   5.232   4.983  0.7689 -0.6236  0.2521
17791TIP3    H274865   0.685   5.380   5.000 -0.9187 -1.0272  1.2646
17792TIP3   OH274866   3.675   4.556  14.478 -0.5147  0.0506 -0.4447
17792TIP3    H174867   3.608   4.615  14.514  0.3492  0.5219  0.4425
17792TIP3    H274868   3.758   4.596  14.503  0.1064 -0.7999 -1.0822
17793TIP3   OH274869   0.229   2.190   6.035  0.3257  0.0151 -0.1789
17793TIP3    H174870   0.160   2.125   6.050  0.0101  0.8747  2.5686
17793TIP3    H274871   0.229   2.244   6.114  1.3894  2.6490 -1.8515
17794TIP3   OH274872   4.895   5.989   0.480 -0.4185  0.4068 -0.3527
17794TIP3    H174873   4.963   6.057   0.485 -2.6150  2.6430  1.7019
17794TIP3    H274874   4.817   6.035   0.450 -1.7806 -1.4142  0.2085
17795TIP3   OH274875   0.254   1.934  14.943  0.3283  0.6174  0.1663
17795TIP3    H174876   0.238   1.987  14.865  0.6913 -0.1512 -0.4391
17795TIP3    H274877   0.339   1.964  14.975 -0.5508  2.1071  1.2605
17796TIP3   OH274878   6.681   5.008  15.042  0.0788  0.1543  0.1176
17796TIP3    H174879   6.599   4.983  15.085 -0.0926 -2.0357 -1.2917
17796TIP3    H274880   6.653   5.049  14.960  0.1947 -3.1950 -1.7878
17797TIP3   OH274881   5.583   0.132   0.213  0.0404  0.0381  0.0748
17797TIP3    H174882   5.488   0.130   0.230 -0.5027 -3.0970 -2.3995
17797TIP3    H274883   5.621   0.080   0.284 -0.4050 -0.6600 -0.1848
17798TIP3   OH274884   0.536   3.161  14.481  0.3468  0.3542  0.4411
17798TIP3    H174885   0.484   3.159  14.561  0.9530 -2.8574  0.8881
17798TIP3    H274886   0.620   3.199  14.506  0.0008  0.7804  0.9529
17799TIP3   OH274887   3.782   3.176  11.769  0.0488  0.0328 -0.8668
17799TIP3    H174888   3.772   3.139  11.682 -0.4150  2.0174 -1.7117
17799TIP3    H274889   3.874   3.165  11.790  0.0302 -1.0613 -1.3110
17800TIP3   OH274890   0.555   4.795   5.517  0.2560  0.8511 -0.2466
17800TIP3    H174891   0.482   4.737   5.537  0.3654  0.4013 -1.0791
17800TIP3    H274892   0.622   4.773   5.581  0.9210 -1.1400 -1.5162
17801TIP3   OH274893   5.888   5.504  16.752  0.6239 -0.1271  0.5878
17801TIP3    H174894   5.965   5.562  16.755 -0.7346  1.7960  0.4310
17801TIP3    H274895   5.827   5.549  16.694 -0.7394 -1.4624  0.9455
17802TIP3   OH274896   5.119   4.722  15.432 -0.4223  0.5967  1.0740
17802TIP3    H174897   5.127   4.802  15.379 -0.6049  0.7530  1.2817
17802TIP3    H274898   5.027   4.696  15.424  0.1135 -0.9112 -0.8848
17803TIP3   OH274899   1.737   4.151   5.101  0.0350 -0.0276 -1.0155
17803TIP3    H174900   1.722   4.232   5.150 -1.0642  0.3022 -1.8406
17803TIP3    H274901   1.743   4.179   5.010 -1.2100 -0.9312 -1.4068
17804TIP3   OH274902   2.578   0.822   2.544 -0.7931 -0.4854 -0.9691
17804TIP3    H174903   2.568   0.899   2.600 -0.2302  0.5488 -2.2216
17804TIP3    H274904   2.495   0.816   2.497  0.0387  1.0059 -2.7858
17805TIP3   OH274905   0.565   2.248  12.006  0.1744  0.3190  0.0193
17805TIP3    H174906   0.607   2.262  11.921  0.3010 -1.1352 -0.1863
17805TIP3    H274907   0.594   2.160  12.033 -2.6127 -0.7286 -0.1028
17806TIP3   OH274908   4.188   1.293  11.491 -0.0307  0.0366  0.1385
17806TIP3    H174909   4.117   1.356  11.499 -0.0227  0.0176  0.3592
17806TIP3    H274910   4.150   1.220  11.442  0.3392  0.7798 -1.3039
17807TIP3   OH274911   4.511   5.482  16.926  0.3643 -0.1370 -0.1115
17807TIP3    H174912   4.481   5.454  17.012 -1.4135 -2.1351 -1.2647
17807TIP3    H274913   4.513   5.577  16.930  0.9586 -0.1903  2.2926
17808TIP3   OH274914   2.290   2.732  16.046 -0.0196  0.1058  0.7620
17808TIP3    H174915   2.264   2.812  16.001  0.4428 -0.0019  0.3055
17808TIP3    H274916   2.385   2.737  16.053  0.0240 -0.4582  0.6270
17809TIP3   OH274917   5.051   5.571   6.197  0.1034 -0.2911 -0.6250
17809TIP3    H174918   5.136   5.553   6.239 -0.4773  0.3067  0.8445
17809TIP3    H274919   5.001   5.491   6.211 -0.5651  0.3889  1.0824
17810TIP3   OH274920   6.765   0.198  11.498  0.5693  0.2793  0.5421
17810TIP3    H174921   6.737   0.112  11.466  2.8566  0.5369 -2.6215
17810TIP3    H274922   6.684   0.249  11.502 -0.5444 -1.3817  0.2956
17811TIP3   OH274923   2.104   0.429  12.759  0.0824  0.2526  0.0036
17811TIP3    H174924   2.136   0.432  12.669  0.3526 -1.9361 -0.0315
17811TIP3    H274925   2.049   0.350  12.763 -1.3261  1.2328  1.3371
17812TIP3   OH274926   3.475   5.660  16.287  0.0598 -0.3342  0.2774
17812TIP3    H174927   3.549   5.620  16.241 -0.3986 -1.6974  0.6826
17812TIP3    H274928   3.493   5.645  16.380  0.3391  1.2628  0.5016
17813TIP3   OH274929   4.087   5.057  16.327 -0.2435  0.0379 -0.4484
17813TIP3    H174930   4.045   4.982  16.286 -1.0022  1.9483 -3.5293
17813TIP3    H274931   4.180   5.046  16.309  0.3088 -2.1349  2.8325
17814TIP3   OH274932   5.008   4.007   4.600  0.3012 -0.1253  0.0947
17814TIP3    H174933   4.998   3.915   4.575 -0.4546  0.1162 -0.5021
17814TIP3    H274934   5.028   4.003   4.694  3.3597 -1.0407 -0.4735
17815TIP3   OH274935   1.258   5.630   3.458 -0.6786  0.3241  0.3147
17815TIP3    H174936   1.225   5.708   3.504  3.1864  2.5679 -0.2456
17815TIP3    H274937   1.229   5.642   3.368 -0.6588  0.7798  0.3621
17816TIP3   OH274938   2.799   0.137   4.053  0.6109 -0.1189 -0.6385
17816TIP3    H174939   2.863   0.084   4.102 -0.9215 -1.6259 -0.1884
17816TIP3    H274940   2.766   0.200   4.117  2.2171  1.2851 -1.0996
17817TIP3   OH274941   6.579   4.010   0.911  0.5462 -0.4952  0.2097
17817TIP3    H174942   6.584   3.916   0.894  1.0009 -0.3206 -0.6594
17817TIP3    H274943   6.519   4.018   0.985 -1.2844 -1.3007 -1.1360
17818TIP3   OH274944   4.675   5.774  10.457  0.0811 -0.1029 -0.3423
17818TIP3    H174945   4.667   5.714  10.383 -0.7836  0.5658 -0.8051
17818TIP3    H274946   4.586   5.805  10.474  0.4683  0.8701  0.0276
17819TIP3   OH274947   4.949   6.761   1.208 -0.3302  0.4236 -0.3228
17819TIP3    H174948   4.986   6.848   1.190  1.5042 -0.4746 -1.2438
17819TIP3    H274949   4.998   6.730   1.284 -0.4124 -0.0883 -0.4755
17820TIP3   OH274950   0.703   5.932   0.981  0.5534 -0.0653 -0.4387
17820TIP3    H174951   0.789   5.954   0.947  1.8299 -1.9948  1.2931
17820TIP3    H274952   0.655   5.895   0.907  2.7457 -2.9020 -0.5913
17821TIP3   OH274953   1.895   6.448   2.639 -0.5582 -0.4647  0.1628
17821TIP3    H174954   1.977   6.410   2.607  0.8706  1.4038  1.3732
17821TIP3    H274955   1.856   6.489   2.561 -0.0278 -0.8258 -0.2967
17822TIP3   OH274956   0.113   6.272  15.355 -0.3573  0.0880  0.2836
17822TIP3    H174957   0.032   6.318  15.378 -0.0640  0.7917 -0.0570
17822TIP3    H274958   0.156   6.257  15.439 -0.9320 -0.4684  0.4817
17823TIP3   OH274959   5.122   6.113   0.761  0.1136 -0.3081 -0.2737
17823TIP3    H174960   5.060   6.186   0.768  0.5414  0.0770 -0.4672
17823TIP3    H274961   5.150   6.113   0.670  1.5131  0.4605  0.1291
17824TIP3   OH274962   1.792   3.523   3.025  0.5255 -0.3146 -0.2345
17824TIP3    H174963   1.795   3.444   3.079  0.8386  0.2015  0.5199
17824TIP3    H274964   1.854   3.505   2.954  0.9374 -0.5720  0.1820
17825TIP3   OH274965   6.388   4.109  16.520  0.0789 -0.3679 -0.3157
17825TIP3    H174966   6.404   4.089  16.613  2.4950  0.3555 -0.5106
17825TIP3    H274967   6.300   4.148  16.519 -0.1482 -0.7029  1.6130
17826TIP3   OH274968   6.518   3.872   1.679 -0.0478  0.6238 -0.2516
17826TIP3    H174969   6.518   3.913   1.593 -0.7416 -1.4769 -1.3168
17826TIP3    H274970   6.587   3.918   1.727  1.1591  1.0922 -2.3089
17827TIP3   OH274971   2.550   5.122  13.596  0.0347 -0.6499 -0.0525
17827TIP3    H174972   2.556   5.038  13.640  0.8558  0.2834  1.7187
17827TIP3    H274973   2.615   5.117  13.526 -0.0938 -1.5489 -0.1188
17828TIP3   OH274974   2.545   0.443  14.221  0.3479 -0.0443  0.5180
17828TIP3    H174975   2.606   0.517  14.219 -2.2073  2.1860  0.7062
17828TIP3    H274976   2.549   0.407  14.133  1.8028  0.1220  0.4863
17829TIP3   OH274977   5.533   1.202   4.347  0.2753 -0.1568 -0.5521
17829TIP3    H174978   5.483   1.247   4.280 -0.8362 -0.8305 -0.1891
17829TIP3    H274979   5.526   1.110   4.326  2.1522 -0.2419 -1.0178
17830TIP3   OH274980   4.517   5.539  12.122 -0.6176  0.1170 -0.2158
17830TIP3    H174981   4.597   5.529  12.071 -1.3508  1.2887 -1.6585
17830TIP3    H274982   4.528   5.478  12.196  1.2263 -0.3317 -0.8092
17831TIP3   OH274983   0.052   4.193  11.856 -0.8867  0.4218  0.6986
17831TIP3    H174984   0.142   4.214  11.884 -0.1144 -1.6361 -0.1063
17831TIP3    H274985   0.035   4.254  11.784 -0.1175  0.7689  0.7938
17832TIP3   OH274986   5.120   5.659   3.399  0.1879 -0.0842  0.0313
17832TIP3    H174987   5.207   5.625   3.379  1.0254  0.9499  1.6758
17832TIP3    H274988   5.104   5.727   3.332 -0.2431 -1.5866 -1.4585
17833TIP3   OH274989   0.295   5.684   4.236  0.2224 -0.1646 -0.2038
17833TIP3    H174990   0.207   5.649   4.228 -0.0602  0.6321 -0.7862
17833TIP3    H274991   0.316   5.717   4.149  1.4539 -1.1364 -0.3006
17834TIP3   OH274992   5.111   1.564   0.431 -0.3819  0.6649 -0.2077
17834TIP3    H174993   5.117   1.654   0.462  0.0028  0.5299  0.1193
17834TIP3    H274994   5.041   1.525   0.485 -0.4623  0.7323 -0.2636
17835TIP3   OH274995   3.692   6.156   0.780 -0.6097 -0.3151 -0.9748
17835TIP3    H174996   3.601   6.151   0.751 -2.4687  0.5827  3.6843
17835TIP3    H274997   3.707   6.249   0.796  0.0097 -0.6997  1.0201
17836TIP3   OH274998   2.792   5.309   4.256 -0.0717  0.1859 -0.6039
17836TIP3    H174999   2.791   5.380   4.192  2.9605  0.0984 -0.8790
17836TIP3    H275000   2.880   5.273   4.251 -0.6052 -1.6883  1.6476
17837TIP3   OH275001   3.890   3.467  11.262  0.0795 -0.3545 -0.2235
17837TIP3    H175002   3.944   3.388  11.259  0.7831  0.1535 -1.6859
17837TIP3    H275003   3.924   3.522  11.191 -1.2373  0.7133 -0.0572
17838TIP3   OH275004   6.669   5.380   6.327  0.1621  0.2967  0.2377
17838TIP3    H175005   6.695   5.379   6.419 -1.2164  0.4102  0.6436
17838TIP3    H275006   6.689   5.292   6.295 -0.3603 -0.0754  0.9346
17839TIP3   OH275007   0.994   6.243   5.478  0.2835 -0.8859  0.9033
17839TIP3    H175008   0.922   6.179   5.476  0.2971 -0.9744  2.1573
17839TIP3    H275009   1.065   6.202   5.430 -0.4668 -0.8313 -0.2976
17840TIP3   OH275010   5.508   5.583   1.148 -0.4688 -0.0805  0.0936
17840TIP3    H175011   5.534   5.675   1.158 -2.8424  0.7763 -0.8261
17840TIP3    H275012   5.578   5.543   1.097 -0.6785  1.9773 -1.9743
17841TIP3   OH275013   1.884   1.937   2.335 -0.1852 -0.5130 -0.0190
17841TIP3    H175014   1.839   1.870   2.387 -0.7316 -1.1461 -1.2635
17841TIP3    H275015   1.866   1.913   2.244  0.6966  0.5973 -0.5125
17842TIP3   OH275016   3.340   4.673  15.776  0.2950  0.1840 -0.5197
17842TIP3    H175017   3.274   4.605  15.767  0.2444  0.3774 -1.8533
17842TIP3    H275018   3.362   4.698  15.686  2.0438  0.2724 -0.1076
17843TIP3   OH275019   2.343   5.839  12.209 -0.3529  0.1310  0.2614
17843TIP3    H175020   2.290   5.898  12.263 -0.7612 -1.4149  1.6190
17843TIP3    H275021   2.283   5.769  12.184  0.2538  0.0021 -0.9089
17844TIP3   OH275022   1.758   6.414  13.320 -0.0664 -0.2027 -0.2129
17844TIP3    H175023   1.696   6.480  13.351  1.0718  0.9486 -0.3086
17844TIP3    H275024   1.740   6.407  13.226  1.9573  2.4753 -0.9101
17845TIP3   OH275025   0.749   4.667  13.299  0.0808  0.2914 -0.4225
17845TIP3    H175026   0.746   4.575  13.324  2.3988  0.1878 -0.2344
17845TIP3    H275027   0.799   4.668  13.217  1.8586  1.4925  0.6052
17846TIP3   OH275028   1.912   3.805  16.649  0.2582  0.3043 -0.5498
17846TIP3    H175029   1.860   3.771  16.722  0.4842  2.2848  0.6205
17846TIP3    H275030   1.853   3.863  16.602  0.8970  1.2019 -0.2650
17847TIP3   OH275031   4.446   1.876  16.687  0.2883  0.2269 -0.0030
17847TIP3    H175032   4.495   1.815  16.743  1.0164  0.2406 -0.6156
17847TIP3    H275033   4.492   1.959  16.696  0.0640  0.3698 -0.1774
17848TIP3   OH275034   0.312   3.517  16.404 -0.0759 -0.4850 -0.3823
17848TIP3    H175035   0.367   3.457  16.455 -0.4019 -1.6775 -1.3631
17848TIP3    H275036   0.362   3.529  16.322 -0.4813 -0.2209 -0.5898
17849TIP3   OH275037   3.578   2.403   6.272 -0.4164 -0.1328 -0.1273
17849TIP3    H175038   3.636   2.327   6.279  0.1352  0.3467  0.6195
17849TIP3    H275039   3.564   2.431   6.362  1.1081  1.9198 -0.4549
17850TIP3   OH275040   1.195   2.529  10.985  0.5772  0.1147 -0.2661
17850TIP3    H175041   1.114   2.550  11.031  0.6367  1.6153 -0.8022
17850TIP3    H275042   1.179   2.443  10.947 -1.3815  0.9918 -1.6541
17851TIP3   OH275043   1.194   4.460  13.330  0.1806  0.2491  0.3169
17851TIP3    H175044   1.266   4.401  13.309 -2.0122 -2.6555  0.3586
17851TIP3    H275045   1.154   4.479  13.245 -1.3548 -1.5209  0.5745
17852TIP3   OH275046   1.004   5.236   0.824 -0.6451  0.4471 -0.1314
17852TIP3    H175047   1.049   5.163   0.866  0.9531  2.3798  1.7572
17852TIP3    H275048   0.913   5.230   0.856 -0.4136 -0.3883  0.4050
17853TIP3   OH275049   3.853   1.913  16.192 -0.2146  0.3997 -0.2828
17853TIP3    H175050   3.762   1.936  16.211 -0.7459 -1.2191 -0.6995
17853TIP3    H275051   3.855   1.901  16.097  0.1909 -0.4766 -0.1770
17854TIP3   OH275052   0.786   2.473  13.741 -0.0567  0.4701  0.0036
17854TIP3    H175053   0.787   2.499  13.649 -2.5162  1.2773  0.1228
17854TIP3    H275054   0.776   2.556  13.789  1.3424  0.0832  1.0469
17855TIP3   OH275055   2.775   4.560  14.162 -0.9572 -0.0840 -0.5121
17855TIP3    H175056   2.695   4.522  14.127  0.1221 -0.8253 -2.3188
17855TIP3    H275057   2.820   4.486  14.205  0.1631 -0.4665 -2.2208
17856TIP3   OH275058   2.956   2.923  14.428 -0.1268 -0.8433  0.5070
17856TIP3    H175059   2.943   2.874  14.347 -0.4313  0.5291 -0.3019
17856TIP3    H275060   2.899   2.879  14.492 -1.5894 -0.6150 -0.5896
17857TIP3   OH275061   0.029   3.834  14.826 -0.4839 -0.1178  0.2707
17857TIP3    H175062  -0.006   3.892  14.759 -0.4264  0.8370  1.0299
17857TIP3    H275063  -0.027   3.849  14.902  0.2084 -0.2412  0.8138
17858TIP3   OH275064   4.226   4.412   4.112 -0.2960  0.9320  0.5726
17858TIP3    H175065   4.156   4.349   4.128  0.0764  0.1631 -0.7142
17858TIP3    H275066   4.306   4.360   4.114  0.0245  1.3725 -0.3883
17859TIP3   OH275067   2.910   1.501   5.291 -0.3844 -1.1805 -0.0749
17859TIP3    H175068   2.882   1.425   5.239 -1.5586 -1.1450  0.4748
17859TIP3    H275069   2.830   1.550   5.306  0.1749 -0.4564  0.5997
17860TIP3   OH275070   0.359   3.015   5.135  0.0470 -0.0415  0.1894
17860TIP3    H175071   0.407   2.943   5.175 -1.1912 -0.4852  0.9176
17860TIP3    H275072   0.318   3.061   5.208 -1.1382 -0.0494 -0.4404
17861TIP3   OH275073   2.115   0.640  16.164 -0.2476  0.0439 -0.3461
17861TIP3    H175074   2.187   0.577  16.163  0.3893  0.7546 -0.7865
17861TIP3    H275075   2.043   0.595  16.120  0.6280  0.0914 -1.8874
17862TIP3   OH275076   2.056   1.212   2.514 -0.7447 -0.0778 -0.0245
17862TIP3    H175077   2.117   1.285   2.509 -0.5777 -0.2190 -0.0271
17862TIP3    H275078   1.999   1.233   2.588  0.0769 -0.5403  0.7537
17863TIP3   OH275079   0.643   1.832  15.451 -0.3537  0.1729  0.0222
17863TIP3    H175080   0.723   1.789  15.420 -1.2564 -1.9724  0.4939
17863TIP3    H275081   0.608   1.876  15.374  1.4586  1.5541 -0.0996
17864TIP3   OH275082   3.548   1.604   3.318 -0.1881 -0.1843  0.9689
17864TIP3    H175083   3.628   1.569   3.357  0.4285  0.1247  0.0107
17864TIP3    H275084   3.572   1.623   3.227 -0.9633  1.1935  1.0293
17865TIP3   OH275085   4.789   4.543   0.982  0.2839 -0.0622 -0.0627
17865TIP3    H175086   4.871   4.500   0.958  0.2652 -0.9913  1.4094
17865TIP3    H275087   4.722   4.497   0.931  0.2061 -2.1951  1.8218
17866TIP3   OH275088   1.106   4.651  13.495  0.2247 -0.4109  0.0174
17866TIP3    H175089   1.137   4.578  13.441 -2.5990 -2.3205  0.7440
17866TIP3    H275090   1.089   4.612  13.580 -1.2093  1.1599  0.4953
17867TIP3   OH275091   1.971   3.821   0.068 -0.0439  0.5083  0.2064
17867TIP3    H175092   1.997   3.766   0.142  0.3882 -0.1816 -0.4452
17867TIP3    H275093   1.977   3.911   0.102  0.7884  0.2336  0.8202
17868TIP3   OH275094   5.136   0.663   4.071  0.1996  0.4665 -0.5746
17868TIP3    H175095   5.110   0.600   4.138 -1.5251  0.6103 -1.0692
17868TIP3    H275096   5.087   0.743   4.092 -0.2360  0.5733 -1.8680
17869TIP3   OH275097   0.531   6.149   4.979 -0.3827  0.1504  0.6411
17869TIP3    H175098   0.489   6.172   5.062 -0.0980  0.2310  0.7645
17869TIP3    H275099   0.463   6.163   4.913 -0.3599  0.8807  0.7674
17870TIP3   OH275100   4.907   4.490  14.760  0.5466  0.1642  0.0573
17870TIP3    H175101   4.930   4.398  14.770  0.2774 -0.0858 -1.4790
17870TIP3    H275102   4.926   4.528  14.846  1.4847 -1.1314  0.4608
17871TIP3   OH275103   1.788   6.330  12.273 -0.2208 -0.1613  0.5683
17871TIP3    H175104   1.752   6.390  12.338  1.1037  0.1046  1.0988
17871TIP3    H275105   1.878   6.359  12.261 -0.5079  0.0046 -1.6635
17872TIP3   OH275106   2.281   5.628  15.648 -0.0568  0.2731 -0.3887
17872TIP3    H175107   2.192   5.661  15.657 -0.1153  0.3289 -1.1438
17872TIP3    H275108   2.317   5.675  15.573  0.9546  1.0026  0.5216
17873TIP3   OH275109   4.751   4.691  13.635  0.0319 -0.4643  0.8609
17873TIP3    H175110   4.758   4.775  13.680 -1.1476 -0.1559  0.5052
17873TIP3    H275111   4.833   4.683  13.587  0.1305  0.5153  0.8412
17874TIP3   OH275112   2.063   4.443  15.887 -0.4528  0.2863  0.2124
17874TIP3    H175113   2.014   4.522  15.864 -0.2979  0.8072  1.5400
17874TIP3    H275114   2.155   4.466  15.872 -0.5050 -0.1763 -0.8544
17875TIP3   OH275115   4.532   3.350   5.292 -0.1789  0.5974  0.1454
17875TIP3    H175116   4.527   3.276   5.353 -1.0476  1.3065  0.9562
17875TIP3    H275117   4.577   3.314   5.215 -1.8050 -1.1796 -0.0557
17876TIP3   OH275118   1.628   6.411  11.541 -0.2982 -0.1780  0.5414
17876TIP3    H175119   1.686   6.355  11.593  1.0459  0.4529 -0.2147
17876TIP3    H275120   1.561   6.351  11.507  1.0651 -1.3477 -0.2002
17877TIP3   OH275121   2.731   1.323  15.680  0.5514  0.5405  0.0685
17877TIP3    H175122   2.750   1.405  15.725  0.6703  0.7900 -0.4305
17877TIP3    H275123   2.802   1.313  15.617  1.2985 -0.6485  1.0413
17878TIP3   OH275124   3.802   0.914  14.410 -0.4377  0.0215  0.1166
17878TIP3    H175125   3.811   1.005  14.437 -2.1781 -0.7924  4.2318
17878TIP3    H275126   3.873   0.868  14.455 -1.0322 -0.9606  0.0852
17879TIP3   OH275127   2.293   0.090   2.045  0.2240  0.5165  0.0254
17879TIP3    H175128   2.255   0.009   2.078  0.7647  0.8243  1.4664
17879TIP3    H275129   2.218   0.146   2.024 -0.1509 -0.3973 -1.1205
17880TIP3   OH275130   2.375   1.886  10.453 -0.6011  0.4489  0.0137
17880TIP3    H175131   2.340   1.880  10.542  0.1560  0.0311  0.2926
17880TIP3    H275132   2.374   1.980  10.434  2.5809  1.0278  1.8790
17881TIP3   OH275133   5.440   1.342  11.758 -0.3620  0.0240 -0.4637
17881TIP3    H175134   5.352   1.338  11.794 -0.3340 -1.7944 -0.5130
17881TIP3    H275135   5.474   1.252  11.766  0.9269  0.3411 -1.8270
17882TIP3   OH275136   6.132   6.701   1.081 -0.2726 -0.0450  0.5049
17882TIP3    H175137   6.217   6.657   1.084 -0.5556 -0.8273 -1.4343
17882TIP3    H275138   6.087   6.673   1.160  0.6296 -1.0294  0.6825
17883TIP3   OH275139   6.173   2.150   5.107  0.4350 -0.0390  0.1446
17883TIP3    H175140   6.257   2.193   5.124  0.8566 -1.1266  0.9365
17883TIP3    H275141   6.191   2.089   5.036 -0.5090  2.0459 -2.0011
17884TIP3   OH275142   6.529   4.755  11.965  1.0154 -0.3201 -0.8161
17884TIP3    H175143   6.550   4.669  12.001 -1.9519 -0.3795  1.1039
17884TIP3    H275144   6.499   4.806  12.040 -2.3142  0.6467 -2.5967
17885TIP3   OH275145   3.021   2.706  11.806 -0.0694 -0.0642 -0.3901
17885TIP3    H175146   3.103   2.717  11.757 -1.0412  0.8232 -1.8878
17885TIP3    H275147   2.953   2.729  11.743 -1.3757  1.4522  1.5001
17886TIP3   OH275148   2.722   2.230   6.438  0.6132 -0.6328 -0.0851
17886TIP3    H175149   2.735   2.321   6.466 -1.8728  0.0477 -0.8703
17886TIP3    H275150   2.785   2.218   6.367 -0.6574  1.3422 -1.6559
17887TIP3   OH275151   6.726   3.990   1.852  0.0426  0.5222 -0.2964
17887TIP3    H175152   6.671   3.962   1.926 -1.2159  0.0797 -1.3502
17887TIP3    H275153   6.763   4.073   1.880 -0.3871  0.3476  0.8458
17888TIP3   OH275154   1.716   0.305   0.558  0.6700 -0.4439  0.0097
17888TIP3    H175155   1.740   0.347   0.475  2.4039  1.0051  1.1758
17888TIP3    H275156   1.784   0.240   0.573 -0.7183 -2.1260 -0.6078
17889TIP3   OH275157   3.442   6.548   2.234  0.2289  0.1395 -0.0399
17889TIP3    H175158   3.510   6.614   2.226 -0.2013  0.5469 -0.4329
17889TIP3    H275159   3.483   6.475   2.281  1.0169  0.2580 -0.5387
17890TIP3   OH275160   6.021   3.216   4.911 -0.0787  0.6111  0.0111
17890TIP3    H175161   5.979   3.288   4.865 -1.7106 -0.4501 -0.2674
17890TIP3    H275162   6.108   3.249   4.935 -0.3295  2.2177 -1.1573
17891TIP3   OH275163   1.493   5.323  16.211  0.0013  0.4375  0.2749
17891TIP3    H175164   1.495   5.227  16.207 -1.4488  0.3734  0.3485
17891TIP3    H275165   1.534   5.345  16.295  0.8843 -0.0810 -0.0162
17892TIP3   OH275166   3.445   2.100  15.033 -0.2314 -0.2202  0.6513
17892TIP3    H175167   3.488   2.082  15.116  0.4692 -2.0122 -0.0631
17892TIP3    H275168   3.516   2.125  14.974 -0.4343 -1.0001  0.0585
17893TIP3   OH275169   2.549   0.795  15.709 -0.2688 -0.0502  0.0877
17893TIP3    H175170   2.629   0.800  15.657 -0.8316  1.7693 -0.7031
17893TIP3    H275171   2.569   0.845  15.788 -0.1643 -0.8620  0.5877
17894TIP3   OH275172   1.017   2.631  15.393  0.2565 -0.2328  0.2395
17894TIP3    H175173   1.045   2.682  15.316 -0.2631 -0.2390  0.0435
17894TIP3    H275174   1.024   2.540  15.365  1.4778 -0.2993  0.6885
17895TIP3   OH275175   3.684   2.197  14.040 -0.3407 -0.1835  0.3346
17895TIP3    H175176   3.705   2.105  14.056  0.3142 -0.2113 -0.5886
17895TIP3    H275177   3.625   2.195  13.964  2.3695  0.2896 -1.9556
17896TIP3   OH275178   3.642   6.372  13.980  0.6417 -0.6541 -0.3588
17896TIP3    H175179   3.665   6.406  14.067  0.4113  1.5101 -1.0676
17896TIP3    H275180   3.559   6.415  13.959  0.4054 -1.5896 -1.4312
17897TIP3   OH275181   6.761   1.802   0.510  0.1639  0.1905 -0.2838
17897TIP3    H175182   6.805   1.866   0.453 -0.8037  0.7556 -0.4111
17897TIP3    H275183   6.760   1.844   0.596  1.3313 -0.5254  0.1004
17898TIP3   OH275184   0.954   4.167   0.795 -0.4281  0.0472  0.0005
17898TIP3    H175185   0.879   4.204   0.840  0.8844  2.3685  0.4685
17898TIP3    H275186   1.012   4.135   0.865 -0.1030  0.0971 -0.2397
17899TIP3   OH275187   6.141   2.633  11.156  0.0116  0.3663 -0.2667
17899TIP3    H175188   6.105   2.716  11.124 -0.1733  0.8502  1.1508
17899TIP3    H275189   6.234   2.638  11.134  0.4265  1.8738  1.5640
17900TIP3   OH275190   3.338   5.287  15.093 -0.0635 -0.1536 -0.0999
17900TIP3    H175191   3.419   5.294  15.042 -0.2556 -2.1734 -0.7665
17900TIP3    H275192   3.346   5.203  15.138 -2.3692 -1.0891 -1.2742
17901TIP3   OH275193   2.086   2.348  12.889  0.4993 -0.5068 -0.6589
17901TIP3    H175194   2.039   2.429  12.867 -0.9136 -1.0083  0.3804
17901TIP3    H275195   2.161   2.377  12.940 -1.3443  0.0741  1.9352
17902TIP3   OH275196   6.332   5.003   3.850  0.7721  0.0704 -0.4541
17902TIP3    H175197   6.327   5.046   3.765 -1.2205 -0.2367 -0.5458
17902TIP3    H275198   6.262   5.045   3.901  0.7717 -0.9868  0.4392
17903TIP3   OH275199   2.266   3.136  12.555  0.0977  0.6774  0.1969
17903TIP3    H175200   2.259   3.097  12.468 -0.0439  1.5640 -0.1899
17903TIP3    H275201   2.357   3.122  12.581  0.8424  2.6966 -1.1819
17904TIP3   OH275202   6.591   3.533  14.044  0.2157 -0.3508 -0.1213
17904TIP3    H175203   6.504   3.533  14.003  0.0749 -2.6153  0.0487
17904TIP3    H275204   6.640   3.466  13.996  1.1350 -0.6781  1.2193
17905TIP3   OH275205   4.821   0.509  13.534 -0.0263  0.3206  0.0567
17905TIP3    H175206   4.736   0.479  13.501  0.1418 -0.6054  0.4438
17905TIP3    H275207   4.884   0.450  13.494  0.1125 -1.5524  2.7901
17906TIP3   OH275208   6.525   6.758  12.151  0.1682 -0.1933  0.1819
17906TIP3    H175209   6.509   6.756  12.056  0.6335  1.3487  0.0426
17906TIP3    H275210   6.459   6.698  12.187 -0.7969  0.0976 -1.0192
17907TIP3   OH275211   3.845   4.425   5.411 -0.7066  0.4729 -0.0101
17907TIP3    H175212   3.940   4.424   5.399 -0.7267 -2.8299 -0.8989
17907TIP3    H275213   3.813   4.483   5.342  0.5399 -1.3032 -2.2451
17908TIP3   OH275214   3.249   5.125  16.290  0.1055 -0.5673 -0.1565
17908TIP3    H175215   3.167   5.103  16.333 -0.4844  2.1390  0.3231
17908TIP3    H275216   3.310   5.140  16.362 -0.0142  0.9164 -0.3385
17909TIP3   OH275217   3.921   0.006  11.932 -0.0213 -0.6005  0.4957
17909TIP3    H175218   3.886   0.094  11.921  1.2868 -0.0185  0.8578
17909TIP3    H275219   3.894  -0.021  12.019  0.2935 -0.2216  0.7091
17910TIP3   OH275220   5.873   3.866   1.384  0.1790  0.2578  0.3464
17910TIP3    H175221   5.801   3.900   1.437  0.3151  1.7151 -0.3700
17910TIP3    H275222   5.897   3.938   1.326  1.4002 -0.6162 -0.2843
17911TIP3   OH275223   2.388   3.367  14.436 -0.5797  0.0593 -0.4682
17911TIP3    H175224   2.457   3.311  14.402  2.5050  2.6974  0.9108
17911TIP3    H275225   2.357   3.416  14.360  1.1363  0.7958 -0.7407
17912TIP3   OH275226   2.093   6.726   1.864  0.1454 -0.1523 -0.1865
17912TIP3    H175227   2.163   6.681   1.817  1.9854  0.8992  1.3446
17912TIP3    H275228   2.106   6.701   1.956 -1.4132  0.1905  0.1542
17913TIP3   OH275229   1.174   2.964  11.161 -0.2726 -0.2811  0.2238
17913TIP3    H175230   1.102   3.000  11.213 -0.6299  0.6696 -0.8651
17913TIP3    H275231   1.231   2.921  11.224 -1.6984 -0.8928  1.1432
17914TIP3   OH275232   4.474   3.522   3.516 -0.2635  0.1253  0.0931
17914TIP3    H175233   4.478   3.571   3.434 -0.2331 -0.2126 -0.1083
17914TIP3    H275234   4.549   3.463   3.513 -0.6029 -0.3078  0.0956
17915TIP3   OH275235   1.355   4.560  16.568  0.5760 -0.1786  0.6400
17915TIP3    H175236   1.404   4.478  16.563  1.3055  0.3107 -2.1875
17915TIP3    H275237   1.423   4.628  16.569 -0.0371  0.4452  1.1655
17916TIP3   OH275238   6.177   4.563  15.832 -0.0752 -0.7094  0.5502
17916TIP3    H175239   6.233   4.495  15.869  1.9626  0.5768 -0.0090
17916TIP3    H275240   6.132   4.521  15.758 -1.0701 -2.1738  1.9302
17917TIP3   OH275241   2.788   5.541   2.570 -0.3310 -0.6001 -0.5338
17917TIP3    H175242   2.791   5.525   2.475 -1.4388  0.1552 -0.7178
17917TIP3    H275243   2.786   5.636   2.578  2.1557 -0.5606  0.3771
17918TIP3   OH275244   3.874   0.879   3.424 -0.4960  0.1659  0.1033
17918TIP3    H175245   3.837   0.805   3.472 -0.9700 -0.9365 -1.8791
17918TIP3    H275246   3.915   0.933   3.492  0.0881 -2.0111  1.5797
17919TIP3   OH275247   2.656   5.050   2.739  0.7425  0.1916  0.0659
17919TIP3    H175248   2.585   5.058   2.676  2.4454 -0.6028 -2.0653
17919TIP3    H275249   2.615   5.012   2.817 -1.2818  0.5026 -0.7872
17920TIP3   OH275250   5.005   4.433   0.855 -0.0333  0.1724 -0.1263
17920TIP3    H175251   5.085   4.410   0.808  0.5022  1.2482  0.2425
17920TIP3    H275252   4.944   4.463   0.787 -0.3481 -1.1679 -0.4761
17921TIP3   OH275253   1.771   3.908   1.200  0.2596  0.3115  0.2459
17921TIP3    H175254   1.796   3.865   1.282 -1.1026 -0.3575  0.3401
17921TIP3    H275255   1.846   3.894   1.142  1.6208  1.5617  1.6267
17922TIP3   OH275256   2.738   1.066   5.283 -0.2199 -0.6851 -0.4435
17922TIP3    H175257   2.646   1.058   5.259 -0.4397 -0.8649  0.4041
17922TIP3    H275258   2.773   1.133   5.225 -0.3743 -2.0337 -2.1668
17923TIP3   OH275259   0.393   2.912   5.894 -0.2075 -0.5710  0.4728
17923TIP3    H175260   0.304   2.946   5.901 -0.3148 -1.0403  1.5764
17923TIP3    H275261   0.423   2.904   5.985  1.7801  1.6670  0.1139
17924TIP3   OH275262   5.319   6.172  14.592  0.2227 -0.1829 -0.0455
17924TIP3    H175263   5.231   6.207  14.609 -0.9388 -1.7687 -2.1973
17924TIP3    H275264   5.335   6.192  14.500  1.9926 -0.2627  0.2028
17925TIP3   OH275265   0.241   5.309  16.633  0.4889 -0.7246  0.0904
17925TIP3    H175266   0.267   5.336  16.721  1.1526 -0.2426 -0.2453
17925TIP3    H275267   0.323   5.287  16.589  0.0731 -2.0810 -0.0618
17926TIP3   OH275268   5.919   5.056  14.123 -0.0256  0.0567  0.1953
17926TIP3    H175269   5.976   5.097  14.058 -0.4703  1.5401  0.7168
17926TIP3    H275270   5.832   5.057  14.083  0.2418 -2.2832 -0.6369
17927TIP3   OH275271   1.243   1.146  11.775  0.3626  0.3338  0.4494
17927TIP3    H175272   1.307   1.125  11.843  0.7461 -0.1139 -0.0353
17927TIP3    H275273   1.294   1.144  11.694 -0.0719  0.9478  0.1594
17928TIP3   OH275274   3.118   3.814   1.981 -0.1602  0.6369  0.2803
17928TIP3    H175275   3.034   3.768   1.981  0.9543 -1.5361 -0.1162
17928TIP3    H275276   3.169   3.772   1.912  1.0532  2.3590  0.0472
17929TIP3   OH275277   2.391   3.216   4.878 -0.1131 -0.7356  0.5509
17929TIP3    H175278   2.422   3.134   4.917  0.4075 -0.4348  0.7880
17929TIP3    H275279   2.299   3.200   4.859  0.1311 -1.5823  0.0261
17930TIP3   OH275280   4.523   4.410   4.892  0.1394  0.1887  0.0239
17930TIP3    H175281   4.522   4.393   4.797  0.9060 -1.4461  0.2782
17930TIP3    H275282   4.467   4.486   4.903  0.7273  0.9621 -1.8596
17931TIP3   OH275283   1.150   0.283   3.651  0.1884 -0.1815  0.3290
17931TIP3    H175284   1.113   0.363   3.615  0.7358  0.3067  0.8272
17931TIP3    H275285   1.080   0.218   3.642  0.4690 -0.2545 -2.0946
17932TIP3   OH275286   2.133   2.279   5.583 -0.1521 -0.1267  0.1424
17932TIP3    H175287   2.060   2.325   5.625  0.1367  1.4426 -0.9827
17932TIP3    H275288   2.205   2.342   5.586  0.8017 -1.1850  0.1232
17933TIP3   OH275289   4.324   3.666  16.196  0.1514 -0.8681 -0.2904
17933TIP3    H175290   4.302   3.757  16.176  0.4434 -0.7388 -0.0413
17933TIP3    H275291   4.393   3.673  16.261 -0.9020 -1.2745  0.9052
17934TIP3   OH275292   0.086   1.618  17.015  0.1392 -0.0926 -0.3843
17934TIP3    H175293   0.175   1.631  16.983 -0.1098  0.3726 -0.9013
17934TIP3    H275294   0.061   1.532  16.981 -0.1035  0.3730 -1.4251
17935TIP3   OH275295   3.178   0.742   1.514  0.2212 -0.4881 -0.5708
17935TIP3    H175296   3.269   0.753   1.487  0.4746 -2.5849 -0.7085
17935TIP3    H275297   3.166   0.647   1.523 -1.7094 -0.2198  0.2924
17936TIP3   OH275298   1.715   5.415  12.592  0.0147 -0.2843  1.0461
17936TIP3    H175299   1.632   5.370  12.611 -0.3447 -0.2735 -0.3711
17936TIP3    H275300   1.708   5.498  12.639 -1.4679  0.3791 -0.2413
17937TIP3   OH275301   0.322   2.355  16.816  0.0275 -0.4477  0.3120
17937TIP3    H175302   0.413   2.355  16.843  0.5704 -0.6619 -1.3927
17937TIP3    H275303   0.273   2.372  16.896  1.5342 -0.7138  1.3283
17938TIP3   OH275304   5.551   0.209  11.763  0.3453  0.3780 -0.2553
17938TIP3    H175305   5.577   0.225  11.672 -2.4398 -0.8830 -1.4054
17938TIP3    H275306   5.577   0.119  11.780  2.9587  1.2924  1.1174
17939TIP3   OH275307   6.647   5.870  12.977 -0.1160  0.0998  0.0031
17939TIP3    H175308   6.637   5.861  12.882  1.4767  0.7961 -0.2693
17939TIP3    H275309   6.619   5.959  12.996 -1.5362 -0.4064  0.3902
17940TIP3   OH275310   5.833   2.361  14.537  0.0087  0.0504  0.1676
17940TIP3    H175311   5.872   2.428  14.593  1.7089 -1.1838  0.5326
17940TIP3    H275312   5.843   2.395  14.448 -0.8326  1.0880  0.4487
17941TIP3   OH275313   6.163   3.908  16.353  0.0346 -0.6034  0.4503
17941TIP3    H175314   6.076   3.896  16.315 -0.1203  0.0697  0.5785
17941TIP3    H275315   6.171   4.003  16.366  0.5371 -0.7169  1.0215
17942TIP3   OH275316   3.476   0.885  10.393  0.6580  0.5505 -0.6311
17942TIP3    H175317   3.545   0.823  10.416 -1.1779 -2.2127 -2.0090
17942TIP3    H275318   3.441   0.914  10.477  0.7633 -1.3311  0.1224
17943TIP3   OH275319   6.668   0.974  16.514 -0.4280 -0.4429  0.6984
17943TIP3    H175320   6.741   0.917  16.538 -0.7776 -1.6620 -0.8709
17943TIP3    H275321   6.677   0.984  16.419 -0.1617  2.5157  0.9601
17944TIP3   OH275322   5.519   0.991  14.589  0.2395 -0.3352  0.4309
17944TIP3    H175323   5.548   0.990  14.680  0.6711  1.0197  0.3359
17944TIP3    H275324   5.600   0.978  14.538  0.1126 -0.3483  0.2300
17945TIP3   OH275325   0.625   6.577  12.464 -0.1407  0.0773  0.1212
17945TIP3    H175326   0.532   6.577  12.442 -0.5143 -0.6410  1.5936
17945TIP3    H275327   0.635   6.653  12.523 -0.4397 -1.4942  2.3156
17946TIP3   OH275328   5.555   3.457  11.489  0.1709 -0.2515  0.6840
17946TIP3    H175329   5.591   3.525  11.546 -0.4922 -0.6934  1.6560
17946TIP3    H275330   5.477   3.426  11.535 -1.3348  0.4978 -1.2141
17947TIP3   OH275331   3.418   1.309  16.500  0.2010 -0.0574  0.1529
17947TIP3    H175332   3.387   1.219  16.492 -0.0072  0.0668 -0.4947
17947TIP3    H275333   3.418   1.326  16.594  1.8281 -1.2873  0.4253
17948TIP3   OH275334   4.486   4.546  15.436 -0.0597  0.0765 -0.7392
17948TIP3    H175335   4.544   4.479  15.472 -1.4417 -1.3581 -1.0896
17948TIP3    H275336   4.524   4.567  15.350  1.0970  0.7318 -0.1029
17949TIP3   OH275337   0.126   4.724   0.331 -0.6331 -0.2310 -0.0593
17949TIP3    H175338   0.122   4.752   0.423 -0.4470  0.0838 -0.1482
17949TIP3    H275339   0.038   4.742   0.298 -0.3140  0.9174 -0.3092
17950TIP3   OH275340   6.469   1.214   3.530  0.2657  0.0822  0.3733
17950TIP3    H175341   6.476   1.277   3.458  1.9860  0.4001  0.7712
17950TIP3    H275342   6.453   1.130   3.487  0.0680  0.4575 -0.3073
17951TIP3   OH275343   3.186   6.476  12.716  0.3394  0.4609  0.0438
17951TIP3    H175344   3.206   6.401  12.660 -0.2474  0.1181  0.2844
17951TIP3    H275345   3.114   6.520  12.672  1.0329  1.2058 -0.3782
17952TIP3   OH275346   3.479   1.690  16.265  0.1517 -0.0780 -0.1803
17952TIP3    H175347   3.515   1.714  16.180  0.3845  1.0500  0.2265
17952TIP3    H275348   3.384   1.704  16.255  0.0762 -0.7902 -0.5164
17953TIP3   OH275349   1.344   5.219   4.913  0.4531  0.5532 -0.0566
17953TIP3    H175350   1.423   5.269   4.931  0.2100  0.3789  1.5954
17953TIP3    H275351   1.278   5.255   4.972  0.1637 -1.4088  0.9247
17954TIP3   OH275352   4.652   4.780   3.919  0.1599  0.2956  0.5073
17954TIP3    H175353   4.642   4.852   3.856  2.7717  1.0728  0.8679
17954TIP3    H275354   4.590   4.800   3.989  1.6080  2.9100  1.1569
17955TIP3   OH275355   2.217   6.188   3.411 -0.1834 -0.0539  0.0124
17955TIP3    H175356   2.125   6.213   3.401 -0.5670 -0.1573  2.5623
17955TIP3    H275357   2.239   6.143   3.329 -1.9181  1.3070 -1.2824
17956TIP3   OH275358   0.353   5.224   4.647 -0.6752 -0.4512 -0.4259
17956TIP3    H175359   0.445   5.237   4.627 -0.4793  0.9073  1.1660
17956TIP3    H275360   0.346   5.241   4.741 -3.0309  2.6972 -0.9838
17957TIP3   OH275361   5.446   1.229  12.487  0.2440  0.0253  0.3912
17957TIP3    H175362   5.475   1.319  12.504 -0.0226  0.8229 -2.7840
17957TIP3    H275363   5.379   1.213  12.554 -1.9971  3.4216 -0.7601
17958TIP3   OH275364   1.138   3.634  17.044  0.3427 -0.0372 -0.0275
17958TIP3    H175365   1.170   3.568  16.983  1.3653  0.3576  0.0612
17958TIP3    H275366   1.217   3.669  17.085 -0.1381  1.4422 -0.2985
17959TIP3   OH275367   2.461   6.695   4.138  0.0897  0.3780  0.0613
17959TIP3    H175368   2.520   6.705   4.212  0.5254  0.0975 -0.2479
17959TIP3    H275369   2.507   6.638   4.077 -0.5929 -0.0319 -0.0827
17960TIP3   OH275370   2.643   4.505  12.993  0.2973 -0.1940  0.0915
17960TIP3    H175371   2.634   4.589  13.036 -0.3912  0.6705 -1.6409
17960TIP3    H275372   2.598   4.443  13.050 -1.7839  1.1310 -0.0385
17961TIP3   OH275373   1.145   3.120  14.141  0.6470  0.2821  0.0518
17961TIP3    H175374   1.154   3.155  14.052 -1.3466  3.2714  0.8490
17961TIP3    H275375   1.228   3.142  14.184  1.1138  0.0098 -0.6886
17962TIP3   OH275376   5.754   3.909  12.170 -1.1328 -0.4063  0.2070
17962TIP3    H175377   5.690   3.886  12.238 -1.1679  0.8148  0.6082
17962TIP3    H275378   5.769   4.003  12.182  1.0806 -0.7421  0.3930
17963TIP3   OH275379   2.451   5.031  12.826 -0.4349  0.2269  0.1554
17963TIP3    H175380   2.371   4.993  12.788  0.2782 -0.0677 -1.0757
17963TIP3    H275381   2.462   5.114  12.780 -1.0063  1.1451  1.6039
17964TIP3   OH275382   1.100   3.851   2.808 -0.1386  0.4990 -0.1219
17964TIP3    H175383   1.129   3.788   2.875 -1.9256 -1.9155 -1.4285
17964TIP3    H275384   1.036   3.905   2.853 -0.2710 -0.1462  0.4932
17965TIP3   OH275385   3.602   3.999  12.194  0.4197 -0.2343 -0.0034
17965TIP3    H175386   3.590   4.006  12.289  0.8298  1.4971 -0.0510
17965TIP3    H275387   3.691   4.029  12.179  0.2686 -0.2540 -0.9631
17966TIP3   OH275388   1.768   5.187  13.870  0.4402 -0.0968  0.3286
17966TIP3    H175389   1.827   5.227  13.806  0.6231  2.1325  1.7806
17966TIP3    H275390   1.716   5.260  13.904 -2.7764 -1.8632 -0.4153
17967TIP3   OH275391   0.582   0.004   5.253 -0.0654 -0.1257 -0.1286
17967TIP3    H175392   0.566  -0.055   5.179 -0.9566  0.4357 -0.4009
17967TIP3    H275393   0.500   0.002   5.303  0.7408 -0.9892  1.2118
17968TIP3   OH275394   2.455   0.160  14.809  0.0497  0.2233  0.0849
17968TIP3    H175395   2.431   0.068  14.798 -0.6782 -0.1126  3.3054
17968TIP3    H275396   2.372   0.206  14.813  0.3799  0.8887 -0.5435
17969TIP3   OH275397   2.084   0.056   0.740  0.6552 -0.3730 -0.1911
17969TIP3    H175398   2.046  -0.006   0.802  1.0233 -0.4326 -0.0244
17969TIP3    H275399   2.164   0.014   0.709  0.5213 -0.3039 -0.6393
17970TIP3   OH275400   5.842   0.606   1.987 -0.0182 -0.0276 -0.2314
17970TIP3    H175401   5.816   0.698   1.976  2.1206  0.7554  0.7417
17970TIP3    H275402   5.923   0.598   1.936  1.5135 -0.5003  2.1164
17971TIP3   OH275403   0.019   5.440  14.510  0.6434  0.1184 -0.4749
17971TIP3    H175404  -0.003   5.348  14.523 -0.1000  0.3055 -0.3558
17971TIP3    H275405  -0.066   5.485  14.504  0.9932  0.8359 -0.2514
17972TIP3   OH275406   5.520   2.427   5.808 -0.1078 -0.2543 -0.7079
17972TIP3    H175407   5.551   2.431   5.717  0.5303 -2.8953 -0.7040
17972TIP3    H275408   5.426   2.407   5.800 -0.9516  3.0926 -0.6976
17973TIP3   OH275409   2.174   6.689  13.403  0.2609  0.5391 -0.4335
17973TIP3    H175410   2.216   6.751  13.462 -0.9561  0.0766  0.9910
17973TIP3    H275411   2.201   6.603  13.436  1.7007  0.2530 -2.2088
17974TIP3   OH275412   3.402   6.031  14.388  0.2164 -0.3873  0.6170
17974TIP3    H175413   3.434   5.943  14.369  0.6552  0.1310 -1.2642
17974TIP3    H275414   3.466   6.089  14.347 -1.7895  0.7308 -1.1126
17975TIP3   OH275415   4.082   2.945  11.689 -0.3543 -0.2314 -0.3151
17975TIP3    H175416   4.119   2.936  11.601  3.0827 -0.9534  1.0561
17975TIP3    H275417   4.084   2.856  11.725 -0.7215  0.2047  0.8403
17976TIP3   OH275418   5.684   1.513  14.031 -0.1672  0.4449  0.7103
17976TIP3    H175419   5.743   1.562  14.088 -1.0213  1.0304  1.1123
17976TIP3    H275420   5.598   1.521  14.073 -0.3728 -1.2463  0.6848
17977TIP3   OH275421   3.857   4.933   5.953  0.8050 -0.2471  0.2969
17977TIP3    H175422   3.908   4.942   6.033  1.3356  1.3821 -0.1907
17977TIP3    H275423   3.788   4.999   5.960 -0.1236 -1.1632  0.1093
17978TIP3   OH275424   1.177   5.627  13.317 -0.2985  0.1805  0.0272
17978TIP3    H175425   1.232   5.694  13.358  2.1333 -1.3660 -0.4350
17978TIP3    H275426   1.113   5.675  13.266  0.9295  2.1339  0.2475
17979TIP3   OH275427   0.771   6.383   0.078  0.1402  0.8258  0.0201
17979TIP3    H175428   0.782   6.288   0.066 -1.2948  0.4446  1.3541
17979TIP3    H275429   0.853   6.421   0.046  0.2483 -0.7463 -1.7179
17980TIP3   OH275430   3.816   0.283  13.402 -0.2875 -0.5553  0.4030
17980TIP3    H175431   3.860   0.205  13.366  0.4256 -0.1656  0.4184
17980TIP3    H275432   3.818   0.346  13.330  1.8047  0.4948  1.3056
17981TIP3   OH275433   3.609   2.278   1.340 -0.3892 -0.3749 -0.0264
17981TIP3    H175434   3.643   2.192   1.365  0.4071  0.2544  1.2061
17981TIP3    H275435   3.636   2.289   1.249  2.2383 -0.2062  0.6776
17982TIP3   OH275436   0.447   3.004  12.602 -0.6906  0.3736  0.1274
17982TIP3    H175437   0.454   2.964  12.689 -1.0208 -1.1878 -0.5149
17982TIP3    H275438   0.488   3.090  12.611  0.0667 -0.1065  1.6030
17983TIP3   OH275439   3.840   2.742   2.904  0.3238 -0.1588 -0.1425
17983TIP3    H175440   3.805   2.805   2.968 -1.7804 -1.5492  0.1783
17983TIP3    H275441   3.921   2.710   2.943  0.7538  1.3481  0.2898
17984TIP3   OH275442   0.375   5.695  14.869 -0.0373  0.1003  0.5290
17984TIP3    H175443   0.452   5.638  14.866  1.3344  1.8627  0.1049
17984TIP3    H275444   0.364   5.725  14.779 -1.7528 -0.7418  0.4305
17985TIP3   OH275445   0.876   3.455  13.544 -0.2546  0.4699  0.2273
17985TIP3    H175446   0.906   3.468  13.634  0.6485 -1.2891  0.2311
17985TIP3    H275447   0.915   3.527  13.495  1.1595  0.1857  0.8771
17986TIP3   OH275448   4.887   4.297  15.815  0.9803 -0.3177  0.1626
17986TIP3    H175449   4.925   4.328  15.897 -0.1713 -1.0679  0.9933
17986TIP3    H275450   4.866   4.378  15.767 -2.1003  0.3235  2.3520
17987TIP3   OH275451   4.112   2.946   1.411  0.0907  0.2557  0.5032
17987TIP3    H175452   4.093   2.937   1.504  0.3036 -1.5033  0.4130
17987TIP3    H275453   4.038   2.903   1.367 -0.4215  1.7672 -0.2025
17988TIP3   OH275454   1.777   1.676   3.356 -0.1728  0.3777  0.6603
17988TIP3    H175455   1.697   1.631   3.383  0.4621 -0.9914  0.3334
17988TIP3    H275456   1.796   1.736   3.428 -1.6004  0.9039  0.6382
17989TIP3   OH275457   0.414   2.781  16.146 -0.0745 -0.3154 -0.1900
17989TIP3    H175458   0.495   2.770  16.196 -0.0945 -1.8379 -0.4303
17989TIP3    H275459   0.373   2.694  16.148 -0.6790 -0.1054 -1.8030
17990TIP3   OH275460   4.697   1.101  16.460 -0.3630 -0.3161 -0.6780
17990TIP3    H175461   4.691   1.131  16.369 -1.3740  0.7490 -0.2997
17990TIP3    H275462   4.660   1.174  16.511  1.7500 -0.1619  0.7473
17991TIP3   OH275463   0.874   4.626   1.435 -0.1116 -0.0857  0.5751
17991TIP3    H175464   0.885   4.593   1.346  0.4715  0.9834  0.2405
17991TIP3    H275465   0.788   4.593   1.462 -0.3392 -0.3330 -0.4171
17992TIP3   OH275466   5.939   2.971   1.712 -0.1199 -0.3610  0.0404
17992TIP3    H175467   5.940   2.896   1.653  0.2467 -2.7804  2.8927
17992TIP3    H275468   6.031   2.996   1.721 -0.3668  1.9405 -2.4737
17993TIP3   OH275469   4.863   5.613   0.534  0.5021  0.0024  0.0261
17993TIP3    H175470   4.780   5.618   0.582 -0.2243  0.6459 -1.2491
17993TIP3    H275471   4.845   5.553   0.461  1.6653 -1.1709  0.6581
17994TIP3   OH275472   4.914   2.015  14.567 -0.2749  0.1816  0.0625
17994TIP3    H175473   4.998   2.010  14.522 -0.1493  0.8550  0.2269
17994TIP3    H275474   4.923   1.957  14.643  0.4113  1.0705  0.6764
17995TIP3   OH275475   0.696   2.929   3.149  0.5356 -0.2651  0.3950
17995TIP3    H175476   0.612   2.882   3.147  0.6740 -0.6587  1.9782
17995TIP3    H275477   0.674   3.018   3.123 -0.6167 -0.0911  1.8040
17996TIP3   OH275478   1.649   0.750   5.682 -0.1750  0.4777  0.3673
17996TIP3    H175479   1.667   0.688   5.612 -1.2484 -0.9893  1.3331
17996TIP3    H275480   1.632   0.833   5.637  1.5462  0.1821 -0.9357
17997TIP3   OH275481   4.028   1.713  12.883 -0.0783 -0.0257  0.3423
17997TIP3    H175482   4.055   1.770  12.811 -0.1600  1.9928  1.8336
17997TIP3    H275483   4.105   1.703  12.937 -0.6724  0.6227  1.3333
17998TIP3   OH275484   1.924   3.357  11.588  0.3729 -0.3527 -0.0160
17998TIP3    H175485   1.924   3.340  11.494 -1.7421  2.7323 -0.7115
17998TIP3    H275486   1.973   3.439  11.598  1.4743 -1.1583  1.7555
17999TIP3   OH275487   3.118   3.552  11.254 -0.1546 -0.3690 -0.2718
17999TIP3    H175488   3.189   3.598  11.210 -0.5154  1.2018  0.7144
17999TIP3    H275489   3.124   3.462  11.221  1.4112  0.0471 -1.2425
18000TIP3   OH275490   6.702   0.811   1.203 -0.5231 -0.8371  0.2599
18000TIP3    H175491   6.664   0.875   1.143 -0.1633 -0.3506  0.5437
18000TIP3    H275492   6.636   0.741   1.209 -1.8755  0.4746  1.5441
18001TIP3   OH275493   0.185   2.962  11.736  1.0665 -0.2278  0.9232
18001TIP3    H175494   0.228   2.901  11.676  0.0112  0.8168 -0.9847
18001TIP3    H275495   0.147   2.906  11.803 -1.1214 -1.9236 -1.5424
18002TIP3   OH275496   5.080   3.274  15.762  0.2606 -0.6427  0.1464
18002TIP3    H175497   5.175   3.267  15.764  0.3985  0.8446  0.2036
18002TIP3    H275498   5.062   3.349  15.705 -0.9951 -2.1900 -1.6386
18003TIP3   OH275499   3.089   0.289   3.384 -0.4815  0.0723 -0.9437
18003TIP3    H175500   3.166   0.238   3.360  0.6498  0.3752  1.7559
18003TIP3    H275501   3.021   0.224   3.401  0.4202 -0.4773  0.6984
18004TIP3   OH275502   5.607   5.661  16.150 -0.4412 -0.3556 -0.1218
18004TIP3    H175503   5.567   5.703  16.227  0.5015  0.2108  0.0743
18004TIP3    H275504   5.565   5.703  16.075  1.7175  2.3636  0.0086
18005TIP3   OH275505   2.136   5.971   3.558 -0.1032  0.1587  0.6708
18005TIP3    H175506   2.168   5.889   3.522 -1.1576 -0.6463  1.5069
18005TIP3    H275507   2.174   6.039   3.502  0.1001 -0.9326 -0.5472
18006TIP3   OH275508   0.716   2.219   1.001  0.1609 -0.3085 -0.2742
18006TIP3    H175509   0.696   2.311   0.982 -0.1372 -0.4299 -0.5648
18006TIP3    H275510   0.811   2.217   1.009  0.0770  0.2871  1.1614
18007TIP3   OH275511   0.171   1.447   3.523  0.0603 -0.0748 -0.7276
18007TIP3    H175512   0.177   1.366   3.573 -0.5103  1.0027  1.2018
18007TIP3    H275513   0.139   1.512   3.586 -0.6695  1.3912 -2.4961
18008TIP3   OH275514   6.007   1.213   3.194 -0.4014 -0.7040 -0.0899
18008TIP3    H175515   6.075   1.155   3.159  2.2567  2.4559 -0.6368
18008TIP3    H275516   6.051   1.265   3.261 -2.4346  1.1109 -0.0232
18009TIP3   OH275517   6.298   0.635  10.911 -0.1436  0.0608  0.4337
18009TIP3    H175518   6.254   0.556  10.879 -0.0671  0.2994 -0.2814
18009TIP3    H275519   6.228   0.700  10.918 -0.1930 -0.0439  0.9474
18010TIP3   OH275520   1.461   2.463   5.303 -0.1632  0.5076  0.7589
18010TIP3    H175521   1.396   2.530   5.325 -0.5058  0.6393 -0.5703
18010TIP3    H275522   1.462   2.405   5.379 -1.6002  0.6946  0.9555
18011TIP3   OH275523   2.772   3.940   3.675 -0.2858  0.4663  0.0784
18011TIP3    H175524   2.762   3.906   3.586  0.1657  0.2654  0.1012
18011TIP3    H275525   2.831   3.878   3.718 -1.6573 -0.2671  0.9776
18012TIP3   OH275526   2.586   2.267  13.391 -0.4499  0.2115  0.6977
18012TIP3    H175527   2.496   2.296  13.375 -0.9308 -1.2719  0.5784
18012TIP3    H275528   2.633   2.348  13.412 -1.4701  1.2280 -0.6877
18013TIP3   OH275529   4.898   5.662   2.864 -0.6571  0.3174 -0.9571
18013TIP3    H175530   4.904   5.752   2.832 -2.1380  0.1642 -1.7345
18013TIP3    H275531   4.830   5.622   2.810 -2.3829 -0.3483  1.5493
18014TIP3   OH275532   4.349   1.446  11.318  0.3156 -0.3868  0.0933
18014TIP3    H175533   4.364   1.385  11.246 -1.3676 -0.6885 -0.0372
18014TIP3    H275534   4.291   1.399  11.378  1.9800 -0.2895  1.8706
18015TIP3   OH275535   2.544   5.106   1.207  0.1108 -0.4619  0.2511
18015TIP3    H175536   2.593   5.074   1.282  1.5439 -0.5221 -0.6715
18015TIP3    H275537   2.505   5.189   1.237  3.2926  1.2077  0.1896
18016TIP3   OH275538   5.270   5.793  13.180  0.0292 -0.1108 -0.0390
18016TIP3    H175539   5.180   5.761  13.171 -0.8401  2.1336  0.0378
18016TIP3    H275540   5.270   5.837  13.265  1.7151 -1.5252  0.7389
18017TIP3   OH275541   1.628   0.203  12.330  0.2126  0.2688 -0.0943
18017TIP3    H175542   1.643   0.244  12.415 -0.7612  1.0376 -0.2721
18017TIP3    H275543   1.632   0.275  12.267  2.3848 -0.5067 -0.9068
18018TIP3   OH275544   0.909   4.354  11.705  0.4424 -0.3943 -0.2943
18018TIP3    H175545   0.873   4.435  11.669 -3.0923 -1.6050  0.1951
18018TIP3    H275546   0.924   4.373  11.798  0.7465  0.0027 -0.4203
18019TIP3   OH275547   1.128   1.962   3.939 -0.5024  0.1802 -0.1828
18019TIP3    H175548   1.091   1.876   3.960  0.2668 -0.2904 -0.6703
18019TIP3    H275549   1.190   1.979   4.010 -0.3347  0.1293 -0.3168
18020TIP3   OH275550   1.352   4.099   4.374 -0.0898  0.8298  0.1608
18020TIP3    H175551   1.443   4.069   4.371 -0.4998 -0.9588  2.4898
18020TIP3    H275552   1.346   4.149   4.455 -1.2799  0.5203  0.2857
18021TIP3   OH275553   1.104   5.692   0.263  0.6047 -0.0353 -0.5473
18021TIP3    H175554   1.028   5.659   0.215  1.1280 -1.6030 -0.3482
18021TIP3    H275555   1.069   5.719   0.348  0.2389 -0.6288 -0.5013
18022TIP3   OH275556   3.996   4.885   5.200  0.0298 -0.4724 -0.0409
18022TIP3    H175557   3.900   4.887   5.201 -0.0181  2.4022 -0.7931
18022TIP3    H275558   4.020   4.857   5.288 -1.4296 -2.5817 -0.2249
18023TIP3   OH275559   2.785   2.128  12.413 -0.2498  0.6188 -0.2879
18023TIP3    H175560   2.742   2.105  12.495  1.2912 -1.0963  0.1153
18023TIP3    H275561   2.872   2.087  12.419  0.1269  0.9422 -2.5251
18024TIP3   OH275562   4.246   5.660   3.962  0.4117  0.5289 -0.0685
18024TIP3    H175563   4.255   5.755   3.958  0.6070  0.4693 -1.2112
18024TIP3    H275564   4.173   5.645   4.022  0.5436  1.3825  0.3182
18025TIP3   OH275565   2.080   6.774   5.601  0.2640 -0.1580 -0.4429
18025TIP3    H175566   2.003   6.818   5.564  0.3692  0.4548  0.0407
18025TIP3    H275567   2.073   6.792   5.695  1.3920  0.5337 -0.4802
18026TIP3   OH275568   1.924   0.735  15.396  0.6166 -0.6837  0.3113
18026TIP3    H175569   1.900   0.727  15.488 -2.1061 -0.1954 -0.2480
18026TIP3    H275570   2.019   0.740  15.396  0.6705  0.0054  3.1359
18027TIP3   OH275571   1.083   5.218  14.057  0.0855  0.2674 -0.5418
18027TIP3    H175572   1.029   5.186  13.984 -1.7122  0.1815  0.7566
18027TIP3    H275573   1.025   5.212  14.133  2.0578 -0.0999  0.9962
18028TIP3   OH275574   6.492   6.350  14.545 -0.3394 -0.4454 -0.1404
18028TIP3    H175575   6.538   6.286  14.491 -0.7867 -0.5059 -0.4530
18028TIP3    H275576   6.527   6.434  14.517 -0.7581 -0.4551 -0.7251
18029TIP3   OH275577   5.785   2.500  11.712  0.1596  0.1448  0.4699
18029TIP3    H175578   5.792   2.592  11.736 -1.6521  0.1620  1.0895
18029TIP3    H275579   5.701   2.493  11.667 -0.9338 -1.5837  2.5794
18030TIP3   OH275580   2.412   1.594  12.910  0.3747  0.2036 -0.8449
18030TIP3    H175581   2.411   1.628  13.000  1.5508  0.5749 -0.9515
18030TIP3    H275582   2.451   1.665  12.858  1.3194 -0.6551 -1.3508
18031TIP3   OH275583   6.350   5.144  15.465 -0.5413 -0.0477 -0.1247
18031TIP3    H175584   6.353   5.164  15.559 -1.3625 -0.6288  0.0376
18031TIP3    H275585   6.287   5.205  15.429 -0.3016  0.1070 -0.2802
18032TIP3   OH275586   3.608   1.717   3.951 -0.0171 -0.1374 -0.8138
18032TIP3    H175587   3.546   1.694   4.020  0.5126 -0.1900 -0.3572
18032TIP3    H275588   3.637   1.805   3.971 -2.4863  1.2991 -2.8878
18033TIP3   OH275589   1.841   1.080   1.548 -0.5523 -0.3382  0.4110
18033TIP3    H175590   1.898   1.004   1.538 -0.8405 -0.4639 -0.3163
18033TIP3    H275591   1.897   1.146   1.589  0.7771  0.2588 -2.1579
18034TIP3   OH275592   1.120   1.497   5.947  0.0442 -0.9044  0.5981
18034TIP3    H175593   1.078   1.582   5.938  0.6359 -0.7233 -0.6346
18034TIP3    H275594   1.110   1.475   6.040  1.4399  1.3279  1.3389
18035TIP3   OH275595   2.005   2.786  13.288 -0.6707  0.1438 -0.3265
18035TIP3    H175596   1.942   2.856  13.307 -0.0634  0.4480  0.6339
18035TIP3    H275597   1.971   2.710  13.334  0.6303  0.7979  1.8174
18036TIP3   OH275598   1.064   0.617  15.892 -0.9225  0.1071 -0.6377
18036TIP3    H175599   1.046   0.603  15.799 -0.3841 -0.9515 -0.5932
18036TIP3    H275600   1.153   0.653  15.893 -1.3724  1.2856 -0.5868
18037TIP3   OH275601   1.051   5.842  10.692 -0.0976 -0.1312 -0.4253
18037TIP3    H175602   0.956   5.831  10.698 -0.2154 -0.5166 -2.3985
18037TIP3    H275603   1.085   5.753  10.697  0.0768 -0.0886 -0.8773
18038TIP3   OH275604   4.524   4.051   5.801 -0.2934  0.0778 -0.3337
18038TIP3    H175605   4.586   4.123   5.793  1.1489 -1.1028 -0.1452
18038TIP3    H275606   4.457   4.070   5.735  1.6149  0.0763 -2.3496
18039TIP3   OH275607   0.421   5.270   2.486  0.1241 -0.0223 -0.4785
18039TIP3    H175608   0.436   5.177   2.500  0.3027  0.2130  1.0383
18039TIP3    H275609   0.387   5.276   2.396 -0.8809 -1.6393 -0.2377
18040TIP3   OH275610   5.129   5.052   4.085  0.6700  0.1429  0.3611
18040TIP3    H175611   5.045   5.025   4.047 -0.3278  0.6670  2.1267
18040TIP3    H275612   5.112   5.136   4.126  2.2979  0.6867  0.0049
18041TIP3   OH275613   0.244   1.605  16.113 -0.1848  0.0373 -0.0666
18041TIP3    H175614   0.153   1.630  16.096  0.2351  1.8210  0.0426
18041TIP3    H275615   0.275   1.567  16.031 -0.4955  1.1561 -0.7238
18042TIP3   OH275616   1.122   6.403  13.666 -0.9158  0.2270 -0.1960
18042TIP3    H175617   1.145   6.334  13.729 -0.5075 -0.6274 -1.2320
18042TIP3    H275618   1.055   6.362  13.611 -1.2511  0.9537 -0.3281
18043TIP3   OH275619   6.233   5.922   4.705  0.7871  0.4007  0.2757
18043TIP3    H175620   6.308   5.977   4.730  0.6354  1.6401 -1.7783
18043TIP3    H275621   6.200   5.962   4.625 -1.4731 -0.7362  0.5711
18044TIP3   OH275622   1.585   5.334  13.458  0.1853  0.0250 -0.1043
18044TIP3    H175623   1.557   5.424  13.442  0.6382  0.3554  0.8855
18044TIP3    H275624   1.593   5.328  13.553  0.6827 -0.9072 -0.1973
18045TIP3   OH275625   4.007   0.852   1.715 -0.6441  0.2434 -0.8030
18045TIP3    H175626   3.968   0.771   1.683 -2.5456  0.5293  0.6255
18045TIP3    H275627   4.062   0.825   1.788  0.2633  0.0649 -1.5326
18046TIP3   OH275628   5.434   3.644   4.484  0.2172 -0.2904  0.4253
18046TIP3    H175629   5.431   3.588   4.562 -0.5666  0.1129  0.6926
18046TIP3    H275630   5.370   3.713   4.502  1.2607  0.7701  0.1530
18047TIP3   OH275631   3.905   4.362  13.832 -0.0830  0.1586  0.2469
18047TIP3    H175632   3.918   4.322  13.918  1.6191  0.4901  0.1711
18047TIP3    H275633   3.828   4.418  13.842 -1.0293 -1.2459  1.0196
18048TIP3   OH275634   1.436   0.883  11.853 -0.0320 -0.4143  0.4557
18048TIP3    H175635   1.367   0.886  11.919  0.5928 -2.8249  1.3366
18048TIP3    H275636   1.509   0.931  11.893 -0.7485  1.0515  0.0482
18049TIP3   OH275637   1.488   4.743  11.844 -0.5347 -0.7350  0.3205
18049TIP3    H175638   1.498   4.651  11.821 -0.9248 -0.8615  0.6454
18049TIP3    H275639   1.436   4.742  11.924  0.1403 -0.2718  0.7790
18050TIP3   OH275640   1.650   3.096   3.080  0.0229  0.3904 -0.3607
18050TIP3    H175641   1.711   3.065   3.147  0.4813 -1.2323 -1.4831
18050TIP3    H275642   1.648   3.026   3.015 -0.3649  1.9440 -2.0905
18051TIP3   OH275643   6.742   1.313   4.498 -0.0768 -0.0120 -0.1323
18051TIP3    H175644   6.704   1.367   4.567 -1.5464 -0.4804 -0.5449
18051TIP3    H275645   6.762   1.229   4.541  0.1266  0.0980 -0.0095
18052TIP3   OH275646   5.560   3.684  10.953 -0.4314 -0.3699  0.8814
18052TIP3    H175647   5.491   3.736  10.911 -0.4569 -1.6248 -0.7144
18052TIP3    H275648   5.628   3.748  10.973 -0.3032  0.2911 -1.3565
18053TIP3   OH275649   6.198   5.362  14.935 -0.1445 -0.1329 -0.0374
18053TIP3    H175650   6.125   5.418  14.909 -0.3908 -0.4634 -0.0685
18053TIP3    H275651   6.189   5.284  14.879  0.1744 -0.2137  0.0250
18054TIP3   OH275652   1.054   2.604   3.445 -0.3653  0.1020 -0.4739
18054TIP3    H175653   1.099   2.648   3.516 -1.9714 -0.6449  1.0762
18054TIP3    H275654   0.998   2.672   3.406 -1.4570 -0.0686  0.7235
18055TIP3   OH275655   4.344   1.019  14.743 -0.2135  0.0950  0.3596
18055TIP3    H175656   4.267   1.025  14.799 -0.5387  0.5879 -0.1417
18055TIP3    H275657   4.352   0.925  14.723 -2.4503  0.3056 -2.0213
18056TIP3   OH275658   5.004   4.973   3.720 -0.0633  0.0127 -0.6895
18056TIP3    H175659   5.065   4.959   3.648  1.2436 -3.4570  0.8860
18056TIP3    H275660   4.937   4.906   3.709 -0.2425 -0.1070  0.8591
18057TIP3   OH275661   2.750   0.697   2.868  0.2820  0.4503 -0.9571
18057TIP3    H175662   2.798   0.777   2.847  0.5823  1.0563  1.6608
18057TIP3    H275663   2.770   0.681   2.960 -0.9308 -1.8586 -1.0310
18058TIP3   OH275664   1.926   5.203   6.069 -0.2781  1.1933  0.0380
18058TIP3    H175665   1.842   5.241   6.096  0.4302  1.8947  1.3298
18058TIP3    H275666   1.954   5.150   6.143  0.0103  0.2364 -0.7370
18059TIP3   OH275667   2.342   4.422  14.724  0.2302  0.2752 -0.3646
18059TIP3    H175668   2.297   4.506  14.728  0.5538  0.4452 -0.2976
18059TIP3    H275669   2.433   4.442  14.747  0.1919 -0.1753  0.2085
18060TIP3   OH275670   3.965   4.097  16.827  0.1387  0.0072  0.1646
18060TIP3    H175671   3.881   4.081  16.869  0.1621  1.4768  0.8275
18060TIP3    H275672   3.944   4.149  16.749  0.2529 -1.3937 -0.8440
18061TIP3   OH275673   5.488   3.137   5.074  0.2630 -0.6401 -0.1009
18061TIP3    H175674   5.436   3.190   5.134 -1.7330 -1.5629 -0.9206
18061TIP3    H275675   5.572   3.125   5.118 -1.1046 -1.2606  2.4742
18062TIP3   OH275676   3.157   5.414  10.667  0.3214  0.0986 -0.1887
18062TIP3    H175677   3.075   5.459  10.642  0.8861  1.8287  0.8869
18062TIP3    H275678   3.131   5.323  10.680 -0.8768  0.0218 -2.5415
18063TIP3   OH275679   5.053   1.983  11.891  0.1518 -0.0889  0.3110
18063TIP3    H175680   5.140   2.022  11.882 -0.4094  1.7586  1.9802
18063TIP3    H275681   5.060   1.925  11.967 -0.3220  1.0201  1.2379
18064TIP3   OH275682   3.771   4.645  13.341 -0.4621 -1.0591  0.3821
18064TIP3    H175683   3.779   4.646  13.436  1.4613  1.6026  0.2981
18064TIP3    H275684   3.766   4.737  13.316  0.3740 -1.6329 -2.1833
18065TIP3   OH275685   2.276   3.939   5.653 -0.2283  0.2841  0.0490
18065TIP3    H175686   2.309   4.022   5.618 -1.7213  0.9645  0.1563
18065TIP3    H275687   2.205   3.965   5.713 -0.2405 -1.0395  0.6415
18066TIP3   OH275688   4.487   3.247   3.670 -0.0767  0.5257 -0.1009
18066TIP3    H175689   4.536   3.245   3.752 -1.1129 -0.1089  0.5255
18066TIP3    H275690   4.548   3.285   3.607  1.0159  0.2863  0.7732
18067TIP3   OH275691   3.723   2.797  16.296  0.2835 -0.2597 -0.0944
18067TIP3    H175692   3.723   2.890  16.317 -0.3700 -0.4823  1.0057
18067TIP3    H275693   3.639   2.782  16.253 -1.4372 -0.9745  3.1464
18068TIP3   OH275694   0.293   1.094  13.290  0.3607 -0.4566 -0.0837
18068TIP3    H175695   0.294   1.104  13.385 -1.0384 -2.5496  0.2110
18068TIP3    H275696   0.384   1.076  13.266  0.7652  0.3441  0.8038
18069TIP3   OH275697   4.594   0.289   6.225 -0.0564 -0.1548 -0.3472
18069TIP3    H175698   4.663   0.300   6.291  1.1175 -0.4887 -1.4745
18069TIP3    H275699   4.550   0.208   6.250 -0.8309  0.6443  1.0385
18070TIP3   OH275700   0.130   0.915  16.919  0.0568  0.3677 -0.0142
18070TIP3    H175701   0.183   0.852  16.968  0.3510  0.0779 -0.6874
18070TIP3    H275702   0.191   0.984  16.894  0.1064  0.0858 -0.7025
18071TIP3   OH275703   0.211   1.058   3.082 -0.2886 -0.2303 -0.0094
18071TIP3    H175704   0.215   1.136   3.027  0.2576  1.1631  1.8706
18071TIP3    H275705   0.294   1.012   3.066 -0.6021 -0.4271 -1.1063
18072TIP3   OH275706   4.988   3.931  13.446  0.1752 -0.2023  0.2412
18072TIP3    H175707   5.059   3.990  13.419 -0.3858  0.0266 -0.7700
18072TIP3    H275708   4.980   3.946  13.541  0.7261  0.5976  0.1766
18073TIP3   OH275709   4.742   2.310  16.527 -0.4072 -0.0042  0.2434
18073TIP3    H175710   4.779   2.391  16.562 -0.4585  1.0274 -1.9728
18073TIP3    H275711   4.818   2.255  16.507 -0.3072  0.1158  0.2922
18074TIP3   OH275712   2.162   2.913   5.580 -0.2184 -0.4058 -0.2319
18074TIP3    H175713   2.191   2.990   5.630  0.1858 -1.5333  1.3384
18074TIP3    H275714   2.115   2.950   5.505 -0.1115  1.3704  0.5261
18075TIP3   OH275715   6.488   0.387   2.097  0.3475 -0.1211 -0.4004
18075TIP3    H175716   6.484   0.478   2.127  1.0475 -0.1748 -0.1215
18075TIP3    H275717   6.581   0.364   2.104  0.2368 -0.7208 -0.8791
18076TIP3   OH275718   4.362   0.237   3.902 -0.4998  0.0051 -0.3124
18076TIP3    H175719   4.329   0.189   3.978 -0.2582 -2.0810 -1.4623
18076TIP3    H275720   4.293   0.230   3.836 -0.6668  1.7096 -0.3772
18077TIP3   OH275721   2.836   6.594  11.560  0.2776 -0.2890 -0.3155
18077TIP3    H175722   2.845   6.686  11.538  3.2051 -0.8819 -2.1872
18077TIP3    H275723   2.753   6.568  11.519 -0.3088  1.3384 -0.2315
18078TIP3   OH275724   2.567   3.235  16.405 -0.0772  0.0871 -0.4155
18078TIP3    H175725   2.513   3.160  16.430  0.1272  0.1231  0.1730
18078TIP3    H275726   2.508   3.293  16.357 -0.6197  0.1993  0.3513
18079TIP3   OH275727   6.575   3.327   0.781  0.3249  0.6885 -0.2112
18079TIP3    H175728   6.519   3.366   0.848  1.2334  0.3408  0.7753
18079TIP3    H275729   6.661   3.320   0.822  0.4516 -1.3584 -0.7241
18080TIP3   OH275730   1.172   0.053  15.519 -0.4244 -0.0042  0.3559
18080TIP3    H175731   1.136   0.060  15.430 -0.0179  0.3767  0.2205
18080TIP3    H275732   1.108  -0.000  15.566 -0.6074 -0.2735 -0.1852
18081TIP3   OH275733   5.535   2.237   5.262  0.0418 -0.1191  0.5171
18081TIP3    H175734   5.606   2.172   5.256  1.5363  1.2912  1.9210
18081TIP3    H275735   5.475   2.213   5.192  2.5388 -0.6472 -1.6042
18082TIP3   OH275736   3.636   6.791  15.999 -0.2982 -0.1983  0.3853
18082TIP3    H175737   3.661   6.755  15.914  0.3893 -0.6646  0.7704
18082TIP3    H275738   3.719   6.817  16.039 -0.7775  4.9035 -1.1219
18083TIP3   OH275739   4.018   0.487  12.410  0.1128 -0.0688 -0.1226
18083TIP3    H175740   3.980   0.464  12.325 -2.1169 -1.8031  1.2547
18083TIP3    H275741   3.964   0.559  12.442  1.3821  1.0566 -0.4099
18084TIP3   OH275742   2.705   3.126  12.139 -0.9042  0.0094  0.3805
18084TIP3    H175743   2.800   3.114  12.137 -0.6783  1.6173  0.4361
18084TIP3    H275744   2.678   3.088  12.222  0.2604  2.8839  2.2334
18085TIP3   OH275745   0.424   5.051  16.854  0.8297  0.0063 -0.0873
18085TIP3    H175746   0.445   5.108  16.780  0.0808 -1.0910 -1.1707
18085TIP3    H275747   0.336   5.019  16.836  0.2381  0.4775  1.7848
18086TIP3   OH275748   2.987   1.036   2.212  0.4014 -0.0747 -0.1021
18086TIP3    H175749   2.995   1.127   2.239  0.7654 -0.3846  0.9182
18086TIP3    H275750   2.932   0.996   2.280 -0.9507 -0.3186 -1.3054
18087TIP3   OH275751   5.276   2.266  15.129  0.1714  0.5385 -0.0126
18087TIP3    H175752   5.212   2.205  15.165  0.2122  0.1896 -0.5129
18087TIP3    H275753   5.321   2.216  15.061  1.8392  0.3740  1.1620
18088TIP3   OH275754   4.522   2.588   4.308  0.1673 -0.4833  0.1461
18088TIP3    H175755   4.477   2.671   4.294 -1.2863 -1.2449  0.0832
18088TIP3    H275756   4.594   2.588   4.244 -1.5861 -0.5019 -1.9436
18089TIP3   OH275757   1.068   6.463  14.724 -0.1233 -0.7937 -0.1271
18089TIP3    H175758   1.003   6.508  14.779  0.2336  0.1206 -0.4386
18089TIP3    H275759   1.029   6.464  14.637  0.6762  0.5486 -0.4926
18090TIP3   OH275760   5.574   2.304  16.939  0.5369 -0.2065  0.7482
18090TIP3    H175761   5.553   2.219  16.979 -0.1915 -0.2175  0.3777
18090TIP3    H275762   5.576   2.365  17.012 -2.1401  0.0326  0.7293
18091TIP3   OH275763   0.833   4.923  16.630  0.3116  0.6029  0.0141
18091TIP3    H175764   0.841   4.871  16.550 -0.9703 -2.4297  1.7131
18091TIP3    H275765   0.844   5.013  16.600  0.0019 -0.3723 -3.5554
18092TIP3   OH275766   0.624   6.163   1.747  0.4708 -0.6931  0.5766
18092TIP3    H175767   0.641   6.104   1.820  1.3076 -0.8312  0.2803
18092TIP3    H275768   0.535   6.195   1.762 -0.2966 -2.5982  0.3350
18093TIP3   OH275769   4.742   1.400   0.577  0.2661  0.2852  0.0080
18093TIP3    H175770   4.716   1.454   0.502  1.6413  0.7986 -0.1366
18093TIP3    H275771   4.701   1.442   0.652 -0.7797  0.0164 -0.3963
18094TIP3   OH275772   3.289   3.557  16.569  0.8141  0.6352  0.3752
18094TIP3    H175773   3.257   3.547  16.479 -1.1298 -0.6727  1.1486
18094TIP3    H275774   3.358   3.491  16.577 -0.7420 -1.0368  0.5495
18095TIP3   OH275775   6.412   3.807   3.682  0.0049 -0.1116 -0.5121
18095TIP3    H175776   6.438   3.848   3.599 -0.6107 -0.7601 -1.0320
18095TIP3    H275777   6.492   3.767   3.715  0.1756 -0.1622 -0.9799
18096TIP3   OH275778   4.642   0.629   3.767 -0.0843  0.2132  0.4550
18096TIP3    H175779   4.704   0.701   3.752  1.9006 -1.4031  0.5628
18096TIP3    H275780   4.630   0.589   3.681  1.2568 -1.1727  0.8665
18097TIP3   OH275781   2.739   1.822  16.610  0.0382  0.4533  0.2673
18097TIP3    H175782   2.824   1.864  16.604 -0.9337  2.5943  0.5239
18097TIP3    H275783   2.758   1.734  16.642  2.2248  0.4726 -0.8121
18098TIP3   OH275784   5.534   4.746  15.912 -0.4606  0.5519  0.0913
18098TIP3    H175785   5.542   4.831  15.870  3.3309  0.2753 -0.1143
18098TIP3    H275786   5.520   4.685  15.840  0.1351  0.6906 -0.1493
18099TIP3   OH275787   4.651   3.274  12.305 -0.1379 -0.7578 -0.5452
18099TIP3    H175788   4.604   3.358  12.310 -0.7617 -1.1305  0.1903
18099TIP3    H275789   4.598   3.220  12.246  0.1483 -0.7058 -0.8504
18100TIP3   OH275790   4.770   6.435  11.354 -0.0332  0.5601 -0.2364
18100TIP3    H175791   4.726   6.513  11.390  0.9349  0.4726  1.2250
18100TIP3    H275792   4.826   6.405  11.425  0.6816 -0.6556 -1.2835
18101TIP3   OH275793   4.362   6.035   6.359  0.0314 -0.6696 -0.1309
18101TIP3    H175794   4.320   5.949   6.359 -1.9035  0.2235 -0.3049
18101TIP3    H275795   4.395   6.046   6.270 -1.8326 -0.2933 -0.8144
18102TIP3   OH275796   0.058   6.642   3.801 -0.2404 -0.6633  0.4452
18102TIP3    H175797   0.008   6.628   3.721 -0.8423  1.0051  0.5001
18102TIP3    H275798   0.140   6.595   3.787  0.3027  0.8187 -1.7905
18103TIP3   OH275799   6.333   1.725   0.315 -0.1569  0.0782  0.4651
18103TIP3    H175800   6.303   1.757   0.400 -1.3069 -1.5989  0.7299
18103TIP3    H275801   6.282   1.646   0.299  1.3008 -0.6466 -0.9613
18104TIP3   OH275802   0.516   4.818  13.481  0.7860 -0.4037 -0.2948
18104TIP3    H175803   0.603   4.800  13.446  1.3481 -0.7934  1.2300
18104TIP3    H275804   0.458   4.761  13.431  1.7782 -2.1496  0.4622
18105TIP3   OH275805   5.565   0.507  10.865 -0.0810 -0.0457 -0.1522
18105TIP3    H175806   5.522   0.590  10.844 -0.6214 -0.2566  0.1161
18105TIP3    H275807   5.520   0.475  10.943 -0.7249 -1.2040 -0.9710
18106TIP3   OH275808   2.480   2.198  14.226 -0.0025  0.3617 -0.6083
18106TIP3    H175809   2.385   2.199  14.220 -0.0885 -0.0136  0.3967
18106TIP3    H275810   2.504   2.107  14.211  0.1431  0.3373 -0.2403
18107TIP3   OH275811   0.418   2.029   3.168  0.1866  0.1539 -0.2731
18107TIP3    H175812   0.327   2.019   3.197 -0.0679 -0.3781 -1.2090
18107TIP3    H275813   0.411   2.066   3.080  0.8737  0.0646 -0.3709
18108TIP3   OH275814   5.375   0.251   5.757  0.4734 -0.0032  0.5560
18108TIP3    H175815   5.355   0.165   5.720 -1.6549  0.5077  0.3602
18108TIP3    H275816   5.416   0.299   5.685  2.5573 -1.0771  0.9389
18109TIP3   OH275817   6.068   3.705   0.929 -0.0699  0.1117  0.2090
18109TIP3    H175818   6.029   3.793   0.929  1.8489  1.0163  0.3361
18109TIP3    H275819   6.162   3.721   0.933  0.4239 -1.9218 -1.5277
18110TIP3   OH275820   0.619   3.331   0.020 -0.6854  0.2731 -0.3336
18110TIP3    H175821   0.541   3.305  -0.029 -0.4095  0.0468 -0.6563
18110TIP3    H275822   0.585   3.364   0.104 -1.2732  2.0150 -1.1995
18111TIP3   OH275823   1.866   3.871   4.915  0.5850  0.0585  0.3083
18111TIP3    H175824   1.814   3.794   4.894  0.2060  0.5586 -0.6485
18111TIP3    H275825   1.815   3.944   4.880  1.3689  0.6631  0.4080
18112TIP3   OH275826   6.060   5.941   4.249  0.4564 -0.7926  0.0309
18112TIP3    H175827   6.122   5.868   4.248  0.6084 -0.7427 -2.9929
18112TIP3    H275828   5.993   5.916   4.186  0.0911  1.3406 -0.4841
18113TIP3   OH275829   3.458   2.301   1.564  0.7843  0.0082 -0.3250
18113TIP3    H175830   3.366   2.303   1.537  0.4298  4.5001  0.4972
18113TIP3    H275831   3.506   2.289   1.482 -0.5088  1.8526 -1.4243
18114TIP3   OH275832   5.858   5.666  11.468  0.0615 -0.1011  0.5264
18114TIP3    H175833   5.937   5.704  11.430  0.8626 -0.4721  1.7692
18114TIP3    H275834   5.804   5.742  11.492  0.6784  0.2124  0.9644
18115TIP3   OH275835   4.473   2.860   5.937  0.1748  0.4347  0.2416
18115TIP3    H175836   4.411   2.850   5.864 -0.3162 -2.7851  0.9683
18115TIP3    H275837   4.558   2.869   5.895 -0.3116  0.5955 -0.7469
18116TIP3   OH275838   6.602   3.894   5.473 -0.2741  0.2112 -0.0449
18116TIP3    H175839   6.640   3.807   5.462 -1.1666 -0.1488 -0.3734
18116TIP3    H275840   6.676   3.954   5.462 -0.1540 -0.3277 -3.2525
18117TIP3   OH275841   0.602   4.373  17.187  0.4008  0.2535  0.1801
18117TIP3    H175842   0.588   4.423  17.267  2.3880 -0.5339  1.0864
18117TIP3    H275843   0.650   4.295  17.215 -0.0006 -0.7071 -1.6050
18118TIP3   OH275844   6.548   1.256  13.371  0.5498 -0.2411  0.2219
18118TIP3    H175845   6.616   1.253  13.438  0.7798 -0.7275 -0.0290
18118TIP3    H275846   6.577   1.194  13.304  1.0352  1.2653 -1.0217
18119TIP3   OH275847   3.249   2.002   4.223  0.6960 -0.1783 -0.3311
18119TIP3    H175848   3.267   1.996   4.316  0.1574  1.4685 -0.0861
18119TIP3    H275849   3.192   2.079   4.214  0.7511 -0.2835 -2.0166
18120TIP3   OH275850   3.444   3.347   4.483  0.0990  0.0753  0.3204
18120TIP3    H175851   3.494   3.377   4.559  0.6678  0.7308 -0.2911
18120TIP3    H275852   3.388   3.278   4.517  0.7031  0.0106  1.2330
18121TIP3   OH275853   4.905   1.073   5.982  0.0726 -0.1338  0.0675
18121TIP3    H175854   4.948   1.057   5.898  0.0785 -0.9916  0.2296
18121TIP3    H275855   4.814   1.046   5.968  0.6491 -2.9158  1.0940
18122TIP3   OH275856   6.231   4.188  15.587  0.1218  0.3482  0.3760
18122TIP3    H175857   6.261   4.265  15.636  2.1661  0.4369 -0.9097
18122TIP3    H275858   6.145   4.168  15.625  0.1750  2.3666  1.7318
18123TIP3   OH275859   1.464   0.183  15.625 -0.0828  0.4177 -0.4107
18123TIP3    H175860   1.479   0.251  15.691  0.2160  0.8196 -0.8883
18123TIP3    H275861   1.369   0.173  15.623 -0.0266 -1.3795  1.8570
18124TIP3   OH275862   1.633   5.741   3.948 -0.2005  0.1015 -0.5457
18124TIP3    H175863   1.635   5.765   3.856 -0.0198  0.7223 -0.3838
18124TIP3    H275864   1.721   5.709   3.967 -0.3567 -0.4333 -0.6860
18125TIP3   OH275865   0.523   5.919   0.204  0.5741 -0.2326  0.3369
18125TIP3    H175866   0.539   5.832   0.241  0.2178  0.1410  1.4235
18125TIP3    H275867   0.551   5.980   0.273 -0.2624  0.4852  0.0670
18126TIP3   OH275868   5.543   5.650   4.875 -0.1310 -0.2045 -0.2674
18126TIP3    H175869   5.464   5.687   4.836  0.7174  1.0385 -0.9038
18126TIP3    H275870   5.566   5.712   4.945  0.7111 -0.0867 -0.6317
18127TIP3   OH275871   5.545   0.638   1.441  0.2636 -0.2405  0.2388
18127TIP3    H175872   5.568   0.622   1.533 -0.9738  1.1044  0.8055
18127TIP3    H275873   5.531   0.550   1.404 -2.1817 -0.7259  2.1243
18128TIP3   OH275874   0.077   3.236   0.385 -0.5080 -0.7445  0.1431
18128TIP3    H175875   0.115   3.263   0.301 -2.5748  2.0024 -0.0438
18128TIP3    H275876   0.132   3.279   0.451 -1.3078  0.5639 -0.0101
18129TIP3   OH275877   0.846   0.651  14.420 -0.2579  0.5699  0.4216
18129TIP3    H175878   0.881   0.562  14.419 -0.9561  0.2807  1.0403
18129TIP3    H275879   0.759   0.642  14.459 -0.3353  1.5219  0.4858
18130TIP3   OH275880   4.152   5.975   0.571  0.5868 -0.0158  0.1862
18130TIP3    H175881   4.212   5.901   0.582  0.3195 -0.7398 -2.5174
18130TIP3    H275882   4.081   5.956   0.632 -0.3701 -3.0704 -1.6426
18131TIP3   OH275883   4.618   4.967  16.203  0.5953 -0.0506 -0.5456
18131TIP3    H175884   4.662   4.882  16.210 -0.8762 -0.7525  0.7155
18131TIP3    H275885   4.603   4.995  16.293  0.6881  1.3756 -0.9397
18132TIP3   OH275886   6.037   4.506  12.882 -0.0939 -0.3184  0.5400
18132TIP3    H175887   6.016   4.467  12.967  0.3102 -0.1689  0.7139
18132TIP3    H275888   5.997   4.449  12.818 -1.4503  0.2256  0.8747
18133TIP3   OH275889   3.196   6.402  13.167  0.3033 -0.1561 -0.3428
18133TIP3    H175890   3.163   6.370  13.252 -1.7229  1.1195 -0.6012
18133TIP3    H275891   3.180   6.496  13.169  1.1844  0.0443 -1.7600
18134TIP3   OH275892   1.088   4.534  16.159 -0.1576 -0.3595 -0.0497
18134TIP3    H175893   1.173   4.490  16.161 -0.0912 -0.3053  3.3194
18134TIP3    H275894   1.028   4.473  16.202 -1.1052  0.9154  0.4886
18135TIP3   OH275895   4.982   2.648   2.487 -0.2378  0.1588  0.2074
18135TIP3    H175896   4.921   2.722   2.492 -1.3558 -0.7109 -0.0218
18135TIP3    H275897   5.060   2.684   2.446 -1.5852  0.7228 -2.0469
18136TIP3   OH275898   4.979   1.126   1.314  0.4567  0.3059  0.1534
18136TIP3    H175899   4.905   1.187   1.309 -1.2141 -1.6552 -0.3658
18136TIP3    H275900   4.987   1.105   1.407  0.1437  0.2846  0.1765
18137TIP3   OH275901   1.334   2.906  11.411 -0.4157 -0.5407  0.7907
18137TIP3    H175902   1.245   2.926  11.439  0.8526  2.1651  3.4506
18137TIP3    H275903   1.365   2.841  11.473  0.0416 -0.0319  1.1096
18138TIP3   OH275904   1.691   2.113   2.542 -0.0681  0.9577  0.2314
18138TIP3    H175905   1.604   2.106   2.502 -0.8369  2.0041  1.6131
18138TIP3    H275906   1.725   2.024   2.542 -0.5418  0.7314 -1.5659
18139TIP3   OH275907   4.292   4.354   5.757  0.2107  0.5173 -0.0410
18139TIP3    H175908   4.312   4.264   5.732  1.3458  0.3589  1.3100
18139TIP3    H275909   4.199   4.364   5.736 -0.5611 -1.7428  1.8268
18140TIP3   OH275910   1.221   4.381  11.820 -0.4822 -0.1808  0.5288
18140TIP3    H175911   1.294   4.397  11.879 -0.4544  0.2045  0.3878
18140TIP3    H275912   1.240   4.434  11.743 -0.3800 -0.8870  0.0572
18141TIP3   OH275913   3.084   2.163  11.226 -0.2229 -0.2136  0.0016
18141TIP3    H175914   3.084   2.193  11.317 -1.4423 -0.0906 -0.0241
18141TIP3    H275915   3.007   2.205  11.187  0.9313  0.7024 -1.4184
18142TIP3   OH275916   0.989   6.773  15.697  0.5945 -0.0226 -0.4008
18142TIP3    H175917   0.980   6.856  15.744  0.6560  0.0486 -0.5145
18142TIP3    H275918   0.899   6.741  15.688  0.6544 -0.4829  0.5551
18143TIP3   OH275919   3.431   0.545  12.535 -0.1742 -0.0007 -0.2437
18143TIP3    H175920   3.466   0.570  12.449 -1.0453  0.0540 -0.5936
18143TIP3    H275921   3.377   0.620  12.561 -1.7512 -0.9187 -0.6996
18144TIP3   OH275922   4.113   1.262   2.854 -0.2911  0.3377 -0.2759
18144TIP3    H175923   4.166   1.229   2.781 -2.1315  0.1641 -1.5797
18144TIP3    H275924   4.111   1.189   2.916  2.2917  0.8954  0.6108
18145TIP3   OH275925   0.644   4.392   5.971  0.6977  0.6410 -0.2680
18145TIP3    H175926   0.674   4.327   6.035  0.3714 -0.2643 -1.0075
18145TIP3    H275927   0.568   4.351   5.929  1.5936  0.7154 -2.0546
18146TIP3   OH275928   5.598   3.354   4.255 -0.1361 -0.0080  0.0936
18146TIP3    H175929   5.585   3.399   4.172 -0.9425 -3.0642 -1.6044
18146TIP3    H275930   5.655   3.412   4.306  1.6489  1.3401 -3.1815
18147TIP3   OH275931   6.264   4.467  11.497  0.1256 -0.4916  0.4469
18147TIP3    H175932   6.339   4.408  11.511  0.3264 -0.0234  1.4163
18147TIP3    H275933   6.238   4.494  11.585 -2.4709 -2.2039  0.3064
18148TIP3   OH275934   6.659   6.798  11.400  0.2004 -0.2621  0.0370
18148TIP3    H175935   6.596   6.808  11.329  0.3799 -1.2968 -0.2882
18148TIP3    H275936   6.620   6.732  11.457  1.0765 -1.0840 -0.2892
18149TIP3   OH275937   4.892   1.260   4.360  0.3531  0.1285  0.2508
18149TIP3    H175938   4.827   1.190   4.359  0.6430 -0.1404 -0.0798
18149TIP3    H275939   4.969   1.221   4.401  0.6948  0.0802 -0.4174
18150TIP3   OH275940   6.437   6.772   5.150 -0.0836 -0.0545 -0.2890
18150TIP3    H175941   6.359   6.800   5.103 -1.0582 -0.3364  1.1033
18150TIP3    H275942   6.404   6.736   5.233  1.5143 -0.2498  0.3029
18151TIP3   OH275943   0.160   2.555   4.872  0.5512  0.1305  0.5789
18151TIP3    H175944   0.086   2.602   4.910 -0.3451  0.3939 -1.4073
18151TIP3    H275945   0.210   2.621   4.825  0.3155 -0.5457 -0.6667
18152TIP3   OH275946   1.182   2.474   1.644 -0.0061 -0.1301 -0.2538
18152TIP3    H175947   1.225   2.539   1.700 -1.4601  0.9535 -0.3069
18152TIP3    H275948   1.249   2.447   1.581  0.9887  0.3726  0.5737
18153TIP3   OH275949   0.348   1.794   2.542  0.0042 -0.7151  0.0540
18153TIP3    H175950   0.348   1.742   2.462 -0.9395 -0.4809 -0.1097
18153TIP3    H275951   0.440   1.795   2.570  0.6779  0.6361 -1.9725
18154TIP3   OH275952   2.282   3.653  12.559  0.6259 -0.2900  1.1177
18154TIP3    H175953   2.250   3.595  12.489 -0.5034  0.3102  1.1142
18154TIP3    H275954   2.342   3.599  12.609  0.2244 -1.2241  0.6207
18155TIP3   OH275955   0.495   4.301  15.658 -0.0405  0.0375  0.4274
18155TIP3    H175956   0.570   4.297  15.718  0.1874 -1.1906  0.0876
18155TIP3    H275957   0.502   4.387  15.617  0.3630  0.5050  1.4342
18156TIP3   OH275958   0.232   1.789  15.526  0.4320  0.1320  0.2004
18156TIP3    H175959   0.198   1.757  15.610  1.2393 -1.1356  0.0687
18156TIP3    H275960   0.269   1.711  15.484 -2.3660  0.1001 -2.5802
18157TIP3   OH275961   0.630   3.239   1.163 -0.5498 -0.3986  0.5247
18157TIP3    H175962   0.668   3.304   1.222 -1.9174  1.1225 -0.1850
18157TIP3    H275963   0.705   3.188   1.132  0.5868  0.8981  1.0324
18158TIP3   OH275964   6.695   0.939   0.105 -0.6379 -0.4937  0.0571
18158TIP3    H175965   6.717   0.997   0.032  0.3315  0.5557  1.1441
18158TIP3    H275966   6.601   0.952   0.120 -0.4373  0.7682  0.2515
18159TIP3   OH275967   3.612   4.952   5.673  0.6361  0.2183 -0.2285
18159TIP3    H175968   3.642   4.862   5.687  0.6816  0.3019  0.2222
18159TIP3    H275969   3.655   4.979   5.592  1.9524  0.4051  0.5130
18160TIP3   OH275970   1.197   4.703  15.941  0.0037 -0.0629  0.0750
18160TIP3    H175971   1.130   4.650  15.984 -0.1146 -0.1205 -0.1806
18160TIP3    H275972   1.239   4.751  16.012 -2.1721  2.1522 -0.0398
18161TIP3   OH275973   2.560   6.185   2.146  0.0881  0.1779 -0.5339
18161TIP3    H175974   2.505   6.122   2.099 -0.5065  0.6381 -0.4687
18161TIP3    H275975   2.576   6.254   2.082  0.1871  0.2843 -0.3945
18162TIP3   OH275976   6.305   0.720   2.747 -0.5732  0.2226  0.1236
18162TIP3    H175977   6.395   0.748   2.762  0.2665 -1.5050 -1.4111
18162TIP3    H275978   6.257   0.802   2.733  0.2945  1.3273  2.8234
18163TIP3   OH275979   1.407   4.163   0.921  0.2565  0.1650 -0.5803
18163TIP3    H175980   1.465   4.106   0.970 -0.8654  1.8032  2.9792
18163TIP3    H275981   1.446   4.250   0.930 -1.1205  0.8296 -0.8148
18164TIP3   OH275982   2.799   0.942  12.342  0.1987 -0.7760 -0.0388
18164TIP3    H175983   2.748   1.015  12.307 -0.0719 -0.7466  0.4093
18164TIP3    H275984   2.858   0.982  12.406 -2.5242 -1.3357  3.0414
18165TIP3   OH275985   2.032   3.862   5.954 -0.6772  0.4304  0.0316
18165TIP3    H175986   2.028   3.919   6.031 -1.6851  1.3443 -0.6710
18165TIP3    H275987   2.043   3.921   5.880  1.9728 -0.5331 -0.4372
18166TIP3   OH275988   5.114   4.547   5.280 -0.4386 -0.1853 -1.1353
18166TIP3    H175989   5.037   4.504   5.242 -0.9999 -0.0091 -0.2310
18166TIP3    H275990   5.082   4.633   5.308  0.0071 -0.2271 -0.4675
18167TIP3   OH275991   2.843   6.015  10.905  0.4075 -0.6642  0.7995
18167TIP3    H175992   2.886   5.973  10.980  0.2452  1.9872  2.5176
18167TIP3    H275993   2.758   6.043  10.939 -0.8264 -1.7503 -1.2239
18168TIP3   OH275994   1.649   5.033   4.819 -0.1807  0.0262 -0.3956
18168TIP3    H175995   1.726   5.065   4.772 -0.2241  0.1022 -0.4156
18168TIP3    H275996   1.606   5.112   4.850  1.7622 -0.0446  2.9492
18169TIP3   OH275997   4.874   6.355  11.576  0.6713  0.3707 -0.0346
18169TIP3    H175998   4.903   6.396  11.657  1.1532 -0.5621  0.2843
18169TIP3    H275999   4.806   6.293  11.605  0.9541 -0.0754 -0.3147
18170TIP3   OH276000   5.498   3.604   2.454  0.0474  0.0282  0.2438
18170TIP3    H176001   5.425   3.656   2.488 -1.7596 -1.1519 -1.5949
18170TIP3    H276002   5.537   3.564   2.532 -0.1144  2.0657  1.4402
18171TIP3   OH276003   6.419   6.116   0.899  0.0494 -0.2097 -0.1637
18171TIP3    H176004   6.412   6.059   0.975  1.0386 -1.4865 -0.9637
18171TIP3    H276005   6.376   6.197   0.925 -1.7468 -1.4237  0.9110
18172TIP3   OH276006   1.610   5.568   1.958 -0.5914 -0.2888 -0.3825
18172TIP3    H176007   1.697   5.603   1.978 -1.2113  0.4857  1.1224
18172TIP3    H276008   1.627   5.480   1.925  0.8197  0.2801 -1.2721
18173TIP3   OH276009   2.900   5.963  16.125  0.5737 -0.5238  0.4008
18173TIP3    H176010   2.947   6.021  16.185 -0.3575  0.8729 -0.1466
18173TIP3    H276011   2.817   5.946  16.169 -0.7649  1.7391 -1.0057
18174TIP3   OH276012   4.592   4.756   6.021 -0.1037 -0.6518 -0.0806
18174TIP3    H176013   4.553   4.796   6.099  0.5437  0.8887 -0.5048
18174TIP3    H276014   4.540   4.677   6.006 -1.0128 -0.3296  1.2061
18175TIP3   OH276015   6.227   1.887  13.168 -0.0730 -0.5858  0.3996
18175TIP3    H176016   6.145   1.873  13.216  0.7386  1.0396  2.3896
18175TIP3    H276017   6.293   1.839  13.218  0.5128 -0.2917 -0.0775
18176TIP3   OH276018   4.440   6.598   4.096  0.9983 -0.1287 -1.1907
18176TIP3    H176019   4.513   6.643   4.053  2.4486 -0.9003  0.3176
18176TIP3    H276020   4.449   6.621   4.189 -0.8806 -0.0133 -0.9955
18177TIP3   OH276021   4.988   4.366  14.513  0.4687  0.2944 -0.2789
18177TIP3    H176022   4.906   4.353  14.466 -0.1207  0.6611  0.6324
18177TIP3    H276023   4.970   4.437  14.574  0.9749 -0.6827  1.0602
18178TIP3   OH276024   3.935   2.120  12.565  0.3518  0.1692  0.3343
18178TIP3    H176025   3.947   2.202  12.516  1.7202  0.3442  0.9362
18178TIP3    H276026   3.840   2.112  12.574  0.1976  2.8053  2.0989
18179TIP3   OH276027   4.034   0.130   0.237 -0.3234  0.1738 -0.5895
18179TIP3    H176028   4.073   0.201   0.288 -0.8365 -0.2517  0.4127
18179TIP3    H276029   3.964   0.172   0.187 -1.8414  0.0982  1.3739
18180TIP3   OH276030   2.300   2.075  11.482 -0.1553  0.2174  0.7193
18180TIP3    H176031   2.273   1.984  11.469 -0.8894  0.7043 -1.6539
18180TIP3    H276032   2.377   2.069  11.537 -1.3137 -1.6904  2.2807
18181TIP3   OH276033   1.660   3.258   2.473  0.1623  0.0667  0.5069
18181TIP3    H176034   1.703   3.190   2.525  2.1011  1.8968  1.4360
18181TIP3    H276035   1.732   3.311   2.440 -1.0353 -0.4167 -3.3404
18182TIP3   OH276036   1.050   3.183   6.141 -0.2847 -0.5541  0.4834
18182TIP3    H176037   1.140   3.173   6.112  0.2406 -0.1015  1.8974
18182TIP3    H276038   1.038   3.278   6.151 -1.0415 -0.5811 -0.0692
18183TIP3   OH276039   1.191   2.811  14.803  0.0454  0.0561 -0.4478
18183TIP3    H176040   1.284   2.790  14.811  0.0172 -1.2834 -2.7836
18183TIP3    H276041   1.147   2.726  14.807 -1.3480  0.7918  2.5030
18184TIP3   OH276042   0.917   2.993  14.016  0.1229 -0.1408 -0.6422
18184TIP3    H176043   0.865   2.972  14.094  0.2286 -0.2376 -0.5970
18184TIP3    H276044   0.946   3.083  14.030  0.0872 -0.1360 -0.5999
18185TIP3   OH276045   2.090   4.136  16.091 -0.1705 -0.9202 -0.4553
18185TIP3    H176046   2.170   4.106  16.133  0.9712  1.5795 -0.6683
18185TIP3    H276047   2.056   4.204  16.150 -1.4283 -1.0450 -0.9992
18186TIP3   OH276048   3.623   5.137   2.012 -0.2046 -0.8167 -0.2116
18186TIP3    H176049   3.640   5.230   1.999 -0.9432 -0.3246  2.0011
18186TIP3    H276050   3.564   5.113   1.940 -1.5150  0.9068  0.2168
18187TIP3   OH276051   3.313   5.403  14.812  0.8257  0.0282  0.2239
18187TIP3    H176052   3.400   5.433  14.837  1.5531 -0.4920 -1.4709
18187TIP3    H276053   3.309   5.420  14.717 -1.3095  0.9599  0.4348
18188TIP3   OH276054   1.565   5.823   3.668 -0.1218 -0.1074 -0.3304
18188TIP3    H176055   1.618   5.895   3.634 -0.5006  1.6959  2.5494
18188TIP3    H276056   1.475   5.855   3.663 -0.4915 -1.1538 -0.6721
18189TIP3   OH276057   6.238   0.127  15.125 -0.6792 -0.1958 -0.2065
18189TIP3    H176058   6.186   0.066  15.073 -1.8660 -0.1990  0.9263
18189TIP3    H276059   6.258   0.199  15.065 -1.6598 -0.3895 -0.7912
18190TIP3   OH276060   5.140   2.131   1.955  0.4280  0.2890  0.0239
18190TIP3    H176061   5.083   2.191   1.908  0.4495 -0.6165 -1.1981
18190TIP3    H276062   5.102   2.045   1.941  1.0989 -0.1344  0.7053
18191TIP3   OH276063   0.112   5.847   1.611 -0.4716 -0.4500 -0.0461
18191TIP3    H176064   0.195   5.856   1.563 -0.8618  2.1330 -0.3966
18191TIP3    H276065   0.079   5.937   1.618 -0.2866 -0.4510  5.3612
18192TIP3   OH276066   2.069   6.570   1.419  0.4824  0.0334 -0.1481
18192TIP3    H176067   2.138   6.529   1.471  0.4016 -3.0769 -2.2814
18192TIP3    H276068   1.993   6.514   1.430 -0.9599  1.9186  0.0167
18193TIP3   OH276069   0.829   4.448   2.884  0.3113  0.0153  0.7186
18193TIP3    H176070   0.840   4.542   2.901 -0.1908  0.4165 -0.9887
18193TIP3    H276071   0.887   4.430   2.810  0.6548 -1.1104  1.2512
18194TIP3   OH276072   0.148   3.274   3.333  0.0026  0.2047 -0.0658
18194TIP3    H176073   0.092   3.216   3.280  0.7055  0.3695 -1.0145
18194TIP3    H276074   0.096   3.353   3.344 -0.4658 -0.1289  0.1630
18195TIP3   OH276075   2.846   0.542  13.524 -0.1101 -0.1268  0.0834
18195TIP3    H176076   2.767   0.571  13.478 -0.7643  0.5722  1.5601
18195TIP3    H276077   2.887   0.480  13.465 -1.3461  0.1077 -1.0725
18196TIP3   OH276078   6.202   5.292  15.784  0.1428 -0.0494 -0.6780
18196TIP3    H176079   6.211   5.379  15.823 -1.1119  0.4463 -1.4230
18196TIP3    H276080   6.291   5.266  15.761  0.8227  0.0634  1.5456
18197TIP3   OH276081   2.669   2.074  15.588 -0.6588 -0.3492 -0.3617
18197TIP3    H176082   2.609   2.066  15.663 -0.0202 -0.9894  0.0976
18197TIP3    H276083   2.657   1.993  15.539  0.9845 -1.2446  0.6270
18198TIP3   OH276084   3.496   4.551  16.982 -0.1986  0.8733 -0.9688
18198TIP3    H176085   3.569   4.537  17.042 -0.2408  0.0885 -1.0921
18198TIP3    H276086   3.423   4.578  17.038 -0.1981  0.2815 -0.6785
18199TIP3   OH276087   0.044   4.634   1.134 -0.1697  0.0610  0.1066
18199TIP3    H176088   0.136   4.608   1.130 -0.1491 -0.5063  2.6426
18199TIP3    H276089   0.044   4.725   1.103  0.9753 -0.4137 -1.3969
18200TIP3   OH276090   5.153   3.405  14.841 -0.0389 -0.2319 -0.1527
18200TIP3    H176091   5.149   3.442  14.929 -2.5851  1.7971 -0.9860
18200TIP3    H276092   5.196   3.472  14.788 -0.3387 -0.5562 -0.8241
18201TIP3   OH276093   0.786   5.614  14.286  0.1997 -0.4449  0.6065
18201TIP3    H176094   0.699   5.607  14.326  0.4683  1.5498  1.6322
18201TIP3    H276095   0.845   5.573  14.349  0.1419 -0.9399  0.3470
18202TIP3   OH276096   3.928   3.267  16.843  0.7433 -0.3029 -0.5611
18202TIP3    H176097   4.009   3.243  16.798  2.7778  2.8931  0.9903
18202TIP3    H276098   3.921   3.206  16.916  2.6665  0.2000  0.1246
18203TIP3   OH276099   2.661   4.236  16.452 -0.4539  0.2503 -0.5625
18203TIP3    H176100   2.585   4.178  16.460  1.4132 -2.7434 -2.3241
18203TIP3    H276101   2.736   4.178  16.466  1.5783  2.1688 -2.6823
18204TIP3   OH276102   1.826   5.916  11.378  0.0403  0.3663  0.1447
18204TIP3    H176103   1.773   5.920  11.458  0.0493 -1.6677  0.2991
18204TIP3    H276104   1.763   5.912  11.307 -0.0093 -0.2564  0.2174
18205TIP3   OH276105   0.198   5.018   1.425 -0.5923  0.1340 -0.3765
18205TIP3    H176106   0.104   5.002   1.439 -0.4209 -0.1183  0.5475
18205TIP3    H276107   0.241   4.941   1.460  0.0669  1.1646  1.2045
18206TIP3   OH276108   3.487   0.449  14.069  0.4440  0.5605  0.4176
18206TIP3    H176109   3.540   0.440  13.990 -0.7698  0.0587 -0.3865
18206TIP3    H276110   3.476   0.359  14.101 -0.9740  0.4936 -0.1864
18207TIP3   OH276111   1.477   2.288   4.867 -0.0595 -0.3650  0.5679
18207TIP3    H176112   1.545   2.265   4.803 -0.3604 -0.6405  0.3442
18207TIP3    H276113   1.525   2.315   4.945  0.3127 -1.7204  0.8282
18208TIP3   OH276114   1.089   6.478   5.159  0.0923  0.2014  0.3201
18208TIP3    H176115   1.100   6.525   5.241 -1.5291 -0.1359  0.7797
18208TIP3    H276116   1.128   6.392   5.175 -0.5331  0.0115  0.8917
18209TIP3   OH276117   2.200   6.303  12.571  0.5433 -0.1449 -0.0486
18209TIP3    H176118   2.186   6.217  12.610 -1.3385  0.1770  0.0957
18209TIP3    H276119   2.113   6.344  12.573  1.4059  1.7857 -0.0296
18210TIP3   OH276120   3.756   2.643  15.854  0.2218 -0.3667 -0.3654
18210TIP3    H176121   3.724   2.553  15.846 -2.1063  0.3633 -0.0164
18210TIP3    H276122   3.717   2.689  15.780 -0.9760  0.9388  1.0044
18211TIP3   OH276123   4.520   5.556   2.189 -0.3156 -0.5290  0.1635
18211TIP3    H176124   4.471   5.480   2.159 -0.5881 -0.0003 -0.7748
18211TIP3    H276125   4.556   5.530   2.274 -0.4251 -1.6834 -0.1311
18212TIP3   OH276126   1.737   5.561   5.297 -0.1300 -0.0611 -0.3855
18212TIP3    H176127   1.741   5.585   5.390 -0.6190  0.7703 -0.5678
18212TIP3    H276128   1.828   5.543   5.273  0.1408  0.7433  0.0054
18213TIP3   OH276129   2.022   5.477   2.261 -0.4905  0.1032  0.2294
18213TIP3    H176130   2.049   5.386   2.272  0.8265  0.7192  2.7851
18213TIP3    H276131   1.928   5.471   2.241 -0.4551 -1.8037  0.4091
18214TIP3   OH276132   1.954   0.280  14.325  0.2219  0.0949  0.1003
18214TIP3    H176133   1.951   0.375  14.330 -0.2946  0.0570  0.5019
18214TIP3    H276134   1.997   0.262  14.241 -1.4049  0.6680 -0.8865
18215TIP3   OH276135   2.375   1.200   6.007  0.4162  0.3454  0.2219
18215TIP3    H176136   2.314   1.129   6.026 -0.3571  0.6026 -1.2238
18215TIP3    H276137   2.445   1.189   6.071 -1.2712  0.2294  2.1380
18216TIP3   OH276138   2.329   4.229  14.032  0.4397  0.7187 -0.0264
18216TIP3    H176139   2.390   4.233  14.106  2.4936  1.0115 -1.6175
18216TIP3    H276140   2.244   4.253  14.068  1.4799  1.4207  2.0995
18217TIP3   OH276141   5.458   4.293  15.367  0.7849 -0.6224  0.1182
18217TIP3    H176142   5.459   4.389  15.370  0.2940 -0.6268  0.5469
18217TIP3    H276143   5.510   4.267  15.443  1.8054 -0.7012 -0.5869
18218TIP3   OH276144   6.768   2.274   4.815  0.1693 -0.1283 -0.5355
18218TIP3    H176145   6.744   2.294   4.725 -1.9239  1.6534  0.3144
18218TIP3    H276146   6.695   2.222   4.848  0.5219 -0.0744  0.3540
18219TIP3   OH276147   4.990   2.470  11.136  0.4523 -0.3355  0.3096
18219TIP3    H176148   4.971   2.563  11.149  0.0890 -0.3040 -0.3877
18219TIP3    H276149   4.998   2.460  11.041 -0.5467 -1.2080  0.2998
18220TIP3   OH276150   2.862   0.925  15.482  0.3017 -0.2410  0.0961
18220TIP3    H176151   2.784   0.964  15.441  1.5133  1.4119 -0.7504
18220TIP3    H276152   2.829   0.847  15.526 -1.5421 -0.6188 -1.7743
18221TIP3   OH276153   2.337   4.660   1.324 -0.3114 -0.7254 -0.1239
18221TIP3    H176154   2.377   4.606   1.392 -0.3945 -1.4394 -0.6415
18221TIP3    H276155   2.405   4.723   1.300 -0.3552 -0.3210  0.7742
18222TIP3   OH276156   5.744   4.743  17.106  0.3374  0.6149  0.0946
18222TIP3    H176157   5.664   4.710  17.148  0.7939 -1.7236 -0.6985
18222TIP3    H276158   5.717   4.764  17.017  0.4548  0.5153  0.0350
18223TIP3   OH276159   1.488   1.360   4.355 -0.1966  0.0027  0.2814
18223TIP3    H176160   1.457   1.378   4.267 -0.1812 -2.2243 -0.2467
18223TIP3    H276161   1.501   1.446   4.394 -2.0995  1.0451 -1.1961
18224TIP3   OH276162   6.380   3.654   3.942  0.1557  0.4647  0.2360
18224TIP3    H176163   6.418   3.566   3.946  2.2313  1.2957  0.1452
18224TIP3    H276164   6.340   3.659   3.856 -0.1843 -0.4535  0.3242
18225TIP3   OH276165   3.792   3.918  11.699  0.3702  0.5334  0.5080
18225TIP3    H176166   3.842   3.845  11.664  1.7220  2.0255 -0.8154
18225TIP3    H276167   3.832   3.937  11.784  0.5960  0.3061  0.4520
18226TIP3   OH276168   1.353   2.711   3.099  0.5085  0.2703 -0.2195
18226TIP3    H176169   1.397   2.746   3.022 -2.2411  2.0795 -1.0996
18226TIP3    H276170   1.309   2.786   3.138 -2.8766 -1.5372 -0.2307
18227TIP3   OH276171   2.487   2.493  14.688 -0.1192  0.2642 -0.1194
18227TIP3    H176172   2.451   2.409  14.661  1.1144 -0.0967 -0.7508
18227TIP3    H276173   2.473   2.550  14.612  0.7247  0.0816 -0.4233
18228TIP3   OH276174   0.133   6.036   4.437 -0.5922 -0.6527 -0.0767
18228TIP3    H176175   0.054   6.043   4.491 -0.5450  3.6886 -0.2196
18228TIP3    H276176   0.205   6.026   4.501 -0.5339  4.4042  1.0758
18229TIP3   OH276177   4.280   2.598   0.860 -0.0992  0.1125  0.5130
18229TIP3    H176178   4.218   2.550   0.806  0.4480  1.1869 -1.1664
18229TIP3    H276179   4.228   2.665   0.904 -0.8107 -1.7299  2.6287
18230TIP3   OH276180   5.526   1.068  11.837  0.0447  0.0482 -0.4277
18230TIP3    H176181   5.598   1.027  11.788  0.8637  1.5894 -0.5790
18230TIP3    H276182   5.561   1.082  11.925  0.2767  1.6289 -0.7494
18231TIP3   OH276183   1.443   5.831  14.451 -0.4377 -0.0669  0.5061
18231TIP3    H176184   1.398   5.747  14.448  0.0380 -0.3363  0.8313
18231TIP3    H276185   1.379   5.893  14.414 -0.8447 -0.5375  0.3988
18232TIP3   OH276186   0.659   0.590   0.901 -0.4332  0.0867  0.4911
18232TIP3    H176187   0.674   0.548   0.816 -1.4035  1.2062 -0.2756
18232TIP3    H276188   0.615   0.523   0.953 -1.2549 -0.1249 -0.4449
18233TIP3   OH276189   0.616   2.886   1.564 -0.1982 -0.6210  0.4827
18233TIP3    H176190   0.663   2.830   1.626  1.7651  2.4478  2.0186
18233TIP3    H276191   0.561   2.941   1.620 -0.3794  0.4762 -0.7495
18234TIP3   OH276192   5.724   0.099  14.924  0.0206  0.0191 -0.8726
18234TIP3    H176193   5.660   0.155  14.881 -0.7511 -1.3772 -1.6143
18234TIP3    H276194   5.809   0.133  14.895 -0.4282  0.6800 -1.4534
18235TIP3   OH276195   6.178   5.025   3.375 -0.1285  0.1969  0.1636
18235TIP3    H176196   6.239   5.018   3.448  0.2438 -1.7750 -0.2728
18235TIP3    H276197   6.229   5.064   3.304 -0.7208  2.9094  1.1378
18236TIP3   OH276198   1.827   2.221  17.127  0.8431 -0.0050 -0.3698
18236TIP3    H176199   1.772   2.246  17.201 -0.1547 -1.9194 -0.3923
18236TIP3    H276200   1.820   2.294  17.066 -0.8793  0.2547  0.0802
18237TIP3   OH276201   1.708   2.181  10.701  0.5953 -0.7099 -0.6372
18237TIP3    H176202   1.690   2.274  10.717  1.0270 -0.7664  0.3160
18237TIP3    H276203   1.648   2.155  10.632 -0.9128 -0.2022  0.4426
18238TIP3   OH276204   2.630   6.654   6.502 -0.5008  0.6386  1.3230
18238TIP3    H176205   2.697   6.625   6.564  1.2678  1.7388  0.0228
18238TIP3    H276206   2.678   6.704   6.436 -2.2739 -0.4328 -0.9304
18239TIP3   OH276207   4.060   2.089  16.347  0.1264 -0.0861  0.2824
18239TIP3    H176208   4.006   2.018  16.312 -0.3239 -0.0835  0.9393
18239TIP3    H276209   4.147   2.050  16.358 -0.4093 -0.9640  1.8561
18240TIP3   OH276210   3.749   3.323   6.025  0.0431 -0.1780 -0.0957
18240TIP3    H176211   3.701   3.380   6.086 -1.3334  0.3034 -1.5656
18240TIP3    H276212   3.802   3.384   5.973 -0.3267 -0.3882 -0.7152
18241TIP3   OH276213   4.390   5.983  12.708  0.3319 -0.1460 -0.2434
18241TIP3    H176214   4.412   5.900  12.666  2.7606  1.4398 -2.3888
18241TIP3    H276215   4.465   6.001  12.765 -1.0948 -0.3158  1.7914
18242TIP3   OH276216   2.866   5.084   4.637 -0.2760  0.3445 -0.1329
18242TIP3    H176217   2.806   5.044   4.573  0.8144 -1.1998 -0.2480
18242TIP3    H276218   2.935   5.123   4.584  0.0016  0.1161  0.0580
18243TIP3   OH276219   3.901   5.985   0.770 -0.4004 -0.2188 -0.0374
18243TIP3    H176220   3.946   6.013   0.849 -0.6371  1.0649 -0.3345
18243TIP3    H276221   3.809   6.009   0.784 -0.2144  1.4712 -1.2722
18244TIP3   OH276222   5.668   3.442  14.713 -0.5612  0.4007 -0.2127
18244TIP3    H176223   5.705   3.512  14.766  0.3303 -1.1624  1.3256
18244TIP3    H276224   5.728   3.369  14.723 -2.5861 -1.3367  0.0997
18245TIP3   OH276225   3.973   2.081   5.222 -0.4532  0.2597  0.1795
18245TIP3    H176226   4.057   2.071   5.179 -0.9567  1.9790 -1.3550
18245TIP3    H276227   3.990   2.063   5.315  1.6468  0.8350 -0.0531
18246TIP3   OH276228   1.132   6.766   0.314 -0.1871 -0.4560  0.5021
18246TIP3    H176229   1.105   6.694   0.371 -0.9005  0.0938  0.8687
18246TIP3    H276230   1.142   6.726   0.228  0.6517 -1.2450  0.9393
18247TIP3   OH276231   4.649   0.861   6.658  0.0093  0.0592 -0.5557
18247TIP3    H176232   4.692   0.842   6.741 -0.6209 -0.0017 -0.2363
18247TIP3    H276233   4.715   0.906   6.606  0.6027 -0.4383 -0.2462
18248TIP3   OH276234   1.501   3.820  11.296 -0.5290  0.1033  0.2747
18248TIP3    H176235   1.554   3.874  11.356 -1.2154  0.3089  0.7097
18248TIP3    H276236   1.519   3.856  11.209  0.5236 -0.2352  0.3414
18249TIP3   OH276237   5.799   4.674  12.349 -0.2788 -0.3796 -0.1345
18249TIP3    H176238   5.724   4.729  12.326  0.3236  0.2401 -0.6524
18249TIP3    H276239   5.857   4.678  12.272 -0.8917 -2.9610 -0.8428
18250TIP3   OH276240   4.886   3.870   2.331 -0.1417  0.5692 -0.1036
18250TIP3    H176241   4.954   3.839   2.271  0.6314  1.1759  0.4331
18250TIP3    H276242   4.928   3.942   2.379 -0.7284  0.0957  1.1673
18251TIP3   OH276243   4.696   1.904   5.342  0.0655 -0.5864 -0.7532
18251TIP3    H176244   4.718   1.816   5.312  1.9637 -1.2511  2.2122
18251TIP3    H276245   4.653   1.891   5.427  0.3914  1.3454 -0.2420
18252TIP3   OH276246   4.379   5.513   3.512 -0.6446 -0.1323  0.4490
18252TIP3    H176247   4.414   5.586   3.460 -0.5123 -2.4599 -3.0951
18252TIP3    H276248   4.408   5.531   3.601 -2.0034  4.9188  0.1836
18253TIP3   OH276249   1.499   5.128  12.111 -0.0804 -0.2225 -0.1933
18253TIP3    H176250   1.559   5.063  12.149  0.2768 -1.2853 -2.4287
18253TIP3    H276251   1.412   5.098  12.138  0.2549  0.9103  2.4402
18254TIP3   OH276252   1.130   1.365   1.017 -0.1521  0.9721  0.1619
18254TIP3    H176253   1.053   1.361   1.073 -1.5079  0.6597 -1.6373
18254TIP3    H276254   1.128   1.453   0.979  1.0878  1.3919  0.9719
18255TIP3   OH276255   2.545   1.842  16.812 -1.4393  0.0107 -0.3828
18255TIP3    H176256   2.584   1.838  16.899  0.3927 -3.5290 -1.2285
18255TIP3    H276257   2.619   1.840  16.752 -2.7321 -1.6739 -2.0220
18256TIP3   OH276258   0.480   5.867   0.819 -0.0230 -0.0135  0.2196
18256TIP3    H176259   0.485   5.918   0.738 -0.2222  0.6628  0.6233
18256TIP3    H276260   0.393   5.830   0.818 -0.4655  0.9702  0.6840
18257TIP3   OH276261   1.382   6.285  16.398  0.5328 -0.2549 -0.0293
18257TIP3    H176262   1.439   6.343  16.349 -0.1718 -0.3678 -1.0105
18257TIP3    H276263   1.310   6.342  16.428  0.3152 -0.4358 -0.2047
18258TIP3   OH276264   0.355   0.735  13.281  0.0260  0.6776  0.5045
18258TIP3    H176265   0.403   0.784  13.347 -2.7763  3.4561  0.7419
18258TIP3    H276266   0.363   0.787  13.202 -0.4351 -0.1758 -0.1275
18259TIP3   OH276267   5.270   6.773   5.350  0.1892  0.7652  0.5010
18259TIP3    H176268   5.247   6.862   5.374 -0.8834  0.6181  0.0751
18259TIP3    H276269   5.203   6.718   5.390  0.1337  0.2588 -0.2575
18260TIP3   OH276270   2.519   5.316   0.701  0.6062 -0.0071 -0.2138
18260TIP3    H176271   2.488   5.364   0.623  0.2218  1.7426  0.9501
18260TIP3    H276272   2.549   5.385   0.761  2.0950 -1.3895  0.7000
18261TIP3   OH276273   5.454   0.107  14.191 -0.8909  0.2367  0.4815
18261TIP3    H176274   5.549   0.106  14.183 -0.9182  0.6163  0.0773
18261TIP3    H276275   5.437   0.078  14.281 -0.4672 -1.4585  0.0579
18262TIP3   OH276276   4.619   4.712  10.607  0.1249  0.1193  0.2993
18262TIP3    H176277   4.581   4.756  10.531 -1.3572  0.6873  1.3023
18262TIP3    H276278   4.544   4.696  10.665  1.1470 -0.6595  1.4603
18263TIP3   OH276279   1.993   5.222  16.879 -0.3674 -0.3668 -0.1581
18263TIP3    H176280   2.039   5.233  16.962 -0.1533  0.9635 -0.4340
18263TIP3    H276281   1.918   5.280  16.885 -0.8587 -0.9462 -0.5526
18264TIP3   OH276282   4.177   1.576   5.068 -0.0707  0.4060  0.0563
18264TIP3    H176283   4.129   1.655   5.044  0.1877  0.7838  0.7243
18264TIP3    H276284   4.251   1.573   5.007  0.4618  1.2276  0.6317
18265TIP3   OH276285   5.038   6.622   1.463  0.1648 -0.2431  0.0119
18265TIP3    H176286   5.005   6.573   1.539  2.9001  0.6818  1.9717
18265TIP3    H276287   5.019   6.714   1.483 -1.1334 -0.1388 -1.5748
18266TIP3   OH276288   0.493   6.728  11.588 -0.4334 -0.5704  0.0069
18266TIP3    H176289   0.414   6.780  11.575 -0.4768  0.0752  2.3695
18266TIP3    H276290   0.461   6.646  11.627 -0.1284 -1.3355 -1.2987
18267TIP3   OH276291   4.968   0.073  14.678  0.2027 -0.0529  0.2156
18267TIP3    H176292   4.924   0.023  14.609 -0.2262 -1.2732  1.3547
18267TIP3    H276293   4.897   0.105  14.734  0.6406 -0.5011  1.0405
18268TIP3   OH276294   3.194   5.312  15.623 -0.7271 -0.3310  0.3915
18268TIP3    H176295   3.192   5.335  15.716 -3.0521  0.7271  0.1494
18268TIP3    H276296   3.190   5.396  15.577  0.9200 -0.8052 -0.7115
18269TIP3   OH276297   1.723   1.543  11.753 -0.3355 -0.0952  0.3408
18269TIP3    H176298   1.679   1.463  11.781 -0.2720  0.0253  0.7981
18269TIP3    H276299   1.652   1.604  11.730 -0.3808 -0.6491 -1.1110
18270TIP3   OH276300   5.861   6.545  16.865  0.4189 -0.2308 -0.5090
18270TIP3    H176301   5.875   6.563  16.957  0.6739  4.2703 -1.2041
18270TIP3    H276302   5.942   6.503  16.836  0.0770 -2.3332  1.3062
18271TIP3   OH276303   3.986   6.738  12.985  0.0083  0.5707  0.4072
18271TIP3    H176304   4.079   6.716  12.990  0.1749  0.7761 -1.1830
18271TIP3    H276305   3.984   6.819  12.934 -1.1224 -0.1721 -0.7586
18272TIP3   OH276306   6.733   5.239   2.739  0.0733 -0.3994 -0.3548
18272TIP3    H176307   6.684   5.282   2.669 -0.6415  1.0831  0.9874
18272TIP3    H276308   6.720   5.146   2.724 -3.2522 -0.0989 -0.0868
18273TIP3   OH276309   4.652   1.792   1.915  0.1316 -0.2147  0.2682
18273TIP3    H176310   4.690   1.742   1.988  1.9420 -0.5510 -0.8555
18273TIP3    H276311   4.616   1.871   1.957  0.6711 -0.6325  1.5812
18274TIP3   OH276312   5.254   2.761   3.791  0.0101  1.0369  0.0440
18274TIP3    H176313   5.312   2.686   3.779 -1.1790  0.2059 -0.7027
18274TIP3    H276314   5.311   2.838   3.780  0.9039  0.2565 -0.9732
18275TIP3   OH276315   5.293   4.131   2.172  0.0663  0.2996 -0.3724
18275TIP3    H176316   5.255   4.164   2.091 -1.1625  1.5962  0.6953
18275TIP3    H276317   5.369   4.080   2.143  0.7634  2.2292 -2.2413
18276TIP3   OH276318   3.547   4.635   1.095  0.5995 -0.6896  0.0688
18276TIP3    H176319   3.474   4.573   1.099  1.7730 -2.1015  0.3719
18276TIP3    H276320   3.527   4.690   1.020 -2.0337  0.6282  1.5803
18277TIP3   OH276321   0.923   3.011  10.832  0.3503 -0.1887 -0.1662
18277TIP3    H176322   0.974   2.930  10.831  0.9122  0.1154 -2.1899
18277TIP3    H276323   0.988   3.081  10.833 -0.1390  0.2960  2.2656
18278TIP3   OH276324   1.795   3.398  16.443  0.0249  0.0441  0.4021
18278TIP3    H176325   1.762   3.334  16.506 -0.1419 -0.2145  0.0607
18278TIP3    H276326   1.757   3.482  16.470  0.7991  0.1260  1.2562
18279TIP3   OH276327   1.682   2.613   4.902  0.1667  0.0942  0.7252
18279TIP3    H176328   1.745   2.644   4.967  0.2819  1.7095 -0.1090
18279TIP3    H276329   1.601   2.661   4.923  0.4180  1.2278 -0.7548
18280TIP3   OH276330   4.232   1.627  13.019  0.2606  0.3184 -0.0529
18280TIP3    H176331   4.220   1.679  13.099 -0.9408 -0.3935  0.2494
18280TIP3    H276332   4.326   1.632  13.002  0.2167  2.5612 -0.0211
18281TIP3   OH276333   4.964   2.353  13.109  0.3591 -0.3199  0.3216
18281TIP3    H176334   4.968   2.408  13.188  2.2605 -0.8651  0.6626
18281TIP3    H276335   4.962   2.415  13.037 -0.4734  0.1887  0.7662
18282TIP3   OH276336   4.569   4.207   0.462  0.0489 -0.0053  0.1096
18282TIP3    H176337   4.606   4.295   0.470 -0.5013  0.1574  1.0199
18282TIP3    H276338   4.534   4.204   0.373  1.6893  0.0347 -0.5757
18283TIP3   OH276339   0.749   4.565  15.392 -0.1223 -0.9900  0.4187
18283TIP3    H176340   0.710   4.648  15.419 -0.7963 -1.0451 -0.3577
18283TIP3    H276341   0.675   4.504  15.388 -0.3955 -0.6459 -2.9445
18284TIP3   OH276342   6.288   4.876  15.437 -0.6502  0.6574 -0.1703
18284TIP3    H176343   6.324   4.964  15.449 -1.6064  1.0128  0.1916
18284TIP3    H276344   6.210   4.890  15.383 -0.2329 -0.0992 -0.9894
18285TIP3   OH276345   5.503   5.156   0.583  0.0791  0.1167  0.6083
18285TIP3    H176346   5.463   5.242   0.595  1.2241  0.8025 -0.1801
18285TIP3    H276347   5.479   5.130   0.494  0.6003  0.1170  0.4621
18286TIP3   OH276348   1.005   1.820  13.786 -0.2913  0.0140 -0.0875
18286TIP3    H176349   1.040   1.889  13.842 -1.2145 -0.7297  1.4823
18286TIP3    H276350   1.064   1.745  13.801  0.0838  0.1267 -0.9571
18287TIP3   OH276351   5.026   4.718  12.053 -0.4725 -0.1548  0.3837
18287TIP3    H176352   4.957   4.754  12.109 -0.7916 -0.4171  0.1622
18287TIP3    H276353   4.982   4.651  12.000  0.4202 -1.9855  1.8565
18288TIP3   OH276354   6.280   4.669   5.916 -0.0708  0.1779 -0.4216
18288TIP3    H176355   6.295   4.704   5.829  0.6560 -0.4954 -0.5788
18288TIP3    H276356   6.286   4.574   5.905  0.7493  0.1114  0.4821
18289TIP3   OH276357   4.842   3.582   0.505  0.0916  0.3275 -0.1256
18289TIP3    H176358   4.880   3.515   0.561  0.7165 -0.0094 -0.9274
18289TIP3    H276359   4.914   3.610   0.448 -0.3286  1.2189 -0.2355
18290TIP3   OH276360   6.200   4.840  11.894 -0.5690 -0.1201  0.0473
18290TIP3    H176361   6.134   4.776  11.866 -1.7847  1.0372  0.1894
18290TIP3    H276362   6.205   4.828  11.989  1.8730 -2.4519 -0.2602
18291TIP3   OH276363   2.589   1.089   0.237  0.4067  0.3225 -0.0160
18291TIP3    H176364   2.529   1.163   0.232 -0.1385 -0.1891 -1.4764
18291TIP3    H276365   2.676   1.128   0.225  0.2962  0.9330  1.0606
18292TIP3   OH276366   5.931   3.270   1.021  0.2716 -0.7569  0.6050
18292TIP3    H176367   5.881   3.249   1.100  1.9600  1.9376  2.5695
18292TIP3    H276368   5.866   3.310   0.962 -0.6239 -0.8572  1.4849
18293TIP3   OH276369   2.795   6.015  12.528 -0.0255  0.1287  0.4682
18293TIP3    H176370   2.848   6.064  12.464  0.2139 -1.3890 -0.5588
18293TIP3    H276371   2.792   5.926  12.492  2.0908 -1.4528  3.7253
18294TIP3   OH276372   4.710   1.270  14.469 -0.5799 -0.3551 -0.0943
18294TIP3    H176373   4.756   1.352  14.452 -2.5216  0.9709  0.7562
18294TIP3    H276374   4.698   1.268  14.564 -0.0543 -1.9416 -0.0269
18295TIP3   OH276375   6.683   5.916   4.566  0.8400 -0.2334 -0.0342
18295TIP3    H176376   6.641   5.878   4.489 -0.2198  0.2365  0.2949
18295TIP3    H276377   6.623   5.896   4.638  1.7191 -0.4881  0.6388
18296TIP3   OH276378   0.585   0.757  11.850  0.7091 -0.0552 -0.6121
18296TIP3    H176379   0.562   0.791  11.764 -0.0086  0.1539 -0.3506
18296TIP3    H276380   0.679   0.769  11.858  0.7289  0.1992 -1.2488
18297TIP3   OH276381   6.582   5.588   6.165  0.2070  0.7281 -0.4106
18297TIP3    H176382   6.601   5.533   6.241  0.5913 -1.6274 -2.1026
18297TIP3    H276383   6.637   5.666   6.177  0.8837  0.0195  1.3020
18298TIP3   OH276384   3.981   6.000  14.367 -0.2318  0.0986  0.1455
18298TIP3    H176385   4.059   6.040  14.329  1.0967 -2.7153 -0.3991
18298TIP3    H276386   3.958   5.930  14.305 -1.3919 -1.0245  1.7739
18299TIP3   OH276387   1.144   5.947   3.260 -0.0658  0.1546 -0.3846
18299TIP3    H176388   1.215   6.001   3.297 -0.9449 -0.1060  1.8153
18299TIP3    H276389   1.129   5.985   3.173  0.6639  2.2145  0.3112
18300TIP3   OH276390   3.914   0.675   2.954  0.2750 -0.5257  0.4527
18300TIP3    H176391   3.915   0.725   3.036  1.0653 -0.0325  0.1569
18300TIP3    H276392   3.975   0.602   2.970 -0.4024 -1.0611  0.6677
18301TIP3   OH276393   4.608   4.183   1.748 -0.2121 -0.5335 -0.0686
18301TIP3    H176394   4.559   4.118   1.697 -1.4652  0.9210 -0.8053
18301TIP3    H276395   4.542   4.228   1.800  0.3310  1.2940 -0.8643
18302TIP3   OH276396   5.705   0.510   2.852  0.3106  0.3414  0.2852
18302TIP3    H176397   5.777   0.516   2.915  1.4124 -3.6674 -0.2534
18302TIP3    H276398   5.749   0.508   2.767 -0.4639 -1.0388 -0.1165
18303TIP3   OH276399   3.425   4.472   1.893 -0.4923  0.2299  0.0631
18303TIP3    H176400   3.505   4.438   1.934 -0.0348 -0.6256 -1.4805
18303TIP3    H276401   3.447   4.481   1.800 -2.3758 -0.5786 -0.5050
18304TIP3   OH276402   2.015   5.801   3.259  0.2846  0.1151 -0.0693
18304TIP3    H176403   2.066   5.799   3.178 -1.1988 -0.8550 -1.0354
18304TIP3    H276404   1.952   5.872   3.246  0.8147  0.7607  0.7660
18305TIP3   OH276405   4.259   3.676  13.945 -0.2531  0.1383  0.0668
18305TIP3    H176406   4.184   3.640  13.992 -0.5219  0.5287 -0.0540
18305TIP3    H276407   4.232   3.765  13.922  0.3441  0.3727  0.2438
18306TIP3   OH276408   1.150   5.644  12.205 -0.7403 -0.3802 -0.2515
18306TIP3    H176409   1.169   5.566  12.153  1.1107  0.9969 -1.7777
18306TIP3    H276410   1.197   5.631  12.287 -2.6485 -1.9986  0.6859
18307TIP3   OH276411   1.384   1.841  16.440  0.1987 -0.3814 -0.5616
18307TIP3    H176412   1.448   1.778  16.408  1.2330 -1.6320  3.4309
18307TIP3    H276413   1.428   1.926  16.430  1.3344 -0.9362 -0.4815
18308TIP3   OH276414   3.072   1.631   0.384 -0.0558  0.6734 -0.1944
18308TIP3    H176415   3.102   1.586   0.305  2.4443 -0.0310  1.0860
18308TIP3    H276416   3.146   1.686   0.410 -0.9034  1.0384  1.5618
18309TIP3   OH276417   3.213   0.718   2.795  0.0362  0.2661 -0.4800
18309TIP3    H176418   3.144   0.689   2.735  1.2669 -1.8629 -0.9639
18309TIP3    H276419   3.212   0.654   2.866  1.0767  0.5979 -0.1499
18310TIP3   OH276420   2.081   6.660   0.932  0.0211 -0.4621  0.1975
18310TIP3    H176421   2.136   6.725   0.976 -0.8369 -0.5124  1.3973
18310TIP3    H276422   2.100   6.578   0.976  0.1229 -0.7834 -0.4271
18311TIP3   OH276423   0.713   0.396  14.607 -0.2726 -0.5518  0.0292
18311TIP3    H176424   0.802   0.420  14.633 -0.7174  0.2247  0.8963
18311TIP3    H276425   0.723   0.315  14.557  0.9839 -0.0945 -0.4706
18312TIP3   OH276426   5.256   5.808  16.316 -0.5408  0.0976  0.0108
18312TIP3    H176427   5.281   5.803  16.224 -0.3088  0.5198  0.0488
18312TIP3    H276428   5.336   5.787  16.364 -0.1853  1.6106  0.1315
18313TIP3   OH276429   2.519   3.253  13.429  0.3307  0.2966  0.2490
18313TIP3    H176430   2.549   3.196  13.358  1.5539 -0.9958  1.7228
18313TIP3    H276431   2.504   3.337  13.388  0.5388 -0.5374 -1.6263
18314TIP3   OH276432   2.463   1.784  11.719  0.3863 -0.4814  0.5391
18314TIP3    H176433   2.416   1.742  11.647  0.0093 -0.2707  0.6617
18314TIP3    H276434   2.398   1.838  11.763  0.3588 -1.3909  1.6613
18315TIP3   OH276435   3.634   4.579  11.289 -0.3422  0.0375  0.7521
18315TIP3    H176436   3.677   4.498  11.314 -1.9309 -0.6256  1.4941
18315TIP3    H276437   3.559   4.551  11.236 -0.6365  1.0455  0.6115
18316TIP3   OH276438   2.340   1.737   1.487 -0.0937 -0.5250  0.1116
18316TIP3    H176439   2.329   1.828   1.459  1.0809 -1.1548 -2.6390
18316TIP3    H276440   2.422   1.737   1.536  0.5405 -0.2980 -0.9270
18317TIP3   OH276441   6.021   2.814   1.446  0.0684  0.2004 -0.1084
18317TIP3    H176442   6.066   2.898   1.439  0.1535  0.0386 -1.8941
18317TIP3    H276443   6.091   2.751   1.462 -0.0183  0.4648  1.4613
18318TIP3   OH276444   3.517   6.115  14.952 -0.0706  0.1706 -0.0489
18318TIP3    H176445   3.427   6.144  14.937  0.2787  1.6172  0.4392
18318TIP3    H276446   3.547   6.087  14.865 -0.7122  0.5421 -0.4031
18319TIP3   OH276447   0.659   1.963  11.656 -0.5451 -0.1453  0.0963
18319TIP3    H176448   0.704   1.922  11.730  0.6909  0.5084 -0.2686
18319TIP3    H276449   0.567   1.965  11.682 -0.2509 -0.7514  1.2281
18320TIP3   OH276450   4.127   6.754   5.856  0.2281  0.8601  0.2688
18320TIP3    H176451   4.091   6.762   5.944 -0.5734 -0.2150  0.0439
18320TIP3    H276452   4.090   6.673   5.821  2.8154 -0.3212  0.0151
18321TIP3   OH276453   3.188   1.789  13.289  0.1523 -0.2824 -0.5750
18321TIP3    H176454   3.189   1.693  13.279 -0.4162 -0.3564 -0.0114
18321TIP3    H276455   3.224   1.822  13.206  2.4000 -1.0243  0.0161
18322TIP3   OH276456   1.580   2.551   1.527 -0.2490 -0.5035  0.4082
18322TIP3    H176457   1.593   2.526   1.435 -0.6847  0.0498  0.1858
18322TIP3    H276458   1.608   2.475   1.577 -0.8288 -1.1452 -0.2200
18323TIP3   OH276459   6.160   5.051   2.926  0.5008 -0.3532 -0.1268
18323TIP3    H176460   6.134   4.984   2.989  0.2538 -1.3175 -1.2294
18323TIP3    H276461   6.214   5.005   2.861 -0.3628  0.3246 -1.3688
18324TIP3   OH276462   1.928   5.765  13.297 -0.7127  0.5272 -0.0722
18324TIP3    H176463   1.969   5.851  13.289 -0.3507  0.3739  0.0979
18324TIP3    H276464   1.981   5.708  13.242 -0.2059  0.1613  0.7652
18325TIP3   OH276465   2.747   5.710  15.688 -0.4483  0.4009  0.4925
18325TIP3    H176466   2.719   5.688  15.600 -0.2875  0.3404  0.4565
18325TIP3    H276467   2.677   5.767  15.722 -1.2820 -0.8219  0.8884
18326TIP3   OH276468   0.075   2.821   4.642 -0.4490  0.3897 -0.5825
18326TIP3    H176469   0.071   2.914   4.666 -0.0877  0.1648  0.3926
18326TIP3    H276470   0.169   2.802   4.638 -0.5273 -0.0084 -0.5033
18327TIP3   OH276471   5.021   2.612   4.879 -0.5887 -0.4238  0.0765
18327TIP3    H176472   5.023   2.682   4.813 -0.4521 -0.1839  0.3365
18327TIP3    H276473   5.075   2.645   4.951 -0.5335 -0.7917  0.2048
18328TIP3   OH276474   3.990   2.055  13.593 -0.3114  0.1324 -0.0594
18328TIP3    H176475   3.943   2.139  13.592  0.2200  0.4337  0.1517
18328TIP3    H276476   4.061   2.068  13.655  2.5523  1.0634 -3.2332
18329TIP3   OH276477   4.127   3.366   2.833 -0.2787  0.3706  0.1038
18329TIP3    H176478   4.091   3.364   2.922  1.1078  1.9173  0.7631
18329TIP3    H276479   4.060   3.325   2.779 -0.8924 -1.1807  1.9390
18330TIP3   OH276480   1.741   5.824   0.065 -0.3903  0.3719  0.0364
18330TIP3    H176481   1.658   5.777   0.067  0.7670 -2.0788 -2.4028
18330TIP3    H276482   1.760   5.837  -0.028  1.5870  1.5845  0.5304
18331TIP3   OH276483   0.283   0.388  13.489  0.5046  0.3561 -0.1845
18331TIP3    H176484   0.339   0.418  13.561  1.6123 -2.5078  0.2795
18331TIP3    H276485   0.343   0.377  13.415 -0.1546  0.7529 -0.7877
18332TIP3   OH276486   2.079   2.639   3.429 -0.1497  0.0999  0.0808
18332TIP3    H176487   2.124   2.648   3.512  0.0651  0.1445 -0.0398
18332TIP3    H276488   2.131   2.690   3.367  0.2985 -0.8116 -0.3133
18333TIP3   OH276489   2.117   5.378   2.942  0.2964 -0.1004 -0.6019
18333TIP3    H176490   2.042   5.338   2.897  0.5738  1.2580 -2.3820
18333TIP3    H276491   2.177   5.401   2.872  2.5767 -1.4102  0.8063
18334TIP3   OH276492   3.123   3.689  14.569  0.2812 -0.6224  0.0180
18334TIP3    H176493   3.075   3.606  14.565  0.3291 -0.6348 -0.3304
18334TIP3    H276494   3.055   3.757  14.562  0.3386 -0.6423 -0.8031
18335TIP3   OH276495   0.101   4.494  13.831 -0.0798 -0.2922 -0.3471
18335TIP3    H176496   0.093   4.516  13.738  1.5110  0.0464 -0.4302
18335TIP3    H276497   0.038   4.551  13.875  0.9400  1.4172 -0.9944
18336TIP3   OH276498   2.023   0.617   2.650 -0.1300 -1.0058 -0.4013
18336TIP3    H176499   1.933   0.593   2.628 -0.8861  1.6054 -0.4957
18336TIP3    H276500   2.073   0.602   2.570 -0.7298 -1.2836 -0.7260
18337TIP3   OH276501   3.587   0.979   3.435  0.3747 -0.3305 -0.0183
18337TIP3    H176502   3.491   0.980   3.437  0.3509 -1.8316  0.7811
18337TIP3    H276503   3.610   0.898   3.391  1.2743 -0.4085  0.5681
18338TIP3   OH276504   4.929   3.329   3.900  0.0694  0.1400  0.2549
18338TIP3    H176505   4.901   3.237   3.903 -0.9134  0.2481 -2.5579
18338TIP3    H276506   4.991   3.338   3.972  0.6294 -2.8876  0.2743
18339TIP3   OH276507   3.061   5.783  16.375 -1.0008 -0.5888 -0.0011
18339TIP3    H176508   3.061   5.866  16.328 -1.3617 -0.9480 -0.6411
18339TIP3    H276509   2.970   5.755  16.375 -1.0310 -0.5590  0.9953
18340TIP3   OH276510   2.226   6.136   2.910 -0.3985 -0.6159  0.5862
18340TIP3    H176511   2.250   6.229   2.910 -0.1126 -0.6803  1.3742
18340TIP3    H276512   2.137   6.135   2.875 -0.5315 -0.0036  0.8788
18341TIP3   OH276513   5.614   4.291  12.345 -0.0471 -0.3437 -0.5781
18341TIP3    H176514   5.685   4.348  12.372  0.8816 -0.8907 -1.7345
18341TIP3    H276515   5.540   4.316  12.400  0.6602  1.1407 -0.2488
18342TIP3   OH276516   5.306   2.669  12.894 -0.0402 -0.1249  0.0858
18342TIP3    H176517   5.253   2.737  12.935 -0.2790  0.7873 -1.6381
18342TIP3    H276518   5.380   2.657  12.954 -0.9110  0.3565  1.2977
18343TIP3   OH276519   6.149   5.897   1.088  0.1494 -0.9044 -0.6971
18343TIP3    H176520   6.150   5.946   1.006  0.6585 -0.5119 -0.4612
18343TIP3    H276521   6.180   5.959   1.154 -0.5613 -1.1202 -0.1484
18344TIP3   OH276522   1.853   2.116   0.288 -0.0352  0.5544  0.0122
18344TIP3    H176523   1.788   2.172   0.245 -1.8332 -0.0639  1.7467
18344TIP3    H276524   1.880   2.166   0.365  1.0703  0.5163 -0.3398
18345TIP3   OH276525   5.653   4.100  12.979  0.3405  0.6661 -0.1244
18345TIP3    H176526   5.573   4.149  12.957 -1.0772 -2.1373 -1.7520
18345TIP3    H276527   5.716   4.127  12.913 -0.3216  0.5785 -0.8118
18346TIP3   OH276528   2.164   1.949  17.117  0.6286  0.5953 -0.0562
18346TIP3    H176529   2.228   1.991  17.174 -0.3869  1.4547  0.4877
18346TIP3    H276530   2.209   1.938  17.034  1.3527  1.5457  0.1937
18347TIP3   OH276531   5.218   1.884   2.406 -0.0542 -0.7239 -0.1746
18347TIP3    H176532   5.267   1.966   2.412  0.4893 -0.7585 -2.9729
18347TIP3    H276533   5.134   1.904   2.449  0.2216  1.1681 -0.4260
18348TIP3   OH276534   4.846   3.068  12.767 -0.3596  0.3610 -0.1830
18348TIP3    H176535   4.770   3.088  12.822  0.2579 -0.5449  1.0543
18348TIP3    H276536   4.915   3.124  12.801 -0.0212 -0.0778 -0.1415
18349TIP3   OH276537   5.227   2.813   2.434 -0.0661  0.0705 -0.1797
18349TIP3    H176538   5.217   2.865   2.514 -1.8617 -1.1571  0.4635
18349TIP3    H276539   5.232   2.878   2.364 -2.1953  1.1677  0.6043
18350TIP3   OH276540   5.633   6.163  12.855 -0.2682 -0.1212  0.2511
18350TIP3    H176541   5.538   6.179  12.858 -0.2375  0.2177 -0.3447
18350TIP3    H276542   5.671   6.248  12.877 -0.1027 -0.3832  0.9778
18351TIP3   OH276543   4.138   1.852   5.056 -0.5441 -0.0463  0.3155
18351TIP3    H176544   4.211   1.867   4.996 -0.9721  1.6226  0.1684
18351TIP3    H276545   4.179   1.845   5.142 -0.0535 -1.0750  0.0162
18352TIP3   OH276546   0.804   1.215   5.032 -0.8900 -0.5215 -0.1615
18352TIP3    H176547   0.729   1.268   5.058 -1.4096 -0.4354 -1.7598
18352TIP3    H276548   0.797   1.207   4.937  1.4256 -0.0167 -0.4609
18353TIP3   OH276549   3.275   6.208   2.401 -0.2778 -0.2883  0.6525
18353TIP3    H176550   3.346   6.173   2.348  1.0373  0.7585  1.6262
18353TIP3    H276551   3.269   6.300   2.375 -0.4227 -0.0619  1.4520
18354TIP3   OH276552   4.617   4.335  11.600  0.2549  0.7023  0.1244
18354TIP3    H176553   4.622   4.242  11.579 -1.1223  0.6737 -0.1534
18354TIP3    H276554   4.562   4.339  11.679  0.4101  1.2768  0.2086
18355TIP3   OH276555   6.779   3.627  14.619 -0.3417 -0.6643 -0.0072
18355TIP3    H176556   6.687   3.653  14.617 -0.3421 -0.6747 -0.1201
18355TIP3    H276557   6.812   3.664  14.701 -0.5542 -1.0289  0.2446
18356TIP3   OH276558   1.443   2.006  13.084 -0.0324  0.1247  0.0303
18356TIP3    H176559   1.494   1.951  13.143  0.8277  0.0009 -0.8123
18356TIP3    H276560   1.414   2.079  13.139  0.5582 -0.0996  0.6567
18357TIP3   OH276561   4.723   3.511  16.202 -0.1737  0.4801 -0.0820
18357TIP3    H176562   4.739   3.472  16.117 -1.4814 -0.0939 -0.0952
18357TIP3    H276563   4.734   3.439  16.264 -2.6829 -0.0369 -0.1106
18358TIP3   OH276564   3.463   4.686   4.463  0.0611  0.1346  0.4427
18358TIP3    H176565   3.538   4.741   4.483  0.1881 -0.5993  2.1339
18358TIP3    H276566   3.498   4.597   4.458 -0.4080 -0.0052 -0.6026
18359TIP3   OH276567   1.772   0.601   0.100 -0.6798 -0.1568  0.2323
18359TIP3    H176568   1.829   0.605   0.023  0.6100  0.5513  1.2096
18359TIP3    H276569   1.684   0.617   0.065 -0.0969  0.3208 -1.0632
18360TIP3   OH276570   6.584   1.842  12.882  0.0548 -0.6733  0.5909
18360TIP3    H176571   6.627   1.762  12.854  1.6100  0.5863 -0.8266
18360TIP3    H276572   6.491   1.826  12.867  0.2462 -2.4635  1.0842
18361TIP3   OH276573   3.695   5.721   1.581  0.2431  0.0021 -0.2545
18361TIP3    H176574   3.784   5.703   1.551 -0.0640  0.8032 -1.7165
18361TIP3    H276575   3.679   5.655   1.649  1.8112 -0.3747 -0.2191
18362TIP3   OH276576   1.927   5.694  15.182  0.3959 -0.1151 -0.1980
18362TIP3    H176577   1.877   5.619  15.213 -0.8950  0.5605 -0.5659
18362TIP3    H276578   2.018   5.672  15.201 -0.0153 -1.4712  0.3072
18363TIP3   OH276579   0.264   6.380   2.057  0.3292 -0.1866  0.2859
18363TIP3    H176580   0.200   6.341   2.117 -1.3094  1.4831 -0.2994
18363TIP3    H276581   0.349   6.361   2.097 -0.5872 -1.2776  1.8117
18364TIP3   OH276582   6.630   6.796  13.902  0.5282  0.0055  0.2319
18364TIP3    H176583   6.669   6.738  13.836 -0.7416 -1.0722  0.3960
18364TIP3    H276584   6.704   6.819  13.959  1.4899  0.3274 -1.0939
18365TIP3   OH276585   1.413   5.596   3.158 -0.5274 -0.0512  0.0307
18365TIP3    H176586   1.365   5.592   3.241  1.2435 -1.8751  1.0585
18365TIP3    H276587   1.429   5.689   3.144 -2.0464  0.3947  1.0172
18366TIP3   OH276588   0.755   5.507  12.160  0.3082  0.4647  0.0225
18366TIP3    H176589   0.794   5.542  12.240 -1.3599  3.0802 -0.1974
18366TIP3    H276590   0.744   5.582  12.103 -0.8578 -0.9180 -1.6955
18367TIP3   OH276591   1.337   4.860   1.715  0.1344  0.0731 -0.5224
18367TIP3    H176592   1.268   4.806   1.677  0.1478 -1.5105  1.5110
18367TIP3    H276593   1.416   4.808   1.706  0.7973  1.1937 -1.4127
18368TIP3   OH276594   1.309   5.426   6.495 -0.3426 -0.1275 -0.0842
18368TIP3    H176595   1.266   5.345   6.468 -0.2652  0.1396 -1.0327
18368TIP3    H276596   1.273   5.493   6.437  0.1853  0.3814  0.1670
18369TIP3   OH276597   6.703   3.279  15.725 -0.3295 -0.1629 -0.1286
18369TIP3    H176598   6.792   3.244  15.729  0.0987  0.8425 -0.4141
18369TIP3    H276599   6.677   3.268  15.633 -0.6551 -0.8297  0.0462
18370TIP3   OH276600   2.627   0.299   6.088 -0.8466 -0.0785 -0.1482
18370TIP3    H176601   2.669   0.216   6.107  0.5939  0.5973 -0.2522
18370TIP3    H276602   2.571   0.316   6.164 -1.6061 -1.3872 -0.3824
18371TIP3   OH276603   0.154   5.941   3.809 -0.4025  0.0603 -0.0442
18371TIP3    H176604   0.066   5.928   3.774 -0.4705 -0.2126  0.2140
18371TIP3    H276605   0.139   5.981   3.895 -0.1822  2.2472 -0.9584
18372TIP3   OH276606   6.768   6.601  15.333 -0.4567 -0.1220  0.5002
18372TIP3    H176607   6.840   6.566  15.281  1.2885  3.0836  0.5394
18372TIP3    H276608   6.693   6.601  15.273  0.9588  1.4259 -1.3956
18373TIP3   OH276609   3.261   5.621  11.252 -0.2875  0.0940  0.0239
18373TIP3    H176610   3.270   5.549  11.189 -0.1902  1.0678 -1.1071
18373TIP3    H276611   3.322   5.688  11.222  1.8013 -0.4328  2.7340
18374TIP3   OH276612   4.242   6.633   0.410 -0.3006 -0.2960  0.0817
18374TIP3    H176613   4.206   6.651   0.323 -0.2305 -0.8026 -0.0560
18374TIP3    H276614   4.194   6.691   0.468  0.9030  1.3858 -0.5319
18375TIP3   OH276615   0.634   0.262   6.008 -0.5704  0.3706  0.2749
18375TIP3    H176616   0.572   0.239   6.077 -1.1251 -2.7177 -1.0912
18375TIP3    H276617   0.716   0.220   6.034 -0.6500 -0.4013 -0.6512
18376TIP3   OH276618   5.577   3.150  12.606  0.2813 -0.0899 -0.5998
18376TIP3    H176619   5.627   3.113  12.679  1.6461  2.7528  0.0281
18376TIP3    H276620   5.580   3.082  12.539  2.1411 -1.3517  0.6595
18377TIP3   OH276621   4.752   4.370  13.286 -0.5530  0.2252  0.0774
18377TIP3    H176622   4.694   4.358  13.362  0.2809  2.8370  1.2222
18377TIP3    H276623   4.695   4.355  13.211 -1.3394 -2.7760  1.1127
18378TIP3   OH276624   0.797   0.824   2.941 -0.3793 -0.6813 -0.5751
18378TIP3    H176625   0.765   0.832   2.851 -2.3056  1.1292  0.2081
18378TIP3    H276626   0.727   0.859   2.995  1.3860 -0.2208  1.5451
18379TIP3   OH276627   1.410   6.548   0.837 -0.0149 -0.3716  0.2383
18379TIP3    H176628   1.355   6.481   0.797  0.4735 -0.9736  0.5556
18379TIP3    H276629   1.437   6.603   0.764 -0.9544 -0.1237  0.0675
18380TIP3   OH276630   2.125   5.734   3.904  0.5466  0.4392  0.0767
18380TIP3    H176631   2.106   5.755   3.995 -0.3635 -0.2994  0.0709
18380TIP3    H276632   2.185   5.661   3.908  2.2135  1.7443  0.0772
18381TIP3   OH276633   1.312   2.931  11.769  0.1118  0.1643 -0.1382
18381TIP3    H176634   1.401   2.943  11.738 -0.1166  0.4844 -0.6959
18381TIP3    H276635   1.273   2.868  11.709 -0.5764  1.3896 -1.0210
18382TIP3   OH276636   4.686   5.485  15.500 -0.2502  0.2790  0.1773
18382TIP3    H176637   4.770   5.443  15.522  0.7071  1.9116 -0.1502
18382TIP3    H276638   4.648   5.507  15.585  0.4405  0.9536  0.3264
18383TIP3   OH276639   0.788   2.466   2.195  0.2430 -0.2639 -0.3622
18383TIP3    H176640   0.814   2.422   2.114  1.0054  0.8205 -0.7171
18383TIP3    H276641   0.716   2.412   2.229 -1.1710  0.1166 -2.5551
18384TIP3   OH276642   2.430   3.482   4.963  0.4643 -0.2323  0.3174
18384TIP3    H176643   2.482   3.469   5.042 -0.2335 -1.1399  0.6490
18384TIP3    H276644   2.408   3.393   4.934 -2.7670  0.0395  1.4676
18385TIP3   OH276645   4.863   4.534   0.622  0.0322  0.2226  0.3340
18385TIP3    H176646   4.923   4.591   0.575  0.1174  0.8594  1.1781
18385TIP3    H276647   4.857   4.455   0.568  1.6462  0.1263  0.2411
18386TIP3   OH276648   5.891   0.341   1.759 -0.2682  0.1928  0.5070
18386TIP3    H176649   5.909   0.433   1.779  0.3980  0.4449 -1.0998
18386TIP3    H276650   5.801   0.327   1.789 -0.3798  1.3628  0.7759
18387TIP3   OH276651   5.093   4.120  11.953  0.3044  0.2779 -0.4921
18387TIP3    H176652   5.019   4.115  11.892  0.3529  0.8959 -0.6037
18387TIP3    H276653   5.168   4.091  11.902  0.0304 -1.0606 -0.1728
18388TIP3   OH276654   4.121   5.652  14.848 -0.2238 -0.0544  0.2574
18388TIP3    H176655   4.118   5.728  14.907 -0.0903  0.3890 -0.2938
18388TIP3    H276656   4.138   5.690  14.761 -3.1632 -0.3972 -0.5716
18389TIP3   OH276657   4.230   4.059  11.264  0.5875 -0.2720 -0.0387
18389TIP3    H176658   4.241   4.049  11.359  0.3294 -1.3772 -0.1088
18389TIP3    H276659   4.211   3.971  11.233  0.2547  0.1467 -1.0709
18390TIP3   OH276660   6.158   3.367  11.082 -0.1981 -0.3163 -0.4916
18390TIP3    H176661   6.065   3.345  11.091 -0.5869  1.4799  0.2233
18390TIP3    H276662   6.165   3.456  11.115  1.6059 -0.0142 -1.5642
18391TIP3   OH276663   6.495   4.700  15.399  0.7080 -0.4901 -0.5985
18391TIP3    H176664   6.411   4.742  15.416  0.7324 -1.1526  1.4695
18391TIP3    H276665   6.485   4.660  15.312 -1.1047 -0.5577 -0.3913
18392TIP3   OH276666   5.188   0.277  14.423  0.3695  0.1185 -0.2505
18392TIP3    H176667   5.118   0.284  14.358 -0.8933 -0.4726  1.0165
18392TIP3    H276668   5.203   0.368  14.451 -0.3508  0.1864 -0.0596
18393TIP3   OH276669   0.497   1.140  10.587  0.4630 -0.1656  0.6325
18393TIP3    H176670   0.515   1.061  10.637 -0.4635 -0.2064  0.9242
18393TIP3    H276671   0.402   1.141  10.577  0.6217 -0.2584 -1.2950
18394TIP3   OH276672   2.303   0.685  16.944 -0.1128  0.0105  0.1221
18394TIP3    H176673   2.282   0.605  16.992  1.4633 -0.9845 -0.7780
18394TIP3    H276674   2.230   0.744  16.963 -1.4225 -1.7045  0.6213
18395TIP3   OH276675   0.602   4.666   5.781 -0.0028  0.1538 -0.7269
18395TIP3    H176676   0.627   4.740   5.836  2.0295  0.0366 -1.4133
18395TIP3    H276677   0.509   4.680   5.763  0.1444  2.0940 -0.1954
18396TIP3   OH276678   2.840   5.808   3.974 -0.1723  0.5237 -0.4035
18396TIP3    H176679   2.883   5.772   3.896 -0.9917 -1.9051  0.1964
18396TIP3    H276680   2.896   5.782   4.047 -1.7516 -1.2927  0.2325
18397TIP3   OH276681   2.080   4.686   1.461  0.8893 -0.7469  0.2535
18397TIP3    H176682   2.166   4.680   1.418  0.4510  0.3853 -0.8319
18397TIP3    H276683   2.024   4.627   1.410  0.5577 -0.0024 -0.2486
18398TIP3   OH276684   3.213   6.224  14.520  0.6733 -0.2526  0.0880
18398TIP3    H176685   3.255   6.153  14.471  1.5052 -0.1960  0.7000
18398TIP3    H276686   3.249   6.304  14.481  0.0707 -0.1609 -0.3045
18399TIP3   OH276687   6.397   0.522   2.457  0.0725  0.5965 -0.2684
18399TIP3    H176688   6.395   0.431   2.487  0.8436  0.3144 -1.0137
18399TIP3    H276689   6.306   0.544   2.437 -0.0649 -0.1577 -0.4906
18400TIP3   OH276690   6.404   4.922  10.840  0.1146  0.4075 -0.0463
18400TIP3    H176691   6.428   4.915  10.748 -0.6697  0.3033 -0.2548
18400TIP3    H276692   6.399   4.832  10.870  0.9687  0.4546  0.2724
18401TIP3   OH276693   1.388   0.252   4.851 -0.0651  0.2753 -0.3497
18401TIP3    H176694   1.459   0.276   4.911 -0.5159 -0.1932  0.3795
18401TIP3    H276695   1.330   0.196   4.903 -2.0892  2.3125 -0.2810
18402TIP3   OH276696   1.051   6.313   4.166 -0.6981 -0.2313  0.3128
18402TIP3    H176697   1.050   6.243   4.101  0.5348 -0.5234  0.5774
18402TIP3    H276698   1.129   6.296   4.218  0.0334  1.7173 -0.0569
18403TIP3   OH276699   6.032   1.668   4.165 -0.1972  0.4337  0.0617
18403TIP3    H176700   5.973   1.606   4.210  0.4878  0.2855  0.7730
18403TIP3    H276701   6.119   1.645   4.197  0.2860  0.4560 -1.2203
18404TIP3   OH276702   2.810   5.332  13.087  0.3663 -0.1940  0.0502
18404TIP3    H176703   2.766   5.401  13.037  0.0895  0.2081  0.8214
18404TIP3    H276704   2.797   5.252  13.035  2.1170  0.5768 -1.7036
18405TIP3   OH276705   6.142   3.972   1.061 -0.1179  0.3080 -0.3589
18405TIP3    H176706   6.215   3.914   1.080  0.2162  0.1750 -1.8895
18405TIP3    H276707   6.183   4.050   1.022 -0.7919 -0.1729 -2.1573
18406TIP3   OH276708   4.607   3.469   4.180  0.3147 -0.2509  0.2249
18406TIP3    H176709   4.699   3.491   4.165  0.8408 -2.9229 -1.0658
18406TIP3    H276710   4.566   3.475   4.094 -0.7482  0.7667  0.7644
18407TIP3   OH276711   2.136   0.289   0.604 -0.4541  0.1963 -0.4705
18407TIP3    H176712   2.227   0.273   0.579 -0.7629 -0.7338 -1.0356
18407TIP3    H276713   2.105   0.205   0.637 -0.7232  0.8473  1.0098
18408TIP3   OH276714   6.701   2.952  11.538 -0.0263  0.6992 -0.0995
18408TIP3    H176715   6.754   3.012  11.591 -1.0317  1.4588  0.0643
18408TIP3    H276716   6.620   3.000  11.521 -0.5302 -0.3168 -0.6308
18409TIP3   OH276717   0.973   1.362   2.041 -0.5196 -0.0434 -0.7300
18409TIP3    H176718   0.934   1.322   1.964 -0.2857 -0.0996 -0.8208
18409TIP3    H276719   0.993   1.289   2.099  2.0501 -0.3513 -1.8526
18410TIP3   OH276720   4.345   0.998   0.158 -0.5541 -0.3882  0.2488
18410TIP3    H176721   4.283   0.974   0.226 -0.5469 -0.6310  0.1707
18410TIP3    H276722   4.293   1.049   0.095 -0.7097 -0.7196  0.1078
18411TIP3   OH276723   4.045   3.567  10.774 -0.7134 -0.6626  0.2258
18411TIP3    H176724   4.123   3.513  10.787 -0.7241 -0.4908  1.0351
18411TIP3    H276725   3.975   3.505  10.753 -0.5242 -0.8784  0.2365
18412TIP3   OH276726   5.816   1.080  14.528  0.1615  0.5157  0.0804
18412TIP3    H176727   5.778   1.095  14.615  1.4025 -0.2502  0.7843
18412TIP3    H276728   5.886   1.145  14.522  0.3363  0.3021 -0.1816
18413TIP3   OH276729   3.040   2.678  17.148  0.6596 -0.1645  0.4966
18413TIP3    H176730   3.060   2.716  17.062 -0.4772 -1.6735 -0.4977
18413TIP3    H276731   2.966   2.620  17.131 -0.4529  0.4985  2.7825
18414TIP3   OH276732   5.779   5.496  13.161 -0.5510 -0.2124 -0.0052
18414TIP3    H176733   5.802   5.516  13.251  1.3766 -1.2649 -0.2093
18414TIP3    H276734   5.703   5.552  13.142 -1.2735 -0.2921  2.3713
18415TIP3   OH276735   0.957   5.865  13.181 -0.1746  1.1201  0.0586
18415TIP3    H176736   0.970   5.960  13.172 -1.3934  1.5148  1.7085
18415TIP3    H276737   0.871   5.849  13.141 -0.0491  0.7380 -0.0625
18416TIP3   OH276738   4.912   6.531  16.835 -0.3643  0.2728 -0.2759
18416TIP3    H176739   4.845   6.594  16.863 -0.1781 -0.2804  1.5530
18416TIP3    H276740   4.974   6.583  16.784 -1.2604  1.1491 -0.5156
18417TIP3   OH276741   5.151   0.830   3.432 -0.2341  0.3056 -0.6520
18417TIP3    H176742   5.167   0.752   3.379 -2.4968 -0.8479  0.2139
18417TIP3    H276743   5.238   0.856   3.464  1.0726  0.4359 -3.9513
18418TIP3   OH276744   5.808   0.637   0.660  0.0660  0.6188  0.5455
18418TIP3    H176745   5.863   0.714   0.679  1.2028 -0.0540  0.1026
18418TIP3    H276746   5.865   0.562   0.679  0.2980 -0.1013 -2.5235
18419TIP3   OH276747   4.457   5.863   0.487 -0.0234  0.1090  0.3583
18419TIP3    H176748   4.541   5.872   0.531  0.3306  1.3286 -0.5201
18419TIP3    H276749   4.438   5.950   0.453 -0.1231 -0.8093 -2.1364
18420TIP3   OH276750   6.124   0.168   1.087  0.2362 -0.2725 -0.6284
18420TIP3    H176751   6.121   0.073   1.098 -1.3404 -0.2048 -0.2441
18420TIP3    H276752   6.138   0.201   1.176 -0.7254 -0.1033 -0.5356
18421TIP3   OH276753   3.713   2.984   1.035  0.2321  0.5274 -0.1490
18421TIP3    H176754   3.635   2.960   0.985  0.1353 -2.9618  1.4023
18421TIP3    H276755   3.760   3.045   0.978 -2.5551  1.1249 -2.0133
18422TIP3   OH276756   1.173   2.996   4.364  0.2696  0.8507  0.2998
18422TIP3    H176757   1.106   3.056   4.398 -0.2420  0.3505  0.1825
18422TIP3    H276758   1.239   2.993   4.433  1.0957  2.7750 -0.3265
18423TIP3   OH276759   4.949   3.271  15.046 -0.2260 -0.1476 -0.2315
18423TIP3    H176760   4.873   3.212  15.046  0.5500 -1.1611 -0.1742
18423TIP3    H276761   5.020   3.220  15.085 -0.2070  1.7139  2.4743
18424TIP3   OH276762   3.746   0.334   1.070  0.4064  0.2605 -0.5746
18424TIP3    H176763   3.733   0.313   1.163 -1.4166  3.0126 -0.0968
18424TIP3    H276764   3.838   0.315   1.054  0.1536 -2.9799  0.9725
18425TIP3   OH276765   6.606   5.998   1.749 -0.2988 -0.0957 -0.7063
18425TIP3    H176766   6.515   6.025   1.734 -0.3743 -0.2645 -0.5588
18425TIP3    H276767   6.656   6.045   1.683 -0.1323  2.0955  0.8806
18426TIP3   OH276768   4.710   6.511  13.079  0.3414  0.0415 -0.1945
18426TIP3    H176769   4.630   6.466  13.052  1.6209 -1.7853 -1.1767
18426TIP3    H276770   4.716   6.588  13.022  0.5329 -1.1773 -1.8889
18427TIP3   OH276771   0.709   6.261  16.581  0.3830  0.2498  0.1663
18427TIP3    H176772   0.622   6.233  16.554  0.2864 -0.1830  0.8998
18427TIP3    H276773   0.723   6.344  16.534  1.1732 -1.5218 -3.0503
18428TIP3   OH276774   0.880   0.395  15.160 -0.1312 -0.5051  0.2683
18428TIP3    H176775   0.796   0.349  15.153  0.1805 -0.9265 -0.8295
18428TIP3    H276776   0.864   0.462  15.227 -1.0816 -1.1338  0.6998
18429TIP3   OH276777   1.337   6.516   1.915 -0.4378  0.1537 -0.0153
18429TIP3    H176778   1.366   6.559   1.995 -1.3397  0.6332  0.0758
18429TIP3    H276779   1.416   6.508   1.861 -0.4689  3.6343 -0.8232
18430TIP3   OH276780   5.089   0.181   6.779 -0.2176 -0.7903  0.0636
18430TIP3    H176781   5.167   0.132   6.805  0.9320  0.5594 -0.7101
18430TIP3    H276782   5.086   0.172   6.683 -0.1731  0.3513 -0.0599
18431TIP3   OH276783   5.230   4.357   5.691 -0.0880  1.0002  0.2579
18431TIP3    H176784   5.263   4.292   5.629 -2.4205  0.8965 -0.9870
18431TIP3    H276785   5.207   4.433   5.638 -0.2509  1.6953  1.2845
18432TIP3   OH276786   1.626   0.162   3.547  0.2113 -0.0061 -0.3481
18432TIP3    H176787   1.707   0.206   3.519 -0.2300  0.3825 -1.0548
18432TIP3    H276788   1.590   0.125   3.466  0.2020 -1.0693  0.1209
18433TIP3   OH276789   1.684   1.429   4.037 -1.0599 -0.2736  0.5044
18433TIP3    H176790   1.604   1.378   4.023 -0.6756 -0.7977  0.1784
18433TIP3    H276791   1.718   1.445   3.949  0.1151 -1.5575  0.6837
18434TIP3   OH276792   3.467   5.971   0.288  0.2256 -0.1545 -0.3912
18434TIP3    H176793   3.451   6.064   0.271 -0.5523 -0.2361 -0.1706
18434TIP3    H276794   3.530   5.945   0.221 -3.0610 -0.5879 -3.6425
18435TIP3   OH276795   4.365   6.714  12.466  0.2599  0.4011 -0.0230
18435TIP3    H176796   4.296   6.743  12.525 -0.3446 -1.1560  0.0923
18435TIP3    H276797   4.319   6.669  12.395  1.1031 -0.0912 -0.2785
18436TIP3   OH276798   2.435   1.378   5.749 -0.1682  0.6668 -0.7531
18436TIP3    H176799   2.441   1.291   5.789  0.9014  1.8937  2.0591
18436TIP3    H276800   2.349   1.411   5.775  0.9128  1.8585  1.6582
18437TIP3   OH276801   5.248   4.662  11.496 -0.3604 -0.1187  0.2344
18437TIP3    H176802   5.299   4.628  11.569  0.0938 -1.1777 -0.5558
18437TIP3    H276803   5.268   4.604  11.423 -0.2129  1.3546 -0.9535
18438TIP3   OH276804   5.581   6.749  15.499  0.3961 -0.3323  0.5214
18438TIP3    H176805   5.665   6.703  15.512 -0.5895 -1.6079  3.1151
18438TIP3    H276806   5.595   6.835  15.538  1.4831  0.8475 -2.1864
18439TIP3   OH276807   4.019   6.180   2.130 -0.4032  0.3123  0.6928
18439TIP3    H176808   4.031   6.269   2.098 -1.1382  0.1882  0.0493
18439TIP3    H276809   4.061   6.124   2.065 -0.8137  0.1323  0.5768
18440TIP3   OH276810   3.162   0.961  14.919  0.2731 -0.3615 -0.3882
18440TIP3    H176811   3.071   0.932  14.924  0.4137 -0.9593 -1.0133
18440TIP3    H276812   3.209   0.885  14.885  0.7416  0.4317 -1.5982
18441TIP3   OH276813   4.670   4.668  13.021 -0.6702 -0.0920 -0.1427
18441TIP3    H176814   4.751   4.620  13.006 -1.1363 -1.0349  0.2644
18441TIP3    H276815   4.611   4.638  12.952 -1.4145 -1.1840  0.9203
18442TIP3   OH276816   6.423   3.158  17.189  0.0157  0.3348 -0.7257
18442TIP3    H176817   6.458   3.188  17.105 -1.8701  1.3925 -1.2011
18442TIP3    H276818   6.362   3.226  17.216 -2.3062 -1.6984 -0.4216
18443TIP3   OH276819   6.502   2.260   2.669  0.3201 -0.0799  0.0244
18443TIP3    H176820   6.556   2.248   2.747 -0.1794 -2.6236  0.0741
18443TIP3    H276821   6.552   2.220   2.598  0.4654  1.6069 -0.8918
18444TIP3   OH276822   4.077   4.813   4.950  0.1531 -0.0978 -0.1824
18444TIP3    H176823   4.077   4.819   5.046  1.2675 -0.9241 -0.1052
18444TIP3    H276824   4.150   4.869   4.922 -1.0435  1.2801 -0.6716
18445TIP3   OH276825   5.930   2.504   0.060  0.6295 -0.8636 -0.4060
18445TIP3    H176826   6.009   2.546   0.026  1.2047 -1.5575  0.0594
18445TIP3    H276827   5.953   2.412   0.069  0.4982 -0.7279  1.8257
18446TIP3   OH276828   5.921   1.701  16.834  0.0210  0.1311 -0.7096
18446TIP3    H176829   5.929   1.718  16.928  0.2551 -0.1988 -0.6713
18446TIP3    H276830   5.934   1.607  16.825  1.5985  0.3708 -1.2412
18447TIP3   OH276831   0.909   2.141   3.520  0.2984 -0.4489 -0.2399
18447TIP3    H176832   0.929   2.137   3.613  0.3785 -0.4769 -0.2578
18447TIP3    H276833   0.994   2.126   3.477  0.1558 -1.0643 -0.3191
18448TIP3   OH276834   1.528   2.223  11.294  0.2284  0.1899 -0.5517
18448TIP3    H176835   1.620   2.218  11.267  0.8929 -0.4380  1.6141
18448TIP3    H276836   1.502   2.313  11.274  1.7637  0.8022  0.0665
18449TIP3   OH276837   0.983   4.067   0.058 -0.2300 -0.3492 -0.0123
18449TIP3    H176838   0.887   4.064   0.048 -0.2046  1.4094 -1.2264
18449TIP3    H276839   0.996   4.098   0.148 -0.8027 -0.6086  0.1690
18450TIP3   OH276840   5.908   4.956   5.324 -0.3082  0.0343  0.6607
18450TIP3    H176841   5.834   4.944   5.383 -1.2988 -0.4930 -0.6498
18450TIP3    H276842   5.895   5.043   5.286 -1.4939 -0.8971 -1.1885
18451TIP3   OH276843   4.672   3.281   4.922  0.7856  0.4490  0.1129
18451TIP3    H176844   4.623   3.212   4.968  3.1131 -2.3692 -1.3456
18451TIP3    H276845   4.653   3.266   4.830  3.1943  0.1684 -0.3876
18452TIP3   OH276846   4.910   4.370   2.723 -0.3177  0.5884 -0.1008
18452TIP3    H176847   4.850   4.299   2.699  0.8509 -0.2307 -0.6858
18452TIP3    H276848   4.990   4.327   2.752  0.2788  1.6616 -0.0683
18453TIP3   OH276849   3.941   6.542   0.138  0.3922 -0.1080  0.6803
18453TIP3    H176850   3.914   6.451   0.125 -0.8467  0.4348 -0.9255
18453TIP3    H276851   3.872   6.580   0.194  1.7130 -0.5020  2.6527
18454TIP3   OH276852   1.265   1.049  16.769 -0.6286  0.0635  0.5769
18454TIP3    H176853   1.322   1.006  16.833 -1.3884 -1.6304  0.1675
18454TIP3    H276854   1.199   1.094  16.822 -0.5132 -0.2576  0.9969
18455TIP3   OH276855   3.630   6.396   2.053  0.2706  0.0781  0.0333
18455TIP3    H176856   3.650   6.447   1.975 -2.0557 -0.1923 -0.8370
18455TIP3    H276857   3.642   6.305   2.027  1.6317  0.0419  0.7080
18456TIP3   OH276858   0.876   0.366   3.613 -0.2257  0.0767 -0.0663
18456TIP3    H176859   0.843   0.291   3.564  3.7846 -2.1317  0.1838
18456TIP3    H276860   0.943   0.405   3.556  1.1481  0.4146  1.6781
18457TIP3   OH276861   4.172   6.545   3.812  0.1740 -0.5145  0.6500
18457TIP3    H176862   4.148   6.490   3.886 -2.7298  1.4424  1.3425
18457TIP3    H276863   4.178   6.633   3.849  1.1613  0.1721 -1.0285
18458TIP3   OH276864   2.361   6.039  15.505  0.1533 -0.2690 -0.0827
18458TIP3    H176865   2.311   5.976  15.557 -1.1521 -0.7761 -1.8698
18458TIP3    H276866   2.346   6.123  15.548 -0.9725 -0.6575  0.3106
18459TIP3   OH276867   0.385   3.193  11.228 -0.0712 -0.3234  0.4241
18459TIP3    H176868   0.414   3.204  11.318 -0.3657 -0.2892  0.5162
18459TIP3    H276869   0.399   3.100  11.210 -0.3715 -0.4135  0.6371
18460TIP3   OH276870   5.842   5.897   3.704  0.1641  0.6480 -0.4201
18460TIP3    H176871   5.804   5.810   3.688  1.5400 -0.3231  1.2668
18460TIP3    H276872   5.933   5.888   3.677  0.1694  1.7846 -0.8260
18461TIP3   OH276873   3.699   4.638  15.975 -0.0264  0.4870  0.4681
18461TIP3    H176874   3.677   4.568  15.913 -1.4086  0.6279  0.7838
18461TIP3    H276875   3.724   4.592  16.055  2.1088  0.2898 -0.2333
18462TIP3   OH276876   5.727   1.360   5.843  0.3343 -0.8524  0.2519
18462TIP3    H176877   5.643   1.333   5.807 -0.2726 -0.0432  1.0202
18462TIP3    H276878   5.709   1.444   5.886  1.9709  0.4628 -1.4474
18463TIP3   OH276879   5.966   5.510  12.242  0.9034  0.6155 -0.6877
18463TIP3    H176880   5.883   5.542  12.278  1.1702  0.5165  0.0180
18463TIP3    H276881   5.948   5.419  12.219  0.2443  1.1392 -2.3796
18464TIP3   OH276882   5.655   5.099  13.187  0.1375 -0.3516 -0.4032
18464TIP3    H176883   5.618   5.152  13.117 -1.7568 -1.5970 -0.4063
18464TIP3    H276884   5.580   5.055  13.227  1.5249 -2.3680  0.1541
18465TIP3   OH276885   5.514   0.632  12.268 -0.2053  0.4131 -0.5898
18465TIP3    H176886   5.483   0.553  12.314 -1.7102  1.7040  0.7558
18465TIP3    H276887   5.550   0.687  12.338 -1.2554  1.8583 -1.1523
18466TIP3   OH276888   5.112   4.746  14.722  0.5533  0.0704 -0.1254
18466TIP3    H176889   5.090   4.706  14.806  1.3098 -0.3280 -0.1102
18466TIP3    H276890   5.073   4.689  14.657  0.9820 -0.2745 -0.0800
18467TIP3   OH276891   2.346   3.470  17.137  0.3876  0.0224  0.5011
18467TIP3    H176892   2.346   3.403  17.204  0.8162 -0.3135  0.1711
18467TIP3    H276893   2.395   3.432  17.064  0.6287  0.6855  0.3037
18468TIP3   OH276894   5.704   4.891   2.584  0.1602  0.1902 -0.1629
18468TIP3    H176895   5.655   4.867   2.505 -0.0300  1.6183 -0.5089
18468TIP3    H276896   5.678   4.825   2.649  1.0492 -1.5802 -1.5244
18469TIP3   OH276897   5.076   6.216  16.963 -0.6249  0.3348  0.2479
18469TIP3    H176898   5.120   6.239  17.044 -0.9313  1.8438  0.0024
18469TIP3    H276899   5.145   6.174  16.910 -0.3314 -0.3094  1.1029
18470TIP3   OH276900   0.046   4.129  14.340  0.3096 -0.4777 -0.0381
18470TIP3    H176901   0.022   4.220  14.329  1.7005 -0.0186  0.4966
18470TIP3    H276902   0.083   4.103  14.256 -1.2191 -0.9482 -0.5987
18471TIP3   OH276903   0.762   6.281   4.235  0.5231 -0.4129 -0.0557
18471TIP3    H176904   0.838   6.329   4.201  0.0848 -0.4492 -1.0859
18471TIP3    H276905   0.687   6.316   4.187  0.1254 -1.7348 -0.4402
18472TIP3   OH276906   4.367   2.581   1.951  0.4397  0.1477 -0.3743
18472TIP3    H176907   4.388   2.592   2.044  1.5115  0.6278 -0.6574
18472TIP3    H276908   4.309   2.505   1.948 -1.2193  1.2708  0.8992
18473TIP3   OH276909   5.833   1.486   2.516  0.5806  0.4501 -0.4832
18473TIP3    H176910   5.758   1.545   2.507 -0.3572 -0.4200  1.1389
18473TIP3    H276911   5.837   1.440   2.432  0.9250  2.3197 -1.5263
18474TIP3   OH276912   5.949   3.528   3.006  0.2978 -0.0686 -0.2659
18474TIP3    H176913   5.907   3.455   2.961 -0.2382  0.5767 -0.8554
18474TIP3    H276914   5.895   3.542   3.084 -1.5727  1.6833 -1.7423
18475TIP3   OH276915   1.079   5.054   4.531 -0.6734  0.0279 -0.0180
18475TIP3    H176916   1.046   5.001   4.458  0.9017 -1.8775  0.5445
18475TIP3    H276917   1.149   5.107   4.493 -1.2975  0.6542 -0.3036
18476TIP3   OH276918   2.739   2.663   3.300  0.1142  0.4705  0.5103
18476TIP3    H176919   2.807   2.696   3.241  0.8336 -2.4991 -0.5259
18476TIP3    H276920   2.663   2.649   3.244 -0.4106  1.0472  1.0677
18477TIP3   OH276921   4.683   5.284  16.566 -0.8100  0.1391 -0.0981
18477TIP3    H176922   4.695   5.374  16.536  0.9673  0.2341  0.7522
18477TIP3    H276923   4.644   5.291  16.653 -3.1264 -0.0383 -1.0673
18478TIP3   OH276924   2.434   0.981  16.965 -0.4474 -0.2712 -0.5801
18478TIP3    H176925   2.438   1.043  17.038  0.1976  1.4639 -2.0198
18478TIP3    H276926   2.358   0.926  16.984 -1.2822  1.2006  0.5666
18479TIP3   OH276927   1.989   4.508  11.693  0.1014 -0.3097  0.4510
18479TIP3    H176928   1.977   4.413  11.698 -2.8611  0.0024  1.2515
18479TIP3    H276929   2.025   4.532  11.778 -0.7288 -0.5577  0.8789
18480TIP3   OH276930   1.288   0.565  14.550  0.1839  0.9144  0.0138
18480TIP3    H176931   1.294   0.630  14.620  1.3270  0.6950  0.1429
18480TIP3    H276932   1.373   0.521  14.551 -0.6481 -0.7454  0.0552
18481TIP3   OH276933   6.445   0.365  13.073 -0.6850  0.1165 -0.6910
18481TIP3    H176934   6.351   0.344  13.073 -1.0404  1.5792 -0.4031
18481TIP3    H276935   6.448   0.458  13.097  0.8314  0.1418 -0.9253
18482TIP3   OH276936   2.404   6.556  16.532 -0.2749 -0.1526  1.3409
18482TIP3    H176937   2.377   6.648  16.537  0.5439  0.1965 -0.0914
18482TIP3    H276938   2.358   6.522  16.455  1.2329 -0.2782  0.4690
18483TIP3   OH276939   2.722   4.121   6.048  0.6758  0.2300  0.2239
18483TIP3    H176940   2.748   4.132   5.957  0.2989  0.7762  0.1786
18483TIP3    H276941   2.755   4.034   6.072 -1.3418 -1.0069 -1.1745
18484TIP3   OH276942   4.422   1.961  13.411 -0.1094 -0.0582 -0.2004
18484TIP3    H176943   4.516   1.947  13.413 -0.0158  0.5838  0.5408
18484TIP3    H276944   4.403   1.988  13.321  0.6106  1.0312 -0.0421
18485TIP3   OH276945   1.936   3.175   2.747  0.5504  0.2018 -0.1425
18485TIP3    H176946   1.875   3.124   2.694 -2.5712  0.5884  2.7369
18485TIP3    H276947   1.974   3.111   2.808  2.4579  0.1220 -1.3603
18486TIP3   OH276948   1.845   1.498  16.502  0.1878  0.2061  0.2473
18486TIP3    H176949   1.781   1.557  16.541 -0.8398  0.0252 -1.1074
18486TIP3    H276950   1.795   1.443  16.442  0.9839 -2.4863  1.8327
18487TIP3   OH276951   1.105   1.387  12.985 -0.3942 -0.7649  0.3085
18487TIP3    H176952   1.099   1.389  13.081  0.2585 -0.4798  0.3485
18487TIP3    H276953   1.021   1.423  12.956 -0.2129  0.0786  0.7912
18488TIP3   OH276954   1.321   0.943   3.197  0.5028  0.6811  0.3561
18488TIP3    H176955   1.385   1.007   3.165  0.6496  0.6548  0.5873
18488TIP3    H276956   1.261   0.994   3.251  0.9635  0.5410  1.0265
18489TIP3   OH276957   5.498   0.659   5.778 -0.1142  0.1574  0.2938
18489TIP3    H176958   5.533   0.704   5.855  0.6270  1.5096 -0.7891
18489TIP3    H276959   5.478   0.729   5.716  0.4136 -0.9678 -1.2089
18490TIP3   OH276960   5.436   4.134  10.990 -0.0173  0.2631  0.2335
18490TIP3    H176961   5.392   4.131  11.075 -0.5029  0.2984 -0.0152
18490TIP3    H276962   5.526   4.108  11.009 -0.0992  0.3632  0.7750
18491TIP3   OH276963   6.514   0.678  16.994  0.1371  0.0910 -0.3133
18491TIP3    H176964   6.535   0.747  17.056 -2.6188  1.4252 -0.7197
18491TIP3    H276965   6.534   0.716  16.908 -1.4660  0.4844 -0.5439
18492TIP3   OH276966   3.360   0.283  12.585  0.5775  0.1626 -0.0383
18492TIP3    H176967   3.388   0.372  12.565  0.0383  1.1355  2.9712
18492TIP3    H276968   3.376   0.273  12.679  0.3891 -2.8537 -0.2255
18493TIP3   OH276969   2.697   6.349   2.309  0.3436 -0.2685 -0.5128
18493TIP3    H176970   2.652   6.311   2.233 -0.4965  0.4286 -0.3856
18493TIP3    H276971   2.790   6.332   2.293  0.0672 -1.5943 -0.8714
18494TIP3   OH276972   6.377   3.398   0.963  0.8933 -0.6606  0.3560
18494TIP3    H176973   6.403   3.396   1.056  1.9094  0.5932  0.1441
18494TIP3    H276974   6.309   3.465   0.959 -0.7225 -2.2238  0.5062
18495TIP3   OH276975   5.506   2.646  14.894  0.1003 -0.7860  1.0339
18495TIP3    H176976   5.454   2.726  14.895  0.4116 -0.5667  0.0988
18495TIP3    H276977   5.485   2.603  14.978 -1.2256 -0.4763  0.8832
18496TIP3   OH276978   1.095   1.508   4.630 -0.2939  0.9305 -0.0999
18496TIP3    H176979   1.064   1.459   4.706 -3.1069  2.3075 -0.2330
18496TIP3    H276980   1.189   1.521   4.647  0.1525 -2.5980  0.8879
18497TIP3   OH276981   1.910   4.770   0.720  0.5447 -0.6235  0.2896
18497TIP3    H176982   1.951   4.817   0.791  0.6990  0.7358 -0.6628
18497TIP3    H276983   1.971   4.777   0.647 -0.9714  0.7942 -0.9310
18498TIP3   OH276984   6.571   2.797  15.290 -0.3752  0.0718 -0.3734
18498TIP3    H176985   6.543   2.734  15.356 -0.4715  1.4677  0.9772
18498TIP3    H276986   6.639   2.751  15.240 -1.3356 -1.5224 -0.2769
18499TIP3   OH276987   5.969   4.558   2.296 -0.3157  0.2296  0.3299
18499TIP3    H176988   5.897   4.619   2.310 -0.5608  0.0559 -0.1642
18499TIP3    H276989   5.931   4.485   2.248  0.4434  0.7187 -1.0891
18500TIP3   OH276990   2.679   6.438  10.200 -0.2431  0.1574  0.0823
18500TIP3    H176991   2.739   6.500  10.241  1.4472  0.3534 -2.4568
18500TIP3    H276992   2.674   6.365  10.262  0.0757  1.5031  1.7817
18501TIP3   OH276993   3.051   0.066  16.477  0.3113  0.3356  0.0585
18501TIP3    H176994   3.071  -0.018  16.436 -0.1688 -0.9450  2.2914
18501TIP3    H276995   2.960   0.058  16.506 -0.2032  2.1878 -0.8645
18502TIP3   OH276996   5.039   0.492  12.614  0.5174 -0.1098  0.2907
18502TIP3    H176997   4.984   0.437  12.669  1.1193 -0.4921  0.5174
18502TIP3    H276998   5.092   0.430  12.564  1.2220  0.2561  0.5707
18503TIP3   OH276999   1.575   4.932  13.503  0.5070 -0.2830  0.3098
18503TIP3    H177000   1.660   4.923  13.459 -0.3275 -0.0194 -1.4561
18503TIP3    H277001   1.597   4.966  13.590  2.1851  0.1567 -0.2411
18504TIP3   OH277002   6.047   3.368   1.499  0.6100  0.2607 -0.3267
18504TIP3    H177003   6.075   3.280   1.474  0.7578 -0.0277  0.7692
18504TIP3    H277004   5.957   3.375   1.468  0.6026 -0.2794 -0.4361
18505TIP3   OH277005   2.045   4.154  15.184  0.2233 -0.0399 -0.0840
18505TIP3    H177006   2.000   4.146  15.100 -2.4261  1.0731  1.1284
18505TIP3    H277007   2.064   4.063  15.209  1.7557 -0.3658 -2.1604
18506TIP3   OH277008   6.103   1.319   2.627 -0.3211 -0.3664 -0.0449
18506TIP3    H177009   6.099   1.284   2.716  1.4732 -2.3117 -0.6528
18506TIP3    H277010   6.056   1.256   2.574 -0.1398  0.0272 -0.6826
18507TIP3   OH277011   4.362   6.068  11.400 -0.4269 -0.1394 -0.1266
18507TIP3    H177012   4.447   6.023  11.393 -0.3476  0.1916 -1.6354
18507TIP3    H277013   4.304   6.003  11.439  0.3988 -0.5406  0.4728
18508TIP3   OH277014   2.499   4.114   2.045 -0.1849 -0.0397  0.1941
18508TIP3    H177015   2.445   4.126   2.123 -1.0469  2.9506 -0.7015
18508TIP3    H277016   2.438   4.087   1.976 -0.2544  1.4272 -0.3609
18509TIP3   OH277017   1.694   6.668  16.195  0.1024 -0.0709  0.4292
18509TIP3    H177018   1.669   6.738  16.134 -2.4650 -1.4039 -0.2272
18509TIP3    H277019   1.770   6.627  16.155 -2.1456 -1.6205 -2.6910
18510TIP3   OH277020   4.681   0.948  12.715 -0.4362 -0.2703  0.2741
18510TIP3    H177021   4.727   1.019  12.761 -0.7374 -0.6793  1.2385
18510TIP3    H277022   4.723   0.868  12.747 -1.7688 -0.6495  1.1524
18511TIP3   OH277023   2.724   2.960   4.697  0.0192 -0.0390 -0.4264
18511TIP3    H177024   2.687   2.935   4.612 -1.2720 -0.6417  0.2906
18511TIP3    H277025   2.784   2.889   4.719 -0.3406 -0.3422 -0.4165
18512TIP3   OH277026   0.166   5.376   6.401  0.0908 -0.0107 -0.3614
18512TIP3    H177027   0.161   5.319   6.324  0.0707 -0.4025 -0.0765
18512TIP3    H277028   0.176   5.464   6.365 -0.2913 -0.1459 -0.8155
18513TIP3   OH277029   0.649   2.718   1.795 -0.2942  0.3657  0.3694
18513TIP3    H177030   0.633   2.730   1.888 -1.1933  1.5504  0.0894
18513TIP3    H277031   0.569   2.678   1.761  0.7059 -1.7580  0.3737
18514TIP3   OH277032   2.862   3.178   0.048 -0.0315 -0.4307  0.3329
18514TIP3    H177033   2.871   3.226   0.130 -0.0896 -1.1550  0.7723
18514TIP3    H277034   2.850   3.087   0.075  1.0594 -0.8411 -0.5042
18515TIP3   OH277035   6.389   6.589   3.986 -0.2941  0.7365  0.9613
18515TIP3    H177036   6.452   6.644   3.940  0.4873 -1.4509 -0.7463
18515TIP3    H277037   6.424   6.580   4.075 -0.6589  3.2103  1.4289
18516TIP3   OH277038   3.815   1.397  16.949 -0.6606 -0.8207 -0.0899
18516TIP3    H177039   3.770   1.320  16.984 -0.8961 -0.5395  0.2317
18516TIP3    H277040   3.807   1.387  16.854  1.0867 -2.2402 -0.1497
18517TIP3   OH277041   6.173   3.829  11.686  0.1344 -0.1355 -0.3804
18517TIP3    H177042   6.171   3.872  11.771 -0.9917 -0.5851 -0.1617
18517TIP3    H277043   6.227   3.751  11.700 -3.0496 -2.3298  1.0406
18518TIP3   OH277044   3.380   5.826  15.297 -0.2162 -0.2118 -0.1453
18518TIP3    H177045   3.372   5.919  15.316  0.8017 -0.3482  1.0967
18518TIP3    H277046   3.428   5.790  15.372  0.3517 -1.5426 -1.1039
18519TIP3   OH277047   2.492   4.167  12.855  0.2124  0.1040  0.0908
18519TIP3    H177048   2.493   4.104  12.928 -1.6202 -1.2238 -0.9492
18519TIP3    H277049   2.582   4.198  12.850  0.4674  0.0612  2.7428
18520TIP3   OH277050   0.600   6.194  16.006  0.0131  0.0414 -0.6859
18520TIP3    H177051   0.606   6.263  15.940 -1.8324  0.5478 -0.4048
18520TIP3    H277052   0.564   6.238  16.083  1.8125 -0.6087  0.5738
18521TIP3   OH277053   0.382   3.370   3.476 -0.4396 -0.3113 -0.0658
18521TIP3    H177054   0.300   3.330   3.448 -0.7724  0.4188 -0.1583
18521TIP3    H277055   0.404   3.324   3.557 -1.6651  0.3842  0.7070
18522TIP3   OH277056   5.212   4.574   5.535 -0.3730 -0.6921  0.4749
18522TIP3    H177057   5.228   4.667   5.548  3.0623 -1.0124 -0.6389
18522TIP3    H277058   5.197   4.564   5.441 -1.1053 -1.2362  0.6401
18523TIP3   OH277059   5.152   3.992  12.980 -0.1640  0.1232 -0.3525
18523TIP3    H177060   5.076   4.047  12.999 -0.1645  0.0963 -0.2783
18523TIP3    H277061   5.142   3.916  13.038 -0.0122  0.1822 -0.2466
18524TIP3   OH277062   6.415   5.098   5.516 -0.3684 -0.5130 -0.0443
18524TIP3    H177063   6.502   5.063   5.538 -0.1782 -0.2510 -0.3711
18524TIP3    H277064   6.421   5.191   5.535 -1.0904 -0.7484  1.4785
18525TIP3   OH277065   1.484   4.001   1.157 -0.3606 -0.1934 -0.6028
18525TIP3    H177066   1.428   3.983   1.232  0.5894 -0.1667  0.1416
18525TIP3    H277067   1.569   4.021   1.196  0.4887 -1.4322 -1.7359
18526TIP3   OH277068   1.515   6.044  16.112  0.6857  0.3973  0.4539
18526TIP3    H177069   1.537   6.135  16.089 -1.7839  0.4504 -2.2599
18526TIP3    H277070   1.432   6.051  16.160 -0.1419 -0.4448 -0.8032
18527TIP3   OH277071   5.735   4.250   0.781  0.2022 -0.6543  0.1014
18527TIP3    H177072   5.715   4.157   0.792  0.2022 -0.3580  3.8288
18527TIP3    H277073   5.830   4.253   0.770  0.5102 -1.0424  2.2855
18528TIP3   OH277074   3.080   5.625  10.390 -0.3125 -0.0060  0.0391
18528TIP3    H177075   3.029   5.642  10.311 -0.0695  1.1914  0.1353
18528TIP3    H277076   3.014   5.613  10.459 -0.4993  2.4088  0.3426
18529TIP3   OH277077   6.041   4.836  13.779  0.3517 -0.0921 -0.1975
18529TIP3    H177078   5.968   4.836  13.717  0.6622  1.0176 -0.5942
18529TIP3    H277079   6.000   4.824  13.865 -0.2579  0.1374 -0.4489
18530TIP3   OH277080   2.694   5.513  14.419 -0.1428 -0.4065  0.9709
18530TIP3    H177081   2.605   5.496  14.449 -1.9396  0.2762 -3.2627
18530TIP3    H277082   2.742   5.433  14.439 -2.0244 -1.3119  2.1599
18531TIP3   OH277083   6.528   1.471   2.603 -0.1789 -0.8767 -0.2756
18531TIP3    H177084   6.554   1.506   2.518 -0.5295 -0.0831 -0.0692
18531TIP3    H277085   6.461   1.406   2.584 -0.6609 -0.2955 -0.5714
18532TIP3   OH277086   6.155   5.777  13.915  0.3833  0.4893  0.3483
18532TIP3    H177087   6.208   5.844  13.956  0.4846  0.7477 -0.1985
18532TIP3    H277088   6.217   5.710  13.888  0.4808  0.9556 -0.6117
18533TIP3   OH277089   5.716   5.638  12.360 -0.0229  0.3064  0.0704
18533TIP3    H177090   5.726   5.728  12.391  0.3479  1.0705 -2.0654
18533TIP3    H277091   5.703   5.586  12.439  0.9838  2.0638  1.4594
18534TIP3   OH277092   3.155   4.980   5.493  0.1202  0.1611 -0.1759
18534TIP3    H177093   3.110   5.050   5.445  0.1368  0.0257 -0.3887
18534TIP3    H277094   3.119   4.899   5.457 -1.4214  0.0423  1.4753
18535TIP3   OH277095   1.701   0.479  11.202  0.6871 -0.0456 -0.4027
18535TIP3    H177096   1.644   0.495  11.127  1.9901  2.9126 -0.9071
18535TIP3    H277097   1.778   0.533  11.186  1.4960 -0.1181  2.5667
18536TIP3   OH277098   1.904   2.814   3.955 -0.1659  0.1621  0.2956
18536TIP3    H177099   1.858   2.827   4.038  0.9974 -0.6461  1.0853
18536TIP3    H277100   1.946   2.729   3.963  0.0742  0.1216 -1.0905
18537TIP3   OH277101   0.396   2.025  11.744 -0.1662 -0.0548  0.5216
18537TIP3    H177102   0.417   2.118  11.732  1.0419 -0.4927 -1.1456
18537TIP3    H277103   0.316   2.012  11.694 -0.2135  0.0408  0.5716
18538TIP3   OH277104   6.644   4.923   4.202  0.4910 -0.5552 -0.5570
18538TIP3    H177105   6.586   4.985   4.158  0.4054 -0.9273 -0.9697
18538TIP3    H277106   6.653   4.958   4.291  1.2704  0.6260 -1.0675
18539TIP3   OH277107   6.477   5.661   5.011  0.0562  0.0468  0.2701
18539TIP3    H177108   6.402   5.662   4.952  0.1932 -1.3855  0.0560
18539TIP3    H277109   6.553   5.646   4.954  0.1450 -1.7761  0.8152
18540TIP3   OH277110   3.587   3.337   4.002  0.7118 -0.5991  0.6590
18540TIP3    H177111   3.596   3.286   4.083 -0.0931  0.0504  1.1763
18540TIP3    H277112   3.521   3.290   3.951  0.9759 -0.8279  0.5297
18541TIP3   OH277113   2.805   3.547   0.985 -0.7892  0.5610 -0.0598
18541TIP3    H177114   2.858   3.612   1.033 -1.6234  0.2828  1.2954
18541TIP3    H277115   2.730   3.532   1.042 -1.5395 -0.2198 -1.2356
18542TIP3   OH277116   5.903   2.787  11.364  0.0381  0.3853 -0.1844
18542TIP3    H177117   5.892   2.882  11.359  1.0253  0.4551 -1.5431
18542TIP3    H277118   5.813   2.753  11.361 -0.2903  1.2451 -0.6789
18543TIP3   OH277119   5.861   2.537  11.122  1.0080  0.1891 -0.5529
18543TIP3    H177120   5.942   2.584  11.103  1.2536 -0.4237 -1.0665
18543TIP3    H277121   5.811   2.542  11.040 -0.4057  2.3089  0.3192
18544TIP3   OH277122   6.208   1.948  11.598 -0.4444  0.1672  0.0529
18544TIP3    H177123   6.209   2.014  11.529 -1.2026  0.1903  0.0478
18544TIP3    H277124   6.134   1.973  11.654 -0.0404 -0.0359  0.6933
18545TIP3   OH277125   3.395   2.491  14.465 -0.1788 -0.2101 -0.1866
18545TIP3    H177126   3.476   2.510  14.418 -0.0456  1.9215  0.7795
18545TIP3    H277127   3.328   2.539  14.416 -0.2234  1.0521  1.0457
18546TIP3   OH277128   2.183   3.037  17.058  0.2511 -0.3896 -0.0946
18546TIP3    H177129   2.235   3.099  17.108 -0.4430  0.2631 -0.1684
18546TIP3    H277130   2.246   2.973  17.026  0.5862 -1.5311  2.5859
18547TIP3   OH277131   2.396   0.660   5.562 -0.7011  0.4177 -0.2577
18547TIP3    H177132   2.429   0.661   5.652 -0.9288  1.9314 -0.1565
18547TIP3    H277133   2.456   0.603   5.514  1.0952  1.7878  0.2697
18548TIP3   OH277134   5.138   5.489   3.162 -0.4378  0.0840  0.3368
18548TIP3    H177135   5.229   5.475   3.137 -0.5252  0.9010 -0.4895
18548TIP3    H277136   5.116   5.576   3.128 -1.1399  0.4629  1.6804
18549TIP3   OH277137   5.177   2.491   5.502 -0.0482 -0.2139  0.0488
18549TIP3    H177138   5.167   2.417   5.561  1.5468 -0.1461  0.4406
18549TIP3    H277139   5.239   2.461   5.436  1.5425  1.1117  0.8692
18550TIP3   OH277140   3.365   5.074  12.400 -0.1974  0.0407 -0.0553
18550TIP3    H177141   3.452   5.108  12.379 -0.9202  1.2233 -1.2714
18550TIP3    H277142   3.322   5.064  12.315 -0.7784 -1.9175  0.4204
18551TIP3   OH277143   1.859   5.003  16.067 -0.4207  0.0672  0.0235
18551TIP3    H177144   1.810   4.933  16.024 -2.0465  1.5490 -0.6673
18551TIP3    H277145   1.920   5.035  16.001  1.0675 -1.3114  0.6631
18552TIP3   OH277146   0.625   5.331   1.272 -0.4407 -0.1820  0.7055
18552TIP3    H177147   0.654   5.251   1.229 -0.8340 -0.7998  1.5554
18552TIP3    H277148   0.538   5.309   1.307 -1.0921  1.0029 -0.1094
18553TIP3   OH277149   3.806   5.034   1.024  0.8398  0.4299 -0.3255
18553TIP3    H177150   3.814   5.025   1.119 -1.0241 -0.6008 -0.2082
18553TIP3    H277151   3.839   5.121   1.005  2.8454  0.0249  1.0266
18554TIP3   OH277152   1.586   3.933   4.378 -0.7500 -0.7524 -0.0479
18554TIP3    H177153   1.659   3.875   4.356 -1.1873 -1.0932 -0.6482
18554TIP3    H277154   1.580   3.930   4.473  0.9162  0.3929  0.1380
18555TIP3   OH277155   3.515   2.357  10.547  0.1080  0.1543  0.8536
18555TIP3    H177156   3.555   2.337  10.632 -1.4508 -1.9599  1.1787
18555TIP3    H277157   3.524   2.276  10.497  1.6383  1.5909 -1.3242
18556TIP3   OH277158   1.902   4.140  14.946 -0.3512 -0.5838  0.4755
18556TIP3    H177159   1.861   4.212  14.995  1.1968  0.0604  0.8975
18556TIP3    H277160   1.910   4.173  14.857 -2.1372 -1.3227  0.0044
18557TIP3   OH277161   1.865   2.330   5.112  0.3145  0.4923 -0.3070
18557TIP3    H177162   1.901   2.399   5.168  2.3029 -0.3727 -0.4345
18557TIP3    H277163   1.770   2.342   5.117  0.4993  1.5415  1.8389
18558TIP3   OH277164   3.527   4.342   2.452  0.1530  0.3414 -0.4466
18558TIP3    H177165   3.484   4.362   2.369  0.9947  1.3938 -0.6515
18558TIP3    H277166   3.581   4.419   2.470  0.6860 -0.2607  0.6146
18559TIP3   OH277167   6.721   3.280   2.213  0.1341 -1.2143 -0.5455
18559TIP3    H177168   6.688   3.359   2.169 -0.2662 -0.1476  1.5697
18559TIP3    H277169   6.669   3.209   2.175 -1.0509 -0.1889 -0.9415
18560TIP3   OH277170   2.761   5.658  12.633  0.6863 -0.4779 -0.5288
18560TIP3    H177171   2.708   5.712  12.692  1.2384  1.5334 -1.7859
18560TIP3    H277172   2.851   5.680  12.656  0.9690 -1.8257 -0.2538
18561TIP3   OH277173   3.711   4.085  14.974 -0.1235  0.0737 -0.2712
18561TIP3    H177174   3.771   4.158  14.960 -0.1817  0.3932  1.0264
18561TIP3    H277175   3.624   4.124  14.972 -0.2029 -0.1052 -0.3916
18562TIP3   OH277176   0.172   5.514   0.078  0.1547  0.0780 -0.0232
18562TIP3    H177177   0.148   5.451   0.009 -0.5473  1.2634 -0.8890
18562TIP3    H277178   0.150   5.599   0.041 -1.9317  0.6702  2.3452
18563TIP3   OH277179   5.702   5.629  16.503 -0.7393 -0.0535 -0.4544
18563TIP3    H177180   5.677   5.706  16.452 -1.1174 -0.4520 -0.8865
18563TIP3    H277181   5.790   5.607  16.470 -1.0336 -0.3865 -1.0528
18564TIP3   OH277182   6.357   0.865   0.521  0.1201  0.3057 -0.1981
18564TIP3    H177183   6.314   0.950   0.513 -0.3025  0.1806  0.6060
18564TIP3    H277184   6.360   0.849   0.615 -0.9001 -1.1102 -0.3766
18565TIP3   OH277185   0.126   4.972   5.835 -0.0919 -0.2287 -0.5252
18565TIP3    H177186   0.122   4.982   5.930 -1.2302  0.1688 -0.5978
18565TIP3    H277187   0.219   4.983   5.813 -0.2257  3.2228  0.1653
18566TIP3   OH277188   0.842   4.608   5.577 -0.2115  0.6678 -0.9603
18566TIP3    H177189   0.841   4.704   5.575 -1.4010  0.6639 -2.2936
18566TIP3    H277190   0.865   4.582   5.487 -1.7120 -0.2626 -1.1125
18567TIP3   OH277191   0.547   3.499  13.428  0.0503  0.4491 -0.6360
18567TIP3    H177192   0.607   3.535  13.493  1.3668 -0.0958 -1.4971
18567TIP3    H277193   0.479   3.455  13.479 -0.0700  1.7722  0.3747
18568TIP3   OH277194   0.693   3.907  15.284  0.5054 -0.5676 -0.0402
18568TIP3    H177195   0.672   3.821  15.322 -0.1654 -0.2818  0.2474
18568TIP3    H277196   0.683   3.894  15.190  1.9385 -1.2137 -0.1373
18569TIP3   OH277197   1.090   0.836  12.272  0.3735 -0.4519 -0.5912
18569TIP3    H177198   1.090   0.747  12.308 -1.5497 -0.4198 -0.4036
18569TIP3    H277199   1.078   0.893  12.349  1.7181  0.0254 -0.6895
18570TIP3   OH277200   4.907   4.350  16.272  0.5163  0.2058  0.1335
18570TIP3    H177201   4.985   4.370  16.221  0.2750  1.5029  0.2431
18570TIP3    H277202   4.834   4.387  16.221 -0.3334 -2.8382 -1.0623
18571TIP3   OH277203   5.117   2.049  13.370 -0.1352  0.0131 -0.5153
18571TIP3    H177204   5.197   2.095  13.343 -0.6339  1.7522  0.7995
18571TIP3    H277205   5.075   2.025  13.287 -0.1522  2.5169 -1.3347
18572TIP3   OH277206   5.739   1.714  17.141 -0.5847 -0.1620  0.0057
18572TIP3    H177207   5.737   1.783  17.207 -0.4467 -0.5030  0.3674
18572TIP3    H277208   5.830   1.685  17.139 -0.6074 -0.2180 -0.2652
18573TIP3   OH277209   6.319   3.590  14.392 -0.1706  0.0641  0.3343
18573TIP3    H177210   6.250   3.550  14.339  1.5739 -0.3834 -1.7507
18573TIP3    H277211   6.342   3.670  14.344  2.0331 -0.7710 -0.1319
18574TIP3   OH277212   0.905   5.248   6.088 -0.5572 -0.1938 -0.1185
18574TIP3    H177213   0.890   5.342   6.080  1.7543  0.2311 -0.0391
18574TIP3    H277214   0.959   5.226   6.012  0.3092 -1.1075  0.7422
18575TIP3   OH277215   3.042   0.591   1.092 -0.1050 -0.0587  0.2741
18575TIP3    H177216   3.029   0.680   1.059 -0.2343  0.0808  0.6913
18575TIP3    H277217   3.137   0.578   1.089 -0.0539  0.2239  0.5370
18576TIP3   OH277218   2.319   5.020   3.106 -0.3570 -0.3560 -0.1564
18576TIP3    H177219   2.322   5.109   3.071  0.3665  0.6974  2.4052
18576TIP3    H277220   2.404   4.983   3.084  0.4537  0.6186  1.2010
18577TIP3   OH277221   3.949   4.504   4.654  0.6569 -0.4803 -0.3845
18577TIP3    H177222   3.928   4.444   4.583 -0.6054  0.7314 -1.0985
18577TIP3    H277223   3.943   4.591   4.614 -2.4909  0.4308  1.6364
18578TIP3   OH277224   1.355   4.445  13.675 -0.6994  0.0843 -0.0010
18578TIP3    H177225   1.335   4.505  13.747  1.6583  0.2441  0.6187
18578TIP3    H277226   1.385   4.502  13.604 -1.9377 -0.1550 -0.7390
18579TIP3   OH277227   1.639   0.164   2.274  0.0431 -0.5738  0.3251
18579TIP3    H177228   1.590   0.178   2.193  2.1168  0.5623 -0.8285
18579TIP3    H277229   1.577   0.121   2.333 -2.3793  0.9638 -0.9251
18580TIP3   OH277230   4.357   5.822  15.314 -0.0396  0.0385 -0.2619
18580TIP3    H177231   4.391   5.741  15.275  0.4155 -1.3455  2.6964
18580TIP3    H277232   4.268   5.799  15.341 -0.5741  1.1561 -1.0119
18581TIP3   OH277233   3.059   2.807   1.802 -0.0813 -0.3130  0.9983
18581TIP3    H177234   2.983   2.780   1.751  0.4244 -2.3178  1.2078
18581TIP3    H277235   3.048   2.901   1.816 -2.3637 -0.5118  0.7850
18582TIP3   OH277236   1.595   0.544   6.099  0.2247  0.2859 -0.0035
18582TIP3    H177237   1.637   0.565   6.183  0.5211 -0.2333 -0.0207
18582TIP3    H277238   1.667   0.548   6.035  0.4719 -1.5458  0.1018
18583TIP3   OH277239   0.931   2.702  11.829  0.4047 -0.3525  0.0688
18583TIP3    H177240   0.853   2.659  11.793  0.1721 -0.4659  0.6997
18583TIP3    H277241   0.916   2.705  11.923  2.7967 -3.8492  0.7709
18584TIP3   OH277242   4.809   3.486  13.587  0.1594 -0.0778 -0.0110
18584TIP3    H177243   4.725   3.443  13.570 -0.1024  0.3254  0.2206
18584TIP3    H277244   4.810   3.560  13.526 -0.3856  0.8570  1.0612
18585TIP3   OH277245   1.191   1.620   3.266 -0.2266  0.4076  0.5746
18585TIP3    H177246   1.141   1.699   3.281 -0.3453  0.4443  0.0086
18585TIP3    H277247   1.220   1.626   3.175 -0.2981 -0.2321  0.5003
18586TIP3   OH277248   2.963   5.727  13.913 -0.0028 -0.0493  0.2562
18586TIP3    H177249   2.963   5.735  13.817  1.3030 -3.5509 -0.1830
18586TIP3    H277250   2.876   5.758  13.939  0.0660  2.2312 -1.8315
18587TIP3   OH277251   3.760   1.266  14.526  0.0344 -0.1549 -0.2398
18587TIP3    H177252   3.728   1.244  14.613 -0.2510  0.8253 -0.0922
18587TIP3    H277253   3.685   1.251  14.468 -0.1131  0.2607 -0.1599
18588TIP3   OH277254   3.200   5.129  13.425 -0.1263 -1.2720 -0.1398
18588TIP3    H177255   3.170   5.182  13.351  0.2611 -2.9185 -1.5578
18588TIP3    H277256   3.295   5.131  13.419 -0.0464 -0.4157  1.1033
18589TIP3   OH277257   2.961   4.682  13.985 -0.2079  0.2609 -0.1573
18589TIP3    H177258   3.041   4.630  13.986  0.9994  2.0115  0.2996
18589TIP3    H277259   2.911   4.651  14.061  1.7668  1.5254  1.8115
18590TIP3   OH277260   1.669   0.282   5.756  0.1283  0.0496 -0.4343
18590TIP3    H177261   1.616   0.324   5.688 -1.0841  1.7810  1.4740
18590TIP3    H277262   1.627   0.307   5.838  2.2696 -0.9103  1.0342
18591TIP3   OH277263   5.310   2.965   0.775  0.5885  0.0507  0.4525
18591TIP3    H177264   5.241   3.027   0.752  0.1344  0.5337  2.8146
18591TIP3    H277265   5.264   2.888   0.808  1.1748 -0.4933  0.0316
18592TIP3   OH277266   0.337   0.330  16.842 -0.7392 -0.0512 -0.2073
18592TIP3    H177267   0.319   0.352  16.750 -0.4453  0.3092 -0.1799
18592TIP3    H277268   0.272   0.263  16.864 -1.2755  0.3704 -0.4686
18593TIP3   OH277269   5.136   0.138  12.948  0.4524  0.1961  0.2090
18593TIP3    H177270   5.082   0.059  12.942 -0.2172  0.5810  0.9399
18593TIP3    H277271   5.217   0.115  12.904  0.6862 -1.2712  1.3266
18594TIP3   OH277272   6.434   1.789  16.930 -0.4666 -0.1499  0.1593
18594TIP3    H177273   6.342   1.815  16.938 -0.2744  1.8175 -2.4811
18594TIP3    H277274   6.472   1.855  16.872  1.6209 -3.2010 -2.2688
18595TIP3   OH277275   2.107   0.307  12.388  0.0468 -1.0263  0.0670
18595TIP3    H177276   2.102   0.246  12.461 -1.4064 -0.3688  0.5486
18595TIP3    H277277   2.085   0.255  12.311 -2.7324 -0.8591  0.6543
18596TIP3   OH277278   1.427   2.204  13.464 -0.4806  0.3751 -0.4652
18596TIP3    H177279   1.351   2.228  13.517 -0.1467  0.7522 -0.1456
18596TIP3    H277280   1.403   2.230  13.374 -1.1328 -0.4676 -0.5442
18597TIP3   OH277281   1.529   2.217   0.222 -0.5626 -0.6236 -0.1345
18597TIP3    H177282   1.489   2.262   0.296 -1.2266 -1.2943 -0.0769
18597TIP3    H277283   1.611   2.265   0.207 -1.5685  1.0539 -0.5482
18598TIP3   OH277284   5.488   5.382   5.243 -0.3370  0.0143  0.0543
18598TIP3    H177285   5.540   5.458   5.272 -0.0187 -0.0248 -0.4055
18598TIP3    H277286   5.528   5.308   5.288 -1.8200  0.3240  2.0008
18599TIP3   OH277287   1.795   4.726  11.645 -0.2936  0.0618 -0.6444
18599TIP3    H177288   1.798   4.759  11.735  2.6680 -1.0459 -0.2047
18599TIP3    H277289   1.820   4.800  11.591  0.6898  0.0702 -0.2177
18600TIP3   OH277290   2.517   5.633   2.659 -0.0389 -0.2480 -0.6889
18600TIP3    H177291   2.581   5.601   2.595 -0.2072 -1.5176 -0.2619
18600TIP3    H277292   2.505   5.559   2.719 -0.8389  0.4759  0.0654
18601TIP3   OH277293   3.666   5.245   0.221 -0.0362  0.0886 -0.0830
18601TIP3    H177294   3.676   5.157   0.187 -2.0976 -0.8349  1.4555
18601TIP3    H277295   3.650   5.300   0.144 -0.4337 -1.1831 -0.9244
18602TIP3   OH277296   6.470   6.148   6.175 -0.3043  0.4335  0.2703
18602TIP3    H177297   6.397   6.190   6.221 -0.9424 -0.5625  0.2065
18602TIP3    H277298   6.496   6.076   6.232 -2.5329 -2.2232 -1.7381
18603TIP3   OH277299   1.679   4.516  13.940 -0.0009  0.7736  0.0684
18603TIP3    H177300   1.690   4.566  13.859  1.4489 -0.3031 -0.4466
18603TIP3    H277301   1.717   4.572  14.008 -1.1686  1.6529  0.0257
18604TIP3   OH277302   5.321   3.059   6.090  0.1238 -0.1395  0.2176
18604TIP3    H177303   5.237   3.104   6.081 -0.3366 -1.0260 -0.1285
18604TIP3    H277304   5.387   3.124   6.067 -0.5231  0.3510 -0.2879
18605TIP3   OH277305   0.971   3.173   5.469 -0.6364 -0.4723  0.6915
18605TIP3    H177306   0.984   3.211   5.383  0.1979 -2.1247  0.0407
18605TIP3    H277307   1.052   3.125   5.487  0.2748  1.8172  3.5139
18606TIP3   OH277308   5.414   0.163   1.066 -0.2622  0.0433  0.0254
18606TIP3    H177309   5.507   0.155   1.045 -0.1218  1.0888  0.1972
18606TIP3    H277310   5.391   0.079   1.105  0.3545 -0.6010 -0.9415
18607TIP3   OH277311   3.282   4.898  14.639  0.2380 -0.3917 -0.4236
18607TIP3    H177312   3.321   4.960  14.700 -0.4918 -0.2338 -0.1106
18607TIP3    H277313   3.215   4.853  14.690  0.3700 -1.0370 -0.8074
18608TIP3   OH277314   5.334   0.260   6.029 -0.3268  0.3900 -0.0647
18608TIP3    H177315   5.350   0.205   5.951  1.2311 -0.3694  0.7296
18608TIP3    H277316   5.307   0.344   5.994  1.4364  0.4193 -1.5262
18609TIP3   OH277317   5.590   6.262   0.529 -0.2135 -0.2854 -0.6999
18609TIP3    H177318   5.507   6.294   0.493  0.9124  2.0574 -1.4612
18609TIP3    H277319   5.583   6.277   0.623 -1.3078 -1.8302 -0.5023
18610TIP3   OH277320   0.233   0.736   0.054  0.1367 -0.2577  0.0096
18610TIP3    H177321   0.163   0.732   0.119  0.6391  1.6626  0.7492
18610TIP3    H277322   0.275   0.651   0.058 -0.5671 -0.5692  1.3784
18611TIP3   OH277323   3.144   2.605   2.974  0.2515 -0.1617  0.3113
18611TIP3    H177324   3.205   2.623   2.902 -1.0719  0.2906 -0.7490
18611TIP3    H277325   3.078   2.548   2.935 -0.7360  0.4488  1.0451
18612TIP3   OH277326   3.389   0.019  12.788 -0.5893  0.0846  0.1480
18612TIP3    H177327   3.470   0.046  12.831  0.1299 -1.0106 -0.4637
18612TIP3    H277328   3.402   0.043  12.696 -1.5987  1.2708  0.2909
18613TIP3   OH277329   0.348   3.246   3.001  0.2148 -0.3682  0.9690
18613TIP3    H177330   0.300   3.183   3.053 -0.2414  0.5618  1.6966
18613TIP3    H277331   0.423   3.271   3.056 -0.3540  0.7323  1.2675
18614TIP3   OH277332   6.264   3.056  11.652 -0.5541 -0.1431 -0.4790
18614TIP3    H177333   6.287   2.995  11.722  1.1416 -0.3613 -1.1925
18614TIP3    H277334   6.195   3.111  11.691  0.4433 -0.1384  1.4102
18615TIP3   OH277335   6.021   6.628   4.592 -0.3412  0.1525 -0.6155
18615TIP3    H177336   6.028   6.722   4.611 -1.2685  0.1978 -0.4428
18615TIP3    H277337   5.959   6.623   4.520 -2.6319 -0.4790  1.2637
18616TIP3   OH277338   2.939   2.991   1.557  0.0482 -0.2303  0.2670
18616TIP3    H177339   2.996   2.959   1.487  1.2041  1.2620  0.4812
18616TIP3    H277340   2.905   2.912   1.599  2.9203 -1.2207  0.9026
18617TIP3   OH277341   0.938   6.442   5.997  0.2460 -0.1213 -0.3036
18617TIP3    H177342   0.860   6.463   5.945  0.3895  0.7567 -0.1836
18617TIP3    H277343   0.970   6.527   6.027  0.0220 -0.6331  1.4521
18618TIP3   OH277344   0.398   4.800   4.791  1.0625 -0.6036  0.1359
18618TIP3    H177345   0.349   4.743   4.732  1.6745 -1.2272  0.2122
18618TIP3    H277346   0.335   4.866   4.819  0.1756 -1.5584  0.4624
18619TIP3   OH277347   2.444   4.075  12.502 -0.9494 -0.0011  0.0571
18619TIP3    H177348   2.443   4.148  12.564 -0.1442 -0.1049  0.2117
18619TIP3    H277349   2.365   4.025  12.523 -0.7082 -0.0117  0.9818
18620TIP3   OH277350   3.158   2.960   3.875 -0.4369  0.1267  0.1276
18620TIP3    H177351   3.227   2.896   3.889 -0.5911 -0.4936 -1.6840
18620TIP3    H277352   3.077   2.910   3.885 -0.5604  0.0577 -1.1286
18621TIP3   OH277353   2.336   5.035  14.488 -0.2988 -0.2806 -0.7389
18621TIP3    H177354   2.260   5.065  14.538 -0.4585 -0.0488 -1.1178
18621TIP3    H277355   2.396   5.000  14.554  0.7034  2.5044 -0.0590
18622TIP3   OH277356   5.520   3.196   0.582 -0.0865 -0.2805  0.1768
18622TIP3    H177357   5.503   3.288   0.602  0.6468  0.0760 -0.7850
18622TIP3    H277358   5.554   3.160   0.664  0.3573  0.4957  0.3437
18623TIP3   OH277359   5.506   3.099   1.284 -0.0059 -0.3582  0.0654
18623TIP3    H177360   5.416   3.110   1.316 -0.4662  2.0830 -1.7979
18623TIP3    H277361   5.497   3.044   1.206  0.0775  0.1313 -0.2891
18624TIP3   OH277362   2.865   4.541  12.823 -0.0493 -0.4273 -0.0136
18624TIP3    H177363   2.787   4.546  12.878 -0.7028  1.7817 -1.0430
18624TIP3    H277364   2.844   4.474  12.758 -0.5547 -0.7427  0.4617
18625TIP3   OH277365   2.100   0.579  12.478  0.1763  0.0152  0.3902
18625TIP3    H177366   2.008   0.600  12.493 -0.0934 -0.5799 -0.3416
18625TIP3    H277367   2.099   0.487  12.451  1.1054 -0.3595  1.5102
18626TIP3   OH277368   2.770   3.286   2.424  0.2633  0.4277 -0.1237
18626TIP3    H177369   2.829   3.313   2.354  2.7692 -0.6576  1.4238
18626TIP3    H277370   2.741   3.198   2.398  0.8184  0.2172 -0.0512
18627TIP3   OH277371   3.815   6.100  12.768  0.1087  0.2696  0.1244
18627TIP3    H177372   3.761   6.025  12.795  0.6678  1.1291  4.2169
18627TIP3    H277373   3.904   6.065  12.766  0.2683  0.5788  1.2048
18628TIP3   OH277374   3.026   4.110  12.929 -0.1326  0.0275 -0.0207
18628TIP3    H177375   3.066   4.192  12.902 -0.4073  0.7686  1.6345
18628TIP3    H277376   3.085   4.042  12.898  1.0981  0.9602  0.2032
18629TIP3   OH277377   0.524   5.098   4.347 -0.2205 -0.1618  0.0177
18629TIP3    H177378   0.469   5.032   4.305 -0.7666  0.1019  0.3085
18629TIP3    H277379   0.463   5.167   4.375  0.1745 -0.1304  0.8534
18630TIP3   OH277380   0.189   4.900  12.300  0.0747  0.0742 -0.1253
18630TIP3    H177381   0.236   4.892  12.383 -1.1840 -0.7815  0.5487
18630TIP3    H277382   0.104   4.937  12.324 -1.6243 -3.1963 -0.4386
18631TIP3   OH277383   2.565   3.089  12.628  0.1687  0.2609 -0.0922
18631TIP3    H177384   2.627   3.139  12.575  0.4309 -0.6693 -0.6884
18631TIP3    H277385   2.614   3.012  12.655 -0.6124 -0.2959 -0.2454
18632TIP3   OH277386   3.960   0.902  15.605  0.0082 -0.1251 -0.3604
18632TIP3    H177387   3.927   0.979  15.559  0.9065 -0.6269 -1.9468
18632TIP3    H277388   3.885   0.842  15.610 -0.1809  0.0628 -0.9250
18633TIP3   OH277389   6.087   0.153   0.192 -1.0986  0.0113 -0.2910
18633TIP3    H177390   6.109   0.218   0.259 -0.5282 -1.3161  0.8744
18633TIP3    H277391   6.147   0.172   0.120  0.3319 -0.3042  0.7597
18634TIP3   OH277392   2.728   5.551  14.158 -0.1443  0.5587  0.0153
18634TIP3    H177393   2.706   5.536  14.250 -0.4977  0.1302 -0.1347
18634TIP3    H277394   2.666   5.617  14.129 -0.2724  0.4281 -0.0111
18635TIP3   OH277395   4.242   5.765  14.080 -0.7008 -0.4265 -0.5292
18635TIP3    H177396   4.267   5.857  14.083  0.4808 -0.7397  0.7067
18635TIP3    H277397   4.311   5.724  14.027  0.3844 -0.9880  1.2192
18636TIP3   OH277398   0.840   2.149   5.278 -0.8273 -0.5504 -0.6688
18636TIP3    H177399   0.824   2.196   5.196  0.2826 -1.4864 -1.4604
18636TIP3    H277400   0.860   2.218   5.341  1.0280  0.1034 -1.8607
18637TIP3   OH277401   3.847   6.256  13.830  0.0715 -0.1978  0.2999
18637TIP3    H177402   3.768   6.281  13.878 -1.1613 -2.0159 -0.6493
18637TIP3    H277403   3.911   6.237  13.899 -0.6772  0.2061  1.1295
18638TIP3   OH277404   1.459   3.496   2.369 -0.0782  0.0167  0.0104
18638TIP3    H177405   1.427   3.465   2.454 -0.3134  0.0067 -0.0810
18638TIP3    H277406   1.527   3.559   2.391 -1.6188  1.6847  0.2713
18639TIP3   OH277407   2.418   3.511   2.415  0.0032 -0.4959  0.0786
18639TIP3    H177408   2.376   3.503   2.329  0.3655 -1.1800 -0.0383
18639TIP3    H277409   2.408   3.424   2.455 -0.6538 -0.0334  0.9595
18640TIP3   OH277410   3.527   6.525   5.752  0.1673 -0.2109 -0.2944
18640TIP3    H177411   3.594   6.460   5.728  0.1084 -0.3483 -0.0890
18640TIP3    H277412   3.552   6.553   5.840  0.6167  0.5912 -0.6620
18641TIP3   OH277413   6.455   0.411  14.139 -0.2636 -0.1423 -0.1694
18641TIP3    H177414   6.527   0.461  14.101 -0.7423 -0.1881 -1.1645
18641TIP3    H277415   6.385   0.475  14.151  0.0785  0.0049  1.2492
18642TIP3   OH277416   3.920   2.608   1.090  0.2466 -0.5985 -0.1189
18642TIP3    H177417   4.013   2.622   1.110  0.2549 -1.3802  0.4186
18642TIP3    H277418   3.873   2.644   1.165 -0.0828  2.4496 -1.6178
18643TIP3   OH277419   1.681   3.056   5.069 -0.4475  0.4789 -0.6328
18643TIP3    H177420   1.658   2.995   5.139 -0.2505 -0.0714 -1.0369
18643TIP3    H277421   1.602   3.109   5.056  0.4942  2.8250  2.2022
18644TIP3   OH277422   5.922   4.341  12.709  0.1986 -0.2407  0.1495
18644TIP3    H177423   5.836   4.317  12.745  0.1781 -0.6687 -0.1819
18644TIP3    H277424   5.943   4.271  12.648  0.1847  0.5434 -0.7684
18645TIP3   OH277425   2.658   6.555  11.839 -0.1621  0.4600 -0.4054
18645TIP3    H177426   2.750   6.577  11.822  0.4354 -0.4199  1.4314
18645TIP3    H277427   2.643   6.475  11.789  0.0806  0.5911 -0.6879
18646TIP3   OH277428   2.081   4.966  11.744 -0.2712 -0.6538  0.2199
18646TIP3    H177429   2.120   4.993  11.660 -0.7657 -0.4240  0.0573
18646TIP3    H277430   2.114   5.031  11.806  0.9511 -1.4429  0.4217
18647TIP3   OH277431   2.481   4.318  15.438 -0.1212 -0.5661  0.1131
18647TIP3    H177432   2.540   4.388  15.411  1.1050 -1.3641  0.6231
18647TIP3    H277433   2.462   4.269  15.358  1.0404 -1.1132  0.1520
18648TIP3   OH277434   0.795   6.618  13.580  0.1032 -0.1618 -0.1319
18648TIP3    H177435   0.861   6.581  13.521  2.0189  3.6166 -0.6335
18648TIP3    H277436   0.820   6.584  13.666  0.9588 -1.0137 -0.6916
18649TIP3   OH277437   3.516   6.643   0.743 -0.0720 -0.5261  0.4732
18649TIP3    H177438   3.595   6.592   0.762  1.3371  1.5989  0.6562
18649TIP3    H277439   3.476   6.659   0.828 -0.9714 -1.9411  0.3465
18650TIP3   OH277440   2.600   6.484  11.455 -0.7049 -0.6519  0.4625
18650TIP3    H177441   2.566   6.421  11.518 -2.2346 -0.5243 -0.2149
18650TIP3    H277442   2.528   6.545  11.441  0.9901  1.8336  1.7791
18651TIP3   OH277443   1.442   5.431   5.473  0.1707  0.6565 -0.2040
18651TIP3    H177444   1.390   5.501   5.513 -1.2657 -0.5309  0.0894
18651TIP3    H277445   1.452   5.457   5.381 -1.1685  0.8076 -0.3243
18652TIP3   OH277446   1.326   3.730   5.394 -0.4363 -0.1267  0.2392
18652TIP3    H177447   1.368   3.714   5.478  1.4440  1.6118 -0.3014
18652TIP3    H277448   1.398   3.735   5.331 -1.6455  0.3923 -1.1716
18653TIP3   OH277449   1.774   6.139   3.882  0.2178 -0.1116  0.3760
18653TIP3    H177450   1.686   6.134   3.845  1.0627 -0.5771 -1.7004
18653TIP3    H277451   1.814   6.055   3.860  0.5388 -0.7539  3.1459
18654TIP3   OH277452   4.883   4.372   6.318  0.3944 -0.0144 -0.2993
18654TIP3    H177453   4.861   4.279   6.325  2.2118 -0.6371 -1.9281
18654TIP3    H277454   4.899   4.399   6.408 -3.6620 -0.2324  0.6967
18655TIP3   OH277455   6.587   3.458  12.631 -0.3782  0.1800  0.5317
18655TIP3    H177456   6.498   3.477  12.602  0.3431  2.0523 -0.6429
18655TIP3    H277457   6.587   3.365  12.651 -1.7755 -0.5800 -2.5690
18656TIP3   OH277458   2.515   5.610   0.033 -0.3583  0.1532  0.1369
18656TIP3    H177459   2.460   5.651   0.099 -1.0619 -0.8471  0.2039
18656TIP3    H277460   2.453   5.573  -0.030  0.2387 -0.6175 -0.0164
18657TIP3   OH277461   3.099   5.180   6.354 -0.1203  0.0819  0.4684
18657TIP3    H177462   3.131   5.152   6.440 -0.8731 -2.4457  0.0082
18657TIP3    H277463   3.133   5.115   6.293  3.1339  3.4826 -1.8361
18658TIP3   OH277464   3.504   1.609  12.460  0.2366  0.4297 -0.0516
18658TIP3    H177465   3.581   1.563  12.493  1.2173  1.8248 -0.3047
18658TIP3    H277466   3.430   1.553  12.485  1.3929 -1.6967 -1.1103
18659TIP3   OH277467   0.756   2.582  10.186 -0.0385  0.1031  0.5610
18659TIP3    H177468   0.764   2.678  10.183  2.4587 -0.0579  0.1622
18659TIP3    H277469   0.665   2.565  10.162 -0.1152  2.3174 -1.0215
18660TIP3   OH277470   0.217   3.522   4.488  0.1221 -0.2730 -0.1251
18660TIP3    H177471   0.256   3.435   4.480 -0.7523 -0.5794 -1.1449
18660TIP3    H277472   0.179   3.540   4.403 -0.8556  0.5643  0.4632
18661TIP3   OH277473   2.683   4.355   4.685 -0.2936 -0.6585 -0.2677
18661TIP3    H177474   2.609   4.415   4.686 -0.0829 -0.4014  0.1743
18661TIP3    H277475   2.644   4.268   4.682 -0.5998 -0.4969 -1.8018
18662TIP3   OH277476   1.107   2.515   2.039  0.4398  0.1481 -0.5833
18662TIP3    H177477   1.039   2.469   1.990 -0.6217 -1.3547  2.0565
18662TIP3    H277478   1.066   2.538   2.122  2.9733 -0.3616  0.9446
18663TIP3   OH277479   5.366   2.199   2.416  0.6356 -0.0538  0.1881
18663TIP3    H177480   5.358   2.196   2.321 -0.4079  0.1119  0.2484
18663TIP3    H277481   5.335   2.286   2.440  0.9123 -0.0857  0.6714
18664TIP3   OH277482   4.436   5.342  16.169  0.1834  0.0793  0.1860
18664TIP3    H177483   4.512   5.290  16.143  2.1842  2.3211  1.1957
18664TIP3    H277484   4.404   5.301  16.249  0.5946 -0.6492 -0.0224
18665TIP3   OH277485   3.970   4.623  16.781 -0.9551 -0.6491 -0.3014
18665TIP3    H177486   3.913   4.676  16.836  0.3410 -0.1137  0.5837
18665TIP3    H277487   3.912   4.558  16.741 -2.4679  0.9328 -0.8177
18666TIP3   OH277488   1.619   3.065   3.474 -0.0848  0.6553 -0.0429
18666TIP3    H177489   1.605   2.987   3.528 -0.0540  0.4850 -0.2770
18666TIP3    H277490   1.712   3.084   3.483  0.3410 -0.5206 -1.5495
18667TIP3   OH277491   3.576   2.949  16.006  0.2753 -0.3042  0.1921
18667TIP3    H177492   3.632   3.012  15.960  0.5867 -0.3585  0.4950
18667TIP3    H277493   3.493   2.952  15.958  0.3614  0.1701  0.0653
18668TIP3   OH277494   5.299   2.026   0.467 -0.0758  0.2961  0.1896
18668TIP3    H177495   5.324   2.049   0.377 -0.1667 -0.0794  0.0665
18668TIP3    H277496   5.215   1.981   0.457 -0.5845  1.1567  0.5616
18669TIP3   OH277497   1.252   5.437  12.723  0.0160  0.1306 -0.3834
18669TIP3    H177498   1.166   5.457  12.686  0.0593 -1.0472 -1.1828
18669TIP3    H277499   1.234   5.381  12.799  0.0579  0.3366 -0.2196
18670TIP3   OH277500   6.256   2.686  11.765 -0.1883  0.1588  0.2912
18670TIP3    H177501   6.232   2.595  11.784  1.8495 -0.1686  1.6186
18670TIP3    H277502   6.193   2.714  11.699 -1.1393 -2.0746  0.1571
18671TIP3   OH277503   1.223   1.189  17.214  0.1862 -0.3750  0.7954
18671TIP3    H177504   1.260   1.269  17.251 -0.4012  0.2366  0.0947
18671TIP3    H277505   1.173   1.219  17.138 -1.6656 -1.1597  1.6393
18672TIP3   OH277506   1.506   0.548   3.026  0.8157 -0.1630 -0.4775
18672TIP3    H177507   1.484   0.514   2.940 -1.0015  0.4627 -0.3171
18672TIP3    H277508   1.532   0.639   3.010 -0.2536  0.1880 -0.3287
18673TIP3   OH277509   2.600   5.050   5.759 -0.1848 -0.5149 -0.4773
18673TIP3    H177510   2.543   4.976   5.736 -0.1324 -0.8638  0.4679
18673TIP3    H277511   2.689   5.015   5.752 -0.0671 -0.0250 -1.7595
18674TIP3   OH277512   3.647   0.409   6.207  0.1721  0.2748  0.1450
18674TIP3    H177513   3.742   0.401   6.199  0.3379  0.3976  1.5869
18674TIP3    H277514   3.626   0.494   6.168  0.4533 -0.3301 -1.3981
18675TIP3   OH277515   1.020   4.902  14.840 -0.2689 -0.4136 -0.2834
18675TIP3    H177516   0.974   4.820  14.858  0.2341 -0.0628  3.3122
18675TIP3    H277517   0.952   4.970  14.843 -0.5134 -0.5116 -2.1898
18676TIP3   OH277518   1.440   3.480  14.235 -0.1473 -0.2366 -0.0379
18676TIP3    H177519   1.512   3.418  14.247  1.4206  1.4365 -0.3898
18676TIP3    H277520   1.363   3.434  14.269  0.8204 -2.5825 -0.8211
18677TIP3   OH277521   2.584   1.827   6.546  0.3952  0.0618 -0.2578
18677TIP3    H177522   2.609   1.830   6.454  0.5764  1.6747 -0.1721
18677TIP3    H277523   2.552   1.915   6.566  1.4851  0.1124  1.5186
18678TIP3   OH277524   5.408   5.183   4.274  0.1793 -0.5831  1.1294
18678TIP3    H177525   5.342   5.246   4.303 -1.3025 -1.0432 -0.9145
18678TIP3    H277526   5.362   5.099   4.276  0.5640 -0.8783 -0.6173
18679TIP3   OH277527   5.867   4.617   5.337  0.0040 -0.3028 -0.1529
18679TIP3    H177528   5.820   4.546   5.293  0.7511 -0.0930 -1.3662
18679TIP3    H277529   5.867   4.592   5.429 -3.3969  0.2414  0.1173
18680TIP3   OH277530   0.787   4.907   3.307 -0.1667 -0.3360  0.0986
18680TIP3    H177531   0.757   4.966   3.376  0.3485 -0.7105  0.6530
18680TIP3    H277532   0.879   4.929   3.294 -0.3699  0.0608 -0.8264
18681TIP3   OH277533   4.334   3.638   3.955 -0.2100 -0.2866 -0.9849
18681TIP3    H177534   4.293   3.573   4.011  0.5791  0.0299 -0.0022
18681TIP3    H277535   4.318   3.607   3.865 -0.1766 -1.6210 -0.5448
18682TIP3   OH277536   3.962   0.526   4.017 -0.0918  0.2490 -0.5523
18682TIP3    H177537   3.878   0.513   4.061  0.0656  1.6757  0.2129
18682TIP3    H277538   4.023   0.471   4.066 -0.5685 -0.9350 -1.2186
18683TIP3   OH277539   6.092   1.486  15.039  0.8596  0.6830 -0.4009
18683TIP3    H177540   6.020   1.546  15.058  0.0346  0.4537 -2.4534
18683TIP3    H277541   6.088   1.421  15.109  1.4477  2.6606  1.5867
18684TIP3   OH277542   0.835   1.328   0.860  0.1858 -0.6265  0.1873
18684TIP3    H177543   0.807   1.327   0.769  0.1459 -2.2073  0.1943
18684TIP3    H277544   0.881   1.246   0.872  0.4118 -0.3289  1.5342
18685TIP3   OH277545   5.820   3.223  14.775  0.1291  0.1587 -0.3554
18685TIP3    H177546   5.823   3.128  14.783 -2.1592  0.0070 -0.5112
18685TIP3    H277547   5.892   3.245  14.717 -0.7374 -1.7761 -2.3169
18686TIP3   OH277548   3.684   5.027  14.762  0.5081 -0.4579  0.3324
18686TIP3    H177549   3.640   5.111  14.747 -0.6225 -0.8283  1.3042
18686TIP3    H277550   3.764   5.031  14.711  0.7002  1.3973  0.7171
18687TIP3   OH277551   4.801   5.028  12.970 -0.2692  0.2609 -0.3859
18687TIP3    H177552   4.886   4.984  12.957 -0.4009  0.6322 -2.9652
18687TIP3    H277553   4.775   5.002  13.059  2.1511 -0.5086  0.2002
18688TIP3   OH277554   5.952   6.233   3.303 -0.5228  0.0009  0.7268
18688TIP3    H177555   5.914   6.312   3.342 -1.0787 -0.8263  1.9053
18688TIP3    H277556   6.046   6.244   3.315 -0.6365  0.1760  1.5475
18689TIP3   OH277557   3.291   0.310  14.605  0.3193  0.4770  0.0280
18689TIP3    H177558   3.259   0.385  14.654  0.5045  0.9764 -0.6056
18689TIP3    H277559   3.340   0.258  14.670  0.5632  1.1287  0.3700
18690TIP3   OH277560   4.944   5.262  15.362 -0.1376 -0.0930  0.5791
18690TIP3    H177561   4.865   5.261  15.308 -0.0480 -1.0618  0.4503
18690TIP3    H277562   4.970   5.170  15.369  0.9306  0.1999  0.6961
18691TIP3   OH277563   5.371   0.352   6.487 -0.2142  0.1446  0.6033
18691TIP3    H177564   5.325   0.281   6.442  0.4632  0.2985 -0.3628
18691TIP3    H277565   5.317   0.370   6.564 -2.4577  1.1238 -1.0831
18692TIP3   OH277566   2.719   1.366   1.109 -0.7452 -0.0622  0.4489
18692TIP3    H177567   2.653   1.412   1.058 -2.6274 -2.8962  0.1172
18692TIP3    H277568   2.688   1.374   1.200 -0.8499 -0.3183  0.4357
18693TIP3   OH277569   1.396   3.624  13.992  0.1885  0.6139  0.8010
18693TIP3    H177570   1.426   3.588  14.075  0.4747  2.4691  1.5545
18693TIP3    H277571   1.461   3.691  13.970  0.1157  0.1633 -0.9325
18694TIP3   OH277572   2.240   3.966   2.287  0.2806 -0.0789 -0.4828
18694TIP3    H177573   2.167   4.027   2.297 -0.6223 -1.4362  2.4116
18694TIP3    H277574   2.234   3.935   2.197 -1.2190  1.6480 -1.0261
18695TIP3   OH277575   6.663   4.977   5.563  0.0551  0.3072 -0.4221
18695TIP3    H177576   6.726   5.032   5.519  1.7605 -0.4650  0.9279
18695TIP3    H277577   6.701   4.889   5.561 -0.5411 -0.0345  1.1446
18696TIP3   OH277578   5.282   3.132  14.601  0.0174 -0.3635 -0.1106
18696TIP3    H177579   5.377   3.146  14.591  0.1311 -0.9370  0.0844
18696TIP3    H277580   5.266   3.145  14.695 -0.7237  3.1710 -0.5885
18697TIP3   OH277581   5.205   4.980   3.445  0.0516  0.1504 -0.2717
18697TIP3    H177582   5.239   5.045   3.384  2.0078 -1.3929 -0.9335
18697TIP3    H277583   5.278   4.961   3.503 -0.6406 -1.0675  0.2372
18698TIP3   OH277584   5.709   2.417   1.382 -0.4431 -0.7093  0.2764
18698TIP3    H177585   5.767   2.420   1.306 -1.3177 -1.1534 -0.4297
18698TIP3    H277586   5.694   2.508   1.405  0.9111 -0.6021  0.7701
18699TIP3   OH277587   4.750   1.822   0.916 -0.3914  0.5413 -0.9277
18699TIP3    H177588   4.677   1.806   0.856 -0.9281  1.1151 -0.4477
18699TIP3    H277589   4.733   1.761   0.989 -2.1448  2.7264  0.6520
18700TIP3   OH277590   0.797   2.674   0.917  0.5689 -0.4277  0.4121
18700TIP3    H177591   0.776   2.761   0.882 -1.2464 -0.8096  0.4983
18700TIP3    H277592   0.887   2.683   0.949  1.0932  0.8777 -1.2677
18701TIP3   OH277593   6.815   0.610   2.704  0.1372  0.4541  0.0102
18701TIP3    H177594   6.852   0.695   2.683  2.2451 -0.8854 -2.3164
18701TIP3    H277595   6.772   0.582   2.623 -2.6029  0.1872  1.4211
18702TIP3   OH277596   1.399   0.306   2.437  0.1649  0.9206 -0.3833
18702TIP3    H177597   1.404   0.392   2.396 -0.8016  1.0571 -0.2220
18702TIP3    H277598   1.466   0.310   2.506 -1.6719  2.5514  1.4234
18703TIP3   OH277599   6.129   0.880   1.823  0.4494 -0.6849 -0.3257
18703TIP3    H177600   6.033   0.887   1.829  0.5409  0.1777  0.4362
18703TIP3    H277601   6.159   0.971   1.818  1.1987 -0.9737 -1.3790
18704TIP3   OH277602   3.668   2.214  16.038  0.0370  0.7287 -0.0042
18704TIP3    H177603   3.696   2.182  16.123  1.6502 -0.4844 -0.9240
18704TIP3    H277604   3.653   2.135  15.986  2.2566  1.3406 -1.7678
18705TIP3   OH277605   5.724   4.805   3.211  0.0477 -0.6707 -0.0029
18705TIP3    H177606   5.787   4.734   3.221 -0.7408 -1.3269  0.4604
18705TIP3    H277607   5.758   4.858   3.139  1.6517 -0.4262  0.8872
18706TIP3   OH277608   4.807   1.404  13.690 -0.2708 -0.3422 -0.0009
18706TIP3    H177609   4.781   1.321  13.732  0.9980  0.2221  2.0613
18706TIP3    H277610   4.849   1.453  13.760  0.7688  1.2633 -1.6818
18707TIP3   OH277611   5.967   0.796   5.251 -0.3221 -0.3377  0.2072
18707TIP3    H177612   5.889   0.847   5.227 -2.3067 -1.6717  3.2240
18707TIP3    H277613   6.029   0.861   5.285  0.7259  0.9585 -3.6347
18708TIP3   OH277614   0.914   2.543  12.292 -0.1487  0.3787 -0.0785
18708TIP3    H177615   0.858   2.465  12.284 -2.0386  1.7851 -1.3057
18708TIP3    H277616   0.933   2.568  12.201 -0.8259  2.1823  0.2441
18709TIP3   OH277617   3.454   6.442  14.796 -0.1689 -0.2937 -0.1291
18709TIP3    H177618   3.537   6.480  14.825  0.0474 -0.4841 -0.5015
18709TIP3    H277619   3.478   6.371  14.737 -0.6034  1.0583 -2.0241
18710TIP3   OH277620   6.623   0.261  14.670 -0.5086  0.3214 -0.0077
18710TIP3    H177621   6.606   0.351  14.698  1.4481  0.5410  0.6912
18710TIP3    H277622   6.700   0.235  14.721 -0.5836 -1.4937 -0.7426
18711TIP3   OH277623   1.782   4.751  12.395 -0.3621  0.1272 -0.1861
18711TIP3    H177624   1.851   4.791  12.447  0.2741  0.4757 -1.2607
18711TIP3    H277625   1.820   4.669  12.363 -0.5203  0.2049 -0.5886
18712TIP3   OH277626   5.211   3.529   3.173  0.0977  0.1341 -0.2185
18712TIP3    H177627   5.126   3.496   3.201 -0.2215  0.4217 -0.8267
18712TIP3    H277628   5.239   3.588   3.243  2.1251 -3.6395  2.5334
18713TIP3   OH277629   5.091   5.896   3.255  0.5200  0.4741 -0.3411
18713TIP3    H177630   5.126   5.982   3.230  0.3274  0.7980  0.4656
18713TIP3    H277631   5.070   5.853   3.172  0.6593  1.1934 -0.7535
18714TIP3   OH277632   6.788   2.211  15.350 -0.0548  0.3856  0.0801
18714TIP3    H177633   6.808   2.188  15.259 -0.9036 -0.8655  0.1827
18714TIP3    H277634   6.803   2.129  15.399 -1.8053  0.4049  0.6978
18715TIP3   OH277635   5.403   5.985  12.993 -0.1028 -0.1411  0.3229
18715TIP3    H177636   5.367   5.906  13.033 -0.4298 -0.3709 -0.4146
18715TIP3    H277637   5.447   6.031  13.065  3.7685 -3.0001  0.0877
18716TIP3   OH277638   3.207   0.338   4.182  0.2012  0.0174 -0.4433
18716TIP3    H177639   3.159   0.421   4.183  2.0487  1.1774 -1.7110
18716TIP3    H277640   3.159   0.283   4.119  0.1726  0.9218 -1.2343
18717TIP3   OH277641   2.552   0.732   3.894 -0.3691 -0.4386 -0.4285
18717TIP3    H177642   2.596   0.647   3.896 -1.6145 -1.2174 -2.4395
18717TIP3    H277643   2.491   0.725   3.820  0.6974  2.7956 -1.7918
18718TIP3   OH277644   1.861   3.582   4.927  0.2004  0.2715  0.7830
18718TIP3    H177645   1.951   3.611   4.938 -0.0843  1.0558  1.1641
18718TIP3    H277646   1.853   3.506   4.985  0.7333 -0.0629  0.4176
18719TIP3   OH277647   5.207   6.046   6.837 -0.2152 -0.2363  0.0386
18719TIP3    H177648   5.190   6.099   6.915 -1.2428 -0.8069  0.2079
18719TIP3    H277649   5.143   6.077   6.773  0.9896  0.6381 -0.8127
18720TIP3   OH277650   5.508   2.599  17.162 -0.5922 -0.1335 -0.7770
18720TIP3    H177651   5.553   2.674  17.202 -0.2171 -0.5929 -0.3241
18720TIP3    H277652   5.452   2.638  17.095  0.5961  0.4518 -1.4768
18721TIP3   OH277653   6.586   3.848  12.208  0.2015 -0.2211  0.4844
18721TIP3    H177654   6.569   3.811  12.122 -0.6330 -1.9001  1.3000
18721TIP3    H277655   6.516   3.912  12.222 -0.1487 -0.5463  0.2298
18722TIP3   OH277656   2.633   0.073  16.336  0.2107 -0.0385 -0.0558
18722TIP3    H177657   2.678   0.123  16.268  0.3811  1.2436  0.9470
18722TIP3    H277658   2.698   0.011  16.368 -0.1085 -1.2009 -1.5571
18723TIP3   OH277659   2.451   4.894   3.667 -0.5069  0.1170 -0.2771
18723TIP3    H177660   2.433   4.807   3.702 -1.5176  0.6289  0.5634
18723TIP3    H277661   2.366   4.939   3.671 -0.1634  0.8927 -1.4083
18724TIP3   OH277662   5.992   2.353   5.710  0.3070 -0.1005  0.1845
18724TIP3    H177663   6.066   2.304   5.746  0.7520  1.2796  1.2534
18724TIP3    H277664   6.009   2.444   5.735  0.1236  0.8485 -2.6953
18725TIP3   OH277665   4.497   2.309   4.763 -0.2946 -0.3440 -0.2384
18725TIP3    H177666   4.416   2.345   4.727  0.2587  0.9501 -0.2292
18725TIP3    H277667   4.504   2.348   4.849  1.1163  0.7688 -0.8349
18726TIP3   OH277668   0.794   1.828   1.520 -0.0017  0.1792 -0.5250
18726TIP3    H177669   0.883   1.798   1.505 -0.4040 -1.5400  0.3378
18726TIP3    H277670   0.740   1.773   1.463 -0.5258  1.3453 -1.1987
18727TIP3   OH277671   6.641   2.183   2.875 -0.5287  0.1701 -0.0330
18727TIP3    H177672   6.632   2.265   2.922  1.4591  0.9280 -0.8356
18727TIP3    H277673   6.665   2.119   2.943  1.2613  1.0187  0.1958
18728TIP3   OH277674   3.703   1.170  13.221  0.0303  0.0445  0.0273
18728TIP3    H177675   3.653   1.217  13.155 -0.8661 -0.9029  0.0081
18728TIP3    H277676   3.752   1.238  13.267  0.7536  0.7222 -1.6483
18729TIP3   OH277677   3.033   5.288  17.133  0.5575  0.5112 -0.1374
18729TIP3    H177678   3.085   5.242  17.200 -0.1163  0.0704  0.0862
18729TIP3    H277679   2.986   5.355  17.182  0.0932  0.2128 -0.1723
18730TIP3   OH277680   0.068   5.594  15.440 -0.0621  0.4868  0.0973
18730TIP3    H177681   0.098   5.664  15.381 -1.2122  0.5077 -0.4984
18730TIP3    H277682   0.006   5.543  15.387  0.7692 -1.0214  0.5027
18731TIP3   OH277683   1.455   6.145   5.732 -0.1389 -0.0451 -0.1988
18731TIP3    H177684   1.392   6.178   5.667 -1.3768  1.8238  1.8101
18731TIP3    H277685   1.405   6.080   5.782 -0.7722  1.8962  1.8076
18732TIP3   OH277686   6.728   5.753   4.839 -0.6998  0.0680 -0.1230
18732TIP3    H177687   6.756   5.720   4.924 -0.0407 -1.1697 -0.7891
18732TIP3    H277688   6.718   5.847   4.851  1.6439  0.2676  0.7225
18733TIP3   OH277689   3.720   2.501   2.118  0.9285  0.2048 -0.2463
18733TIP3    H177690   3.731   2.431   2.182 -0.5873 -0.9731 -1.2068
18733TIP3    H277691   3.806   2.509   2.076  1.1544 -1.0185 -0.0449
18734TIP3   OH277692   6.552   0.299  17.218 -0.6042  0.0737  0.0714
18734TIP3    H177693   6.595   0.216  17.238  0.6971  0.8209  0.4874
18734TIP3    H277694   6.623   0.356  17.189 -0.4963  2.5976  4.5064
18735TIP3   OH277695   6.004   0.254  14.946  0.3603  0.7630  0.0495
18735TIP3    H177696   6.028   0.333  14.896 -0.7077  1.8602  1.1975
18735TIP3    H277697   6.074   0.192  14.926  0.0036  1.1099 -2.7821
18736TIP3   OH277698   0.798   5.089   2.802  0.3156 -0.5543 -0.2875
18736TIP3    H177699   0.773   5.136   2.722 -0.2281 -0.3936 -0.0261
18736TIP3    H277700   0.728   5.026   2.816 -0.4934  0.5896  1.0212
18737TIP3   OH277701   3.606   5.543  14.524  0.4087 -0.1294 -0.1581
18737TIP3    H177702   3.630   5.528  14.432  2.4373 -1.2071  0.4754
18737TIP3    H277703   3.572   5.459  14.554 -0.4354  0.2742  0.0585
18738TIP3   OH277704   1.836   1.839   0.238 -0.0231  0.8484  0.9239
18738TIP3    H177705   1.929   1.822   0.250 -0.5247 -1.6719  1.7518
18738TIP3    H277706   1.824   1.930   0.268  2.4609  2.0083 -1.2385
18739TIP3   OH277707   2.770   0.166  15.587 -0.4276  0.0530 -0.1028
18739TIP3    H177708   2.781   0.152  15.681  1.7975  0.2142 -0.2806
18739TIP3    H277709   2.735   0.083  15.554  1.0883 -0.8969  0.5615
18740TIP3   OH277710   2.415   0.194   1.070 -0.0759 -0.0269 -0.3380
18740TIP3    H177711   2.370   0.274   1.098  0.6205 -0.1485  1.2321
18740TIP3    H277712   2.508   0.219   1.067  0.0936 -0.6353 -0.3082
18741TIP3   OH277713   6.381   2.429  13.636 -0.2000  0.0011  0.1403
18741TIP3    H177714   6.306   2.488  13.636 -0.6408 -0.5393 -0.7155
18741TIP3    H277715   6.414   2.432  13.546  0.9356  0.3954  0.5585
18742TIP3   OH277716   3.253   2.511   0.015  0.2872 -0.2301 -0.1836
18742TIP3    H177717   3.187   2.572  -0.018  0.0042 -0.0026  0.7582
18742TIP3    H277718   3.337   2.556   0.002  0.4695 -1.2265 -2.9849
18743TIP3   OH277719   2.100   1.103   0.213 -0.0022 -0.2613 -0.3634
18743TIP3    H177720   2.168   1.103   0.280  0.3570 -2.0662 -0.6623
18743TIP3    H277721   2.051   1.184   0.228  0.6440 -0.1593  1.4481
18744TIP3   OH277722   0.866   3.669   1.713  0.9307  0.6693 -0.0522
18744TIP3    H177723   0.858   3.573   1.707  1.6560  0.4936  1.3195
18744TIP3    H277724   0.871   3.686   1.807 -0.0424  2.1480 -0.2303
18745TIP3   OH277725   0.085   2.753   3.080 -0.3473  0.3526 -0.2192
18745TIP3    H177726   0.112   2.667   3.112 -0.8827  0.2409 -0.0582
18745TIP3    H277727   0.137   2.766   3.000 -1.5701 -0.9305 -1.2838
18746TIP3   OH277728   5.118   4.942  12.630  1.0836 -0.2689 -0.2055
18746TIP3    H177729   5.057   4.869  12.623  0.6310  0.2002 -1.4522
18746TIP3    H277730   5.202   4.906  12.602  1.3531 -0.8485  1.2666
18747TIP3   OH277731   0.513   4.349   0.749 -0.1694  0.2432 -0.6220
18747TIP3    H177732   0.562   4.399   0.683 -0.9023  1.2886 -0.4043
18747TIP3    H277733   0.441   4.407   0.774 -0.4130 -0.4958  0.4587
18748TIP3   OH277734   5.368   2.143  14.912 -0.4264  0.6802 -0.2092
18748TIP3    H177735   5.432   2.168  14.845  1.1471 -0.3828  0.8212
18748TIP3    H277736   5.348   2.052  14.893  1.2397 -0.1362  1.5866
18749TIP3   OH277737   5.077   1.277  16.141 -0.6552  0.2312 -0.8473
18749TIP3    H177738   5.017   1.287  16.215 -1.2233  0.8356 -1.3745
18749TIP3    H277739   5.039   1.208  16.088  0.8280 -1.6746  0.4241
18750TIP3   OH277740   3.055   6.425   5.560 -0.2721  0.0135 -0.5623
18750TIP3    H177741   3.093   6.438   5.647 -0.3592 -1.2857 -0.3156
18750TIP3    H277742   3.127   6.389   5.507  0.0095  1.5278 -1.2680
18751TIP3   OH277743   6.189   6.537   0.345 -0.4200  0.2739 -0.4078
18751TIP3    H177744   6.236   6.577   0.272 -1.0506  1.6539 -0.0879
18751TIP3    H277745   6.113   6.594   0.358 -1.2134 -0.9028  0.2447
18752TIP3   OH277746   2.917   4.882   0.006  0.3292 -0.0871  0.1980
18752TIP3    H177747   2.836   4.893  -0.043 -0.2851 -0.5671  1.0784
18752TIP3    H277748   2.907   4.938   0.083 -0.3064 -2.0762  1.6545
18753TIP3   OH277749   3.225   1.969   1.070  0.6949 -0.0615 -0.4580
18753TIP3    H177750   3.144   1.938   1.111 -0.1519  0.6405 -1.5554
18753TIP3    H277751   3.245   2.051   1.114  0.8017 -0.2169 -0.2126
18754TIP3   OH277752   4.193   2.209   3.525  0.2248 -1.0568 -0.1037
18754TIP3    H177753   4.189   2.154   3.604 -1.0071  0.3587  0.8901
18754TIP3    H277754   4.136   2.164   3.463 -0.0608 -1.3671  0.3696
18755TIP3   OH277755   1.031   4.920   2.856 -0.3613  0.2892 -0.2986
18755TIP3    H177756   0.982   5.002   2.852 -1.1172 -0.0600  1.2705
18755TIP3    H277757   1.108   4.941   2.909 -0.3602  0.0750 -0.2158
18756TIP3   OH277758   3.976   2.819   0.102  0.1014 -0.1659  0.0155
18756TIP3    H177759   3.988   2.737   0.150  0.7029  0.4394  0.9094
18756TIP3    H277760   3.892   2.853   0.133  0.6922  0.4418  0.9834
18757TIP3   OH277761   4.336   1.333  12.023  0.4381  0.0885 -0.5366
18757TIP3    H177762   4.352   1.416  11.979 -1.2726 -1.2753 -4.1386
18757TIP3    H277763   4.421   1.307  12.057  1.4014  2.3316 -1.0625
18758TIP3   OH277764   1.275   2.418  13.625  0.6854 -0.0337  0.4187
18758TIP3    H177765   1.238   2.486  13.681  0.4731 -0.0965  0.3566
18758TIP3    H277766   1.228   2.428  13.541  0.3082 -0.5649  0.5592
18759TIP3   OH277767   6.374   4.818  16.444 -0.1663  0.1148  0.6635
18759TIP3    H177768   6.443   4.799  16.509  1.6126  1.4677 -0.7004
18759TIP3    H277769   6.397   4.905  16.411 -3.4097  1.2937  1.1399
18760TIP3   OH277770   3.614   6.324   1.343 -0.2567  0.7113 -0.6382
18760TIP3    H177771   3.655   6.240   1.326  1.9510  1.7584 -0.8861
18760TIP3    H277772   3.521   6.305   1.350  0.1576 -1.6905 -0.9135
18761TIP3   OH277773   5.279   0.215  16.142 -0.3886  0.0428  0.2301
18761TIP3    H177774   5.187   0.232  16.165 -0.5439  1.2218 -1.1617
18761TIP3    H277775   5.325   0.295  16.167  0.1675 -0.3101  0.3385
18762TIP3   OH277776   2.399   4.497   0.412  0.1475  0.4119  0.1336
18762TIP3    H177777   2.313   4.463   0.438  0.9862 -0.6779  1.6497
18762TIP3    H277778   2.413   4.572   0.469  0.5067  0.1319  0.4184
18763TIP3   OH277779   2.125   6.123   1.561 -0.0175 -0.1951  0.1123
18763TIP3    H177780   2.199   6.072   1.529 -0.3548 -1.1426  0.7993
18763TIP3    H277781   2.049   6.084   1.518 -0.1562  0.6763 -0.4731
18764TIP3   OH277782   0.585   4.094  14.511  0.7362 -0.0760 -0.0795
18764TIP3    H177783   0.588   4.085  14.416 -1.6697  1.2082 -0.3573
18764TIP3    H277784   0.668   4.057  14.541  2.2122  0.7697 -2.7546
18765TIP3   OH277785   1.511   4.543   4.711 -0.3373  0.0017 -0.2354
18765TIP3    H177786   1.562   4.599   4.769  0.0540 -1.0913  0.5218
18765TIP3    H277787   1.463   4.603   4.655  0.5874  1.0713  0.0900
18766TIP3   OH277788   6.778   3.412  16.149  0.2451  0.2653 -0.4831
18766TIP3    H177789   6.716   3.439  16.081  0.8517 -0.0543 -1.1850
18766TIP3    H277790   6.768   3.317  16.155  0.6252  0.2185 -0.5632
18767TIP3   OH277791   4.246   0.757   1.443 -0.1054  0.2644 -0.2160
18767TIP3    H177792   4.155   0.772   1.418 -0.1002 -0.5891 -0.7945
18767TIP3    H277793   4.292   0.744   1.360  0.4874  0.4150  0.0875
18768TIP3   OH277794   6.657   0.541   4.972  0.6341 -0.0994 -0.6761
18768TIP3    H177795   6.663   0.565   5.065 -3.4332 -0.4162 -0.1518
18768TIP3    H277796   6.659   0.625   4.926 -1.2349  0.3989  0.0822
18769TIP3   OH277797   0.101   4.579  10.974 -0.5896  0.0698 -0.5255
18769TIP3    H177798   0.122   4.595  11.066 -0.3840 -1.1120 -0.3515
18769TIP3    H277799   0.186   4.576  10.930 -0.7455  3.5746 -1.3299
18770TIP3   OH277800   3.271   6.228  14.836 -0.0640 -0.4809  0.2789
18770TIP3    H177801   3.336   6.299  14.838  0.2421 -0.7523  0.0933
18770TIP3    H277802   3.252   6.215  14.744  0.0879 -0.8247  0.2937
18771TIP3   OH277803   0.665   4.083   2.891  0.1093 -0.2167 -0.2779
18771TIP3    H177804   0.752   4.079   2.851  0.0234  0.5877 -0.5584
18771TIP3    H277805   0.604   4.062   2.820  0.0026  0.4766 -0.3975
18772TIP3   OH277806   0.883   3.233   2.302 -0.1148  0.0466  0.6544
18772TIP3    H177807   0.895   3.195   2.389 -1.8380  3.0108  2.3396
18772TIP3    H277808   0.917   3.322   2.310 -1.1998  0.7005 -1.4239
18773TIP3   OH277809   2.749   2.578  14.133 -0.2409  0.5380  0.2260
18773TIP3    H177810   2.711   2.500  14.174  0.7648  0.1090  0.3872
18773TIP3    H277811   2.819   2.543  14.077  2.1281  1.4396  2.4129
18774TIP3   OH277812   0.340   3.266   1.809 -0.4501  0.0241 -0.5244
18774TIP3    H177813   0.285   3.342   1.789 -0.4159  0.3121  0.4387
18774TIP3    H277814   0.280   3.203   1.848 -0.5765 -0.6556 -1.7576
18775TIP3   OH277815   0.255   0.642   4.770  0.6153 -0.3795  0.4730
18775TIP3    H177816   0.328   0.580   4.766  0.2736 -0.7298 -1.1779
18775TIP3    H277817   0.295   0.727   4.752  0.5126 -0.7179 -1.6333
18776TIP3   OH277818   3.551   3.981   5.678  0.1459  0.1417 -0.4359
18776TIP3    H177819   3.487   4.047   5.704  0.2821  0.7445 -1.5806
18776TIP3    H277820   3.631   4.007   5.724 -0.3291 -0.4709  0.7993
18777TIP3   OH277821   0.601   6.391   0.484  0.0926 -0.1790  0.1831
18777TIP3    H177822   0.609   6.459   0.417  0.4984  1.1232  1.4967
18777TIP3    H277823   0.677   6.404   0.540 -1.4647  0.3388  2.2841
18778TIP3   OH277824   5.166   2.363   4.370 -0.1419  0.2215 -0.5627
18778TIP3    H177825   5.144   2.358   4.463  1.2308  2.7136 -0.0321
18778TIP3    H277826   5.258   2.336   4.367 -0.2978 -0.2501 -1.2924
18779TIP3   OH277827   3.991   1.316  14.136  0.4497  0.3506  0.0777
18779TIP3    H177828   4.076   1.272  14.144  0.1914  0.0206  1.2972
18779TIP3    H277829   3.975   1.350  14.224 -0.1004  1.5166 -0.4624
18780TIP3   OH277830   4.693   1.322  12.870 -0.1458  0.2031 -0.7827
18780TIP3    H177831   4.734   1.365  12.795  0.8210 -0.1115 -0.4526
18780TIP3    H277832   4.600   1.343  12.862 -0.1822 -0.4887 -2.5009
18781TIP3   OH277833   6.596   6.281  14.801 -0.8571 -0.1825 -0.2174
18781TIP3    H177834   6.507   6.294  14.832 -0.5182  1.0841  0.2665
18781TIP3    H277835   6.595   6.312  14.710 -0.5658  1.3784  0.2732
18782TIP3   OH277836   1.066   6.655   0.770 -0.2105  0.5558 -0.1046
18782TIP3    H177837   1.060   6.609   0.854 -0.3960 -0.1972 -0.5201
18782TIP3    H277838   1.117   6.734   0.789 -2.0374  1.4971  1.1712
18783TIP3   OH277839   3.250   1.489   2.937 -0.4814 -0.0085  0.2657
18783TIP3    H177840   3.239   1.417   2.875 -3.0644 -0.1459  0.7595
18783TIP3    H277841   3.328   1.466   2.987 -1.4799 -2.7699  0.7384
18784TIP3   OH277842   2.590   1.522   5.586 -0.0714  0.2359 -0.4813
18784TIP3    H177843   2.524   1.476   5.638  0.5425 -1.4209 -1.1140
18784TIP3    H277844   2.659   1.458   5.570  1.3623  1.7056 -0.4911
18785TIP3   OH277845   6.300   0.282  14.529 -0.1620  0.4021 -0.3550
18785TIP3    H177846   6.371   0.220  14.543  0.6835  0.7793 -2.4924
18785TIP3    H277847   6.313   0.350  14.595  0.4997 -0.3274  0.2817
18786TIP3   OH277848   2.769   2.167  12.910  0.3201 -0.3639 -0.3121
18786TIP3    H177849   2.754   2.221  12.987  0.7952 -1.7564  0.7871
18786TIP3    H277850   2.729   2.083  12.931  0.3375 -0.7314 -1.6452
18787TIP3   OH277851   1.602   2.847   1.455 -0.7143  0.4169 -0.0417
18787TIP3    H177852   1.531   2.831   1.393 -1.0018  0.1940  0.3363
18787TIP3    H277853   1.632   2.760   1.480 -0.5472  0.5065  0.0728
18788TIP3   OH277854   2.611   5.967  14.643  0.2244  0.2089  0.2432
18788TIP3    H177855   2.635   5.893  14.588 -1.7308 -0.1247 -0.2683
18788TIP3    H277856   2.634   6.044  14.591  2.8921  0.0468  1.0530
18789TIP3   OH277857   1.436   4.960   5.199 -0.3560 -0.0891 -0.0530
18789TIP3    H177858   1.502   5.028   5.215 -0.1353 -0.5211  0.9086
18789TIP3    H277859   1.355   4.997   5.232  0.1021 -0.9909  2.2425
18790TIP3   OH277860   1.676   2.973  13.090  0.3880  0.2997  0.4285
18790TIP3    H177861   1.624   2.948  13.014  0.5213  1.8489 -0.2092
18790TIP3    H277862   1.656   2.906  13.156 -0.6854 -0.3788 -0.5457
18791TIP3   OH277863   5.656   3.451  14.223  0.0838  0.6691 -0.3058
18791TIP3    H177864   5.740   3.496  14.227  0.7258 -0.5068  0.2289
18791TIP3    H277865   5.597   3.504  14.277  0.3151  1.8203 -1.1726
18792TIP3   OH277866   2.258   4.730   3.102 -0.4013 -0.1617  0.2749
18792TIP3    H177867   2.204   4.723   3.022 -1.0950  1.9264  0.4856
18792TIP3    H277868   2.289   4.820   3.101  1.5736 -0.7880  1.1777
18793TIP3   OH277869   5.218   2.885  16.908  0.0775 -0.1575  0.1110
18793TIP3    H177870   5.220   2.977  16.882  1.1431 -0.1961  0.0294
18793TIP3    H277871   5.128   2.870  16.936  0.0377  1.0640  0.6897
18794TIP3   OH277872   0.259   6.238   5.393 -0.4006  0.1795  0.0530
18794TIP3    H177873   0.164   6.231   5.402 -0.3239 -0.1673  0.6156
18794TIP3    H277874   0.292   6.245   5.482  0.2280 -1.4331 -0.0276
18795TIP3   OH277875   5.968   5.702   1.873 -0.4579  0.4096  0.0444
18795TIP3    H177876   5.936   5.761   1.804 -1.5418  0.6606  0.7410
18795TIP3    H277877   5.891   5.684   1.927 -0.0052 -1.1505  0.2238
18796TIP3   OH277878   5.281   3.517  15.300  0.0074 -0.6150  0.0550
18796TIP3    H177879   5.265   3.550  15.389 -1.2303 -0.8755 -0.0490
18796TIP3    H277880   5.227   3.438  15.294  0.3653 -0.8064 -0.8111
18797TIP3   OH277881   2.064   2.301  13.796  0.6574 -0.2888  0.4049
18797TIP3    H177882   2.113   2.313  13.877  2.7381 -2.8714 -0.3428
18797TIP3    H277883   2.122   2.333  13.727 -0.5683  0.7102 -0.1970
18798TIP3   OH277884   0.837   5.354  13.351  0.4257 -0.1160  0.1841
18798TIP3    H177885   0.891   5.348  13.429  0.4219  0.2627  0.2190
18798TIP3    H277886   0.888   5.408  13.290  0.6908 -0.8920 -0.2974
18799TIP3   OH277887   4.954   3.557   5.391  0.1291 -0.3553 -0.2653
18799TIP3    H177888   4.901   3.592   5.463  0.8160  1.4437 -0.5862
18799TIP3    H277889   4.901   3.573   5.312  1.5389  2.6356 -0.7514
18800TIP3   OH277890   1.633   3.437  16.973 -0.1600 -0.5602  0.1539
18800TIP3    H177891   1.607   3.452  16.882 -0.1298 -0.2379  0.1965
18800TIP3    H277892   1.558   3.394  17.013  0.5822 -2.6055 -0.5394
18801TIP3   OH277893   2.100   0.624   4.353  0.6933  0.9347  0.7223
18801TIP3    H177894   2.064   0.690   4.292  0.3049  1.5356  1.5837
18801TIP3    H277895   2.108   0.545   4.300  0.2726  1.4227 -0.0930
18802TIP3   OH277896   4.618   5.590  14.613 -0.0153  0.2788 -0.3612
18802TIP3    H177897   4.714   5.589  14.617  0.0005  1.5615  0.0003
18802TIP3    H277898   4.592   5.503  14.641  1.0514 -0.1642 -0.6897
18803TIP3   OH277899   0.805   3.728  14.352  0.3869  0.0069  0.4075
18803TIP3    H177900   0.775   3.818  14.362 -1.9884 -0.4715 -1.4021
18803TIP3    H277901   0.724   3.676  14.351  1.6512 -2.1132  0.9559
18804TIP3   OH277902   2.287   3.482   5.553  0.2955  0.2000 -0.2229
18804TIP3    H177903   2.293   3.444   5.465  1.6998 -2.6774  0.9804
18804TIP3    H277904   2.197   3.467   5.579 -0.6021  2.5243 -1.6623
18805TIP3   OH277905   2.226   3.853   5.060  0.0852  0.6064 -0.1952
18805TIP3    H177906   2.282   3.817   5.129  1.4567  0.6427 -1.2433
18805TIP3    H277907   2.180   3.778   5.024 -1.0400  0.6501  1.0587
18806TIP3   OH277908   4.755   2.368  12.788  0.3446  0.0424 -0.2683
18806TIP3    H177909   4.733   2.445  12.735 -0.3187 -0.5299 -0.8532
18806TIP3    H277910   4.812   2.402  12.857  0.5958  0.9458 -0.8929
18807TIP3   OH277911   0.579   2.658  13.216 -0.6718  0.1042  0.8116
18807TIP3    H177912   0.484   2.653  13.216 -0.6308 -1.5736  0.3847
18807TIP3    H277913   0.607   2.567  13.202  0.9536  0.9420 -2.2835
18808TIP3   OH277914   2.967   5.336   0.826 -0.0596  0.5442 -0.0910
18808TIP3    H177915   2.977   5.302   0.915  0.4194 -1.1453 -0.7397
18808TIP3    H277916   3.028   5.410   0.821  1.8743 -0.9466  0.2463
18809TIP3   OH277917   1.106   2.807  10.920  0.5270  0.2425  0.3619
18809TIP3    H177918   1.056   2.732  10.889  2.3981 -0.4935 -1.0478
18809TIP3    H277919   1.126   2.786  11.011 -0.8333  0.1041  0.6528
18810TIP3   OH277920   6.136   0.130   6.331 -0.1417 -0.2647  0.1261
18810TIP3    H177921   6.054   0.133   6.381 -0.2041  2.1935 -0.0136
18810TIP3    H277922   6.141   0.040   6.298 -1.8884 -0.9519  1.5786
18811TIP3   OH277923   0.124   4.695   0.601 -0.3601  0.1776  0.5785
18811TIP3    H177924   0.149   4.727   0.687  1.2204  1.2275 -0.2188
18811TIP3    H277925   0.101   4.603   0.615  1.6140 -0.1758  1.8392
18812TIP3   OH277926   5.731   1.556   3.938  0.6251 -0.2653 -0.6244
18812TIP3    H177927   5.691   1.473   3.965 -1.1024  0.6757 -0.1129
18812TIP3    H277928   5.719   1.560   3.843 -0.0416 -0.2389 -0.5412
18813TIP3   OH277929   1.886   3.495   0.134  0.0619 -0.4789  0.0192
18813TIP3    H177930   1.894   3.432   0.063 -0.9953 -0.3741 -0.2095
18813TIP3    H277931   1.819   3.458   0.192 -1.9255  1.2459 -1.0479
18814TIP3   OH277932   2.090   3.367  13.458 -0.1804  0.3221  0.2738
18814TIP3    H177933   2.022   3.302  13.479 -0.6738  0.6963 -0.1270
18814TIP3    H277934   2.166   3.316  13.432 -0.7842 -0.0930 -0.7147
18815TIP3   OH277935   5.045   3.610   3.748  0.2268 -0.2900  0.4549
18815TIP3    H177936   4.978   3.674   3.771  0.7141  0.4356 -0.0982
18815TIP3    H277937   5.034   3.596   3.654  0.5507 -0.5178  0.4476
18816TIP3   OH277938   1.624   5.277  15.732 -0.5374  0.0676  0.8633
18816TIP3    H177939   1.668   5.223  15.667  2.4302  2.4091  0.7424
18816TIP3    H277940   1.670   5.259  15.814  0.9382  2.6550  0.7185
18817TIP3   OH277941   6.125   1.763  14.615  0.3092  0.2149  0.5785
18817TIP3    H177942   6.089   1.813  14.542 -1.4176 -1.9820 -0.1970
18817TIP3    H277943   6.076   1.793  14.691  0.1034  0.5163  0.3282
18818TIP3   OH277944   0.650   2.835  16.832  0.5598 -0.3607  0.5033
18818TIP3    H177945   0.597   2.890  16.774 -0.1531 -1.5892 -0.0747
18818TIP3    H277946   0.651   2.881  16.916 -1.5817 -0.3413  0.5845
18819TIP3   OH277947   5.793   3.619   5.613  0.1038 -0.1445 -0.1685
18819TIP3    H177948   5.714   3.670   5.594 -0.1613 -0.9728 -1.3677
18819TIP3    H277949   5.865   3.677   5.591 -0.1688  0.3417  0.1934
18820TIP3   OH277950   5.425   2.551  15.988 -0.6554 -0.4393 -0.1197
18820TIP3    H177951   5.475   2.627  15.958 -1.3816  0.3535  0.6066
18820TIP3    H277952   5.418   2.495  15.911  2.6673 -1.3799  0.0970
18821TIP3   OH277953   2.239   6.090  16.083  0.2197  0.1402 -0.4900
18821TIP3    H177954   2.285   6.102  16.167  2.0355  0.2666 -1.4519
18821TIP3    H277955   2.207   6.177  16.060 -1.6225 -0.1497  0.7495
18822TIP3   OH277956   6.796   6.360  15.945 -0.1004 -0.0816  0.3412
18822TIP3    H177957   6.746   6.307  15.883 -0.3288 -0.0393  0.4913
18822TIP3    H277958   6.864   6.401  15.892 -0.1578 -0.2244  0.1576
18823TIP3   OH277959   0.646   0.364   1.093  0.1417  0.0859  0.1067
18823TIP3    H177960   0.594   0.427   1.143  0.8570  1.9499 -1.3594
18823TIP3    H277961   0.617   0.278   1.125 -0.2788  1.1268  2.7848
18824TIP3   OH277962   2.299   1.453   0.367 -0.0284  0.2440 -0.2010
18824TIP3    H177963   2.249   1.372   0.365  0.6730 -0.1812 -1.1391
18824TIP3    H277964   2.301   1.478   0.460 -1.9776  0.2995 -0.1439
18825TIP3   OH277965   0.846   4.865   5.643  0.0974  0.1318  0.1842
18825TIP3    H177966   0.786   4.889   5.713 -1.5196 -1.7820 -0.4501
18825TIP3    H277967   0.862   4.947   5.595 -0.7832  0.9583  1.2781
18826TIP3   OH277968   4.594   5.455   5.363  0.1722  0.2118  0.0397
18826TIP3    H177969   4.652   5.397   5.314  1.6923  0.3033  1.6260
18826TIP3    H277970   4.562   5.518   5.297  2.6875  0.7678 -0.7705
18827TIP3   OH277971   4.994   1.648  15.787 -0.1458  0.6504  0.2297
18827TIP3    H177972   4.943   1.570  15.806 -0.3865  0.4519 -1.0993
18827TIP3    H277973   5.045   1.664  15.866 -0.5315 -0.5106  0.7278
18828TIP3   OH277974   2.629   2.830   4.137  0.3217  0.2513 -0.1499
18828TIP3    H177975   2.672   2.828   4.051  0.8012  1.3783  0.0360
18828TIP3    H277976   2.694   2.792   4.196  0.7747  1.2145 -0.0004
18829TIP3   OH277977   3.796   1.867  10.350  0.6934 -0.4525 -0.2904
18829TIP3    H177978   3.861   1.926  10.312  2.5091 -0.8000  2.0506
18829TIP3    H277979   3.714   1.915  10.345  1.6707  1.2766 -0.6024
18830TIP3   OH277980   2.194   1.697  16.143  0.0698 -0.1633 -0.0469
18830TIP3    H177981   2.137   1.620  16.135  1.1687 -1.1031  0.8729
18830TIP3    H277982   2.275   1.672  16.099  0.7547  0.1257  1.0116
18831TIP3   OH277983   1.787   4.713  16.610 -0.0088 -0.1841  0.2056
18831TIP3    H177984   1.873   4.743  16.582 -1.1247  0.5986 -2.8202
18831TIP3    H277985   1.805   4.642  16.672  2.8866 -1.4289 -1.8241
18832TIP3   OH277986   1.276   3.467   4.024 -0.0481 -0.2204 -0.1970
18832TIP3    H177987   1.224   3.534   4.068  1.1922 -0.4138  1.6681
18832TIP3    H277988   1.290   3.501   3.936 -0.2088  1.5282  0.4210
18833TIP3   OH277989   6.714   1.131   2.008 -0.1734  0.0440 -0.0942
18833TIP3    H177990   6.702   1.071   2.082 -0.2193 -0.2543 -0.3384
18833TIP3    H277991   6.655   1.204   2.026 -0.8259 -0.4371 -0.2649
18834TIP3   OH277992   5.574   1.572  14.671 -0.1521 -0.2018 -0.3920
18834TIP3    H177993   5.650   1.628  14.657  0.8221 -1.2989  0.2768
18834TIP3    H277994   5.603   1.508  14.737 -1.7626 -0.4450  0.1325
18835TIP3   OH277995   4.993   5.497  13.227 -0.6431 -0.3018  0.0929
18835TIP3    H177996   5.052   5.443  13.280 -0.1962  0.8236  0.7697
18835TIP3    H277997   4.989   5.581  13.272 -0.3667  0.6642 -1.5697
18836TIP3   OH277998   0.245   1.186  12.916  0.0766 -0.5691 -0.3664
18836TIP3    H177999   0.275   1.096  12.906 -0.6031 -0.9973  1.2781
18836TIP3    H278000   0.171   1.194  12.856  0.1732 -1.0748 -0.5526
18837TIP3   OH278001   4.471   3.408   2.381 -0.3696  0.0395 -0.2688
18837TIP3    H178002   4.515   3.325   2.363 -2.5816 -0.8473 -2.0729
18837TIP3    H278003   4.431   3.395   2.467  0.8545  0.0054  0.3280
18838TIP3   OH278004   1.300   6.272   4.264  0.9102 -0.3364 -0.3118
18838TIP3    H178005   1.357   6.297   4.192  1.5609  0.6467  0.5328
18838TIP3    H278006   1.359   6.243   4.334  0.3008 -1.0189 -0.0580
18839TIP3   OH278007   3.885   6.626  12.771  0.0495  0.3793 -0.2490
18839TIP3    H178008   3.899   6.693  12.839  0.5180  0.9454 -0.8891
18839TIP3    H278009   3.930   6.661  12.694 -0.2611 -0.3784 -0.7791
18840TIP3   OH278010   5.237   6.475  16.494 -0.0305  0.1882 -0.3880
18840TIP3    H178011   5.251   6.560  16.452 -0.4328  0.3095 -0.2853
18840TIP3    H278012   5.262   6.411  16.428  0.3864  0.3850 -0.4267
18841TIP3   OH278013   4.219   0.522   3.818 -0.6193  0.3270  0.7135
18841TIP3    H178014   4.123   0.527   3.819 -0.5393  2.9748  1.1153
18841TIP3    H278015   4.246   0.566   3.899  0.9544 -0.3410  0.5758
18842TIP3   OH278016   0.238   1.285  12.517 -0.0516 -0.7186  0.1904
18842TIP3    H178017   0.258   1.222  12.448  0.0199 -0.6005  0.1025
18842TIP3    H278018   0.169   1.244  12.568  1.1696 -1.6253  1.1722
18843TIP3   OH278019   6.018   1.995   1.535  0.3174 -0.0878  0.6475
18843TIP3    H178020   5.930   2.018   1.564  0.0886  0.2730 -0.3049
18843TIP3    H278021   6.020   1.899   1.537 -0.2892 -0.1170  0.1379
18844TIP3   OH278022   1.409   3.564  11.631 -0.5418 -0.0090  0.2871
18844TIP3    H178023   1.321   3.542  11.664 -1.0458  1.1958 -0.1970
18844TIP3    H278024   1.465   3.558  11.708 -1.1762 -0.1232  0.7497
18845TIP3   OH278025   3.784   2.545  15.434  0.1540  0.0614  0.0760
18845TIP3    H178026   3.810   2.455  15.412  0.6750  0.4153 -0.8069
18845TIP3    H278027   3.759   2.583  15.350  1.3576  1.2005  0.2036
18846TIP3   OH278028   3.515   2.401  13.444  0.2483  0.0978 -0.2869
18846TIP3    H178029   3.587   2.377  13.385  1.1113 -0.1789  0.8403
18846TIP3    H278030   3.558   2.437  13.521 -0.8651  0.6455  0.0964
18847TIP3   OH278031   1.328   4.917  12.847 -0.1418  0.4798 -0.2562
18847TIP3    H178032   1.333   4.961  12.932 -1.2079  0.1272  0.0038
18847TIP3    H278033   1.326   4.988  12.783  0.5073  0.7520  0.0136
18848TIP3   OH278034   5.942   3.379  17.130 -0.3837 -0.2126 -0.1843
18848TIP3    H178035   5.948   3.474  17.130 -0.3278 -0.2097 -0.8203
18848TIP3    H278036   5.931   3.356  17.038 -0.7199 -0.8026 -0.0036
18849TIP3   OH278037   4.206   4.782   2.152 -0.2974 -0.3091  0.4268
18849TIP3    H178038   4.285   4.796   2.203 -0.1044 -1.3556  0.4233
18849TIP3    H278039   4.224   4.825   2.068  0.5143 -1.0806  0.1964
18850TIP3   OH278040   5.204   5.389   1.517 -0.2744 -0.3882  0.0931
18850TIP3    H178041   5.299   5.376   1.515 -0.3705 -1.1492 -1.9513
18850TIP3    H278042   5.168   5.305   1.490 -1.3365  0.9627 -3.1477
18851TIP3   OH278043   5.891   5.956   0.779 -0.1591  0.4793  0.2025
18851TIP3    H178044   5.821   5.946   0.843 -2.1653  1.6754 -1.6612
18851TIP3    H278045   5.907   5.868   0.745  0.5838 -0.0796  1.9236
18852TIP3   OH278046   5.017   1.636  15.345  0.2705  0.8212 -0.0665
18852TIP3    H178047   5.073   1.589  15.283 -0.1134  0.2187  0.0340
18852TIP3    H278048   5.055   1.617  15.431 -0.4017 -0.0556  0.0514
18853TIP3   OH278049   6.169   3.761   4.768  0.2347  0.0473  0.3340
18853TIP3    H178050   6.241   3.824   4.765  0.8866 -0.6934 -0.2980
18853TIP3    H278051   6.096   3.808   4.809  0.8296  1.0691  0.2396
18854TIP3   OH278052   1.778   2.684   5.157  0.1328 -0.3076  0.1231
18854TIP3    H178053   1.838   2.617   5.189 -0.6700 -1.3561 -0.4978
18854TIP3    H278054   1.738   2.720   5.236  1.8582  0.7170  0.5777
18855TIP3   OH278055   0.077   2.046  16.154  0.1326 -0.5435  0.1807
18855TIP3    H178056   0.111   2.043  16.064  0.3649 -0.6453  0.2686
18855TIP3    H278057   0.152   2.073  16.207 -0.1823  0.1708  0.2617
18856TIP3   OH278058   2.187   6.424   1.075  0.8778 -0.7117  0.0605
18856TIP3    H178059   2.264   6.399   1.125  0.1360 -2.1267  0.5340
18856TIP3    H278060   2.154   6.343   1.038 -0.0086 -0.0331 -0.6919
18857TIP3   OH278061   1.544   4.939   1.231  0.2035  0.0446  0.4318
18857TIP3    H178062   1.482   5.001   1.193  1.9383  2.1017  0.7519
18857TIP3    H278063   1.528   4.943   1.325  1.5849  1.5668  0.6445
18858TIP3   OH278064   0.231   2.799  11.378 -0.0164  0.0411 -0.7374
18858TIP3    H178065   0.312   2.806  11.328  1.1055  0.8259  1.1345
18858TIP3    H278066   0.176   2.870  11.345  0.7755  0.6653 -0.7100
18859TIP3   OH278067   5.780   5.298   4.698  0.1517  0.2204  0.8200
18859TIP3    H178068   5.765   5.209   4.665 -0.4760  0.1578  1.2661
18859TIP3    H278069   5.693   5.337   4.705  0.2406  0.1950  2.4998
18860TIP3   OH278070   3.274   1.469  14.587 -0.0054  0.7127  0.3115
18860TIP3    H178071   3.272   1.407  14.514 -2.1806  1.6406 -0.4932
18860TIP3    H278072   3.182   1.484  14.609  0.5189  2.3439  1.6236
18861TIP3   OH278073   0.856   2.079   6.674  0.6506  0.0836  0.7301
18861TIP3    H178074   0.849   2.149   6.609 -1.1964  0.0940  0.8829
18861TIP3    H278075   0.943   2.090   6.712  0.4517  2.2627  0.6921
18862TIP3   OH278076   1.242   3.108   5.131 -0.0067  0.1280  0.0958
18862TIP3    H178077   1.181   3.152   5.072  0.3261 -0.4367 -0.6880
18862TIP3    H278078   1.328   3.143   5.107  0.2423 -0.8050 -0.4186
18863TIP3   OH278079   0.471   5.159   5.227 -0.3753 -0.2802  0.5283
18863TIP3    H178080   0.521   5.090   5.183 -0.0044 -1.4899  2.6670
18863TIP3    H278081   0.380   5.130   5.221 -0.2015 -1.1205  1.6010
18864TIP3   OH278082   0.726   0.854  14.862  0.4205  0.4449  0.4309
18864TIP3    H178083   0.779   0.785  14.823  1.6723  1.8655 -0.5222
18864TIP3    H278084   0.682   0.895  14.788 -1.3310 -0.1102  1.1192
18865TIP3   OH278085   5.243   5.800   3.804 -0.2803  0.2708  0.6906
18865TIP3    H178086   5.162   5.759   3.834 -1.2528  0.6342 -1.2756
18865TIP3    H278087   5.214   5.871   3.746  1.4415  0.6473  0.2290
18866TIP3   OH278088   5.350   3.930   3.837 -0.1465  0.5345 -0.1847
18866TIP3    H178089   5.271   3.894   3.878 -0.5316  1.9616  0.3812
18866TIP3    H278090   5.420   3.910   3.899 -0.3695  0.8287  0.1639
18867TIP3   OH278091   2.788   3.187   6.325 -0.2197 -0.1832 -0.0116
18867TIP3    H178092   2.865   3.203   6.380 -0.2346 -1.0744  0.2914
18867TIP3    H278093   2.713   3.204   6.381 -0.2370 -0.0668 -0.0710
18868TIP3   OH278094   5.412   3.814   1.133 -0.1021 -0.0124 -0.0136
18868TIP3    H178095   5.463   3.895   1.139 -0.8338  0.3809  1.4633
18868TIP3    H278096   5.359   3.813   1.213  0.7494 -2.5586  0.6138
18869TIP3   OH278097   1.017   6.144  13.140 -0.3522 -0.5149 -0.5164
18869TIP3    H178098   0.928   6.179  13.144 -0.3304 -0.5510  0.3961
18869TIP3    H278099   1.056   6.187  13.064 -0.5516  0.9230  0.1675
18870TIP3   OH278100   0.632   2.196  12.871  0.4066 -0.1428 -0.0062
18870TIP3    H178101   0.569   2.265  12.850  0.3471 -0.5509 -1.2073
18870TIP3    H278102   0.581   2.131  12.919  0.6213  0.9539  1.8015
18871TIP3   OH278103   1.955   4.315  13.015 -0.1037  0.4138 -0.3906
18871TIP3    H178104   1.970   4.390  13.073  0.2459  1.4108 -1.7174
18871TIP3    H278105   1.864   4.290  13.030  0.3887 -0.3656  1.6930
18872TIP3   OH278106   2.005   4.078  12.887 -1.4843 -0.0140 -0.8258
18872TIP3    H178107   1.972   4.160  12.923  0.2349  0.0972  0.6597
18872TIP3    H278108   2.079   4.104  12.831 -1.3405 -0.4922 -0.8672
18873TIP3   OH278109   5.222   0.359   2.912 -0.2045 -0.5468  0.0766
18873TIP3    H178110   5.239   0.448   2.880 -0.6070  0.1496  1.7102
18873TIP3    H278111   5.131   0.361   2.942 -0.5497 -1.8215 -0.7809
18874TIP3   OH278112   4.067   5.014   6.128 -0.0416  0.1703  0.0289
18874TIP3    H178113   4.070   4.919   6.140 -1.8311 -0.0037 -0.5989
18874TIP3    H278114   4.157   5.043   6.140  0.3166 -1.4356  1.6171
18875TIP3   OH278115   3.098   5.983   3.676  0.2756  0.3353 -0.0673
18875TIP3    H178116   3.145   5.960   3.756  0.1180 -1.1695 -0.3780
18875TIP3    H278117   3.057   6.068   3.695 -1.5950 -0.9718  2.2636
18876TIP3   OH278118   4.269   3.779   6.925  0.0706 -0.2348  0.4087
18876TIP3    H178119   4.208   3.851   6.940 -1.6652 -1.4075 -0.6016
18876TIP3    H278120   4.352   3.821   6.903 -0.8031  1.4353  0.1812
18877TIP3   OH278121   6.020   0.290   6.892  0.4382  0.6880  0.3949
18877TIP3    H178122   6.078   0.215   6.878  0.3506  0.3326  1.8164
18877TIP3    H278123   5.934   0.251   6.910  0.1293  1.1649 -0.0217
18878TIP3   OH278124   4.695   4.961  15.663  0.2050 -0.3390 -0.3945
18878TIP3    H178125   4.720   4.934  15.752  1.0415  0.0276 -0.5051
18878TIP3    H278126   4.621   4.905  15.641  0.4917 -0.9809  0.2306
18879TIP3   OH278127   1.270   5.230   0.259 -0.7914 -0.3092  0.6395
18879TIP3    H178128   1.266   5.189   0.173 -0.2606  0.9759 -0.0188
18879TIP3    H278129   1.290   5.322   0.241 -0.9422  0.0365  2.1212
18880TIP3   OH278130   4.308   2.179  16.755  0.1715 -0.0472  0.7742
18880TIP3    H178131   4.277   2.245  16.816 -1.7866  0.7062 -0.9266
18880TIP3    H278132   4.244   2.108  16.761  1.2105 -0.9771  1.2055
18881TIP3   OH278133   0.176   4.197  16.724  0.3892 -0.2481  0.5693
18881TIP3    H178134   0.117   4.227  16.655  1.8009  0.2476 -0.4691
18881TIP3    H278135   0.119   4.182  16.800 -1.1953 -0.7271 -0.6618
18882TIP3   OH278136   4.605   0.715  15.367  0.2030  0.1795  0.7340
18882TIP3    H178137   4.531   0.677  15.321 -0.7560  1.6541  0.9950
18882TIP3    H278138   4.627   0.794  15.318 -0.0051  1.0867  2.0302
18883TIP3   OH278139   4.357   3.394   2.632  0.5072 -0.2340  0.3077
18883TIP3    H178140   4.334   3.303   2.648  0.2491 -0.3519 -0.7178
18883TIP3    H278141   4.287   3.444   2.672 -0.1190 -0.5257 -0.4093
18884TIP3   OH278142   2.841   2.277  11.246  0.1918  0.0316 -0.1945
18884TIP3    H178143   2.797   2.297  11.329  0.2839 -0.7558  0.0576
18884TIP3    H278144   2.805   2.192  11.219  1.4839 -0.6121 -0.0067
18885TIP3   OH278145   1.917   6.312  14.375  0.5718 -0.2989 -0.4473
18885TIP3    H178146   1.854   6.366  14.424  0.6446 -0.2899 -0.3623
18885TIP3    H278147   1.893   6.222  14.396  0.2364 -0.3095 -0.8580
18886TIP3   OH278148   1.179   2.061   3.405 -0.1086 -0.1982  0.2537
18886TIP3    H178149   1.250   2.003   3.430 -0.6180 -0.4633  1.1166
18886TIP3    H278150   1.218   2.149   3.404  0.6055 -0.5026 -0.8385
18887TIP3   OH278151   2.995   3.832   4.773 -0.2909  0.5144  0.0519
18887TIP3    H178152   3.028   3.890   4.841  1.9632  1.9906 -2.1221
18887TIP3    H278153   2.928   3.883   4.727 -1.8571 -0.4997  1.1348
18888TIP3   OH278154   0.422   3.044  13.566 -0.0198  0.2615 -0.2279
18888TIP3    H178155   0.473   3.067  13.488  0.7095  1.5250  0.5658
18888TIP3    H278156   0.470   2.971  13.605 -1.2103 -1.3968 -1.6935
18889TIP3   OH278157   1.622   5.332  14.131  0.0274  0.2505 -0.2729
18889TIP3    H178158   1.531   5.348  14.108 -0.1799  1.9022  1.4753
18889TIP3    H278159   1.619   5.260  14.195  0.0803 -0.4122 -0.9959
18890TIP3   OH278160   1.698   4.809   2.115  0.1019  0.5264  0.2338
18890TIP3    H178161   1.627   4.871   2.104 -0.3073 -0.1171 -0.8850
18890TIP3    H278162   1.659   4.723   2.097  1.1273  0.1595 -0.3555
18891TIP3   OH278163   0.956   0.909  14.305 -0.1294  0.2127 -0.3726
18891TIP3    H178164   0.950   0.841  14.371 -0.3495  1.4808  0.9635
18891TIP3    H278165   0.868   0.915  14.268 -0.3279  0.3784  0.1307
18892TIP3   OH278166   5.708   0.494  12.642  0.3229  0.3534 -0.1382
18892TIP3    H178167   5.660   0.566  12.681 -2.6276 -0.4234 -2.0036
18892TIP3    H278168   5.794   0.496  12.685  0.1624  4.4641  0.3877
18893TIP3   OH278169   0.408   4.124  13.784 -0.2629 -0.0877  0.5193
18893TIP3    H178170   0.315   4.116  13.807 -0.1759 -0.8594  0.6229
18893TIP3    H278171   0.432   4.038  13.752 -0.0455  0.6015 -1.2829
18894TIP3   OH278172   3.313   4.705  11.935  0.2175 -0.1461  0.3933
18894TIP3    H178173   3.333   4.705  12.029 -0.7073 -0.8638  0.5999
18894TIP3    H278174   3.355   4.785  11.902  2.5636 -1.0425  0.9711
18895TIP3   OH278175   1.735   6.777   3.733 -0.0256  0.3066 -0.6629
18895TIP3    H178176   1.699   6.841   3.671 -0.1437  3.2456  2.1835
18895TIP3    H278177   1.669   6.708   3.736 -1.2113  1.3187 -1.9345
18896TIP3   OH278178   1.289   4.523  14.678 -0.3607 -0.0095 -0.0416
18896TIP3    H178179   1.344   4.557  14.608  0.6797 -1.0301  0.2513
18896TIP3    H278180   1.205   4.566  14.665  0.0365  0.4017 -1.4470
18897TIP3   OH278181   3.048   3.567  11.538 -0.3293  0.1593 -0.5548
18897TIP3    H178182   3.046   3.563  11.443 -3.6467 -1.0579 -0.5570
18897TIP3    H278183   2.992   3.642  11.561 -0.5171 -0.2651  0.4391
18898TIP3   OH278184   2.560   5.420  15.288 -0.0698 -0.5055  0.5942
18898TIP3    H178185   2.570   5.441  15.381 -2.7587  1.7172  0.4854
18898TIP3    H278186   2.643   5.447  15.248  0.9638 -1.1034  2.2155
18899TIP3   OH278187   2.757   3.335   3.916 -0.0977  0.3102  0.0576
18899TIP3    H178188   2.667   3.303   3.927 -0.4609 -0.2057 -3.3839
18899TIP3    H278189   2.747   3.426   3.889  0.4180  0.2796 -0.2468
18900TIP3   OH278190   6.752   3.085  16.643 -0.4200 -0.5333 -0.3222
18900TIP3    H178191   6.743   3.030  16.721 -0.3261 -0.3063 -0.1544
18900TIP3    H278192   6.843   3.073  16.617 -0.7180 -1.4561 -1.0223
18901TIP3   OH278193   5.838   6.795   4.956 -0.1940 -0.5288  0.4851
18901TIP3    H178194   5.817   6.866   4.895  0.0688 -0.4050  0.5403
18901TIP3    H278195   5.791   6.719   4.921 -0.7263 -0.2592  0.5925
18902TIP3   OH278196   6.660   2.885   5.470  0.2263 -0.1099 -0.5110
18902TIP3    H178197   6.687   2.812   5.415  1.5875 -0.2574  0.3074
18902TIP3    H278198   6.661   2.850   5.559 -0.7506  0.4646 -0.2502
18903TIP3   OH278199   0.227   2.868   4.924 -0.2234 -0.0832  0.0022
18903TIP3    H178200   0.290   2.908   4.983  2.1509 -1.6887 -1.2822
18903TIP3    H278201   0.222   2.928   4.849 -1.5264  0.8414  0.7924
18904TIP3   OH278202   1.873   5.840  16.020 -0.4092 -0.2281  0.0760
18904TIP3    H178203   1.847   5.904  16.087 -0.4447 -1.4046  1.2213
18904TIP3    H278204   1.924   5.891  15.958 -1.4836  1.1865  0.2723
18905TIP3   OH278205   0.895   0.221   0.927 -0.3402  0.4797 -0.0736
18905TIP3    H178206   0.922   0.130   0.934  1.3194  0.8415 -1.2164
18905TIP3    H278207   0.817   0.227   0.982 -0.6198 -1.6662 -0.1638
18906TIP3   OH278208   6.129   2.961   5.339 -0.5558 -0.6333  0.2131
18906TIP3    H178209   6.197   2.964   5.406 -0.0773  0.0329 -0.2968
18906TIP3    H278210   6.118   2.867   5.321 -0.1817 -0.7762  0.7003
18907TIP3   OH278211   5.109   1.775  11.055 -0.3915  0.0965  0.0381
18907TIP3    H178212   5.130   1.769  10.962  2.9838 -1.9295  0.7393
18907TIP3    H278213   5.189   1.811  11.095 -0.5887 -1.8213  2.4003
18908TIP3   OH278214   6.707   4.461  12.865 -0.2594  0.6223 -0.2609
18908TIP3    H178215   6.761   4.382  12.861  0.2010  0.8208  1.2165
18908TIP3    H278216   6.630   4.435  12.916 -0.1646  1.0790  0.1281
18909TIP3   OH278217   6.339   6.520   3.099 -0.5305 -0.3878  0.0541
18909TIP3    H178218   6.393   6.540   3.175  0.1772 -1.8260 -0.0328
18909TIP3    H278219   6.392   6.545   3.024 -1.8944  2.6850 -0.0503
18910TIP3   OH278220   1.568   3.264   0.075  1.0001 -0.1968  0.3001
18910TIP3    H178221   1.584   3.176   0.041 -0.1659 -0.1449 -0.4678
18910TIP3    H278222   1.535   3.313  -0.001  1.7293  0.9312  0.6899
18911TIP3   OH278223   0.261   0.755   0.364  0.1685  0.3747 -0.6759
18911TIP3    H178224   0.183   0.733   0.314 -1.0162  2.4758  0.1135
18911TIP3    H278225   0.259   0.695   0.439  1.2612 -1.9120 -2.3453
18912TIP3   OH278226   1.495   4.595  13.499 -0.4235 -0.0333 -0.2272
18912TIP3    H178227   1.472   4.637  13.416 -2.1751 -1.8425 -0.7270
18912TIP3    H278228   1.563   4.532  13.476  0.0892  0.4326 -0.0132
18913TIP3   OH278229   3.119   4.337  14.757  0.0651 -0.2326 -0.5657
18913TIP3    H178230   3.149   4.333  14.848 -0.3529  0.1229 -0.4072
18913TIP3    H278231   3.169   4.269  14.712  2.0452  1.1506 -0.5770
18914TIP3   OH278232   1.197   4.611   2.776 -0.3260 -0.2728 -0.0860
18914TIP3    H178233   1.141   4.606   2.699  0.7186  0.5505 -0.9341
18914TIP3    H278234   1.167   4.689   2.822  0.1398  0.2082 -0.5767
18915TIP3   OH278235   3.592   4.267  17.193  0.9144  0.4304  0.1580
18915TIP3    H178236   3.518   4.260  17.252 -1.3769  0.7604 -2.4955
18915TIP3    H278237   3.624   4.357  17.206  0.2598  0.5991  0.6668
18916TIP3   OH278238   1.691   1.493  15.541 -0.0123 -0.2395 -0.0929
18916TIP3    H178239   1.614   1.475  15.596  1.0313  0.5605  1.7473
18916TIP3    H278240   1.678   1.583  15.511 -0.7922 -0.8231 -1.5764
18917TIP3   OH278241   1.923   0.937  12.842 -0.0172  0.4321  0.0796
18917TIP3    H178242   1.831   0.964  12.845  0.1751  1.3017 -1.3500
18917TIP3    H278243   1.972   1.018  12.855  0.5530  0.1349 -0.2022
18918TIP3   OH278244   0.415   6.248  13.726 -0.0545 -0.6136 -0.3714
18918TIP3    H178245   0.437   6.338  13.704 -0.9829 -0.2727  0.0594
18918TIP3    H278246   0.476   6.224  13.796 -1.0638  0.3486  0.8753
18919TIP3   OH278247   6.309   5.430   0.876  0.0649  0.1545  0.0182
18919TIP3    H178248   6.244   5.360   0.882  0.7644 -0.5299 -0.1255
18919TIP3    H278249   6.258   5.510   0.872 -0.7497 -0.1875  2.0600
18920TIP3   OH278250   1.627   6.477  15.822 -0.0457 -0.1338 -0.0916
18920TIP3    H178251   1.712   6.438  15.801  1.8984  4.1609 -1.3767
18920TIP3    H278252   1.582   6.484  15.738  2.4893  5.6978 -1.5364
18921TIP3   OH278253   2.701   0.047   1.471 -0.0128  0.1922 -0.1612
18921TIP3    H178254   2.628   0.004   1.515 -0.3856  0.6855 -0.2897
18921TIP3    H278255   2.682   0.036   1.378  0.0757  0.3277 -0.1940
18922TIP3   OH278256   4.524   2.522  13.364  0.0705  0.4328 -0.7775
18922TIP3    H178257   4.434   2.547  13.345 -0.1395  0.9210  0.7515
18922TIP3    H278258   4.521   2.426  13.371 -0.5525  0.5069  0.2362
18923TIP3   OH278259   0.959   1.905  11.699 -0.2330 -0.3295  0.1011
18923TIP3    H178260   0.918   1.952  11.772 -0.9678  0.7372 -0.9504
18923TIP3    H278261   0.958   1.813  11.725  0.0022  0.0891  1.6471
18924TIP3   OH278262   4.913   1.838   2.068  0.3668  0.1136  0.4868
18924TIP3    H178263   4.975   1.791   2.124  2.3752  1.5156 -0.4204
18924TIP3    H278264   4.850   1.876   2.129  0.2137 -1.5636  1.4304
18925TIP3   OH278265   5.755   0.405  12.117  0.0472  0.0496 -0.5125
18925TIP3    H178266   5.700   0.435  12.189  0.7246 -0.0061  0.0386
18925TIP3    H278267   5.844   0.417  12.149  0.3758  0.6953 -1.6093
18926TIP3   OH278268   2.890   4.423   4.865 -0.1790  0.2413 -0.3298
18926TIP3    H178269   2.820   4.389   4.810  0.1302  1.2475 -1.3906
18926TIP3    H278270   2.908   4.510   4.829 -1.5733  1.9915  2.7856
18927TIP3   OH278271   2.572   3.157  14.332 -0.3710  0.3864 -0.3926
18927TIP3    H178272   2.650   3.206  14.304 -0.5086  0.8579  0.0277
18927TIP3    H278273   2.592   3.066  14.311  0.0926  0.5632 -0.7396
18928TIP3   OH278274   6.403   4.201   4.312  0.5826 -0.4678 -0.1814
18928TIP3    H178275   6.426   4.132   4.373 -0.3672 -2.0894 -1.5781
18928TIP3    H278276   6.330   4.166   4.261 -0.5903  1.9269 -0.3409
18929TIP3   OH278277   4.174   1.706  15.169 -0.6301 -0.0541 -0.3223
18929TIP3    H178278   4.095   1.668  15.208 -0.3451 -0.6566 -0.3229
18929TIP3    H278279   4.238   1.708  15.240 -0.2044 -0.8848 -0.6612
18930TIP3   OH278280   3.784   6.176   2.278  0.5724 -0.0929  0.0042
18930TIP3    H178281   3.871   6.167   2.240  0.5671  0.1232 -0.0606
18930TIP3    H278282   3.725   6.138   2.213  0.5699  0.2151 -0.1740
18931TIP3   OH278283   0.487   1.543   2.861 -0.2110  0.1397 -0.2239
18931TIP3    H178284   0.395   1.516   2.872 -0.5021 -0.2665 -2.9657
18931TIP3    H278285   0.490   1.632   2.896 -1.8978  0.4997 -0.8831
18932TIP3   OH278286   0.581   3.907  16.385 -0.8359 -0.1674  0.4043
18932TIP3    H178287   0.495   3.872  16.407 -2.2252  0.7249 -2.9392
18932TIP3    H278288   0.566   3.964  16.310  2.5595  0.8552  0.2965
18933TIP3   OH278289   3.809   6.351   4.809 -0.2083  0.7128  0.2716
18933TIP3    H178290   3.719   6.341   4.777  0.8599 -0.9327 -2.6073
18933TIP3    H278291   3.822   6.275   4.865  0.2654 -0.8790 -1.8594
18934TIP3   OH278292   1.434   3.410   0.425  0.6385  0.7342  0.3909
18934TIP3    H178293   1.401   3.476   0.364  2.0496  1.3590  0.2506
18934TIP3    H278294   1.500   3.457   0.477 -0.4871  0.2082  2.3797
18935TIP3   OH278295   0.659   0.045   3.271  0.0623  1.1335 -0.2659
18935TIP3    H178296   0.575   0.068   3.310 -0.1776 -1.1310  0.6926
18935TIP3    H278297   0.642   0.042   3.177 -1.5210 -1.2531  0.0211
18936TIP3   OH278298   4.148   5.521  12.428  0.3041  0.0590  0.2356
18936TIP3    H178299   4.176   5.439  12.386  1.3856  1.2460 -1.4786
18936TIP3    H278300   4.129   5.580  12.356 -0.3716  1.3816  1.4398
18937TIP3   OH278301   5.543   6.738   2.103  0.5158 -0.2935 -0.1781
18937TIP3    H178302   5.602   6.811   2.120  0.8901 -0.5810 -0.2402
18937TIP3    H278303   5.560   6.676   2.173  1.2086 -0.9473 -0.9038
18938TIP3   OH278304   5.462   2.991   1.602 -0.2191 -0.2952  0.2844
18938TIP3    H178305   5.447   3.085   1.594  0.2508 -0.3535 -1.8029
18938TIP3    H278306   5.540   2.984   1.658  0.4648  0.6253 -0.5186
18939TIP3   OH278307   4.475   1.135   1.217  0.0688  0.6183 -0.7243
18939TIP3    H178308   4.438   1.069   1.276  1.5422 -0.3332 -0.8017
18939TIP3    H278309   4.427   1.123   1.135 -1.2354  1.2095 -0.0792
18940TIP3   OH278310   6.092   5.233  12.273 -0.3144 -0.0939 -0.1624
18940TIP3    H178311   6.141   5.181  12.336  1.0342  3.4215  1.9933
18940TIP3    H278312   6.140   5.223  12.191  0.6071 -1.1958  0.4881
18941TIP3   OH278313   1.848   6.565  14.892 -0.1617  0.2198  0.6008
18941TIP3    H178314   1.816   6.486  14.937  0.1244 -0.2747 -0.0458
18941TIP3    H278315   1.909   6.531  14.826  0.3757  1.0238  0.6756
18942TIP3   OH278316   0.967   1.745   3.950 -0.0150 -0.3633  0.0154
18942TIP3    H178317   0.949   1.695   4.029  1.5804 -0.1418  0.5606
18942TIP3    H278318   0.979   1.680   3.881  0.6538 -0.6683  0.4153
18943TIP3   OH278319   6.667   2.879   4.367 -0.4664 -0.5128  0.1504
18943TIP3    H178320   6.613   2.883   4.446 -0.0524 -1.4982  0.5144
18943TIP3    H278321   6.605   2.866   4.296 -0.7909 -0.4776  0.4243
18944TIP3   OH278322   0.534   6.557  14.201 -0.0085 -0.2514 -0.6483
18944TIP3    H178323   0.603   6.498  14.232 -0.1898 -0.4775 -0.6812
18944TIP3    H278324   0.530   6.625  14.268 -0.2739 -0.6432 -0.2641
18945TIP3   OH278325   1.399   5.571  13.129 -0.5638 -0.5063 -0.1356
18945TIP3    H178326   1.479   5.582  13.181 -1.7316  0.9944  1.4299
18945TIP3    H278327   1.363   5.487  13.158  0.5002 -1.2990 -1.0069
18946TIP3   OH278328   0.635   0.816  15.520 -0.0208  0.2463  0.0985
18946TIP3    H178329   0.693   0.748  15.487  0.0706 -0.1202  1.0031
18946TIP3    H278330   0.622   0.874  15.445 -0.2641 -0.8717 -0.7519
18947TIP3   OH278331   1.685   0.917   3.874  0.3756  0.4963 -0.6655
18947TIP3    H178332   1.696   0.842   3.931 -0.0503 -0.3916 -1.7148
18947TIP3    H278333   1.689   0.993   3.932 -1.5349 -0.4258  0.7472
18948TIP3   OH278334   0.927   6.116   2.845  0.5451 -0.2455 -0.0901
18948TIP3    H178335   0.942   6.153   2.758  0.6768  0.3889  0.2004
18948TIP3    H278336   0.878   6.036   2.828 -1.7505  1.1869 -0.6051
18949TIP3   OH278337   4.563   6.712  17.182  0.1753  0.8745  0.0883
18949TIP3    H178338   4.565   6.789  17.240  0.6411  0.1315  1.0783
18949TIP3    H278339   4.649   6.712  17.139  0.1243  0.9811 -0.0140
18950TIP3   OH278340   3.756   1.169   3.521 -0.7592  0.4434  0.3623
18950TIP3    H178341   3.709   1.100   3.475 -0.0128  0.0401  0.1785
18950TIP3    H278342   3.778   1.131   3.606 -3.3610  1.6588  1.6863
18951TIP3   OH278343   1.676   6.803   1.225  0.1746 -0.0185 -0.0854
18951TIP3    H178344   1.760   6.783   1.184 -0.1192 -1.1697 -0.1752
18951TIP3    H278345   1.698   6.843   1.309  0.7938  0.8575 -0.6511
18952TIP3   OH278346   1.911   4.666  13.189 -0.1342 -0.4922 -0.0026
18952TIP3    H178347   1.975   4.609  13.231  0.5419 -1.0375 -1.6716
18952TIP3    H278348   1.855   4.608  13.138  1.1493  0.2952 -2.4961
18953TIP3   OH278349   5.686   5.608   0.529 -0.2998 -0.0226  0.3051
18953TIP3    H178350   5.750   5.673   0.503 -0.8196 -0.0228 -1.0812
18953TIP3    H278351   5.738   5.534   0.561  0.2956  0.9704  1.7320
18954TIP3   OH278352   4.568   6.241   0.126  0.3517  0.4549 -0.4666
18954TIP3    H178353   4.506   6.232   0.054  0.4925 -1.0693 -0.4238
18954TIP3    H278354   4.614   6.323   0.108 -1.3197  1.3897 -0.7491
18955TIP3   OH278355   0.652   3.986  14.031 -0.3318 -0.7619 -0.2277
18955TIP3    H178356   0.558   3.967  14.028 -0.2868 -0.8599 -1.3366
18955TIP3    H278357   0.687   3.947  13.951  0.6746 -0.8130  0.2284
18956TIP3   OH278358   3.989   3.735   1.164  0.0738 -0.0203 -0.2969
18956TIP3    H178359   4.069   3.684   1.157  1.6224  2.0047  1.3379
18956TIP3    H278360   3.979   3.776   1.078  0.1626 -1.0952 -0.8415
18957TIP3   OH278361   5.765   4.099   3.355 -0.3916 -0.6630  0.1522
18957TIP3    H178362   5.727   4.159   3.291  0.8960 -2.3496 -2.3358
18957TIP3    H278363   5.689   4.060   3.399 -1.4203 -0.8773 -1.7371
18958TIP3   OH278364   6.045   2.366  16.478 -0.1983  0.6580 -0.5888
18958TIP3    H178365   5.984   2.378  16.405 -1.7078  0.7601  0.6183
18958TIP3    H278366   6.038   2.273  16.500 -0.5643  0.8336  0.0748
18959TIP3   OH278367   2.415   0.412   1.909  0.0293  0.5036 -0.0323
18959TIP3    H178368   2.483   0.345   1.914  0.8165  1.3387  1.1667
18959TIP3    H278369   2.347   0.382   1.967  0.1308  0.4724  0.0705
18960TIP3   OH278370   5.522   6.072  16.198  0.4179  0.2071  0.2755
18960TIP3    H178371   5.582   6.086  16.124  1.1839  0.1995  0.8751
18960TIP3    H278372   5.540   6.145  16.257 -0.2084  0.2270  0.4451
18961TIP3   OH278373   5.033   1.033   4.978  0.3792  0.5122  0.2629
18961TIP3    H178374   4.942   1.031   5.007 -0.2773  2.3921 -1.4578
18961TIP3    H278375   5.052   1.126   4.965  2.0220  0.0435 -1.0041
18962TIP3   OH278376   4.992   6.485  15.668  0.0780  0.1033 -0.4926
18962TIP3    H178377   5.079   6.502  15.705 -0.0789 -0.7435  0.2867
18962TIP3    H278378   4.968   6.399  15.701 -0.6189 -0.1315 -1.5596
18963TIP3   OH278379   4.331   4.248   0.887 -0.1844 -0.3307  0.5196
18963TIP3    H178380   4.368   4.268   0.801 -0.3796  0.2319  0.5632
18963TIP3    H278381   4.391   4.185   0.925 -0.9760 -1.8995 -0.7104
18964TIP3   OH278382   2.483   4.673  14.075  0.1087 -0.3484  0.7930
18964TIP3    H178383   2.404   4.643  14.030  0.2462 -0.5704  0.6995
18964TIP3    H278384   2.507   4.754  14.030  1.4259 -1.6163 -0.9214
18965TIP3   OH278385   1.183   5.069   2.189  0.3261 -0.5371  0.0276
18965TIP3    H178386   1.188   5.039   2.099  1.1514 -0.0009 -0.1197
18965TIP3    H278387   1.126   5.146   2.185  1.2038  0.1122 -0.2223
18966TIP3   OH278388   0.913   3.784   5.244  0.2224  0.3869  0.4685
18966TIP3    H178389   0.895   3.846   5.315  0.7217 -0.6170  1.5027
18966TIP3    H278390   0.961   3.713   5.286 -0.9852 -1.0756 -0.5184
18967TIP3   OH278391   4.987   5.040   5.030 -0.1569 -0.0370  0.3525
18967TIP3    H178392   5.079   5.013   5.040  0.3056  0.5178 -1.9854
18967TIP3    H278393   4.991   5.128   4.993 -1.6865  0.6442  1.6440
18968TIP3   OH278394   6.392   3.369   1.238 -0.1561  0.4510  0.0773
18968TIP3    H178395   6.345   3.442   1.279  2.0489  2.0103  0.0165
18968TIP3    H278396   6.474   3.362   1.287  0.3251 -1.0249 -0.8528
18969TIP3   OH278397   0.541   2.083   5.121 -0.3594  0.1522  0.8272
18969TIP3    H178398   0.519   2.086   5.028 -1.1433  2.9040  0.9982
18969TIP3    H278399   0.601   2.156   5.134  0.5226 -0.7730  2.3313
18970TIP3   OH278400   2.806   0.076   5.813  0.4627 -0.2842 -0.1175
18970TIP3    H178401   2.897   0.044   5.815 -0.6124 -3.6996 -0.2076
18970TIP3    H278402   2.779   0.077   5.905  0.0842 -0.9146 -0.2199
18971TIP3   OH278403   6.216   2.002   4.027 -0.2736 -0.2325  0.2422
18971TIP3    H178404   6.281   1.982   3.959 -0.4574 -2.2498  0.5854
18971TIP3    H278405   6.137   2.025   3.979  0.3429  1.0840 -0.1885
18972TIP3   OH278406   4.504   2.926   3.734  0.5798  0.5487 -0.4592
18972TIP3    H178407   4.468   2.975   3.807  0.6717  1.1663 -0.8171
18972TIP3    H278408   4.438   2.933   3.665 -0.5755 -1.9619  0.2662
18973TIP3   OH278409   1.961   1.657   4.946 -1.0032  0.0374 -0.4552
18973TIP3    H178410   1.889   1.596   4.964  1.5932 -4.0804 -2.3507
18973TIP3    H278411   2.022   1.645   5.019 -0.2531 -0.0387 -1.0797
18974TIP3   OH278412   2.305   5.192   1.760  0.1900  0.9372  0.2106
18974TIP3    H178413   2.270   5.103   1.765 -2.2542  1.8455  0.4776
18974TIP3    H278414   2.307   5.212   1.667 -0.1102  0.9013  0.1944
18975TIP3   OH278415   2.494   6.602  13.863  0.1044 -1.2884 -0.1332
18975TIP3    H178416   2.520   6.596  13.955  2.4792 -0.6525 -0.7008
18975TIP3    H278417   2.488   6.696  13.845  0.1077 -1.4010 -0.7523
18976TIP3   OH278418   0.596   4.442  16.027  0.3380 -0.3638 -0.0407
18976TIP3    H178419   0.687   4.438  16.055  0.2102  1.7094  0.8902
18976TIP3    H278420   0.596   4.506  15.955 -0.6387  1.5730  1.5595
18977TIP3   OH278421   3.202   4.354  10.965  0.3462  0.1680  0.1025
18977TIP3    H178422   3.127   4.316  11.011  0.7761 -0.1213  0.5726
18977TIP3    H278423   3.227   4.287  10.901 -0.2850  0.5920 -0.6136
18978TIP3   OH278424   0.806   6.489  12.287  0.4971  0.1754 -0.0942
18978TIP3    H178425   0.796   6.527  12.200 -2.6056 -2.7034 -1.2039
18978TIP3    H278426   0.751   6.543  12.343  2.4412  1.9863  0.2183
18979TIP3   OH278427   4.706   2.064  16.264  0.3080 -0.1879 -0.4238
18979TIP3    H178428   4.652   2.075  16.185  1.0527 -0.0754 -0.9350
18979TIP3    H278429   4.643   2.049  16.334 -0.4024  0.3065 -0.9372
18980TIP3   OH278430   3.896   5.439   5.364 -0.4109 -0.2736 -0.3357
18980TIP3    H178431   3.976   5.492   5.368 -0.5938 -0.0644  0.9878
18980TIP3    H278432   3.856   5.450   5.450 -1.5717 -0.8464 -0.7852
18981TIP3   OH278433   6.364   1.541  13.078 -0.0100 -0.2123  0.1028
18981TIP3    H178434   6.340   1.450  13.060  0.5564 -0.3946  0.2747
18981TIP3    H278435   6.442   1.535  13.132  0.2609  0.3846 -0.2176
18982TIP3   OH278436   1.791   3.304   5.837 -0.0764  0.5053  0.1999
18982TIP3    H178437   1.793   3.299   5.742 -0.3194 -1.2729  0.2594
18982TIP3    H278438   1.709   3.350   5.857 -0.0924  0.7554 -0.4315
18983TIP3   OH278439   4.236   2.223  15.298 -0.3712 -0.6684  0.0934
18983TIP3    H178440   4.285   2.145  15.272 -1.2684 -0.7934 -1.3409
18983TIP3    H278441   4.147   2.208  15.264 -0.1293  1.7450 -1.8903
18984TIP3   OH278442   0.047   2.521  11.630  0.0256 -0.0632 -0.4430
18984TIP3    H178443   0.137   2.549  11.616  1.1682 -3.0367  0.1913
18984TIP3    H278444   0.028   2.462  11.556 -0.4454 -1.4614  0.7480
18985TIP3   OH278445   5.883   1.679   6.492 -0.0427 -0.1929 -0.3448
18985TIP3    H178446   5.845   1.755   6.535 -0.4250  0.0341 -1.0563
18985TIP3    H278447   5.864   1.606   6.551  1.6436  0.4539  1.0902
18986TIP3   OH278448   6.648   2.373   6.551  0.0282  0.2040  0.3266
18986TIP3    H178449   6.717   2.315   6.520  1.2204  1.2800  0.8644
18986TIP3    H278450   6.652   2.449   6.493  0.5983  1.1114  1.5106
18987TIP3   OH278451   3.832   5.916  16.932 -0.0140  0.3903 -0.6883
18987TIP3    H178452   3.916   5.869  16.935 -0.7411 -0.9477  2.2047
18987TIP3    H278453   3.783   5.873  16.863  0.2408 -1.5924  0.3020
18988TIP3   OH278454   2.598   1.124  16.183  0.4327  0.3029 -0.3082
18988TIP3    H178455   2.505   1.133  16.206  0.5817 -0.4015  0.6414
18988TIP3    H278456   2.600   1.135  16.088 -0.2655  2.9507 -0.1063
18989TIP3   OH278457   4.080   1.502  16.238  0.1826 -0.2753 -0.6472
18989TIP3    H178458   3.984   1.503  16.247  0.3168  0.4083  1.2638
18989TIP3    H278459   4.101   1.411  16.216 -0.7543 -1.2312  2.0030
18990TIP3   OH278460   1.655   2.975  11.024 -0.7825 -0.4244  0.0362
18990TIP3    H178461   1.564   2.962  10.996 -1.1402 -0.0717  0.9627
18990TIP3    H278462   1.679   3.061  10.990 -0.8978 -0.3968  0.0237
18991TIP3   OH278463   1.024   5.075   3.419  0.5564 -0.5352  0.2069
18991TIP3    H178464   1.039   5.095   3.512  2.3381 -1.0026  0.0618
18991TIP3    H278465   1.063   4.988   3.407 -0.9892 -1.1484 -0.6733
18992TIP3   OH278466   6.535   1.585   1.349 -0.4506 -0.1531 -0.2817
18992TIP3    H178467   6.462   1.607   1.291  0.1161  0.5378 -0.7553
18992TIP3    H278468   6.532   1.490   1.357 -0.5181 -0.2655 -1.4857
18993TIP3   OH278469   2.179   2.345   0.102  0.7615 -0.3121  0.3608
18993TIP3    H178470   2.243   2.348   0.031  0.2657 -0.2575 -0.0816
18993TIP3    H278471   2.231   2.359   0.181  1.2897 -0.2091 -0.0025
18994TIP3   OH278472   0.418   4.161   4.240  0.2201 -1.0852  0.1441
18994TIP3    H178473   0.373   4.137   4.159  0.7389 -0.7578 -0.2516
18994TIP3    H278474   0.378   4.244   4.266 -0.2548 -1.4136  0.4689
18995TIP3   OH278475   3.614   4.474   4.767 -0.6517 -1.0080  0.6044
18995TIP3    H178476   3.651   4.406   4.711  0.1826 -1.6977  1.9555
18995TIP3    H278477   3.682   4.542   4.768 -0.8950 -0.7593  0.3655
18996TIP3   OH278478   0.276   2.432  12.627  0.3291  0.0720  0.4904
18996TIP3    H178479   0.343   2.381  12.672  0.7924  1.3835  1.3527
18996TIP3    H278480   0.321   2.511  12.597 -0.2558 -0.2042 -1.2335
18997TIP3   OH278481   4.636   6.760   2.886  0.0467 -0.4908 -0.0874
18997TIP3    H178482   4.676   6.733   2.969 -1.5004  1.6572  1.4824
18997TIP3    H278483   4.705   6.748   2.821  1.3212 -2.2689  1.4646
18998TIP3   OH278484   5.054   2.980   4.344 -0.0978  0.1873 -0.1565
18998TIP3    H178485   5.141   2.939   4.346 -0.8060 -1.3868 -0.3436
18998TIP3    H278486   5.032   2.985   4.251 -0.0264  1.0387 -0.1402
18999TIP3   OH278487   0.266   1.385  12.023 -0.1392 -0.2017 -0.1061
18999TIP3    H178488   0.345   1.435  12.042  0.4580 -0.5204 -1.6676
18999TIP3    H278489   0.296   1.310  11.972 -1.6502  0.8645 -2.7670
19000TIP3   OH278490   1.940   6.077  16.611  0.3259  0.3695  0.0245
19000TIP3    H178491   1.880   6.127  16.667 -0.3892 -1.2506  0.7404
19000TIP3    H278492   1.988   6.145  16.562 -1.7804  1.7320 -0.2848
19001TIP3   OH278493   5.409   6.560   2.978 -0.0801  0.1457 -0.0105
19001TIP3    H178494   5.425   6.608   3.059  1.4997 -2.0403  1.0716
19001TIP3    H278495   5.440   6.620   2.909 -0.1296  1.4935  1.0892
19002TIP3   OH278496   3.939   3.577   0.378  0.2318 -0.1694 -0.3468
19002TIP3    H178497   4.012   3.626   0.414  0.4706 -0.8120  0.0573
19002TIP3    H278498   3.881   3.644   0.341 -0.3847  0.5852  1.8507
19003TIP3   OH278499   0.845   3.315  10.738 -0.1156 -0.6585  0.1008
19003TIP3    H178500   0.772   3.301  10.678 -0.0450  0.1331 -0.1761
19003TIP3    H278501   0.871   3.226  10.765 -1.0004 -0.9602  0.0021
19004TIP3   OH278502   5.321   3.439   3.599 -0.3119 -0.4201  0.0476
19004TIP3    H178503   5.397   3.382   3.584 -0.5954 -0.1263 -3.5766
19004TIP3    H278504   5.254   3.381   3.634  0.7214 -1.3159  0.6305
19005TIP3   OH278505   6.619   4.973   3.403 -0.2002  0.1590 -0.1821
19005TIP3    H178506   6.648   5.019   3.324  0.8686 -0.3719 -0.1200
19005TIP3    H278507   6.558   5.033   3.445  0.9085  1.3969 -0.2659
19006TIP3   OH278508   2.760   2.884   2.867 -0.0697 -0.2970 -0.0611
19006TIP3    H178509   2.813   2.959   2.893 -1.5183 -0.1205  2.8177
19006TIP3    H278510   2.726   2.849   2.950 -4.5726 -0.2435 -1.6139
19007TIP3   OH278511   3.258   1.171   5.348  0.2370  0.3703 -0.3653
19007TIP3    H178512   3.320   1.231   5.306 -0.0645  1.2486  0.4193
19007TIP3    H278513   3.281   1.172   5.440 -0.2190 -0.1865 -0.2395
19008TIP3   OH278514   2.305   3.704  13.199 -0.2731  0.2635  0.4620
19008TIP3    H178515   2.401   3.702  13.205 -0.3115 -2.1030  1.1277
19008TIP3    H278516   2.285   3.795  13.178  2.1632  0.6792 -0.4432
19009TIP3   OH278517   3.118   3.979   3.151 -0.6209  0.2445 -0.0677
19009TIP3    H178518   3.096   3.893   3.114 -0.4310  0.1473  0.0433
19009TIP3    H278519   3.117   4.038   3.076 -0.7242  0.1409 -0.1490
19010TIP3   OH278520   0.624   5.224  11.754  0.0486 -0.1235  0.0777
19010TIP3    H178521   0.643   5.307  11.798  0.8720  0.5299 -1.4381
19010TIP3    H278522   0.584   5.250  11.671 -1.9274 -1.3356  0.5770
19011TIP3   OH278523   6.096   0.510  15.311  0.0709 -0.1173 -0.5521
19011TIP3    H178524   6.169   0.466  15.267 -0.4980 -0.4027 -1.2162
19011TIP3    H278525   6.020   0.491  15.257 -0.5308  0.0593  0.2169
19012TIP3   OH278526   3.773   6.508   4.549  0.3980  0.0668 -0.0963
19012TIP3    H178527   3.723   6.437   4.589  2.1516 -1.3130 -0.1873
19012TIP3    H278528   3.839   6.531   4.614  1.4761 -0.2147 -1.0427
19013TIP3   OH278529   1.600   2.301   0.905  0.4889 -0.1686 -0.4733
19013TIP3    H178530   1.619   2.355   0.828  0.9838 -0.6200 -0.6676
19013TIP3    H278531   1.686   2.278   0.940  0.3176  1.8222  1.4900
19014TIP3   OH278532   0.812   0.282  12.599 -0.1059 -1.2084 -0.4523
19014TIP3    H178533   0.883   0.319  12.548 -1.1225  1.0574 -0.3464
19014TIP3    H278534   0.836   0.298  12.690 -0.1744 -1.5839 -0.3632
19015TIP3   OH278535   1.298   1.382  15.858  0.1106  0.0678  0.6369
19015TIP3    H178536   1.311   1.298  15.903 -0.9832  0.3760  1.5930
19015TIP3    H278537   1.207   1.380  15.830  1.0642 -0.6774 -2.8996
19016TIP3   OH278538   2.823   6.472   4.174  0.3051 -0.0569 -0.2964
19016TIP3    H178539   2.852   6.389   4.135 -2.7058 -0.9981 -0.8505
19016TIP3    H278540   2.831   6.535   4.103  1.4178 -0.1519 -0.2664
19017TIP3   OH278541   5.565   0.992   4.579 -0.0031  0.1899  0.4697
19017TIP3    H178542   5.532   0.991   4.489  0.8487  0.0039  0.1422
19017TIP3    H278543   5.533   1.075   4.615 -0.0145  0.4624 -0.1421
19018TIP3   OH278544   6.387   3.703   2.439 -0.1119  0.0304  0.1748
19018TIP3    H178545   6.351   3.650   2.367  0.2302 -0.5198  0.4044
19018TIP3    H278546   6.372   3.793   2.412 -1.0911 -0.1838 -0.0316
19019TIP3   OH278547   1.621   2.890   5.272 -0.0264  0.4202 -0.3038
19019TIP3    H178548   1.626   2.955   5.342 -0.9978  0.4668 -0.2579
19019TIP3    H278549   1.527   2.870   5.264 -0.1334  1.5249 -2.5989
19020TIP3   OH278550   6.055   1.910   0.898  0.4745  0.2448  0.8173
19020TIP3    H178551   6.139   1.926   0.942  0.5016  0.1597  0.7966
19020TIP3    H278552   5.993   1.967   0.944  0.5958  0.5044  0.6591
19021TIP3   OH278553   1.037   1.328   3.150  0.0381  0.1675  0.0096
19021TIP3    H178554   0.967   1.390   3.168 -1.2182 -0.9709 -0.7031
19021TIP3    H278555   1.061   1.343   3.059 -2.0213 -1.9230 -0.9970
19022TIP3   OH278556   2.636   3.717  14.186 -0.2824 -0.1783  0.6498
19022TIP3    H178557   2.630   3.807  14.154 -1.7407 -1.0907 -1.9712
19022TIP3    H278558   2.553   3.702  14.232 -0.6400 -0.5646 -0.1044
19023TIP3   OH278559   2.525   0.017  13.332  0.6127 -0.0512 -0.0829
19023TIP3    H178560   2.455  -0.033  13.290 -0.4619 -0.0969  1.6709
19023TIP3    H278561   2.511   0.107  13.302 -0.7259  0.0833  0.8909
19024TIP3   OH278562   6.296   0.125  15.913  0.1519 -0.1603  0.1068
19024TIP3    H178563   6.369   0.063  15.910  1.7513  1.5901  0.2356
19024TIP3    H278564   6.259   0.123  15.825 -1.6053 -3.1633  0.7823
19025TIP3   OH278565   2.765   4.907  15.495  0.0839  0.0205 -0.1623
19025TIP3    H178566   2.755   4.814  15.517 -0.3522  0.7247  2.9800
19025TIP3    H278567   2.859   4.922  15.504  0.2127 -0.1777 -1.0831
19026TIP3   OH278568   4.524   3.242  14.327 -0.3959 -0.0535 -0.0664
19026TIP3    H178569   4.477   3.247  14.410 -2.3899  0.1691 -1.1521
19026TIP3    H278570   4.548   3.333  14.307 -0.4244 -0.0329 -0.0082
19027TIP3   OH278571   4.047   1.096   4.157 -0.5795  0.6598 -0.2861
19027TIP3    H178572   3.952   1.085   4.150 -0.4328 -0.8443 -0.1343
19027TIP3    H278573   4.076   1.102   4.066 -0.7164  0.1835 -0.3609
19028TIP3   OH278574   1.117   6.356  14.390 -0.5948 -0.8273 -0.3904
19028TIP3    H178575   1.103   6.359  14.295  0.6993  1.3821 -0.6112
19028TIP3    H278576   1.060   6.424  14.425 -0.4125 -1.0209  0.3024
19029TIP3   OH278577   6.776   5.372   5.991 -0.1286 -0.1010  0.3438
19029TIP3    H178578   6.748   5.398   6.078 -1.0073 -3.7943  1.3691
19029TIP3    H278579   6.869   5.349   6.001 -0.1488 -0.2396  0.2162
19030TIP3   OH278580   3.014   1.175  15.161 -0.2889  0.3645 -0.1433
19030TIP3    H178581   3.091   1.131  15.197  0.0177  0.5823 -0.5280
19030TIP3    H278582   3.040   1.266  15.154 -0.6820  0.4874 -0.0124
19031TIP3   OH278583   4.446   1.286   1.561  0.4764  0.5150  0.2761
19031TIP3    H178584   4.407   1.338   1.491  0.7270  1.3129  0.7284
19031TIP3    H278585   4.418   1.196   1.542 -2.2541  1.1287  1.0006
19032TIP3   OH278586   2.648   2.133  13.614  0.2860 -0.1476  0.1429
19032TIP3    H178587   2.718   2.068  13.610  1.9398  1.6159 -1.3092
19032TIP3    H278588   2.623   2.148  13.523 -1.6324 -0.3299  0.5983
19033TIP3   OH278589   5.207   6.400  12.931  0.5901  0.0248 -0.2692
19033TIP3    H178590   5.258   6.325  12.899  0.5398 -0.1716  0.0939
19033TIP3    H278591   5.137   6.360  12.982  0.9516  0.3347  0.4890
19034TIP3   OH278592   5.949   1.467   3.590 -0.0592  0.0029  0.1692
19034TIP3    H178593   5.871   1.419   3.619 -0.8747 -0.1717 -2.1409
19034TIP3    H278594   6.014   1.449   3.658 -1.4442 -1.4007  1.2081
19035TIP3   OH278595   3.892   3.740  10.959  0.3151 -0.2627  0.0444
19035TIP3    H178596   3.914   3.664  10.904  0.3390  0.7864 -1.4643
19035TIP3    H278597   3.808   3.717  10.998  1.2174 -1.8474  1.1522
19036TIP3   OH278598   6.187   4.014   5.411 -0.1517 -0.4199 -0.2148
19036TIP3    H178599   6.131   4.019   5.489  0.8039 -0.3831  0.4970
19036TIP3    H278600   6.272   3.984   5.445 -0.0268 -1.5085 -1.4207
19037TIP3   OH278601   0.547   4.824   1.514 -0.0510  0.0177  0.3631
19037TIP3    H178602   0.603   4.901   1.524 -0.4941  0.4787 -0.6013
19037TIP3    H278603   0.586   4.775   1.441 -0.7065  0.1712 -0.0964
19038TIP3   OH278604   4.288   0.352  15.498  0.4215  0.2071  0.1017
19038TIP3    H178605   4.238   0.287  15.547  0.1617 -0.0608 -0.5021
19038TIP3    H278606   4.226   0.386  15.433  0.1243  2.1001  1.3107
19039TIP3   OH278607   5.319   6.611   3.872  0.0554 -0.6291  0.3028
19039TIP3    H178608   5.257   6.649   3.810  0.8861 -1.5380 -1.1583
19039TIP3    H278609   5.346   6.529   3.831  1.0400 -1.0019  1.6402
19040TIP3   OH278610   4.081   3.788   6.354 -0.0888 -0.0162 -0.9301
19040TIP3    H178611   4.108   3.702   6.387 -1.0299 -0.6013 -1.6395
19040TIP3    H278612   4.141   3.850   6.396 -1.0319 -0.7405  1.6667
19041TIP3   OH278613   6.324   2.556  15.228  0.1712 -0.1196 -0.6534
19041TIP3    H178614   6.298   2.495  15.159 -2.4711  0.2290 -0.0711
19041TIP3    H278615   6.307   2.509  15.309  1.1020  0.3008 -0.1925
19042TIP3   OH278616   3.591   2.720   0.667  0.1571 -0.9584 -0.2380
19042TIP3    H178617   3.520   2.742   0.606 -1.4311  0.0134  1.8369
19042TIP3    H278618   3.625   2.636   0.635 -1.3940 -1.0646 -1.7506
19043TIP3   OH278619   1.153   0.782  16.152  0.6684 -0.2373  0.2190
19043TIP3    H178620   1.223   0.756  16.092 -0.6858  0.7909 -1.9146
19043TIP3    H278621   1.111   0.699  16.175  0.9679 -0.6269 -0.5695
19044TIP3   OH278622   5.891   0.455   6.314 -0.0772  0.0204  0.0380
19044TIP3    H178623   5.958   0.464   6.247  0.2919 -0.0050  0.4050
19044TIP3    H278624   5.887   0.361   6.331 -0.5662 -0.0362 -0.3439
19045TIP3   OH278625   6.356   1.667   3.769  0.3661  0.2169  0.1417
19045TIP3    H178626   6.438   1.669   3.819  0.3043 -0.7339  0.3032
19045TIP3    H278627   6.325   1.577   3.778 -1.2262  0.8288  0.9124
19046TIP3   OH278628   0.662   5.510  11.501  0.5224 -0.0562  0.0163
19046TIP3    H178629   0.743   5.509  11.552  0.4293  0.5643  0.1974
19046TIP3    H278630   0.674   5.581  11.438 -0.4254  1.0245  0.9961
19047TIP3   OH278631   1.109   2.698   0.338 -0.1093 -0.7088  0.0134
19047TIP3    H178632   1.133   2.789   0.323 -0.0563 -0.7932 -0.4292
19047TIP3    H278633   1.175   2.647   0.291 -0.6769 -0.9553 -0.5382
19048TIP3   OH278634   1.047   5.448  11.872  0.5342  0.5518 -0.0088
19048TIP3    H178635   1.075   5.363  11.838 -0.1778 -0.3206  1.4639
19048TIP3    H278636   1.011   5.428  11.959 -2.2494  1.9392 -0.7311
19049TIP3   OH278637   6.307   6.022  14.585 -0.0010  0.4387  0.3117
19049TIP3    H178638   6.275   6.110  14.566 -0.5589  0.4833  1.3705
19049TIP3    H278639   6.391   6.016  14.540 -1.6518  0.1310 -3.0562
19050TIP3   OH278640   4.611   3.972  14.501  0.3151  0.3311  0.3881
19050TIP3    H178641   4.613   4.019  14.584  3.3302  0.3051  0.4461
19050TIP3    H278642   4.703   3.967  14.474 -0.2678 -2.2117 -1.5089
19051TIP3   OH278643   2.030   5.379  11.809  0.5525  0.3947  0.1839
19051TIP3    H178644   1.950   5.327  11.821 -0.5581  1.7811 -0.8200
19051TIP3    H278645   2.101   5.318  11.826 -0.6878 -1.5230 -1.1539
19052TIP3   OH278646   3.315   5.713   2.604  0.1068 -0.1212  0.2606
19052TIP3    H178647   3.350   5.694   2.517  1.2167 -0.0976  0.6876
19052TIP3    H278648   3.283   5.803   2.598 -1.1535 -0.5997 -0.5197
19053TIP3   OH278649   0.503   3.616  14.801  0.1453  0.0927  0.4911
19053TIP3    H178650   0.499   3.663  14.717  0.7113  1.0058  0.9642
19053TIP3    H278651   0.594   3.625  14.829 -0.2981  0.7997  1.7655
19054TIP3   OH278652   1.035   1.714  14.170  0.0576  0.0404 -0.1312
19054TIP3    H178653   1.007   1.771  14.098 -1.1425  0.5052  0.6688
19054TIP3    H278654   1.130   1.725  14.173 -0.0601  1.4089 -0.5105
19055TIP3   OH278655   0.090   2.239  12.589 -0.2116  0.7393 -0.1746
19055TIP3    H178656   0.107   2.198  12.674 -0.1074 -0.8715 -0.9338
19055TIP3    H278657   0.149   2.314  12.587 -2.0631  2.4228  2.2261
19056TIP3   OH278658   1.043   2.982  13.375  0.0298 -0.9263  0.2306
19056TIP3    H178659   1.065   2.893  13.401  0.2322 -0.3516  2.2116
19056TIP3    H278660   0.992   3.017  13.448 -0.8575  0.2827 -0.9202
19057TIP3   OH278661   2.675   5.680   2.864 -0.4367  0.4542 -0.3048
19057TIP3    H178662   2.746   5.745   2.861 -1.0939  1.3077  1.2728
19057TIP3    H278663   2.627   5.692   2.782  0.9655  0.1482 -1.2101
19058TIP3   OH278664   2.468   1.242   4.451  0.5591  0.1662 -0.1263
19058TIP3    H178665   2.533   1.224   4.383 -0.2240  0.5990 -1.0161
19058TIP3    H278666   2.520   1.268   4.527  1.6008 -2.9506  0.3601
19059TIP3   OH278667   4.437   0.045  15.287 -0.1666  0.0155  0.1745
19059TIP3    H178668   4.504   0.098  15.330 -0.5455  0.3213  0.3995
19059TIP3    H278669   4.387   0.006  15.360  1.0257 -1.8684  0.0451
19060TIP3   OH278670   6.799   6.546  11.174  0.2214 -0.0052  0.4652
19060TIP3    H178671   6.824   6.554  11.083  0.9159  0.5090  0.6946
19060TIP3    H278672   6.704   6.534  11.172  0.4279 -1.6700 -0.3954
19061TIP3   OH278673   0.143   3.023   0.901 -0.2844  0.3246 -0.3096
19061TIP3    H178674   0.078   2.954   0.914 -0.2058  0.5105  1.2610
19061TIP3    H278675   0.227   2.983   0.921 -0.3993  1.2651  2.4605
19062TIP3   OH278676   0.684   3.182   3.071 -0.5452 -0.2743 -0.0112
19062TIP3    H178677   0.678   3.247   3.141 -0.1214 -0.1091 -0.1292
19062TIP3    H278678   0.748   3.217   3.010  0.2582 -1.1577  0.2984
19063TIP3   OH278679   1.531   6.229  11.376 -0.1926 -0.4747 -0.3785
19063TIP3    H178680   1.445   6.189  11.364 -0.4346 -0.1312  0.1609
19063TIP3    H278681   1.594   6.158  11.362 -0.6043 -0.9814  0.3184
19064TIP3   OH278682   1.950   2.025  16.948 -0.4443  0.2592 -0.2456
19064TIP3    H178683   1.884   2.070  17.000 -1.3398  0.4965 -1.5519
19064TIP3    H278684   1.985   1.958  17.007 -1.3491  0.5897  0.6930
19065TIP3   OH278685   4.838   0.511   1.773  0.4850  0.2809  0.0864
19065TIP3    H178686   4.925   0.471   1.770 -0.2438 -1.4179 -3.0791
19065TIP3    H278687   4.777   0.438   1.785 -0.6221  1.2651  0.7609
19066TIP3   OH278688   1.626   6.503  13.848 -0.9756  0.1831 -0.0184
19066TIP3    H178689   1.547   6.529  13.800 -1.4156 -0.3163  0.4250
19066TIP3    H278690   1.693   6.492  13.780 -2.3085 -3.3625 -0.9713
19067TIP3   OH278691   0.815   3.022  17.202 -0.1117  0.1408 -0.8905
19067TIP3    H178692   0.746   3.011  17.267  1.5389 -2.2418  0.6110
19067TIP3    H278693   0.844   3.113  17.213 -2.1533  0.8219 -0.7528
19068TIP3   OH278694   5.591   5.845  17.094 -0.4452  0.1464 -0.8549
19068TIP3    H178695   5.676   5.800  17.096 -0.4407 -0.1389 -3.6901
19068TIP3    H278696   5.547   5.816  17.174  1.5895 -0.7626  0.0102
19069TIP3   OH278697   4.160   6.656   1.429 -0.3999 -0.2226 -0.1366
19069TIP3    H178698   4.100   6.687   1.361 -1.0804  1.0049  0.9661
19069TIP3    H278699   4.201   6.736   1.463  1.0965 -0.9480 -0.1426
19070TIP3   OH278700   5.933   3.621  14.581  0.2242  0.0307  0.9449
19070TIP3    H178701   5.901   3.635  14.671  0.3411 -2.0269  1.3612
19070TIP3    H278702   5.959   3.529  14.579  1.7026  0.4331 -0.7750
19071TIP3   OH278703   2.433   6.743  12.101 -0.4676  0.3682 -0.0814
19071TIP3    H178704   2.513   6.699  12.128 -1.1392 -0.2080  1.0453
19071TIP3    H278705   2.436   6.743  12.005  0.4425 -0.4350 -0.0619
19072TIP3   OH278706   4.027   5.430   4.290 -0.5668  0.1216  1.0248
19072TIP3    H178707   4.104   5.374   4.290 -0.7713 -0.1762  0.0020
19072TIP3    H278708   4.059   5.514   4.259 -0.4673  0.2878  1.5616
19073TIP3   OH278709   2.940   1.303  14.421  0.5267  0.1485 -0.1742
19073TIP3    H178710   2.995   1.268  14.492  0.8864  1.7328  0.3781
19073TIP3    H278711   2.994   1.294  14.343 -0.1122 -2.1818 -0.3966
19074TIP3   OH278712   2.691   1.564   1.533 -0.0069 -0.8337 -0.6167
19074TIP3    H178713   2.664   1.646   1.573  2.0850 -0.6526  0.5789
19074TIP3    H278714   2.747   1.590   1.459  2.3588 -1.0704  0.9842
19075TIP3   OH278715   1.365   1.491   2.201 -0.7240  0.9363 -0.0306
19075TIP3    H178716   1.423   1.415   2.208 -1.0221  0.5486 -1.5816
19075TIP3    H278717   1.351   1.503   2.107  0.2806  3.6349  0.0661
19076TIP3   OH278718   1.178   5.032  16.739 -0.6712  0.6493 -0.6870
19076TIP3    H178719   1.157   5.057  16.829 -0.0729 -0.8393 -0.0990
19076TIP3    H278720   1.140   5.102  16.686 -0.1489  2.1248  0.7560
19077TIP3   OH278721   6.326   2.887  12.445 -0.0208  0.2787 -0.7152
19077TIP3    H178722   6.313   2.794  12.425  1.6065 -0.0135 -0.6036
19077TIP3    H278723   6.294   2.934  12.368  0.2767 -0.4548 -1.2962
19078TIP3   OH278724   6.015   3.910   3.445  0.3874 -0.1440  0.3434
19078TIP3    H178725   5.949   3.978   3.428  0.6842  1.0061  3.2446
19078TIP3    H278726   6.098   3.957   3.444  0.5144 -0.0933  3.4544
19079TIP3   OH278727   2.557   1.193   3.742 -0.6901 -0.6144  0.8012
19079TIP3    H178728   2.571   1.175   3.649 -0.0623  0.2625  0.7023
19079TIP3    H278729   2.576   1.287   3.751  1.8469 -1.1448  2.2483
19080TIP3   OH278730   5.089   4.250  11.569  0.2221  0.1326 -0.0194
19080TIP3    H178731   5.102   4.259  11.474  1.1021  3.2652  0.3049
19080TIP3    H278732   5.175   4.224  11.602  0.5210  1.2495  0.1147
19081TIP3   OH278733   1.565   6.625   4.375 -0.2287 -0.6881 -0.0120
19081TIP3    H178734   1.487   6.665   4.336  0.9054  0.6462 -1.0369
19081TIP3    H278735   1.638   6.674   4.337  1.1696 -2.5906  0.0777
19082TIP3   OH278736   0.996   0.809  14.584  0.3771 -0.1036 -0.6055
19082TIP3    H178737   0.984   0.815  14.679  0.3097  1.2470 -0.6749
19082TIP3    H278738   0.929   0.747  14.555 -0.3731  0.3398  0.1103
19083TIP3   OH278739   0.922   0.392  14.297  0.0078  0.5256 -0.2248
19083TIP3    H178740   1.014   0.390  14.325 -0.4038 -0.1225  1.1561
19083TIP3    H278741   0.907   0.306  14.258 -0.2301  0.3198  0.3124
19084TIP3   OH278742   0.500   3.597  13.009 -0.1176 -0.2448 -0.5594
19084TIP3    H178743   0.592   3.618  13.027 -0.5622  0.6087  0.8915
19084TIP3    H278744   0.450   3.656  13.066 -1.6061 -0.0497 -1.9780
19085TIP3   OH278745   0.192   0.026  15.288 -0.0189 -0.1143 -0.1922
19085TIP3    H178746   0.125  -0.036  15.318 -0.5682  0.9380  0.8476
19085TIP3    H278747   0.177   0.104  15.342  0.2814  1.1402 -1.8612
19086TIP3   OH278748   6.270   2.542   0.826  0.0366 -0.4596 -0.1145
19086TIP3    H178749   6.206   2.546   0.754 -0.1031 -1.5681 -0.0588
19086TIP3    H278750   6.350   2.578   0.789  0.0237 -1.2172 -0.8991
19087TIP3   OH278751   6.208   0.203  15.657  0.7356  0.2022 -0.0390
19087TIP3    H178752   6.233   0.291  15.685  1.7020  0.1796 -0.7512
19087TIP3    H278753   6.171   0.215  15.570  0.2545 -0.0260  0.1325
19088TIP3   OH278754   1.740   5.297  15.057 -0.3078  0.1852 -0.4194
19088TIP3    H178755   1.663   5.296  15.113  0.5155  1.0973  0.7862
19088TIP3    H278756   1.745   5.387  15.025  1.1819  0.6449  0.9334
19089TIP3   OH278757   5.428   2.733   1.578  0.8869  0.3337 -0.2280
19089TIP3    H178758   5.422   2.829   1.579  0.0137  0.2859 -0.3957
19089TIP3    H278759   5.359   2.705   1.518  0.9059 -0.4201  0.0910
19090TIP3   OH278760   1.678   3.533   4.492  0.0470  0.0278  0.3800
19090TIP3    H178761   1.589   3.536   4.456 -0.3114  1.3812  1.2675
19090TIP3    H278762   1.727   3.595   4.438  0.0544  0.4213  0.8303
19091TIP3   OH278763   0.170   3.836   5.603  0.3625 -0.1211  0.5227
19091TIP3    H178764   0.202   3.757   5.559  1.3720  0.6567 -0.1733
19091TIP3    H278765   0.177   3.905   5.537 -1.6741  0.3412  0.7160
19092TIP3   OH278766   0.738   5.266   2.524  0.3248 -0.4486 -0.4584
19092TIP3    H178767   0.740   5.177   2.490  2.1585 -0.9616  0.8552
19092TIP3    H278768   0.646   5.290   2.524 -0.4121 -2.9962  0.7551
19093TIP3   OH278769   2.165   0.333   4.626  0.1317  0.1725 -0.2796
19093TIP3    H178770   2.249   0.368   4.597 -0.6265  1.0920 -1.4889
19093TIP3    H278771   2.119   0.408   4.663 -0.2304 -0.2773  0.1922
19094TIP3   OH278772   3.770   6.773   2.253  0.4097 -0.1114 -0.2469
19094TIP3    H178773   3.821   6.697   2.227  1.5310  0.3146  0.6495
19094TIP3    H278774   3.797   6.842   2.191  0.9309  0.1126  0.2247
19095TIP3   OH278775   3.034   2.313  13.252 -0.0496 -0.2781  0.1393
19095TIP3    H178776   3.112   2.320  13.306 -0.3442 -0.9666  0.6561
19095TIP3    H278777   3.056   2.248  13.185  0.9366  1.7666 -1.6891
19096TIP3   OH278778   0.770   3.147  16.962 -0.8612 -0.7686  0.0064
19096TIP3    H178779   0.852   3.181  16.925 -0.9687 -1.7420 -1.1710
19096TIP3    H278780   0.798   3.097  17.039 -0.1599 -2.3678 -1.2418
19097TIP3   OH278781   0.212   2.160  16.659  0.5273  0.6605 -0.7315
19097TIP3    H178782   0.155   2.140  16.732  1.2213 -1.3137 -0.6878
19097TIP3    H278783   0.270   2.230  16.692 -0.3255  1.0479 -0.0312
19098TIP3   OH278784   3.631   1.935  14.075  0.9993 -0.2400  0.4669
19098TIP3    H178785   3.647   1.902  13.986  1.5320  2.0685 -0.3602
19098TIP3    H278786   3.699   1.895  14.128  1.1586 -1.0360 -0.3141
19099TIP3   OH278787   2.907   4.198   2.610  0.2000  0.4571 -0.2021
19099TIP3    H178788   2.992   4.231   2.581  0.6027 -1.4501 -1.3587
19099TIP3    H278789   2.843   4.254   2.566  0.7927  2.1576  0.9759
19100TIP3   OH278790   5.812   6.517   4.406 -0.0338  0.3054 -0.0764
19100TIP3    H178791   5.746   6.537   4.472 -2.1718  0.0462 -2.0089
19100TIP3    H278792   5.854   6.437   4.439  0.4245  1.2870  1.9099
19101TIP3   OH278793   3.668   4.776   3.367  0.0241 -0.3570  0.0279
19101TIP3    H178794   3.752   4.765   3.323 -0.1762 -1.7231 -0.0598
19101TIP3    H278795   3.608   4.720   3.318 -1.4491  2.1197 -1.1621
19102TIP3   OH278796   3.224   2.491  10.811 -0.4047 -0.2308  0.1207
19102TIP3    H178797   3.225   2.513  10.904  0.5740 -0.8500  0.2800
19102TIP3    H278798   3.186   2.403  10.807 -0.1469 -0.3383 -0.0253
19103TIP3   OH278799   0.731   6.595   4.265  0.2109 -0.0575 -0.1371
19103TIP3    H178800   0.787   6.542   4.322 -0.5013 -0.8792 -0.1869
19103TIP3    H278801   0.681   6.650   4.326  1.1987  0.8360 -0.1013
19104TIP3   OH278802   5.669   4.291  11.742 -0.4830 -0.0214  0.0278
19104TIP3    H178803   5.600   4.353  11.724  0.0021  0.7645  0.8122
19104TIP3    H278804   5.624   4.209  11.762 -1.0982 -0.3732 -2.4485
19105TIP3   OH278805   6.742   1.501   0.898  0.7007  0.1887 -0.0338
19105TIP3    H178806   6.670   1.513   0.961 -0.0137  1.1262 -0.9871
19105TIP3    H278807   6.816   1.547   0.938  0.0854  1.2975 -0.1155
19106TIP3   OH278808   2.396   3.803   5.296 -0.2029  0.4276 -0.3451
19106TIP3    H178809   2.415   3.779   5.386  1.2323 -2.2396 -1.2537
19106TIP3    H278810   2.479   3.834   5.261  0.7100 -3.2376 -1.9771
19107TIP3   OH278811   1.459   3.966   4.912 -0.2043 -0.6703 -0.1487
19107TIP3    H178812   1.504   4.045   4.941  1.3137 -1.4414 -0.3124
19107TIP3    H278813   1.459   3.909   4.989  0.8469 -1.4133 -0.6696
19108TIP3   OH278814   6.616   0.331   1.535 -0.3817  0.0093  0.3757
19108TIP3    H178815   6.642   0.243   1.562  1.6954  0.6451  0.6321
19108TIP3    H278816   6.551   0.317   1.466  0.1787 -1.7311  0.1533
19109TIP3   OH278817   5.624   3.961  16.188 -0.3162 -0.6189  0.5183
19109TIP3    H178818   5.663   4.027  16.246 -0.0803 -0.7840  0.5513
19109TIP3    H278819   5.627   4.001  16.101 -0.8963 -0.2719  0.6533
19110TIP3   OH278820   3.056   1.860  12.174  0.3661  0.1004 -0.1490
19110TIP3    H178821   3.150   1.874  12.174  0.1006  2.2602  0.9014
19110TIP3    H278822   3.034   1.842  12.265 -0.2041 -0.8690 -0.4568
19111TIP3   OH278823   3.098   3.492   5.384 -0.8027  0.5127 -0.1129
19111TIP3    H178824   3.057   3.452   5.308  0.2346 -1.2183  0.1722
19111TIP3    H278825   3.076   3.433   5.456  2.0484 -0.4968  0.0553
19112TIP3   OH278826   3.026   5.408  13.930 -0.4029  0.0024 -0.4473
19112TIP3    H178827   2.994   5.498  13.922  0.5843  0.6252  1.8419
19112TIP3    H278828   3.120   5.417  13.945 -0.2676 -1.4278 -0.3024
19113TIP3   OH278829   6.283   3.268  13.060  0.1258  0.3930 -0.0933
19113TIP3    H178830   6.302   3.268  13.154 -0.1622 -0.0995 -0.0304
19113TIP3    H278831   6.289   3.360  13.035 -1.8852  0.8415  0.8413
19114TIP3   OH278832   1.249   6.418   0.357  0.0421 -0.0597  0.6106
19114TIP3    H178833   1.240   6.493   0.415  0.6207  1.1194 -0.7722
19114TIP3    H278834   1.164   6.410   0.315 -0.7441 -1.5976  2.3214
19115TIP3   OH278835   1.872   2.609  11.488  0.2157  0.2219  0.4198
19115TIP3    H178836   1.837   2.550  11.556 -1.3525  1.3960  0.7123
19115TIP3    H278837   1.888   2.691  11.535  0.1756  0.7060 -0.4035
19116TIP3   OH278838   6.159   2.522  14.108  0.2517  0.4830  0.1621
19116TIP3    H178839   6.104   2.444  14.100  0.8448  0.1557 -0.8358
19116TIP3    H278840   6.236   2.503  14.054  1.0706  1.1835  1.0494
19117TIP3   OH278841   0.432   0.985  17.164  0.0527  1.1610  0.6210
19117TIP3    H178842   0.505   0.984  17.227  0.5414 -0.1292  0.0779
19117TIP3    H278843   0.417   0.892  17.144 -1.6787  1.4114  0.6247
19118TIP3   OH278844   5.693   3.203  13.160  0.1192  0.0319  0.3186
19118TIP3    H178845   5.778   3.241  13.136 -0.5490  0.0950 -2.1492
19118TIP3    H278846   5.640   3.279  13.184  0.2816  0.1498  0.3126
19119TIP3   OH278847   1.800   0.731   2.292 -0.2892  0.0734 -0.0142
19119TIP3    H178848   1.826   0.644   2.261  2.8453  1.0829 -0.5749
19119TIP3    H278849   1.747   0.713   2.370 -0.5415 -2.3472 -0.6569
19120TIP3   OH278850   1.279   6.376  15.983 -0.3767  0.2568 -0.0628
19120TIP3    H178851   1.227   6.451  15.954  0.6907  1.4810  1.0414
19120TIP3    H278852   1.217   6.320  16.030 -0.7306  1.7088  1.2882
19121TIP3   OH278853   6.790   1.555   6.110  0.2719  0.4222  0.1462
19121TIP3    H178854   6.800   1.645   6.142 -1.1820  0.0199  1.9445
19121TIP3    H278855   6.840   1.502   6.173  0.5456 -0.1088 -0.5030
19122TIP3   OH278856   0.072   4.673  16.442 -0.2281  0.3015 -0.1667
19122TIP3    H178857   0.064   4.610  16.514  0.9889 -0.9117 -1.0478
19122TIP3    H278858   0.035   4.754  16.478  0.6679 -0.1496  1.9648
19123TIP3   OH278859   3.282   4.401  11.237  0.0500  0.8354  0.1349
19123TIP3    H178860   3.258   4.421  11.147 -0.4266 -0.0437  0.0488
19123TIP3    H278861   3.298   4.486  11.278  0.4985  1.2311 -0.8363
19124TIP3   OH278862   0.755   2.268  14.338  0.7014 -0.0610  0.1651
19124TIP3    H178863   0.741   2.324  14.415 -1.2390  0.5207 -0.5535
19124TIP3    H278864   0.837   2.299  14.301  1.0091  0.5213  1.2652
19125TIP3   OH278865   0.977   3.113  12.125 -0.3859  0.0130  0.2015
19125TIP3    H178866   1.049   3.155  12.077  2.0077 -1.9233  1.8091
19125TIP3    H278867   0.972   3.163  12.207  1.5773 -1.7804  1.5476
19126TIP3   OH278868   5.507   6.697   6.557 -0.3288 -0.0758 -0.3891
19126TIP3    H178869   5.556   6.779   6.545 -0.8537  0.1274 -1.3137
19126TIP3    H278870   5.523   6.648   6.476  1.9088 -1.9913  1.0767
19127TIP3   OH278871   5.088   4.489  12.759 -0.5719 -0.8082  0.3871
19127TIP3    H178872   5.032   4.563  12.737 -1.7320 -1.0679  2.2109
19127TIP3    H278873   5.071   4.425  12.690  1.5389  1.0545 -2.0469
19128TIP3   OH278874   6.248   1.972  12.720  0.7196  0.2202  0.3504
19128TIP3    H178875   6.320   2.029  12.745  0.9418 -0.4346  1.2516
19128TIP3    H278876   6.279   1.884  12.740  0.3105 -0.2100 -0.8354
19129TIP3   OH278877   1.610   4.217   0.304 -0.0112  0.1801  0.0255
19129TIP3    H178878   1.615   4.306   0.270  0.0984  0.9200  1.8789
19129TIP3    H278879   1.694   4.203   0.348  1.2627 -2.0031 -2.7539
19130TIP3   OH278880   1.170   4.797   4.287 -0.4353 -0.3023  0.6855
19130TIP3    H178881   1.160   4.848   4.206 -0.9387 -0.9098  0.3519
19130TIP3    H278882   1.243   4.839   4.333  0.3752 -0.4133 -0.4439
19131TIP3   OH278883   0.950   3.965   1.093  0.0822 -0.3842  0.8809
19131TIP3    H178884   1.007   3.898   1.130  0.1320 -1.2605 -0.7090
19131TIP3    H278885   1.010   4.036   1.068 -0.0018  0.4088  2.8065
19132TIP3   OH278886   3.534   3.908   5.084  0.3409  0.3304 -0.1517
19132TIP3    H178887   3.526   3.942   5.174  1.1327  0.6360 -0.1872
19132TIP3    H278888   3.518   3.984   5.028 -2.5635 -0.3313 -0.3599
19133TIP3   OH278889   3.674   0.479  16.528 -0.1442 -0.8025  0.5760
19133TIP3    H178890   3.667   0.570  16.556  0.7137 -0.1157 -1.3407
19133TIP3    H278891   3.586   0.443  16.541 -0.9207  0.7514 -0.2020
19134TIP3   OH278892   1.040   5.891  12.477 -0.0929 -0.5814  0.5392
19134TIP3    H178893   0.960   5.937  12.500 -0.6946 -1.1673 -0.2923
19134TIP3    H278894   1.061   5.838  12.554 -0.5405 -0.4640  0.7442
19135TIP3   OH278895   2.073   5.608  14.853 -0.3564  0.1939 -0.3285
19135TIP3    H178896   2.104   5.555  14.926  0.4788  3.3043  1.8103
19135TIP3    H278897   2.079   5.551  14.777  1.0914 -2.4833  1.6276
19136TIP3   OH278898   5.990   4.835   5.052  0.2565  0.6087  0.6333
19136TIP3    H178899   6.023   4.925   5.058 -0.2804  0.9963 -1.4468
19136TIP3    H278900   5.968   4.823   4.960  0.5124 -1.7519  0.8025
19137TIP3   OH278901   1.905   1.412   0.126  0.0707  0.4272 -0.6745
19137TIP3    H178902   1.852   1.484   0.092 -1.4137 -0.8425 -1.1748
19137TIP3    H278903   1.841   1.347   0.154  1.3527 -0.2858  0.7377
19138TIP3   OH278904   1.149   2.166  16.221 -0.5323  0.2961 -0.4095
19138TIP3    H178905   1.132   2.218  16.142 -1.9062  0.0559 -0.2848
19138TIP3    H278906   1.212   2.099  16.192  2.1535  2.5894 -0.3169
19139TIP3   OH278907   3.378   5.315   0.185 -0.0721  0.3398 -0.2955
19139TIP3    H178908   3.403   5.328   0.277 -0.7193  0.3166 -0.1096
19139TIP3    H278909   3.386   5.402   0.146 -0.7465  0.5569  0.0284
19140TIP3   OH278910   5.907   5.512   2.782  0.6343  0.0496 -0.2617
19140TIP3    H178911   5.962   5.446   2.824  0.9040  0.8275  0.6666
19140TIP3    H278912   5.943   5.596   2.813 -1.0594  0.5850  0.3921
19141TIP3   OH278913   5.682   3.448  13.464  0.3096  0.2094  0.1891
19141TIP3    H178914   5.590   3.472  13.473  0.2466 -0.5718  2.1869
19141TIP3    H278915   5.680   3.361  13.423  0.1384  0.0164  0.6053
19142TIP3   OH278916   0.846   2.511   1.313  0.1685  0.3295  0.0361
19142TIP3    H178917   0.909   2.542   1.248 -0.5623 -0.9314 -1.3469
19142TIP3    H278918   0.873   2.421   1.332 -1.2434 -0.2986 -0.7052
19143TIP3   OH278919   4.902   5.159   0.283 -0.3166  0.0618  0.2719
19143TIP3    H178920   4.829   5.103   0.309 -1.2546  0.6748 -0.9273
19143TIP3    H278921   4.978   5.101   0.284 -0.8660 -0.6692  1.2218
19144TIP3   OH278922   2.204   6.200   2.305 -0.1890 -0.0982  0.2947
19144TIP3    H178923   2.112   6.223   2.320 -0.2715 -1.1334  1.5750
19144TIP3    H278924   2.206   6.104   2.313  1.3235  0.0374  2.4035
19145TIP3   OH278925   0.186   5.862   3.171  0.1756 -0.4859 -0.3295
19145TIP3    H178926   0.232   5.928   3.121  2.0174 -1.0816  0.4689
19145TIP3    H278927   0.170   5.902   3.256 -0.2168 -0.5124 -0.3859
19146TIP3   OH278928   1.192   4.759   6.204 -0.1974 -0.0798 -0.0840
19146TIP3    H178929   1.179   4.848   6.237 -0.7488 -0.0743 -0.3067
19146TIP3    H278930   1.287   4.748   6.204 -0.1325  0.4053  0.2148
19147TIP3   OH278931   4.717   6.268   5.378 -0.0390 -0.1256  0.3715
19147TIP3    H178932   4.811   6.271   5.394 -0.1547  0.6235  0.9385
19147TIP3    H278933   4.678   6.261   5.465 -0.5791  1.5580  0.2903
19148TIP3   OH278934   1.842   2.526   3.737 -0.2911  0.2484  0.0457
19148TIP3    H178935   1.829   2.518   3.831 -2.1156 -0.6424 -0.2313
19148TIP3    H278936   1.790   2.603   3.712 -1.1080 -0.4371 -0.4271
19149TIP3   OH278937   2.852   3.357   1.907 -0.0886  0.1009 -0.5276
19149TIP3    H178938   2.942   3.340   1.879  0.1196 -0.6051  0.5197
19149TIP3    H278939   2.804   3.277   1.886 -0.3518  0.2656 -0.5668
19150TIP3   OH278940   2.138   4.343   1.541 -0.2192  0.0171 -0.4031
19150TIP3    H178941   2.099   4.360   1.456  2.2570  2.3554 -1.2274
19150TIP3    H278942   2.079   4.386   1.604 -1.8255 -1.3463 -0.9233
19151TIP3   OH278943   4.727   3.501   3.803  0.0864  0.2760  0.0292
19151TIP3    H178944   4.765   3.551   3.731  0.2054 -0.9779 -0.8150
19151TIP3    H278945   4.797   3.441   3.830 -1.3810 -2.6599 -2.1014
19152TIP3   OH278946   0.623   3.299  14.909 -0.0378  0.2758 -0.2389
19152TIP3    H178947   0.713   3.267  14.907  0.6758  2.1747 -1.2262
19152TIP3    H278948   0.626   3.382  14.860 -1.8672  1.5265  1.6031
19153TIP3   OH278949   1.809   4.919  17.219  0.4832 -0.5071 -0.0895
19153TIP3    H178950   1.820   4.967  17.301  1.4287  1.1299 -1.1076
19153TIP3    H278951   1.716   4.898  17.215  0.1128  0.8853  0.6227
19154TIP3   OH278952   4.261   5.514   1.815 -0.3629  0.5281 -0.1487
19154TIP3    H178953   4.280   5.478   1.729  0.8112  1.0489 -0.1330
19154TIP3    H278954   4.312   5.595   1.818 -1.6389  1.3296  0.4365
19155TIP3   OH278955   5.074   2.699  16.336 -0.2283  0.1562 -0.4886
19155TIP3    H178956   5.087   2.607  16.360  0.5116  0.4397  0.2429
19155TIP3    H278957   5.160   2.729  16.307 -0.5867  0.4756 -1.2531
19156TIP3   OH278958   3.565   6.400   5.041  0.8464 -0.2282 -0.2942
19156TIP3    H178959   3.660   6.395   5.042  0.9151  0.6357 -1.4909
19156TIP3    H278960   3.545   6.494   5.039 -0.0620 -0.3515  0.9867
19157TIP3   OH278961   0.548   6.446   6.014 -0.4153 -0.0132  0.1951
19157TIP3    H178962   0.576   6.379   5.952  1.6702 -0.7477  1.8029
19157TIP3    H278963   0.520   6.397   6.092  1.2410  0.8940  1.4355
19158TIP3   OH278964   3.555   6.343   4.677  0.0440  0.0525 -0.5317
19158TIP3    H178965   3.492   6.271   4.667 -1.1793  1.2093 -1.5212
19158TIP3    H278966   3.509   6.420   4.643  1.6863  1.1139 -0.4560
19159TIP3   OH278967   0.242   5.507   3.042 -0.2323 -0.3981 -0.2576
19159TIP3    H178968   0.261   5.570   2.973  1.7355  0.9207  1.3909
19159TIP3    H278969   0.208   5.559   3.114  0.0369 -1.4163  0.6327
19160TIP3   OH278970   4.612   6.257  14.267 -0.2541 -0.1641  0.3607
19160TIP3    H178971   4.704   6.284  14.265  0.8984 -3.6761  0.0651
19160TIP3    H278972   4.565   6.332  14.232  2.3190  2.2066  1.5155
19161TIP3   OH278973   0.548   3.461   2.408  0.2267 -0.4710  0.2799
19161TIP3    H178974   0.473   3.519   2.400  0.5772 -0.1308 -0.6778
19161TIP3    H278975   0.522   3.381   2.363  0.3405 -0.4418  0.1592
19162TIP3   OH278976   1.303   3.495   4.717  0.0128  0.2298 -0.2169
19162TIP3    H178977   1.235   3.534   4.772 -1.6707  0.4806 -2.3607
19162TIP3    H278978   1.319   3.561   4.649  1.6245 -0.3076 -0.4071
19163TIP3   OH278979   5.065   5.392  12.750  0.1425 -0.4001  0.4111
19163TIP3    H178980   5.127   5.455  12.713 -0.8647 -0.5153 -1.6090
19163TIP3    H278981   4.988   5.398  12.693 -1.8252 -0.1455  2.9053
19164TIP3   OH278982   6.427   1.286   4.758  0.8216  0.6963 -0.5381
19164TIP3    H178983   6.414   1.254   4.669 -1.3929 -2.6352  0.8124
19164TIP3    H278984   6.497   1.230   4.794  0.2393  0.5732  0.4347
19165TIP3   OH278985   1.484   5.652   4.197  0.1447 -0.4901 -0.1262
19165TIP3    H178986   1.512   5.673   4.108 -0.6814  1.1219 -0.0366
19165TIP3    H278987   1.519   5.722   4.251 -0.7027 -0.5877  0.5681
19166TIP3   OH278988   4.453   6.297  17.128  0.7643 -0.0524 -1.0050
19166TIP3    H178989   4.475   6.375  17.179 -0.8909  0.2319 -0.6538
19166TIP3    H278990   4.534   6.274  17.082  1.4905  1.4051 -0.5150
19167TIP3   OH278991   5.616   5.567  11.036 -0.1672 -0.3540  0.1965
19167TIP3    H178992   5.644   5.489  10.988 -0.6096 -0.2839 -0.1749
19167TIP3    H278993   5.582   5.626  10.970 -0.7387 -0.2369  0.5873
19168TIP3   OH278994   3.762   2.078   4.406 -0.0496 -0.4159  0.7049
19168TIP3    H178995   3.737   2.097   4.496  0.9870  0.2143  0.8922
19168TIP3    H278996   3.831   2.142   4.387  0.9648 -1.6566  0.0498
19169TIP3   OH278997   0.320   4.212  11.035  0.6132 -0.7619  0.1172
19169TIP3    H178998   0.331   4.254  10.950  0.7559  0.6048  0.7795
19169TIP3    H278999   0.247   4.260  11.076  0.4944 -1.4503  0.7355
19170TIP3   OH279000   5.516   1.795  16.310  0.2705  0.5002 -0.6604
19170TIP3    H179001   5.443   1.746  16.273 -0.2588 -0.5065  1.5281
19170TIP3    H279002   5.474   1.870  16.353  0.3484 -0.4494  1.2090
19171TIP3   OH279003   2.781   5.368   6.019  0.1987 -0.1604 -0.6737
19171TIP3    H179004   2.716   5.345   6.086  1.3389  1.2328  1.0144
19171TIP3    H279005   2.731   5.374   5.938 -1.7606  0.6089  0.4979
19172TIP3   OH279006   5.234   0.610   3.249 -0.6740 -0.2311 -0.2531
19172TIP3    H179007   5.201   0.528   3.213  0.5769 -0.3776 -1.1423
19172TIP3    H279008   5.305   0.635   3.190  0.3778  0.3743  1.2086
19173TIP3   OH279009   1.835   1.237  10.997 -0.1722 -0.2860 -0.4457
19173TIP3    H179010   1.823   1.209  10.906 -1.1918  2.5921 -1.3110
19173TIP3    H279011   1.760   1.293  11.015  0.0071 -0.7671  2.2310
19174TIP3   OH279012   2.636   3.030   1.121 -0.2513 -0.1611  0.5400
19174TIP3    H179013   2.714   3.004   1.170  0.3509  1.5094  0.5185
19174TIP3    H279014   2.599   3.102   1.171 -0.1219  0.9911 -0.9357
19175TIP3   OH279015   2.806   4.069  12.126  0.1301 -0.0060  0.1698
19175TIP3    H179016   2.781   4.079  12.034 -0.6068  1.5649  0.5098
19175TIP3    H279017   2.729   4.032  12.168  0.0762  0.3042  0.3471
19176TIP3   OH279018   0.577   1.204   0.884 -0.3400 -0.5126  0.1555
19176TIP3    H179019   0.656   1.153   0.900  0.3193  0.5355  0.3914
19176TIP3    H279020   0.598   1.257   0.807 -1.0441 -0.6816 -0.1563
19177TIP3   OH279021   5.300   5.139   2.385  0.3401 -0.0560 -0.2584
19177TIP3    H179022   5.249   5.179   2.314 -0.4236 -2.0810 -0.9191
19177TIP3    H279023   5.282   5.195   2.461  1.5089  2.4087 -1.6699
19178TIP3   OH279024   4.862   3.434  14.798  0.3139  0.0484  0.2857
19178TIP3    H179025   4.788   3.483  14.834  0.2831  1.2196 -1.2622
19178TIP3    H279026   4.911   3.406  14.875 -0.1972  1.7245  1.2866
19179TIP3   OH279027   5.235   2.404  12.845 -0.4422 -0.3953  0.1341
19179TIP3    H179028   5.299   2.335  12.868  1.0603  1.2269  1.1199
19179TIP3    H279029   5.273   2.484  12.882 -2.4426  0.8698 -0.4274
19180TIP3   OH279030   3.759   2.354  13.303  0.2574  0.1590 -0.2431
19180TIP3    H179031   3.818   2.342  13.229  1.9596 -0.2681  1.1168
19180TIP3    H279032   3.793   2.431  13.349 -0.1965 -0.1258  0.6076
19181TIP3   OH279033   3.975   1.491   2.819  0.3485  0.0211 -0.0400
19181TIP3    H179034   4.014   1.415   2.862  0.1603  1.0995  2.1793
19181TIP3    H279035   4.033   1.508   2.745  1.6267 -0.9967  0.6643
19182TIP3   OH279036   3.613   3.482  15.292 -0.2180  0.0118  0.4023
19182TIP3    H179037   3.703   3.450  15.300 -0.6756 -0.9793  2.3303
19182TIP3    H279038   3.599   3.494  15.198  0.8255 -3.1153 -0.2847
19183TIP3   OH279039   1.808   4.931  15.129  0.0628  0.5420  0.0105
19183TIP3    H179040   1.733   4.919  15.071  0.0838 -1.0152  0.2437
19183TIP3    H279041   1.849   5.012  15.100  0.0717 -0.1648 -2.1628
19184TIP3   OH279042   4.823   3.969   6.051  0.1424  0.2440 -0.3955
19184TIP3    H179043   4.842   4.061   6.034  0.4085  0.4285  0.8070
19184TIP3    H279044   4.728   3.966   6.064 -0.0341  0.1345 -1.6388
19185TIP3   OH279045   1.482   3.161   5.389 -0.2602  0.0841  0.6577
19185TIP3    H179046   1.401   3.205   5.362  0.9354  0.9569 -1.7571
19185TIP3    H279047   1.456   3.110   5.466 -2.8779  1.0606  0.5371
19186TIP3   OH279048   6.602   3.216  16.283 -0.8966 -0.3741  0.0265
19186TIP3    H179049   6.640   3.134  16.314  0.1898  0.2938  0.5437
19186TIP3    H279050   6.588   3.268  16.362 -1.5519 -0.0484 -0.2975
19187TIP3   OH279051   2.900   3.468  15.347 -0.2135 -0.2858 -0.2085
19187TIP3    H179052   2.934   3.513  15.424  0.2128 -1.2170  0.1675
19187TIP3    H279053   2.918   3.375  15.363 -0.9282 -0.5865 -1.0251
19188TIP3   OH279054   2.466   6.116  15.917 -0.1474  0.2286 -0.0116
19188TIP3    H179055   2.476   6.209  15.896  0.7894 -0.3343 -2.4939
19188TIP3    H279056   2.372   6.103  15.930 -0.5092  1.2362 -1.4098
19189TIP3   OH279057   1.035   1.233   4.153  0.1156 -0.2173 -0.2437
19189TIP3    H179058   1.082   1.297   4.206  0.2724 -0.6421  0.1398
19189TIP3    H279059   1.050   1.149   4.198 -0.3143 -0.4793 -0.5809
19190TIP3   OH279060   0.706   0.808  12.185 -0.4922 -0.3184  0.1424
19190TIP3    H179061   0.664   0.866  12.122 -1.6721  0.0720  1.2263
19190TIP3    H279062   0.636   0.784  12.246  0.2107 -2.0663  0.3267
19191TIP3   OH279063   4.074   4.424   3.549 -0.2590 -0.2497 -0.5195
19191TIP3    H179064   4.048   4.399   3.637  2.3444  1.1105  0.7383
19191TIP3    H279065   4.087   4.341   3.503  2.0000 -1.1672  1.5715
19192TIP3   OH279066   6.675   3.902  13.912  0.1593 -0.1549  0.1854
19192TIP3    H179067   6.584   3.885  13.888  0.1519 -0.1074  0.1795
19192TIP3    H279068   6.690   3.846  13.989 -0.3207  0.9116  1.0946
19193TIP3   OH279069   5.320   0.219  13.772  0.1209 -0.3470  0.0600
19193TIP3    H179070   5.229   0.196  13.752  0.3887  0.4075 -2.3669
19193TIP3    H279071   5.371   0.169  13.709  1.3111  0.1502  0.6063
19194TIP3   OH279072   4.915   6.680   3.713  0.2940  0.1249 -0.2552
19194TIP3    H179073   4.912   6.728   3.795  0.9905 -0.9619  0.4303
19194TIP3    H279074   4.869   6.736   3.651 -0.6105  0.7721  0.9613
19195TIP3   OH279075   4.479   0.986   3.051  0.1654  0.2018 -0.5579
19195TIP3    H179076   4.553   0.928   3.037  0.5647  0.5584  0.0369
19195TIP3    H279077   4.518   1.072   3.064 -0.3583  0.4108 -0.3435
19196TIP3   OH279078   4.368   5.114  14.721  0.0050 -0.6209 -0.1500
19196TIP3    H179079   4.355   5.021  14.705 -1.2880 -0.2265 -1.6659
19196TIP3    H279080   4.280   5.151  14.717  0.4853  0.6672  0.5406
19197TIP3   OH279081   5.890   3.321  12.478 -0.0405 -0.4190 -0.4615
19197TIP3    H179082   5.854   3.298  12.564 -0.3016  0.5947 -0.2882
19197TIP3    H279083   5.973   3.274  12.474 -0.9439 -2.0761 -0.4948
19198TIP3   OH279084   4.116   2.892   5.438 -0.0295  0.3616  0.1233
19198TIP3    H179085   4.144   2.940   5.516 -0.4068  3.9255 -1.7152
19198TIP3    H279086   4.035   2.848   5.464  0.1624  0.9750  1.8842
19199TIP3   OH279087   3.598   0.507   4.628  0.1994  0.1317  0.9656
19199TIP3    H179088   3.692   0.516   4.643  0.3685  1.4415 -0.6054
19199TIP3    H279089   3.559   0.583   4.670 -0.0715  0.0078  0.9417
19200TIP3   OH279090   4.817   0.579  14.628 -0.0275 -0.1537  0.5643
19200TIP3    H179091   4.836   0.659  14.678  0.0883  1.0670 -1.3268
19200TIP3    H279092   4.877   0.583  14.553 -0.2973 -1.8404  0.2235
19201TIP3   OH279093   2.346   1.546   6.395  0.3877  0.2215  0.5507
19201TIP3    H179094   2.388   1.632   6.399  2.4742 -0.6579 -0.7145
19201TIP3    H279095   2.268   1.560   6.341  1.8774  0.9582 -1.5339
19202TIP3   OH279096   4.963   6.451   3.522  0.0069  0.3938  0.0746
19202TIP3    H179097   4.938   6.530   3.568 -0.4999 -0.5751  1.5501
19202TIP3    H279098   5.029   6.410   3.579  1.4088  0.4787 -1.3895
19203TIP3   OH279099   0.247   6.573  11.653  0.4074 -0.6191  0.0917
19203TIP3    H179100   0.182   6.614  11.595  0.8770 -0.4473 -0.3246
19203TIP3    H279101   0.249   6.481  11.626  0.3461 -0.6207  0.0927
19204TIP3   OH279102   1.381   0.781  11.614  0.2346  0.6694 -0.0271
19204TIP3    H179103   1.351   0.695  11.641  0.6723 -0.5976 -3.1748
19204TIP3    H279104   1.388   0.831  11.696  0.0114 -2.2426  1.9011
19205TIP3   OH279105   6.432   5.444   1.452  1.4334 -0.1495  0.2972
19205TIP3    H179106   6.439   5.485   1.366 -0.4046 -2.3486 -1.0253
19205TIP3    H279107   6.498   5.374   1.450 -0.5356 -2.0854 -0.5810
19206TIP3   OH279108   3.303   6.574   3.122 -0.2977 -0.4334  0.0535
19206TIP3    H179109   3.230   6.511   3.126 -1.6750  1.1680  2.1169
19206TIP3    H279110   3.262   6.656   3.095  1.1017  0.0846 -0.5699
19207TIP3   OH279111   3.542   4.933   0.580 -0.3367 -0.3422 -0.0923
19207TIP3    H179112   3.449   4.946   0.596 -0.2106  1.1745 -0.4349
19207TIP3    H279113   3.580   4.915   0.666 -0.9939 -1.3441 -0.0062
19208TIP3   OH279114   2.305   2.444   4.885 -0.0635 -0.4030  0.0800
19208TIP3    H179115   2.370   2.508   4.913  0.4159 -1.7930  2.4894
19208TIP3    H279116   2.354   2.362   4.880 -1.3463 -1.2352  0.6944
19209TIP3   OH279117   4.042   6.146   6.024  0.3912  0.5222 -0.0313
19209TIP3    H179118   3.960   6.160   6.072 -0.8456 -1.7845 -1.3239
19209TIP3    H279119   4.091   6.086   6.080  0.6519  0.8743  0.1240
19210TIP3   OH279120   0.410   0.723  16.974  0.0690  0.2992  0.8246
19210TIP3    H179121   0.475   0.658  17.001 -0.4622 -0.6249 -0.0831
19210TIP3    H279122   0.448   0.765  16.897  0.2497  0.8284  1.1942
19211TIP3   OH279123   1.365   6.733   3.636 -0.0330  0.2621 -0.0806
19211TIP3    H179124   1.325   6.717   3.722  0.1717  0.9916  0.1610
19211TIP3    H279125   1.367   6.828   3.628  1.9766  0.2741  0.0899
19212TIP3   OH279126   0.448   1.437   5.736 -0.2573 -0.1508  0.3693
19212TIP3    H179127   0.539   1.445   5.709 -0.3853  1.4916  0.3152
19212TIP3    H279128   0.451   1.393   5.821  0.7679  1.7292  1.3692
19213TIP3   OH279129   2.165   1.323   1.669 -0.4336 -0.1040  0.8887
19213TIP3    H179130   2.225   1.368   1.729 -0.8710  0.0213  1.2435
19213TIP3    H279131   2.121   1.393   1.621  2.4699 -0.1868 -2.2660
19214TIP3   OH279132   5.688   2.543  10.894 -0.0214 -0.1669  0.0615
19214TIP3    H179133   5.651   2.455  10.904 -2.9757  1.0584  1.1691
19214TIP3    H279134   5.612   2.598  10.872  1.3640  2.4266  1.3421
19215TIP3   OH279135   3.713   1.448  12.561  0.6531  0.0561  0.0441
19215TIP3    H179136   3.792   1.494  12.533  0.0840  0.6692 -0.6123
19215TIP3    H279137   3.733   1.356  12.547  1.0133  0.2474 -0.7848
19216TIP3   OH279138   6.361   0.652   6.070  0.5119  0.3450 -0.3889
19216TIP3    H179139   6.350   0.707   6.148 -0.9233 -1.4991  0.8100
19216TIP3    H279140   6.373   0.714   5.998  1.4205  2.1241  1.2130
19217TIP3   OH279141   1.712   5.802  17.000 -0.0036  0.5442  0.2813
19217TIP3    H179142   1.788   5.778  16.947 -1.7129 -0.4322 -1.8954
19217TIP3    H279143   1.683   5.886  16.964  0.3037  1.1759  1.4473
19218TIP3   OH279144   0.727   0.424  11.998 -0.3706  0.1798  0.1633
19218TIP3    H179145   0.744   0.460  12.085  1.7885 -0.8418  0.2198
19218TIP3    H279146   0.777   0.343  11.996 -1.5839 -0.5712 -1.5224
19219TIP3   OH279147   6.058   2.413   2.841 -0.4743 -0.5495  0.0650
19219TIP3    H179148   6.134   2.448   2.886 -0.3223 -0.7681 -0.0213
19219TIP3    H279149   6.094   2.363   2.767 -0.6644 -1.2649  0.4504
19220TIP3   OH279150   4.349   0.803  16.142 -0.0201  0.1916 -0.6337
19220TIP3    H179151   4.294   0.751  16.200  1.5841 -0.4283  0.3880
19220TIP3    H279152   4.290   0.829  16.071 -1.7392 -0.0175  0.6483
19221TIP3   OH279153   1.267   1.691  14.600 -0.4614  0.4296 -0.3985
19221TIP3    H179154   1.253   1.629  14.528  0.6352  0.4767 -0.6757
19221TIP3    H279155   1.326   1.645  14.659 -0.9349  0.5983  0.2097
19222TIP3   OH279156   5.861   3.312  11.900  0.1498 -0.3541  0.5253
19222TIP3    H179157   5.843   3.220  11.879 -0.0453 -0.1621 -0.1610
19222TIP3    H279158   5.873   3.354  11.815 -1.9943  0.7316  0.6905
19223TIP3   OH279159   1.998   5.291  16.277  0.0321 -0.5015  0.2156
19223TIP3    H179160   2.043   5.301  16.361 -0.2891 -0.8782  0.4390
19223TIP3    H279161   1.928   5.356  16.279  1.9413  1.7550 -1.1160
19224TIP3   OH279162   3.153   2.286  14.498 -0.6853 -0.5616  0.4673
19224TIP3    H179163   3.160   2.367  14.548 -0.9894 -0.9487  1.1529
19224TIP3    H279164   3.062   2.285  14.467 -0.2559  0.1176 -0.8766
19225TIP3   OH279165   1.103   4.171  14.393 -0.7394  0.4952 -0.4509
19225TIP3    H179166   1.168   4.165  14.323  0.2321  1.3786  0.3442
19225TIP3    H279167   1.148   4.215  14.465 -1.6919 -0.4148  0.7633
19226TIP3   OH279168   2.073   6.030  11.566  0.1303  0.2814  0.1649
19226TIP3    H179169   2.030   5.955  11.608 -0.5188  0.8052  0.4481
19226TIP3    H279170   2.003   6.094  11.555  0.3668  0.3189 -1.3538
19227TIP3   OH279171   4.891   4.639   2.070  0.4319  0.3891  0.4368
19227TIP3    H179172   4.946   4.573   2.112  0.3953  0.2356  0.2490
19227TIP3    H279173   4.905   4.625   1.976 -0.0549  0.2316  0.3818
19228TIP3   OH279174   0.546   0.614   4.467  0.7035 -0.5010 -0.3614
19228TIP3    H179175   0.518   0.631   4.377 -0.7569 -1.6124 -0.1556
19228TIP3    H279176   0.561   0.700   4.505 -1.6303  0.1614 -0.7823
19229TIP3   OH279177   1.177   3.788   1.061  0.0993  0.3896 -0.5963
19229TIP3    H179178   1.194   3.751   1.148  1.1697  2.1508 -0.0069
19229TIP3    H279179   1.141   3.715   1.011  0.9851 -1.1126  0.8499
19230TIP3   OH279180   5.632   3.785   3.010  0.1632  0.7873 -0.6848
19230TIP3    H179181   5.658   3.783   2.918  2.2267 -0.2280 -0.1411
19230TIP3    H279182   5.713   3.807   3.057 -0.0240 -1.9645  1.1165
19231TIP3   OH279183   0.134   3.333   4.739 -0.4332  0.3754 -0.9683
19231TIP3    H179184   0.125   3.239   4.756 -0.9493  0.6456  0.4648
19231TIP3    H279185   0.228   3.346   4.726  0.1757  0.0965  2.1874
19232TIP3   OH279186   3.513   1.743   2.847  0.4901 -0.5456 -0.6187
19232TIP3    H179187   3.492   1.833   2.821  2.0418  0.0613  0.1264
19232TIP3    H279188   3.603   1.729   2.817  0.5802 -1.5476  0.0577
19233TIP3   OH279189   1.176   3.693  16.241  0.5217  0.6860  0.0005
19233TIP3    H179190   1.083   3.698  16.220  0.3671 -0.9570  0.1910
19233TIP3    H279191   1.181   3.631  16.313  1.9560 -1.0383 -1.4864
19234TIP3   OH279192   5.671   0.623   6.579  0.3893 -0.0386 -0.2220
19234TIP3    H179193   5.755   0.646   6.539  0.4488 -0.4047 -0.3070
19234TIP3    H279194   5.674   0.665   6.666  0.0284  1.2264 -0.7888
19235TIP3   OH279195   5.123   0.848  12.464  0.2372 -0.2927 -0.1354
19235TIP3    H179196   5.078   0.832  12.547 -0.8530  0.8200 -0.4816
19235TIP3    H279197   5.141   0.942  12.464  1.2600 -0.4697 -0.6640
19236TIP3   OH279198   3.056   6.661  15.294 -0.2303  0.3143 -0.0834
19236TIP3    H179199   2.970   6.623  15.311  0.7594 -1.6223  1.0023
19236TIP3    H279200   3.070   6.722  15.367 -0.2456 -0.1871  0.3452
19237TIP3   OH279201   2.198   4.420   5.619 -0.5452 -0.5271 -0.2444
19237TIP3    H179202   2.111   4.460   5.613 -0.6132 -0.8782 -2.1070
19237TIP3    H279203   2.205   4.364   5.541  0.6497 -1.9532  0.8182
19238TIP3   OH279204   1.005   1.894   6.309 -0.1202  0.1888 -0.5702
19238TIP3    H179205   1.011   1.987   6.328 -0.3151 -0.0324  0.6190
19238TIP3    H279206   0.911   1.875   6.309 -0.2163  0.3289 -2.6659
19239TIP3   OH279207   5.752   0.158  14.172  0.7518 -0.1160  0.5924
19239TIP3    H179208   5.836   0.113  14.159  0.3408 -1.2338  1.7136
19239TIP3    H279209   5.759   0.197  14.259 -0.1587 -0.8295  0.9953
19240TIP3   OH279210   4.855   4.773   6.009 -0.8408 -0.9692 -0.0745
19240TIP3    H179211   4.888   4.781   6.098  1.2309 -0.8173 -0.7908
19240TIP3    H279212   4.761   4.758   6.019 -0.4808 -2.1483  2.1487
19241TIP3   OH279213   0.735   1.215  12.766  0.3512 -0.0389  0.2436
19241TIP3    H179214   0.736   1.310  12.760  0.6884 -0.0379  0.3058
19241TIP3    H279215   0.775   1.196  12.851  0.6130 -0.2503  0.0725
19242TIP3   OH279216   0.903   3.647   3.351  0.3288 -0.3433 -0.3047
19242TIP3    H179217   0.899   3.650   3.446  0.9133 -1.0978 -0.2466
19242TIP3    H279218   0.900   3.554   3.329 -1.4942 -0.1500 -1.1265
19243TIP3   OH279219   2.216   3.695   4.105 -0.1580  0.4795  0.2248
19243TIP3    H179220   2.225   3.602   4.124  1.7016  0.4860 -0.4645
19243TIP3    H279221   2.146   3.700   4.040  0.7433 -0.6018 -0.8499
19244TIP3   OH279222   5.451   6.790  14.432 -0.0052  0.0247  0.2615
19244TIP3    H179223   5.362   6.755  14.429 -0.9637  2.2631  0.2234
19244TIP3    H279224   5.492   6.745  14.506 -0.2571 -2.8901 -1.2264
19245TIP3   OH279225   0.056   5.020  14.224 -0.3513 -0.2192 -0.4347
19245TIP3    H179226   0.121   4.951  14.236  0.5317  0.6539 -0.1287
19245TIP3    H279227   0.073   5.054  14.136 -0.1602  0.2469 -0.2193
19246TIP3   OH279228   6.793   6.073   4.046  0.1866  0.3007  0.2029
19246TIP3    H179229   6.734   6.043   3.977  0.0873 -1.1225  0.8744
19246TIP3    H279230   6.775   6.166   4.054 -2.8861 -0.2768  1.1893
19247TIP3   OH279231   4.975   4.240   4.951 -0.1346  0.2276  0.1524
19247TIP3    H179232   4.903   4.176   4.942  0.0591  0.3007 -3.4720
19247TIP3    H279233   4.939   4.321   4.916  0.7251  1.2196  1.4780
19248TIP3   OH279234   4.462   3.436   4.727  0.0437  0.0622 -0.0878
19248TIP3    H179235   4.384   3.464   4.678 -0.8008 -0.8101  0.7271
19248TIP3    H279236   4.479   3.508   4.788 -1.3396 -0.5751  1.1005
19249TIP3   OH279237   3.620   5.993   0.065  0.2389  0.1246 -0.0945
19249TIP3    H179238   3.713   5.973   0.061 -0.2275 -2.1923 -1.2940
19249TIP3    H279239   3.613   6.085   0.039  2.3949  1.4135  3.2229
19250TIP3   OH279240   1.034   3.197  15.125 -0.1070  0.1968  0.5827
19250TIP3    H179241   1.021   3.287  15.156 -0.7722  0.0438  0.7651
19250TIP3    H279242   0.962   3.182  15.064 -0.2273 -0.3340  0.8446
19251TIP3   OH279243   0.938   6.782   3.240  0.0648  0.0059 -0.0128
19251TIP3    H179244   1.009   6.845   3.228  0.3003 -0.0554  0.9939
19251TIP3    H279245   0.859   6.835   3.250  0.3399  0.1885  1.3861
19252TIP3   OH279246   4.563   3.872  17.130 -0.9079  0.3702  0.6680
19252TIP3    H179247   4.573   3.926  17.051 -0.2998  0.0697  0.5386
19252TIP3    H279248   4.651   3.841  17.149 -1.4829 -2.0099 -0.2505
19253TIP3   OH279249   4.642   6.426   3.695 -0.2909 -0.1940  0.3218
19253TIP3    H179250   4.562   6.475   3.711  0.6470  1.3275  0.5671
19253TIP3    H279251   4.706   6.493   3.670  1.3986 -1.1164  1.9824
19254TIP3   OH279252   0.691   3.767  17.194  0.9062  0.3060 -0.4150
19254TIP3    H179253   0.614   3.804  17.237  1.3936 -2.0308  2.8271
19254TIP3    H279254   0.657   3.726  17.115 -0.8125  1.0614 -0.1036
19255TIP3   OH279255   3.519   3.420   4.744 -0.5981  0.1834  0.1158
19255TIP3    H179256   3.442   3.470   4.714 -0.8708 -0.0120  0.4860
19255TIP3    H279257   3.506   3.410   4.838 -0.2568 -0.0930  0.1345
19256TIP3   OH279258   2.643   0.989  14.201 -0.2637  0.2931 -0.0806
19256TIP3    H179259   2.710   0.954  14.259  0.1034  2.6076  1.0065
19256TIP3    H279260   2.594   0.912  14.172  1.3076 -1.2129  1.0462
19257TIP3   OH279261   6.684   0.020  15.466  0.5103 -0.1466  0.4739
19257TIP3    H179262   6.726   0.097  15.427 -0.2162  0.7954  1.4817
19257TIP3    H279263   6.734  -0.054  15.433  4.6082  0.9566  3.4848
19258TIP3   OH279264   5.298   4.104  16.556  0.3724  0.3257  0.5001
19258TIP3    H179265   5.365   4.172  16.565  0.4266  0.0778  2.2756
19258TIP3    H279266   5.216   4.153  16.551  0.6050  0.6103 -1.2198
19259TIP3   OH279267   4.137   2.469  15.444 -0.3211  0.0230  0.2329
19259TIP3    H179268   4.168   2.388  15.404 -0.0069 -1.0429  2.4392
19259TIP3    H279269   4.044   2.471  15.425  0.2325  1.0802 -2.8904
19260TIP3   OH279270   3.237   1.865  15.076 -0.1361 -0.0019  0.6672
19260TIP3    H179271   3.218   1.841  15.167 -1.1790  1.2897  0.8089
19260TIP3    H279272   3.311   1.926  15.082  0.4111 -0.6363  0.5542
19261TIP3   OH279273   2.305   6.281  11.534  0.1918  0.4357 -0.0042
19261TIP3    H179274   2.247   6.312  11.465 -0.2870 -0.5499 -0.0513
19261TIP3    H279275   2.333   6.361  11.579 -0.1620  1.0165 -0.7945
19262TIP3   OH279276   0.964   4.990   1.007  0.5511  1.3822 -0.5021
19262TIP3    H179277   0.955   4.975   1.101 -0.6220 -1.3366 -0.9331
19262TIP3    H279278   1.058   5.004   0.993  1.0411 -0.1509  0.8913
19263TIP3   OH279279   2.107   5.876  14.774 -0.0554 -0.5114 -0.0411
19263TIP3    H179280   2.187   5.907  14.733 -0.5436 -1.0513 -1.4832
19263TIP3    H279281   2.129   5.789  14.808 -0.2963 -1.1406 -1.4298
19264TIP3   OH279282   6.537   4.204  16.799 -0.0699  0.0683  0.3206
19264TIP3    H179283   6.549   4.232  16.890 -0.7177  0.3666  0.3203
19264TIP3    H279284   6.610   4.144  16.782  0.6191  0.7687  0.7284
19265TIP3   OH279285   2.584   0.799  11.921 -0.2547  0.4373 -0.2133
19265TIP3    H179286   2.647   0.836  11.982 -2.2064  0.6183  1.8267
19265TIP3    H279287   2.635   0.740  11.865  1.8316  1.3148  0.6906
19266TIP3   OH279288   4.727   0.287   1.127 -0.3907  0.0245 -0.3107
19266TIP3    H179289   4.821   0.292   1.144 -0.0105 -0.6281 -2.0513
19266TIP3    H279290   4.718   0.298   1.033 -2.0472 -0.1641 -0.2143
19267TIP3   OH279291   0.804   3.524   5.505  0.4096 -0.0827  0.3884
19267TIP3    H179292   0.834   3.592   5.565 -2.6014  0.1818  1.8046
19267TIP3    H279293   0.777   3.452   5.562 -0.5160 -0.6904 -0.7731
19268TIP3   OH279294   3.826   2.762   5.283  0.0311 -0.0841 -0.2946
19268TIP3    H179295   3.878   2.807   5.217  0.1245 -0.2569 -0.3389
19268TIP3    H279296   3.735   2.786   5.262  0.1556  1.2255  0.5400
19269TIP3   OH279297   2.613   2.360   1.033 -0.1872 -0.4829 -0.5766
19269TIP3    H179298   2.549   2.378   1.102 -0.6823 -0.3289 -1.0727
19269TIP3    H279299   2.696   2.353   1.079 -0.4264  0.1937 -0.0304
19270TIP3   OH279300   5.215   3.424   5.487 -0.3406 -0.5241 -0.2835
19270TIP3    H179301   5.227   3.491   5.555 -1.0685 -0.5725 -0.0967
19270TIP3    H279302   5.131   3.383   5.508 -0.6909 -0.3867 -1.3448
19271TIP3   OH279303   2.995   4.549  15.043 -0.3344 -0.8233 -0.2552
19271TIP3    H179304   2.904   4.547  15.014 -0.2486  0.9339 -0.7762
19271TIP3    H279305   3.012   4.461  15.076 -2.8835 -0.5953  1.9634
19272TIP3   OH279306   2.609   4.494  17.176  0.1964  0.5455  0.0618
19272TIP3    H179307   2.700   4.522  17.183  0.5481 -0.8298  1.6420
19272TIP3    H279308   2.570   4.520  17.260 -0.0539 -1.5467  0.6316
19273TIP3   OH279309   2.923   5.817   5.414  0.1441 -0.4211  0.0932
19273TIP3    H179310   2.865   5.773   5.351 -0.4361 -1.7942  1.5303
19273TIP3    H279311   2.906   5.774   5.497  0.2504  1.9251  1.4299
19274TIP3   OH279312   0.647   2.110   4.501  0.4103 -0.7614  0.1537
19274TIP3    H179313   0.680   2.180   4.558  1.6959 -0.6782 -0.6495
19274TIP3    H279314   0.685   2.130   4.415  1.6240 -2.9871  0.1112
19275TIP3   OH279315   0.791   1.970   3.972 -0.1884  0.3613  0.6107
19275TIP3    H179316   0.794   2.032   3.899  0.6621  0.9517  1.1401
19275TIP3    H279317   0.862   1.909   3.954  0.0378  0.5235  0.9619
19276TIP3   OH279318   5.191   2.283   6.146 -0.0946 -0.0747  0.5933
19276TIP3    H179319   5.164   2.264   6.056 -0.6039 -0.4293  0.8157
19276TIP3    H279320   5.223   2.199   6.180 -1.5432 -0.3751  1.3015
19277TIP3   OH279321   5.439   5.676   0.418  0.2561 -0.4691  0.4194
19277TIP3    H179322   5.523   5.666   0.462  0.3281  0.3286  0.4820
19277TIP3    H279323   5.462   5.707   0.330  0.0239 -0.0550  0.5025
19278TIP3   OH279324   3.258   4.881   4.188  0.5733  0.7914  0.2704
19278TIP3    H179325   3.201   4.859   4.262 -0.5998  0.0989 -0.7996
19278TIP3    H279326   3.259   4.802   4.134 -0.6969  2.0666 -1.7576
19279TIP3   OH279327   1.845   6.472  13.666  0.6828  0.0247 -0.1752
19279TIP3    H179328   1.775   6.497  13.606 -2.8545 -2.9538  2.2983
19279TIP3    H279329   1.870   6.384  13.638  1.0031 -0.2739  1.0099
19280TIP3   OH279330   4.121   0.320  12.641  0.2259  0.0420 -0.1732
19280TIP3    H179331   4.090   0.409  12.655 -1.1967 -0.8021  2.8936
19280TIP3    H279332   4.146   0.318  12.549 -0.6065  3.2984 -0.6061
19281TIP3   OH279333   3.055   3.711   6.575 -0.5692  0.5026  0.1713
19281TIP3    H179334   2.998   3.674   6.508  1.0891 -1.6159 -0.1906
19281TIP3    H279335   3.140   3.722   6.531 -0.1027  1.4874  1.2539
19282TIP3   OH279336   1.481   5.158   3.254 -0.0349 -0.3379  0.2561
19282TIP3    H179337   1.474   5.063   3.242  0.5494 -0.9488  3.6171
19282TIP3    H279338   1.394   5.192   3.234 -0.1337 -1.4696 -1.4215
19283TIP3   OH279339   3.619   1.326   4.914 -0.1804 -0.4883 -0.0200
19283TIP3    H179340   3.710   1.320   4.940  0.3448  3.2295 -0.4303
19283TIP3    H279341   3.621   1.324   4.818 -0.6715 -1.3349 -0.0236
19284TIP3   OH279342   4.958   5.051   0.958 -0.4663  0.2905 -0.1915
19284TIP3    H179343   4.892   5.066   1.026 -0.0689 -0.4822  0.3867
19284TIP3    H279344   5.038   5.089   0.995 -0.5320  1.0494 -0.8064
19285TIP3   OH279345   3.913   3.081  16.558 -0.1390  0.2769  0.3288
19285TIP3    H179346   3.831   3.080  16.608 -0.2945 -1.5455  0.1010
19285TIP3    H279347   3.976   3.125  16.616 -1.0101  0.7446  0.9352
19286TIP3   OH279348   2.433   0.380  15.948  0.4203 -0.0583 -0.2526
19286TIP3    H179349   2.387   0.307  15.907  1.2284 -0.0637 -1.1734
19286TIP3    H279350   2.428   0.451  15.884  1.4779  0.0143 -0.2754
19287TIP3   OH279351   3.590   2.725   5.624 -0.4361 -0.2154  0.4239
19287TIP3    H179352   3.592   2.797   5.561 -0.1441 -0.8064 -0.2567
19287TIP3    H279353   3.607   2.647   5.571 -0.8582 -0.7951  1.1340
19288TIP3   OH279354   0.214   3.382   5.972  0.4820 -0.4374 -0.0246
19288TIP3    H179355   0.137   3.440   5.975 -1.0420 -2.2684 -1.2503
19288TIP3    H279356   0.233   3.365   6.064 -0.5032  0.1779  0.3193
19289TIP3   OH279357   0.128   0.231  14.495  0.1299 -0.5143 -0.5628
19289TIP3    H179358   0.095   0.255  14.581 -0.4389 -0.2315 -0.8552
19289TIP3    H279359   0.222   0.218  14.508 -0.0757 -1.2545  0.2563
19290TIP3   OH279360   0.482   3.982  13.348  0.1589  0.1157  0.5233
19290TIP3    H179361   0.463   4.039  13.273  0.7725 -0.3305  0.0102
19290TIP3    H279362   0.577   3.989  13.359  0.1662 -0.3735  0.8036
19291TIP3   OH279363   2.440   2.413   3.656 -0.8115 -0.2281 -0.5108
19291TIP3    H179364   2.375   2.370   3.711 -0.2649 -1.7320 -0.9833
19291TIP3    H279365   2.475   2.483   3.710  0.3512 -2.2003  1.4293
19292TIP3   OH279366   0.221   2.243   1.169 -0.2704  0.2896 -0.4461
19292TIP3    H179367   0.167   2.320   1.149 -0.6871  0.2073  0.3340
19292TIP3    H279368   0.248   2.210   1.083  0.5549  1.7528 -0.7882
19293TIP3   OH279369   3.264   0.343  16.146 -0.0859 -0.5089 -0.2964
19293TIP3    H179370   3.341   0.397  16.166 -0.0711 -0.4261 -0.5771
19293TIP3    H279371   3.200   0.405  16.109 -0.9577 -0.2362  1.5580
19294TIP3   OH279372   1.735   0.971   1.910  0.2300  0.6232 -0.3540
19294TIP3    H179373   1.819   0.928   1.924  0.1544  0.0053 -1.5685
19294TIP3    H279374   1.711   1.008   1.995 -1.3922 -4.7091  1.9431
19295TIP3   OH279375   2.350   2.754   4.038  0.1827 -0.5328  0.0277
19295TIP3    H179376   2.282   2.762   4.104  0.1532  0.1920 -0.0922
19295TIP3    H279377   2.432   2.752   4.087  0.0626 -2.2130  0.2352
19296TIP3   OH279378   5.975   0.727   2.631  0.0074 -0.8103 -0.5449
19296TIP3    H179379   6.048   0.666   2.639  0.5681  0.0031  0.7870
19296TIP3    H279380   5.899   0.679   2.664  0.5382 -0.6336  0.9684
19297TIP3   OH279381   5.063   0.356  16.215 -0.2084 -0.7472 -0.0167
19297TIP3    H179382   5.126   0.415  16.174  0.2736 -1.5785 -0.5063
19297TIP3    H279383   4.986   0.360  16.159 -1.9742  2.8205  2.3333
19298TIP3   OH279384   2.098   5.374  12.523  0.4866  0.0335  0.2472
19298TIP3    H179385   2.074   5.467  12.521 -0.0806 -0.1007  0.7533
19298TIP3    H279386   2.193   5.374  12.512  0.5349  0.6951  0.6145
19299TIP3   OH279387   3.079   5.907   3.415 -0.5810 -0.4986  0.2362
19299TIP3    H179388   3.079   5.902   3.511 -1.0689 -1.5204  0.1885
19299TIP3    H279389   2.986   5.913   3.392 -0.5522 -1.7037 -0.2342
19300TIP3   OH279390   2.225   5.233  11.907 -0.2600  0.3194 -0.3765
19300TIP3    H179391   2.185   5.168  11.964 -1.9407  2.1260  0.5830
19300TIP3    H279392   2.298   5.268  11.958 -1.5931  1.7360  0.6357
19301TIP3   OH279393   1.706   2.372  15.678  0.1206 -0.1084 -0.3934
19301TIP3    H179394   1.796   2.341  15.670  0.5913  1.1807 -0.2024
19301TIP3    H279395   1.676   2.382  15.587  0.5779  0.5907 -0.4760
19302TIP3   OH279396   1.091   1.883  16.955  0.0012 -0.1815  0.4137
19302TIP3    H179397   1.048   1.897  16.871  0.3805  0.2437  0.2927
19302TIP3    H279398   1.183   1.866  16.933  0.2849  0.8079  0.7920
19303TIP3   OH279399   3.237   3.627   3.646  0.1839 -0.5998  0.1358
19303TIP3    H179400   3.180   3.553   3.624  0.1375 -0.4224 -0.3501
19303TIP3    H279401   3.252   3.618   3.740  0.6516 -1.5580 -0.0221
19304TIP3   OH279402   2.959   3.077   2.906 -0.1884 -0.4699  0.7840
19304TIP3    H179403   2.963   3.112   2.818 -1.3378 -0.4566  0.7194
19304TIP3    H279404   3.039   3.025   2.915  0.6724  0.7261  0.2793
19305TIP3   OH279405   3.631   2.019   3.597  0.1308  0.1004 -0.6307
19305TIP3    H179406   3.558   2.046   3.653 -1.0098 -0.8724 -1.5953
19305TIP3    H279407   3.593   1.955   3.537  1.7459 -0.2809 -1.2994
19306TIP3   OH279408   5.715   3.160   4.429  0.5391  0.1655 -0.4504
19306TIP3    H179409   5.686   3.226   4.366  0.9360  1.7001  0.9018
19306TIP3    H279410   5.637   3.109   4.449 -0.5082  2.1231  0.6598
19307TIP3   OH279411   3.616   5.196  15.390  0.7090  0.0691  0.0853
19307TIP3    H179412   3.619   5.267  15.454 -0.5519  0.2074  0.0105
19307TIP3    H279413   3.674   5.226  15.320 -0.4614  1.4538 -0.3438
19308TIP3   OH279414   2.501   4.569   5.637  0.4992  0.4417  0.1462
19308TIP3    H179415   2.491   4.556   5.731  1.3012  0.8996  0.3047
19308TIP3    H279416   2.422   4.531   5.598  0.8957 -1.2006  0.8714
19309TIP3   OH279417   1.675   2.637   2.666 -0.2955 -0.3602  0.0362
19309TIP3    H179418   1.698   2.545   2.658 -2.4935 -0.8835 -0.9978
19309TIP3    H279419   1.689   2.673   2.578 -1.3480 -0.2057 -0.0796
19310TIP3   OH279420   4.525   4.158   3.329 -0.2029 -0.5214 -0.1569
19310TIP3    H179421   4.599   4.199   3.283 -0.9527 -0.3117 -1.2005
19310TIP3    H279422   4.455   4.154   3.264 -1.7959  1.1076  1.3458
19311TIP3   OH279423   4.788   2.908  11.533  0.7112 -0.2194  0.0602
19311TIP3    H179424   4.772   2.841  11.466  2.5338 -0.3706 -0.3030
19311TIP3    H279425   4.792   2.990  11.484 -2.9786  0.4710  0.6848
19312TIP3   OH279426   1.810   5.030   3.671 -0.2369 -0.0847 -0.4295
19312TIP3    H179427   1.718   5.031   3.698  0.1841  0.2931  1.0809
19312TIP3    H279428   1.815   5.094   3.600 -1.3292 -0.8788 -1.2513
19313TIP3   OH279429   5.050   1.131  11.928 -0.0557  0.3034 -0.5676
19313TIP3    H179430   5.014   1.155  11.843 -1.2735  1.5075  0.2470
19313TIP3    H279431   5.107   1.204  11.952 -1.8691  1.3328  0.8404
19314TIP3   OH279432   0.541   4.862  14.084 -0.2289  0.0414  0.0911
19314TIP3    H179433   0.506   4.938  14.037  0.3687 -0.0072 -0.4534
19314TIP3    H279434   0.635   4.867  14.070 -0.1101 -0.3744  0.7045
19315TIP3   OH279435   6.264   0.404  13.633 -0.4231  0.4372  0.1080
19315TIP3    H179436   6.306   0.358  13.561  1.9629  1.2024  0.8787
19315TIP3    H279437   6.236   0.335  13.693 -0.9329 -0.1333 -0.7648
19316TIP3   OH279438   3.140   5.508  15.052  0.1448 -0.5143  0.3267
19316TIP3    H179439   3.148   5.556  14.970 -0.9680 -1.7814 -0.5761
19316TIP3    H279440   3.202   5.436  15.045  0.4047 -0.3440  0.8197
19317TIP3   OH279441   0.155   1.133   1.165 -0.1301  0.0151  0.9409
19317TIP3    H179442   0.115   1.219   1.152 -1.2794 -0.6559 -0.1389
19317TIP3    H279443   0.153   1.092   1.078  1.3450 -0.7177  1.2200
19318TIP3   OH279444   3.032   3.997  11.135 -0.0452 -0.1611  0.1227
19318TIP3    H179445   3.101   4.034  11.190  0.3655 -2.9617  1.6829
19318TIP3    H279446   2.986   3.936  11.192 -2.6823  0.2359 -1.4053
19319TIP3   OH279447   2.724   0.477   5.800 -0.6728  0.1101 -0.0656
19319TIP3    H179448   2.807   0.469   5.753 -1.1551 -0.3137 -0.8699
19319TIP3    H279449   2.690   0.388   5.806 -1.9976  0.4665 -1.5158
19320TIP3   OH279450   0.225   5.515   4.795  0.2129 -0.0928 -0.3203
19320TIP3    H179451   0.285   5.459   4.844 -0.0218  0.9354  1.2320
19320TIP3    H279452   0.231   5.600   4.838  0.3149  1.0173 -2.4005
19321TIP3   OH279453   0.513   5.824  11.789  0.2196  0.0115  0.0212
19321TIP3    H179454   0.488   5.867  11.707  0.2521 -0.3501 -0.1820
19321TIP3    H279455   0.558   5.892  11.839  1.3534 -0.1027 -0.8017
19322TIP3   OH279456   0.796   4.738   4.878 -0.0206 -0.0710  0.1853
19322TIP3    H179457   0.838   4.823   4.867 -1.6553  0.7488 -0.1537
19322TIP3    H279458   0.715   4.745   4.826 -0.4750 -1.6208  0.6366
19323TIP3   OH279459   0.910   5.702  16.227  0.5505  0.2050 -0.1669
19323TIP3    H179460   0.964   5.623  16.238  0.8548  0.4456  0.0551
19323TIP3    H279461   0.956   5.770  16.276  1.4007  1.0440 -2.0379
19324TIP3   OH279462   3.877   5.345   1.377  0.1464 -0.0718 -0.1266
19324TIP3    H179463   3.958   5.294   1.377  0.0062 -0.3086 -1.0717
19324TIP3    H279464   3.812   5.288   1.416  0.2325 -0.2203 -0.2008
19325TIP3   OH279465   2.607   5.587  11.788  0.1111 -0.1915  0.0396
19325TIP3    H179466   2.667   5.617  11.857 -0.9754 -1.7533  1.7643
19325TIP3    H279467   2.561   5.513  11.828 -0.6586 -1.0864 -2.3599
19326TIP3   OH279468   3.039   2.689  15.922  0.0238 -0.2803  0.1003
19326TIP3    H179469   3.103   2.620  15.938 -0.9688 -1.2605 -0.0515
19326TIP3    H279470   2.955   2.650  15.947 -0.6140  0.7214 -0.4170
19327TIP3   OH279471   0.599   2.298  16.814 -0.2498  0.0604 -0.2056
19327TIP3    H179472   0.579   2.300  16.720 -0.9581 -1.0267 -0.0979
19327TIP3    H279473   0.665   2.229  16.823  1.7019  1.8030 -0.1878
19328TIP3   OH279474   3.127   4.035  16.653  0.2426 -0.2673  0.1264
19328TIP3    H179475   3.191   4.087  16.604  1.3507 -0.4722  1.2983
19328TIP3    H279476   3.144   3.945  16.625 -0.2300 -0.2275 -0.3069
19329TIP3   OH279477   5.441   1.723   0.974  0.0674 -0.0820 -0.2334
19329TIP3    H179478   5.525   1.733   1.018 -0.9950  0.1447  1.8295
19329TIP3    H279479   5.377   1.717   1.044 -1.8466  1.3437 -1.7446
19330TIP3   OH279480   3.905   4.674  14.155 -0.5393 -1.0637  0.0945
19330TIP3    H179481   3.957   4.715  14.224 -0.8107  1.6963 -1.1821
19330TIP3    H279482   3.970   4.634  14.097  0.0619  0.3749 -0.2838
19331TIP3   OH279483   0.584   3.846   4.631  0.4545  0.2978 -0.2069
19331TIP3    H179484   0.539   3.835   4.548  1.2440  0.6755 -0.6974
19331TIP3    H279485   0.649   3.915   4.614  1.3632 -0.3844  0.4132
19332TIP3   OH279486   5.302   0.658  11.381 -0.6905  0.6830 -0.0334
19332TIP3    H179487   5.302   0.562  11.385 -2.7438  0.6522  0.7813
19332TIP3    H279488   5.376   0.684  11.435 -0.8231 -0.4606  0.7398
19333TIP3   OH279489   2.350   4.093  16.231  0.7489 -0.0231 -0.2103
19333TIP3    H179490   2.355   3.999  16.212 -1.2096 -0.0869 -0.6347
19333TIP3    H279491   2.385   4.101  16.320  1.0442 -1.1355 -0.2097
19334TIP3   OH279492   5.714   1.766   2.879 -0.3342 -0.4687 -0.2283
19334TIP3    H179493   5.756   1.832   2.935 -0.7607  0.1647 -0.6390
19334TIP3    H279494   5.778   1.695   2.873  0.7507  0.5223 -0.9317
19335TIP3   OH279495   5.868   5.893   3.065 -0.6688 -0.0036  0.0863
19335TIP3    H179496   5.789   5.942   3.043 -1.8136 -0.9101  1.9729
19335TIP3    H279497   5.927   5.959   3.102 -1.4982  0.2942  0.9252
19336TIP3   OH279498   0.004   3.741   1.752  0.0017  0.3832  0.0366
19336TIP3    H179499   0.098   3.740   1.733  0.0757  0.3879  0.3903
19336TIP3    H279500  -0.017   3.834   1.763 -0.0370  0.3785  0.0040
19337TIP3   OH279501   1.247   2.450   1.263  0.7749 -0.2966  0.1391
19337TIP3    H179502   1.301   2.399   1.324 -0.3410 -0.6889  0.8180
19337TIP3    H279503   1.308   2.474   1.192  2.0136 -0.1176  1.2163
19338TIP3   OH279504   1.829   4.910   4.099 -0.0731 -0.3633 -0.1584
19338TIP3    H179505   1.819   4.942   4.188  0.4853  0.4331 -0.3666
19338TIP3    H279506   1.855   4.819   4.109 -0.3777 -0.3864  0.4805
19339TIP3   OH279507   0.113   5.611  11.370 -0.1475 -0.5696  0.4908
19339TIP3    H179508   0.095   5.698  11.335 -1.0411 -1.2984 -0.9560
19339TIP3    H279509   0.049   5.599  11.440 -0.2499 -0.2136  0.4599
19340TIP3   OH279510   0.437   6.270  11.088 -0.6071  0.0199  0.1025
19340TIP3    H179511   0.488   6.349  11.105 -2.2332  0.8773  1.2818
19340TIP3    H279512   0.501   6.199  11.084  0.6667  1.0584  1.4419
19341TIP3   OH279513   5.057   6.527   2.613  0.4276 -0.2870  0.4790
19341TIP3    H179514   4.992   6.588   2.577  1.7633  1.1242  0.3326
19341TIP3    H279515   5.052   6.450   2.556 -0.8257 -0.0606  0.2428
19342TIP3   OH279516   5.773   1.560   5.614 -0.0316 -0.5284  0.3001
19342TIP3    H179517   5.682   1.580   5.591  0.8443 -0.0192 -3.4100
19342TIP3    H279518   5.770   1.470   5.645 -1.6952 -0.8908 -0.7513
19343TIP3   OH279519   1.544   6.608  14.099  0.2651 -0.4620 -0.5525
19343TIP3    H179520   1.588   6.547  14.040 -0.5951 -0.5621 -1.0940
19343TIP3    H279521   1.514   6.554  14.172  1.7068 -0.2721  0.2274
19344TIP3   OH279522   1.109   6.050   5.257  1.0368 -0.1901 -0.0266
19344TIP3    H179523   1.037   6.064   5.195  0.8447  0.4361  0.3311
19344TIP3    H279524   1.153   5.971   5.225  0.2376 -0.5401 -0.2900
19345TIP3   OH279525   4.024   3.115  15.443  0.5918 -0.8637  0.4683
19345TIP3    H179526   3.939   3.078  15.467  0.6052 -0.6543  0.8605
19345TIP3    H279527   4.084   3.085  15.512  0.6775 -0.4139  0.5962
19346TIP3   OH279528   4.531   5.625   5.154  0.2641 -0.1149 -0.7059
19346TIP3    H179529   4.520   5.709   5.111  1.3574  0.1958 -0.4074
19346TIP3    H279530   4.484   5.563   5.098  1.2668  0.3436 -2.1058
19347TIP3   OH279531   0.334   6.402  10.636  0.2460  0.1565 -0.5042
19347TIP3    H179532   0.396   6.441  10.697  0.7249 -1.5529  0.1366
19347TIP3    H279533   0.249   6.415  10.677  0.4356  0.1804 -0.1128
19348TIP3   OH279534   0.569   1.786  14.286 -0.3197  0.5050  0.3204
19348TIP3    H179535   0.495   1.730  14.312  0.5962 -1.2266 -0.6466
19348TIP3    H279536   0.613   1.806  14.368 -0.7199 -0.1203  0.6976
19349TIP3   OH279537   2.331   5.392  10.702 -0.4697  0.8561 -0.2488
19349TIP3    H179538   2.311   5.365  10.792 -0.7696  0.0933 -0.5331
19349TIP3    H279539   2.386   5.321  10.668 -1.9235  0.1764 -1.2804
19350TIP3   OH279540   0.244   2.987   3.059 -0.2618 -0.3624  0.3026
19350TIP3    H179541   0.229   2.899   3.092 -0.2972 -0.5503 -0.2040
19350TIP3    H279542   0.226   2.981   2.965 -1.4875  0.4647  0.4656
19351TIP3   OH279543   2.209   0.442  10.857  0.4625 -0.9723 -0.3404
19351TIP3    H179544   2.120   0.424  10.885 -0.4024  1.5155 -1.2288
19351TIP3    H279545   2.261   0.439  10.938 -0.8438 -0.1846  0.5508
19352TIP3   OH279546   1.393   1.251  15.405 -0.3988 -0.4703  0.5604
19352TIP3    H179547   1.413   1.340  15.377 -0.5067 -0.6161  0.0074
19352TIP3    H279548   1.299   1.252  15.421 -0.2605 -0.2642  1.3819
19353TIP3   OH279549   6.667   5.907   0.879 -0.2964  0.1029  0.1241
19353TIP3    H179550   6.588   5.949   0.913 -0.1715  0.6870 -0.2957
19353TIP3    H279551   6.707   5.973   0.823  0.5331 -0.1614  0.3861
19354TIP3   OH279552   2.439   2.794   2.217 -0.0349  0.0204  0.1057
19354TIP3    H179553   2.518   2.744   2.194  0.3555  0.6344  0.0742
19354TIP3    H279554   2.441   2.869   2.157  0.0432  0.7080  0.9458
19355TIP3   OH279555   4.591   1.033  10.656 -0.0210 -0.2402 -0.1382
19355TIP3    H179556   4.678   1.068  10.676 -0.2357  0.0764  0.2366
19355TIP3    H279557   4.536   1.110  10.645 -0.2456 -0.4409 -0.4376
19356TIP3   OH279558   1.290   5.183   4.379  0.0101  0.2157 -0.0309
19356TIP3    H179559   1.277   5.134   4.298  1.7594  0.7722 -0.6914
19356TIP3    H279560   1.330   5.265   4.352  1.1568  0.1845  1.4217
19357TIP3   OH279561   4.228   5.873   3.543 -0.6256 -0.1795  0.4017
19357TIP3    H179562   4.149   5.827   3.573 -1.0514  0.5796  0.4597
19357TIP3    H279563   4.225   5.958   3.588  0.4199 -0.2797  0.6949
19358TIP3   OH279564   5.750   0.814   1.020  0.4896 -0.1301 -0.4832
19358TIP3    H179565   5.664   0.836   1.055  0.3441 -1.4695  0.0608
19358TIP3    H279566   5.754   0.858   0.935 -0.9638 -0.5465 -0.7867
19359TIP3   OH279567   4.738   6.524  16.184 -0.0090  0.5908  0.2806
19359TIP3    H179568   4.773   6.436  16.171  0.3260  0.6664  0.6498
19359TIP3    H279569   4.766   6.573  16.107 -0.7897  0.1973 -0.2676
19360TIP3   OH279570   1.408   2.569  13.286  0.1690 -0.3154 -0.4870
19360TIP3    H179571   1.394   2.501  13.221 -1.0041 -0.2160 -0.3626
19360TIP3    H279572   1.329   2.568  13.339  0.2072  1.0221 -0.3687
19361TIP3   OH279573   3.285   3.630   2.493  0.3352 -0.1403 -0.0610
19361TIP3    H179574   3.380   3.621   2.490  0.5666  0.2914  2.9184
19361TIP3    H279575   3.262   3.619   2.585 -2.4350  0.5716 -0.5522
19362TIP3   OH279576   6.630   0.169  13.123 -0.0784  0.5768  0.2971
19362TIP3    H179577   6.580   0.250  13.120  0.1213  0.6992  0.2578
19362TIP3    H279578   6.590   0.113  13.056  0.4242  1.0182 -0.3926
19363TIP3   OH279579   0.633   6.555  13.334  0.2336  0.0410 -0.1558
19363TIP3    H179580   0.675   6.625  13.283 -0.0082  0.4434  0.1947
19363TIP3    H279581   0.654   6.575  13.425  1.6487 -1.3274 -0.1448
19364TIP3   OH279582   0.261   6.654   6.510 -0.2956 -0.4584 -0.0512
19364TIP3    H179583   0.230   6.723   6.568  1.8574 -0.2481  0.9622
19364TIP3    H279584   0.194   6.647   6.442 -0.9210  2.1533  0.1886
19365TIP3   OH279585   0.881   1.115  16.610  0.2033  0.6271  0.2809
19365TIP3    H179586   0.953   1.120  16.548 -0.4169  1.2006 -0.4157
19365TIP3    H279587   0.899   1.037  16.662  0.1015 -0.5817 -1.4117
19366TIP3   OH279588   3.735   5.421  12.121  0.3145  0.7538  0.9419
19366TIP3    H179589   3.788   5.406  12.199  0.4855  0.6450  0.8029
19366TIP3    H279590   3.694   5.507  12.136  0.3827  0.7536  1.1296
19367TIP3   OH279591   5.241   5.930  10.740  0.1804  0.0544  0.3886
19367TIP3    H179592   5.158   5.956  10.700  0.8339  0.4272 -0.7725
19367TIP3    H279593   5.307   5.984  10.696  0.9608  0.3918  1.9004
19368TIP3   OH279594   5.758   6.619   1.411 -0.0696 -0.0876 -0.5234
19368TIP3    H179595   5.782   6.679   1.482  1.1853 -1.0725 -0.0929
19368TIP3    H279596   5.695   6.559   1.450  0.8423 -0.8122 -0.1337
19369TIP3   OH279597   1.526   2.430  12.502 -0.2184  0.5487  0.6575
19369TIP3    H179598   1.553   2.354  12.553 -0.3951  0.9629  1.3729
19369TIP3    H279599   1.606   2.479  12.487 -0.2642  0.7452  1.0625
19370TIP3   OH279600   2.558   2.393  12.781 -0.8667  0.5571  0.3679
19370TIP3    H179601   2.541   2.460  12.848  0.0864  1.2996 -0.1137
19370TIP3    H279602   2.653   2.387  12.777 -0.8027 -2.9201  2.4446
19371TIP3   OH279603   1.861   4.517   3.038 -0.0588  0.0412  0.0187
19371TIP3    H179604   1.846   4.611   3.026 -0.2713  0.0023 -0.0270
19371TIP3    H279605   1.875   4.507   3.132 -0.5046  0.0561  0.0902
19372TIP3   OH279606   2.351   3.796   4.685  0.1156 -0.4332  0.5961
19372TIP3    H179607   2.348   3.753   4.599  0.2215 -1.6427  1.1823
19372TIP3    H279608   2.261   3.821   4.702  0.4812  2.8832 -1.3127
19373TIP3   OH279609   5.057   5.699   1.065  0.2085 -0.0284  0.1401
19373TIP3    H179610   5.143   5.670   1.035 -1.2166 -4.0964 -0.6109
19373TIP3    H279611   5.060   5.689   1.160  0.1702 -1.5038 -0.0030
19374TIP3   OH279612   1.927   0.337   1.734  0.0230 -0.1947 -0.2520
19374TIP3    H179613   1.907   0.247   1.758  2.0998 -0.9580 -1.2169
19374TIP3    H279614   1.988   0.367   1.802  1.5729 -0.5080 -1.4660
19375TIP3   OH279615   3.542   5.085  15.977  0.0826  0.3077 -0.1188
19375TIP3    H179616   3.582   5.047  16.055 -0.6249  0.4469  0.3230
19375TIP3    H279617   3.484   5.016  15.944 -0.3608  0.6010  0.0445
19376TIP3   OH279618   3.008   3.593  13.986 -0.6090 -0.3358 -0.8016
19376TIP3    H179619   2.950   3.609  14.061 -1.6242 -1.3183 -1.3529
19376TIP3    H279620   2.959   3.534  13.930 -0.1142  0.8592 -2.5681
19377TIP3   OH279621   1.008   3.415  15.446  0.6179  0.4270 -0.1955
19377TIP3    H179622   1.027   3.505  15.421 -1.2685  0.2939 -2.4159
19377TIP3    H279623   0.930   3.421  15.502  0.6695  0.1972 -0.0952
19378TIP3   OH279624   2.438   5.308  16.340 -0.2650  0.5414  0.3980
19378TIP3    H179625   2.372   5.356  16.391  0.7172  0.2368  2.0085
19378TIP3    H279626   2.479   5.376  16.287  0.6254  1.4294  2.1304
19379TIP3   OH279627   5.521   6.780  16.335 -0.0384 -0.4499  0.0016
19379TIP3    H179628   5.433   6.790  16.370  0.5857 -0.4027  1.6437
19379TIP3    H279629   5.570   6.854  16.371  0.9694 -1.1575  0.1346
19380TIP3   OH279630   1.599   1.638   6.356 -0.2801  0.0399 -0.0277
19380TIP3    H179631   1.577   1.688   6.435  1.3675  0.4970  0.1687
19380TIP3    H279632   1.692   1.654   6.342  0.0875 -2.1845 -0.5415
19381TIP3   OH279633   0.063   3.655   2.175  0.2503 -0.3971 -0.0802
19381TIP3    H179634  -0.010   3.677   2.233  0.3119 -0.8153  0.1665
19381TIP3    H279635   0.021   3.620   2.096  0.1501  0.7240 -0.5392
19382TIP3   OH279636   2.050   2.056  15.538 -0.6810  0.1574  0.9814
19382TIP3    H179637   1.983   1.988  15.550 -0.7159  0.0102  0.0338
19382TIP3    H279638   2.002   2.138  15.544 -1.0956  0.0413 -0.4181
19383TIP3   OH279639   3.117   4.076   0.426  0.8755 -0.1289  0.3892
19383TIP3    H179640   3.133   4.164   0.393 -2.4635  0.6205  0.4211
19383TIP3    H279641   3.118   4.085   0.521 -2.8609  0.8046  0.4897
19384TIP3   OH279642   3.048   0.518  12.412 -0.3574  0.8520  0.3824
19384TIP3    H179643   2.955   0.501  12.427 -0.3013 -1.8267 -1.5734
19384TIP3    H279644   3.089   0.510  12.499 -1.6870  0.0091  0.9480
19385TIP3   OH279645   0.527   6.436   3.381  0.4383 -0.0452 -0.3521
19385TIP3    H179646   0.531   6.527   3.410  1.3419 -0.4077  0.7534
19385TIP3    H279647   0.461   6.396   3.437  0.4108 -0.1808 -0.4818
19386TIP3   OH279648   3.184   2.033   0.788  0.5559  0.1673  0.3368
19386TIP3    H179649   3.272   1.994   0.788  1.1601  1.4468  0.1433
19386TIP3    H279650   3.173   2.067   0.877 -0.8726 -2.2985  1.1765
19387TIP3   OH279651   5.184   4.448   1.836  0.6754 -0.3587 -0.0692
19387TIP3    H179652   5.158   4.362   1.802  1.7360  0.7537 -4.2705
19387TIP3    H279653   5.114   4.472   1.897 -3.0904 -1.5927 -3.4457
19388TIP3   OH279654   5.144   2.697  12.131 -0.0946 -0.0682  0.4209
19388TIP3    H179655   5.204   2.661  12.067  0.7485 -0.8153  1.5960
19388TIP3    H279656   5.076   2.631  12.141  0.1277 -0.2486  0.7663
19389TIP3   OH279657   5.828   0.561  16.709  0.0361  1.0618 -0.3368
19389TIP3    H179658   5.862   0.495  16.648  0.5740  0.5286  0.5121
19389TIP3    H279659   5.763   0.514  16.761  1.0053  0.9649  0.8173
19390TIP3   OH279660   4.903   4.572   5.084 -0.8478  0.4813 -0.2995
19390TIP3    H179661   4.912   4.518   5.006  2.8063 -1.3552  1.1485
19390TIP3    H279662   4.815   4.553   5.116 -0.9745 -1.9027 -1.7976
19391TIP3   OH279663   6.202   5.774  12.483  0.0522 -0.5097 -0.6958
19391TIP3    H179664   6.168   5.843  12.426 -2.1743  0.3963  1.5447
19391TIP3    H279665   6.193   5.694  12.432 -0.2414  0.4452 -2.2108
19392TIP3   OH279666   3.508   0.731  16.979  0.4197  0.0714 -0.2217
19392TIP3    H179667   3.413   0.744  16.973  0.2818 -1.3655 -3.6169
19392TIP3    H279668   3.520   0.638  16.960  2.5533  0.4247 -0.8570
19393TIP3   OH279669   6.075   1.513   2.300 -0.3407 -1.0223  0.6880
19393TIP3    H179670   6.014   1.494   2.229  0.3993 -1.9224  0.2729
19393TIP3    H279671   6.123   1.432   2.313  1.6749  0.0275  0.1276
19394TIP3   OH279672   0.267   2.187  15.243  0.2999  0.5786 -0.0860
19394TIP3    H179673   0.279   2.127  15.316  2.1689  0.4279 -0.4685
19394TIP3    H279674   0.275   2.274  15.282 -1.4919  0.6149  0.3102
19395TIP3   OH279675   2.890   2.384  16.438  0.1787  0.1101 -0.1715
19395TIP3    H179676   2.806   2.431  16.432 -0.2386 -0.5216  0.6096
19395TIP3    H279677   2.869   2.294  16.413  0.1267 -0.5957  2.1834
19396TIP3   OH279678   6.168   3.054  11.169 -0.1404  0.3164  0.1717
19396TIP3    H179679   6.121   3.123  11.217 -3.0366 -1.2083 -0.2039
19396TIP3    H279680   6.206   3.000  11.238 -2.9249 -0.9596  0.8804
19397TIP3   OH279681   3.453   4.701   0.237 -0.2728  0.7064  0.5453
19397TIP3    H179682   3.479   4.632   0.297 -0.9867  1.0398  1.2636
19397TIP3    H279683   3.357   4.700   0.240 -0.3311  0.5356 -0.8261
19398TIP3   OH279684   3.594   2.209   4.226 -0.3478 -0.2426  0.6768
19398TIP3    H179685   3.612   2.289   4.276 -0.5467  0.4459 -0.3106
19398TIP3    H279686   3.648   2.142   4.267  0.7325  0.6763  0.8152
19399TIP3   OH279687   0.254   5.538   5.666  0.6032  0.2894 -0.3285
19399TIP3    H179688   0.346   5.567   5.665  1.5370 -1.9345  3.3164
19399TIP3    H279689   0.258   5.447   5.635 -1.0856  1.2209 -3.7855
19400TIP3   OH279690   0.779   6.605  12.011  0.1111  0.7901  0.5466
19400TIP3    H179691   0.721   6.529  12.003  0.2118  0.6961  0.7176
19400TIP3    H279692   0.727   6.678  11.977  0.7686  0.2766 -1.7661
19401TIP3   OH279693   5.170   4.281  13.634  0.0723 -0.1903  0.1139
19401TIP3    H179694   5.248   4.301  13.686 -0.2166 -0.8378  0.8114
19401TIP3    H279695   5.099   4.273  13.699  0.0046 -2.6077 -0.1786
19402TIP3   OH279696   5.027   3.850  16.539 -0.7301  0.0722  0.9369
19402TIP3    H179697   5.106   3.849  16.485 -0.5332 -0.3941  1.2244
19402TIP3    H279698   4.955   3.844  16.476 -0.6495  2.6288  0.5223
19403TIP3   OH279699   3.577   0.369  13.816 -0.4412 -0.1105 -0.2187
19403TIP3    H179700   3.573   0.274  13.806  1.1779 -0.1481 -0.7584
19403TIP3    H279701   3.567   0.403  13.727 -2.4783  0.3244  0.1270
19404TIP3   OH279702   4.031   1.453  15.924 -0.1646  0.2990  0.2584
19404TIP3    H179703   4.121   1.451  15.891 -0.0372  0.6334  0.5928
19404TIP3    H279704   4.010   1.361  15.941  0.5627  0.3378  1.4041
19405TIP3   OH279705   1.470   5.776  11.378  0.0677 -0.6053  0.7428
19405TIP3    H179706   1.468   5.688  11.414  0.2464 -0.4280  1.1839
19405TIP3    H279707   1.397   5.779  11.317 -0.0222 -1.0125  0.8334
19406TIP3   OH279708   3.831   6.061  15.131 -0.2406  0.0960 -0.1258
19406TIP3    H179709   3.878   6.002  15.190 -1.0548 -0.0176  0.4322
19406TIP3    H279710   3.743   6.023  15.125 -0.9578  1.5730  0.7223
19407TIP3   OH279711   4.138   4.969   2.870  0.3607 -0.0286  0.0511
19407TIP3    H179712   4.053   5.011   2.858  0.5428  0.3630  0.1172
19407TIP3    H279713   4.121   4.897   2.931 -0.0357 -0.3236 -0.4091
19408TIP3   OH279714   0.852   6.194  14.915  0.2342 -0.4705 -0.1927
19408TIP3    H179715   0.828   6.138  14.989  0.3855  0.0876  0.2870
19408TIP3    H279716   0.866   6.281  14.954  1.1657 -0.3638 -0.7394
19409TIP3   OH279717   6.000   5.661   4.403 -0.2827 -0.5570  0.0039
19409TIP3    H179718   6.070   5.696   4.347 -1.4049  0.4732 -0.7891
19409TIP3    H279719   5.984   5.573   4.370 -0.1981 -0.3527 -0.5855
19410TIP3   OH279720   5.872   1.744   5.795  0.0971 -0.2362  0.0656
19410TIP3    H179721   5.917   1.701   5.868 -0.5000 -0.2054  0.4590
19410TIP3    H279722   5.839   1.672   5.742 -2.1084 -0.3420  1.4603
19411TIP3   OH279723   0.607   5.957  15.014 -0.8365 -0.5355 -0.2698
19411TIP3    H179724   0.561   5.921  15.090 -2.2462 -1.2832 -1.4111
19411TIP3    H279725   0.700   5.945  15.033 -1.2043 -2.4100  0.5317
19412TIP3   OH279726   3.231   5.188  11.378  0.3138  0.2980 -0.6609
19412TIP3    H179727   3.263   5.233  11.300  1.6520  1.5051  0.5359
19412TIP3    H279728   3.176   5.252  11.422 -0.7123 -0.4930 -0.7689
19413TIP3   OH279729   2.684   4.729   4.641  0.4702 -0.1806  0.1223
19413TIP3    H179730   2.623   4.662   4.611  2.0508 -2.3125  1.3464
19413TIP3    H279731   2.677   4.799   4.576 -3.0319 -0.3747  0.0971
19414TIP3   OH279732   5.155   1.878   6.603  0.3802  0.0375 -0.3664
19414TIP3    H179733   5.209   1.866   6.525  0.7274  0.8549 -0.2637
19414TIP3    H279734   5.116   1.792   6.619  1.2104 -0.4271 -0.7743
19415TIP3   OH279735   2.628   4.692   0.707  0.0857  0.0083  0.3751
19415TIP3    H179736   2.612   4.597   0.709  1.8867 -0.4738 -2.5763
19415TIP3    H279737   2.658   4.713   0.795 -1.0819 -1.9787  1.3314
19416TIP3   OH279738   3.933   3.494  15.520 -0.0320  0.5060 -0.4645
19416TIP3    H179739   3.926   3.424  15.586 -1.0469  1.6679  0.7379
19416TIP3    H279740   3.917   3.574  15.570  1.9438  1.6969 -1.6506
19417TIP3   OH279741   4.724   1.935  15.170  0.0508 -0.8791  0.2728
19417TIP3    H179742   4.716   1.859  15.113 -0.8289 -0.7284  0.1823
19417TIP3    H279743   4.792   1.989  15.129 -0.8502 -0.5772 -0.8599
19418TIP3   OH279744   1.694   3.971  11.456  0.4366  0.3346  0.6384
19418TIP3    H179745   1.642   4.036  11.503  0.6181  1.0775 -0.1591
19418TIP3    H279746   1.781   4.011  11.450  0.2244  0.6013 -0.9747
19419TIP3   OH279747   2.779   2.962  16.560 -0.2080 -0.6903  0.3122
19419TIP3    H179748   2.702   3.002  16.600  1.1653  3.5157 -0.7135
19419TIP3    H279749   2.755   2.950  16.468  0.3322  0.8064 -0.0506
19420TIP3   OH279750   5.036   4.078   2.366  0.8778  0.3700 -0.4429
19420TIP3    H179751   4.970   4.147   2.359  0.6659  0.0493 -2.0504
19420TIP3    H279752   5.095   4.093   2.293  0.0511 -1.9095 -1.6811
19421TIP3   OH279753   0.138   2.027  11.650 -0.6500  0.0564  0.9211
19421TIP3    H179754   0.134   1.937  11.682 -3.8967 -0.5052 -0.6576
19421TIP3    H279755   0.046   2.052  11.639  0.1312  1.8991 -3.0764
19422TIP3   OH279756   1.415   5.777  12.965  0.0656  0.1291  0.4403
19422TIP3    H179757   1.324   5.796  12.943  0.6630  1.1015 -1.3669
19422TIP3    H279758   1.411   5.695  13.014 -1.8205  0.4756  0.9495
19423TIP3   OH279759   6.069   2.188  14.340 -0.1677 -0.4589  0.2844
19423TIP3    H179760   6.114   2.173  14.257 -1.3790 -1.8501 -0.1476
19423TIP3    H279761   5.983   2.223  14.315 -1.0120 -2.0309  0.8421
19424TIP3   OH279762   2.695   0.609  11.707  0.3202  0.1333  0.0252
19424TIP3    H179763   2.743   0.548  11.763 -1.8083  0.0152  1.8713
19424TIP3    H279764   2.651   0.553  11.643  2.0820  0.2036 -1.3383
19425TIP3   OH279765   4.318   2.165   2.391 -0.5348 -0.3048  0.8795
19425TIP3    H179766   4.325   2.139   2.299  2.2165 -1.4058  1.3123
19425TIP3    H279767   4.245   2.114   2.425  0.2162 -2.0677 -0.0563
19426TIP3   OH279768   0.710   2.477  16.587 -0.3598  0.2830 -0.4473
19426TIP3    H179769   0.625   2.513  16.564 -0.3783  0.6832  0.2177
19426TIP3    H279770   0.772   2.545  16.563  0.0495 -0.8669 -3.0934
19427TIP3   OH279771   3.423   1.420  10.765  0.0461 -0.0384 -0.4255
19427TIP3    H179772   3.374   1.381  10.692  2.0753  0.3361 -2.0595
19427TIP3    H279773   3.509   1.441  10.728  1.5810 -0.9042  2.3785
19428TIP3   OH279774   5.558   4.150  11.440 -0.3142 -0.1580  0.4448
19428TIP3    H179775   5.592   4.061  11.431  1.6056  0.6311 -0.7568
19428TIP3    H279776   5.635   4.206  11.434 -1.3987  1.5978  1.7720
19429TIP3   OH279777   1.964   3.521   2.518 -0.2859  0.1075  0.0391
19429TIP3    H179778   2.006   3.601   2.487 -3.4619  2.1435  0.5839
19429TIP3    H279779   1.919   3.486   2.441 -2.5953  1.4476  0.6757
19430TIP3   OH279780   1.315   4.824   2.985 -0.4931 -0.6860  0.5287
19430TIP3    H179781   1.291   4.765   3.057  0.8617 -1.4233  0.4227
19430TIP3    H279782   1.374   4.772   2.931 -1.5583 -0.1715 -1.2030
19431TIP3   OH279783   3.034   4.344   2.250  0.2412 -0.3428 -0.1096
19431TIP3    H179784   3.069   4.317   2.165 -1.3845 -1.8443 -0.3413
19431TIP3    H279785   2.943   4.366   2.233 -0.0627 -0.4882  1.2158
19432TIP3   OH279786   3.943   3.061   1.861 -0.3520 -0.2015  0.3984
19432TIP3    H179787   3.994   2.998   1.810  0.0188  0.1956  0.2755
19432TIP3    H279788   3.852   3.046   1.833 -0.2726 -0.7179  0.4137
19433TIP3   OH279789   6.455   5.494  11.679  0.9142  0.0556  0.9333
19433TIP3    H179790   6.419   5.560  11.620  1.1564 -0.7758 -0.1692
19433TIP3    H279791   6.509   5.544  11.741  1.0857  0.8844  0.1325
19434TIP3   OH279792   4.874   6.146   2.631  0.2694 -0.2941 -0.1063
19434TIP3    H179793   4.884   6.052   2.617  2.4871 -0.1598  0.1920
19434TIP3    H279794   4.960   6.182   2.611 -0.5505  1.6969 -0.2687
19435TIP3   OH279795   5.422   0.057  14.950 -0.4456 -0.2155  0.1333
19435TIP3    H179796   5.447  -0.015  15.009  2.5926  1.3834  1.0056
19435TIP3    H279797   5.349   0.100  14.994  1.1143  0.3415  2.3310
19436TIP3   OH279798   5.762   4.083  12.495  0.0046 -0.7315 -0.1728
19436TIP3    H179799   5.747   3.990  12.475  0.2044 -1.2428  1.8108
19436TIP3    H279800   5.696   4.130  12.444  0.3449 -1.8923 -1.7484
19437TIP3   OH279801   2.551   2.779  16.015 -0.1389 -0.2438  0.2482
19437TIP3    H179802   2.583   2.867  16.032  0.3310  0.3478 -2.9843
19437TIP3    H279803   2.623   2.721  16.038  0.3163  0.3957  0.4418
19438TIP3   OH279804   2.574   2.792   1.574  0.3723 -0.4030  0.1094
19438TIP3    H179805   2.490   2.800   1.618  0.6444 -0.0950  0.5798
19438TIP3    H279806   2.596   2.699   1.582 -0.0122 -0.5236 -0.1927
19439TIP3   OH279807   2.033   0.990   1.262  0.0964  0.0483  0.2008
19439TIP3    H179808   1.988   1.066   1.226  1.0569  1.3808  1.7232
19439TIP3    H279809   2.084   1.024   1.335  1.6419 -1.8294  0.0633
19440TIP3   OH279810   6.288   4.546   5.000  0.0209 -1.1552 -0.0783
19440TIP3    H179811   6.265   4.539   5.093 -1.0272  1.1875 -0.0731
19440TIP3    H279812   6.207   4.528   4.953  0.7949 -3.4596 -0.6767
19441TIP3   OH279813   5.764   6.051   3.890 -0.7673 -0.1577 -0.7398
19441TIP3    H179814   5.774   6.002   3.971  2.1617  0.2967 -0.7219
19441TIP3    H279815   5.803   5.994   3.822  0.0944  0.9186 -1.1804
19442TIP3   OH279816   4.510   5.059   1.789  0.0709  0.5482  0.1876
19442TIP3    H179817   4.592   5.008   1.791 -0.6406 -0.6433  0.0869
19442TIP3    H279818   4.460   5.019   1.718  0.6755  3.3516 -1.9796
19443TIP3   OH279819   3.198   3.205  14.943 -0.4854  0.9360 -0.7985
19443TIP3    H179820   3.156   3.288  14.965 -0.2718  1.1928 -1.3186
19443TIP3    H279821   3.126   3.142  14.940 -0.3784  0.5702  1.9309
19444TIP3   OH279822   2.985   2.735   5.009  0.1412  0.0517  0.2355
19444TIP3    H179823   3.000   2.693   5.094 -0.0160 -0.8148 -0.1575
19444TIP3    H279824   2.944   2.819   5.031 -1.3101 -0.8128  0.9555
19445TIP3   OH279825   3.408   2.974  10.989  0.1572  0.9272  0.7006
19445TIP3    H179826   3.371   3.042  10.932 -0.2136 -0.2442 -0.4849
19445TIP3    H279827   3.496   3.007  11.011  1.1639  0.4848 -2.2697
19446TIP3   OH279828   2.881   2.432  17.195  0.2196  0.2134 -0.1976
19446TIP3    H179829   2.810   2.374  17.167 -0.0680  0.6808 -0.4556
19446TIP3    H279830   2.956   2.374  17.210  0.3456 -0.0751 -1.7981
19447TIP3   OH279831   6.436   2.949  13.465 -0.0470 -0.0417 -0.3322
19447TIP3    H179832   6.468   2.951  13.375  0.2113 -0.3510 -0.2508
19447TIP3    H279833   6.436   3.041  13.493 -0.8775  0.1425 -0.9002
19448TIP3   OH279834   2.537   6.635   0.066  0.0688  1.1314  0.1196
19448TIP3    H179835   2.592   6.584   0.006 -0.7086 -1.0105  1.1106
19448TIP3    H279836   2.595   6.702   0.101  1.2737  0.6750 -0.9329
19449TIP3   OH279837   2.859   1.656  11.957 -0.6723  0.1422 -0.6081
19449TIP3    H179838   2.766   1.680  11.961 -0.5821  0.4923 -0.5986
19449TIP3    H279839   2.859   1.561  11.966 -1.1947 -0.1147 -2.6899
19450TIP3   OH279840   6.683   0.393   3.731 -0.0464 -0.2190  0.0940
19450TIP3    H179841   6.635   0.440   3.799 -2.1139 -0.4834 -1.0940
19450TIP3    H279842   6.681   0.301   3.760  0.0648 -0.1809  0.2239
19451TIP3   OH279843   1.295   0.143  11.431 -0.8118 -0.2843  0.3670
19451TIP3    H179844   1.308   0.053  11.460  1.6438 -0.3611 -0.7190
19451TIP3    H279845   1.266   0.135  11.340  0.6993 -0.0024 -0.1600
19452TIP3   OH279846   6.147   3.968  14.172  0.4171  0.3403 -0.3802
19452TIP3    H179847   6.221   4.018  14.136 -0.2005  1.2450 -0.4383
19452TIP3    H279848   6.089   4.035  14.209 -0.6608 -0.2958 -0.8624
19453TIP3   OH279849   4.460   0.530   3.957 -0.1503  0.6493 -0.9637
19453TIP3    H179850   4.477   0.436   3.951  1.3246  0.6017  1.9197
19453TIP3    H279851   4.526   0.570   3.899  0.8583 -0.0579 -0.3489
19454TIP3   OH279852   4.043   4.029  15.081 -0.7587 -0.1614  0.7173
19454TIP3    H179853   4.058   4.024  14.987 -2.7829  1.3831  0.2271
19454TIP3    H279854   4.074   3.945  15.115 -0.1413 -0.8228 -1.3355
19455TIP3   OH279855   3.256   6.781   2.341  0.4985 -0.2643 -0.1351
19455TIP3    H179856   3.253   6.813   2.251 -0.8712  1.4736  0.4627
19455TIP3    H279857   3.349   6.779   2.364  0.9023 -1.2479 -1.7307
19456TIP3   OH279858   3.363   3.724  15.815 -0.3552  0.1083 -0.0568
19456TIP3    H179859   3.425   3.766  15.755 -1.4355  0.9442 -0.6233
19456TIP3    H279860   3.413   3.710  15.895  0.5947  0.6725 -0.5309
19457TIP3   OH279861   0.164   4.934  16.747 -0.4350  0.2379  0.4944
19457TIP3    H179862   0.127   4.878  16.815 -0.2459  0.9966  1.2357
19457TIP3    H279863   0.122   4.904  16.666 -2.1944  0.6415  1.2132
19458TIP3   OH279864   5.315   3.128  13.102 -0.0574 -0.1451  0.2521
19458TIP3    H179865   5.328   3.149  13.194  0.9884  1.5197 -0.2191
19458TIP3    H279866   5.302   3.213  13.060 -3.1050 -1.0072 -0.8153
19459TIP3   OH279867   3.724   3.446  16.776  0.2508 -0.1985  0.0616
19459TIP3    H179868   3.641   3.450  16.822  0.4090  0.3782  0.2984
19459TIP3    H279869   3.781   3.396  16.834 -0.0896 -1.0958 -0.3581
19460TIP3   OH279870   3.401   4.653  14.877  0.1510 -0.3659 -0.3707
19460TIP3    H179871   3.311   4.688  14.882 -0.1492 -1.2548  0.9168
19460TIP3    H279872   3.457   4.730  14.886 -0.4670 -0.1916  4.5154
19461TIP3   OH279873   1.635   0.946   0.545  0.1243 -0.5042 -0.2012
19461TIP3    H179874   1.650   0.887   0.471 -0.7072 -1.0616  0.0560
19461TIP3    H279875   1.560   0.908   0.591  0.9323 -0.4472  1.2181
19462TIP3   OH279876   3.333   3.178   4.983  0.2420  0.0006  0.5229
19462TIP3    H179877   3.287   3.102   5.018  0.9640  0.8451  3.5493
19462TIP3    H279878   3.263   3.239   4.959 -0.3243  0.2836  2.7276
19463TIP3   OH279879   5.413   0.311  15.913 -0.2393 -0.0993  0.2300
19463TIP3    H179880   5.466   0.387  15.937 -2.4661  1.5036  0.4241
19463TIP3    H279881   5.371   0.284  15.995 -0.4063 -0.7611 -0.0670
19464TIP3   OH279882   2.865   4.328  13.127 -0.1118 -0.3922  0.6790
19464TIP3    H179883   2.898   4.241  13.147  0.2836 -0.9158 -1.8827
19464TIP3    H279884   2.805   4.314  13.053 -1.8244  1.2381  1.6762
19465TIP3   OH279885   4.175   2.421   5.202 -0.1191 -0.5784  0.1659
19465TIP3    H179886   4.085   2.400   5.177 -0.7769 -0.6777  2.3967
19465TIP3    H279887   4.178   2.408   5.297  1.4690  2.0976  0.6124
19466TIP3   OH279888   4.003   3.736   3.889  0.0169 -0.8816 -0.7062
19466TIP3    H179889   3.949   3.799   3.937  1.0752  0.2147 -0.9087
19466TIP3    H279890   4.010   3.661   3.948 -0.5155 -0.4481 -0.0772
19467TIP3   OH279891   6.485   4.154   0.082 -0.1967  0.6338  0.4973
19467TIP3    H179892   6.421   4.150   0.154 -0.4690 -1.1414  0.2017
19467TIP3    H279893   6.554   4.092   0.108 -0.3611 -0.1259 -0.8055
19468TIP3   OH279894   3.199   0.299   4.765 -0.4069  0.0897 -0.3338
19468TIP3    H179895   3.261   0.337   4.703  0.7591 -3.2867 -1.4753
19468TIP3    H279896   3.170   0.218   4.722  0.2069 -2.2938  3.3341
19469TIP3   OH279897   5.806   3.871   0.349 -0.2520 -0.0268 -0.6691
19469TIP3    H179898   5.815   3.803   0.416 -1.9027 -1.7278 -2.0699
19469TIP3    H279899   5.881   3.858   0.292 -0.0138  0.0085 -0.3680
19470TIP3   OH279900   5.094   2.429  16.754  0.2526 -0.3456 -0.6897
19470TIP3    H179901   5.114   2.522  16.743  0.5954 -0.2254  0.6644
19470TIP3    H279902   5.174   2.392  16.791 -0.5247 -0.7554  0.6740
19471TIP3   OH279903   0.098   0.843  13.108  0.2552 -0.3239 -0.1752
19471TIP3    H179904   0.072   0.863  13.198  2.8736  0.6166  0.4371
19471TIP3    H279905   0.150   0.918  13.080  0.5870 -1.1829 -2.0174
19472TIP3   OH279906   6.633   3.719   3.368 -0.1716  0.2755  0.2175
19472TIP3    H179907   6.543   3.711   3.336 -0.1218  0.2121  0.0964
19472TIP3    H279908   6.688   3.698   3.293 -0.0546  0.3698  0.2765
19473TIP3   OH279909   2.261   2.342   4.575 -0.3052 -0.0782  0.6607
19473TIP3    H179910   2.174   2.380   4.569  0.2492  1.4757  1.8380
19473TIP3    H279911   2.280   2.339   4.669  1.6664  1.4816  0.3826
19474TIP3   OH279912   3.746   1.617  12.040 -0.0134  0.1554 -0.2538
19474TIP3    H179913   3.769   1.647  12.128 -0.8440  0.9928 -0.3123
19474TIP3    H279914   3.797   1.537  12.029 -0.9055 -0.7379  1.5292
19475TIP3   OH279915   1.366   6.536   5.434 -0.1697  1.2889  0.1157
19475TIP3    H179916   1.312   6.575   5.365  0.1826 -0.1271 -1.0194
19475TIP3    H279917   1.451   6.522   5.393  0.2574  1.0410  1.0564
19476TIP3   OH279918   6.258   5.728   3.983 -0.4422  0.9192  0.0976
19476TIP3    H179919   6.344   5.768   3.979 -0.5673  1.0777 -1.9196
19476TIP3    H279920   6.275   5.634   3.994  0.0726  0.7594 -1.7349
19477TIP3   OH279921   3.612   1.594  14.787 -0.8151  0.8397 -0.0051
19477TIP3    H179922   3.609   1.689  14.801 -1.9514  0.5284  2.3284
19477TIP3    H279923   3.524   1.564  14.808 -0.6801 -0.6958 -1.4078
19478TIP3   OH279924   1.872   3.326  10.609  0.3820  0.1291  0.3955
19478TIP3    H179925   1.964   3.347  10.624  0.0880  0.2906  2.2360
19478TIP3    H279926   1.869   3.231  10.601  0.7999  0.1841 -0.3916
19479TIP3   OH279927   4.894   4.525  12.970 -0.2365  0.5437 -0.3438
19479TIP3    H179928   4.929   4.440  12.998  0.1934  0.5418 -0.8618
19479TIP3    H279929   4.970   4.570  12.932 -0.7211  0.6890 -1.1561
19480TIP3   OH279930   1.639   6.813  14.570 -0.1401  0.6634 -0.1218
19480TIP3    H179931   1.659   6.897  14.611  1.1519  0.2107  0.2353
19480TIP3    H279932   1.671   6.822  14.480 -0.5400  0.7515 -0.2564
19481TIP3   OH279933   2.630   4.939  13.934 -0.4107  0.0341  1.0592
19481TIP3    H179934   2.721   4.937  13.906 -0.4205  0.3108  1.0051
19481TIP3    H279935   2.621   5.020  13.983 -1.4033  1.7026 -1.6426
19482TIP3   OH279936   3.442   3.580   0.548 -0.4135  0.7117  0.0534
19482TIP3    H179937   3.382   3.511   0.523 -0.2762  1.3255 -2.1657
19482TIP3    H279938   3.529   3.540   0.544 -0.4208  0.7120 -0.1027
19483TIP3   OH279939   5.947   6.348  14.551  0.1625  0.2316 -0.2771
19483TIP3    H179940   5.920   6.256  14.552 -1.1252  0.5126 -2.7394
19483TIP3    H279941   5.944   6.374  14.459 -0.7385  3.0937  0.4384
19484TIP3   OH279942   5.136   1.967  14.415 -0.7099 -0.1134  0.3487
19484TIP3    H179943   5.186   2.014  14.348  0.7615  1.3109  2.3506
19484TIP3    H279944   5.183   1.885  14.426 -1.3277 -0.6392 -0.7700
19485TIP3   OH279945   0.051   0.061  15.028 -0.3014  0.1599 -0.6551
19485TIP3    H179946   0.120   0.066  15.094 -0.4089  1.8269 -0.6254
19485TIP3    H279947  -0.028   0.038  15.077  0.2228 -2.0212 -0.7250
19486TIP3   OH279948   2.630   3.782  11.177 -0.5943 -0.4399 -0.9670
19486TIP3    H179949   2.569   3.826  11.118 -2.3605 -2.9231 -1.1658
19486TIP3    H279950   2.676   3.720  11.120 -1.3574 -1.9153 -0.0517
19487TIP3   OH279951   4.059   2.599  15.840  0.2920  0.1313 -0.0588
19487TIP3    H179952   3.999   2.660  15.883  0.1714 -0.2951  0.3920
19487TIP3    H279953   4.133   2.591  15.900 -0.9118 -2.2650  1.2616
19488TIP3   OH279954   6.227   1.069  13.653  0.0908  0.2469 -0.2991
19488TIP3    H179955   6.248   1.101  13.565 -0.5781  3.5815  0.6189
19488TIP3    H279956   6.298   1.101  13.708 -0.7820  0.4130  0.7675
19489TIP3   OH279957   4.814   0.369   2.485  0.5006 -0.1075  0.1851
19489TIP3    H179958   4.756   0.334   2.552  0.4903 -2.4607 -0.9365
19489TIP3    H279959   4.770   0.349   2.402  2.2351 -0.7254 -0.6389
19490TIP3   OH279960   3.273   6.443  16.915  0.0344  0.0186  0.3215
19490TIP3    H179961   3.305   6.525  16.877  1.1414 -0.1431  0.8505
19490TIP3    H279962   3.292   6.451  17.009  1.0259 -1.1967  0.2559
19491TIP3   OH279963   6.245   2.546   3.918 -0.5601  0.1572 -0.0482
19491TIP3    H179964   6.205   2.465   3.950  3.0841 -1.5490  0.6901
19491TIP3    H279965   6.299   2.518   3.844  0.8090  1.9119  0.2379
19492TIP3   OH279966   5.397   6.296  15.979  0.0442 -0.1575 -0.0858
19492TIP3    H179967   5.468   6.351  16.012  1.2947 -1.6027 -0.2620
19492TIP3    H279968   5.397   6.310  15.885  2.6860 -2.8940 -0.6576
19493TIP3   OH279969   0.985   5.307   0.341 -0.0005 -0.2542 -0.2727
19493TIP3    H179970   0.995   5.238   0.275 -1.0259 -1.3480  0.6799
19493TIP3    H279971   0.954   5.383   0.291 -1.5861 -1.3077 -0.9789
19494TIP3   OH279972   2.985   3.324   5.551  0.2207  0.1916  0.1189
19494TIP3    H179973   2.917   3.362   5.606  1.1476  2.8061 -0.3829
19494TIP3    H279974   3.044   3.280   5.612  1.0938  2.8136  1.2932
19495TIP3   OH279975   3.218   2.912  13.618  0.4197 -0.8423  0.3169
19495TIP3    H179976   3.220   3.007  13.603  0.2248 -0.9777 -0.6173
19495TIP3    H279977   3.268   2.900  13.699  0.7651  0.0200  0.2457
19496TIP3   OH279978   3.751   3.474   1.026 -0.3583 -0.2700 -0.0557
19496TIP3    H179979   3.680   3.479   0.962  0.2308 -2.4720 -0.9655
19496TIP3    H279980   3.831   3.477   0.974  0.1684 -0.3690  0.7343
19497TIP3   OH279981   1.563   4.653  15.313 -0.6756  0.3879  0.2581
19497TIP3    H179982   1.547   4.561  15.292  0.1717  0.6216 -1.6318
19497TIP3    H279983   1.480   4.697  15.294  0.0480  0.6054 -3.1239
19498TIP3   OH279984   6.422   4.588   2.098 -0.1035 -0.0824 -0.4472
19498TIP3    H179985   6.328   4.576   2.086  0.2555 -1.5196 -2.2404
19498TIP3    H279986   6.455   4.502   2.122  0.6433  0.6521  1.2969
19499TIP3   OH279987   4.932   3.587  15.289 -0.0589 -0.0719  0.2095
19499TIP3    H179988   4.874   3.529  15.239  0.7798 -1.0633  0.3649
19499TIP3    H279989   5.005   3.532  15.315 -1.0791 -0.0593  3.7615
19500TIP3   OH279990   3.266   2.419   1.237 -0.2183 -0.3535  1.0585
19500TIP3    H179991   3.245   2.500   1.191 -1.9592 -1.2989  0.0964
19500TIP3    H279992   3.231   2.431   1.326 -1.1249 -0.2965  0.7049
19501TIP3   OH279993   4.879   5.992  15.941  0.0772  0.2531  0.3218
19501TIP3    H179994   4.899   5.972  16.033 -0.9843  1.7462  0.9225
19501TIP3    H279995   4.903   6.084  15.931 -1.8617  0.7355 -0.2535
19502TIP3   OH279996   4.546   6.548  15.469 -0.3710 -0.3965 -0.5267
19502TIP3    H179997   4.474   6.590  15.422  0.6130  0.3054 -1.4670
19502TIP3    H279998   4.543   6.456  15.441 -1.1690 -0.4617 -0.2183
19503TIP3   OH279999   6.183   4.963   5.537  0.5588 -0.0278  0.2405
19503TIP3    H180000   6.112   5.020   5.566 -0.3503 -0.9218 -0.1624
19503TIP3    H280001   6.245   5.021   5.494 -0.3296  0.6639 -0.1348
19504TIP3   OH280002   6.591   5.214   1.515  0.2397 -0.2898 -0.0761
19504TIP3    H180003   6.581   5.134   1.567  5.3496 -1.5888 -0.5617
19504TIP3    H280004   6.611   5.182   1.427  2.3657  1.4322 -0.2846
19505TIP3   OH280005   4.766   3.922  13.260 -0.0796 -0.1120 -0.0619
19505TIP3    H180006   4.839   3.949  13.316 -0.1957 -2.0550  1.1352
19505TIP3    H280007   4.804   3.919  13.172  0.7693  0.6949  0.2586
19506TIP3   OH280008   6.230   3.539   2.252 -0.3098  0.1785 -0.2643
19506TIP3    H180009   6.258   3.449   2.238 -0.6991  0.0052  0.0401
19506TIP3    H280010   6.267   3.588   2.179 -1.6235 -0.5425 -1.4375
19507TIP3   OH280011   6.165   0.810   4.181 -0.7265 -0.4969 -0.5515
19507TIP3    H180012   6.096   0.852   4.131 -1.8124 -0.3245  1.0300
19507TIP3    H280013   6.168   0.858   4.264  0.6556 -1.0946 -0.2207
19508TIP3   OH280014   0.835   4.518   0.646  0.1985  0.4854 -0.0721
19508TIP3    H180015   0.929   4.535   0.633  0.1420 -0.0828 -1.4675
19508TIP3    H280016   0.792   4.573   0.581 -0.4218  0.4691  0.3233
19509TIP3   OH280017   6.798   5.361  15.289  0.3129 -0.0582 -0.3375
19509TIP3    H180018   6.806   5.326  15.378 -1.3980 -1.2638 -0.6102
19509TIP3    H280019   6.888   5.378  15.262  0.8734  0.4821  1.6645
19510TIP3   OH280020   5.217   6.677  15.140  0.1512 -0.1131  0.8432
19510TIP3    H180021   5.161   6.620  15.193  0.7272 -0.3725  1.1919
19510TIP3    H280022   5.165   6.756  15.125 -0.6659 -0.7426  0.3308
19511TIP3   OH280023   0.608   6.591   3.887 -0.4433 -0.0729 -0.5841
19511TIP3    H180024   0.630   6.554   3.972 -0.1488 -1.1748 -1.1153
19511TIP3    H280025   0.514   6.578   3.878 -0.1474 -1.9901 -1.3277
19512TIP3   OH280026   2.199   1.566  14.358 -0.3927  0.4786  0.0575
19512TIP3    H180027   2.264   1.502  14.387 -1.6973 -0.1384  1.8377
19512TIP3    H280028   2.249   1.644  14.337  1.0592 -0.4890 -0.2321
19513TIP3   OH280029   1.257   3.655   3.529 -0.6800  0.5902 -0.2533
19513TIP3    H180030   1.206   3.576   3.511  0.6231 -0.4831  0.5781
19513TIP3    H280031   1.308   3.669   3.449 -1.9192  1.4334 -0.9319
19514TIP3   OH280032   0.133   1.609   0.467  0.2468  0.1610  0.0510
19514TIP3    H180033   0.108   1.598   0.558 -0.8256  3.3471  0.2459
19514TIP3    H280034   0.051   1.617   0.419  0.8043  0.5978 -0.8738
19515TIP3   OH280035   5.353   6.513   0.931  0.6882 -0.3993  0.2606
19515TIP3    H180036   5.394   6.427   0.937 -0.4827 -1.0343 -0.4823
19515TIP3    H280037   5.259   6.496   0.933  0.4167  0.9895  1.5594
19516TIP3   OH280038   1.951   5.714   1.537 -0.6515  0.6839 -0.4941
19516TIP3    H180039   2.032   5.760   1.559 -0.0952  0.2971 -1.6812
19516TIP3    H280040   1.882   5.769   1.576  0.1212  1.3917 -0.0765
19517TIP3   OH280041   1.349   1.921  16.849  0.0567  0.4995  0.1858
19517TIP3    H180042   1.332   1.998  16.795  0.7505 -0.8640 -2.1204
19517TIP3    H280043   1.433   1.939  16.891  0.4901  0.7932 -0.7800
19518TIP3   OH280044   1.288   5.368  16.025  0.1666 -0.0146  0.0701
19518TIP3    H180045   1.272   5.462  16.020 -0.7869 -0.1854 -0.3658
19518TIP3    H280046   1.359   5.359  16.088 -0.4340  0.9270  0.9198
19519TIP3   OH280047   0.021   1.556   1.943 -0.6271 -0.3438 -0.1695
19519TIP3    H180048  -0.014   1.628   1.890 -2.0893 -1.1478 -0.3318
19519TIP3    H280049  -0.031   1.480   1.918  0.6215 -1.3921  0.3013
19520TIP3   OH280050   6.173   5.295   4.447 -0.2410  0.2939  0.3587
19520TIP3    H180051   6.144   5.249   4.526  1.5402  3.1580  2.8974
19520TIP3    H280052   6.092   5.325   4.406 -1.1811  0.0083  1.9384
19521TIP3   OH280053   4.591   5.224  17.131 -0.4569 -0.5729  0.3220
19521TIP3    H180054   4.624   5.134  17.134 -0.2192 -0.4733  0.7878
19521TIP3    H280055   4.643   5.267  17.062 -0.9917 -0.9510 -0.3271
19522TIP3   OH280056   0.767   3.074   0.469 -0.1138 -0.2911 -0.6729
19522TIP3    H180057   0.854   3.040   0.446 -0.3652 -1.0826 -0.4746
19522TIP3    H280058   0.715   2.997   0.489  0.3534  0.2665  3.7426
19523TIP3   OH280059   5.255   2.699   0.300 -0.1370  0.1335  0.0383
19523TIP3    H180060   5.246   2.787   0.336  1.8122  0.6786 -0.6649
19523TIP3    H280061   5.346   2.695   0.272 -0.6044 -1.5839 -1.3450
19524TIP3   OH280062   5.336   2.607   4.505 -0.1879  0.0497  0.1909
19524TIP3    H180063   5.253   2.559   4.499 -1.0505  1.5307  0.0266
19524TIP3    H280064   5.312   2.694   4.536  1.4445  0.1849  1.1895
19525TIP3   OH280065   5.300   5.746  10.935  0.7841 -0.2702 -0.5535
19525TIP3    H180066   5.261   5.818  10.886  1.4983  0.2312 -0.3927
19525TIP3    H280067   5.377   5.721  10.884 -0.8530 -2.7350 -2.0931
19526TIP3   OH280068   2.615   6.808   1.199  0.0196  0.3504  0.4110
19526TIP3    H180069   2.659   6.821   1.115  0.3071  0.2345  0.5421
19526TIP3    H280070   2.647   6.723   1.230  0.4911  0.7250  0.9810
19527TIP3   OH280071   2.641   1.422  11.609  0.0695 -0.1606  0.4576
19527TIP3    H180072   2.651   1.330  11.585  0.0145 -0.0518  0.0193
19527TIP3    H280073   2.587   1.420  11.689 -1.7433 -0.4079 -0.7175
19528TIP3   OH280074   3.756   5.210   0.574 -0.0097 -0.1971 -0.4902
19528TIP3    H180075   3.693   5.140   0.565  0.8861 -1.2607  1.0127
19528TIP3    H280076   3.705   5.290   0.560 -0.9343 -1.1175 -2.7853
19529TIP3   OH280077   5.311   2.798   5.795 -0.1619 -0.4194  0.4899
19529TIP3    H180078   5.249   2.821   5.863 -0.7876 -0.4908 -0.0534
19529TIP3    H280079   5.258   2.770   5.721  0.4772  0.3214 -0.2826
19530TIP3   OH280080   4.028   3.179   3.733  0.3170  0.5409  0.3164
19530TIP3    H180081   4.102   3.233   3.760  1.7066 -0.7278 -0.7296
19530TIP3    H280082   4.067   3.112   3.676 -1.6842 -0.0175 -0.5000
19531TIP3   OH280083   6.330   0.985  12.212 -0.4521 -0.0013 -0.8270
19531TIP3    H180084   6.382   0.948  12.283  0.3551  0.7930 -0.9903
19531TIP3    H280085   6.385   1.053  12.174 -1.0186 -0.1570 -1.9812
19532TIP3   OH280086   2.792   3.659  13.239 -0.3411  0.0138 -0.4479
19532TIP3    H180087   2.825   3.669  13.329 -0.4335  0.0178 -0.4143
19532TIP3    H280088   2.832   3.578  13.208 -0.6842 -0.2415 -0.2364
19533TIP3   OH280089   1.388   4.546  15.560  0.0873 -0.2634  0.0625
19533TIP3    H180090   1.395   4.598  15.480  0.5415 -0.0733  0.2266
19533TIP3    H280091   1.423   4.602  15.629 -1.3636  0.0344  0.6028
19534TIP3   OH280092   3.964   4.272  12.326 -0.4032 -0.2010  0.3633
19534TIP3    H180093   3.904   4.265  12.252 -0.9134  1.5383  0.5641
19534TIP3    H280094   3.911   4.246  12.402 -0.6562  0.4768  0.4269
19535TIP3   OH280095   0.319   3.747   5.353  0.2806  0.1486  0.0341
19535TIP3    H180096   0.384   3.817   5.353  1.3942 -0.8567  0.1515
19535TIP3    H280097   0.371   3.666   5.354 -0.8787 -0.7584  3.8714
19536TIP3   OH280098   2.648   4.968   4.499 -0.2703  0.4462  0.4593
19536TIP3    H180099   2.594   4.936   4.427 -0.5581 -1.6412  1.5600
19536TIP3    H280100   2.596   5.037   4.540 -0.1365  1.6106 -1.2183
19537TIP3   OH280101   3.179   1.959  16.918 -0.2837  0.5144 -0.3453
19537TIP3    H180102   3.249   2.021  16.936 -1.1320  1.2628  0.4803
19537TIP3    H280103   3.189   1.936  16.825  1.1155  0.5001 -0.2000
19538TIP3   OH280104   5.570   0.102  11.509 -0.1999 -0.4947 -0.2778
19538TIP3    H180105   5.611   0.169  11.455  0.7381 -1.7111 -1.1294
19538TIP3    H280106   5.478   0.103  11.484 -0.6753  1.9098  1.2749
19539TIP3   OH280107   1.797   3.255  12.646 -0.0211  0.0547  0.0045
19539TIP3    H180108   1.867   3.190  12.652 -0.6310 -0.8010 -1.5226
19539TIP3    H280109   1.737   3.232  12.717 -0.6179 -1.5996 -0.9645
19540TIP3   OH280110   0.521   4.440  11.209 -0.2904 -0.6454 -0.1454
19540TIP3    H180111   0.562   4.358  11.182 -0.9840 -1.5686  1.4262
19540TIP3    H280112   0.553   4.454  11.299 -2.0110 -0.4841  0.4794
19541TIP3   OH280113   3.112   1.666  16.538  0.5233  0.1231  0.2723
19541TIP3    H180114   3.157   1.607  16.477  0.2014 -0.7512  0.8685
19541TIP3    H280115   3.032   1.692  16.491 -1.1046 -2.6723  1.2586
19542TIP3   OH280116   2.565   2.027  11.608 -0.6770  0.2806 -1.1581
19542TIP3    H180117   2.527   1.957  11.662 -2.0178  0.2138 -2.1577
19542TIP3    H280118   2.655   2.035  11.640 -0.4882 -1.8903 -1.0126
19543TIP3   OH280119   5.340   2.451  13.690 -0.4317  0.4491  0.3159
19543TIP3    H180120   5.289   2.448  13.608  1.3998  0.5807 -0.8860
19543TIP3    H280121   5.354   2.360  13.713 -2.1041  0.3978  1.2839
19544TIP3   OH280122   2.751   2.915  10.970  0.0925 -0.1022 -0.7312
19544TIP3    H180123   2.806   2.861  11.027  0.7633  2.3471  1.1205
19544TIP3    H280124   2.812   2.975  10.927 -0.9014  1.4383 -0.0815
19545TIP3   OH280125   4.948   2.970  10.633  0.3517  0.3021  0.2291
19545TIP3    H180126   5.012   3.020  10.684 -0.0560 -0.9177  2.0113
19545TIP3    H280127   4.865   3.016  10.647  0.2619  0.0361  0.5970
19546TIP3   OH280128   1.576   3.622   1.692  0.6452 -0.6386 -0.1573
19546TIP3    H180129   1.522   3.662   1.624  1.9753  2.0503  0.2447
19546TIP3    H280130   1.524   3.629   1.772  1.4439  1.8722  0.2145
19547TIP3   OH280131   1.888   1.504   5.165 -0.0341 -0.4122 -0.8389
19547TIP3    H180132   1.957   1.479   5.226 -0.1164 -1.1254 -1.0233
19547TIP3    H280133   1.853   1.420   5.133 -1.6195 -0.1074 -0.0405
19548TIP3   OH280134   2.738   2.330  15.367 -0.4213  0.1009 -0.5206
19548TIP3    H180135   2.676   2.332  15.439 -0.3908 -0.4060 -0.4763
19548TIP3    H280136   2.784   2.414  15.372  1.0047 -0.7168  1.2881
19549TIP3   OH280137   5.434   1.811  12.917 -0.0457 -0.1928  0.3051
19549TIP3    H180138   5.456   1.882  12.857  1.9949 -1.0607 -0.0584
19549TIP3    H280139   5.475   1.733  12.878 -0.7146 -1.2369  1.6023
19550TIP3   OH280140   4.621   2.763  15.024  0.1289  0.1404 -0.3663
19550TIP3    H180141   4.596   2.671  15.026  1.6426 -0.2890  0.0383
19550TIP3    H280142   4.593   2.794  14.937 -0.4849 -0.6610 -0.4605
19551TIP3   OH280143   2.873   3.402   4.473 -0.0105  0.0982  0.1133
19551TIP3    H180144   2.827   3.480   4.505  0.6059  1.0170 -1.1475
19551TIP3    H280145   2.849   3.333   4.535 -0.0133  1.4355  1.6864
19552TIP3   OH280146   6.414   2.725   0.235  0.4108 -0.1510  0.0926
19552TIP3    H180147   6.428   2.694   0.146  1.2107 -1.9400  0.7862
19552TIP3    H280148   6.448   2.814   0.235  2.5774 -0.9053 -0.8698
19553TIP3   OH280149   6.624   2.869   2.229 -0.1939  0.0408  0.4808
19553TIP3    H180150   6.712   2.854   2.195 -1.1573 -2.7190 -1.1236
19553TIP3    H280151   6.626   2.833   2.318  0.2256 -0.2553  0.3567
19554TIP3   OH280152   6.177   1.500   1.084  0.1052 -0.3523  0.2518
19554TIP3    H180153   6.121   1.533   1.155 -1.6728  0.1946 -1.3223
19554TIP3    H280154   6.221   1.578   1.050 -1.3976 -0.0671 -1.1724
19555TIP3   OH280155   3.215   1.802   3.400  1.3805  0.2888 -0.2283
19555TIP3    H180156   3.152   1.860   3.357 -0.8243 -0.1413  2.1577
19555TIP3    H280157   3.224   1.728   3.339 -1.4861 -0.2408 -0.1754
19556TIP3   OH280158   4.206   0.750   4.549 -0.4215  0.5347 -0.2976
19556TIP3    H180159   4.202   0.661   4.584  0.9966  0.4095 -0.4034
19556TIP3    H280160   4.122   0.788   4.573 -0.4284 -0.3136  1.1785
19557TIP3   OH280161   6.428   3.916  10.773  0.0198 -0.2540  0.1654
19557TIP3    H180162   6.480   3.927  10.693  1.7774  1.6703  1.4861
19557TIP3    H280163   6.385   4.000  10.785  0.0141 -0.4204  1.3931
19558TIP3   OH280164   6.170   2.476   3.317  0.5641 -0.4935  0.0478
19558TIP3    H180165   6.170   2.392   3.272 -1.0519 -0.2663 -0.4216
19558TIP3    H280166   6.079   2.506   3.314  1.0618  1.1908  0.3699
19559TIP3   OH280167   6.587   4.353  15.234 -0.1527 -0.0601 -0.1453
19559TIP3    H180168   6.665   4.332  15.183  0.4826  1.1626  0.2980
19559TIP3    H280169   6.594   4.297  15.312  0.7198  0.6320  0.2871
19560TIP3   OH280170   1.210   5.208   5.584  0.5949 -0.2849  0.1002
19560TIP3    H180171   1.192   5.132   5.640 -0.9617  0.0808  0.1365
19560TIP3    H280172   1.252   5.271   5.643 -1.1222  0.1351  0.9156
19561TIP3   OH280173   0.675   0.462  13.456  0.1299 -0.1285  0.0278
19561TIP3    H180174   0.690   0.441  13.548  0.3330  0.0852  0.0448
19561TIP3    H280175   0.613   0.397  13.426 -0.8854  0.5349  0.6426
19562TIP3   OH280176   1.457   3.926   5.726 -0.1323  0.6340 -0.3047
19562TIP3    H180177   1.531   3.908   5.668 -0.2272 -0.0832 -0.2121
19562TIP3    H280178   1.460   4.020   5.740  1.2691  0.5172  0.3637
19563TIP3   OH280179   5.382   3.792   4.922 -0.8719  0.5390 -0.1306
19563TIP3    H180180   5.409   3.874   4.881  1.3036  0.0464  0.1748
19563TIP3    H280181   5.464   3.745   4.938 -2.0070 -1.4655  0.2103
19564TIP3   OH280182   6.021   4.344  12.282 -0.5173  0.2003  0.1048
19564TIP3    H180183   6.115   4.365  12.282 -1.0767  3.1726  0.3771
19564TIP3    H280184   5.985   4.398  12.211 -2.4345  1.6958  2.0806
19565TIP3   OH280185   0.161   5.976  13.257  0.7270 -0.3604  0.2088
19565TIP3    H180186   0.126   5.941  13.339 -0.5334 -0.3752 -0.3129
19565TIP3    H280187   0.202   5.901  13.215  0.1045 -0.6864  0.1697
19566TIP3   OH280188   0.271   1.546  12.448  0.1977 -0.0878  0.4107
19566TIP3    H180189   0.221   1.471  12.479 -0.1248  0.2647  0.7618
19566TIP3    H280190   0.235   1.621  12.496  2.0491 -0.0201  1.8003
19567TIP3   OH280191   6.507   4.776   0.051  0.4569 -0.6739 -0.2219
19567TIP3    H180192   6.453   4.853   0.030 -1.6154 -1.9646  0.0611
19567TIP3    H280193   6.536   4.791   0.141  0.0392 -0.2382 -0.1570
19568TIP3   OH280194   3.753   3.871  16.021  0.5075 -0.1339  0.1427
19568TIP3    H180195   3.837   3.851  15.978 -0.0690 -0.2943 -0.9393
19568TIP3    H280196   3.730   3.790  16.067  0.4501 -0.4317 -0.4038
19569TIP3   OH280197   5.875   3.037  16.262 -0.1037  0.1083  0.5843
19569TIP3    H180198   5.872   3.099  16.189  0.6843 -0.3770  0.1260
19569TIP3    H280199   5.939   3.075  16.322  1.2295 -0.7840 -0.2161
19570TIP3   OH280200   3.152   0.483  14.793  0.1503 -0.0985  0.3822
19570TIP3    H180201   3.059   0.464  14.783  0.0076  0.7885 -0.0701
19570TIP3    H280202   3.169   0.471  14.886 -0.5859  0.4672  0.5943
19571TIP3   OH280203   1.136   5.656   3.864 -0.0182 -0.0024 -0.0348
19571TIP3    H180204   1.158   5.625   3.952  1.1727 -1.5463 -0.8194
19571TIP3    H280205   1.048   5.622   3.847 -0.0876 -0.0401  0.3972
19572TIP3   OH280206   0.021   6.078   2.563  0.1971  0.7766  0.5055
19572TIP3    H180207   0.066   6.146   2.614  0.3455  0.0287  1.3886
19572TIP3    H280208  -0.072   6.097   2.576  0.2396  1.1200  0.3215
19573TIP3   OH280209   1.351   3.177  15.061  0.6262 -0.1353  0.3945
19573TIP3    H180210   1.278   3.177  14.999 -0.3730 -1.0588  1.5050
19573TIP3    H280211   1.326   3.244  15.126  0.0749 -1.3466  1.4903
19574TIP3   OH280212   0.205   5.994  16.829 -0.3554  0.2235 -0.2449
19574TIP3    H180213   0.284   5.962  16.871 -0.6688 -0.4027 -0.1153
19574TIP3    H280214   0.178   5.923  16.771 -1.5519 -0.1309  0.7070
19575TIP3   OH280215   0.373   6.787   1.486 -0.3649 -0.1038 -0.7202
19575TIP3    H180216   0.381   6.768   1.392 -0.1971  1.1218 -0.9707
19575TIP3    H280217   0.410   6.710   1.529 -0.8100 -0.8664 -1.6442
19576TIP3   OH280218   4.187   1.742   2.892 -0.0807  0.0339  0.4321
19576TIP3    H180219   4.105   1.793   2.892 -0.3249 -0.2767  2.2304
19576TIP3    H280220   4.253   1.804   2.861 -1.0607  0.0871 -1.7400
19577TIP3   OH280221   4.254   1.737   1.235  0.3830 -0.1989 -0.5585
19577TIP3    H180222   4.174   1.762   1.281  1.8547  1.3773  1.3018
19577TIP3    H280223   4.261   1.800   1.163  0.6304  0.5555  0.1081
19578TIP3   OH280224   3.930   0.844   2.221 -0.2671 -0.1686  0.4098
19578TIP3    H180225   3.861   0.846   2.287 -1.2211 -0.2155 -0.5630
19578TIP3    H280226   3.939   0.752   2.199 -0.3564 -0.0915  0.0550
19579TIP3   OH280227   2.026   6.146  14.979 -0.2016  0.2836 -0.3459
19579TIP3    H180228   1.964   6.219  14.983  0.4130  0.7804  0.4940
19579TIP3    H280229   1.979   6.073  15.019 -1.1133 -0.0329 -1.9089
19580TIP3   OH280230   3.609   6.812  13.231 -0.1177 -0.2058 -0.2558
19580TIP3    H180231   3.633   6.760  13.308 -0.9418 -0.8651 -0.4356
19580TIP3    H280232   3.639   6.761  13.156  1.0021  0.6019 -0.3775
19581TIP3   OH280233   2.518   2.557  13.008  0.0304 -0.3954 -0.1029
19581TIP3    H180234   2.489   2.642  12.973 -1.9097 -0.1181  1.9441
19581TIP3    H280235   2.564   2.578  13.088 -0.6635 -1.2595  0.5463
19582TIP3   OH280236   1.854   2.680   1.020 -0.2042 -0.0309  0.0593
19582TIP3    H180237   1.818   2.752   0.970 -0.2082  0.0067  0.1156
19582TIP3    H280238   1.861   2.714   1.110 -0.3756 -0.1566  0.1227
19583TIP3   OH280239   5.103   1.084   4.168 -0.0495 -0.5145  0.4989
19583TIP3    H180240   5.023   1.045   4.132  1.5165 -2.4607 -1.1499
19583TIP3    H280241   5.091   1.081   4.263 -1.7131 -1.2515  0.3005
19584TIP3   OH280242   3.470   1.702  12.073  0.2133 -0.3395  0.3534
19584TIP3    H180243   3.467   1.783  12.022  0.2733 -0.2971  0.4172
19584TIP3    H280244   3.551   1.659  12.045 -0.1626 -0.7101 -0.1881
19585TIP3   OH280245   5.941   4.569   0.764  0.5054 -0.1302  0.1815
19585TIP3    H180246   6.015   4.601   0.712  2.7858  3.5529  4.8485
19585TIP3    H280247   5.975   4.491   0.809  0.6858  0.0939  0.4393
19586TIP3   OH280248   4.556   2.090   1.987 -0.2372 -0.3794 -0.5454
19586TIP3    H180249   4.646   2.084   1.954 -0.0624 -0.3053 -0.0803
19586TIP3    H280250   4.544   2.182   2.009 -0.2799 -0.4669 -0.1928
19587TIP3   OH280251   3.297   5.461  11.545  1.1732 -0.2045  0.1190
19587TIP3    H180252   3.205   5.484  11.533  1.3624  0.7846  0.3991
19587TIP3    H280253   3.340   5.493  11.466  1.3187 -0.3614  0.1354
19588TIP3   OH280254   2.220   5.848  12.659 -0.0218 -0.3315  0.1203
19588TIP3    H180255   2.196   5.881  12.572 -3.7225 -2.3948  0.1653
19588TIP3    H280256   2.300   5.798  12.644 -0.3496 -0.3337 -2.0571
19589TIP3   OH280257   5.039   3.724  14.153 -0.4932 -0.5816 -0.4919
19589TIP3    H180258   5.010   3.809  14.120 -1.4865 -0.3205  0.9487
19589TIP3    H280259   5.113   3.700  14.097 -1.2732  0.4157 -2.0195
19590TIP3   OH280260   0.698   1.482  12.041 -0.3195  0.1539 -0.4613
19590TIP3    H180261   0.729   1.394  12.062 -0.5931  0.1177 -0.2095
19590TIP3    H280262   0.633   1.469  11.972 -0.4371  0.1475 -0.3504
19591TIP3   OH280263   2.040   5.329   3.202  0.2311  0.2892  0.2177
19591TIP3    H180264   2.056   5.345   3.109 -0.7487 -1.3359 -0.2694
19591TIP3    H280265   1.963   5.381   3.223 -0.1590 -0.1367 -0.1502
19592TIP3   OH280266   1.048   1.298  11.919 -0.0277  0.2830  0.1195
19592TIP3    H180267   1.129   1.261  11.884  0.6642  1.1010  0.8115
19592TIP3    H280268   1.077   1.366  11.979 -1.2331  0.3370  0.6655
19593TIP3   OH280269   4.708   3.389   4.489  0.0053 -0.2082  0.7236
19593TIP3    H180270   4.654   3.310   4.485 -0.8100  0.2993  1.2492
19593TIP3    H280271   4.688   3.435   4.407  0.3210 -0.4374  0.5137
19594TIP3   OH280272   1.978   4.769   1.714 -0.2141 -0.4281  0.1961
19594TIP3    H180273   1.994   4.863   1.719 -1.0987 -0.2762  0.2793
19594TIP3    H280274   2.012   4.743   1.628  1.2987 -0.2975  0.7295
19595TIP3   OH280275   1.659   3.883   5.562 -0.1535  0.8010 -0.2076
19595TIP3    H180276   1.728   3.948   5.555  0.7373 -0.0434  0.4210
19595TIP3    H280277   1.641   3.856   5.472  0.5841  0.7782 -0.3486
19596TIP3   OH280278   1.414   3.775   0.642 -0.1290  0.0226 -0.2281
19596TIP3    H180279   1.414   3.827   0.562 -1.5212 -1.8445 -1.5429
19596TIP3    H280280   1.360   3.826   0.703 -0.8222  0.5100 -1.2134
19597TIP3   OH280281   0.568   0.475  14.338  0.2396  0.3056  0.8660
19597TIP3    H180282   0.639   0.422  14.373  0.5124  0.4338  0.5270
19597TIP3    H280283   0.489   0.441  14.378  0.5303  0.3714  1.4997
19598TIP3   OH280284   3.774   2.146   1.709 -0.3555  0.2160  0.1635
19598TIP3    H180285   3.809   2.111   1.627 -0.8763  0.5667 -0.2200
19598TIP3    H280286   3.841   2.127   1.774 -0.2229 -0.6717 -0.2096
19599TIP3   OH280287   1.011   2.579  13.165  0.1582  0.4811  0.7117
19599TIP3    H180288   1.010   2.672  13.142 -0.4781  0.0616 -1.1695
19599TIP3    H280289   0.933   2.543  13.122  1.3252 -1.2328 -0.0854
19600TIP3   OH280290   4.771   1.665  11.906 -0.0419  0.4998 -0.0941
19600TIP3    H180291   4.722   1.638  11.827  0.4879  0.9575 -0.5878
19600TIP3    H280292   4.754   1.759  11.914 -1.5292  0.1434  1.3776
19601TIP3   OH280293   4.925   4.878  16.422 -0.0861  0.0916  0.1618
19601TIP3    H180294   4.919   4.966  16.459 -2.0446  0.5775 -1.1961
19601TIP3    H280295   5.010   4.876  16.379 -0.6287  1.8965 -1.1026
19602TIP3   OH280296   0.222   3.943  13.064  0.3610  0.4434  0.2375
19602TIP3    H180297   0.180   3.894  13.135 -0.7012  1.3171  0.2419
19602TIP3    H280298   0.157   3.945  12.995  0.2136  2.1744  0.3911
19603TIP3   OH280299   0.313   4.375   5.283 -0.0020 -0.7405  0.5424
19603TIP3    H180300   0.408   4.381   5.280 -0.0119  0.9209  2.0835
19603TIP3    H280301   0.293   4.355   5.375 -1.2162  2.5712  1.1234
19604TIP3   OH280302   1.027   1.143   0.916  0.3431  0.1478  1.1008
19604TIP3    H180303   1.088   1.205   0.957  0.3442  0.8073  0.1441
19604TIP3    H280304   1.078   1.064   0.902  1.2358  0.9631 -0.4228
19605TIP3   OH280305   2.186   4.591   4.300 -0.3798 -0.9799  0.2470
19605TIP3    H180306   2.264   4.536   4.307 -0.2570 -0.9835 -0.9191
19605TIP3    H280307   2.220   4.679   4.286 -0.5708 -0.5085  2.3799
19606TIP3   OH280308   1.156   6.726   1.262 -0.1462  0.1296  0.0045
19606TIP3    H180309   1.121   6.669   1.330  2.4135 -0.7809  0.6771
19606TIP3    H280310   1.224   6.674   1.219  1.4443  2.2158 -0.2008
19607TIP3   OH280311   0.645   2.805  13.492  0.0037 -0.2906 -0.0680
19607TIP3    H180312   0.613   2.780  13.406  1.6891 -1.3688 -0.4260
19607TIP3    H280313   0.693   2.728  13.523  0.7382  0.6308  1.1665
19608TIP3   OH280314   0.597   5.080   1.621 -0.1657  0.5581 -0.0196
19608TIP3    H180315   0.653   5.116   1.690  0.9901 -1.2441  0.0777
19608TIP3    H280316   0.522   5.138   1.617  0.7406  1.8853  1.3173
19609TIP3   OH280317   2.242   3.175  12.260  0.7264 -0.1236  0.1209
19609TIP3    H180318   2.152   3.198  12.281 -0.3226 -3.2293 -0.4826
19609TIP3    H280319   2.260   3.220  12.178 -0.5881 -0.1957 -0.2246
19610TIP3   OH280320   2.393   5.442  12.994 -0.7231  0.3266 -0.2318
19610TIP3    H180321   2.314   5.428  12.943 -0.5894 -1.4477 -0.0505
19610TIP3    H280322   2.364   5.488  13.072 -1.6980 -0.7727  0.0819
19611TIP3   OH280323   0.932   2.618  12.806  0.8695 -0.3378  0.0665
19611TIP3    H180324   0.960   2.541  12.756  1.0312 -0.4269  0.2907
19611TIP3    H280325   0.849   2.592  12.845  1.0809 -0.5169  0.4046
19612TIP3   OH280326   1.912   4.705  10.997  0.5747 -0.3946  0.6192
19612TIP3    H180327   1.946   4.733  10.912  1.2576 -0.2444  0.9372
19612TIP3    H280328   1.830   4.660  10.976  0.5909 -0.1107 -0.0921
19613TIP3   OH280329   6.145   2.277   3.882  0.2586  0.0019 -0.3771
19613TIP3    H180330   6.235   2.245   3.871  0.5369 -0.8118  3.1151
19613TIP3    H280331   6.090   2.199   3.870  0.0383  0.3103 -1.5473
19614TIP3   OH280332   3.079   1.282   2.255  0.6232  0.6885 -0.3300
19614TIP3    H180333   3.160   1.329   2.276  0.3958  1.5005 -1.1544
19614TIP3    H280334   3.018   1.352   2.230 -0.8055  0.2231  1.6976
19615TIP3   OH280335   2.606   5.107  15.110 -0.1904 -0.3815 -0.0112
19615TIP3    H180336   2.550   5.053  15.166 -1.1146  0.2265 -0.3227
19615TIP3    H280337   2.660   5.158  15.171 -0.2929 -0.6473  0.3020
19616TIP3   OH280338   0.164   5.790  12.849 -0.3058  0.7841 -0.0841
19616TIP3    H180339   0.164   5.748  12.935 -0.4123  1.0340  0.0376
19616TIP3    H280340   0.096   5.743  12.800 -0.6490  1.0262  0.1556
19617TIP3   OH280341   4.783   1.511   6.498  0.6905 -0.3792  0.3587
19617TIP3    H180342   4.736   1.499   6.580  1.4108  0.5334  0.9339
19617TIP3    H280343   4.801   1.605   6.494 -0.3603 -0.2006 -1.4377
19618TIP3   OH280344   5.839   1.660  15.863 -0.0005 -0.2969 -0.5068
19618TIP3    H180345   5.911   1.620  15.912 -0.0535  0.5582  0.2908
19618TIP3    H280346   5.781   1.695  15.930  0.6773  2.2657 -1.1667
19619TIP3   OH280347   3.408   0.450  15.509  0.5262  0.2837  0.5337
19619TIP3    H180348   3.415   0.383  15.576  3.0611  0.1509  0.2240
19619TIP3    H280349   3.334   0.504  15.537 -1.6603 -2.6059  0.7463
19620TIP3   OH280350   2.912   4.494  15.991  0.3183 -0.4827  0.3813
19620TIP3    H180351   2.877   4.514  16.078  0.9713 -0.5147  0.6566
19620TIP3    H280352   2.995   4.450  16.008  0.2475 -0.8704 -0.2577
19621TIP3   OH280353   0.478   5.976  12.604 -0.2856  0.2331 -0.5925
19621TIP3    H180354   0.442   5.987  12.692  1.3399 -1.3252  0.3532
19621TIP3    H280355   0.420   6.026  12.548 -1.5558  1.0531  1.3246
19622TIP3   OH280356   4.349   2.180   3.900  0.9549 -0.2252 -0.0656
19622TIP3    H180357   4.443   2.199   3.907  0.9758 -0.7098  1.3229
19622TIP3    H280358   4.344   2.103   3.843  1.4557 -0.5674  0.3414
19623TIP3   OH280359   2.973   0.986   6.130 -0.3111  0.9456  0.1525
19623TIP3    H180360   3.030   1.041   6.077  1.1298 -0.1162  0.5356
19623TIP3    H280361   2.914   1.047   6.173  1.5587  2.2558  0.9656
19624TIP3   OH280362   2.235   1.196   5.107 -0.2620 -0.1588  0.7890
19624TIP3    H180363   2.179   1.197   5.029  0.9483  0.0097 -0.0995
19624TIP3    H280364   2.257   1.288   5.122 -0.5786 -0.1796  1.4017
19625TIP3   OH280365   2.920   0.344  11.100 -0.6354  0.0258  0.1092
19625TIP3    H180366   2.948   0.272  11.042 -0.9467  1.4431 -1.9207
19625TIP3    H280367   2.999   0.398  11.110 -0.9874  0.6532 -0.3891
19626TIP3   OH280368   3.574   1.155  15.154  0.0230  0.3338 -0.2400
19626TIP3    H180369   3.560   1.233  15.100 -0.0276 -0.7803 -1.9437
19626TIP3    H280370   3.489   1.111  15.156  0.2315 -0.0607  0.0506
19627TIP3   OH280371   0.172   0.480  12.825 -0.0342  0.0666 -0.4354
19627TIP3    H180372   0.128   0.547  12.771 -0.0282 -0.9680 -1.7845
19627TIP3    H280373   0.243   0.527  12.868  0.5255  0.7690 -2.0474
19628TIP3   OH280374   1.501   4.533  17.014  0.3478 -0.0157  0.3717
19628TIP3    H180375   1.584   4.542  17.061  0.5634  1.7182 -0.3008
19628TIP3    H280376   1.485   4.438  17.011  1.8172 -0.3133  1.3204
19629TIP3   OH280377   6.811   4.793  13.253 -0.0642 -0.8053  0.0879
19629TIP3    H180378   6.841   4.831  13.335  0.9745 -3.1659  0.9074
19629TIP3    H280379   6.838   4.701  13.258  2.1506 -0.6090 -3.8887
19630TIP3   OH280380   2.875   3.086  11.820  0.4713  0.0352  0.1405
19630TIP3    H180381   2.970   3.078  11.820  0.4401 -0.3579 -0.1313
19630TIP3    H280382   2.857   3.160  11.878  1.0464  1.3431 -1.2851
19631TIP3   OH280383   0.047   0.204   1.402  0.0800 -0.1953  0.0037
19631TIP3    H180384   0.139   0.213   1.428  0.0298 -0.8289  0.4466
19631TIP3    H280385   0.010   0.147   1.469 -0.4757 -0.4955 -0.5525
19632TIP3   OH280386   1.196   2.084  12.577 -0.3578  0.3100 -0.3792
19632TIP3    H180387   1.102   2.078  12.594 -0.4812  2.4810 -0.0235
19632TIP3    H280388   1.203   2.075  12.482 -0.9530  0.5165 -0.4466
19633TIP3   OH280389   2.034   4.971   5.870  0.4614 -0.0225 -0.4070
19633TIP3    H180390   2.095   5.037   5.838  1.6116 -0.4639  0.7527
19633TIP3    H280391   2.066   4.951   5.958 -1.4149 -0.2291  0.2641
19634TIP3   OH280392   6.359   1.353   3.721 -0.2553 -0.1451 -0.3953
19634TIP3    H180393   6.295   1.288   3.750 -0.5185 -0.4346 -1.5748
19634TIP3    H280394   6.410   1.307   3.654  0.2720  0.5300 -0.4599
19635TIP3   OH280395   5.756   6.476   2.114 -0.5852 -0.0761 -0.0565
19635TIP3    H180396   5.739   6.385   2.135 -2.5413  0.2799  0.1001
19635TIP3    H280397   5.686   6.501   2.053  0.4333  1.0832 -0.8284
19636TIP3   OH280398   3.864   4.998  15.460  0.6085  0.4041 -0.1282
19636TIP3    H180399   3.801   4.968  15.394  1.3653 -1.5442 -0.0144
19636TIP3    H280400   3.817   4.991  15.543  0.0987  1.5910 -0.2927
19637TIP3   OH280401   2.122   2.286  11.596 -0.3008  0.8129  0.1153
19637TIP3    H180402   2.188   2.267  11.529  0.6629  1.9690  0.6888
19637TIP3    H280403   2.038   2.269  11.553  0.3529 -0.6807 -0.6418
19638TIP3   OH280404   2.633   4.369   2.895  0.2362  0.2685  0.9431
19638TIP3    H180405   2.655   4.447   2.844  0.5610 -0.1884  0.3568
19638TIP3    H280406   2.538   4.370   2.903  0.1257  0.0847 -0.1398
19639TIP3   OH280407   2.567   3.006   5.002  0.1913 -0.8015 -0.4582
19639TIP3    H180408   2.501   2.952   5.045 -1.9216  0.9196 -1.3309
19639TIP3    H280409   2.598   2.953   4.928 -1.2558 -1.1562 -0.8387
19640TIP3   OH280410   1.703   2.967  11.859  0.5515  0.2826  0.5693
19640TIP3    H180411   1.641   2.943  11.790 -0.6653  1.1156  1.3268
19640TIP3    H280412   1.771   3.017  11.815 -0.4616  1.2244  0.0263
19641TIP3   OH280413   3.240   4.421  12.287  0.4745 -0.3835  0.1549
19641TIP3    H180414   3.321   4.374  12.309  2.1917  2.0481 -0.5865
19641TIP3    H280415   3.227   4.406  12.194  0.0834 -0.6904  0.2523
19642TIP3   OH280416   0.243   6.173   4.855  0.0045  0.3162  0.3027
19642TIP3    H180417   0.269   6.116   4.783  0.1287  0.5901  0.1278
19642TIP3    H280418   0.176   6.230   4.818  0.7458  1.1019  0.1229
19643TIP3   OH280419   1.242   0.330  13.744 -0.3544  0.3504  0.1304
19643TIP3    H180420   1.305   0.336  13.816 -0.2622 -0.7395  0.1467
19643TIP3    H280421   1.158   0.310  13.786 -0.5418  0.8768  0.0243
19644TIP3   OH280422   6.182   4.724   3.622  0.7723 -0.3280  0.1223
19644TIP3    H180423   6.189   4.633   3.652  1.4804 -0.8960 -1.6193
19644TIP3    H280424   6.266   4.741   3.580  0.8605  1.3443  0.9023
19645TIP3   OH280425   5.979   2.009  15.090  0.0395  0.1531  0.0252
19645TIP3    H180426   5.887   2.029  15.111  0.4536 -0.2220  2.4550
19645TIP3    H280427   6.026   2.024  15.172  1.9346 -1.1085 -0.7662
19646TIP3   OH280428   5.429   5.599  11.995  0.0742  0.3104  0.1045
19646TIP3    H180429   5.339   5.618  11.969 -0.0039  0.3659  0.4116
19646TIP3    H280430   5.477   5.591  11.912 -0.3604 -0.4590 -0.0798
19647TIP3   OH280431   3.878   1.205  17.212 -0.1635  0.0101  0.3521
19647TIP3    H180432   3.911   1.131  17.160  3.4692  1.5257  0.1849
19647TIP3    H280433   3.807   1.241  17.159  0.5857 -1.0851 -1.5150
19648TIP3   OH280434   0.236   1.955  11.971 -0.3927 -0.2292  0.3712
19648TIP3    H180435   0.313   1.983  11.922  0.4649 -1.6699  0.8517
19648TIP3    H280436   0.196   1.888  11.916 -0.3967 -0.6288  0.8607
19649TIP3   OH280437   4.608   0.546   1.434 -0.1578 -0.9460  0.5856
19649TIP3    H180438   4.628   0.591   1.516  0.1554 -0.2546  0.1384
19649TIP3    H280439   4.677   0.480   1.426 -0.6485 -1.5492  1.2708
19650TIP3   OH280440   2.231   5.075  12.371  0.0143 -0.3722 -0.0859
19650TIP3    H180441   2.260   5.062  12.462  1.1365  1.0737 -0.1985
19650TIP3    H280442   2.139   5.051  12.372  0.3613 -1.8480  1.0813
19651TIP3   OH280443   6.414   0.363   2.742  0.5293  0.2978  0.3994
19651TIP3    H180444   6.390   0.287   2.794  0.9854 -0.9370 -1.1330
19651TIP3    H280445   6.510   0.359   2.736  0.7162  1.9227  1.6259
19652TIP3   OH280446   0.247   2.597   2.732  0.1770  0.1856 -0.3513
19652TIP3    H180447   0.339   2.573   2.721  0.0940 -0.8138  0.8940
19652TIP3    H280448   0.206   2.518   2.766 -0.4913  1.5117  2.1828
19653TIP3   OH280449   1.133   2.836   0.021 -0.3643 -0.4206  0.1101
19653TIP3    H180450   1.187   2.915   0.017 -0.9845  0.0759  1.2051
19653TIP3    H280451   1.063   2.851  -0.042  0.1153 -0.5772 -0.4759
19654TIP3   OH280452   1.381   4.257   4.601 -0.4316  0.7546 -0.2735
19654TIP3    H180453   1.331   4.335   4.576 -0.6007  1.6594  2.5289
19654TIP3    H280454   1.462   4.292   4.638  0.1804 -0.5053 -0.3686
19655TIP3   OH280455   2.758   6.449  15.877 -0.4066  0.4184  0.4469
19655TIP3    H180456   2.824   6.461  15.809 -1.1067  0.7203 -0.1925
19655TIP3    H280457   2.784   6.368  15.921  0.1258  0.2789 -0.1012
19656TIP3   OH280458   1.797   0.445   3.670  0.3004  0.0096 -0.1903
19656TIP3    H180459   1.750   0.483   3.595  2.6972 -0.6018 -2.1510
19656TIP3    H280460   1.869   0.396   3.630  2.3879  0.6008  2.5992
19657TIP3   OH280461   5.819   1.877  15.307 -0.1912 -0.6828 -0.3006
19657TIP3    H180462   5.849   1.827  15.383 -1.7824  0.0598  0.8786
19657TIP3    H280463   5.773   1.812  15.253  0.5031 -1.1128 -0.3899
19658TIP3   OH280464   4.273   5.496   6.502  0.4499  0.6289  0.3292
19658TIP3    H180465   4.204   5.482   6.567 -0.1176  1.2855 -0.1154
19658TIP3    H280466   4.348   5.526   6.553  0.8264 -1.2636  0.9667
19659TIP3   OH280467   4.104   6.241   4.639  0.2506  0.0420 -0.2507
19659TIP3    H180468   4.171   6.276   4.580  0.4166 -1.3201 -0.9098
19659TIP3    H280469   4.150   6.175   4.691 -0.4788 -0.6195 -0.4234
19660TIP3   OH280470   1.327   5.629  15.139  0.1202  0.1276 -0.3432
19660TIP3    H180471   1.300   5.540  15.117 -1.7666  0.4732  0.3561
19660TIP3    H280472   1.404   5.645  15.085 -0.7027 -1.2135 -2.0162
19661TIP3   OH280473   1.499   6.694  15.939  0.3185 -0.0409  0.4270
19661TIP3    H180474   1.414   6.715  15.902  0.4519 -0.6223 -0.2598
19661TIP3    H280475   1.528   6.618  15.888  1.3789  0.3429  0.4327
19662TIP3   OH280476   5.365   5.689   1.756  0.4530  0.1451  0.0670
19662TIP3    H180477   5.440   5.629   1.752 -0.4686 -1.0185 -0.2401
19662TIP3    H280478   5.398   5.770   1.718  1.5371 -0.3710 -0.1418
19663TIP3   OH280479   2.154   5.175   1.151  0.4062 -0.7497  0.2754
19663TIP3    H180480   2.246   5.200   1.153  0.1922  0.1085 -0.3856
19663TIP3    H280481   2.133   5.155   1.243  0.8480  0.5592  0.6835
19664TIP3   OH280482   5.041   1.263  15.603  0.4777 -1.3056 -0.4240
19664TIP3    H180483   5.092   1.306  15.672 -0.5262 -0.5502 -0.1218
19664TIP3    H280484   5.058   1.314  15.524 -0.6379 -0.3675 -0.0865
19665TIP3   OH280485   3.726   1.169  16.117  0.3532  0.6912  0.0127
19665TIP3    H180486   3.697   1.201  16.203  0.7002  1.5908 -0.1898
19665TIP3    H280487   3.812   1.131  16.133 -0.2396 -0.5592  0.3321
19666TIP3   OH280488   3.502   4.506  13.988 -0.5528 -0.2076 -0.0255
19666TIP3    H180489   3.461   4.531  13.905  0.4045  0.5359 -0.2898
19666TIP3    H280490   3.464   4.566  14.052 -0.8230 -0.3659 -0.0351
19667TIP3   OH280491   3.732   3.374  12.402  0.1946 -0.1858  0.4816
19667TIP3    H180492   3.667   3.307  12.423  0.2189  0.1656  1.7851
19667TIP3    H280493   3.778   3.390  12.484  0.9197  0.6543 -0.0621
19668TIP3   OH280494   1.757   3.872  11.015  0.5186  0.5277 -0.9791
19668TIP3    H180495   1.829   3.924  11.049  1.0210  0.3026 -1.6645
19668TIP3    H280496   1.713   3.930  10.952 -1.4548  1.5528  1.2107
19669TIP3   OH280497   5.191   0.852  17.127  0.1469 -0.2922  0.6707
19669TIP3    H180498   5.105   0.848  17.167 -0.8686 -0.7632 -1.4130
19669TIP3    H280499   5.243   0.788  17.175 -0.9704 -0.7620  1.2875
19670TIP3   OH280500   2.037   3.058   3.927  0.1461 -0.2830  0.3378
19670TIP3    H180501   1.992   3.104   3.999  0.3300 -0.1120  0.3456
19670TIP3    H280502   2.009   2.967   3.935 -0.5345 -0.1036  0.0873
19671TIP3   OH280503   1.639   4.014  16.946  0.3899  0.2842  0.7640
19671TIP3    H180504   1.730   4.007  16.916  0.6534 -0.9117  1.7706
19671TIP3    H280505   1.625   3.937  17.000 -0.9067  1.0057  1.5151
19672TIP3   OH280506   1.677   2.425  15.363  0.2578 -0.2148  0.4012
19672TIP3    H180507   1.713   2.490  15.303 -1.5022  1.6618  1.2350
19672TIP3    H280508   1.582   2.432  15.352 -0.1132 -4.7691 -1.5449
19673TIP3   OH280509   0.308   1.595  14.301  0.5626  0.1771 -0.2099
19673TIP3    H180510   0.359   1.551  14.370  1.4211 -0.4054 -1.1907
19673TIP3    H280511   0.217   1.573  14.321  0.7566  0.3784  0.9865
19674TIP3   OH280512   5.231   4.568   6.327 -0.0421 -0.2963  0.2970
19674TIP3    H180513   5.249   4.615   6.409 -0.5280  0.1548  0.1454
19674TIP3    H280514   5.292   4.493   6.329  0.3892  0.0593  0.7718
19675TIP3   OH280515   6.747   0.899   5.371  0.1025 -0.0482 -0.2085
19675TIP3    H180516   6.799   0.836   5.422  0.4600 -0.7945 -1.4473
19675TIP3    H280517   6.811   0.964   5.341 -0.3978  1.4654  1.7907
19676TIP3   OH280518   1.407   5.898  16.707  0.4703  0.5156  0.7444
19676TIP3    H180519   1.360   5.815  16.713  1.7682 -0.3090 -0.0817
19676TIP3    H280520   1.451   5.894  16.622  1.3446  1.6294  1.1279
19677TIP3   OH280521   4.066   4.403   1.835 -0.1742 -0.1979  0.0005
19677TIP3    H180522   4.089   4.354   1.914 -1.0618  0.7516  0.8807
19677TIP3    H280523   3.972   4.421   1.845 -0.1440  0.5504 -0.9357
19678TIP3   OH280524   2.638   1.010   2.761  0.3145  0.1594 -0.3941
19678TIP3    H180525   2.698   1.084   2.746 -0.4033  1.1296  1.3051
19678TIP3    H280526   2.696   0.939   2.788  1.0371 -0.0147 -2.2348
19679TIP3   OH280527   0.980   3.330  11.324 -0.0563  0.4491 -0.0618
19679TIP3    H180528   0.942   3.303  11.240 -1.3541  0.0188  0.6317
19679TIP3    H280529   0.920   3.293  11.390  1.3926  0.0599  1.0781
19680TIP3   OH280530   2.595   3.021  15.285  0.5057  0.4810  0.5686
19680TIP3    H180531   2.600   3.114  15.263  1.3277 -0.0177 -1.5830
19680TIP3    H280532   2.501   3.001  15.280  0.4769  0.8323 -0.7995
19681TIP3   OH280533   0.545   4.415   1.200 -0.1276 -0.4068  0.2830
19681TIP3    H180534   0.523   4.325   1.179  0.6286 -0.7493  0.9199
19681TIP3    H280535   0.641   4.418   1.198 -0.1482  0.5544 -0.4145
19682TIP3   OH280536   6.106   0.621  13.208 -0.3626  0.2687  0.2593
19682TIP3    H180537   6.136   0.605  13.297  1.2037  0.6289 -0.1840
19682TIP3    H280538   6.034   0.685  13.218 -0.8094 -0.3689  1.3091
19683TIP3   OH280539   1.978   0.515   2.907  0.1881  0.1461 -0.3957
19683TIP3    H180540   1.927   0.589   2.941  0.0527  0.0727 -0.4417
19683TIP3    H280541   2.005   0.543   2.819  1.0035  0.5667 -0.0303
19684TIP3   OH280542   3.113   1.625   4.765 -0.3622 -0.6445 -0.7059
19684TIP3    H180543   3.121   1.703   4.711 -1.2166 -0.5162 -0.6610
19684TIP3    H280544   3.191   1.574   4.746  0.6353  0.6132 -0.0916
19685TIP3   OH280545   5.829   1.575   5.065 -0.5318 -0.1588 -0.1703
19685TIP3    H180546   5.857   1.652   5.015  0.0526 -0.2339  0.0304
19685TIP3    H280547   5.870   1.586   5.151 -1.0825 -0.3060  0.1151
19686TIP3   OH280548   0.923   3.545   3.896 -0.1735 -0.1670 -0.0851
19686TIP3    H180549   0.952   3.581   3.980  0.2414  0.4350 -0.4760
19686TIP3    H280550   0.988   3.480   3.874 -1.1985 -1.5853  0.8725
19687TIP3   OH280551   1.054   0.480   0.941  0.0413 -0.4041 -0.1498
19687TIP3    H180552   1.030   0.404   0.888  0.8349 -0.0678 -1.0088
19687TIP3    H280553   1.141   0.459   0.975 -0.2685 -0.4161  0.6627
19688TIP3   OH280554   0.681   4.164  15.923  0.7674 -0.5444  0.3937
19688TIP3    H180555   0.744   4.169  15.851  0.9884 -0.3767  0.5991
19688TIP3    H280556   0.631   4.245  15.917  0.2890 -0.8595 -0.0235
19689TIP3   OH280557   4.077   2.853   2.789 -0.6893 -0.2428  0.1062
19689TIP3    H180558   3.990   2.847   2.829  0.1725 -1.8741  1.9228
19689TIP3    H280559   4.129   2.788   2.836  1.4535  0.4980 -1.1156
19690TIP3   OH280560   0.348   4.262  14.134  0.1591  0.5489 -0.3996
19690TIP3    H180561   0.377   4.320  14.064 -0.4785 -0.3187 -1.4082
19690TIP3    H280562   0.276   4.212  14.096 -2.5355  2.3599  1.8443
19691TIP3   OH280563   1.373   4.745   5.030  0.8657  0.2880 -0.4410
19691TIP3    H180564   1.396   4.823   5.080 -0.2082  0.6863 -0.5522
19691TIP3    H280565   1.317   4.776   4.959  0.4287 -0.5749 -0.4937
19692TIP3   OH280566   0.108   5.967  11.479 -0.1308 -0.1422  0.7094
19692TIP3    H180567   0.031   6.025  11.481  1.2754  1.8892 -0.0058
19692TIP3    H280568   0.092   5.904  11.548 -1.6837  1.2369  1.7081
19693TIP3   OH280569   1.898   0.424   5.296  0.0272 -0.0431  0.2153
19693TIP3    H180570   1.992   0.427   5.311 -0.0611 -0.2965  0.8391
19693TIP3    H280571   1.884   0.346   5.242  0.1509 -0.1318  0.3125
19694TIP3   OH280572   6.120   5.991  13.572 -0.0909 -0.0902 -0.1372
19694TIP3    H180573   6.096   6.049  13.644  0.5639 -0.0706  0.0654
19694TIP3    H280574   6.163   6.047  13.509  1.1028 -0.4445  0.3331
19695TIP3   OH280575   3.794   3.383   1.290  0.5363  0.4548  0.3444
19695TIP3    H180576   3.760   3.465   1.327  2.9189  1.3145  0.8074
19695TIP3    H280577   3.785   3.394   1.196  0.4117  1.0699  0.4230
19696TIP3   OH280578   3.527   3.973  16.147  0.1158 -0.4664 -0.2793
19696TIP3    H180579   3.534   3.929  16.232  1.2307 -1.5710 -0.9115
19696TIP3    H280580   3.603   3.942  16.098  0.8204  1.9832 -0.8719
19697TIP3   OH280581   2.331   4.704   2.042 -0.1283  0.2780  0.2795
19697TIP3    H180582   2.262   4.661   2.093 -3.4231  1.4878 -2.7702
19697TIP3    H280583   2.335   4.656   1.960  2.3991  0.6200  0.1020
19698TIP3   OH280584   4.308   5.928  13.644  0.0190 -0.2847  0.1820
19698TIP3    H180585   4.297   6.003  13.702  2.5753 -0.4926  1.0735
19698TIP3    H280586   4.240   5.866  13.672  0.0586  0.3339  1.7586
19699TIP3   OH280587   3.156   2.840  12.902  0.0204 -0.0959  0.8838
19699TIP3    H180588   3.062   2.824  12.909  0.2013 -0.8288  1.7338
19699TIP3    H280589   3.163   2.917  12.845 -1.0019 -1.2735 -0.9266
19700TIP3   OH280590   3.658   2.608  13.632  0.3580 -0.2075  0.0008
19700TIP3    H180591   3.681   2.683  13.687  1.6253 -1.1162  0.7743
19700TIP3    H280592   3.592   2.561  13.683  0.4512 -0.2669  0.0664
19701TIP3   OH280593   1.717   3.055  12.419 -0.1386 -1.0787  0.5030
19701TIP3    H180594   1.740   3.146  12.437  1.2844 -1.5241  1.0545
19701TIP3    H280595   1.634   3.061  12.372 -0.0881  0.4999  0.5437
19702TIP3   OH280596   0.894   2.547   4.803  0.2231 -0.1514 -0.5043
19702TIP3    H180597   0.922   2.621   4.749 -0.0748 -0.3501 -0.9338
19702TIP3    H280598   0.801   2.537   4.783  0.3563 -0.9068 -0.7600
19703TIP3   OH280599   4.533   4.943   4.099  0.1229  1.1645 -0.1601
19703TIP3    H180600   4.508   4.915   4.187 -0.9035  2.4184 -0.0357
19703TIP3    H280601   4.615   4.990   4.112  0.2922  0.8236  0.0327
19704TIP3   OH280602   4.418   4.695   1.817  0.2422 -0.0903 -0.4652
19704TIP3    H180603   4.385   4.751   1.747  0.2714 -1.0024 -1.2339
19704TIP3    H280604   4.498   4.657   1.781  1.5463  1.1757  0.9254
19705TIP3   OH280605   0.210   4.215  13.454 -0.1333  0.3973 -0.3715
19705TIP3    H180606   0.187   4.129  13.418 -0.8414  1.2529 -2.1015
19705TIP3    H280607   0.170   4.216  13.541  0.6277 -1.3203  0.0370
19706TIP3   OH280608   1.420   5.710   1.244  0.5811 -0.0858  0.0219
19706TIP3    H180609   1.367   5.631   1.234  1.6438 -0.7650 -0.5221
19706TIP3    H280610   1.362   5.773   1.286 -0.4805 -0.9582 -0.0842
19707TIP3   OH280611   4.729   0.905   5.234  0.1079 -0.3567 -0.2756
19707TIP3    H180612   4.709   0.900   5.140 -0.1487  0.3671 -0.2633
19707TIP3    H280613   4.643   0.904   5.276  0.0825  2.0220 -0.1849
19708TIP3   OH280614   1.568   5.597  16.138  0.3542  0.7025  0.0454
19708TIP3    H180615   1.554   5.513  16.181 -2.7462  2.0629  2.0139
19708TIP3    H280616   1.557   5.579  16.045  1.5158 -1.3147  0.2396
19709TIP3   OH280617   2.577   4.130  13.285 -0.2735 -0.2689  0.5106
19709TIP3    H180618   2.603   4.041  13.261  0.4596 -0.2747  1.2729
19709TIP3    H280619   2.627   4.149  13.365 -0.5871  0.7446  0.4815
19710TIP3   OH280620   1.992   2.227   6.199  0.4358  0.2133  0.1767
19710TIP3    H180621   1.972   2.153   6.256  1.9289  0.1662  0.6619
19710TIP3    H280622   1.911   2.279   6.198  0.0871 -0.2698  1.5818
19711TIP3   OH280623   0.898   0.020   1.458  0.6482  0.3226 -0.1878
19711TIP3    H180624   0.819   0.072   1.476  0.8473  0.2492  0.9414
19711TIP3    H280625   0.963   0.084   1.431 -0.3861  0.1966 -3.4821
19712TIP3   OH280626   2.604   5.892  15.833 -0.2764 -0.3963  0.4448
19712TIP3    H180627   2.556   5.974  15.847  0.5698  0.7010 -2.2946
19712TIP3    H280628   2.606   5.850  15.919  0.6353  3.1991  2.3800
19713TIP3   OH280629   0.868   3.512   2.726 -0.4084 -0.6056  0.4598
19713TIP3    H180630   0.961   3.526   2.710 -0.4557  0.0658  0.7463
19713TIP3    H280631   0.838   3.594   2.766 -1.7699  0.3963 -2.3429
19714TIP3   OH280632   3.212   0.740  16.632 -0.3561 -0.4628 -0.3424
19714TIP3    H180633   3.146   0.808  16.620 -0.9485 -0.9132  0.2832
19714TIP3    H280634   3.189   0.673  16.568 -1.7716 -1.5530  1.2468
19715TIP3   OH280635   1.232   4.419   0.103  0.5354 -0.7129 -0.0184
19715TIP3    H180636   1.241   4.333   0.063 -0.8332 -1.3073  0.8784
19715TIP3    H280637   1.229   4.401   0.197 -0.8618  0.1831  0.1387
19716TIP3   OH280638   4.122   2.949   4.014  0.4502  0.5761  0.6369
19716TIP3    H180639   4.100   3.003   4.089 -1.9759 -0.9628  1.1602
19716TIP3    H280640   4.053   2.968   3.950  0.0719 -1.1282  0.4889
19717TIP3   OH280641   1.395   2.548   5.904  0.3713 -0.0014  0.8343
19717TIP3    H180642   1.452   2.529   5.978 -1.5254 -0.7690  2.1856
19717TIP3    H280643   1.320   2.489   5.916 -0.5273  0.6787 -1.0655
19718TIP3   OH280644   5.561   4.517   5.552 -0.2313 -0.6452  0.3943
19718TIP3    H180645   5.488   4.461   5.524  0.2612 -1.6601  1.1065
19718TIP3    H280646   5.536   4.546   5.640  0.6240 -1.7327  1.0115
19719TIP3   OH280647   0.528   5.211  16.660  0.7399  0.2904 -0.4400
19719TIP3    H180648   0.576   5.176  16.584  1.1252  1.4396 -0.7480
19719TIP3    H280649   0.557   5.302  16.666 -0.3256  0.5916  0.2680
19720TIP3   OH280650   2.669   1.430   1.975  0.1362  0.2038 -0.3318
19720TIP3    H180651   2.585   1.459   2.010  0.7652  1.0128  0.5786
19720TIP3    H280652   2.665   1.334   1.978 -0.1294  0.2304  1.3360
19721TIP3   OH280653   0.005   3.956  10.673 -0.2644  0.5454 -0.0818
19721TIP3    H180654   0.077   4.018  10.670  0.7871 -0.4964  1.8490
19721TIP3    H280655   0.036   3.880  10.625  0.0674 -0.0095  0.9784
19722TIP3   OH280656   4.206   6.468   2.728  0.2250 -0.1556 -0.0737
19722TIP3    H180657   4.290   6.450   2.771  0.4033  0.0264 -0.3427
19722TIP3    H280658   4.210   6.420   2.646 -0.0430 -0.3581  0.0297
19723TIP3   OH280659   2.934   0.357   2.296  0.3370  0.3053 -0.5133
19723TIP3    H180660   2.929   0.262   2.305  0.3881  0.1256 -2.0272
19723TIP3    H280661   2.868   0.379   2.230  1.4138  1.0965 -1.3872
19724TIP3   OH280662   1.302   0.284  12.212  0.3198 -0.7754  0.1702
19724TIP3    H180663   1.392   0.254  12.224  0.4788 -0.2742  0.2895
19724TIP3    H280664   1.262   0.219  12.154  0.1831 -2.0661  1.6609
19725TIP3   OH280665   0.940   6.100  12.042  0.0143  0.1964  0.0281
19725TIP3    H180666   0.985   6.023  12.077 -0.5139 -0.6865 -1.1810
19725TIP3    H280667   0.913   6.149  12.120  0.6308 -0.6693  0.8145
19726TIP3   OH280668   5.538   2.804   2.520  0.4815  0.0767  0.0740
19726TIP3    H180669   5.535   2.835   2.610 -0.4052 -0.7234  0.3382
19726TIP3    H280670   5.449   2.774   2.502  0.9494 -0.9333 -0.6571
19727TIP3   OH280671   5.123   3.145  10.740  0.2497  0.4558  0.0794
19727TIP3    H180672   5.169   3.149  10.824 -0.4392  0.3641  0.4693
19727TIP3    H280673   5.164   3.213  10.687  1.8785 -0.6305 -0.1310
19728TIP3   OH280674   1.628   4.745  14.721  0.1550 -0.0521 -0.0639
19728TIP3    H180675   1.581   4.754  14.804 -1.8682 -1.3356 -0.9947
19728TIP3    H280676   1.718   4.725  14.747 -0.6429 -1.4772  1.8716
19729TIP3   OH280677   0.167   5.624   2.491  0.0230 -0.2708  0.3517
19729TIP3    H180678   0.213   5.641   2.409  0.5401  2.2110  1.0688
19729TIP3    H280679   0.096   5.688   2.493 -0.1117 -0.4194  1.7338
19730TIP3   OH280680   4.912   2.503   1.139 -0.4939 -0.3952 -0.3652
19730TIP3    H180681   4.907   2.567   1.211  1.2099 -0.0116 -0.5543
19730TIP3    H280682   4.843   2.440   1.159 -1.2894  0.7260  0.5886
19731TIP3   OH280683   6.045   4.424  13.512 -0.1885 -0.4316 -0.4675
19731TIP3    H180684   6.095   4.404  13.590  0.3491  0.7528 -0.5003
19731TIP3    H280685   6.098   4.487  13.463  0.1047 -2.0794 -2.4384
19732TIP3   OH280686   0.299   2.673   3.380  0.3070  0.1128  0.5029
19732TIP3    H180687   0.343   2.662   3.295  0.2263  1.3160  0.2859
19732TIP3    H280688   0.209   2.645   3.364  0.5639 -0.7200  0.4895
19733TIP3   OH280689   0.140   2.403  13.902  0.1832  0.1937  0.4258
19733TIP3    H180690   0.065   2.458  13.879 -0.2814 -0.4552  0.3474
19733TIP3    H280691   0.101   2.323  13.936  0.8327 -0.3132  0.0081
19734TIP3   OH280692   6.054   0.778  11.520  0.4738 -0.1993 -0.5979
19734TIP3    H180693   6.114   0.796  11.592 -0.7744 -0.5426  0.5754
19734TIP3    H280694   5.999   0.706  11.553 -0.7236  0.2625 -1.5313
19735TIP3   OH280695   6.144   2.611  17.181  0.8220  0.1980  1.0157
19735TIP3    H180696   6.206   2.568  17.239  0.1915 -0.4531  1.2216
19735TIP3    H280697   6.189   2.616  17.097  0.0702 -3.1262  0.2821
19736TIP3   OH280698   0.589   1.491   1.611 -0.0540 -0.6248 -0.1810
19736TIP3    H180699   0.560   1.564   1.557  0.6140 -0.5033 -0.3824
19736TIP3    H280700   0.641   1.436   1.553  0.4947 -0.6018  0.2790
19737TIP3   OH280701   6.746   2.529  16.651 -0.1570  0.0058 -0.8528
19737TIP3    H180702   6.786   2.610  16.684  0.0206 -0.4669  0.1361
19737TIP3    H280703   6.757   2.466  16.723  0.2368 -1.0690 -1.8292
19738TIP3   OH280704   0.441   0.431  15.690 -0.0023 -0.4763  0.1129
19738TIP3    H180705   0.531   0.401  15.701  0.0708  0.2529  1.6756
19738TIP3    H280706   0.447   0.526  15.688 -0.5494 -0.4387 -1.8412
19739TIP3   OH280707   0.828   2.475   4.474 -0.0125 -0.3237  0.0655
19739TIP3    H180708   0.836   2.570   4.485  1.0805 -0.2182 -1.3186
19739TIP3    H280709   0.916   2.442   4.491 -0.5915 -1.2241  1.4743
19740TIP3   OH280710   3.539   2.431   3.884  0.5643 -0.0039 -0.0294
19740TIP3    H180711   3.582   2.346   3.874  0.3628 -0.2858  1.3148
19740TIP3    H280712   3.589   2.490   3.827  2.4051 -0.4355  1.0496
19741TIP3   OH280713   6.012   6.465   5.171  0.1232  0.7743  0.2694
19741TIP3    H180714   6.054   6.525   5.232 -1.5042  1.5346  0.6795
19741TIP3    H280715   5.922   6.497   5.163 -0.0786 -0.0982 -1.4958
19742TIP3   OH280716   0.191   2.135  12.319  0.2793 -0.1460 -0.1449
19742TIP3    H180717   0.127   2.204  12.339  0.3885  0.0778 -0.5738
19742TIP3    H280718   0.149   2.055  12.350  0.7572  0.2704  1.7065
19743TIP3   OH280719   1.248   2.533   5.090 -0.2450 -0.6149  0.5650
19743TIP3    H180720   1.299   2.464   5.048  1.0437 -0.0358  1.1347
19743TIP3    H280721   1.212   2.491   5.169  0.9084 -0.5277  1.1493
19744TIP3   OH280722   5.452   0.183  14.721  0.2870 -0.4350  0.4668
19744TIP3    H180723   5.446   0.148  14.810  0.9439 -0.6331  0.4440
19744TIP3    H280724   5.475   0.107  14.668 -0.4034 -0.3759  0.0761
19745TIP3   OH280725   3.472   1.949   0.792  0.0289 -0.3168  0.0431
19745TIP3    H180726   3.538   1.881   0.782  0.4520  0.2431 -1.1799
19745TIP3    H280727   3.512   2.027   0.753  0.3564  1.1959  3.1248
19746TIP3   OH280728   6.464   5.210   2.856 -0.1280 -0.0027 -0.3603
19746TIP3    H180729   6.467   5.304   2.875 -0.6886 -0.0522 -0.0177
19746TIP3    H280730   6.547   5.193   2.811  0.1411  0.5852 -0.1047
19747TIP3   OH280731   3.048   0.762   5.849  0.4871  0.4526  0.0357
19747TIP3    H180732   3.044   0.667   5.860 -3.3005  0.7714  4.8070
19747TIP3    H280733   3.130   0.787   5.891  1.8855 -0.5792 -1.8933
19748TIP3   OH280734   1.650   6.457  14.495 -0.0382 -0.4404 -0.4346
19748TIP3    H180735   1.605   6.445  14.411 -0.6276 -1.1694 -0.0304
19748TIP3    H280736   1.581   6.477  14.557 -0.0434 -2.7919  0.4445
19749TIP3   OH280737   0.633   1.152  13.198  0.1615  0.0575 -0.0647
19749TIP3    H180738   0.604   1.243  13.197  0.6544  0.2123 -0.7212
19749TIP3    H280739   0.625   1.125  13.290 -1.4213  0.2909 -0.0994
19750TIP3   OH280740   4.010   3.824  15.925 -0.1399  0.2317  0.8516
19750TIP3    H180741   4.098   3.796  15.902 -0.3320 -0.5944  1.0971
19750TIP3    H280742   4.022   3.908  15.969  0.3240  1.3082 -1.2213
19751TIP3   OH280743   2.275   4.949  16.267 -0.6676 -0.5507 -0.6156
19751TIP3    H180744   2.190   4.985  16.294  0.7046  1.5420  1.3343
19751TIP3    H280745   2.302   5.005  16.194  0.2932  0.8164  0.7168
19752TIP3   OH280746   2.931   4.311  15.360 -0.2117  0.2357 -0.0970
19752TIP3    H180747   2.895   4.243  15.418 -1.5360 -0.4740 -1.6865
19752TIP3    H280748   2.858   4.370  15.344  0.2373  0.6135 -0.7872
19753TIP3   OH280749   3.695   3.603   3.732 -0.2622  0.2555 -0.3062
19753TIP3    H180750   3.781   3.627   3.697 -0.1785  0.1465 -0.1735
19753TIP3    H280751   3.644   3.581   3.654  0.0102 -0.2725 -0.3416
19754TIP3   OH280752   4.415   3.837   3.744 -0.3113  0.4237 -0.0986
19754TIP3    H180753   4.414   3.922   3.786 -2.3021 -0.3891  1.6958
19754TIP3    H280754   4.414   3.774   3.817 -3.5238 -1.0565 -1.1865
19755TIP3   OH280755   2.293   4.522  16.106  0.3891  0.1875 -0.4051
19755TIP3    H180756   2.211   4.476  16.123  0.9363 -0.7975 -0.3335
19755TIP3    H280757   2.356   4.452  16.087  1.1659  0.9357 -0.6492
19756TIP3   OH280758   5.626   4.925   1.492 -0.1227 -0.4923  0.5356
19756TIP3    H180759   5.557   4.963   1.437  0.8648 -0.8474 -0.9989
19756TIP3    H280760   5.579   4.892   1.569 -1.6219 -0.4179 -0.2963
19757TIP3   OH280761   0.036   0.454   4.770  0.2876 -0.2781  0.0356
19757TIP3    H180762   0.108   0.517   4.777  1.0721 -1.3366  2.3697
19757TIP3    H280763  -0.019   0.472   4.846 -0.4589 -1.2394 -0.2703
19758TIP3   OH280764   5.513   5.874   5.022  0.0654  0.1470  0.6775
19758TIP3    H180765   5.429   5.835   5.048 -0.8349  1.4160 -0.1815
19758TIP3    H280766   5.531   5.939   5.091 -0.0444  0.3797  0.4909
19759TIP3   OH280767   5.028   3.080   3.619  0.4787 -0.5328  0.3707
19759TIP3    H180768   5.119   3.061   3.594  0.6963 -0.1922  0.8819
19759TIP3    H280769   4.986   2.994   3.621 -0.1903 -0.4699 -3.3846
19760TIP3   OH280770   5.550   4.888  11.252  0.1714  0.0755  0.1189
19760TIP3    H180771   5.633   4.877  11.299  0.1751 -1.9528 -0.2666
19760TIP3    H280772   5.529   4.981  11.262  2.3535  0.5949  0.4301
19761TIP3   OH280773   5.649   5.168   3.578  0.0497 -0.2464 -0.0239
19761TIP3    H180774   5.721   5.226   3.604  0.0622 -0.2599 -0.0279
19761TIP3    H280775   5.691   5.084   3.560  0.2601  0.1741 -1.6146
19762TIP3   OH280776   2.216   0.284  10.620  0.3991 -0.2416  0.2878
19762TIP3    H180777   2.227   0.328  10.704  1.1099  1.8855 -0.8575
19762TIP3    H280778   2.148   0.334  10.575  0.2747 -1.1367 -0.5471
19763TIP3   OH280779   6.627   3.502   6.184 -0.3831 -0.1932 -0.1325
19763TIP3    H180780   6.594   3.440   6.249  0.7654 -0.8290 -0.1247
19763TIP3    H280781   6.644   3.448   6.106 -0.7138  0.3695 -0.5990
19764TIP3   OH280782   6.732   3.213   0.005 -0.1133 -0.2001  0.3606
19764TIP3    H180783   6.682   3.234  -0.075 -0.0526  0.2791  0.4458
19764TIP3    H280784   6.684   3.257   0.075 -0.4504 -1.0328  0.6671
19765TIP3   OH280785   3.138   6.008  12.344 -0.6293  0.1172  0.1438
19765TIP3    H180786   3.075   6.073  12.377 -0.4707  0.9713 -1.1367
19765TIP3    H280787   3.223   6.039  12.375 -0.5203  0.7164 -0.7171
19766TIP3   OH280788   3.221   0.085  16.966  0.3648 -0.7860  0.2086
19766TIP3    H180789   3.226   0.179  16.945  1.7818 -1.0499 -0.7896
19766TIP3    H280790   3.169   0.047  16.895  0.6368 -0.8937  0.0641
19767TIP3   OH280791   2.591   6.718   3.551 -0.0339 -0.3913  0.2225
19767TIP3    H180792   2.496   6.703   3.545  0.0968 -2.5440  1.9891
19767TIP3    H280793   2.599   6.807   3.583 -1.4713 -0.2343  0.2217
19768TIP3   OH280794   6.502   6.144   5.863  0.2464 -0.4015  0.1692
19768TIP3    H180795   6.487   6.113   5.952  0.7716 -0.9841  0.0598
19768TIP3    H280796   6.506   6.064   5.810 -0.8425 -0.0363 -0.5148
19769TIP3   OH280797   6.439   1.126   1.882 -0.0861 -0.6532  0.4269
19769TIP3    H180798   6.456   1.055   1.944  0.2624  0.1218  1.2506
19769TIP3    H280799   6.481   1.203   1.922  2.2907 -0.6014 -1.9191
19770TIP3   OH280800   2.804   6.578   6.692 -0.0336 -0.0603  0.0515
19770TIP3    H180801   2.864   6.640   6.734  1.0709  0.5040 -2.2049
19770TIP3    H280802   2.850   6.494   6.696  0.7182  0.2708 -1.2165
19771TIP3   OH280803   6.092   2.702   5.027 -0.1425  0.3066  0.1033
19771TIP3    H180804   6.185   2.685   5.042  0.2305  0.5226 -1.6640
19771TIP3    H280805   6.055   2.718   5.114  2.0257  2.9614  0.6695
19772TIP3   OH280806   6.196   4.386  13.742  0.1723 -0.6132  0.8242
19772TIP3    H180807   6.248   4.455  13.700  0.8270 -0.9437  1.0785
19772TIP3    H280808   6.195   4.410  13.835 -0.0688 -0.6506  0.8318
19773TIP3   OH280809   1.069   1.664   4.396  0.8275 -0.4760  0.8854
19773TIP3    H180810   1.051   1.604   4.468 -0.2086  1.7094  2.5704
19773TIP3    H280811   1.078   1.750   4.438 -2.5023  1.3954 -1.7531
19774TIP3   OH280812   3.066   1.721   1.408  0.3102  0.0847 -0.8133
19774TIP3    H180813   2.974   1.712   1.381 -0.6560  1.5275  1.6459
19774TIP3    H280814   3.102   1.789   1.351 -1.0135  1.5339  0.0114
19775TIP3   OH280815   5.841   0.975   2.772  0.2368 -0.4250 -0.5668
19775TIP3    H180816   5.879   0.891   2.744 -0.8501 -1.0816 -0.1107
19775TIP3    H280817   5.777   0.951   2.838  0.5067  0.8498  0.1869
19776TIP3   OH280818   0.481   0.130   1.141 -0.2376  0.5741 -0.2950
19776TIP3    H180819   0.449   0.165   1.224  1.2432  1.0865  0.0946
19776TIP3    H280820   0.407   0.082   1.105 -2.1267  3.3505 -0.4343
19777TIP3   OH280821   0.149   4.419  15.404  0.1298  0.0394 -0.5156
19777TIP3    H180822   0.133   4.401  15.312 -2.6330  1.2083 -0.3677
19777TIP3    H280823   0.062   4.439  15.440  1.3415  1.3856  1.9278
19778TIP3   OH280824   1.710   2.957   5.626 -0.4700  0.3356 -0.0719
19778TIP3    H180825   1.662   2.882   5.661  0.6431 -0.1176  0.5483
19778TIP3    H280826   1.711   3.020   5.698 -1.1669  0.8373 -0.4967
19779TIP3   OH280827   3.596   2.153  14.791  0.7000  0.8508 -0.0595
19779TIP3    H180828   3.533   2.208  14.746  0.1073 -0.2800 -0.6314
19779TIP3    H280829   3.671   2.147  14.731  0.0741 -0.3248 -0.7630
19780TIP3   OH280830   0.385   3.971  15.458 -0.5940  0.1165  0.0668
19780TIP3    H180831   0.383   3.993  15.365 -1.5603  2.5508  0.5951
19780TIP3    H280832   0.325   4.034  15.499 -0.7367 -1.3439  2.2589
19781TIP3   OH280833   0.207   3.465   1.509  0.1072 -0.1025  0.0529
19781TIP3    H180834   0.149   3.389   1.498  0.2997 -0.2812  0.2568
19781TIP3    H280835   0.203   3.484   1.603  0.9773 -0.6025  0.2055
19782TIP3   OH280836   3.386   1.420  14.011  0.2513  0.2603  0.3337
19782TIP3    H180837   3.442   1.343  14.018  1.2436  0.8354 -0.9455
19782TIP3    H280838   3.370   1.430  13.917 -1.6555  0.3744  0.6210
19783TIP3   OH280839   6.436   0.414  13.374  0.1688  0.1206 -0.1047
19783TIP3    H180840   6.492   0.396  13.299 -0.3618 -0.7996 -0.3099
19783TIP3    H280841   6.495   0.412  13.449  0.6041  0.4271 -0.4327
19784TIP3   OH280842   0.841   1.493   1.711  0.0896  0.0664 -0.0714
19784TIP3    H180843   0.839   1.419   1.771  1.1623  0.5572  0.5983
19784TIP3    H280844   0.748   1.516   1.699 -0.1998 -0.7684  0.4696
19785TIP3   OH280845   4.862   5.405  11.482 -0.3130  0.2538 -0.2279
19785TIP3    H180846   4.829   5.418  11.571 -1.7476  0.6306 -0.7795
19785TIP3    H280847   4.850   5.312  11.466  1.2724 -0.0946  0.4471
19786TIP3   OH280848   6.469   3.288  15.308  0.3130  0.2610 -0.5291
19786TIP3    H180849   6.524   3.215  15.340 -2.7994 -1.5705  1.1709
19786TIP3    H280850   6.487   3.292  15.215  4.7036  1.1463  0.1567
19787TIP3   OH280851   1.675   2.721  15.690 -0.2704  0.2429 -0.1390
19787TIP3    H180852   1.713   2.771  15.618 -4.1434  0.5348 -2.2033
19787TIP3    H280853   1.688   2.630  15.665  1.4856  0.2146  0.6741
19788TIP3   OH280854   0.142   5.100   4.266 -0.0110 -0.1105  0.3941
19788TIP3    H180855   0.151   5.036   4.195 -0.2899  0.5321 -0.2209
19788TIP3    H280856   0.170   5.052   4.344 -0.5122 -1.0842 -0.0089
19789TIP3   OH280857   3.351   1.365  12.469  0.0479  0.1678 -0.0953
19789TIP3    H180858   3.269   1.327  12.440 -1.1240  1.5796  1.1737
19789TIP3    H280859   3.419   1.318  12.420 -1.3204 -2.7393  0.6083
19790TIP3   OH280860   0.127   2.893  15.056  0.8044 -0.0864 -0.1459
19790TIP3    H180861   0.128   2.924  15.146  1.6087  0.2327 -0.2509
19790TIP3    H280862   0.187   2.818  15.056 -1.6155 -2.1737  0.2511
19791TIP3   OH280863   1.405   3.722   3.290 -0.0147 -0.2503 -0.5139
19791TIP3    H180864   1.320   3.767   3.286  0.0872 -0.1148 -1.6175
19791TIP3    H280865   1.469   3.793   3.294  0.3578  0.0817 -5.4173
19792TIP3   OH280866   4.317   5.945  12.056 -0.1091 -0.2947  0.1772
19792TIP3    H180867   4.313   5.914  12.147 -0.0109  0.1939  0.3497
19792TIP3    H280868   4.269   5.879  12.006 -0.7314 -0.2284  0.6767
19793TIP3   OH280869   6.817   0.352  13.483 -0.2184 -0.1416  0.3402
19793TIP3    H180870   6.882   0.412  13.520 -1.0219  0.8370  0.2085
19793TIP3    H280871   6.821   0.368  13.388  0.4591 -1.2312  0.1709
19794TIP3   OH280872   1.472   4.847   3.699 -0.1449  0.2989  0.3592
19794TIP3    H180873   1.537   4.798   3.750  0.9021  1.1969 -0.0639
19794TIP3    H280874   1.462   4.930   3.745  0.6122  1.0121 -0.7036
19795TIP3   OH280875   1.423   5.181  11.855  0.0185  0.0485  0.2450
19795TIP3    H180876   1.438   5.210  11.945 -0.2369  3.3596 -0.6312
19795TIP3    H280877   1.329   5.189  11.843  0.1121  0.1765 -0.4525
19796TIP3   OH280878   0.017   5.129  15.957  0.9554  0.0182 -0.0718
19796TIP3    H180879   0.049   5.186  15.887 -1.1883  0.8537 -0.4564
19796TIP3    H280880   0.053   5.168  16.037  1.7133  0.3094 -0.5481
19797TIP3   OH280881   1.143   0.905   0.906 -0.5818 -0.8650 -0.3685
19797TIP3    H180882   1.094   0.858   0.974 -1.6912 -2.1378 -1.9758
19797TIP3    H280883   1.233   0.875   0.917 -0.7757 -1.1837  0.4361
19798TIP3   OH280884   3.907   4.023  10.936  0.0382 -0.6023  0.1328
19798TIP3    H180885   3.846   3.952  10.956 -1.1204  0.0194 -1.0413
19798TIP3    H280886   3.974   3.983  10.881  0.2537 -1.1047  0.7423
19799TIP3   OH280887   4.611   5.284   1.210  0.0070  0.1787 -0.8693
19799TIP3    H180888   4.537   5.295   1.150 -0.8149  1.4582  0.3302
19799TIP3    H280889   4.582   5.323   1.292  0.9122 -1.9476  0.5600
19800TIP3   OH280890   3.436   6.070   4.200 -0.3960  0.0910 -0.4514
19800TIP3    H180891   3.457   6.133   4.270  0.9557  0.3775 -1.0751
19800TIP3    H280892   3.395   6.123   4.132 -3.0955 -0.4300  0.6647
19801TIP3   OH280893   4.191   6.196  12.094 -0.6068  0.1789 -0.3470
19801TIP3    H180894   4.245   6.130  12.138 -0.1542  0.2179 -0.8346
19801TIP3    H280895   4.192   6.169  12.002 -0.3589  0.9133 -0.5619
19802TIP3   OH280896   6.203   0.059   5.033 -0.1998  0.7089  0.4308
19802TIP3    H180897   6.159  -0.015   4.992  0.1039 -0.3920  1.9812
19802TIP3    H280898   6.133   0.106   5.078 -0.1701  0.3476  0.8727
19803TIP3   OH280899   3.519   5.345  15.638  0.3050  0.3530  0.0009
19803TIP3    H180900   3.565   5.332  15.721  0.5883  0.5368 -0.1265
19803TIP3    H280901   3.497   5.438  15.638 -0.9481  0.0845  0.5146
19804TIP3   OH280902   5.330   1.868   0.727  0.6347 -0.3020 -0.4679
19804TIP3    H180903   5.371   1.865   0.813  0.1807  0.3032 -0.2198
19804TIP3    H280904   5.283   1.785   0.720  0.3589 -0.1950  0.0335
19805TIP3   OH280905   2.629   1.421   0.767  0.1372 -0.0851 -0.2335
19805TIP3    H180906   2.626   1.329   0.792  0.0111  0.5452  2.4215
19805TIP3    H280907   2.636   1.421   0.672 -0.1688 -2.8098 -0.3099
19806TIP3   OH280908   5.296   1.101   0.356 -0.1293  0.2120  0.5072
19806TIP3    H180909   5.280   1.189   0.392  2.5508  1.9681 -2.1648
19806TIP3    H280910   5.318   1.048   0.432 -1.9420  1.7340  2.2274
19807TIP3   OH280911   4.748   5.968  11.996  0.5750  0.3891 -0.1190
19807TIP3    H180912   4.804   5.936  11.926 -0.9106 -0.0843 -1.1351
19807TIP3    H280913   4.659   5.952  11.965 -0.1544  1.9182  1.0605
19808TIP3   OH280914   0.391   5.916  16.508 -0.2008  0.1460 -0.6294
19808TIP3    H180915   0.396   6.011  16.516 -0.8970  0.0498  1.6090
19808TIP3    H280916   0.471   5.884  16.549 -0.1873 -0.2644 -0.9648
19809TIP3   OH280917   2.276   2.146  15.439 -0.0107 -0.1819  0.4413
19809TIP3    H180918   2.271   2.134  15.344  2.4651 -0.4266  0.3005
19809TIP3    H280919   2.187   2.126  15.470 -0.7203 -0.6656 -1.7324
19810TIP3   OH280920   1.271   4.025  12.314 -0.5604  0.2060  0.4624
19810TIP3    H180921   1.356   4.066  12.331 -0.6650 -0.0730  1.7661
19810TIP3    H280922   1.290   3.932  12.306 -0.4540  0.3464 -1.5810
19811TIP3   OH280923   5.999   4.176  17.215 -0.0475  0.4159  0.0699
19811TIP3    H180924   6.053   4.254  17.225  0.2805  0.0679  1.1063
19811TIP3    H280925   5.973   4.176  17.123  0.9830  1.0647 -0.2284
19812TIP3   OH280926   5.865   6.649   0.144 -0.7146  0.4983 -0.0046
19812TIP3    H180927   5.859   6.735   0.104  1.4957  0.0344 -1.5137
19812TIP3    H280928   5.938   6.656   0.206  0.2760 -0.5282 -0.9882
19813TIP3   OH280929   5.726   2.671   3.136  0.4143  0.4167  0.5238
19813TIP3    H180930   5.760   2.640   3.052 -1.4159 -2.1032  0.5797
19813TIP3    H280931   5.637   2.700   3.116 -0.5378 -1.4913  1.7433
19814TIP3   OH280932   4.676   3.489  16.971 -0.4094 -0.0289 -0.0871
19814TIP3    H180933   4.603   3.509  16.913 -0.8536 -0.5002  0.3000
19814TIP3    H280934   4.742   3.450  16.914 -1.2429 -1.4443 -0.1343
19815TIP3   OH280935   4.756   0.145  14.829  0.5566  0.3072  0.4092
19815TIP3    H180936   4.739   0.134  14.923 -1.8278  0.4398  0.0598
19815TIP3    H280937   4.703   0.221  14.804  1.0441  0.1899 -1.0717
19816TIP3   OH280938   1.784   3.986   0.759 -0.1760  0.6905  0.4086
19816TIP3    H180939   1.810   4.001   0.668  0.4534  2.3881  0.8299
19816TIP3    H280940   1.760   3.894   0.762  0.4116  0.4414 -1.3299
19817TIP3   OH280941   0.683   1.916  16.678 -0.0801  0.2311  0.3632
19817TIP3    H180942   0.594   1.904  16.645  0.4060  0.4980 -1.1244
19817TIP3    H280943   0.702   2.009  16.664  0.3546  0.2267  0.8777
19818TIP3   OH280944   1.954   4.351   4.811  0.0789 -0.2050 -0.9029
19818TIP3    H180945   1.923   4.400   4.887  1.5484  0.9639 -1.0086
19818TIP3    H280946   1.882   4.292   4.790 -0.2484 -0.8535  1.6124
19819TIP3   OH280947   4.238   3.016   0.637 -0.3915 -0.4906 -0.4251
19819TIP3    H180948   4.294   2.951   0.594  0.8543  0.2322  0.0507
19819TIP3    H280949   4.292   3.052   0.707 -1.7482 -0.3259  0.5769
19820TIP3   OH280950   5.389   1.095   2.039 -0.2439  0.1783 -0.4768
19820TIP3    H180951   5.468   1.041   2.029 -1.1865 -1.0311 -1.7297
19820TIP3    H280952   5.343   1.057   2.114 -0.9938 -0.9375 -1.4640
19821TIP3   OH280953   4.085   5.118   2.375  0.3767 -0.0306  0.2725
19821TIP3    H180954   4.136   5.109   2.295 -0.1631  2.0280 -0.3728
19821TIP3    H280955   3.994   5.104   2.347  0.2576 -0.0870  0.6801
19822TIP3   OH280956   1.690   0.609  12.946 -0.9258  0.0719  0.4352
19822TIP3    H180957   1.629   0.588  12.876  2.3228 -2.3608 -1.9725
19822TIP3    H280958   1.707   0.525  12.989  0.9902  0.5433  0.6958
19823TIP3   OH280959   3.121   1.305  16.641 -0.5299  0.1763  0.2606
19823TIP3    H180960   3.179   1.256  16.699  0.8458  0.9761 -0.3833
19823TIP3    H280961   3.035   1.297  16.681 -0.4973 -3.1693 -0.0764
19824TIP3   OH280962   5.365   5.994   1.753 -0.2446 -0.1748 -0.1249
19824TIP3    H180963   5.283   6.023   1.792  0.3698  2.5692 -0.6995
19824TIP3    H280964   5.409   5.946   1.823 -1.7311 -0.5821  0.5906
19825TIP3   OH280965   2.250   0.377   1.693 -0.2526  0.4101 -0.7429
19825TIP3    H180966   2.334   0.397   1.734  0.7019 -3.0284 -0.6773
19825TIP3    H280967   2.204   0.322   1.757 -1.4079  0.0568 -1.8291
19826TIP3   OH280968   1.054   6.435  17.219  0.2296 -0.1897  0.1132
19826TIP3    H180969   1.082   6.345  17.203 -0.4021 -0.2314 -0.8482
19826TIP3    H280970   1.135   6.486  17.218  0.4789 -0.5845 -0.5748
19827TIP3   OH280971   5.162   5.196   2.695  0.2586  0.5532 -0.4229
19827TIP3    H180972   5.103   5.243   2.753 -0.0810  1.6769 -1.6203
19827TIP3    H280973   5.187   5.260   2.628 -0.7532 -1.0964 -2.5376
19828TIP3   OH280974   1.406   5.279  11.266  0.5237 -0.4307 -0.6424
19828TIP3    H180975   1.398   5.363  11.220 -0.9130 -0.7217 -0.9624
19828TIP3    H280976   1.443   5.220  11.201  1.4485 -0.0962 -0.4447
19829TIP3   OH280977   2.410   2.770   0.060 -0.0288  0.1095  0.5164
19829TIP3    H180978   2.366   2.741  -0.021  1.9575 -0.1958 -0.5164
19829TIP3    H280979   2.459   2.848   0.033  0.3537  0.2300  1.5414
19830TIP3   OH280980   1.199   1.045  13.282 -0.4462  0.2610 -0.3701
19830TIP3    H180981   1.231   1.073  13.196 -1.5025  0.0423 -0.8510
19830TIP3    H280982   1.244   0.962  13.298  1.9399  1.6466  0.6141
19831TIP3   OH280983   5.828   1.263  14.066 -0.3330  0.3700 -0.3339
19831TIP3    H180984   5.790   1.336  14.017 -4.4105 -1.8979 -1.0400
19831TIP3    H280985   5.790   1.271  14.153 -0.8021 -0.8231 -0.4154
19832TIP3   OH280986   2.970   2.063   1.943 -0.1283  0.2817 -0.4546
19832TIP3    H180987   3.060   2.082   1.969 -0.4475  0.0684  0.8652
19832TIP3    H280988   2.963   1.968   1.946  0.2935  0.0964 -3.0623
19833TIP3   OH280989   0.020   3.237   4.180  0.0444 -0.1547 -0.7973
19833TIP3    H180990   0.030   3.152   4.139  0.3261 -1.1136  1.1320
19833TIP3    H280991   0.108   3.259   4.213 -0.8446 -1.6107  3.1585
19834TIP3   OH280992   3.474   5.747  12.660 -0.2556  0.0901 -0.4643
19834TIP3    H180993   3.494   5.836  12.631 -0.3973  0.8796  1.6576
19834TIP3    H280994   3.507   5.744  12.750 -2.5076 -1.1654  0.3936
19835TIP3   OH280995   0.068   0.495   0.798 -0.5083  0.3414 -0.2731
19835TIP3    H180996  -0.005   0.454   0.751  0.5239  0.0137 -1.6190
19835TIP3    H280997   0.036   0.503   0.888 -1.1003 -2.5969 -0.1332
19836TIP3   OH280998   0.937   0.623   1.598  0.2998  0.3952 -0.0665
19836TIP3    H180999   0.986   0.554   1.554  1.5433  1.9489 -1.2362
19836TIP3    H281000   0.874   0.653   1.533  0.2957  0.8868  0.1614
19837TIP3   OH281001   5.637   3.686  16.541 -0.2788 -0.1451  0.1500
19837TIP3    H181002   5.633   3.597  16.578 -0.0236 -0.2503 -0.0730
19837TIP3    H281003   5.550   3.722  16.557 -0.7416 -0.8300 -0.7338
19838TIP3   OH281004   1.578   2.577  13.544 -0.4872  0.3253  0.3247
19838TIP3    H181005   1.505   2.566  13.484  0.1338  0.0728 -0.4053
19838TIP3    H281006   1.583   2.671  13.560  0.6753  0.6797 -1.7697
19839TIP3   OH281007   2.321   0.936   5.566  0.0857 -0.2378 -0.0479
19839TIP3    H181008   2.341   0.842   5.569 -1.0898 -0.5040 -0.0724
19839TIP3    H281009   2.385   0.976   5.626  0.9089 -0.9844 -0.4053
19840TIP3   OH281010   2.548   5.972   1.881  0.8340  0.4909  0.0564
19840TIP3    H181011   2.557   6.047   1.822  2.2191  0.9464  0.7760
19840TIP3    H281012   2.457   5.975   1.911 -0.6181 -1.0900 -3.6705
19841TIP3   OH281013   2.080   1.174  12.810  0.1945  0.0188 -0.7028
19841TIP3    H181014   2.142   1.134  12.749 -0.9232 -1.5916 -0.8744
19841TIP3    H281015   2.006   1.199  12.755  0.0963  0.5862 -0.3134
19842TIP3   OH281016   5.373   0.449   4.162  0.3090  0.1184  0.1301
19842TIP3    H181017   5.334   0.468   4.248  1.2131 -0.4312  0.6719
19842TIP3    H281018   5.318   0.380   4.126  1.6417 -1.8001  1.5816
19843TIP3   OH281019   4.556   3.755   2.766 -0.5049 -0.5423  0.1733
19843TIP3    H181020   4.534   3.746   2.674  0.2005 -0.6342  0.0086
19843TIP3    H281021   4.651   3.764   2.768 -0.6314  1.2613  0.7504
19844TIP3   OH281022   2.122   4.977   0.951  0.0717  0.3565  0.1734
19844TIP3    H181023   2.151   5.053   1.001 -0.6788  0.2700  0.7576
19844TIP3    H281024   2.036   4.955   0.988 -1.7250  1.7988 -2.7509
19845TIP3   OH281025   4.570   1.162   4.084 -0.0940 -0.6364 -0.0903
19845TIP3    H181026   4.514   1.239   4.090  0.9118  0.1808 -0.7234
19845TIP3    H281027   4.511   1.089   4.065 -1.2776 -0.3558  2.2285
19846TIP3   OH281028   1.131   5.910   0.538  0.7029 -0.2298  0.8921
19846TIP3    H181029   1.137   6.002   0.511  1.8131 -0.3892  0.5402
19846TIP3    H281030   1.039   5.888   0.526  0.4361  0.8105  0.8941
19847TIP3   OH281031   0.408   5.520  16.112  0.3351 -0.6496  0.2414
19847TIP3    H181032   0.436   5.528  16.021  1.1478 -0.8137  0.4683
19847TIP3    H281033   0.477   5.561  16.162  0.9169 -2.3428  0.9124
19848TIP3   OH281034   5.074   5.990  14.232  0.9716 -0.0439 -0.1141
19848TIP3    H181035   5.072   6.050  14.157  0.7896 -1.3499 -1.1959
19848TIP3    H281036   5.165   5.960  14.236  0.9256 -0.1639  0.0400
19849TIP3   OH281037   6.290   5.455   4.008 -0.1809  0.1790  0.1559
19849TIP3    H181038   6.293   5.393   4.080 -0.1814 -2.1076 -1.6939
19849TIP3    H281039   6.370   5.437   3.958  0.6102  2.7616  0.3211
19850TIP3   OH281040   3.533   1.458   2.171  0.0665  0.2845  0.2261
19850TIP3    H181041   3.613   1.416   2.140 -0.4659 -0.5404 -0.0792
19850TIP3    H281042   3.561   1.513   2.244  0.7904 -0.6430  0.6726
19851TIP3   OH281043   0.196   1.273  16.284 -0.0439 -0.3231  0.2928
19851TIP3    H181044   0.147   1.349  16.316  1.1842  1.0620 -0.9290
19851TIP3    H281045   0.178   1.270  16.190 -0.5903 -1.9767  0.4256
19852TIP3   OH281046   6.400   0.325   1.334  0.1143 -0.0914 -0.1486
19852TIP3    H181047   6.325   0.371   1.373  0.8191 -0.0187  1.1921
19852TIP3    H281048   6.419   0.374   1.255  0.0701  1.1950  0.6108
19853TIP3   OH281049   2.514   0.678  13.616 -0.3365 -0.2534  0.2658
19853TIP3    H181050   2.444   0.724  13.662 -0.9461 -0.2414 -0.6648
19853TIP3    H281051   2.594   0.704  13.662 -0.8904  0.0738  1.0636
19854TIP3   OH281052   6.738   0.564   3.526 -0.6540  0.0539 -0.0367
19854TIP3    H181053   6.718   0.650   3.564  2.3314  0.4070  1.0255
19854TIP3    H281054   6.728   0.503   3.599  0.2303 -0.0204  0.0299
19855TIP3   OH281055   0.930   1.560  12.836 -0.2825  0.6941 -0.7171
19855TIP3    H181056   0.951   1.589  12.747 -0.6576  0.4409 -0.8884
19855TIP3    H281057   0.834   1.557  12.838 -0.2554 -0.0865 -0.5538
19856TIP3   OH281058   6.202   6.159   2.482 -0.8044  0.1945 -0.3441
19856TIP3    H181059   6.120   6.206   2.470 -0.7751 -0.1332 -2.1315
19856TIP3    H281060   6.197   6.084   2.422  0.8212  0.2047 -0.5588
19857TIP3   OH281061   1.342   0.863  12.572 -0.5579  0.3200  0.1152
19857TIP3    H181062   1.407   0.933  12.561  1.0220 -0.6637  2.5416
19857TIP3    H281063   1.364   0.799  12.504  0.2296  0.5499  0.1461
19858TIP3   OH281064   3.391   4.146   3.134  0.0902  0.0092 -0.2252
19858TIP3    H181065   3.355   4.181   3.216 -0.4305 -1.6136  0.2723
19858TIP3    H281066   3.320   4.153   3.071  0.4851  1.2409 -0.5721
19859TIP3   OH281067   0.178   1.960   5.457  0.5590 -0.2968 -0.1119
19859TIP3    H181068   0.256   1.931   5.504 -0.0573  2.3361  2.8948
19859TIP3    H281069   0.212   2.013   5.385  1.5209 -1.1319 -0.2946
19860TIP3   OH281070   4.862   5.792  13.641 -0.4565 -0.0906 -0.2898
19860TIP3    H181071   4.891   5.825  13.557  0.7810  0.3931  0.3013
19860TIP3    H281072   4.812   5.713  13.620  0.3470 -0.3227 -1.4410
19861TIP3   OH281073   5.345   6.322  11.865  0.6112 -0.0954 -0.5092
19861TIP3    H181074   5.321   6.233  11.890  0.6711  0.4505  1.8052
19861TIP3    H281075   5.302   6.336  11.781 -2.0613 -1.2557  0.5441
19862TIP3   OH281076   3.252   2.427   2.676 -0.3495  0.3680 -0.1504
19862TIP3    H181077   3.194   2.380   2.617 -0.7760  1.7662 -0.8907
19862TIP3    H281078   3.282   2.361   2.739 -2.4230 -0.4756  0.0090
19863TIP3   OH281079   1.999   4.412  13.273  0.4187 -0.0194 -0.4598
19863TIP3    H181080   1.973   4.325  13.304  1.4826 -0.3550 -0.4606
19863TIP3    H281081   2.080   4.431  13.321  1.0387  0.2929 -1.5979
19864TIP3   OH281082   4.165   6.555  13.912  0.6281  0.0395 -0.1058
19864TIP3    H181083   4.199   6.636  13.874 -2.5218  0.0136 -3.4727
19864TIP3    H281084   4.074   6.550  13.881  0.0960 -3.8697  1.5333
19865TIP3   OH281085   3.057   2.592   5.251 -0.5341 -0.0073  0.3233
19865TIP3    H181086   3.110   2.616   5.328 -0.8091 -3.7344  1.8772
19865TIP3    H281087   3.115   2.536   5.199 -1.1437  0.5521 -0.9927
19866TIP3   OH281088   6.367   2.372  11.397  0.6500 -0.3496  0.4694
19866TIP3    H181089   6.368   2.406  11.486 -1.2015 -1.2368  0.8841
19866TIP3    H281090   6.378   2.450  11.342  1.4767  0.2491  1.4449
19867TIP3   OH281091   5.257   2.371   3.148  0.3311  0.2647 -0.4444
19867TIP3    H181092   5.263   2.289   3.099  2.3922 -1.1064  1.8677
19867TIP3    H281093   5.333   2.422   3.119  1.0980 -0.2160  0.6307
19868TIP3   OH281094   0.009   4.653   6.502  0.6102 -0.1164  0.2623
19868TIP3    H181095   0.092   4.628   6.543  0.4757 -1.7578 -0.4175
19868TIP3    H281096   0.006   4.604   6.420 -1.1115 -0.2416  0.3577
19869TIP3   OH281097   6.204   5.841   1.976 -0.1260 -0.6091  0.1803
19869TIP3    H181098   6.139   5.784   1.936  0.3821 -0.3167 -1.1381
19869TIP3    H281099   6.286   5.816   1.934  0.1357  0.9529 -0.2949
19870TIP3   OH281100   0.833   5.845   1.282 -0.4373 -0.0361 -0.4029
19870TIP3    H181101   0.872   5.888   1.206  1.5943 -1.1836 -0.0785
19870TIP3    H281102   0.856   5.902   1.356 -0.9510  0.2008 -0.4192
19871TIP3   OH281103   3.900   6.674  11.698 -0.6736 -0.0152 -0.4066
19871TIP3    H181104   3.882   6.696  11.790 -0.6990 -1.7019  0.0158
19871TIP3    H281105   3.907   6.759  11.654  2.6245  1.0183  1.7517
19872TIP3   OH281106   3.893   5.518   3.168  0.3181  0.2935  0.7533
19872TIP3    H181107   3.803   5.494   3.190  0.2253  1.4107  1.6727
19872TIP3    H281108   3.885   5.597   3.115  0.7494  0.3996  0.8420
19873TIP3   OH281109   1.329   3.503   3.765 -0.2288  0.3570  0.4326
19873TIP3    H181110   1.286   3.563   3.703 -1.0798  0.0480  0.7125
19873TIP3    H281111   1.314   3.416   3.729  1.9497  0.3232 -0.5616
19874TIP3   OH281112   6.137   6.044  12.370 -0.2697 -0.0574 -0.4680
19874TIP3    H181113   6.104   6.131  12.391 -2.3549 -0.7797 -0.6005
19874TIP3    H281114   6.196   6.058  12.296  0.2969  1.3446  0.2030
19875TIP3   OH281115   3.103   6.493  11.512  0.0507  0.2350 -0.4733
19875TIP3    H181116   3.117   6.566  11.451 -1.6188  0.0542 -1.1343
19875TIP3    H281117   3.008   6.492  11.526  0.3247  0.0067  1.8363
19876TIP3   OH281118   2.714   3.644  12.513  0.2877 -0.1069  0.0162
19876TIP3    H181119   2.655   3.608  12.446  0.0566  1.4338 -0.6629
19876TIP3    H281120   2.656   3.690  12.573  0.6764  0.2583  0.1169
19877TIP3   OH281121   3.050   3.321  14.280  0.1313 -0.0889  0.0384
19877TIP3    H181122   2.963   3.308  14.317  0.0013 -3.9024 -1.1985
19877TIP3    H281123   3.108   3.322  14.356 -0.7972  0.6862  0.7698
19878TIP3   OH281124   5.311   5.287  12.552  0.1675 -0.2195 -0.1454
19878TIP3    H181125   5.361   5.307  12.631 -2.0606  0.1725  1.2440
19878TIP3    H281126   5.325   5.362  12.494  0.9192  0.0192  0.3334
19879TIP3   OH281127   2.723   6.651  16.081  0.2799 -0.7003  0.7181
19879TIP3    H181128   2.746   6.591  16.010 -0.9498  1.2811 -1.5008
19879TIP3    H281129   2.806   6.695  16.102  0.4322 -0.4663 -0.3330
19880TIP3   OH281130   4.938   3.661  12.928  0.5818  0.4252 -0.3481
19880TIP3    H181131   4.849   3.651  12.894  0.8146  1.2972 -1.2592
19880TIP3    H281132   4.939   3.748  12.968  0.7714  0.0494  0.4666
19881TIP3   OH281133   1.974   3.319  11.287  0.2184 -0.5866  0.0378
19881TIP3    H181134   2.059   3.322  11.242 -0.6212 -3.2359 -2.0389
19881TIP3    H281135   1.912   3.356  11.223 -0.4313 -0.3323  0.8029
19882TIP3   OH281136   3.621   5.807  14.289 -0.7652  0.0085 -0.4381
19882TIP3    H181137   3.649   5.852  14.210 -0.7665  0.1132 -0.3792
19882TIP3    H281138   3.531   5.780  14.272 -0.3286 -1.1690 -0.9992
19883TIP3   OH281139   1.140   2.211  15.012  0.0798 -0.1040  0.4943
19883TIP3    H181140   1.055   2.167  15.007 -1.4957  2.6099  0.9715
19883TIP3    H281141   1.134   2.266  15.090  1.8684  0.9224 -0.0181
19884TIP3   OH281142   3.726   1.707   0.300 -0.1859 -0.2211 -0.1212
19884TIP3    H181143   3.795   1.730   0.361 -0.3726  2.1246 -0.6992
19884TIP3    H281144   3.772   1.671   0.224  0.5612  2.1039 -0.8574
19885TIP3   OH281145   0.298   2.067  13.418  0.0013 -0.0665  0.3936
19885TIP3    H181146   0.229   2.039  13.477  0.9463 -2.4538  0.5030
19885TIP3    H281147   0.341   2.140  13.462 -1.5689  0.5434  0.9445
19886TIP3   OH281148   5.799   2.044  16.136 -0.0884  0.9607  0.4702
19886TIP3    H181149   5.742   2.022  16.209  0.5565 -0.2921  0.6279
19886TIP3    H281150   5.887   2.019  16.166  0.3208  1.3309 -0.3801
19887TIP3   OH281151   5.629   0.378   4.475 -0.0139 -0.2070  0.1767
19887TIP3    H181152   5.647   0.313   4.543 -0.4880 -0.9034 -0.3578
19887TIP3    H281153   5.639   0.462   4.520 -0.0249 -0.6521  1.0365
19888TIP3   OH281154   4.835   0.410   3.180 -0.1953  0.0146 -0.1118
19888TIP3    H181155   4.803   0.358   3.253  0.4696 -0.7652 -0.3639
19888TIP3    H281156   4.862   0.346   3.114  0.2931  0.6793 -0.5721
19889TIP3   OH281157   3.362   1.487  14.858 -0.1059  0.3364 -0.3073
19889TIP3    H181158   3.304   1.556  14.888 -1.2999 -0.5691 -0.4501
19889TIP3    H281159   3.325   1.458  14.775 -0.1345 -1.0275  0.1462
19890TIP3   OH281160   0.419   6.464   1.103  0.4809 -0.3495  0.1036
19890TIP3    H181161   0.430   6.524   1.177 -0.2844  1.5119 -1.2122
19890TIP3    H281162   0.390   6.382   1.143 -2.3426  1.2992  1.7507
19891TIP3   OH281163   3.268   5.564  12.797 -0.2651  0.2272 -0.1700
19891TIP3    H181164   3.338   5.603  12.743  2.0374 -1.3392  1.4763
19891TIP3    H281165   3.265   5.472  12.768 -1.2344  0.1338  0.2068
19892TIP3   OH281166   4.016   3.455  14.562 -0.4019 -0.7512 -0.3184
19892TIP3    H181167   4.110   3.468  14.556 -0.3798 -1.4170 -1.7999
19892TIP3    H281168   4.001   3.369  14.522 -1.7274 -0.2901 -0.8721
19893TIP3   OH281169   3.532   6.480  12.602  0.3725 -0.0070  0.2606
19893TIP3    H181170   3.543   6.567  12.565 -0.5742  0.0764  0.1415
19893TIP3    H281171   3.542   6.492  12.696  1.6179 -0.0149  0.1383
19894TIP3   OH281172   5.260   2.632   3.311  0.2170  0.3453  0.5734
19894TIP3    H181173   5.201   2.609   3.384 -1.2440 -0.1983 -0.7281
19894TIP3    H281174   5.268   2.551   3.261 -0.0300  1.0864 -0.6976
19895TIP3   OH281175   2.543   3.058  13.226 -0.2674 -0.1912  0.2089
19895TIP3    H181176   2.467   3.001  13.237 -1.0571  0.5190 -1.3032
19895TIP3    H281177   2.571   3.043  13.135 -0.4317  1.7280 -0.1953
19896TIP3   OH281178   2.643   5.952  13.938 -0.2207  0.0034 -0.1309
19896TIP3    H181179   2.678   5.967  13.850  0.3892 -0.2880  0.0558
19896TIP3    H281180   2.575   6.019  13.948 -0.1148  0.2125 -0.7187
19897TIP3   OH281181   3.718   0.320  12.112  0.1623  0.5362  0.5756
19897TIP3    H181182   3.684   0.276  12.034 -1.7459 -0.3851  1.8460
19897TIP3    H281183   3.739   0.408  12.082 -2.9057  1.0308 -0.5120
19898TIP3   OH281184   5.692   6.205   2.378  0.4034 -0.5947  0.0391
19898TIP3    H181185   5.649   6.259   2.311 -0.5605  3.5493  3.5365
19898TIP3    H281186   5.624   6.187   2.442  2.1280 -0.7542  1.9220
19899TIP3   OH281187   4.242   5.737  14.588  0.2279  0.2442  0.1760
19899TIP3    H181188   4.302   5.671  14.553 -0.0154 -0.0971  0.3997
19899TIP3    H281189   4.179   5.752  14.517  0.6530  0.7091 -0.1144
19900TIP3   OH281190   5.026   5.378  17.045  0.4783  0.1543  0.5249
19900TIP3    H181191   5.028   5.472  17.028  0.4320  0.0787  0.0886
19900TIP3    H281192   5.119   5.352  17.044  0.5226  0.2826  1.1537
19901TIP3   OH281193   5.730   0.613   4.765 -0.0881  0.2029  0.4188
19901TIP3    H181194   5.826   0.615   4.776  0.0215 -0.5624 -0.2966
19901TIP3    H281195   5.700   0.552   4.833  0.2036 -1.5179 -0.9353
19902TIP3   OH281196   5.810   3.689   2.745 -0.4344  0.0877 -0.2102
19902TIP3    H181197   5.867   3.758   2.779  0.9857 -0.4315 -1.4297
19902TIP3    H281198   5.761   3.732   2.675 -2.2003  0.7441  1.3560
19903TIP3   OH281199   3.395   0.068   4.945 -0.3110  0.1004 -0.0158
19903TIP3    H181200   3.320   0.009   4.946 -1.0731  1.0295 -0.4128
19903TIP3    H281201   3.364   0.146   4.990  0.8672 -0.0040  1.0269
19904TIP3   OH281202   2.287   3.982  14.656 -0.4331 -0.1080 -0.7009
19904TIP3    H181203   2.212   3.929  14.629  0.6674 -2.1187 -0.0168
19904TIP3    H281204   2.363   3.927  14.636  0.7513  1.0622  0.4280
19905TIP3   OH281205   6.619   3.608   1.589  0.0361 -0.3483 -0.3102
19905TIP3    H181206   6.542   3.650   1.628  0.7987 -0.4852  1.4369
19905TIP3    H281207   6.690   3.626   1.650  1.2426 -0.8645 -1.5108
19906TIP3   OH281208   3.097   4.582  12.554 -0.3831 -0.1884  0.3773
19906TIP3    H181209   3.135   4.654  12.503  1.3474  1.0294  3.1364
19906TIP3    H281210   3.010   4.570  12.517 -0.0981  2.1944 -1.3172
19907TIP3   OH281211   3.080   2.243  16.261  0.4283 -0.2329  0.1252
19907TIP3    H181212   3.012   2.196  16.311 -0.1312  0.1886 -0.2307
19907TIP3    H281213   3.097   2.321  16.313  0.1384  0.0061 -0.1400
19908TIP3   OH281214   6.388   0.957  16.437  0.1513  0.1435  0.5379
19908TIP3    H181215   6.482   0.957  16.452  0.0042  1.4124  1.5826
19908TIP3    H281216   6.349   0.953  16.525 -0.7566  0.9432  0.1945
19909TIP3   OH281217   6.756   3.708  13.326 -0.4362 -0.3701 -0.2056
19909TIP3    H181218   6.669   3.673  13.346 -0.3447 -0.9886 -0.8673
19909TIP3    H281219   6.740   3.776  13.260 -0.5346  0.3686  0.5543
19910TIP3   OH281220   2.949   3.364  16.206 -0.0242 -0.0515  0.3172
19910TIP3    H181221   2.912   3.315  16.133 -0.8235  1.2449 -0.1892
19910TIP3    H281222   2.899   3.335  16.282 -1.0151  0.5170 -0.1036
19911TIP3   OH281223   2.146   6.636   5.038  0.0883 -0.0864 -0.3226
19911TIP3    H181224   2.160   6.722   4.998 -0.4758  0.3528  0.3824
19911TIP3    H281225   2.060   6.609   5.007 -1.0075  0.9143  1.6553
19912TIP3   OH281226   5.189   5.081  14.522  0.1296  0.2161 -0.3731
19912TIP3    H181227   5.104   5.055  14.558  1.0482 -0.1854  1.6450
19912TIP3    H281228   5.177   5.079  14.427 -1.7063 -1.1670 -0.1599
19913TIP3   OH281229   1.465   0.284  12.655  0.2560 -0.5139 -0.4495
19913TIP3    H181230   1.397   0.316  12.715 -0.0156  0.2525 -1.1482
19913TIP3    H281231   1.442   0.193  12.639  1.3165 -1.2888  1.9717
19914TIP3   OH281232   5.387   4.158   2.673  0.2178  0.1301  0.4462
19914TIP3    H181233   5.296   4.127   2.674 -0.4150  1.9354  1.2419
19914TIP3    H281234   5.412   4.154   2.580 -0.9172  0.3201  0.1182
19915TIP3   OH281235   0.232   2.408  16.494 -0.2851  0.5283 -0.2980
19915TIP3    H181236   0.229   2.486  16.549  1.5346  0.5235 -0.1422
19915TIP3    H281237   0.231   2.335  16.555  0.9400  0.5083 -0.2796
19916TIP3   OH281238   0.326   3.836   0.318 -0.5713  0.5286  0.0387
19916TIP3    H181239   0.245   3.795   0.348 -0.7282  0.3338 -0.6453
19916TIP3    H281240   0.327   3.922   0.362 -0.8916  0.3300  0.4401
19917TIP3   OH281241   0.416   5.428  12.260 -0.4216  0.3079  0.0372
19917TIP3    H181242   0.498   5.387  12.233 -0.4601  1.1484 -1.4849
19917TIP3    H281243   0.411   5.413  12.354  0.1479 -2.1109 -0.2470
19918TIP3   OH281244   4.712   4.138  13.939 -0.4589  0.2306 -0.1220
19918TIP3    H181245   4.649   4.068  13.918  0.4752 -0.1180 -1.9640
19918TIP3    H281246   4.665   4.194  14.001 -1.5162 -1.5951  0.8436
19919TIP3   OH281247   6.426   6.272   1.859  0.1685  0.3711 -0.4672
19919TIP3    H181248   6.334   6.271   1.886 -0.1376 -1.6507 -1.4629
19919TIP3    H281249   6.423   6.294   1.766  0.7384  0.7968 -0.3879
19920TIP3   OH281250   3.826   0.742  11.377 -0.2945  0.1251  0.3037
19920TIP3    H181251   3.749   0.702  11.418 -0.1142 -0.8443 -0.2635
19920TIP3    H281252   3.798   0.829  11.351 -1.6406 -0.6955 -1.1378
19921TIP3   OH281253   3.338   6.595  12.907  0.1175 -0.2661  0.5070
19921TIP3    H181254   3.347   6.685  12.874  0.1615 -0.1253  0.9056
19921TIP3    H281255   3.278   6.554  12.845 -1.6459  0.6554  1.5170
19922TIP3   OH281256   1.628   5.138   5.291  0.2102 -0.7884  0.6423
19922TIP3    H181257   1.667   5.191   5.221 -1.0703 -0.5850  0.0451
19922TIP3    H281258   1.630   5.194   5.368  0.5835 -0.5798  0.4827
19923TIP3   OH281259   2.160   1.292   6.312 -0.1125  0.0989  0.3906
19923TIP3    H181260   2.101   1.244   6.371 -2.0182  0.3383 -1.2214
19923TIP3    H281261   2.247   1.263   6.338 -1.0506 -2.5633  0.9714
19924TIP3   OH281262   2.126   3.734   2.444  0.8962  0.1338  0.1903
19924TIP3    H181263   2.203   3.781   2.412  0.5913  0.3261 -0.2769
19924TIP3    H281264   2.054   3.797   2.435  0.4686 -0.4330 -0.4951
19925TIP3   OH281265   5.391   0.443   4.649 -0.1250  0.5832 -0.2974
19925TIP3    H181266   5.445   0.378   4.604 -0.3275  0.7851 -0.8376
19925TIP3    H281267   5.306   0.400   4.661  0.0130  0.4276  0.1529
19926TIP3   OH281268   5.213   4.637  15.982  0.4645 -0.4586 -0.2453
19926TIP3    H181269   5.241   4.698  15.913  0.2247  1.0054  0.9074
19926TIP3    H281270   5.135   4.677  16.019 -1.0658 -2.6232 -0.9208
19927TIP3   OH281271   3.880   2.306  15.335  0.8192 -0.0818  0.5262
19927TIP3    H181272   3.870   2.230  15.391  0.9416 -1.0980 -0.7738
19927TIP3    H281273   3.886   2.270  15.246 -0.2512  1.4917 -0.2454
19928TIP3   OH281274   0.151   5.341  13.467 -0.4074 -0.3161  0.5449
19928TIP3    H181275   0.244   5.318  13.469 -0.7377 -1.8834 -0.5321
19928TIP3    H281276   0.137   5.380  13.381 -0.6199  0.6010  0.9795
19929TIP3   OH281277   6.122   1.848  17.053  0.4011  0.3100  0.3999
19929TIP3    H181278   6.109   1.783  17.122  0.9766  1.0776  1.2528
19929TIP3    H281279   6.174   1.917  17.095  1.0190  0.6498 -0.8841
19930TIP3   OH281280   1.666   3.352  12.186  0.0141  0.3232 -1.1617
19930TIP3    H181281   1.694   3.370  12.276  2.3513 -0.7830 -1.5969
19930TIP3    H281282   1.578   3.389  12.181 -0.5889 -0.4353  1.8500
19931TIP3   OH281283   1.896   0.733  13.413 -0.3635 -0.2108  0.8978
19931TIP3    H181284   1.964   0.771  13.356 -1.8349  0.7624 -0.2678
19931TIP3    H281285   1.925   0.643  13.427  0.4428 -0.2618 -0.7945
19932TIP3   OH281286   2.967   3.361  11.980 -0.1655 -0.3387  0.1427
19932TIP3    H181287   2.955   3.437  11.922  2.0146 -1.1932 -1.5780
19932TIP3    H281288   3.047   3.380  12.028 -0.0950 -1.1539  0.3573
19933TIP3   OH281289   2.675   3.170   5.804 -0.0340  0.0789 -0.2436
19933TIP3    H181290   2.764   3.205   5.812  1.4550 -2.9887 -1.5815
19933TIP3    H281291   2.633   3.227   5.740  0.9553  1.5733  0.3814
19934TIP3   OH281292   1.869   5.651  14.013 -0.1264 -0.7441 -0.7495
19934TIP3    H181293   1.859   5.734  13.967 -1.1029 -0.0343  0.6428
19934TIP3    H281294   1.963   5.642  14.029  0.0359 -0.1831 -1.3902
19935TIP3   OH281295   3.807   5.808   4.109 -0.2509  0.0185  0.1326
19935TIP3    H181296   3.837   5.845   4.026  0.6968 -0.4774  0.2507
19935TIP3    H281297   3.810   5.881   4.170  0.6971 -0.0192  0.1381
19936TIP3   OH281298   6.508   2.973   0.152 -0.4635 -0.2692 -0.0324
19936TIP3    H181299   6.599   2.945   0.168 -0.4560  0.6821  1.8378
19936TIP3    H281300   6.516   3.046   0.091 -0.0672 -0.7156 -0.5359
19937TIP3   OH281301   1.324   3.530   5.107  0.0907 -0.2926 -0.5451
19937TIP3    H181302   1.368   3.607   5.071  2.8177 -1.4042  0.2147
19937TIP3    H281303   1.392   3.483   5.155 -2.0334 -1.9815  1.0018
19938TIP3   OH281304   4.737   1.576   4.751 -0.4356 -0.0199  0.1826
19938TIP3    H181305   4.683   1.653   4.732  0.1819  0.0697 -1.3676
19938TIP3    H281306   4.806   1.608   4.808  0.1306  0.7269 -0.8872
19939TIP3   OH281307   3.490   4.042   6.371 -0.3052 -0.2488 -0.3393
19939TIP3    H181308   3.476   4.130   6.335 -1.4836 -0.2157  0.1371
19939TIP3    H281309   3.434   4.039   6.449  0.2716 -1.1799  0.0569
19940TIP3   OH281310   1.441   2.458   1.062 -0.1924  0.1503  0.8370
19940TIP3    H181311   1.475   2.544   1.085  0.5726 -0.1288  0.7784
19940TIP3    H281312   1.516   2.411   1.026 -1.0380  0.1536 -1.0977
19941TIP3   OH281313   0.909   1.271  15.145 -0.0975 -0.2735  0.3837
19941TIP3    H181314   0.858   1.235  15.217  0.4565  0.4841  1.1843
19941TIP3    H281315   0.848   1.327  15.097  0.0010  0.8191  1.4766
19942TIP3   OH281316   2.296   5.759  11.512  0.2922 -0.0674 -0.5282
19942TIP3    H181317   2.220   5.731  11.461 -1.3727 -0.9490  2.2087
19942TIP3    H281318   2.299   5.854  11.501 -0.8075 -0.0969 -1.2152
19943TIP3   OH281319   5.197   0.327   2.365 -0.3142  0.1721 -0.1650
19943TIP3    H181320   5.180   0.405   2.418  0.9704  1.0498 -0.9773
19943TIP3    H281321   5.151   0.257   2.410  1.1041  0.7567  2.3862
19944TIP3   OH281322   2.727   3.784   5.870 -0.2090  0.0376 -0.7795
19944TIP3    H181323   2.719   3.793   5.775  0.2432 -1.4575 -0.9850
19944TIP3    H281324   2.819   3.763   5.885 -0.2372  0.4361  0.0099
19945TIP3   OH281325   6.099   0.712  14.399 -0.4956 -0.2174 -0.2228
19945TIP3    H181326   6.141   0.797  14.409 -0.5298 -0.1906 -0.3006
19945TIP3    H281327   6.044   0.702  14.477 -3.7975  1.7180 -2.0492
19946TIP3   OH281328   2.983   5.372  11.857 -0.2074  0.2628  0.1857
19946TIP3    H181329   3.059   5.430  11.852  1.0472 -1.1855  1.3512
19946TIP3    H281330   3.011   5.301  11.915 -1.7037 -1.4674 -1.0994
19947TIP3   OH281331   4.510   2.443   5.449 -0.0932 -0.0511 -0.6574
19947TIP3    H181332   4.440   2.493   5.491 -2.0792 -1.2014 -2.4095
19947TIP3    H281333   4.527   2.489   5.367  0.1168 -0.6349 -0.9483
19948TIP3   OH281334   2.249   3.433  12.056  0.4360 -0.1713 -0.0034
19948TIP3    H181335   2.317   3.366  12.045 -0.3078 -0.7364 -1.3101
19948TIP3    H281336   2.216   3.449  11.968 -1.2574 -0.0317  0.6183
19949TIP3   OH281337   5.119   0.335   0.095  0.1283 -0.3804 -0.1541
19949TIP3    H181338   5.158   0.307   0.012 -0.6388 -0.7413 -0.3925
19949TIP3    H281339   5.046   0.275   0.109 -0.8879  0.8156 -0.1397
19950TIP3   OH281340   0.100   1.496   3.248  0.8305  0.4769 -0.4931
19950TIP3    H181341   0.190   1.471   3.226  1.3666 -0.4340  2.3593
19950TIP3    H281342   0.084   1.455   3.333 -2.1974  0.8939 -0.7719
19951TIP3   OH281343   1.808   2.226  11.247 -0.2075  0.5659  0.2255
19951TIP3    H181344   1.824   2.221  11.152  0.1942  0.2418  0.3047
19951TIP3    H281345   1.862   2.299  11.276  1.7473 -0.9428  0.5958
19952TIP3   OH281346   6.468   3.911   5.240  0.2099  0.7027  0.3160
19952TIP3    H181347   6.400   3.850   5.268 -0.2039  2.1571  2.7394
19952TIP3    H281348   6.534   3.906   5.309  0.9687  1.7673 -0.3021
19953TIP3   OH281349   0.743   6.403  14.266  0.2880  0.3030  0.4150
19953TIP3    H181350   0.732   6.313  14.296 -1.0476 -0.3076 -1.6710
19953TIP3    H281351   0.806   6.396  14.193 -0.5892  0.8702 -0.4192
19954TIP3   OH281352   2.314   1.109   0.390 -0.3699 -0.2769  0.1898
19954TIP3    H181353   2.380   1.040   0.386 -0.4515 -0.4175  1.2526
19954TIP3    H281354   2.296   1.121   0.483 -2.0510 -0.4316 -0.0873
19955TIP3   OH281355   6.206   0.420   4.109 -0.2257  0.3934  0.3351
19955TIP3    H181356   6.262   0.405   4.185 -2.1008  1.2727  1.9727
19955TIP3    H281357   6.118   0.425   4.144 -1.3255 -0.4147 -2.0894
19956TIP3   OH281358   0.470   1.719  15.881  0.5101 -0.4084  0.3374
19956TIP3    H181359   0.470   1.624  15.890  0.5351 -0.3712  0.7516
19956TIP3    H281360   0.478   1.752  15.970  0.3691 -0.0151  0.2097
19957TIP3   OH281361   3.654   2.796  14.507 -0.0792  0.0013 -0.0360
19957TIP3    H181362   3.675   2.726  14.446  1.9584  2.8615 -2.9388
19957TIP3    H281363   3.582   2.844  14.466 -0.6391  0.3486  1.2816
19958TIP3   OH281364   2.384   5.031   5.150 -0.4915  0.3006  0.1360
19958TIP3    H181365   2.432   4.950   5.163 -0.6370  0.0191 -0.9747
19958TIP3    H281366   2.451   5.099   5.145 -0.2999  0.1032  0.0319
19959TIP3   OH281367   4.102   2.043   1.223 -0.6908  0.0324  0.2486
19959TIP3    H181368   4.198   2.048   1.218 -0.6199 -0.0823  1.2547
19959TIP3    H281369   4.072   2.132   1.205 -0.4124  0.0421 -0.2010
19960TIP3   OH281370   2.183   3.602  14.455  0.2665 -0.0853 -0.0052
19960TIP3    H181371   2.108   3.610  14.397  0.4374  2.7406  0.0058
19960TIP3    H281372   2.153   3.639  14.539  1.3060  0.0582  0.3270
19961TIP3   OH281373   6.604   4.327   2.490 -0.4370 -0.2187  0.2779
19961TIP3    H181374   6.513   4.298   2.496 -1.0444  1.4800 -0.1843
19961TIP3    H281375   6.598   4.418   2.461  1.4132 -0.0464  0.3478
19962TIP3   OH281376   2.257   2.822   1.845 -0.1022  0.2731  0.0539
19962TIP3    H181377   2.192   2.891   1.828 -0.5575  0.0780  0.9191
19962TIP3    H281378   2.232   2.751   1.786  0.3552  0.8269 -0.8267
19963TIP3   OH281379   0.447   0.332  12.224  0.3897  0.3040 -0.3850
19963TIP3    H181380   0.526   0.369  12.263  0.5258  1.0977 -1.3735
19963TIP3    H281381   0.378   0.394  12.248 -0.0940 -0.7335  1.0517
19964TIP3   OH281382   0.393   0.584  12.956  0.5541  0.0994 -0.0415
19964TIP3    H181383   0.386   0.559  13.048  1.7128 -2.2002 -0.5283
19964TIP3    H281384   0.481   0.558  12.930 -0.1159 -0.3225 -2.0876
19965TIP3   OH281385   3.554   3.048  13.761  0.3934 -0.3030 -0.2822
19965TIP3    H181386   3.561   3.049  13.856 -1.9107 -2.1197  0.0232
19965TIP3    H281387   3.494   3.119  13.740  0.8862  0.0855 -0.3774
19966TIP3   OH281388   5.095   1.380  13.674  0.5687 -0.4201 -0.4192
19966TIP3    H181389   5.026   1.421  13.622 -0.8243  0.0627  1.6835
19966TIP3    H281390   5.131   1.312  13.616 -1.5514 -0.5963 -1.6580
19967TIP3   OH281391   4.293   4.920   1.639 -0.1002 -0.3111  0.0866
19967TIP3    H181392   4.225   4.860   1.669  0.6745 -1.5559 -0.5579
19967TIP3    H281393   4.262   4.949   1.553 -0.9254  0.9826  0.7941
19968TIP3   OH281394   0.328   0.376   0.654  0.1875 -0.8842 -0.7429
19968TIP3    H181395   0.337   0.438   0.582 -0.3313 -1.3284 -1.1933
19968TIP3    H281396   0.245   0.400   0.695  0.1294 -1.0986 -0.7369
19969TIP3   OH281397   1.296   4.185  15.697  0.4944 -0.3672 -0.0722
19969TIP3    H181398   1.291   4.092  15.717  1.1619 -0.4096 -0.0927
19969TIP3    H281399   1.206   4.216  15.706  0.7421 -0.2510  3.7311
19970TIP3   OH281400   4.292   6.277   5.614  0.3247 -0.1429 -0.1383
19970TIP3    H181401   4.349   6.212   5.572 -2.8387 -2.2356 -1.5285
19970TIP3    H281402   4.280   6.244   5.703  0.9117  0.0895  0.0337
19971TIP3   OH281403   6.643   4.128  14.055 -0.4492  0.0975 -0.6335
19971TIP3    H181404   6.723   4.180  14.054 -0.4421  0.1649  1.0187
19971TIP3    H281405   6.660   4.057  13.994 -0.0365  1.3958 -2.0931
19972TIP3   OH281406   2.276   1.421   3.650 -0.4874  0.3780 -0.2960
19972TIP3    H181407   2.188   1.458   3.644  0.3835  2.4964 -1.1881
19972TIP3    H281408   2.295   1.420   3.744 -0.2307  3.2851 -0.2116
19973TIP3   OH281409   1.397   2.611  12.805 -0.3308  0.0045  0.2968
19973TIP3    H181410   1.320   2.645  12.851 -0.7998 -0.1332 -0.3572
19973TIP3    H281411   1.429   2.685  12.753  1.3733  0.7412  2.2769
19974TIP3   OH281412   5.503   5.351  14.890 -0.0468 -0.1649 -0.5687
19974TIP3    H181413   5.436   5.342  14.823  0.6537 -2.3217 -1.0728
19974TIP3    H281414   5.578   5.388  14.843 -0.1900  0.1926 -0.5155
19975TIP3   OH281415   1.955   2.173  13.085  0.4006 -0.2189  0.3002
19975TIP3    H181416   1.864   2.169  13.056 -0.6977  2.6525  2.7543
19975TIP3    H281417   2.005   2.191  13.005 -1.1768 -1.5356 -1.0511
19976TIP3   OH281418   2.122   1.702   5.774  0.4334 -0.0292 -0.1703
19976TIP3    H181419   2.211   1.733   5.758 -0.5133  2.4065 -1.2168
19976TIP3    H281420   2.085   1.765   5.835 -0.5765 -1.0278  0.2736
19977TIP3   OH281421   1.762   1.807  14.235  0.4089  0.0130  0.0941
19977TIP3    H181422   1.784   1.883  14.289  1.6760  0.2677 -0.7489
19977TIP3    H281423   1.668   1.815  14.218  0.2104  0.5153  1.3357
19978TIP3   OH281424   1.363   0.832  13.845 -0.3892 -0.2436  0.0412
19978TIP3    H181425   1.361   0.871  13.758  0.2719 -1.0762 -0.3645
19978TIP3    H281426   1.276   0.795  13.858  0.3250 -2.6595 -1.4891
19979TIP3   OH281427   1.455   0.307  14.294  0.0283 -0.2664 -0.1656
19979TIP3    H181428   1.454   0.228  14.240  1.8320 -1.2731  1.1443
19979TIP3    H281429   1.413   0.279  14.376 -0.9972  0.7052 -0.3322
19980TIP3   OH281430   2.426   6.013   1.533  0.2681  0.1938 -0.0176
19980TIP3    H181431   2.434   6.039   1.441 -0.2237  0.7177  0.0795
19980TIP3    H281432   2.488   6.069   1.579  0.3005  0.1383  0.0060
19981TIP3   OH281433   2.740   5.342  16.113  0.0826  0.0390 -0.6463
19981TIP3    H181434   2.814   5.284  16.098 -0.4368 -0.4555 -1.3018
19981TIP3    H281435   2.685   5.333  16.035 -1.0209 -0.1321  0.1213
19982TIP3   OH281436   2.165   3.392  12.533  0.4576  0.1216 -0.0783
19982TIP3    H181437   2.171   3.298  12.519  2.6095 -0.1239  1.8783
19982TIP3    H281438   2.117   3.401  12.616  3.3899  0.4309  1.7282
19983TIP3   OH281439   2.931   1.840  15.073  0.4993  0.0373  0.3118
19983TIP3    H181440   2.888   1.925  15.062 -0.3968 -0.4106  0.2228
19983TIP3    H281441   3.018   1.861  15.108  0.6299  1.0453 -0.5569
19984TIP3   OH281442   6.501   1.403  12.252 -0.5127 -0.2978  0.2016
19984TIP3    H181443   6.413   1.438  12.263  0.7205  3.6052 -0.9429
19984TIP3    H281444   6.553   1.477  12.223  3.2953 -2.3418  1.1799
19985TIP3   OH281445   5.815   1.160   3.652  0.0783 -0.1484 -0.5906
19985TIP3    H181446   5.849   1.196   3.733  1.4635 -0.5213 -0.9897
19985TIP3    H281447   5.799   1.067   3.672 -0.0048 -0.1427 -0.6259
19986TIP3   OH281448   3.572   3.780   3.401  0.3745  0.4188  0.0714
19986TIP3    H181449   3.510   3.826   3.344  1.4739  3.1647  0.9037
19986TIP3    H281450   3.582   3.839   3.477  2.4804 -0.8768  0.8741
19987TIP3   OH281451   4.621   0.699  16.116  0.0981  0.2391  0.0246
19987TIP3    H181452   4.549   0.753  16.148  0.2432  0.9798 -0.8454
19987TIP3    H281453   4.615   0.617  16.166  0.3313  1.3235  1.9100
19988TIP3   OH281454   6.741   5.075  15.677 -0.0026 -0.0275 -0.2698
19988TIP3    H181455   6.797   5.068  15.600 -0.0084  0.7109 -0.3436
19988TIP3    H281456   6.684   4.998  15.672 -1.1467  0.8634 -1.9318
19989TIP3   OH281457   1.942   0.193  13.913  1.1519 -0.3261  0.0701
19989TIP3    H181458   2.019   0.214  13.966 -1.2218  2.6091  2.8080
19989TIP3    H281459   1.907   0.113  13.951  1.6215 -0.3934  0.3631
19990TIP3   OH281460   0.364   1.455   0.463  0.2716  0.0281 -0.4809
19990TIP3    H181461   0.277   1.494   0.473  0.9215  1.1051  1.5143
19990TIP3    H281462   0.425   1.521   0.497  1.4521 -2.4988  3.0176
19991TIP3   OH281463   2.166   4.382   0.435  0.1575 -0.3183 -0.3354
19991TIP3    H181464   2.220   4.307   0.460  0.5244  0.1883  0.4643
19991TIP3    H281465   2.097   4.385   0.502 -0.0018 -0.1017 -0.5078
19992TIP3   OH281466   4.248   5.895   1.294  0.4056  0.5002 -0.0614
19992TIP3    H181467   4.330   5.945   1.298  0.7426  0.0198 -0.6870
19992TIP3    H281468   4.253   5.849   1.210 -0.3165  0.1344  0.0898
19993TIP3   OH281469   2.075   1.349   2.191 -0.3117 -0.2202 -0.4701
19993TIP3    H181470   2.119   1.417   2.140  1.7442  0.1066  1.5920
19993TIP3    H281471   2.084   1.269   2.138 -1.5097  0.7421 -2.2525
19994TIP3   OH281472   6.373   2.199   2.980  0.7912 -1.2712  0.0615
19994TIP3    H181473   6.359   2.107   2.955  1.7892 -1.6179  0.7102
19994TIP3    H281474   6.373   2.198   3.076 -1.5415 -0.1894  0.1359
19995TIP3   OH281475   4.034   3.078  13.580 -0.0071 -0.2217  0.1278
19995TIP3    H181476   3.949   3.067  13.623 -0.1706 -1.7705 -0.5187
19995TIP3    H281477   4.014   3.125  13.499 -0.1606 -0.0717  0.2541
19996TIP3   OH281478   2.622   5.556  12.430 -0.2985  0.1568  0.0849
19996TIP3    H181479   2.660   5.586  12.513  0.0531  0.0947 -0.0523
19996TIP3    H281480   2.645   5.463  12.426 -0.2950  0.1657 -0.0936
19997TIP3   OH281481   2.230   6.336  13.120  0.3398 -0.2934  0.0788
19997TIP3    H181482   2.223   6.337  13.216 -0.0102 -1.5823  0.0854
19997TIP3    H281483   2.284   6.260  13.101  1.6856  0.7975 -0.7165
19998TIP3   OH281484   5.635   3.500   5.098  0.9014  0.8379 -0.1624
19998TIP3    H181485   5.613   3.563   5.167  1.2521  1.9245 -1.0085
19998TIP3    H281486   5.720   3.531   5.065  0.8866  0.1437 -0.8619
19999TIP3   OH281487   0.952   6.263  15.773  0.0742  0.1788  0.0721
19999TIP3    H181488   0.932   6.347  15.813 -1.3062  0.3736 -0.9700
19999TIP3    H281489   0.905   6.199  15.826  1.0289  0.0603  0.7945
20000TIP3   OH281490   1.828   6.807  15.453  0.0520 -0.1038 -0.6721
20000TIP3    H181491   1.820   6.899  15.428 -0.9390 -0.1598 -0.5896
20000TIP3    H281492   1.758   6.793  15.517 -0.8961 -1.3348 -1.9107
20001TIP3   OH281493   2.609   5.682  15.056  0.5092  0.1149 -0.3556
20001TIP3    H181494   2.571   5.595  15.042  1.3195 -0.4183  0.6220
20001TIP3    H281495   2.702   5.671  15.037  0.6466  0.7193 -0.0593
20002TIP3   OH281496   6.009   1.532   4.665 -0.8588  0.5451  0.1406
20002TIP3    H181497   6.071   1.605   4.669 -0.7273  0.6430 -2.2786
20002TIP3    H281498   6.025   1.483   4.746  0.5441  2.0045  0.8109
20003TIP3   OH281499   3.211   5.574  15.533  0.3860  0.1138 -0.3152
20003TIP3    H181500   3.134   5.631  15.536  0.4019  0.1242  2.6673
20003TIP3    H281501   3.281   5.626  15.573  1.4755 -0.6047 -1.2066
20004TIP3   OH281502   5.009   5.750  15.500  0.1392 -0.0818  0.2418
20004TIP3    H181503   5.084   5.783  15.451  0.0026  0.9847  0.7246
20004TIP3    H281504   5.041   5.670  15.541  0.5077 -0.5273 -0.8717
20005TIP3   OH281505   2.440   3.191  16.060  0.2295 -0.4146  1.1206
20005TIP3    H181506   2.399   3.229  16.138 -0.9098  0.7035  0.0195
20005TIP3    H281507   2.487   3.263  16.019 -0.2795 -0.6521  0.0799
20006TIP3   OH281508   0.173   2.996  14.366  0.1665 -0.7815  0.6591
20006TIP3    H181509   0.132   3.034  14.444  0.1169  0.5122  0.0290
20006TIP3    H281510   0.212   3.071  14.321 -1.3092 -1.2126 -1.4849
20007TIP3   OH281511   3.407   0.770   5.747 -0.2865 -0.1408  0.0257
20007TIP3    H181512   3.367   0.700   5.799 -1.1335  0.4821  0.2291
20007TIP3    H281513   3.403   0.847   5.803 -0.2423  0.2965 -0.5620
20008TIP3   OH281514   1.559   5.515  15.870 -0.0267  0.2236 -0.1667
20008TIP3    H181515   1.615   5.438  15.859 -0.3748  0.3146 -3.9144
20008TIP3    H281516   1.494   5.507  15.800 -1.9809  2.4084  1.2600
20009TIP3   OH281517   4.936   5.675  11.405 -0.0439 -0.0699  0.3041
20009TIP3    H181518   4.902   5.723  11.330  0.1088 -1.5466 -0.7506
20009TIP3    H281519   4.891   5.591  11.402 -0.3458 -0.0220  2.1310
20010TIP3   OH281520   4.110   3.802   0.423  0.1154 -0.1014 -0.0176
20010TIP3    H181521   4.114   3.881   0.369  0.7213  0.7660  1.2315
20010TIP3    H281522   4.198   3.794   0.460  0.1352 -1.5239 -0.3285
20011TIP3   OH281523   2.492   3.940  11.444 -0.1498  0.0359  0.5804
20011TIP3    H181524   2.508   4.030  11.418  0.0212  0.9813  3.5119
20011TIP3    H281525   2.444   3.901  11.371  0.9451  2.0846 -1.3193
20012TIP3   OH281526   0.540   1.734   3.542 -0.4513 -0.5270  0.7966
20012TIP3    H181527   0.449   1.751   3.566 -0.0018  2.5703  0.6787
20012TIP3    H281528   0.582   1.820   3.542  2.7586 -1.9216  1.8470
20013TIP3   OH281529   1.284   2.238   5.453  0.8668  0.1814 -0.2172
20013TIP3    H181530   1.279   2.167   5.389  0.0009 -1.1040  1.2236
20013TIP3    H281531   1.241   2.312   5.409 -0.4931 -0.9180 -0.8188
20014TIP3   OH281532   0.851   5.771  17.082  0.6030  0.2248 -0.7237
20014TIP3    H181533   0.943   5.784  17.103 -0.2532  1.6945  2.7630
20014TIP3    H281534   0.832   5.836  17.014  1.1204  3.5574  2.0606
20015TIP3   OH281535   1.593   6.782  15.191 -0.7685 -0.1968 -0.1121
20015TIP3    H181536   1.570   6.693  15.218 -0.2344 -0.1557  0.5019
20015TIP3    H281537   1.528   6.838  15.235 -0.6602 -0.2303  0.0939
20016TIP3   OH281538   5.550   6.270   2.145 -0.0258  0.2145  0.2707
20016TIP3    H181539   5.463   6.310   2.134 -0.4623 -0.4150  1.2865
20016TIP3    H281540   5.566   6.224   2.063 -0.7515  0.1621  0.1486
20017TIP3   OH281541   3.299   6.026   5.190 -0.4712 -0.3242  0.0628
20017TIP3    H181542   3.346   6.064   5.116 -0.3114 -2.3002 -0.9256
20017TIP3    H281543   3.363   6.026   5.261  0.2547 -0.7574 -0.5691
20018TIP3   OH281544   4.573   6.658  15.132  0.0314  0.4112  0.3669
20018TIP3    H181545   4.522   6.587  15.093  2.1635 -2.5917  2.6465
20018TIP3    H281546   4.508   6.712  15.177 -1.4398 -1.8691  1.1379
20019TIP3   OH281547   1.309   6.274   5.122 -0.2071 -0.1542 -0.1801
20019TIP3    H181548   1.350   6.305   5.041  0.4776 -0.3918  0.0646
20019TIP3    H281549   1.279   6.185   5.101 -0.8767  0.1297 -0.4492
20020TIP3   OH281550   3.117   0.946   5.251 -0.3899  0.6042  0.0264
20020TIP3    H181551   3.169   1.012   5.297 -0.8547 -0.3712  2.0827
20020TIP3    H281552   3.162   0.935   5.167  2.4243  0.2185  1.4499
20021TIP3   OH281553   2.986   3.091  12.124 -0.3238  0.4095  0.0325
20021TIP3    H181554   3.052   3.121  12.186  0.3847  0.9693 -0.9581
20021TIP3    H281555   2.981   3.161  12.059 -0.7408 -0.3487 -0.7714
20022TIP3   OH281556   2.155   6.240   3.818 -0.9006 -0.0705 -0.1961
20022TIP3    H181557   2.119   6.230   3.907  2.0395 -0.4240  1.0881
20022TIP3    H281558   2.189   6.153   3.797  0.1327  0.4737 -0.8490
20023TIP3   OH281559   5.087   2.384  14.494 -0.2802  0.3111 -0.5059
20023TIP3    H181560   5.043   2.469  14.498 -0.4026  0.2187  0.3050
20023TIP3    H281561   5.171   2.399  14.538 -0.4212 -0.0534 -0.1092
20024TIP3   OH281562   3.341   0.665   2.305  0.7637 -0.2848  0.2481
20024TIP3    H181563   3.389   0.589   2.273  0.7802 -0.9942  1.8418
20024TIP3    H281564   3.252   0.653   2.270  0.9321 -0.6912 -0.0522
20025TIP3   OH281565   1.620   1.064  14.485 -0.0008  0.4585 -0.5455
20025TIP3    H181566   1.710   1.039  14.510 -0.0191  1.8062  1.0867
20025TIP3    H281567   1.631   1.125  14.413  0.1527 -2.0698 -2.8392
20026TIP3   OH281568   4.712   4.380  15.432 -0.5158 -0.0241  0.0814
20026TIP3    H181569   4.804   4.383  15.460 -0.4157 -0.9999 -0.0910
20026TIP3    H281570   4.713   4.321  15.356 -0.9969  1.4561 -1.1335
20027TIP3   OH281571   5.599   5.249  14.257  0.5294 -0.3601  0.0200
20027TIP3    H181572   5.623   5.220  14.345  2.1566  2.3920  0.5711
20027TIP3    H281573   5.506   5.271  14.263  0.6249 -0.2123  1.0588
20028TIP3   OH281574   6.286   2.489   4.702 -0.3480 -0.0277  0.1310
20028TIP3    H181575   6.209   2.448   4.663 -1.0778  0.9066  0.5835
20028TIP3    H281576   6.356   2.474   4.638 -0.7348 -1.4226 -0.0027
20029TIP3   OH281577   0.446   3.976  15.184  0.4019 -0.0274 -0.1871
20029TIP3    H181578   0.447   3.929  15.100  1.4587  1.4687 -1.0580
20029TIP3    H281579   0.494   3.918  15.243  1.6255 -0.1245 -1.2221
20030TIP3   OH281580   3.350   4.174   2.245  0.5104 -0.0440  0.0451
20030TIP3    H181581   3.277   4.134   2.198 -0.1176  0.8869  0.1892
20030TIP3    H281582   3.389   4.103   2.294 -0.8201 -0.4238  0.6118
20031TIP3   OH281583   1.465   3.134  15.923  0.0286 -0.1366 -0.3098
20031TIP3    H181584   1.526   3.153  15.852 -0.1485 -1.0627 -0.7247
20031TIP3    H281585   1.379   3.131  15.880 -0.3504  1.1967  0.2699
20032TIP3   OH281586   2.267   2.258  11.820 -0.4913  0.1973 -0.1254
20032TIP3    H181587   2.316   2.339  11.807 -1.0068  0.6518  0.7149
20032TIP3    H281588   2.204   2.256  11.748 -1.2964  1.1656  0.5427
20033TIP3   OH281589   6.657   2.169   3.679  0.0236 -0.1219 -0.4648
20033TIP3    H181590   6.567   2.191   3.653  0.3122  0.8398 -0.6737
20033TIP3    H281591   6.709   2.181   3.600  0.7418  1.8390  0.2658
20034TIP3   OH281592   4.754   6.346  16.953  0.3345  0.1229  0.3292
20034TIP3    H181593   4.825   6.409  16.937  0.5510 -0.1559  0.1698
20034TIP3    H281594   4.709   6.339  16.868 -0.8870  1.5015  0.8288
20035TIP3   OH281595   0.494   2.472  15.161 -0.0120  0.2587  0.4437
20035TIP3    H181596   0.495   2.470  15.065  0.9829  1.9074  0.3837
20035TIP3    H281597   0.487   2.565  15.183 -2.2159 -0.2022  2.0094
20036TIP3   OH281598   1.942   4.317   3.291 -0.1047  0.3190  0.2245
20036TIP3    H181599   1.912   4.364   3.368 -1.2768  1.3108 -0.7946
20036TIP3    H281600   2.033   4.295   3.310 -0.7262 -0.6520  2.4266
20037TIP3   OH281601   4.952   0.341  14.296  0.3614 -0.2802  0.0624
20037TIP3    H181602   4.885   0.409  14.295  1.2209  0.6059  0.7391
20037TIP3    H281603   4.948   0.302  14.208 -1.1064 -0.3447  0.1239
20038TIP3   OH281604   3.535   1.251  14.347  0.0549 -0.2999  0.0096
20038TIP3    H181605   3.459   1.203  14.381  1.2453 -2.5133 -0.2327
20038TIP3    H281606   3.572   1.193  14.280  0.0304  2.2131 -2.3788
20039TIP3   OH281607   6.150   3.407   4.306 -0.3742 -0.0031 -0.2924
20039TIP3    H181608   6.188   3.329   4.264 -2.1134 -0.4178 -1.2050
20039TIP3    H281609   6.213   3.477   4.289 -0.3017 -0.5026 -2.3812
20040TIP3   OH281610   0.342   1.885   1.655  0.0721 -0.2753  0.3065
20040TIP3    H181611   0.267   1.899   1.598  2.3303  2.9042 -2.2665
20040TIP3    H281612   0.392   1.815   1.612 -0.2775 -0.8672  0.8330
20041TIP3   OH281613   2.175   0.238  15.913  0.4538 -0.0658 -0.5493
20041TIP3    H181614   2.160   0.303  15.982 -3.0459  0.8436 -1.9489
20041TIP3    H281615   2.143   0.156  15.950 -2.7061  0.6701 -1.3519
20042TIP3   OH281616   0.954   1.236  14.116 -0.2750 -0.3040  0.3235
20042TIP3    H181617   1.043   1.225  14.083 -0.5651  0.2395 -0.6705
20042TIP3    H281618   0.931   1.326  14.094 -1.4650 -0.7695 -0.4511
20043TIP3   OH281619   4.515   0.893   5.896  0.1663 -0.1992  0.7052
20043TIP3    H181620   4.539   0.985   5.892  0.3526 -0.2320  1.0499
20043TIP3    H281621   4.431   0.891   5.941 -1.1926  0.0370 -1.6908
20044TIP3   OH281622   5.234   0.994   2.236  0.6146 -0.0876  0.3139
20044TIP3    H181623   5.147   0.956   2.243  0.2075  0.8939  0.8058
20044TIP3    H281624   5.279   0.967   2.315  0.1502  0.8485  0.9192
20045TIP3   OH281625   0.697   0.077  15.100  0.0175  0.5893 -0.1859
20045TIP3    H181626   0.651   0.160  15.110  0.4191  0.6121  2.0988
20045TIP3    H281627   0.779   0.101  15.057 -0.0824  1.3091  0.0053
20046TIP3   OH281628   3.061   0.847  14.516  0.3788 -0.1212 -0.4108
20046TIP3    H181629   3.069   0.771  14.459 -0.2458 -0.8219  0.3933
20046TIP3    H281630   3.151   0.876  14.532  0.6341 -0.8217 -0.5616
20047TIP3   OH281631   5.435   2.347  15.541  0.2403  0.6595  0.1320
20047TIP3    H181632   5.461   2.429  15.582 -3.0739  2.8235 -1.6230
20047TIP3    H281633   5.467   2.354  15.451 -0.3401  0.1810 -0.1150
20048TIP3   OH281634   6.611   6.039   1.459 -0.2723  0.1594 -0.6823
20048TIP3    H181635   6.555   6.117   1.461  0.0343  0.3786 -0.5850
20048TIP3    H281636   6.552   5.967   1.483 -0.0345  0.6876  1.7800
20049TIP3   OH281637   2.301   1.167   3.573  0.3468  0.2720 -0.2541
20049TIP3    H181638   2.359   1.152   3.499  0.8384  0.7007  0.0407
20049TIP3    H281639   2.292   1.262   3.577 -1.7685  0.1943 -1.3639
20050TIP3   OH281640   3.081   6.753  16.781  0.4133 -0.0203 -0.1808
20050TIP3    H181641   2.992   6.731  16.811  1.0206 -1.9773  0.3649
20050TIP3    H281642   3.070   6.771  16.687 -0.4395 -1.3427 -0.3782
20051TIP3   OH281643   4.302   1.602  16.116 -0.1475  0.0583  0.0144
20051TIP3    H181644   4.220   1.570  16.153  0.0489 -0.2988  0.1417
20051TIP3    H281645   4.369   1.578  16.181 -0.1502  1.8085  0.7104
20052TIP3   OH281646   3.954   4.954  13.793 -0.0702 -0.0863 -0.2017
20052TIP3    H181647   3.983   5.027  13.848  0.0754 -0.2424 -0.0690
20052TIP3    H281648   3.862   4.943  13.813 -0.0440 -0.0698 -0.0727
20053TIP3   OH281649   6.319   3.918   6.301 -0.2962 -0.5911  0.3819
20053TIP3    H181650   6.390   3.888   6.245  0.9635 -1.0140  2.1486
20053TIP3    H281651   6.241   3.915   6.244  1.2945  1.7252 -2.1976
20054TIP3   OH281652   4.210   5.762   2.048  0.3675 -0.1956  0.4473
20054TIP3    H181653   4.244   5.840   2.092  1.1238  0.0122 -0.4585
20054TIP3    H281654   4.288   5.714   2.023  0.1655  1.0031 -2.9857
20055TIP3   OH281655   5.395   1.290  14.409 -0.6793 -0.2071 -0.2336
20055TIP3    H181656   5.425   1.260  14.323  1.8232 -1.3579  0.9374
20055TIP3    H281657   5.459   1.358  14.433 -2.5791  1.6435 -0.1103
20056TIP3   OH281658   4.861   6.765  12.493 -0.0776 -0.0136  0.8361
20056TIP3    H181659   4.880   6.847  12.539 -0.1088  0.6473 -0.2704
20056TIP3    H281660   4.921   6.701  12.531  0.7853  0.8133  0.9266
20057TIP3   OH281661   3.902   2.780   4.829 -0.4852 -0.2193  0.4221
20057TIP3    H181662   3.928   2.838   4.900  1.4874  0.0390 -0.4548
20057TIP3    H281663   3.953   2.700   4.843 -2.5898 -1.5140  1.1733
20058TIP3   OH281664   5.855   4.598   1.079 -0.1738 -0.4964  0.1264
20058TIP3    H181665   5.801   4.622   1.004 -1.0609 -0.3121  0.8000
20058TIP3    H281666   5.869   4.681   1.125 -0.3142 -0.7282  0.5900
20059TIP3   OH281667   5.811   1.743  12.285 -0.5964  0.2642  0.4870
20059TIP3    H181668   5.836   1.724  12.194 -4.8991 -0.3685 -0.7820
20059TIP3    H281669   5.836   1.665  12.334 -2.1991 -1.3490 -1.1406
20060TIP3   OH281670   2.963   5.456   2.794 -0.7858  0.2903 -0.4489
20060TIP3    H181671   2.892   5.460   2.730 -1.1744 -0.2407 -0.0531
20060TIP3    H281672   2.935   5.390   2.857  0.8917 -1.3318 -1.3080
20061TIP3   OH281673   2.319   1.869   3.530  0.0734  0.1528 -0.0942
20061TIP3    H181674   2.392   1.853   3.590  1.1576  0.4677 -1.2840
20061TIP3    H281675   2.246   1.893   3.587  1.0603  0.4411  1.0976
20062TIP3   OH281676   1.611   4.213   0.648  0.3942 -0.1157 -0.9293
20062TIP3    H181677   1.649   4.152   0.711 -0.2822  0.8368  0.4526
20062TIP3    H281678   1.538   4.165   0.609  0.4998 -0.5447 -0.6068
20063TIP3   OH281679   0.974   5.859   5.591  0.1388  0.7314 -0.0378
20063TIP3    H181680   0.986   5.815   5.507 -2.8040 -0.3352  0.0069
20063TIP3    H281681   0.932   5.942   5.569  1.5130  1.5409  0.2545
20064TIP3   OH281682   4.201   3.131   5.146 -0.0253  0.1921  0.0803
20064TIP3    H181683   4.217   3.202   5.084  2.0749 -0.6720 -0.4699
20064TIP3    H281684   4.263   3.062   5.119 -1.4775 -1.5708  1.0142
20065TIP3   OH281685   5.631   5.896   1.844 -0.3274  0.0430 -0.4951
20065TIP3    H181686   5.664   5.845   1.918  0.3372  0.5571 -0.4332
20065TIP3    H281687   5.704   5.899   1.783  0.7106  3.3420  0.7218
20066TIP3   OH281688   2.949   1.275  16.030  0.3990 -0.1044 -0.3680
20066TIP3    H181689   2.905   1.345  16.077 -0.3249 -0.0231 -1.1356
20066TIP3    H281690   3.039   1.276  16.063  0.5103  1.4512 -0.6631
20067TIP3   OH281691   1.968   2.289  13.350  0.0822  0.2920  0.3466
20067TIP3    H181692   2.010   2.209  13.380  0.4852 -0.1533 -1.3206
20067TIP3    H281693   1.950   2.274  13.258 -0.9461  1.6701  0.2906
20068TIP3   OH281694   1.547   1.584   0.939  0.7263 -0.1347 -0.0956
20068TIP3    H181695   1.494   1.516   0.982 -0.5897  0.2880 -1.0022
20068TIP3    H281696   1.495   1.664   0.949  1.8786  0.5846  0.2423
20069TIP3   OH281697   2.593   6.772   3.276  0.2839 -0.8969  0.3734
20069TIP3    H181698   2.621   6.742   3.362 -0.4471  0.0427  0.9452
20069TIP3    H281699   2.596   6.867   3.281  1.3388 -0.8133 -1.0105
20070TIP3   OH281700   3.965   2.019   4.895  0.1207 -1.0415 -0.1456
20070TIP3    H181701   3.990   1.930   4.922  1.5600 -0.7844 -0.5515
20070TIP3    H281702   4.040   2.051   4.845 -1.0647 -0.2195 -1.4762
20071TIP3   OH281703   2.394   2.145  10.247 -0.0691 -0.9253 -0.5269
20071TIP3    H181704   2.307   2.172  10.275  0.7694  0.9181  0.4977
20071TIP3    H281705   2.446   2.143  10.328  0.9836 -1.4579 -1.1853
20072TIP3   OH281706   1.489   4.361  15.304 -0.2778 -0.4921 -0.2107
20072TIP3    H181707   1.417   4.371  15.242  2.5555 -2.2235 -4.2153
20072TIP3    H281708   1.478   4.273  15.339 -1.1417  0.0045  0.8460
20073TIP3   OH281709   3.471   4.130   4.906  0.1004 -0.1753  0.3294
20073TIP3    H181710   3.426   4.196   4.959  0.5064 -0.3218  0.8655
20073TIP3    H281711   3.530   4.180   4.849 -1.3865  0.0911 -1.0532
20074TIP3   OH281712   1.858   4.667   3.296  0.2193  0.1946  0.3840
20074TIP3    H181713   1.889   4.753   3.268 -0.3033 -0.2500 -1.7085
20074TIP3    H281714   1.923   4.638   3.360  1.8943  1.0211 -0.8562
20075TIP3   OH281715   2.048   2.566   0.115  0.5121  0.1319 -0.5279
20075TIP3    H181716   2.087   2.479   0.114  2.8263  1.0165  1.7446
20075TIP3    H281717   2.013   2.576   0.203  0.6137  1.6196 -0.6303
20076TIP3   OH281718   2.303   6.021  11.399 -0.2231 -0.0390 -0.6788
20076TIP3    H181719   2.246   6.043  11.472  1.1543  0.1662  0.3840
20076TIP3    H281720   2.296   6.095  11.340  0.3590  0.8693  0.3529
20077TIP3   OH281721   0.317   5.083  11.497  0.2534 -0.7853  0.0157
20077TIP3    H181722   0.352   5.164  11.458  2.7127 -2.4815 -1.5644
20077TIP3    H281723   0.346   5.085  11.588  0.6299 -0.0809 -0.1150
20078TIP3   OH281724   6.026   1.236   0.211 -0.2671  0.2937 -0.3295
20078TIP3    H181725   6.050   1.146   0.233 -0.1939  0.3919 -0.0057
20078TIP3    H281726   5.954   1.257   0.271  0.4677  0.8417  0.3841
20079TIP3   OH281727   6.423   2.129  10.729 -0.5286  0.3158 -0.2567
20079TIP3    H181728   6.502   2.108  10.779 -1.3797  0.4465  1.2309
20079TIP3    H281729   6.450   2.197  10.668  0.1709  1.5880  1.3985
20080TIP3   OH281730   6.686   5.202  16.966  0.6554 -0.1373  0.2589
20080TIP3    H181731   6.636   5.282  16.985 -0.4909 -1.0508  1.2248
20080TIP3    H281732   6.674   5.187  16.873 -1.7652 -0.8733  0.6306
20081TIP3   OH281733   4.053   4.520   1.054  0.3079  0.5122  0.0851
20081TIP3    H181734   4.040   4.615   1.061  0.1862  0.7005 -2.0084
20081TIP3    H281735   3.965   4.485   1.043  0.4439  0.2757 -0.2541
20082TIP3   OH281736   6.336   5.565   0.184 -0.0069 -0.2305 -0.2990
20082TIP3    H181737   6.425   5.598   0.172  0.0515 -0.5873 -0.8742
20082TIP3    H281738   6.338   5.523   0.270  0.1898  0.3720 -0.0076
20083TIP3   OH281739   6.667   6.533   1.292 -0.4975 -0.8850  0.2950
20083TIP3    H181740   6.588   6.487   1.261 -0.3969 -0.4521 -0.6393
20083TIP3    H281741   6.739   6.492   1.243 -0.4857  0.7463 -1.1334
20084TIP3   OH281742   2.515   3.674  15.012  0.0135  0.6884 -0.1008
20084TIP3    H181743   2.549   3.763  15.018  0.5059  0.4726  0.3918
20084TIP3    H281744   2.539   3.633  15.095 -0.0868  0.0523 -0.3780
20085TIP3   OH281745   4.508   5.945  15.507  0.0109  0.3177 -0.1811
20085TIP3    H181746   4.472   5.884  15.442 -0.0694  1.7737 -1.5775
20085TIP3    H281747   4.579   5.897  15.548 -0.0089 -0.7073 -1.2751
20086TIP3   OH281748   3.673   5.418   0.010 -0.1929 -0.1116 -0.3147
20086TIP3    H181749   3.705   5.427  -0.080 -0.9611  1.2677 -0.4710
20086TIP3    H281750   3.581   5.443   0.005 -0.1768  0.2449  0.9080
20087TIP3   OH281751   0.523   2.976   1.173  0.2399 -0.3761  0.3920
20087TIP3    H181752   0.567   3.061   1.166 -0.9491  0.1526 -1.5516
20087TIP3    H281753   0.586   2.920   1.219  0.8760  1.6334  2.1050
20088TIP3   OH281754   5.168   5.690  14.694  0.6085 -0.3495  0.2702
20088TIP3    H181755   5.147   5.702  14.602  2.4490 -0.7235 -0.2480
20088TIP3    H281756   5.262   5.706  14.700  0.8012 -1.7234  1.8198
20089TIP3   OH281757   0.102   0.869  12.483 -0.0909 -0.0253 -0.4889
20089TIP3    H181758   0.120   0.957  12.450  2.4373  0.2735  1.3764
20089TIP3    H281759   0.007   0.860  12.475 -0.2728  2.2797 -2.0715
20090TIP3   OH281760   0.530   5.477  15.873 -0.0427 -0.1628  0.3181
20090TIP3    H181761   0.512   5.392  15.914 -1.4413 -0.6338 -1.1484
20090TIP3    H281762   0.584   5.456  15.797 -0.3009  0.2705  0.0133
20091TIP3   OH281763   5.955   4.116  15.670 -0.0448  0.4493 -0.1564
20091TIP3    H181764   5.987   4.190  15.722 -0.3341  0.9332 -0.6582
20091TIP3    H281765   5.933   4.049  15.735  1.9324  0.0961  0.2132
20092TIP3   OH281766   1.455   1.762   4.746  0.0887  0.7187  0.1028
20092TIP3    H181767   1.528   1.823   4.735 -0.1089  1.1002  0.8265
20092TIP3    H281768   1.440   1.759   4.841 -2.3186  2.4265 -0.1400
20093TIP3   OH281769   0.799   4.124  10.518  0.0349 -0.4816 -1.0370
20093TIP3    H181770   0.744   4.086  10.450 -1.5575  0.7274 -0.4700
20093TIP3    H281771   0.738   4.159  10.582  1.4725  0.6827 -0.2444
20094TIP3   OH281772   0.663   5.040   0.502  0.0044 -0.6931 -0.5481
20094TIP3    H181773   0.607   5.099   0.552  0.6277  0.0236 -0.6624
20094TIP3    H281774   0.646   5.063   0.410 -0.5431 -1.4456 -0.6436
20095TIP3   OH281775   3.683   1.835   1.018  0.1065  0.0362  0.5529
20095TIP3    H181776   3.777   1.847   1.023  0.0882  0.5036 -0.0224
20095TIP3    H281777   3.671   1.769   0.949  0.1210 -2.1419  2.4956
20096TIP3   OH281778   0.783   3.871   0.862 -0.5702 -0.0857  0.5401
20096TIP3    H181779   0.712   3.935   0.869 -0.3487  0.2279 -0.0251
20096TIP3    H281780   0.847   3.899   0.928  0.3070  1.2964 -0.8291
20097TIP3   OH281781   5.488   5.758  14.225 -0.0475  0.4392 -0.0819
20097TIP3    H181782   5.467   5.686  14.284 -0.3857  1.6845  1.3627
20097TIP3    H281783   5.568   5.796  14.260  0.6325  0.2600 -1.3481
20098TIP3   OH281784   0.119   6.649   2.115 -0.1977  0.7310 -0.1142
20098TIP3    H181785   0.171   6.651   2.195 -0.5125 -0.7580  0.1407
20098TIP3    H281786   0.036   6.609   2.140  0.7362 -2.4798 -1.7189
20099TIP3   OH281787   6.697   5.077  15.370 -0.4694 -0.0397 -0.2485
20099TIP3    H181788   6.658   5.134  15.436 -1.7621 -0.1310 -0.8959
20099TIP3    H281789   6.660   5.108  15.287 -0.4617 -1.2135 -0.7166
20100TIP3   OH281790   1.792   2.276   2.271  0.1818  0.1781 -1.0107
20100TIP3    H181791   1.712   2.269   2.220 -0.0249 -0.8460 -0.5663
20100TIP3    H281792   1.782   2.211   2.340  1.1479  0.4444 -0.6057
20101TIP3   OH281793   2.227   5.801   1.557 -0.4681  0.1652  0.2586
20101TIP3    H181794   2.252   5.755   1.637 -2.1085  2.0665  1.9895
20101TIP3    H281795   2.310   5.836   1.523  0.1725  0.0896  1.6464
20102TIP3   OH281796   3.640   4.601   4.011 -0.3029  0.1015  0.4552
20102TIP3    H181797   3.734   4.599   3.993 -0.7520  0.3343 -2.3927
20102TIP3    H281798   3.627   4.682   4.060  0.8989  0.3438  0.4092
20103TIP3   OH281799   6.419   1.038  15.108  0.4337  0.6490 -0.2579
20103TIP3    H181800   6.328   1.067  15.119  0.5324  1.6643 -1.8399
20103TIP3    H281801   6.470   1.119  15.110  1.1890  0.1885 -0.5074
20104TIP3   OH281802   2.430   4.544  12.073 -0.0665 -0.1401  0.4165
20104TIP3    H181803   2.366   4.518  12.139  0.5906 -1.2365  0.6465
20104TIP3    H281804   2.509   4.494  12.096  0.4451  0.1489 -0.6748
20105TIP3   OH281805   1.108   3.229   1.985 -0.0488  0.5803 -0.5731
20105TIP3    H181806   1.076   3.190   1.903 -1.6058  0.4827  0.0389
20105TIP3    H281807   1.065   3.177   2.053  2.2280 -0.1910  0.3719
20106TIP3   OH281808   3.176   3.734   4.591  0.0163  0.0781  0.0788
20106TIP3    H181809   3.120   3.785   4.648 -0.7232 -0.2380 -0.3530
20106TIP3    H281810   3.129   3.651   4.578  0.1263  0.1691 -1.0372
20107TIP3   OH281811   2.705   2.609  13.206 -0.1585  0.3361  0.1970
20107TIP3    H181812   2.718   2.562  13.288 -2.0455  1.4239  1.1954
20107TIP3    H281813   2.744   2.695  13.221 -1.5204  0.9424  0.4323
20108TIP3   OH281814   4.440   6.198  16.175 -0.2448  0.9076  0.0937
20108TIP3    H181815   4.371   6.138  16.146 -0.0128 -0.0594  1.4410
20108TIP3    H281816   4.466   6.245  16.095 -0.5433 -0.6712 -0.9827
20109TIP3   OH281817   1.646   4.987   5.555 -0.0306  0.3320 -0.1884
20109TIP3    H181818   1.650   4.949   5.468  0.2048  0.6885 -0.3330
20109TIP3    H281819   1.610   5.075   5.542 -1.9940 -0.3402  0.3015
20110TIP3   OH281820   6.766   5.296   1.245  0.1086 -0.4317 -0.1228
20110TIP3    H181821   6.827   5.320   1.315 -1.2792 -0.5092  1.1825
20110TIP3    H281822   6.717   5.376   1.227 -3.0080 -1.4657  2.6746
20111TIP3   OH281823   0.062   3.936  11.184 -0.1025  0.0458 -0.3183
20111TIP3    H181824   0.076   3.849  11.148  2.6399 -0.0510  0.7267
20111TIP3    H281825   0.028   3.988  11.111  2.0918 -0.9350 -2.1317
20112TIP3   OH281826   2.482   4.141   2.591  0.0980  0.1082 -0.0382
20112TIP3    H181827   2.416   4.209   2.592  0.5730  0.5850 -0.3541
20112TIP3    H281828   2.469   4.093   2.672  0.4039  1.2117  0.6887
20113TIP3   OH281829   5.557   6.542   0.203  0.0691 -0.6221  0.1916
20113TIP3    H181830   5.607   6.471   0.163  0.0174 -1.2150  1.1410
20113TIP3    H281831   5.624   6.600   0.240  0.0963 -0.5907  0.0919
20114TIP3   OH281832   6.682   2.770   3.695  0.5958  1.7348 -0.0791
20114TIP3    H181833   6.590   2.777   3.720  0.6720  0.6492  0.5594
20114TIP3    H281834   6.723   2.718   3.765  0.7787 -1.5928 -2.4167
20115TIP3   OH281835   6.612   3.948  17.099  0.6709 -0.2947 -0.5535
20115TIP3    H181836   6.696   3.955  17.144  0.6169  0.2685 -0.5357
20115TIP3    H281837   6.566   3.877  17.144  0.0874  1.0990  1.1382
20116TIP3   OH281838   5.777   1.968  11.001  0.0362  0.1175  0.4010
20116TIP3    H181839   5.825   2.032  10.949 -0.6898  1.3978  1.2528
20116TIP3    H281840   5.696   2.013  11.026 -1.6787 -1.9851 -1.0400
20117TIP3   OH281841   2.779   0.184  11.270  0.1911  0.3626  0.8131
20117TIP3    H181842   2.742   0.131  11.200  0.1849 -1.2999  2.0330
20117TIP3    H281843   2.815   0.261  11.225 -0.9549 -0.0251 -0.8473
20118TIP3   OH281844   2.563   6.583  16.747 -0.3547  0.2610  0.0108
20118TIP3    H181845   2.488   6.559  16.694 -0.9477  1.6708  0.1761
20118TIP3    H281846   2.538   6.665  16.790  1.5812  1.2751 -0.6260
20119TIP3   OH281847   6.018   6.813  11.692 -0.8639  0.4291  0.2692
20119TIP3    H181848   5.990   6.890  11.741 -0.1446  0.2768  0.9407
20119TIP3    H281849   5.958   6.809  11.617  0.5946  3.1013 -1.2042
20120TIP3   OH281850   2.968   0.182  13.921 -0.1229  0.2531  0.0158
20120TIP3    H181851   2.874   0.178  13.905 -0.2750 -0.3202  0.9429
20120TIP3    H281852   2.976   0.229  14.004  0.4884  1.3500 -0.6574
20121TIP3   OH281853   6.172   1.162   1.750  0.4222  0.6959 -0.0163
20121TIP3    H181854   6.224   1.137   1.674 -0.8053 -0.2285 -0.5988
20121TIP3    H281855   6.236   1.178   1.820  1.4570 -2.9977  0.0755
20122TIP3   OH281856   3.205   5.065   2.028  0.4692 -0.7336  0.6005
20122TIP3    H181857   3.214   5.052   1.934  0.5709  2.1406  0.1223
20122TIP3    H281858   3.256   4.994   2.067  2.3070 -0.7194 -1.5786
20123TIP3   OH281859   2.382   2.375   0.292 -0.1401 -0.5029  0.2632
20123TIP3    H181860   2.342   2.459   0.315 -2.9003 -2.1756  2.1473
20123TIP3    H281861   2.425   2.346   0.373 -1.1847 -1.8847  0.3590
20124TIP3   OH281862   1.978   6.284  13.426  0.1595  0.1103 -0.2749
20124TIP3    H181863   2.030   6.344  13.480 -0.3536 -0.7005  1.1629
20124TIP3    H281864   1.917   6.342  13.379  0.3062  0.8067  0.3628
20125TIP3   OH281865   0.049   5.182   0.377 -0.1037 -0.0866  0.1490
20125TIP3    H181866   0.027   5.094   0.409 -0.2013 -0.1374 -0.0550
20125TIP3    H281867   0.017   5.183   0.287  0.7387 -0.1692 -0.1598
20126TIP3   OH281868   1.602   5.884   5.293  0.1572 -0.6246 -0.1251
20126TIP3    H181869   1.634   5.846   5.375  0.6135  0.1769  0.0800
20126TIP3    H281870   1.538   5.950   5.321 -0.4512 -1.0694 -0.4634
20127TIP3   OH281871   0.040   4.900  13.511 -0.1463 -0.1422  0.1155
20127TIP3    H181872   0.096   4.869  13.582 -0.3145 -2.0792 -0.5314
20127TIP3    H281873  -0.037   4.937  13.555  0.6860  0.6238  0.9583
20128TIP3   OH281874   5.609   1.215   1.901 -0.3228 -0.1892 -0.4381
20128TIP3    H181875   5.660   1.134   1.898  1.3390  0.7769  0.4689
20128TIP3    H281876   5.558   1.207   1.981  1.4844  0.5553  0.8431
20129TIP3   OH281877   5.318   0.699   0.365 -0.2228 -0.2623 -0.1527
20129TIP3    H181878   5.242   0.654   0.402  1.0105 -1.9734  0.4401
20129TIP3    H281879   5.325   0.780   0.415 -0.6056 -0.9427  1.0475
20130TIP3   OH281880   2.542   1.299  15.471  0.1189 -0.2060  0.0706
20130TIP3    H181881   2.558   1.211  15.439  0.1353 -0.7506  1.4965
20130TIP3    H281882   2.591   1.304  15.553  0.1130  1.1297  0.0192
20131TIP3   OH281883   4.087   4.204  14.545 -0.2661  0.2775 -0.6361
20131TIP3    H181884   4.080   4.154  14.463 -0.7852 -1.4819  0.4121
20131TIP3    H281885   4.011   4.263  14.544 -0.8692 -0.4779 -0.9656
20132TIP3   OH281886   0.671   2.852  13.046  0.6129 -0.4603 -0.4578
20132TIP3    H181887   0.670   2.768  13.092  1.3167  0.0334  0.4791
20132TIP3    H281888   0.664   2.917  13.115  1.1738  0.2880 -1.0957
20133TIP3   OH281889   6.044   1.271  11.413  0.2286  0.4479 -0.4765
20133TIP3    H181890   6.032   1.288  11.507  1.6896  0.0882 -0.1941
20133TIP3    H281891   5.991   1.338  11.370 -0.8735  0.3125  0.5954
20134TIP3   OH281892   1.918   5.343   1.248 -0.1128  0.4978  0.1829
20134TIP3    H181893   1.961   5.403   1.309  1.0010  0.1318 -0.2059
20134TIP3    H281894   1.975   5.266   1.247 -0.7084  0.0521 -0.4789
20135TIP3   OH281895   2.315   1.086  14.516 -0.0198  0.2252  0.4649
20135TIP3    H181896   2.302   1.121  14.604  0.9724 -0.7068  1.0168
20135TIP3    H281897   2.366   1.153  14.470 -0.2954  0.5883  0.6850
20136TIP3   OH281898   4.917   0.878  15.350  0.5504 -0.0911  0.2898
20136TIP3    H181899   4.907   0.964  15.391 -2.5263  1.0619 -2.4323
20136TIP3    H281900   4.913   0.816  15.423 -2.1126  1.9065  2.0680
20137TIP3   OH281901   1.175   5.981   4.922  0.5482 -0.0257  0.1512
20137TIP3    H181902   1.252   5.946   4.879 -1.3179 -1.5290 -2.2410
20137TIP3    H281903   1.127   5.904   4.953 -0.3475  0.8137  0.9349
20138TIP3   OH281904   0.860   4.887  16.146  0.1547  0.5389  0.4110
20138TIP3    H181905   0.874   4.981  16.143 -0.3406  0.6363  1.0154
20138TIP3    H281906   0.896   4.855  16.063 -0.3782  1.3492 -0.1451
20139TIP3   OH281907   3.920   4.266  15.124  0.9058 -0.4610  0.0107
20139TIP3    H181908   3.923   4.290  15.032  4.7389  1.4749  0.4386
20139TIP3    H281909   3.945   4.173  15.126 -0.4589 -0.8687 -0.9245
20140TIP3   OH281910   6.632   1.338   0.392 -0.3176  0.0049 -0.2992
20140TIP3    H181911   6.666   1.419   0.429  0.7389 -1.6367  2.6533
20140TIP3    H281912   6.705   1.302   0.341 -0.0835 -0.0446  0.0663
20141TIP3   OH281913   0.960   0.116  11.992  0.1051  0.0086  0.1501
20141TIP3    H181914   0.933   0.089  11.905 -0.4217  0.6623  0.1085
20141TIP3    H281915   1.053   0.091  11.996  0.7709  1.9425 -1.4246
20142TIP3   OH281916   6.815   6.093  12.896 -0.0003 -0.6196 -0.3197
20142TIP3    H181917   6.852   6.007  12.915  2.5952  0.1756 -1.3769
20142TIP3    H281918   6.778   6.123  12.979  0.3466 -2.1428  0.4089
20143TIP3   OH281919   3.147   3.733  13.540 -0.2783 -0.6968 -0.3579
20143TIP3    H181920   3.111   3.647  13.517 -0.4009 -0.1442 -2.4196
20143TIP3    H281921   3.209   3.753  13.470  0.3028  0.5831  0.4815
20144TIP3   OH281922   1.577   4.993   4.030 -0.3055  0.6778  0.0612
20144TIP3    H181923   1.568   5.072   4.083 -1.3329 -1.0386  2.6168
20144TIP3    H281924   1.663   4.959   4.052  0.2340  1.1458 -1.2154
20145TIP3   OH281925   0.985   4.404  14.581  0.3305  0.0604  0.0151
20145TIP3    H181926   1.021   4.492  14.588 -2.2328  1.2455 -0.5431
20145TIP3    H281927   0.949   4.399  14.493 -1.7410 -0.6030  0.8248
20146TIP3   OH281928   3.841   5.495   4.036  0.5729 -0.1138  0.5623
20146TIP3    H181929   3.818   5.533   4.121  2.1319 -0.1749  1.0475
20146TIP3    H281930   3.931   5.465   4.047  0.3182 -1.4479 -0.6787
20147TIP3   OH281931   1.172   4.767   4.659 -0.0756  0.5393 -0.5589
20147TIP3    H181932   1.202   4.849   4.698 -0.5281  0.0775  0.8419
20147TIP3    H281933   1.170   4.705   4.732 -2.0948 -0.0666 -1.0441
20148TIP3   OH281934   2.412   2.871   3.156  0.1125 -0.0618  0.0976
20148TIP3    H181935   2.367   2.822   3.225  1.5073  0.6553  1.5846
20148TIP3    H281936   2.449   2.947   3.201  0.3587  0.8851 -1.6230
20149TIP3   OH281937   4.625   3.994   4.140 -0.1102 -0.0442 -0.2642
20149TIP3    H181938   4.697   3.937   4.112  0.6141  0.9157 -0.4017
20149TIP3    H281939   4.664   4.051   4.206 -1.0230 -0.2144  0.4376
20150TIP3   OH281940   1.006   3.762  14.703 -0.5841  0.2952 -0.1453
20150TIP3    H181941   1.047   3.779  14.618 -0.8296  2.6448  0.1643
20150TIP3    H281942   1.051   3.820  14.764 -2.2761  0.6580  0.8067
20151TIP3   OH281943   4.009   6.095   1.317 -0.3173  0.1253 -0.2844
20151TIP3    H181944   3.994   6.124   1.407 -0.5876  0.0523 -0.3075
20151TIP3    H281945   4.083   6.034   1.324  0.1430  0.6772 -0.2140
20152TIP3   OH281946   2.328   0.737  14.630  0.4238  0.2623  0.2213
20152TIP3    H181947   2.233   0.732  14.619  0.3797 -0.9957  1.0020
20152TIP3    H281948   2.341   0.773  14.718  0.6546 -0.4999  0.5032
20153TIP3   OH281949   5.603   5.574   2.676 -0.4111  0.1510  0.2941
20153TIP3    H181950   5.673   5.516   2.646 -0.4626  0.4756 -0.4820
20153TIP3    H281951   5.590   5.551   2.768  0.2655 -0.3612  0.2677
20154TIP3   OH281952   5.274   6.761  16.459  0.0811 -0.1666  0.4860
20154TIP3    H181953   5.286   6.787  16.550 -2.6396 -1.4901  1.3131
20154TIP3    H281954   5.205   6.819  16.426  0.8470  0.1187 -0.7109
20155TIP3   OH281955   3.423   0.512   3.599  0.7311  0.3493 -0.4309
20155TIP3    H181956   3.452   0.603   3.605  0.3228  0.5643 -1.4795
20155TIP3    H281957   3.503   0.463   3.583  0.8166  0.6851 -1.1075
20156TIP3   OH281958   1.954   3.895  13.076  0.6400 -0.0433 -0.3166
20156TIP3    H181959   1.964   3.950  12.998 -0.4851  1.0247  0.2588
20156TIP3    H281960   1.862   3.904  13.100  0.7195 -1.2547  0.4919
20157TIP3   OH281961   0.340   4.699  15.325 -0.3002 -0.3450  0.5987
20157TIP3    H181962   0.357   4.695  15.231 -0.9179 -1.8651  0.5223
20157TIP3    H281963   0.247   4.721  15.333  0.2001  1.9115  0.9262
20158TIP3   OH281964   4.242   3.551  15.965 -0.2311  0.6826  0.3683
20158TIP3    H181965   4.297   3.478  15.937 -0.2651  1.1140 -0.8620
20158TIP3    H281966   4.290   3.591  16.038  0.5307  0.3638  0.0513
20159TIP3   OH281967   6.240   4.181  16.285  0.5178  0.4451 -0.0347
20159TIP3    H181968   6.280   4.232  16.355 -0.7416  0.8087  0.4615
20159TIP3    H281969   6.164   4.233  16.258  0.9100  0.2574 -1.6070
20160TIP3   OH281970   4.598   1.939   2.585  0.2124 -0.0805 -0.3940
20160TIP3    H181971   4.655   1.870   2.618 -0.3986  0.2887  1.5836
20160TIP3    H281972   4.519   1.893   2.557  0.3388 -0.3096 -0.3766
20161TIP3   OH281973   5.050   6.591  15.318 -0.1005 -0.2363 -0.0967
20161TIP3    H181974   4.955   6.595  15.301 -0.3517 -1.6902  0.7773
20161TIP3    H281975   5.062   6.646  15.395 -0.1361  0.4510 -0.5803
20162TIP3   OH281976   4.424   3.730  16.773  0.0383 -0.3011  0.1033
20162TIP3    H181977   4.478   3.809  16.781  1.2910 -1.1579  0.4063
20162TIP3    H281978   4.466   3.679  16.704 -1.5378 -0.1399 -1.0474
20163TIP3   OH281979   0.626   6.396   2.832  0.6629  0.1379 -0.2939
20163TIP3    H181980   0.675   6.462   2.881  0.6611  0.8009 -1.1577
20163TIP3    H281981   0.622   6.431   2.743 -1.4263  0.1400 -0.2528
20164TIP3   OH281982   0.218   3.907   4.370 -0.4750 -0.0242  0.3086
20164TIP3    H181983   0.200   3.869   4.284  0.9059  1.2956 -0.6001
20164TIP3    H281984   0.151   3.868   4.427 -0.8529 -1.6367 -1.1386
20165TIP3   OH281985   1.383   6.620   2.970  0.2690 -0.0010  0.1159
20165TIP3    H181986   1.343   6.616   3.057 -0.8851 -0.7828 -0.4266
20165TIP3    H281987   1.327   6.565   2.915  2.9476 -2.5000 -0.3597
20166TIP3   OH281988   4.793   6.142   6.336  0.2244  0.0265  0.7352
20166TIP3    H181989   4.791   6.236   6.355 -1.1859  0.4709 -1.2826
20166TIP3    H281990   4.736   6.103   6.401 -0.4811  0.8031  0.6038
20167TIP3   OH281991   1.161   4.850   3.395  0.2813 -0.2918  0.1177
20167TIP3    H181992   1.106   4.790   3.345 -2.7519  2.5667 -0.3159
20167TIP3    H281993   1.247   4.846   3.351 -0.9755 -1.2047 -2.4608
20168TIP3   OH281994   0.195   0.200  11.676  0.8672 -0.0719 -0.4953
20168TIP3    H181995   0.112   0.219  11.720 -0.0143 -3.2714 -0.5297
20168TIP3    H281996   0.233   0.286  11.659 -2.6386  1.6123 -0.8767
20169TIP3   OH281997   4.461   3.522   0.295 -0.1627 -0.9537 -0.5848
20169TIP3    H181998   4.416   3.441   0.320  1.4219 -1.5079  0.6536
20169TIP3    H281999   4.408   3.557   0.223 -3.2232 -0.9278  1.4611
20170TIP3   OH282000   1.491   4.037   0.133  0.4766 -0.3369 -1.3256
20170TIP3    H182001   1.539   4.092   0.195 -2.0118 -2.4268  2.9215
20170TIP3    H282002   1.556   3.975   0.101  1.6565  0.0493  0.1993
20171TIP3   OH282003   6.622   6.451   1.900  0.2280 -0.7014  0.8092
20171TIP3    H182004   6.540   6.403   1.891 -1.1565  1.1256  2.6239
20171TIP3    H282005   6.621   6.515   1.830  1.1122 -1.9441 -0.3834
20172TIP3   OH282006   6.208   0.390   5.207 -0.4213 -0.5902 -0.6264
20172TIP3    H182007   6.142   0.321   5.214 -1.0824  0.1805  1.1327
20172TIP3    H282008   6.262   0.380   5.285  1.2165 -0.8120 -1.7315
20173TIP3   OH282009   0.790   0.969   1.652 -0.4728 -0.0697 -0.2146
20173TIP3    H182010   0.817   1.033   1.586 -0.2786  0.7844  0.6755
20173TIP3    H282011   0.870   0.920   1.671 -0.6492 -0.6836 -0.9857
20174TIP3   OH282012   2.818   5.749  16.498  0.4631  0.4466  0.1299
20174TIP3    H182013   2.777   5.668  16.467  1.8140 -0.4386  0.5909
20174TIP3    H282014   2.749   5.792  16.549 -0.2254 -0.5093  0.0338
20175TIP3   OH282015   0.483   1.456   3.128 -0.6153 -0.6820  0.7029
20175TIP3    H182016   0.471   1.492   3.040  1.4965 -2.0633 -0.2377
20175TIP3    H282017   0.521   1.528   3.178  0.9616 -0.7112 -0.3797
20176TIP3   OH282018   2.127   5.289  16.044  1.0574 -0.4240 -0.2539
20176TIP3    H182019   2.074   5.286  16.124  3.2469 -0.7193  1.2732
20176TIP3    H282020   2.151   5.381  16.035 -1.1356  0.0718 -2.0329
20177TIP3   OH282021   0.025   4.157  16.939  0.1062  0.2751 -0.5982
20177TIP3    H182022   0.014   4.237  16.990  1.7567  0.4063 -0.3707
20177TIP3    H282023   0.018   4.087  17.003  0.3654  0.3355 -0.5035
20178TIP3   OH282024   4.706   2.428   0.882 -1.0148  0.4371  0.0904
20178TIP3    H182025   4.612   2.425   0.899 -1.4228  0.2701 -1.8920
20178TIP3    H282026   4.724   2.349   0.831  0.6665 -0.6782  2.2467
20179TIP3   OH282027   5.873   3.293   2.901 -0.1838  0.1587  0.5532
20179TIP3    H182028   5.951   3.293   2.845 -0.5389 -0.1213  0.0547
20179TIP3    H282029   5.823   3.370   2.872  0.5758  1.1726  1.8311
20180TIP3   OH282030   5.260   2.689  16.696 -0.2118  0.3655 -0.1810
20180TIP3    H182031   5.221   2.763  16.744 -1.4071 -0.9934  1.0769
20180TIP3    H282032   5.347   2.680  16.733 -1.2270 -0.8670  2.1366
20181TIP3   OH282033   2.554   0.714  17.234 -0.0297 -0.3890  0.0095
20181TIP3    H182034   2.481   0.766  17.266 -1.3748 -2.7178  1.0040
20181TIP3    H282035   2.551   0.724  17.139  1.2176  3.0612  0.2091
20182TIP3   OH282036   2.803   6.273   5.593 -0.0327 -0.5025  0.6217
20182TIP3    H182037   2.880   6.322   5.564 -1.1695  0.2990 -1.2164
20182TIP3    H282038   2.832   6.182   5.596  0.9461 -0.2391 -0.2767
20183TIP3   OH282039   3.487   2.403  16.972  0.6603 -0.0838 -0.9345
20183TIP3    H182040   3.469   2.310  16.989  1.4713  0.1658  1.9294
20183TIP3    H282041   3.455   2.418  16.884  0.6102 -3.1141 -1.5547
20184TIP3   OH282042   4.548   2.853  10.580  0.2959  0.1104  0.0686
20184TIP3    H182043   4.579   2.936  10.543 -1.0950  1.7659  2.3395
20184TIP3    H282044   4.568   2.788  10.513  1.9969  2.1563 -1.5683
20185TIP3   OH282045   1.628   5.630  14.122 -0.3691 -0.1913  0.6281
20185TIP3    H182046   1.606   5.538  14.129  0.1546 -0.4826 -1.0653
20185TIP3    H282047   1.718   5.631  14.089  0.7996  0.9567  3.5598
20186TIP3   OH282048   6.331   1.441  13.915 -0.3107 -0.1922  0.4200
20186TIP3    H182049   6.299   1.517  13.865 -0.1578 -1.3587 -1.5467
20186TIP3    H282050   6.411   1.415  13.870 -1.1010 -2.3727  0.1855
20187TIP3   OH282051   2.026   5.095  15.852  0.1011 -0.4647  0.4693
20187TIP3    H182052   2.063   5.126  15.769 -1.8989 -0.4298 -0.4652
20187TIP3    H282053   2.066   5.152  15.918 -0.1741  1.2304 -0.7410
20188TIP3   OH282054   1.854   3.067  16.288  0.2151 -0.2705 -0.4194
20188TIP3    H182055   1.766   3.084  16.255  0.1248 -0.4451 -0.2653
20188TIP3    H282056   1.869   2.974  16.268 -0.2231 -0.6464  0.9283
20189TIP3   OH282057   5.127   4.375  13.009  0.0487 -0.5739 -0.0746
20189TIP3    H182058   5.185   4.448  13.031  0.9999 -2.0871  2.9824
20189TIP3    H282059   5.165   4.339  12.928  1.8072  0.0849  0.4069
20190TIP3   OH282060   6.406   4.912  15.090 -0.2707  0.6587 -0.2635
20190TIP3    H182061   6.323   4.918  15.137  0.2820  0.0494  0.8235
20190TIP3    H282062   6.390   4.844  15.024 -0.7668  0.8714 -0.3711
20191TIP3   OH282063   5.911   5.245   3.632 -0.2879 -0.1181  0.4244
20191TIP3    H182064   5.949   5.272   3.548  0.2031  1.1918  1.0321
20191TIP3    H282065   5.946   5.308   3.695 -3.2400  1.0498  1.0639
20192TIP3   OH282066   1.592   5.547  16.973 -0.8668 -0.1694  0.3267
20192TIP3    H182067   1.562   5.555  16.883  0.5228 -0.2017 -0.1708
20192TIP3    H282068   1.623   5.635  16.996 -1.0112 -0.2117  0.6896
20193TIP3   OH282069   3.555   6.739   4.333  0.1937  0.0885  0.3433
20193TIP3    H182070   3.527   6.830   4.320  2.1932  1.0041  1.8477
20193TIP3    H282071   3.539   6.722   4.425  1.5548 -0.3988  0.5180
20194TIP3   OH282072   0.315   6.592  12.201  0.4043  0.1301 -0.2096
20194TIP3    H182073   0.360   6.519  12.244  1.3079  0.3833 -0.7041
20194TIP3    H282074   0.319   6.571  12.108 -0.0897  0.3990 -0.2966
20195TIP3   OH282075   6.513   6.058   2.118  0.1486  0.2256  0.6093
20195TIP3    H182076   6.433   6.062   2.067  0.8767  1.1590 -0.5093
20195TIP3    H282077   6.534   6.149   2.138  0.7277 -0.0328  1.2257
20196TIP3   OH282078   6.513   4.096  15.742 -0.3807 -0.0606  0.0317
20196TIP3    H182079   6.538   4.140  15.823 -1.3114 -0.3572  0.4956
20196TIP3    H282080   6.589   4.042  15.719 -0.1641 -0.0776  0.7807
20197TIP3   OH282081   0.042   3.477  15.520  0.1438 -0.7405 -0.7434
20197TIP3    H182082  -0.046   3.502  15.549  1.1692  0.6892  1.4268
20197TIP3    H282083   0.066   3.544  15.457 -0.2558 -1.0603 -1.2441
20198TIP3   OH282084   2.896   0.113   1.783 -0.8945 -0.5847  0.0517
20198TIP3    H182085   2.973   0.112   1.726  0.0486 -1.5371  1.2862
20198TIP3    H282086   2.932   0.115   1.872 -2.3167 -0.3240  0.6533
20199TIP3   OH282087   1.051   2.754   0.664  0.4235  0.1151 -0.6355
20199TIP3    H182088   1.004   2.677   0.633 -0.6690  0.1588  0.8319
20199TIP3    H282089   1.022   2.825   0.607  0.7161 -0.3545 -1.3866
20200TIP3   OH282090   2.177   3.464  13.131 -0.2905 -0.3123 -0.1490
20200TIP3    H182091   2.228   3.530  13.178 -0.8960  0.0775 -0.0314
20200TIP3    H282092   2.188   3.384  13.182 -0.4205 -0.0462  0.2982
20201TIP3   OH282093   2.216   2.578  11.289  0.2815 -0.8100 -0.4139
20201TIP3    H182094   2.246   2.551  11.202  1.8792 -0.5296  0.0233
20201TIP3    H282095   2.187   2.669  11.278  1.6308 -0.3596 -0.4296
20202TIP3   OH282096   1.137   1.610   2.469 -0.0918 -0.3065 -0.4053
20202TIP3    H182097   1.043   1.616   2.448 -0.6229  1.4219  2.0859
20202TIP3    H282098   1.174   1.692   2.436 -0.1161  0.4419  1.3219
20203TIP3   OH282099   2.648   3.478  10.549  0.4361 -0.9224 -0.0622
20203TIP3    H182100   2.577   3.541  10.537  0.3075 -0.6960  1.7183
20203TIP3    H282101   2.630   3.410  10.484 -0.2501  0.1254 -1.0171
20204TIP3   OH282102   6.433   1.423   5.408 -0.2897 -1.4666  0.2827
20204TIP3    H182103   6.412   1.441   5.500 -0.1851 -1.0485  0.2249
20204TIP3    H282104   6.359   1.371   5.377 -1.4830  0.3492 -0.0348
20205TIP3   OH282105   2.833   4.912  15.823  0.0543  0.5574  0.1391
20205TIP3    H182106   2.744   4.884  15.803  1.1006 -5.1355  1.5102
20205TIP3    H282107   2.870   4.935  15.738 -1.8356 -0.2311 -0.9703
20206TIP3   OH282108   3.437   6.173  17.067 -0.1352  0.2410 -0.2819
20206TIP3    H182109   3.397   6.253  17.102 -0.9067 -0.4719  0.5227
20206TIP3    H282110   3.363   6.123  17.032  0.3641 -0.0438 -0.9453
20207TIP3   OH282111   6.789   2.725  11.833  0.0161 -0.0603 -0.4010
20207TIP3    H182112   6.773   2.652  11.773 -1.4052  0.9565 -1.3137
20207TIP3    H282113   6.712   2.782  11.824  0.3707  0.8074  1.4118
20208TIP3   OH282114   5.437   2.308   0.672  0.3401  0.6193  0.6077
20208TIP3    H182115   5.405   2.370   0.607 -0.4084  0.7010  1.0291
20208TIP3    H282116   5.426   2.353   0.756 -0.5817 -0.1987  0.9589
20209TIP3   OH282117   3.907   4.690  12.790  0.0114  0.1274  0.4042
20209TIP3    H182118   3.847   4.629  12.833  0.9320 -0.5227  0.8025
20209TIP3    H282119   3.851   4.740  12.730 -1.0889  0.2333  1.4781
20210TIP3   OH282120   5.002   2.965  16.324  0.2671 -0.0246 -0.7532
20210TIP3    H182121   5.020   2.873  16.301  1.4607  0.0026 -0.0222
20210TIP3    H282122   4.998   3.010  16.239  0.0920 -0.6789 -1.1007
20211TIP3   OH282123   5.725   2.002   5.727 -0.3139  0.6973  1.0518
20211TIP3    H182124   5.770   2.001   5.642 -2.0001 -0.4745  0.1046
20211TIP3    H282125   5.746   1.918   5.767 -1.9516 -0.0654  0.3883
20212TIP3   OH282126   3.995   4.471  14.728 -0.2956  0.7177 -0.2805
20212TIP3    H182127   3.956   4.545  14.774  0.7924  1.6670 -0.8454
20212TIP3    H282128   3.941   4.459  14.650 -0.2480  1.1710 -0.3838
20213TIP3   OH282129   2.252   3.056   0.260  0.3862 -0.2772  0.3001
20213TIP3    H182130   2.167   3.064   0.303  0.5960  0.2787  0.6208
20213TIP3    H282131   2.237   2.992   0.190 -0.2075 -0.4375  0.5644
20214TIP3   OH282132   1.945   2.864  12.489 -0.4903  0.0179  0.4243
20214TIP3    H182133   1.900   2.944  12.517  0.3644  2.0040 -3.2762
20214TIP3    H282134   1.877   2.796  12.492 -1.5357  1.0421  2.5968
20215TIP3   OH282135   0.784   0.815  16.111  0.2412  0.3028  0.1765
20215TIP3    H182136   0.820   0.837  16.025 -0.2883 -1.5847 -0.5635
20215TIP3    H282137   0.690   0.827  16.100  0.1860  0.1959  0.5530
20216TIP3   OH282138   0.205   5.057   4.508 -0.1114 -0.5574 -0.0175
20216TIP3    H182139   0.271   5.116   4.543 -0.2853 -0.2723 -0.1703
20216TIP3    H282140   0.159   5.024   4.586 -1.7822  1.5698 -0.0381
20217TIP3   OH282141   3.875   6.792   4.700 -0.1743  0.3111  0.4006
20217TIP3    H182142   3.920   6.811   4.782  0.5838  0.4578 -0.0394
20217TIP3    H282143   3.907   6.705   4.675 -1.5459 -0.3968  1.0122
20218TIP3   OH282144   6.486   1.884   3.488 -0.4671 -0.1727  0.3466
20218TIP3    H182145   6.466   1.792   3.469  0.6700 -0.6053  1.1353
20218TIP3    H282146   6.427   1.907   3.559  0.1603 -0.7249  1.0683
20219TIP3   OH282147   5.172   2.483  15.785  0.6089 -0.1223 -0.6815
20219TIP3    H182148   5.208   2.570  15.765  0.8107 -0.0394  0.0432
20219TIP3    H282149   5.078   2.498  15.794  0.5825 -0.0655 -1.0056
20220TIP3   OH282150   1.362   2.949   6.604  0.3105  0.0900  0.9148
20220TIP3    H182151   1.442   2.944   6.550 -0.3637  1.4694 -0.2664
20220TIP3    H282152   1.344   3.042   6.612 -1.3320 -0.1990  0.9311
20221TIP3   OH282153   6.179   5.067  17.141  0.4393  0.7974 -0.6329
20221TIP3    H182154   6.257   5.027  17.103  0.8207  0.1796  0.7397
20221TIP3    H282155   6.127   4.992  17.172  0.5266  1.2896  0.7653
20222TIP3   OH282156   4.478   4.366   4.569  0.4775 -0.2694  0.3241
20222TIP3    H182157   4.399   4.419   4.577  0.7011  0.1404 -0.1211
20222TIP3    H282158   4.501   4.370   4.476  0.2831 -1.4772  0.2110
20223TIP3   OH282159   3.109   5.683  13.448 -0.1621 -0.6830  0.2603
20223TIP3    H182160   3.170   5.639  13.388  0.7676  1.2889 -0.3237
20223TIP3    H282161   3.147   5.769  13.461 -1.7428 -0.1537  1.6284
20224TIP3   OH282162   2.288   0.523   2.201 -0.3543 -0.3182  0.1384
20224TIP3    H182163   2.302   0.582   2.127  0.9105  0.6016  1.0844
20224TIP3    H282164   2.253   0.443   2.161 -1.2635  0.7295 -1.2589
20225TIP3   OH282165   2.293   2.642   3.273  0.1117  1.0637  0.1421
20225TIP3    H182166   2.361   2.622   3.209 -1.3199 -0.3887 -0.9899
20225TIP3    H282167   2.265   2.557   3.306 -2.1800  1.5066 -0.5283
20226TIP3   OH282168   3.392   5.596   0.849 -0.1388  0.5617  0.3041
20226TIP3    H182169   3.416   5.686   0.870 -0.9674  1.0293 -0.6807
20226TIP3    H282170   3.469   5.560   0.804 -0.0025  0.9564  0.2221
20227TIP3   OH282171   1.146   5.120  15.015 -0.5163  0.0691  0.0308
20227TIP3    H182172   1.098   5.042  14.986 -1.7296  0.4358  0.9774
20227TIP3    H282173   1.223   5.085  15.060 -0.5583 -0.5635 -0.3794
20228TIP3   OH282174   1.365   2.152  13.803 -1.0449  0.3228 -0.2863
20228TIP3    H182175   1.301   2.144  13.873  0.7168 -0.3678  1.3103
20228TIP3    H282176   1.401   2.240  13.813 -1.6239  0.6652 -1.1045
20229TIP3   OH282177   4.179   4.863  15.028  0.3874 -0.3079  0.1374
20229TIP3    H182178   4.151   4.901  14.945 -0.3861 -0.1773  0.4532
20229TIP3    H282179   4.243   4.796  15.004  1.0791  0.5546 -0.4874
20230TIP3   OH282180   1.865   5.304  17.216 -0.1173  0.2628 -0.4502
20230TIP3    H182181   1.855   5.348  17.301  1.4344  1.9033 -1.0480
20230TIP3    H282182   1.946   5.255  17.224 -0.7662 -0.8487 -0.5017
20231TIP3   OH282183   5.378   2.035   0.144 -0.3497 -0.1103 -0.4105
20231TIP3    H182184   5.363   1.941   0.149  0.0079 -0.3913 -3.0116
20231TIP3    H282185   5.462   2.043   0.098  0.3813  1.4961  1.0787
20232TIP3   OH282186   2.381   0.135  11.410 -0.0736  0.5593 -0.0859
20232TIP3    H182187   2.296   0.094  11.427  0.1167  0.4460  0.6033
20232TIP3    H282188   2.371   0.173  11.322 -0.5969 -0.0672 -0.3163
20233TIP3   OH282189   2.813   2.100   5.071  0.1452  0.2116 -0.0710
20233TIP3    H182190   2.810   2.006   5.091  0.1707  0.1532 -0.3426
20233TIP3    H282191   2.786   2.106   4.980 -0.1454  0.4986  0.0316
20234TIP3   OH282192   3.000   2.267   4.558  0.0287  0.1069 -0.6274
20234TIP3    H182193   3.091   2.268   4.588  0.7178  1.1936 -2.5573
20234TIP3    H282194   2.994   2.188   4.503  0.4765  1.1496 -2.2441
20235TIP3   OH282195   0.640   1.258  14.910  0.1554  0.0265 -0.1450
20235TIP3    H182196   0.729   1.232  14.883  0.1479 -1.4777  1.1509
20235TIP3    H282197   0.652   1.342  14.953  1.0359 -0.3650  0.4103
20236TIP3   OH282198   0.694   4.867  12.836 -0.2394  0.2501  0.4682
20236TIP3    H182199   0.714   4.959  12.819 -1.5966  0.2017 -1.7119
20236TIP3    H282200   0.608   4.853  12.796  0.2375 -2.1229  0.1347
20237TIP3   OH282201   5.878   6.096  15.001  0.2480  0.3795  0.3372
20237TIP3    H182202   5.792   6.137  14.992  0.4410  1.2141  1.9568
20237TIP3    H282203   5.940   6.166  14.982  0.6297 -0.4990 -1.9661
20238TIP3   OH282204   5.128   0.576  14.756 -0.3349  0.2412  0.1917
20238TIP3    H182205   5.155   0.529  14.835 -1.3161 -0.5683  0.0660
20238TIP3    H282206   5.159   0.521  14.684  1.0371  1.2479 -0.0269
20239TIP3   OH282207   0.625   6.723   0.034 -0.0855  0.1954 -0.0667
20239TIP3    H182208   0.647   6.783  -0.038  0.7946 -0.6098 -0.4974
20239TIP3    H282209   0.568   6.774   0.092 -0.6004  0.9440 -1.2004
20240TIP3   OH282210   4.772   4.495   5.860 -0.3396 -0.0151  0.3396
20240TIP3    H182211   4.863   4.521   5.871 -0.5644  1.1274 -0.3745
20240TIP3    H282212   4.733   4.507   5.947 -0.1051  0.6902  0.3505
20241TIP3   OH282213   3.034   3.137  13.818 -0.1214  0.0306 -0.0998
20241TIP3    H182214   2.968   3.175  13.876 -0.2627  1.4652 -1.1434
20241TIP3    H282215   2.986   3.073  13.766 -0.3464 -0.1003  0.2700
20242TIP3   OH282216   0.927   5.610  12.379 -0.3824  0.5610  0.6933
20242TIP3    H182217   1.001   5.567  12.337  0.5821  0.5649  2.2982
20242TIP3    H282218   0.964   5.692  12.414 -1.9803  2.3856 -1.5802
20243TIP3   OH282219   2.727   4.307   2.432 -0.1801  0.2503  0.2743
20243TIP3    H182220   2.708   4.266   2.347  0.7449 -2.8447  1.3944
20243TIP3    H282221   2.642   4.334   2.466 -0.7411  0.1246 -0.9672
20244LIG      S82222   3.659   3.553  13.406  0.2212 -0.0623 -0.0079
20244LIG      O82223   4.102   2.802  12.955  0.2600 -0.1506 -0.5143
20244LIG     N182224   3.934   3.598  13.230  0.2912  0.7058  0.1986
20244LIG     N282225   4.333   2.998  12.923 -0.1872  0.7515  0.0395
20244LIG     N382226   4.023   2.898  12.769  0.3947  0.2350  0.6686
20244LIG     N482227   3.917   2.867  12.839  0.2423 -0.2026 -0.2406
20244LIG     C182228   4.022   3.484  13.189 -0.0394  0.0657 -0.3174
20244LIG     C282229   3.934   3.626  13.379 -0.0210 -0.4613 -0.0769
20244LIG     C382230   3.803   3.614  13.170  0.4766 -0.6013 -0.4147
20244LIG     C482231   4.118   3.508  13.066  0.0437 -0.1272  0.4847
20244LIG     C582232   3.839   3.533  13.454 -0.0975  0.3402 -0.1399
20244LIG     C682233   3.696   3.521  13.233 -0.1350  0.4177 -0.0160
20244LIG     C782234   4.162   3.368  13.028 -0.1053  0.0190  0.5273
20244LIG     C882235   4.256   3.306  13.110  0.1157  0.5107  0.2106
20244LIG     C982236   4.127   3.312  12.908 -0.3583 -0.5241 -0.0103
20244LIG    C1082237   4.274   3.123  12.955  0.4108 -0.1362  0.0107
20244LIG    C1182238   4.276   2.906  12.810 -0.1184  0.3907  0.3580
20244LIG    C1282239   4.312   3.186  13.072  0.3755  0.3964 -0.8250
20244LIG    C1382240   4.181   3.191  12.870 -0.1253  0.2170  0.2121
20244LIG    C1482241   4.133   2.861  12.835 -0.5582 -0.1104  0.1182
20244LIG    C1582242   4.377   2.790  12.794  0.2195  0.8006 -0.0097
20244LIG    C1682243   3.962   2.811  12.957  0.3481  0.0485 -0.2084
20244LIG    C1782244   3.870   2.773  13.070  0.2824  0.3852  0.2546
20244LIG    C1882245   3.737   2.736  13.053 -0.0525  0.8587 -0.3840
20244LIG    C1982246   3.915   2.782  13.205  0.2085  0.0698  0.3275
20244LIG    C2082247   3.650   2.703  13.159  0.0803  0.6675 -0.1684
20244LIG    C2182248   3.832   2.760  13.315 -0.6011 -0.1413 -0.8005
20244LIG    C2282249   3.704   2.708  13.291 -0.1972  0.5210  0.2751
20244LIG     H182250   3.951   3.401  13.168 -0.8175  0.9833 -1.4458
20244LIG     H282251   4.092   3.462  13.273  1.9363  0.1382 -1.8676
20244LIG     H382252   3.910   3.734  13.395  2.0449 -0.0109  0.2845
20244LIG     H482253   4.038   3.622  13.416 -0.5944 -1.0412  1.5618
20244LIG     H582254   3.804   3.585  13.063  0.3707 -0.4589 -0.4544
20244LIG     H682255   3.775   3.721  13.175 -1.4977 -1.0019 -1.6622
20244LIG     H782256   4.199   3.571  13.110 -0.0375  0.4636 -0.1900
20244LIG     H882257   4.063   3.559  12.984  1.7464  1.9226  0.5153
20244LIG     H982258   3.873   3.429  13.433  1.9891  1.1110 -0.8560
20244LIG    H1082259   3.844   3.547  13.564 -0.7141 -1.7667  0.2107
20244LIG    H1182260   3.603   3.531  13.173 -0.7727 -2.5334  0.3610
20244LIG    H1282261   3.712   3.416  13.204  2.0353  0.0054  2.3255
20244LIG    H1382262   4.286   3.347  13.206 -2.3664 -2.4297  2.4562
20244LIG    H1482263   4.065   3.361  12.834  0.0225  0.4553  0.3068
20244LIG    H1582264   4.269   2.965  12.717 -0.2314  0.7741  0.6081
20244LIG    H1682265   4.384   3.140  13.138  0.9027  3.3712  0.8028
20244LIG    H1782266   4.161   3.150  12.772  1.0007 -1.8973  0.8221
20244LIG    H1882267   4.354   2.935  13.000 -0.1114 -1.8421 -1.9788
20244LIG    H1982268   4.396   2.740  12.891  2.8759 -0.1148 -0.9218
20244LIG    H2082269   4.477   2.826  12.762  0.2541  1.4975  0.8455
20244LIG    H2182270   4.338   2.723  12.714 -1.9058  0.4288  1.2652
20244LIG    H2282271   3.705   2.720  12.952  0.3324  1.0596 -0.5383
20244LIG    H2382272   4.015   2.823  13.210  0.0933  0.6951 -1.5601
20244LIG    H2482273   3.555   2.655  13.142  0.2264  0.3412 -0.0783
20244LIG    H2582274   3.874   2.775  13.414 -0.0784  0.0167 -1.0466
20244LIG    H2682275   3.643   2.679  13.376 -0.6752 -0.6345 -0.4456
   6.81771   6.81771  17.23869
