;;
;; Generated by CHARMM-GUI (http://www.charmm-gui.org) v1.7
;;
;; psf2itp_mol.py
;;
;; Correspondance:
;; jul316@lehigh.edu or wonpil@lehigh.edu
;;
;; GROMACS topology file for LIG
;;


[ moleculetype ]
; name	nrexcl
LIG	     3

[ atoms ]
; nr	type	resnr	residu	atom	cgnr	charge	mass
     1      SG311      1      LIG      S      1     -0.478    32.0600   ; qtot -0.478
     2      OG2D1      1      LIG     O1      2     -0.394    15.9994   ; qtot -0.872
     3      OG311      1      LIG     O2      3     -0.605    15.9994   ; qtot -1.477
     4      OG2D1      1      LIG    OXT      4     -0.544    15.9994   ; qtot -2.021
     5     OG2R50      1      LIG     O3      5     -0.221    15.9994   ; qtot -2.242
     6     OG3R60      1      LIG     O4      6     -0.356    15.9994   ; qtot -2.598
     7      OG2D4      1      LIG     O5      7     -0.461    15.9994   ; qtot -3.059
     8     NG2R43      1      LIG     N1      8     -0.134    14.0070   ; qtot -3.193
     9      NG311      1      LIG     N2      9     -0.726    14.0070   ; qtot -3.919
    10     CG3RC1      1      LIG     C1     10      0.160    12.0110   ; qtot -3.759
    11     CG3C50      1      LIG     C2     11     -0.004    12.0110   ; qtot -3.763
    12     CG3C51      1      LIG    CA1     12      0.102    12.0110   ; qtot -3.661
    13     CG3RC1      1      LIG    CA2     13      0.226    12.0110   ; qtot -3.435
    14     CG2R53      1      LIG     C3     14      0.171    12.0110   ; qtot -3.264
    15      CG331      1      LIG     C4     15     -0.142    12.0110   ; qtot -3.406
    16      CG331      1      LIG     C5     16     -0.142    12.0110   ; qtot -3.548
    17      CG2O2      1      LIG     C6     17      0.691    12.0110   ; qtot -2.857
    18     CG2R51      1      LIG     C7     18     -0.108    12.0110   ; qtot -2.965
    19     CG2R51      1      LIG     C8     19      0.570    12.0110   ; qtot -2.395
    20     CG2RC0      1      LIG     C9     20      0.357    12.0110   ; qtot -2.038
    21      CG311      1      LIG    C10     21     -0.321    12.0110   ; qtot -2.359
    22     CG2RC0      1      LIG    C11     22      0.410    12.0110   ; qtot -1.949
    23     CG2R61      1      LIG    C12     23     -0.404    12.0110   ; qtot -2.353
    24     CG2R61      1      LIG    C13     24     -0.407    12.0110   ; qtot -2.760
    25      CG331      1      LIG    C14     25     -0.268    12.0110   ; qtot -3.028
    26      CG331      1      LIG    C15     26     -0.268    12.0110   ; qtot -3.296
    27     CG2R62      1      LIG    C16     27     -0.127    12.0110   ; qtot -3.423
    28     CG2R62      1      LIG    C17     28      0.326    12.0110   ; qtot -3.097
    29     CG2R62      1      LIG    C18     29     -0.231    12.0110   ; qtot -3.328
    30     CG2R62      1      LIG    C19     30     -0.258    12.0110   ; qtot -3.586
    31     CG2R63      1      LIG    C20     31      0.489    12.0110   ; qtot -3.097
    32       HGA1      1      LIG     H1     32      0.090     1.0080   ; qtot -3.007
    33       HGA1      1      LIG    HA1     33      0.090     1.0080   ; qtot -2.917
    34       HGA1      1      LIG    HA2     34      0.090     1.0080   ; qtot -2.827
    35       HGA3      1      LIG     H2     35      0.090     1.0080   ; qtot -2.737
    36       HGA3      1      LIG     H3     36      0.090     1.0080   ; qtot -2.647
    37       HGA3      1      LIG     H4     37      0.090     1.0080   ; qtot -2.557
    38       HGA3      1      LIG     H5     38      0.090     1.0080   ; qtot -2.467
    39       HGA3      1      LIG     H6     39      0.090     1.0080   ; qtot -2.377
    40       HGA3      1      LIG     H7     40      0.090     1.0080   ; qtot -2.287
    41     HGPAM1      1      LIG     H8     41      0.367     1.0080   ; qtot -1.920
    42       HGA1      1      LIG     H9     42      0.090     1.0080   ; qtot -1.830
    43       HGP1      1      LIG    H10     43      0.430     1.0080   ; qtot -1.400
    44      HGR61      1      LIG    H11     44      0.195     1.0080   ; qtot -1.205
    45      HGR61      1      LIG    H12     45      0.240     1.0080   ; qtot -0.965
    46       HGA3      1      LIG    H13     46      0.090     1.0080   ; qtot -0.875
    47       HGA3      1      LIG    H14     47      0.090     1.0080   ; qtot -0.785
    48       HGA3      1      LIG    H15     48      0.090     1.0080   ; qtot -0.695
    49       HGA3      1      LIG    H16     49      0.090     1.0080   ; qtot -0.605
    50       HGA3      1      LIG    H17     50      0.090     1.0080   ; qtot -0.515
    51       HGA3      1      LIG    H18     51      0.090     1.0080   ; qtot -0.425
    52      HGR62      1      LIG    H19     52      0.226     1.0080   ; qtot -0.199
    53      HGR62      1      LIG    H20     53      0.199     1.0080   ; qtot -0.000

[ bonds ]
; ai	aj	funct	b0	Kb
    1    10     1
    1    11     1
    2    14     1
    3    17     1
    3    43     1
    4    17     1
    5    19     1
    5    22     1
    6    28     1
    6    31     1
    7    31     1
    8    10     1
    8    12     1
    8    14     1
    9    13     1
    9    18     1
    9    41     1
   10    13     1
   10    32     1
   11    12     1
   11    15     1
   11    16     1
   12    17     1
   12    33     1
   13    14     1
   13    34     1
   15    35     1
   15    36     1
   15    37     1
   16    38     1
   16    39     1
   16    40     1
   18    19     1
   18    20     1
   19    21     1
   20    22     1
   20    23     1
   21    25     1
   21    26     1
   21    42     1
   22    24     1
   23    27     1
   23    44     1
   24    28     1
   24    45     1
   25    46     1
   25    47     1
   25    48     1
   26    49     1
   26    50     1
   26    51     1
   27    28     1
   27    29     1
   29    30     1
   29    52     1
   30    31     1
   30    53     1

[ pairs ]
; ai	aj	funct	c6	c12
    1     9     1 
    1    14     1 
    1    17     1 
    1    33     1 
    1    34     1 
    1    35     1 
    1    36     1 
    1    37     1 
    1    38     1 
    1    39     1 
    1    40     1 
    2     9     1 
    2    10     1 
    2    12     1 
    2    34     1 
    3     8     1 
    3    11     1 
    3    33     1 
    4     8     1 
    4    11     1 
    4    33     1 
    4    43     1 
    5     9     1 
    5    23     1 
    5    25     1 
    5    26     1 
    5    28     1 
    5    42     1 
    5    45     1 
    6    22     1 
    6    23     1 
    6    29     1 
    6    45     1 
    6    53     1 
    7    28     1 
    7    29     1 
    7    53     1 
    8     9     1 
    8    10     1 
    8    14     1 
    8    15     1 
    8    16     1 
    8    34     1 
    9    21     1 
    9    22     1 
    9    23     1 
    9    32     1 
   10    13     1 
   10    15     1 
   10    16     1 
   10    17     1 
   10    18     1 
   10    33     1 
   10    41     1 
   11    13     1 
   11    14     1 
   11    32     1 
   12    13     1 
   12    32     1 
   12    35     1 
   12    36     1 
   12    37     1 
   12    38     1 
   12    39     1 
   12    40     1 
   12    43     1 
   13    14     1 
   13    19     1 
   13    20     1 
   14    17     1 
   14    18     1 
   14    32     1 
   14    33     1 
   14    41     1 
   15    17     1 
   15    33     1 
   15    38     1 
   15    39     1 
   15    40     1 
   16    17     1 
   16    33     1 
   16    35     1 
   16    36     1 
   16    37     1 
   18    24     1 
   18    25     1 
   18    26     1 
   18    27     1 
   18    34     1 
   18    42     1 
   18    44     1 
   19    23     1 
   19    24     1 
   19    41     1 
   19    46     1 
   19    47     1 
   19    48     1 
   19    49     1 
   19    50     1 
   19    51     1 
   20    21     1 
   20    28     1 
   20    29     1 
   20    41     1 
   20    45     1 
   21    22     1 
   22    27     1 
   22    44     1 
   23    24     1 
   23    30     1 
   23    52     1 
   24    29     1 
   24    31     1 
   25    49     1 
   25    50     1 
   25    51     1 
   26    46     1 
   26    47     1 
   26    48     1 
   27    31     1 
   27    45     1 
   27    53     1 
   28    30     1 
   28    44     1 
   28    52     1 
   29    44     1 
   31    52     1 
   32    34     1 
   34    41     1 
   42    46     1 
   42    47     1 
   42    48     1 
   42    49     1 
   42    50     1 
   42    51     1 
   52    53     1 

[ angles ] 
; ai	aj	ak	funct	th0	cth	S0	Kub
   10     1    11     5
   17     3    43     5
   19     5    22     5
   28     6    31     5
   10     8    12     5
   10     8    14     5
   12     8    14     5
   13     9    18     5
   13     9    41     5
   18     9    41     5
    1    10     8     5
    1    10    13     5
    1    10    32     5
    8    10    13     5
    8    10    32     5
   13    10    32     5
    1    11    12     5
    1    11    15     5
    1    11    16     5
   12    11    15     5
   12    11    16     5
   15    11    16     5
    8    12    11     5
    8    12    17     5
    8    12    33     5
   11    12    17     5
   11    12    33     5
   17    12    33     5
    9    13    10     5
    9    13    14     5
    9    13    34     5
   10    13    14     5
   10    13    34     5
   14    13    34     5
    2    14     8     5
    2    14    13     5
    8    14    13     5
   11    15    35     5
   11    15    36     5
   11    15    37     5
   35    15    36     5
   35    15    37     5
   36    15    37     5
   11    16    38     5
   11    16    39     5
   11    16    40     5
   38    16    39     5
   38    16    40     5
   39    16    40     5
    3    17     4     5
    3    17    12     5
    4    17    12     5
    9    18    19     5
    9    18    20     5
   19    18    20     5
    5    19    18     5
    5    19    21     5
   18    19    21     5
   18    20    22     5
   18    20    23     5
   22    20    23     5
   19    21    25     5
   19    21    26     5
   19    21    42     5
   25    21    26     5
   25    21    42     5
   26    21    42     5
    5    22    20     5
    5    22    24     5
   20    22    24     5
   20    23    27     5
   20    23    44     5
   27    23    44     5
   22    24    28     5
   22    24    45     5
   28    24    45     5
   21    25    46     5
   21    25    47     5
   21    25    48     5
   46    25    47     5
   46    25    48     5
   47    25    48     5
   21    26    49     5
   21    26    50     5
   21    26    51     5
   49    26    50     5
   49    26    51     5
   50    26    51     5
   23    27    28     5
   23    27    29     5
   28    27    29     5
    6    28    24     5
    6    28    27     5
   24    28    27     5
   27    29    30     5
   27    29    52     5
   30    29    52     5
   29    30    31     5
   29    30    53     5
   31    30    53     5
    6    31     7     5
    6    31    30     5
    7    31    30     5

[ dihedrals ]
; ai	aj	ak	al	funct	phi0	cp	mult
   11     1    10    13     9
   11     1    10    32     9
   10     1    11    12     9
   10     1    11    15     9
   10     1    11    16     9
   19     5    22    20     9
   19     5    22    24     9
   28     6    31    30     9
   12     8    10    13     9
   12     8    10    32     9
   14     8    10    32     9
   10     8    12    11     9
   10     8    12    17     9
   10     8    12    33     9
   14     8    12    17     9
   14     8    12    33     9
   10     8    14    13     9
   12     8    14    13     9
   18     9    13    34     9
   13     9    18    19     9
   13     9    18    20     9
    8    10     1    11     9
    1    10     8    12     9
    1    10     8    14     9
   13    10     8    14     9
    1    10    13     9     9
    1    10    13    14     9
    1    10    13    34     9
    8    10    13     9     9
    8    10    13    14     9
    8    10    13    34     9
   32    10    13    34     9
    1    11    12     8     9
    1    11    12    17     9
    1    11    12    33     9
   15    11    12    17     9
   15    11    12    33     9
   16    11    12    17     9
   16    11    12    33     9
    1    11    15    35     9
    1    11    15    36     9
    1    11    15    37     9
   12    11    15    35     9
   12    11    15    36     9
   12    11    15    37     9
   16    11    15    35     9
   16    11    15    36     9
   16    11    15    37     9
    1    11    16    38     9
    1    11    16    39     9
    1    11    16    40     9
   12    11    16    38     9
   12    11    16    39     9
   12    11    16    40     9
   15    11    16    38     9
   15    11    16    39     9
   15    11    16    40     9
   11    12     8    14     9
    8    12    11    15     9
    8    12    11    16     9
   10    13     9    18     9
   10    13     9    41     9
   14    13     9    18     9
   14    13     9    41     9
   34    13     9    41     9
    9    13    10    32     9
   14    13    10    32     9
    2    14     8    10     9
    2    14     8    12     9
    2    14    13     9     9
    2    14    13    10     9
    2    14    13    34     9
    8    14    13     9     9
    8    14    13    10     9
    8    14    13    34     9
    4    17     3    43     9
   12    17     3    43     9
    3    17    12     8     9
    3    17    12    11     9
    3    17    12    33     9
    4    17    12     8     9
    4    17    12    11     9
    4    17    12    33     9
   19    18     9    41     9
   20    18     9    41     9
    9    18    19    21     9
   20    18    19    21     9
    9    18    20    22     9
    9    18    20    23     9
   19    18    20    22     9
   19    18    20    23     9
   18    19     5    22     9
   21    19     5    22     9
    5    19    18     9     9
    5    19    18    20     9
    5    19    21    25     9
    5    19    21    26     9
    5    19    21    42     9
   18    19    21    25     9
   18    19    21    26     9
   18    19    21    42     9
   18    20    22    24     9
   23    20    22    24     9
   18    20    23    27     9
   18    20    23    44     9
   22    20    23    27     9
   22    20    23    44     9
   19    21    25    46     9
   19    21    25    47     9
   19    21    25    48     9
   26    21    25    46     9
   26    21    25    47     9
   26    21    25    48     9
   42    21    25    46     9
   42    21    25    47     9
   42    21    25    48     9
   19    21    26    49     9
   19    21    26    50     9
   19    21    26    51     9
   25    21    26    49     9
   25    21    26    50     9
   25    21    26    51     9
   42    21    26    49     9
   42    21    26    50     9
   42    21    26    51     9
    5    22    20    18     9
    5    22    20    23     9
    5    22    24    28     9
    5    22    24    45     9
   20    22    24    28     9
   20    22    24    45     9
   20    23    27    28     9
   20    23    27    29     9
   22    24    28    27     9
   28    27    23    44     9
   29    27    23    44     9
   23    27    28    24     9
   23    27    29    30     9
   23    27    29    52     9
   28    27    29    30     9
   28    27    29    52     9
   24    28     6    31     9
   27    28     6    31     9
    6    28    24    22     9
    6    28    24    45     9
   27    28    24    45     9
    6    28    27    23     9
    6    28    27    29     9
   24    28    27    29     9
   27    29    30    31     9
   27    29    30    53     9
   52    29    30    53     9
   31    30    29    52     9
    7    31     6    28     9
    6    31    30    29     9
    6    31    30    53     9
    7    31    30    29     9
    7    31    30    53     9

[ dihedrals ]
; ai	aj	ak	al	funct	q0	cq
   14    13     8     2     2
   17    12     4     3     2
   31    30     7     6     2
