;;
;; Generated by CHARMM-GUI (http://www.charmm-gui.org) v1.7
;;
;; psf2itp_mol.py
;;
;; Correspondance:
;; jul316@lehigh.edu or wonpil@lehigh.edu
;;
;; GROMACS topology file for DRUG
;;


[ moleculetype ]
; name	nrexcl
DRUG	     3

[ atoms ]
; nr	type	resnr	residu	atom	cgnr	charge	mass
     1      CG331      1     DRUG     C1      1     -0.268    12.0110   ; qtot -0.268
     2      CG311      1     DRUG     C2      2      0.139    12.0110   ; qtot -0.129
     3      CG331      1     DRUG     C3      3     -0.268    12.0110   ; qtot -0.397
     4      OG311      1     DRUG      O      4     -0.641    15.9994   ; qtot -1.038
     5       HGA3      1     DRUG     H1      5      0.090     1.0080   ; qtot -0.948
     6       HGA3      1     DRUG     H2      6      0.090     1.0080   ; qtot -0.858
     7       HGA3      1     DRUG     H3      7      0.090     1.0080   ; qtot -0.768
     8       HGA1      1     DRUG     H4      8      0.090     1.0080   ; qtot -0.678
     9       HGA3      1     DRUG     H5      9      0.090     1.0080   ; qtot -0.588
    10       HGA3      1     DRUG     H6     10      0.090     1.0080   ; qtot -0.498
    11       HGA3      1     DRUG     H7     11      0.090     1.0080   ; qtot -0.408
    12       HGP1      1     DRUG     H8     12      0.408     1.0080   ; qtot -0.000

[ bonds ]
; ai	aj	funct	b0	Kb
    1     2     1
    1     5     1
    1     6     1
    1     7     1
    2     3     1
    2     4     1
    2     8     1
    3     9     1
    3    10     1
    3    11     1
    4    12     1

[ pairs ]
; ai	aj	funct	c6	c12
    1     9     1 
    1    10     1 
    1    11     1 
    1    12     1 
    3     5     1 
    3     6     1 
    3     7     1 
    3    12     1 
    4     5     1 
    4     6     1 
    4     7     1 
    4     9     1 
    4    10     1 
    4    11     1 
    5     8     1 
    6     8     1 
    7     8     1 
    8     9     1 
    8    10     1 
    8    11     1 
    8    12     1 

[ angles ] 
; ai	aj	ak	funct	th0	cth	S0	Kub
    2     1     5     5
    2     1     6     5
    2     1     7     5
    5     1     6     5
    5     1     7     5
    6     1     7     5
    1     2     3     5
    1     2     4     5
    1     2     8     5
    3     2     4     5
    3     2     8     5
    4     2     8     5
    2     3     9     5
    2     3    10     5
    2     3    11     5
    9     3    10     5
    9     3    11     5
   10     3    11     5
    2     4    12     5

[ dihedrals ]
; ai	aj	ak	al	funct	phi0	cp	mult
    5     1     2     8     9
    6     1     2     8     9
    7     1     2     8     9
    3     2     1     5     9
    3     2     1     6     9
    3     2     1     7     9
    4     2     1     5     9
    4     2     1     6     9
    4     2     1     7     9
    1     2     3     9     9
    1     2     3    10     9
    1     2     3    11     9
    4     2     3     9     9
    4     2     3    10     9
    4     2     3    11     9
    8     2     3     9     9
    8     2     3    10     9
    8     2     3    11     9
    1     2     4    12     9
    3     2     4    12     9
    8     2     4    12     9
