Title
42843
    1CHL1    C3    1   3.373   1.759   5.895  0.3766 -0.9595 -0.6497
    1CHL1    H3    2   3.464   1.799   5.844  0.3079 -0.3078 -0.2606
    1CHL1    O3    3   3.399   1.745   6.034  0.2338 -0.4660 -0.6080
    1CHL1   H3'    4   3.326   1.698   6.075  0.9986 -0.3688  0.9292
    1CHL1    C4    5   3.263   1.865   5.879 -0.2333 -0.2857 -0.3814
    1CHL1   H4A    6   3.176   1.836   5.941 -0.2480  0.3365 -0.1031
    1CHL1   H4B    7   3.308   1.958   5.920  0.4335 -0.6349 -0.3060
    1CHL1    C5    8   3.221   1.876   5.733 -0.2783  0.4210 -0.3760
    1CHL1    C6    9   3.202   1.995   5.670 -0.7364 -0.3221 -0.4984
    1CHL1    H6   10   3.224   2.089   5.723  0.2450  0.3240 -1.9787
    1CHL1    C7   11   3.142   2.013   5.539  0.1454 -0.3407  0.3296
    1CHL1   H7A   12   3.063   2.091   5.530 -1.1765 -1.2147  3.0237
    1CHL1   H7B   13   3.221   2.061   5.477 -0.9095  1.7268  0.4890
    1CHL1    C8   14   3.091   1.873   5.482  0.2558 -0.7445 -0.5997
    1CHL1    H8   15   2.991   1.856   5.525  1.0192  0.1050  1.6567
    1CHL1   C14   16   3.069   1.880   5.328  0.8757 -0.2119 -0.0988
    1CHL1   H14   17   3.171   1.887   5.286  0.4060 -0.1228 -1.2450
    1CHL1   C15   18   3.001   2.004   5.265  0.0544  0.4084 -0.1389
    1CHL1  H15A   19   2.920   2.036   5.334  0.3743 -2.5100  1.7477
    1CHL1  H15B   20   3.058   2.098   5.246 -1.1862  0.7680 -2.4203
    1CHL1   C16   21   2.955   1.954   5.129 -0.1255  0.5092  0.1118
    1CHL1  H16A   22   2.844   1.948   5.121  0.0158 -2.1841 -0.7783
    1CHL1  H16B   23   2.988   2.017   5.043  1.4729 -2.1838 -1.3846
    1CHL1   C17   24   3.005   1.811   5.117  0.3788  0.9284  0.1088
    1CHL1   H17   25   3.108   1.817   5.078 -0.6161 -0.7396 -3.1459
    1CHL1   C13   26   3.015   1.751   5.266  0.1607 -0.1545 -0.0240
    1CHL1   C18   27   2.865   1.723   5.304  0.1636  0.4369 -0.5655
    1CHL1  H18A   28   2.857   1.719   5.415  0.8967 -4.6386 -0.4521
    1CHL1  H18B   29   2.794   1.805   5.280 -0.9360 -0.6298 -1.1611
    1CHL1  H18C   30   2.831   1.626   5.260  1.2067 -0.0216 -0.3911
    1CHL1   C12   31   3.117   1.645   5.291  0.2842 -0.0070 -0.8030
    1CHL1  H12A   32   3.087   1.545   5.255 -0.2117  0.4973 -1.8214
    1CHL1  H12B   33   3.209   1.680   5.241  0.8174 -0.0508  0.1203
    1CHL1   C11   34   3.135   1.625   5.445  0.1045  0.1026  0.2580
    1CHL1  H11A   35   3.032   1.596   5.477 -0.0558  2.7585  2.5306
    1CHL1  H11B   36   3.207   1.542   5.455  0.9375  0.8219  0.3385
    1CHL1    C9   37   3.177   1.754   5.516 -0.1193  0.0096 -0.5041
    1CHL1    H9   38   3.277   1.779   5.475 -0.6585 -0.3144 -2.0857
    1CHL1   C10   39   3.197   1.732   5.665 -0.1914  0.6983 -0.2840
    1CHL1   C19   40   3.065   1.682   5.732  0.4400 -0.1208 -0.1172
    1CHL1  H19A   41   3.042   1.576   5.708 -1.1466  0.5195 -1.6334
    1CHL1  H19B   42   3.071   1.695   5.842  2.1895  1.3998 -0.3433
    1CHL1  H19C   43   2.977   1.743   5.703  0.2562 -0.1978  0.2722
    1CHL1    C1   44   3.298   1.621   5.695 -0.6750 -0.0507 -0.1773
    1CHL1   H1A   45   3.260   1.521   5.666  1.3084 -0.6502 -0.9085
    1CHL1   H1B   46   3.388   1.636   5.632 -0.4338  0.1670  0.2146
    1CHL1    C2   47   3.339   1.617   5.844 -0.5981 -0.1007  0.2475
    1CHL1   H2A   48   3.427   1.553   5.864  0.7825  1.3562 -0.8737
    1CHL1   H2B   49   3.255   1.579   5.906 -1.3029  0.4678 -0.3425
    1CHL1   C20   50   2.927   1.732   5.009 -0.2327  0.2135  0.4075
    1CHL1   H20   51   2.820   1.732   5.040 -0.4830 -1.1715 -0.3799
    1CHL1   C21   52   2.962   1.580   5.002 -0.7832 -0.5210  0.0831
    1CHL1  H21A   53   2.933   1.538   5.101 -2.0257 -0.5784 -0.2845
    1CHL1  H21B   54   3.070   1.567   4.982 -0.2663  2.1049  0.7405
    1CHL1  H21C   55   2.905   1.536   4.918 -1.2478  0.3713 -0.0837
    1CHL1   C22   56   2.919   1.807   4.872  0.2411  0.4353 -0.2968
    1CHL1  H22A   57   2.858   1.900   4.881 -0.1492  0.1088  0.4466
    1CHL1  H22B   58   3.022   1.838   4.843  2.0749 -0.8431  4.0410
    1CHL1   C23   59   2.853   1.724   4.755 -0.2334 -0.0106  0.2798
    1CHL1  H23A   60   2.927   1.644   4.735 -1.6580 -1.9842  2.3801
    1CHL1  H23B   61   2.764   1.672   4.797  0.2168  0.0122  1.2927
    1CHL1   C24   62   2.821   1.816   4.636  0.4732 -0.0647 -0.6639
    1CHL1  H24A   63   2.748   1.894   4.667 -1.9294 -2.5547  0.3816
    1CHL1  H24B   64   2.914   1.863   4.598  0.8583 -0.6418 -0.4525
    1CHL1   C25   65   2.765   1.743   4.523 -0.0075 -0.1551  0.3741
    1CHL1   H25   66   2.679   1.690   4.570 -0.3259 -0.7636 -0.8285
    1CHL1   C26   67   2.698   1.839   4.422  0.5647  0.2654  1.2170
    1CHL1  H26A   68   2.607   1.881   4.469 -0.4335 -3.3947  2.8867
    1CHL1  H26B   69   2.760   1.927   4.392  0.7850 -0.6538 -1.2720
    1CHL1  H26C   70   2.682   1.782   4.328  0.6291  1.0946  0.6899
    1CHL1   C27   71   2.873   1.646   4.459  0.2836  0.0872 -0.0996
    1CHL1  H27A   72   2.961   1.713   4.443 -0.0398  0.4193 -0.5200
    1CHL1  H27B   73   2.920   1.566   4.520  2.9352  0.7012 -1.1978
    1CHL1  H27C   74   2.834   1.601   4.365 -1.9403 -1.6888  1.5710
    2CHL1    C3   75   4.299   1.761   5.954 -0.2429  0.2464 -0.3080
    2CHL1    H3   76   4.381   1.812   5.899 -0.4890  0.9326 -0.0527
    2CHL1    O3   77   4.329   1.759   6.093 -0.1533  0.2111 -0.4607
    2CHL1   H3'   78   4.241   1.738   6.124 -0.3999  2.0420  0.2201
    2CHL1    C4   79   4.163   1.830   5.925  0.3144 -0.6996  1.2473
    2CHL1   H4A   80   4.082   1.763   5.963 -0.9283  0.8020  1.3403
    2CHL1   H4B   81   4.145   1.928   5.973  2.5732 -0.5575  1.9289
    2CHL1    C5   82   4.141   1.826   5.770  1.2921  0.5987 -0.3558
    2CHL1    C6   83   4.132   1.943   5.703 -0.1198  0.6452  0.6154
    2CHL1    H6   84   4.135   2.033   5.766  2.9342  1.0401  0.1004
    2CHL1    C7   85   4.105   1.949   5.553 -0.4240 -0.1496  0.1796
    2CHL1   H7A   86   4.021   2.019   5.534  1.3897  2.3507  0.7964
    2CHL1   H7B   87   4.195   1.989   5.501 -0.7184 -0.4154 -0.5509
    2CHL1    C8   88   4.068   1.820   5.479 -1.0294  0.6709 -0.1855
    2CHL1    H8   89   3.961   1.811   5.507 -1.1945 -0.7114 -1.1864
    2CHL1   C14   90   4.084   1.831   5.321 -0.3072  0.0488 -0.1944
    2CHL1   H14   91   4.190   1.850   5.293 -0.3882 -0.6245 -1.0090
    2CHL1   C15   92   4.014   1.947   5.253  0.7860  1.2212 -0.7822
    2CHL1  H15A   93   3.910   1.948   5.293  0.4236 -0.6607 -1.5990
    2CHL1  H15B   94   4.081   2.033   5.278  2.1320  0.8438 -2.8880
    2CHL1   C16   95   4.015   1.907   5.103 -0.2402 -0.0850 -0.4304
    2CHL1  H16A   96   3.912   1.920   5.062 -0.3814  2.0028  0.4391
    2CHL1  H16B   97   4.084   1.974   5.047 -0.3561  0.3788 -0.0192
    2CHL1   C17   98   4.066   1.761   5.108 -0.5013  0.0539 -0.3508
    2CHL1   H17   99   4.172   1.760   5.074 -0.4477 -2.6479 -0.3230
    2CHL1   C13  100   4.046   1.707   5.254  0.2080  0.5811 -0.3035
    2CHL1   C18  101   3.896   1.676   5.280  0.2109 -0.5425  0.3168
    2CHL1  H18A  102   3.821   1.750   5.245  0.0558  0.1395  2.0043
    2CHL1  H18B  103   3.873   1.579   5.230  0.9713 -0.5290 -0.0750
    2CHL1  H18C  104   3.883   1.670   5.390  0.3842 -1.2822  0.2996
    2CHL1   C12  105   4.142   1.592   5.310 -0.0929 -0.4427 -0.2078
    2CHL1  H12A  106   4.109   1.502   5.254  0.5406 -1.0632  0.3866
    2CHL1  H12B  107   4.251   1.610   5.295  0.1795 -1.8502 -0.0998
    2CHL1   C11  108   4.124   1.570   5.464  0.2158 -0.1434 -0.4857
    2CHL1  H11A  109   4.025   1.527   5.490 -0.1804  0.9527 -0.1244
    2CHL1  H11B  110   4.195   1.493   5.501 -0.4178 -0.8300 -0.6817
    2CHL1    C9  111   4.147   1.706   5.540  0.9201 -0.0918 -0.3094
    2CHL1    H9  112   4.252   1.734   5.518  0.9062 -0.3835 -0.7609
    2CHL1   C10  113   4.144   1.691   5.695  0.6541  0.0858 -0.4610
    2CHL1   C19  114   4.016   1.616   5.736  0.0722  0.0252  0.1916
    2CHL1  H19A  115   3.980   1.608   5.841  1.3543 -2.9733  0.4859
    2CHL1  H19B  116   3.927   1.649   5.678  1.5229  1.6581 -1.2157
    2CHL1  H19C  117   4.025   1.509   5.711  2.5215  0.3698 -0.6352
    2CHL1    C1  118   4.270   1.616   5.749 -0.4925  0.2016 -0.1179
    2CHL1   H1A  119   4.251   1.511   5.718 -1.5825  0.0478  0.9700
    2CHL1   H1B  120   4.364   1.652   5.702  0.3946 -1.3849  0.3708
    2CHL1    C2  121   4.293   1.622   5.903  0.3885  0.2039  1.0514
    2CHL1   H2A  122   4.381   1.557   5.923  1.2640  0.5033 -1.4005
    2CHL1   H2B  123   4.206   1.570   5.948 -0.0581  0.1662  0.1750
    2CHL1   C20  124   3.990   1.690   4.995 -0.4718  0.4409 -0.3616
    2CHL1   H20  125   3.880   1.696   5.011 -1.0556 -1.0688 -3.1866
    2CHL1   C21  126   4.036   1.548   4.985 -0.0764  0.4205  0.1976
    2CHL1  H21A  127   4.000   1.496   4.894 -1.1186 -0.2109  0.9494
    2CHL1  H21B  128   3.995   1.492   5.072 -2.2232 -0.9386 -1.5917
    2CHL1  H21C  129   4.147   1.545   4.984 -0.0885 -0.8905 -1.8922
    2CHL1   C22  130   4.001   1.768   4.858  0.0492  0.1559 -0.1664
    2CHL1  H22A  131   4.029   1.875   4.865  0.5107  0.1347 -1.3789
    2CHL1  H22B  132   4.085   1.713   4.811  2.1397 -0.4807  3.8427
    2CHL1   C23  133   3.875   1.753   4.774  0.0119  0.1444 -0.5959
    2CHL1  H23A  134   3.865   1.643   4.761  0.5685 -0.0582  0.5474
    2CHL1  H23B  135   3.788   1.799   4.826  0.2260  0.8084 -0.8133
    2CHL1   C24  136   3.901   1.809   4.637 -0.3364 -0.0399  0.2151
    2CHL1  H24A  137   3.950   1.907   4.659  0.3665  0.0720 -1.6810
    2CHL1  H24B  138   3.973   1.752   4.574 -2.3324  1.9802 -4.3629
    2CHL1   C25  139   3.773   1.827   4.561 -0.1974 -0.4414 -0.1452
    2CHL1   H25  140   3.705   1.740   4.566  0.1072 -0.7378 -1.1180
    2CHL1   C26  141   3.700   1.952   4.612 -0.2807 -0.2429  0.5019
    2CHL1  H26A  142   3.595   1.952   4.573  0.0391  0.3544 -0.3792
    2CHL1  H26B  143   3.692   1.975   4.720 -1.1658  0.2875  0.3297
    2CHL1  H26C  144   3.756   2.041   4.577  0.5520 -0.1643  1.9847
    2CHL1   C27  145   3.806   1.853   4.419  0.7161  0.4628 -0.2401
    2CHL1  H27A  146   3.847   1.760   4.375  0.8079  0.4335 -0.0935
    2CHL1  H27B  147   3.718   1.881   4.356  0.1081 -0.1579  0.3131
    2CHL1  H27C  148   3.869   1.943   4.402  0.2258  0.3047 -3.7015
    3CHL1    C3  149   3.627   1.227   5.630 -0.4710  0.7124  0.4434
    3CHL1    H3  150   3.585   1.127   5.605 -0.9511  1.4824 -2.1861
    3CHL1    O3  151   3.673   1.216   5.762  0.0175  0.1047  0.0136
    3CHL1   H3'  152   3.700   1.303   5.793  2.6078 -0.7969  0.5144
    3CHL1    C4  153   3.748   1.266   5.542 -0.1956 -0.5522 -0.4542
    3CHL1   H4A  154   3.796   1.361   5.574  0.8431 -1.0381 -0.5153
    3CHL1   H4B  155   3.829   1.190   5.550  0.5237 -0.2321 -3.5456
    3CHL1    C5  156   3.694   1.284   5.395 -0.1347 -0.2015  0.0890
    3CHL1    C6  157   3.753   1.217   5.299  0.2170  0.1345  0.5365
    3CHL1    H6  158   3.838   1.155   5.331 -0.2911 -0.9860 -0.2043
    3CHL1    C7  159   3.717   1.239   5.154 -0.5779 -0.4475  0.3579
    3CHL1   H7A  160   3.814   1.261   5.105  0.7982 -3.4338  1.4591
    3CHL1   H7B  161   3.665   1.154   5.106  1.1334 -0.7624 -1.0131
    3CHL1    C8  162   3.621   1.352   5.127  1.1755 -0.1977 -0.0083
    3CHL1    H8  163   3.684   1.443   5.132  0.1481  0.4834  1.4949
    3CHL1   C14  164   3.557   1.340   4.989 -0.3800 -0.4996 -0.3868
    3CHL1   H14  165   3.495   1.248   4.987 -1.1649  0.0162 -0.3811
    3CHL1   C15  166   3.660   1.320   4.876 -0.1530 -0.2447 -0.4727
    3CHL1  H15A  167   3.751   1.379   4.900 -1.2019  1.7529 -1.1436
    3CHL1  H15B  168   3.696   1.216   4.857 -0.9089 -0.5518 -0.2690
    3CHL1   C16  169   3.584   1.375   4.747  0.5671 -0.2933  0.2211
    3CHL1  H16A  170   3.646   1.452   4.696 -0.1779  1.8678  2.4053
    3CHL1  H16B  171   3.573   1.291   4.675  1.1163  1.1658 -1.6269
    3CHL1   C17  172   3.443   1.429   4.799 -0.0506 -0.0484  0.1835
    3CHL1   H17  173   3.380   1.338   4.803  2.1881 -1.7393 -0.8497
    3CHL1   C13  174   3.467   1.459   4.946  1.3727  0.0595  0.5692
    3CHL1   C18  175   3.542   1.594   4.946 -0.3187  0.3924 -0.0454
    3CHL1  H18A  176   3.553   1.624   5.052  0.0856  0.6204 -0.1494
    3CHL1  H18B  177   3.640   1.580   4.895  0.5013  1.7564  1.0971
    3CHL1  H18C  178   3.493   1.680   4.895 -0.4873  1.7102  2.2012
    3CHL1   C12  179   3.353   1.451   5.039 -0.1805 -0.3527  0.0878
    3CHL1  H12A  180   3.289   1.540   5.021  0.8877 -0.1184 -3.1267
    3CHL1  H12B  181   3.294   1.357   5.028 -1.1684  0.1516  0.8991
    3CHL1   C11  182   3.401   1.460   5.189  0.8848  0.2483 -0.0337
    3CHL1  H11A  183   3.428   1.566   5.209 -0.1220  0.0607  2.7694
    3CHL1  H11B  184   3.312   1.433   5.250  0.6415 -0.3732 -0.6644
    3CHL1    C9  185   3.509   1.359   5.236 -0.0901  0.7087 -0.7863
    3CHL1    H9  186   3.465   1.257   5.232 -0.6737  0.9023  0.4613
    3CHL1   C10  187   3.572   1.381   5.379  0.0492  0.4285 -0.0722
    3CHL1   C19  188   3.608   1.526   5.402  0.5141 -0.4958  0.0885
    3CHL1  H19A  189   3.519   1.582   5.438  0.7502  0.9279 -1.4303
    3CHL1  H19B  190   3.683   1.533   5.485  2.1458 -0.3860 -1.3433
    3CHL1  H19C  191   3.643   1.578   5.311 -1.6375 -1.8723 -1.5992
    3CHL1    C1  192   3.462   1.348   5.474  0.3780  0.1800 -0.5014
    3CHL1   H1A  193   3.380   1.423   5.471  1.2056  1.0976 -1.1354
    3CHL1   H1B  194   3.425   1.249   5.442  2.0182 -0.4705 -0.4702
    3CHL1    C2  195   3.517   1.333   5.619 -0.8036 -0.1849 -0.6363
    3CHL1   H2A  196   3.437   1.302   5.690 -0.4065  2.3842  1.1063
    3CHL1   H2B  197   3.558   1.426   5.664 -2.8638  0.4066  0.1101
    3CHL1   C20  198   3.368   1.520   4.705 -0.1186 -0.6271 -0.5867
    3CHL1   H20  199   3.430   1.611   4.693 -1.0818 -0.0891 -1.6881
    3CHL1   C21  200   3.231   1.555   4.757  0.1046 -0.0632 -0.6706
    3CHL1  H21A  201   3.175   1.462   4.780 -0.5931  0.6877  0.8116
    3CHL1  H21B  202   3.171   1.628   4.697  0.7031  1.1395  0.1657
    3CHL1  H21C  203   3.256   1.606   4.852 -1.0944 -0.5809 -0.0616
    3CHL1   C22  204   3.362   1.446   4.563  0.3909 -0.3823  0.0820
    3CHL1  H22A  205   3.466   1.452   4.525  0.2193  0.1592 -0.3055
    3CHL1  H22B  206   3.325   1.342   4.575  1.7114 -1.0633 -1.3019
    3CHL1   C23  207   3.267   1.515   4.464 -0.7901 -0.6812 -0.3345
    3CHL1  H23A  208   3.160   1.494   4.486 -0.3021 -1.8160  1.1135
    3CHL1  H23B  209   3.279   1.625   4.469 -4.7703 -0.0908 -0.8325
    3CHL1   C24  210   3.290   1.472   4.319  0.2664  0.2271 -0.0482
    3CHL1  H24A  211   3.395   1.496   4.293  0.2387 -0.2752 -0.6514
    3CHL1  H24B  212   3.282   1.362   4.305 -2.1153  0.3674 -0.1800
    3CHL1   C25  213   3.193   1.539   4.218 -0.9541  0.0384  0.4876
    3CHL1   H25  214   3.176   1.644   4.252 -1.1905  0.4858 -0.9103
    3CHL1   C26  215   3.246   1.542   4.072  0.5824 -0.5043  0.6659
    3CHL1  H26A  216   3.246   1.443   4.021 -2.1481 -0.0857 -0.3261
    3CHL1  H26B  217   3.183   1.610   4.011  0.1198 -2.9565 -1.8417
    3CHL1  H26C  218   3.351   1.577   4.068  0.0941  1.0256 -3.1703
    3CHL1   C27  219   3.057   1.474   4.223  0.0797 -0.5300  0.1663
    3CHL1  H27A  220   3.022   1.471   4.328  2.0802  3.1532  1.1297
    3CHL1  H27B  221   2.985   1.531   4.160 -0.1933 -2.3098 -1.2249
    3CHL1  H27C  222   3.049   1.372   4.179 -0.4415 -0.9411  1.1887
    4CHL1    C3  223   1.904   1.830   6.165  0.1380 -0.8526  0.8151
    4CHL1    H3  224   1.931   1.938   6.156 -1.4524 -0.5749 -1.3464
    4CHL1    O3  225   1.944   1.783   6.292  0.8825  0.4251  0.4830
    4CHL1   H3'  226   1.908   1.847   6.354  1.7318 -0.4042  1.8885
    4CHL1    C4  227   1.750   1.818   6.133 -0.3974 -0.7374 -0.4975
    4CHL1   H4A  228   1.726   1.710   6.140 -1.6961 -0.3679  2.5317
    4CHL1   H4B  229   1.697   1.865   6.218  2.6154  1.6617  0.2420
    4CHL1    C5  230   1.718   1.869   5.995  0.3667 -0.9704 -0.5363
    4CHL1    C6  231   1.629   1.967   5.978  0.4076 -0.1072  0.0090
    4CHL1    H6  232   1.584   2.016   6.066  1.3795 -0.2219  0.5851
    4CHL1    C7  233   1.577   2.017   5.845  0.3517  0.9333  1.0011
    4CHL1   H7A  234   1.467   2.032   5.838  0.5927  2.0578 -0.9501
    4CHL1   H7B  235   1.619   2.118   5.824  0.1355  0.7193 -0.5875
    4CHL1    C8  236   1.632   1.931   5.730 -0.5551 -0.1548  0.4384
    4CHL1    H8  237   1.577   1.836   5.715 -2.1195  1.0055 -1.6128
    4CHL1   C14  238   1.622   2.012   5.603 -0.2680  0.5144  0.0321
    4CHL1   H14  239   1.687   2.102   5.612 -0.0775  0.4157 -0.3377
    4CHL1   C15  240   1.481   2.075   5.574  0.0288 -0.2008  0.1916
    4CHL1  H15A  241   1.407   1.993   5.587 -0.4601  0.3027  0.6381
    4CHL1  H15B  242   1.457   2.157   5.645 -2.6637 -0.4304 -0.3268
    4CHL1   C16  243   1.494   2.104   5.425 -0.3747  0.8820  0.7811
    4CHL1  H16A  244   1.417   2.070   5.353  0.6672 -0.8747  0.4362
    4CHL1  H16B  245   1.496   2.214   5.409 -2.1484  0.7896 -0.2450
    4CHL1   C17  246   1.633   2.045   5.374 -0.0088 -0.3923  0.1850
    4CHL1   H17  247   1.711   2.123   5.384  0.3535 -0.8379  0.9200
    4CHL1   C13  248   1.669   1.936   5.475 -0.7017  0.3244 -0.1373
    4CHL1   C18  249   1.585   1.811   5.451  0.7348  0.1088  0.2035
    4CHL1  H18A  250   1.629   1.758   5.364 -1.1860 -2.1525  0.5324
    4CHL1  H18B  251   1.597   1.733   5.529  0.7811 -0.5059 -0.4078
    4CHL1  H18C  252   1.476   1.822   5.435  0.2166 -1.8096  2.0469
    4CHL1   C12  253   1.819   1.906   5.500 -0.7093 -0.6088  0.1549
    4CHL1  H12A  254   1.876   1.863   5.414  0.2492  2.5682 -0.9328
    4CHL1  H12B  255   1.862   2.005   5.524  0.1099 -0.3315 -2.1752
    4CHL1   C11  256   1.845   1.828   5.624  0.9969 -0.1896 -0.2198
    4CHL1  H11A  257   1.805   1.727   5.601 -0.3085  0.4109 -0.7025
    4CHL1  H11B  258   1.954   1.819   5.639  0.8882 -2.1593 -0.3907
    4CHL1    C9  259   1.778   1.885   5.752  0.0952 -0.4600 -0.1784
    4CHL1    H9  260   1.823   1.986   5.758 -3.2642  1.2435 -1.1446
    4CHL1   C10  261   1.803   1.803   5.887  0.4238  0.7542 -0.1226
    4CHL1   C19  262   1.752   1.660   5.862  0.7295  0.3760 -0.4304
    4CHL1  H19A  263   1.653   1.657   5.813  1.1357  3.0225 -1.5836
    4CHL1  H19B  264   1.820   1.588   5.812  0.2710 -0.9962  0.8445
    4CHL1  H19C  265   1.740   1.605   5.958 -0.6289  0.3531 -0.6004
    4CHL1    C1  266   1.956   1.809   5.922  0.8572  0.1690  0.0279
    4CHL1   H1A  267   2.010   1.756   5.841  2.2526 -0.0733  1.0879
    4CHL1   H1B  268   1.985   1.916   5.919  0.7116  0.1970 -0.4041
    4CHL1    C2  269   1.991   1.758   6.058 -0.3393  0.3150 -0.0277
    4CHL1   H2A  270   2.101   1.764   6.072 -0.5813  1.1874  1.6990
    4CHL1   H2B  271   1.957   1.653   6.057  1.2733 -0.2312  0.0555
    4CHL1   C20  272   1.626   1.998   5.226 -0.3050  0.4318  0.1448
    4CHL1   H20  273   1.559   1.910   5.222 -1.0271  0.9830 -0.1678
    4CHL1   C21  274   1.759   1.936   5.180 -0.4769 -0.1738 -0.6613
    4CHL1  H21A  275   1.854   1.987   5.206  0.4935 -2.2283  0.0331
    4CHL1  H21B  276   1.759   1.923   5.069 -0.3987  1.5446 -0.8855
    4CHL1  H21C  277   1.773   1.841   5.236 -0.8639  1.2311  1.9310
    4CHL1   C22  278   1.587   2.108   5.124  0.2751 -0.0170  0.8497
    4CHL1  H22A  279   1.570   2.055   5.028 -1.3828 -1.8023  2.0566
    4CHL1  H22B  280   1.489   2.150   5.154  1.5191  3.6764  0.2845
    4CHL1   C23  281   1.677   2.230   5.121 -0.1753  1.4635 -0.4373
    4CHL1  H23A  282   1.662   2.293   5.212 -0.0762  1.6674 -0.5626
    4CHL1  H23B  283   1.782   2.197   5.135 -1.2510 -1.1370  3.1716
    4CHL1   C24  284   1.670   2.312   4.989 -0.4976 -0.0459 -0.2923
    4CHL1  H24A  285   1.758   2.379   4.982  1.3935 -2.2749  0.6467
    4CHL1  H24B  286   1.688   2.237   4.910  1.6550 -0.7349  0.7813
    4CHL1   C25  287   1.534   2.371   4.956 -0.0274 -0.5422  0.2371
    4CHL1   H25  288   1.458   2.295   4.983 -1.5088 -0.0836 -2.2892
    4CHL1   C26  289   1.515   2.495   5.042 -0.2701 -0.5271 -0.3413
    4CHL1  H26A  290   1.533   2.473   5.149  1.4046 -3.2091 -1.0851
    4CHL1  H26B  291   1.580   2.583   5.018 -1.3212  0.1970 -0.6203
    4CHL1  H26C  292   1.410   2.532   5.044 -0.3449 -0.6056  3.5465
    4CHL1   C27  293   1.512   2.393   4.803 -0.5368  0.2082  0.3355
    4CHL1  H27A  294   1.410   2.425   4.775 -0.4728  0.9603  0.9380
    4CHL1  H27B  295   1.583   2.462   4.753 -0.4460  0.7091  1.1372
    4CHL1  H27C  296   1.517   2.299   4.744 -2.3991 -0.3808  1.0305
    5CHL1    C3  297   3.077   1.344   6.087 -0.7113 -0.0235 -0.1409
    5CHL1    H3  298   3.094   1.449   6.054  1.2419  0.0700  1.0253
    5CHL1    O3  299   3.073   1.339   6.228 -0.1569 -0.0902  0.7360
    5CHL1   H3'  300   2.989   1.302   6.255 -1.2177  2.0733  0.5877
    5CHL1    C4  301   2.935   1.309   6.028 -0.9295  0.1416 -0.2328
    5CHL1   H4A  302   2.913   1.206   6.065  0.4983  0.2072  0.9044
    5CHL1   H4B  303   2.864   1.380   6.076  0.4806  0.4665  1.4795
    5CHL1    C5  304   2.927   1.317   5.880  0.0980  0.1477  0.5864
    5CHL1    C6  305   2.848   1.394   5.809  0.1304 -0.3107 -0.0222
    5CHL1    H6  306   2.779   1.463   5.860  0.3644 -1.7702  2.4107
    5CHL1    C7  307   2.826   1.388   5.665  0.5424 -0.6383  0.0645
    5CHL1   H7A  308   2.722   1.395   5.629  0.8769  3.1860 -0.5438
    5CHL1   H7B  309   2.872   1.483   5.629 -2.0552  0.3392 -0.8970
    5CHL1    C8  310   2.893   1.266   5.589 -0.1420  0.0881 -0.2619
    5CHL1    H8  311   2.842   1.170   5.613  0.5564 -0.3329 -0.4068
    5CHL1   C14  312   2.909   1.289   5.434 -0.2017  0.6985 -0.6709
    5CHL1   H14  313   2.968   1.382   5.422  2.0669 -0.3106  1.7569
    5CHL1   C15  314   2.779   1.315   5.364  0.3678 -0.2138  0.6072
    5CHL1  H15A  315   2.700   1.265   5.425 -2.3623  2.2947 -0.6190
    5CHL1  H15B  316   2.753   1.423   5.365 -0.4223 -0.3059 -2.0635
    5CHL1   C16  317   2.791   1.276   5.215 -1.1163 -0.7434  0.0767
    5CHL1  H16A  318   2.726   1.187   5.200  0.0400 -1.6146  0.1429
    5CHL1  H16B  319   2.760   1.357   5.145 -2.8683 -1.6669 -0.2763
    5CHL1   C17  320   2.933   1.227   5.212 -0.7332 -0.5657 -1.0815
    5CHL1   H17  321   2.995   1.318   5.194  0.7461 -1.5254 -1.0045
    5CHL1   C13  322   2.973   1.174   5.360  0.8767 -0.4648  0.2130
    5CHL1   C18  323   2.901   1.039   5.381  0.0849  0.6639 -0.0824
    5CHL1  H18A  324   2.791   1.047   5.374  0.2183  2.2037 -0.8964
    5CHL1  H18B  325   2.939   0.966   5.307 -0.5762 -0.0173  0.2318
    5CHL1  H18C  326   2.925   0.990   5.478  2.6234  3.0622  0.6248
    5CHL1   C12  327   3.120   1.169   5.407 -0.2109 -0.0642  0.4015
    5CHL1  H12A  328   3.159   1.074   5.365 -2.0204  0.2155 -2.1739
    5CHL1  H12B  329   3.177   1.257   5.371  0.6147 -0.1442  1.4745
    5CHL1   C11  330   3.123   1.151   5.566 -0.5572 -1.0299 -0.3872
    5CHL1  H11A  331   3.097   1.045   5.588 -0.3413 -1.3625 -1.6357
    5CHL1  H11B  332   3.226   1.162   5.605 -1.2626 -1.3938  1.7113
    5CHL1    C9  333   3.036   1.261   5.641  0.1926  0.2497  0.4551
    5CHL1    H9  334   3.099   1.351   5.626  3.6586 -2.0347  0.0863
    5CHL1   C10  335   3.032   1.236   5.798 -0.6191  0.0133  0.6611
    5CHL1   C19  336   2.982   1.087   5.828 -0.0871 -0.0653 -0.0573
    5CHL1  H19A  337   2.875   1.071   5.802 -0.0610 -0.3894  0.0293
    5CHL1  H19B  338   3.041   1.014   5.767 -1.6833 -0.4234 -1.2336
    5CHL1  H19C  339   2.992   1.055   5.934  0.8758 -1.1049 -0.4379
    5CHL1    C1  340   3.171   1.277   5.863 -0.4093  0.5599 -0.0677
    5CHL1   H1A  341   3.252   1.217   5.816 -0.5507  1.6246 -1.7764
    5CHL1   H1B  342   3.193   1.384   5.839  1.0194  0.7484  1.8642
    5CHL1    C2  343   3.181   1.255   6.019  0.3200 -0.1743 -0.0469
    5CHL1   H2A  344   3.284   1.290   6.038  1.2693 -0.6371 -3.5534
    5CHL1   H2B  345   3.165   1.151   6.055  0.9417 -0.0627  0.5658
    5CHL1   C20  346   2.969   1.136   5.091  0.2875  0.0593  0.3121
    5CHL1   H20  347   2.906   1.045   5.078  0.2444  0.2867 -1.2560
    5CHL1   C21  348   3.117   1.079   5.102  0.3907  0.4180 -0.2383
    5CHL1  H21A  349   3.143   1.031   5.005 -1.7403 -1.6289  0.1025
    5CHL1  H21B  350   3.124   1.000   5.180 -0.4565  0.4379 -0.1285
    5CHL1  H21C  351   3.183   1.162   5.134 -0.4035  1.4588 -1.1673
    5CHL1   C22  352   2.961   1.231   4.969 -0.5430 -0.2926 -0.7813
    5CHL1  H22A  353   2.871   1.293   4.953 -1.6918 -1.8072 -0.3705
    5CHL1  H22B  354   3.053   1.294   4.972  1.3536 -2.8934  0.3493
    5CHL1   C23  355   2.984   1.151   4.835  0.5208  0.1709 -0.2444
    5CHL1  H23A  356   3.093   1.138   4.822  0.9705  0.5352  2.5480
    5CHL1  H23B  357   2.937   1.050   4.837  1.3968 -0.2469  0.1863
    5CHL1   C24  358   2.935   1.240   4.717  0.4838 -0.1521  0.2991
    5CHL1  H24A  359   2.839   1.289   4.745 -1.6200 -3.4416 -0.6214
    5CHL1  H24B  360   3.016   1.311   4.690  0.4654  0.3188  1.3958
    5CHL1   C25  361   2.899   1.153   4.600  0.1529  0.2542 -0.0949
    5CHL1   H25  362   2.833   1.073   4.640 -2.5955  1.6974 -1.4617
    5CHL1   C26  363   2.822   1.232   4.498  0.1256 -0.5857 -0.2016
    5CHL1  H26A  364   2.884   1.319   4.468  1.2119 -1.2123  0.1757
    5CHL1  H26B  365   2.812   1.175   4.403 -0.6247  0.3726 -0.7066
    5CHL1  H26C  366   2.718   1.264   4.520  0.7126  1.4020 -0.1006
    5CHL1   C27  367   3.020   1.094   4.533 -0.1028 -0.1027  0.3447
    5CHL1  H27A  368   2.992   1.040   4.440 -0.7185  0.3539  0.2576
    5CHL1  H27B  369   3.078   1.184   4.504 -0.1641 -0.0029  0.5329
    5CHL1  H27C  370   3.085   1.030   4.595 -0.0752 -0.9204 -0.5021
    6CHL1    C3  371   2.531   5.933   6.182 -0.0770 -0.6410 -0.0050
    6CHL1    H3  372   2.445   5.867   6.157 -0.2452 -0.9089  1.1946
    6CHL1    O3  373   2.553   5.922   6.320 -0.1314 -0.0768  0.0129
    6CHL1   H3'  374   2.559   5.827   6.338 -0.4450 -0.1357 -0.1828
    6CHL1    C4  375   2.661   5.902   6.116  0.3232  0.3451  1.1031
    6CHL1   H4A  376   2.739   5.968   6.159 -2.1638  2.7066  2.3654
    6CHL1   H4B  377   2.690   5.798   6.139 -1.5072  0.1450  2.7704
    6CHL1    C5  378   2.664   5.923   5.967  0.1787  0.0114 -0.3796
    6CHL1    C6  379   2.703   5.829   5.878  0.6379 -0.2996  0.8763
    6CHL1    H6  380   2.739   5.732   5.916  3.2359  0.7730  1.3519
    6CHL1    C7  381   2.696   5.852   5.726  0.5507  0.7286 -0.4183
    6CHL1   H7A  382   2.782   5.807   5.673  1.7458 -0.4328  2.3222
    6CHL1   H7B  383   2.611   5.795   5.682 -0.3716 -0.9025  3.1563
    6CHL1    C8  384   2.680   5.994   5.687  0.2230  0.2807 -0.0166
    6CHL1    H8  385   2.778   6.047   5.696 -0.0481  1.1100 -1.5862
    6CHL1   C14  386   2.627   6.005   5.538  0.5287  0.3786 -0.4258
    6CHL1   H14  387   2.519   5.982   5.543  0.8379 -0.8282  2.6893
    6CHL1   C15  388   2.695   5.916   5.435 -0.6672  0.0457 -0.0861
    6CHL1  H15A  389   2.804   5.933   5.442 -0.3577 -1.8782  0.2674
    6CHL1  H15B  390   2.661   5.812   5.452 -1.9528  0.6929  1.6065
    6CHL1   C16  391   2.660   5.980   5.294 -0.0807 -0.1062 -0.2235
    6CHL1  H16A  392   2.758   5.994   5.244  0.9500 -1.7515  1.2466
    6CHL1  H16B  393   2.599   5.915   5.229  0.3824 -0.3100 -0.4511
    6CHL1   C17  394   2.584   6.114   5.325 -0.3883  0.2453 -0.2307
    6CHL1   H17  395   2.474   6.100   5.330 -0.4341  0.1519 -1.3674
    6CHL1   C13  396   2.622   6.140   5.473 -0.2446  0.0743  0.4419
    6CHL1   C18  397   2.761   6.206   5.470 -0.1435 -0.0862 -0.2637
    6CHL1  H18A  398   2.835   6.150   5.409 -2.1982 -2.3140 -0.8885
    6CHL1  H18B  399   2.748   6.308   5.427 -3.8004  0.0458  0.7657
    6CHL1  H18C  400   2.791   6.219   5.576  0.4593  0.3427 -0.4841
    6CHL1   C12  401   2.518   6.221   5.557 -0.2128  0.7289  0.2325
    6CHL1  H12A  402   2.531   6.329   5.534 -1.2694  0.6719 -0.7186
    6CHL1  H12B  403   2.415   6.199   5.523  0.3722  0.7201 -1.7198
    6CHL1   C11  404   2.546   6.212   5.706  0.2348  0.6750 -0.8528
    6CHL1  H11A  405   2.645   6.262   5.718 -0.8631  2.3921  1.9724
    6CHL1  H11B  406   2.473   6.263   5.771 -1.3672 -0.3501 -1.7854
    6CHL1    C9  407   2.582   6.071   5.772  0.6952 -1.3466 -0.7976
    6CHL1    H9  408   2.486   6.015   5.764 -1.7083  2.2048  0.7519
    6CHL1   C10  409   2.610   6.064   5.919 -0.0462  0.2828  0.0677
    6CHL1   C19  410   2.716   6.161   5.952 -0.1794  0.2056 -1.3755
    6CHL1  H19A  411   2.664   6.258   5.935 -0.3613 -0.2583 -3.7080
    6CHL1  H19B  412   2.746   6.172   6.059  0.2498  1.8402 -1.6333
    6CHL1  H19C  413   2.806   6.148   5.887 -0.2282 -2.9760 -0.9620
    6CHL1    C1  414   2.483   6.098   5.999 -0.1747  0.1592 -0.3257
    6CHL1   H1A  415   2.442   6.199   5.979 -0.5045  0.3671  1.2572
    6CHL1   H1B  416   2.411   6.019   5.969  0.6552 -1.1394  0.9554
    6CHL1    C2  417   2.490   6.078   6.149 -0.1958 -0.5937 -0.3315
    6CHL1   H2A  418   2.386   6.097   6.186 -1.1141  0.3342 -3.1395
    6CHL1   H2B  419   2.561   6.151   6.192  1.4554 -1.4331 -1.5193
    6CHL1   C20  420   2.605   6.219   5.217  0.7830 -0.0239  0.6742
    6CHL1   H20  421   2.714   6.239   5.208  0.7935 -0.4798 -0.4419
    6CHL1   C21  422   2.527   6.351   5.250 -0.8381  0.1775 -0.3067
    6CHL1  H21A  423   2.529   6.418   5.161  0.8088 -0.5663 -0.8685
    6CHL1  H21B  424   2.574   6.409   5.334 -1.8693  2.2256 -1.0739
    6CHL1  H21C  425   2.424   6.332   5.287 -0.1812 -0.0389  1.5250
    6CHL1   C22  426   2.558   6.164   5.074 -0.0240  0.2437 -0.4873
    6CHL1  H22A  427   2.613   6.070   5.054 -0.1953 -0.0076  0.2070
    6CHL1  H22B  428   2.449   6.145   5.079 -0.0092  0.4592  0.8349
    6CHL1   C23  429   2.595   6.263   4.964  0.7684 -0.0247  0.4596
    6CHL1  H23A  430   2.533   6.356   4.963 -0.6499 -0.9332 -0.8399
    6CHL1  H23B  431   2.699   6.300   4.975  0.0768  1.9964  0.6257
    6CHL1   C24  432   2.575   6.200   4.820  0.1387 -0.3618  0.2919
    6CHL1  H24A  433   2.645   6.260   4.758  0.1719 -1.8453 -1.1565
    6CHL1  H24B  434   2.618   6.100   4.841 -0.6223 -0.8275 -0.2993
    6CHL1   C25  435   2.434   6.193   4.758  0.2772 -0.4093 -0.1941
    6CHL1   H25  436   2.366   6.130   4.819 -3.4067  3.0346 -0.2786
    6CHL1   C26  437   2.360   6.324   4.747  0.0763  0.1095  0.5769
    6CHL1  H26A  438   2.348   6.378   4.843 -0.9218 -0.1782  0.6175
    6CHL1  H26B  439   2.427   6.400   4.699 -0.3522  2.2019  3.0509
    6CHL1  H26C  440   2.259   6.302   4.707  0.9022 -2.2050 -0.4022
    6CHL1   C27  441   2.440   6.132   4.620 -0.0714 -0.3504  0.2080
    6CHL1  H27A  442   2.342   6.082   4.601 -2.0592  2.7599  1.4710
    6CHL1  H27B  443   2.459   6.199   4.533 -2.1783 -1.8845 -1.5593
    6CHL1  H27C  444   2.519   6.055   4.630 -0.1283 -0.8074 -2.2742
    7CHL1    C3  445   2.105   0.145   6.056 -0.3918 -0.6032 -0.1567
    7CHL1    H3  446   2.040   0.061   6.024 -0.1464 -0.6910 -0.4201
    7CHL1    O3  447   2.081   0.176   6.192  0.0406 -0.6208  0.3708
    7CHL1   H3'  448   2.121   0.105   6.241 -0.1823 -0.7195  0.4117
    7CHL1    C4  449   2.252   0.105   6.035 -0.3152  0.6129  0.2139
    7CHL1   H4A  450   2.318   0.185   6.075  0.0700 -1.0907  3.2761
    7CHL1   H4B  451   2.263   0.010   6.092 -3.6651  0.3908  0.6970
    7CHL1    C5  452   2.268   0.071   5.883 -0.5856 -0.4309 -0.2813
    7CHL1    C6  453   2.316  -0.048   5.847 -0.3561  0.0646  0.6519
    7CHL1    H6  454   2.350  -0.120   5.924  5.0380  2.0875  0.6540
    7CHL1    C7  455   2.333  -0.086   5.704 -0.1406  0.5267 -0.1769
    7CHL1   H7A  456   2.430  -0.141   5.699 -0.2445  0.2640  0.5207
    7CHL1   H7B  457   2.256  -0.161   5.678  0.7032 -0.9389  1.2854
    7CHL1    C8  458   2.335   0.032   5.604 -0.0177 -0.2367 -0.4008
    7CHL1    H8  459   2.435   0.080   5.616  2.0086 -4.1233 -0.1811
    7CHL1   C14  460   2.317  -0.021   5.463  0.3302  0.3048 -0.6376
    7CHL1   H14  461   2.218  -0.070   5.452  0.4692 -0.8423  2.2398
    7CHL1   C15  462   2.405  -0.127   5.412 -0.1274  0.5110  0.2269
    7CHL1  H15A  463   2.502  -0.088   5.450 -0.7985  1.1864  1.3116
    7CHL1  H15B  464   2.391  -0.226   5.461  1.1490  0.7989  1.2367
    7CHL1   C16  465   2.404  -0.125   5.253  0.1970 -0.0885  0.7052
    7CHL1  H16A  466   2.510  -0.121   5.223  0.8877 -2.0181  2.6155
    7CHL1  H16B  467   2.350  -0.217   5.220  1.6781 -0.6367 -0.2663
    7CHL1   C17  468   2.324   0.003   5.220  0.3130 -0.6359 -0.0481
    7CHL1   H17  469   2.217  -0.021   5.200  0.0690  1.2872 -1.3197
    7CHL1   C13  470   2.325   0.093   5.352 -0.2496  0.3399  0.4131
    7CHL1   C18  471   2.457   0.168   5.358 -0.7455 -0.4674  0.8063
    7CHL1  H18A  472   2.486   0.204   5.459  0.0789 -0.8277  0.7129
    7CHL1  H18B  473   2.539   0.102   5.323 -1.3748 -1.0109  0.3488
    7CHL1  H18C  474   2.462   0.254   5.288  0.3811 -0.6764  0.5983
    7CHL1   C12  475   2.204   0.190   5.387  0.1494 -0.2391  0.6805
    7CHL1  H12A  476   2.199   0.279   5.321 -1.3720 -2.0827 -1.8623
    7CHL1  H12B  477   2.107   0.137   5.380  0.4294 -0.6160 -0.5184
    7CHL1   C11  478   2.217   0.246   5.524  0.4659  0.4770 -0.4973
    7CHL1  H11A  479   2.301   0.318   5.520 -0.5489  1.6463 -1.8052
    7CHL1  H11B  480   2.122   0.296   5.554  0.7685  0.6368  0.2070
    7CHL1    C9  481   2.222   0.128   5.630 -0.0300 -0.0801  0.0816
    7CHL1    H9  482   2.127   0.071   5.627 -1.3702  1.9690  0.8985
    7CHL1   C10  483   2.236   0.185   5.781 -0.0520 -0.1785  0.0413
    7CHL1   C19  484   2.327   0.304   5.796 -0.3254 -0.1816 -0.2580
    7CHL1  H19A  485   2.429   0.286   5.754 -0.7772  0.6070 -1.7851
    7CHL1  H19B  486   2.281   0.396   5.753  0.3464 -0.2439 -1.1585
    7CHL1  H19C  487   2.356   0.326   5.901  0.5558  3.5208 -1.1010
    7CHL1    C1  488   2.090   0.229   5.819 -0.4213 -0.4443  0.2183
    7CHL1   H1A  489   2.069   0.324   5.765  0.7683 -1.0746 -1.4352
    7CHL1   H1B  490   2.008   0.159   5.795 -1.8894  0.8508  1.2140
    7CHL1    C2  491   2.066   0.268   5.970  0.6173  0.8316  0.3933
    7CHL1   H2A  492   1.963   0.302   5.993  0.1795 -1.0865  1.4226
    7CHL1   H2B  493   2.132   0.354   5.993  2.5156 -0.7062  0.9345
    7CHL1   C20  494   2.377   0.061   5.092 -0.1009 -0.0607  0.5695
    7CHL1   H20  495   2.483   0.095   5.102  0.1237 -0.5870  0.0539
    7CHL1   C21  496   2.309   0.188   5.055  0.3631 -0.2490 -0.2547
    7CHL1  H21A  497   2.322   0.266   5.134 -0.1231 -1.9099  1.5437
    7CHL1  H21B  498   2.199   0.171   5.049  0.5457 -0.9278 -2.2360
    7CHL1  H21C  499   2.341   0.234   4.959  0.8944 -0.5484 -0.2228
    7CHL1   C22  500   2.374  -0.053   4.980 -0.5131 -0.1895  0.0601
    7CHL1  H22A  501   2.452  -0.127   5.003 -0.3213  1.0147  4.1847
    7CHL1  H22B  502   2.276  -0.106   4.977 -0.7866  0.3310 -1.8799
    7CHL1   C23  503   2.386  -0.004   4.840 -0.6120 -0.3834  0.6488
    7CHL1  H23A  504   2.290   0.046   4.814 -1.0748 -0.6769  1.7245
    7CHL1  H23B  505   2.455   0.082   4.827 -0.0490 -0.9024  0.1267
    7CHL1   C24  506   2.402  -0.117   4.740  0.5317  0.2618 -0.2567
    7CHL1  H24A  507   2.490  -0.181   4.765  0.1575  0.9961  3.5987
    7CHL1  H24B  508   2.311  -0.177   4.759 -1.1589  2.6792 -0.3409
    7CHL1   C25  509   2.409  -0.077   4.596  0.3316  0.3177  0.1293
    7CHL1   H25  510   2.339   0.007   4.577 -2.0673 -1.7836 -0.9317
    7CHL1   C26  511   2.548  -0.037   4.549  0.2048 -0.1588 -0.7928
    7CHL1  H26A  512   2.606   0.000   4.636 -0.4230 -1.0888  0.0497
    7CHL1  H26B  513   2.607  -0.127   4.519 -0.0563 -0.8342  0.6007
    7CHL1  H26C  514   2.540   0.030   4.461 -1.3614  1.2120  0.3527
    7CHL1   C27  515   2.356  -0.182   4.509 -0.0922  0.0463 -0.6139
    7CHL1  H27A  516   2.245  -0.195   4.507  0.1001 -2.3690  0.6250
    7CHL1  H27B  517   2.372  -0.155   4.402 -0.6851  2.3807 -0.1745
    7CHL1  H27C  518   2.403  -0.282   4.510  0.4313  0.2796 -1.3824
    8CHL1    C3  519   2.617   1.834   6.049 -0.5154 -0.8301  0.0384
    8CHL1    H3  520   2.642   1.937   6.015 -1.1980  0.1530  2.3691
    8CHL1    O3  521   2.662   1.825   6.185 -0.1040 -0.1359  0.6361
    8CHL1   H3'  522   2.588   1.822   6.245  0.3068  0.1424  1.1655
    8CHL1    C4  523   2.471   1.803   6.039  0.9056  0.6902 -0.1018
    8CHL1   H4A  524   2.458   1.698   6.073  2.8164  0.0224 -1.3090
    8CHL1   H4B  525   2.416   1.859   6.118 -1.7557 -0.1032 -1.2744
    8CHL1    C5  526   2.434   1.817   5.895 -0.2533  0.1256  0.4683
    8CHL1    C6  527   2.333   1.906   5.858 -0.4663 -0.0386 -0.9238
    8CHL1    H6  528   2.279   1.966   5.933 -1.1163  0.0006 -1.4166
    8CHL1    C7  529   2.287   1.925   5.722 -0.6980  0.1390  0.0557
    8CHL1   H7A  530   2.176   1.923   5.721 -0.7172  0.4775 -2.0916
    8CHL1   H7B  531   2.324   2.020   5.678  0.3873 -0.9626 -1.4843
    8CHL1    C8  532   2.331   1.817   5.625  0.5429 -0.1462 -0.1418
    8CHL1    H8  533   2.271   1.725   5.641  2.5101 -1.3938  0.3792
    8CHL1   C14  534   2.302   1.862   5.483 -0.3233 -0.1796 -0.2749
    8CHL1   H14  535   2.372   1.947   5.472  1.9068 -1.8218  0.4005
    8CHL1   C15  536   2.164   1.912   5.440  0.1002 -0.5013 -0.3271
    8CHL1  H15A  537   2.089   1.837   5.474 -2.7859  1.6091 -1.6063
    8CHL1  H15B  538   2.148   2.016   5.473  0.3167 -1.4881  3.3118
    8CHL1   C16  539   2.163   1.904   5.286 -0.1128  0.0939 -0.3757
    8CHL1  H16A  540   2.095   1.828   5.241  0.1836  0.3472 -1.2780
    8CHL1  H16B  541   2.139   2.009   5.261 -1.1141 -0.3473 -1.3004
    8CHL1   C17  542   2.307   1.851   5.247 -0.9297 -0.5583  0.3680
    8CHL1   H17  543   2.382   1.933   5.245 -0.9191 -0.5227  1.4841
    8CHL1   C13  544   2.356   1.769   5.368 -0.4338  0.4265 -0.3190
    8CHL1   C18  545   2.279   1.638   5.378  0.1251 -0.3013 -0.0943
    8CHL1  H18A  546   2.170   1.660   5.376  0.3347  0.8223  0.0629
    8CHL1  H18B  547   2.296   1.584   5.282  0.2767  2.4357 -1.7115
    8CHL1  H18C  548   2.296   1.567   5.461 -0.2351 -0.9378 -0.5515
    8CHL1   C12  549   2.502   1.744   5.391 -0.1647  0.4142  0.3274
    8CHL1  H12A  550   2.539   1.684   5.305 -0.3598 -0.0782  0.5799
    8CHL1  H12B  551   2.545   1.846   5.383 -0.5401  0.6492  1.1627
    8CHL1   C11  552   2.536   1.694   5.525 -0.8459  0.1843  0.1765
    8CHL1  H11A  553   2.494   1.593   5.547  3.4722 -1.5066  1.5462
    8CHL1  H11B  554   2.646   1.689   5.534 -0.9604 -2.1370  0.9295
    8CHL1    C9  555   2.482   1.786   5.642  0.3046  0.8725  0.4342
    8CHL1    H9  556   2.547   1.874   5.626  1.9155 -0.4291 -0.4129
    8CHL1   C10  557   2.519   1.738   5.793  0.6565  0.6176  0.1251
    8CHL1   C19  558   2.487   1.590   5.804 -0.0564 -0.2604 -0.5320
    8CHL1  H19A  559   2.496   1.553   5.908  1.0736 -1.2784 -0.9669
    8CHL1  H19B  560   2.382   1.565   5.779 -0.5773  1.4215 -0.1606
    8CHL1  H19C  561   2.562   1.535   5.743  0.7644  1.0334 -0.7327
    8CHL1    C1  562   2.671   1.753   5.822  0.3180 -0.0281  0.1604
    8CHL1   H1A  563   2.714   1.668   5.766 -0.1169 -0.6708  0.7741
    8CHL1   H1B  564   2.705   1.852   5.786  1.7815  0.0505  1.6499
    8CHL1    C2  565   2.702   1.742   5.968  0.1312  0.0564 -0.2633
    8CHL1   H2A  566   2.810   1.761   5.989  1.0486 -1.4509 -3.0263
    8CHL1   H2B  567   2.679   1.637   5.995 -0.1926  0.6452  1.8728
    8CHL1   C20  568   2.315   1.784   5.113 -0.1109  1.3539 -0.0903
    8CHL1   H20  569   2.249   1.695   5.108  0.3492  0.9478  0.7403
    8CHL1   C21  570   2.466   1.739   5.073 -0.1906  0.0477 -0.4773
    8CHL1  H21A  571   2.494   1.638   5.109  1.1839  0.2791 -0.8372
    8CHL1  H21B  572   2.533   1.815   5.120 -1.0685  0.0307  0.8606
    8CHL1  H21C  573   2.485   1.755   4.965 -1.7649 -0.7600 -0.8900
    8CHL1   C22  574   2.261   1.883   5.013 -0.3424  0.1922 -0.3650
    8CHL1  H22A  575   2.157   1.914   5.038 -0.2542 -0.9459  1.6638
    8CHL1  H22B  576   2.332   1.967   5.023  1.8968 -1.6548  0.2435
    8CHL1   C23  577   2.260   1.827   4.873 -0.1236  0.9320  1.0797
    8CHL1  H23A  578   2.357   1.844   4.823 -1.5465  2.0712 -1.4983
    8CHL1  H23B  579   2.231   1.720   4.868 -0.0601  0.9454 -3.1324
    8CHL1   C24  580   2.163   1.905   4.781 -1.2037 -0.5027  0.1373
    8CHL1  H24A  581   2.058   1.867   4.783 -1.3037 -0.2478 -0.2786
    8CHL1  H24B  582   2.147   2.007   4.821  0.2681 -0.9356  1.9723
    8CHL1   C25  583   2.204   1.909   4.631 -0.2625  0.4068 -0.4588
    8CHL1   H25  584   2.303   1.956   4.615  0.8656 -0.7860  2.4453
    8CHL1   C26  585   2.219   1.768   4.573 -0.1255  0.1724 -0.2881
    8CHL1  H26A  586   2.304   1.721   4.626 -0.6307  0.1445  0.5087
    8CHL1  H26B  587   2.133   1.699   4.586 -0.3857  0.8886  2.4065
    8CHL1  H26C  588   2.243   1.767   4.464  3.8818 -0.7861  0.4434
    8CHL1   C27  589   2.100   1.983   4.543 -0.9223 -0.4565  0.3818
    8CHL1  H27A  590   2.123   1.961   4.437 -2.7700  0.5223 -0.2544
    8CHL1  H27B  591   1.998   1.944   4.565 -1.2269 -0.4550 -0.9522
    8CHL1  H27C  592   2.100   2.094   4.547  1.3262 -0.3591 -0.7923
    9CHL1    C3  593   5.265   1.556   6.072  0.1019 -0.9501  0.4449
    9CHL1    H3  594   5.303   1.452   6.064 -0.7186 -1.4497  2.4911
    9CHL1    O3  595   5.268   1.592   6.202 -0.0000  0.1654 -0.1900
    9CHL1   H3'  596   5.174   1.598   6.225  0.1996 -0.4311  0.8760
    9CHL1    C4  597   5.366   1.647   6.000  0.5986  0.2852  0.4778
    9CHL1   H4A  598   5.326   1.750   6.016 -0.8985 -0.2140  0.1665
    9CHL1   H4B  599   5.466   1.643   6.047  1.0906 -1.0820 -0.6210
    9CHL1    C5  600   5.360   1.620   5.857  0.7501 -0.3477  0.8900
    9CHL1    C6  601   5.467   1.578   5.794  0.0403 -0.4761  0.4690
    9CHL1    H6  602   5.550   1.559   5.863 -1.5271 -3.9401  1.6179
    9CHL1    C7  603   5.491   1.544   5.649  0.3386 -0.7125  0.6856
    9CHL1   H7A  604   5.573   1.607   5.607 -1.4095  0.4828 -1.1294
    9CHL1   H7B  605   5.506   1.437   5.624  0.8264 -0.5568  0.3120
    9CHL1    C8  606   5.369   1.598   5.569  0.1673  0.0035  0.4487
    9CHL1    H8  607   5.377   1.709   5.563 -0.7012  0.0853  0.6439
    9CHL1   C14  608   5.377   1.551   5.427  0.0110  0.3655 -0.2014
    9CHL1   H14  609   5.369   1.441   5.434 -1.2276  0.4812  0.3923
    9CHL1   C15  610   5.497   1.579   5.336  0.6615  0.2879  0.4194
    9CHL1  H15A  611   5.512   1.688   5.320  0.1991  0.2101 -0.6378
    9CHL1  H15B  612   5.593   1.526   5.350  0.6104  0.3601  1.0763
    9CHL1   C16  613   5.451   1.534   5.194  0.5092  0.3840 -0.6657
    9CHL1  H16A  614   5.467   1.628   5.137  0.4368  2.0679  1.8896
    9CHL1  H16B  615   5.501   1.446   5.151  1.5634 -0.1763  1.5515
    9CHL1   C17  616   5.294   1.521   5.198  0.6230  0.0772 -0.8423
    9CHL1   H17  617   5.276   1.411   5.207 -2.1773  0.3911 -1.8642
    9CHL1   C13  618   5.254   1.587   5.335  0.3585  0.3723 -0.0926
    9CHL1   C18  619   5.248   1.740   5.313 -0.6061  0.1342  0.9104
    9CHL1  H18A  620   5.154   1.782   5.271 -0.8375 -1.8969 -0.7365
    9CHL1  H18B  621   5.262   1.796   5.409 -0.2304  1.7007 -0.0182
    9CHL1  H18C  622   5.331   1.769   5.246 -0.1240 -2.7016  0.1534
    9CHL1   C12  623   5.123   1.533   5.396 -0.4175 -0.1023  0.3120
    9CHL1  H12A  624   5.021   1.553   5.356 -0.1481  0.1211 -0.2753
    9CHL1  H12B  625   5.138   1.423   5.388 -1.5722 -0.1841 -1.1367
    9CHL1   C11  626   5.109   1.583   5.541  0.0804 -0.2230  0.5031
    9CHL1  H11A  627   5.076   1.687   5.518 -1.5054 -0.8830 -0.3123
    9CHL1  H11B  628   5.023   1.525   5.580  0.4317 -0.6774  0.6049
    9CHL1    C9  629   5.232   1.568   5.643 -0.1653  0.1263  0.2435
    9CHL1    H9  630   5.234   1.459   5.661  1.2374  0.4036  2.2282
    9CHL1   C10  631   5.228   1.635   5.781  0.3210  0.2321  0.0878
    9CHL1   C19  632   5.188   1.784   5.771  0.4493 -0.5056 -0.4085
    9CHL1  H19A  633   5.270   1.837   5.718  0.7024  0.3738  0.8393
    9CHL1  H19B  634   5.095   1.792   5.711  0.7632 -0.1461 -0.8548
    9CHL1  H19C  635   5.174   1.826   5.873 -2.1256 -0.4379 -0.7339
    9CHL1    C1  636   5.129   1.549   5.865 -0.1508  0.0880 -0.2533
    9CHL1   H1A  637   5.023   1.568   5.841 -1.0900 -0.6990  2.7907
    9CHL1   H1B  638   5.150   1.445   5.830 -0.0116 -0.6285  1.8169
    9CHL1    C2  639   5.127   1.564   6.019 -0.0031 -0.3694  0.5627
    9CHL1   H2A  640   5.057   1.490   6.062 -0.8960  0.4854  0.6253
    9CHL1   H2B  641   5.084   1.665   6.037 -0.2687 -0.1675 -1.0729
    9CHL1   C20  642   5.229   1.570   5.066 -0.2900  0.0091 -0.1802
    9CHL1   H20  643   5.241   1.678   5.041 -1.5586  0.2482  0.1612
    9CHL1   C21  644   5.076   1.546   5.058 -0.1679  0.0171  0.4423
    9CHL1  H21A  645   5.016   1.615   5.120 -0.5935 -0.3840  0.4813
    9CHL1  H21B  646   5.060   1.440   5.086  2.7162 -0.9727 -1.1560
    9CHL1  H21C  647   5.042   1.561   4.953  1.2100 -1.6252 -0.2841
    9CHL1   C22  648   5.307   1.494   4.953  0.2828 -0.4180 -0.6274
    9CHL1  H22A  649   5.268   1.532   4.856 -0.9341  0.8333  0.3117
    9CHL1  H22B  650   5.409   1.534   4.939  0.0630 -0.1312 -1.4983
    9CHL1   C23  651   5.296   1.344   4.952  0.0416 -0.0919 -0.5409
    9CHL1  H23A  652   5.355   1.287   5.026 -0.9519 -2.6180 -1.5983
    9CHL1  H23B  653   5.189   1.315   4.964 -0.2265  0.7580 -0.7760
    9CHL1   C24  654   5.350   1.282   4.816  0.2306  0.2458 -0.0247
    9CHL1  H24A  655   5.459   1.304   4.812 -0.0879  2.0960  0.5146
    9CHL1  H24B  656   5.327   1.175   4.837  0.1656  0.7004  2.6430
    9CHL1   C25  657   5.286   1.335   4.678  0.3521  0.2334 -0.0125
    9CHL1   H25  658   5.313   1.441   4.656 -1.4906  0.8973  0.7688
    9CHL1   C26  659   5.344   1.247   4.566  0.3689 -0.3913 -0.2455
    9CHL1  H26A  660   5.308   1.278   4.466  0.9398 -1.0115 -0.6460
    9CHL1  H26B  661   5.455   1.252   4.570  0.3086  1.6653 -0.0167
    9CHL1  H26C  662   5.306   1.144   4.581 -0.9099  0.0291 -0.5031
    9CHL1   C27  663   5.133   1.328   4.680  0.1094  0.0777  0.2456
    9CHL1  H27A  664   5.092   1.400   4.754 -1.2644 -0.6826  0.2459
    9CHL1  H27B  665   5.090   1.349   4.580  0.1433 -0.5451  0.0973
    9CHL1  H27C  666   5.095   1.228   4.708 -2.3034  0.2873 -1.9526
   10CHL1    C3  667   0.513   1.373   6.175 -0.3272  0.5107  0.0606
   10CHL1    H3  668   0.601   1.431   6.138 -0.6211  1.6271  1.0661
   10CHL1    O3  669   0.516   1.343   6.311 -0.1409 -0.1229  0.3088
   10CHL1   H3'  670   0.603   1.309   6.334 -0.1372 -0.4496 -0.1547
   10CHL1    C4  671   0.391   1.466   6.156  0.0721 -0.2097 -0.0755
   10CHL1   H4A  672   0.301   1.412   6.191 -0.3743  1.5884  1.7707
   10CHL1   H4B  673   0.397   1.551   6.228  2.7450 -0.6706  0.3694
   10CHL1    C5  674   0.367   1.502   6.009 -0.3074 -0.4860  0.3227
   10CHL1    C6  675   0.352   1.629   5.967 -0.3931  0.1495  0.9682
   10CHL1    H6  676   0.366   1.704   6.047  1.4613  1.1350 -0.1941
   10CHL1    C7  677   0.327   1.672   5.825 -0.0682  0.0265  0.2525
   10CHL1   H7A  678   0.236   1.736   5.829  0.4281  0.6931  1.9734
   10CHL1   H7B  679   0.410   1.732   5.782 -1.2779  2.4740  1.0795
   10CHL1    C8  680   0.298   1.551   5.737  0.3637  0.2191  0.2635
   10CHL1    H8  681   0.190   1.526   5.744  0.8821 -1.9812  1.0187
   10CHL1   C14  682   0.310   1.590   5.588  0.0215  0.2934  0.0724
   10CHL1   H14  683   0.417   1.612   5.574  0.1219 -0.8343 -1.1953
   10CHL1   C15  684   0.234   1.719   5.536  0.5161 -0.3383 -0.3913
   10CHL1  H15A  685   0.138   1.719   5.592  1.2291 -0.6551  0.8479
   10CHL1  H15B  686   0.282   1.815   5.561 -0.9539  0.6210 -1.0950
   10CHL1   C16  687   0.221   1.698   5.384  0.0132  0.3655 -0.0516
   10CHL1  H16A  688   0.112   1.688   5.367  0.0034  1.2532 -0.5779
   10CHL1  H16B  689   0.259   1.780   5.320  0.8899 -0.2233 -0.3045
   10CHL1   C17  690   0.269   1.553   5.356 -0.1797 -0.0938  0.3932
   10CHL1   H17  691   0.378   1.564   5.338  0.1146 -2.9212  0.0386
   10CHL1   C13  692   0.267   1.475   5.489 -0.5587 -0.5581  0.2046
   10CHL1   C18  693   0.123   1.433   5.513  0.3649  0.0714  0.3177
   10CHL1  H18A  694   0.083   1.366   5.434 -2.3831 -1.2862  2.6741
   10CHL1  H18B  695   0.119   1.364   5.600  1.0441 -1.3119 -0.7076
   10CHL1  H18C  696   0.065   1.527   5.526  0.1787 -0.3283  2.7614
   10CHL1   C12  697   0.372   1.363   5.508 -0.1522  0.6905 -0.2494
   10CHL1  H12A  698   0.336   1.270   5.459 -1.9088  2.0940 -1.7383
   10CHL1  H12B  699   0.474   1.383   5.469  0.4553 -0.4193  0.6898
   10CHL1   C11  700   0.393   1.328   5.660  0.6346  0.0075 -0.4773
   10CHL1  H11A  701   0.314   1.251   5.678  1.2292 -0.5943 -0.3843
   10CHL1  H11B  702   0.477   1.258   5.677  0.2355 -0.5340 -0.6939
   10CHL1    C9  703   0.394   1.438   5.767 -0.3928  0.2354  0.0263
   10CHL1    H9  704   0.498   1.475   5.750 -0.5781  1.7343  1.7590
   10CHL1   C10  705   0.370   1.383   5.913 -0.3498 -0.4106 -0.3642
   10CHL1   C19  706   0.230   1.327   5.935  0.1139 -1.1807 -0.0381
   10CHL1  H19A  707   0.222   1.307   6.044 -0.9154 -0.5967  0.0107
   10CHL1  H19B  708   0.150   1.400   5.909  1.1913 -0.2194 -0.7199
   10CHL1  H19C  709   0.200   1.235   5.880 -1.3076  0.0817 -1.4636
   10CHL1    C1  710   0.483   1.286   5.947 -0.7268 -0.0369  0.7232
   10CHL1   H1A  711   0.465   1.199   5.880  0.4892 -0.7136  1.2488
   10CHL1   H1B  712   0.577   1.331   5.907 -0.3511 -1.5457 -0.1546
   10CHL1    C2  713   0.503   1.240   6.090 -0.4453 -0.9796  0.2279
   10CHL1   H2A  714   0.604   1.194   6.103  1.6376  2.6191 -1.4951
   10CHL1   H2B  715   0.421   1.187   6.142  0.3339  1.1332  4.0010
   10CHL1   C20  716   0.212   1.497   5.225 -0.8500 -0.1500  0.3190
   10CHL1   H20  717   0.106   1.476   5.251 -1.1009 -0.4199 -0.8997
   10CHL1   C21  718   0.293   1.368   5.173  0.1776 -0.8513 -0.2285
   10CHL1  H21A  719   0.240   1.331   5.083 -3.6005  1.2494  0.8877
   10CHL1  H21B  720   0.302   1.293   5.255  0.9197  0.4782  0.9647
   10CHL1  H21C  721   0.392   1.410   5.144 -1.1104  3.2896  0.6938
   10CHL1   C22  722   0.203   1.599   5.106 -0.5044  0.5939 -0.0605
   10CHL1  H22A  723   0.142   1.689   5.127  0.5744  1.5423 -0.8744
   10CHL1  H22B  724   0.308   1.633   5.097  0.4538 -2.4028 -1.5266
   10CHL1   C23  725   0.145   1.548   4.971  0.0765  0.4156 -0.5672
   10CHL1  H23A  726   0.211   1.476   4.918  0.4428  0.6686 -0.4654
   10CHL1  H23B  727   0.052   1.494   4.997 -0.2290  0.5747 -1.3041
   10CHL1   C24  728   0.113   1.674   4.878  0.4216 -0.2183  0.5426
   10CHL1  H24A  729   0.021   1.718   4.920  1.5616  1.7873  1.0653
   10CHL1  H24B  730   0.208   1.732   4.872  0.8576 -1.0078 -0.6592
   10CHL1   C25  731   0.093   1.631   4.732  0.4675 -0.0493 -0.0023
   10CHL1   H25  732   0.187   1.580   4.701 -0.0990 -0.7879 -0.5609
   10CHL1   C26  733  -0.027   1.534   4.711  0.1037  0.1276 -0.1172
   10CHL1  H26A  734  -0.014   1.498   4.607  2.6795  1.9715 -0.5380
   10CHL1  H26B  735  -0.026   1.453   4.786  0.1023 -0.5556 -0.8455
   10CHL1  H26C  736  -0.117   1.597   4.729 -0.2480 -0.4449  0.1465
   10CHL1   C27  737   0.079   1.752   4.643  0.1128  0.5552  0.0100
   10CHL1  H27A  738   0.116   1.732   4.541 -1.3496 -1.7531 -0.1434
   10CHL1  H27B  739  -0.028   1.781   4.634  0.1480  0.3164 -1.3847
   10CHL1  H27C  740   0.127   1.842   4.686 -0.5995  0.0916  1.8987
   11CHL1    C3  741   4.963   0.460   6.291 -0.3995 -0.1848 -0.6984
   11CHL1    H3  742   5.072   0.477   6.278 -0.5797  1.0553 -0.7560
   11CHL1    O3  743   4.928   0.461   6.431  0.1013 -0.0128  0.0974
   11CHL1   H3'  744   4.836   0.434   6.428  0.6321 -1.9443 -0.1630
   11CHL1    C4  745   4.884   0.575   6.224 -0.4140 -0.0320  0.1893
   11CHL1   H4A  746   4.776   0.556   6.244 -0.2806 -0.6475  0.3246
   11CHL1   H4B  747   4.913   0.671   6.272  4.1585 -0.8215 -0.5310
   11CHL1    C5  748   4.907   0.573   6.073  0.4089 -0.3112  0.0184
   11CHL1    C6  749   4.956   0.684   6.013 -0.1997 -0.7787  0.9545
   11CHL1    H6  750   4.964   0.780   6.067  0.6929  0.1802 -0.8254
   11CHL1    C7  751   4.962   0.692   5.861 -0.1474 -0.0151 -0.4497
   11CHL1   H7A  752   4.941   0.792   5.819  0.8433 -0.1034 -1.1759
   11CHL1   H7B  753   5.071   0.683   5.843  0.2733  1.9715  0.7716
   11CHL1    C8  754   4.887   0.576   5.786 -0.6858 -0.4298 -0.1758
   11CHL1    H8  755   4.777   0.586   5.797 -0.6083 -0.7552  0.9574
   11CHL1   C14  756   4.938   0.578   5.642  0.1695 -0.0591 -0.7051
   11CHL1   H14  757   5.048   0.566   5.643  0.3302  1.1512 -1.7755
   11CHL1   C15  758   4.915   0.706   5.546 -0.1876 -0.4476 -0.1651
   11CHL1  H15A  759   4.823   0.758   5.581 -2.0565 -2.6642 -1.4865
   11CHL1  H15B  760   5.000   0.776   5.553 -0.3828  0.0197 -2.0384
   11CHL1   C16  761   4.891   0.644   5.412 -0.1377  0.0445  0.5663
   11CHL1  H16A  762   4.785   0.671   5.391 -1.0329 -2.9720  0.7580
   11CHL1  H16B  763   4.960   0.701   5.346  0.0036 -1.1079 -0.3137
   11CHL1   C17  764   4.911   0.496   5.417  0.8902 -0.2904 -0.9028
   11CHL1   H17  765   5.019   0.469   5.411  0.6889 -1.3945  0.0654
   11CHL1   C13  766   4.872   0.460   5.561  0.0508 -0.0509 -0.6592
   11CHL1   C18  767   4.715   0.477   5.575  0.4131 -0.1239 -0.0071
   11CHL1  H18A  768   4.679   0.441   5.674 -1.4640  2.5171  0.3544
   11CHL1  H18B  769   4.682   0.583   5.568  3.6266  1.1698  2.0524
   11CHL1  H18C  770   4.667   0.423   5.491  1.3419 -1.6917  0.4288
   11CHL1   C12  771   4.919   0.329   5.623 -0.1146  0.1255 -0.7231
   11CHL1  H12A  772   4.874   0.239   5.574 -0.3350  0.1663 -0.5946
   11CHL1  H12B  773   5.030   0.330   5.624 -0.0790  1.5805  2.4946
   11CHL1   C11  774   4.886   0.325   5.771  0.1761  0.4401  0.2219
   11CHL1  H11A  775   4.787   0.282   5.800 -0.0087  0.0985 -0.8516
   11CHL1  H11B  776   4.956   0.245   5.804  1.5474  0.7497 -1.7315
   11CHL1    C9  777   4.923   0.449   5.854  0.2326  0.1862  0.0839
   11CHL1    H9  778   5.035   0.449   5.857  0.4169  1.7889 -2.8268
   11CHL1   C10  779   4.877   0.442   6.004 -0.2020  0.2712 -0.0000
   11CHL1   C19  780   4.720   0.424   6.029 -0.7620 -0.1662 -0.3242
   11CHL1  H19A  781   4.663   0.515   5.998  1.2147  1.6938  1.1860
   11CHL1  H19B  782   4.684   0.332   5.979  1.7958 -2.0297  1.0742
   11CHL1  H19C  783   4.684   0.414   6.134  0.8887  0.7832  0.3652
   11CHL1    C1  784   4.953   0.328   6.074 -0.1491 -0.0319 -0.8791
   11CHL1   H1A  785   4.911   0.233   6.036 -0.2027 -0.6242  0.5917
   11CHL1   H1B  786   5.063   0.324   6.059  0.0375  0.7735  0.1011
   11CHL1    C2  787   4.929   0.325   6.226  0.2815  0.3324 -0.2526
   11CHL1   H2A  788   5.005   0.258   6.273 -0.8547  0.0193  1.2000
   11CHL1   H2B  789   4.830   0.296   6.265  0.2529  0.6297 -0.0996
   11CHL1   C20  790   4.842   0.426   5.299  0.1234  0.3722  0.3736
   11CHL1   H20  791   4.733   0.447   5.295 -0.6242 -3.0699 -1.0507
   11CHL1   C21  792   4.843   0.272   5.306  0.1546 -0.2054  0.6681
   11CHL1  H21A  793   4.755   0.238   5.366 -0.3090  0.0154  0.1144
   11CHL1  H21B  794   4.934   0.226   5.350  1.5138 -1.9421 -3.5062
   11CHL1  H21C  795   4.823   0.227   5.207  2.1028  0.2792  0.0223
   11CHL1   C22  796   4.903   0.473   5.165  0.8391 -0.4249 -0.4716
   11CHL1  H22A  797   4.859   0.403   5.091 -1.7109 -1.9193  2.2940
   11CHL1  H22B  798   4.850   0.569   5.145 -0.5890 -0.8862  0.9444
   11CHL1   C23  799   5.058   0.504   5.144 -0.3190 -0.0336  0.3555
   11CHL1  H23A  800   5.085   0.583   5.217  2.6986 -0.4588 -0.1759
   11CHL1  H23B  801   5.114   0.415   5.178 -0.4862  0.6071  2.4379
   11CHL1   C24  802   5.092   0.543   5.004 -0.1852 -0.5441  0.8804
   11CHL1  H24A  803   5.014   0.618   4.978 -2.2809 -2.5189  1.1143
   11CHL1  H24B  804   5.190   0.592   4.987 -0.0845 -0.3441  1.9703
   11CHL1   C25  805   5.084   0.428   4.907  0.7776 -0.6450  0.0665
   11CHL1   H25  806   4.986   0.379   4.924 -0.7466  1.8252 -1.0555
   11CHL1   C26  807   5.067   0.489   4.768 -0.3693  0.4696 -0.5987
   11CHL1  H26A  808   5.133   0.579   4.761 -1.5456  1.4697  0.6080
   11CHL1  H26B  809   5.081   0.415   4.687 -0.4756  0.0825 -0.2674
   11CHL1  H26C  810   4.964   0.530   4.761 -1.2808 -1.7602 -1.1442
   11CHL1   C27  811   5.205   0.340   4.903 -0.0380 -0.3152 -0.2382
   11CHL1  H27A  812   5.301   0.388   4.873  1.5906 -1.4757  2.6215
   11CHL1  H27B  813   5.228   0.313   5.009  0.5800  2.1062  0.3167
   11CHL1  H27C  814   5.196   0.244   4.849 -0.5295 -0.8375  0.7560
   12CHL1    C3  815   4.718   1.275   5.922 -0.1281  0.2505  0.1581
   12CHL1    H3  816   4.655   1.364   5.942  2.5289  2.0941  0.7844
   12CHL1    O3  817   4.775   1.220   6.040  0.1216 -0.5304 -0.0115
   12CHL1   H3'  818   4.706   1.194   6.102  0.4399 -0.7518  0.2536
   12CHL1    C4  819   4.626   1.162   5.867  0.9116 -1.0071 -0.0264
   12CHL1   H4A  820   4.675   1.063   5.874  1.0001 -0.8891  1.2538
   12CHL1   H4B  821   4.545   1.157   5.943  0.3105 -0.8806 -0.6521
   12CHL1    C5  822   4.569   1.186   5.727  0.2119  0.0928 -0.3939
   12CHL1    C6  823   4.440   1.191   5.705 -0.2875 -0.0951 -0.6428
   12CHL1    H6  824   4.370   1.173   5.788  0.9695  0.2064  0.5003
   12CHL1    C7  825   4.373   1.211   5.569  0.2038  0.0673  0.0835
   12CHL1   H7A  826   4.283   1.147   5.558 -1.6587  2.5608 -0.0628
   12CHL1   H7B  827   4.338   1.316   5.566 -0.6589 -0.2203 -0.5240
   12CHL1    C8  828   4.479   1.189   5.453 -0.6408 -0.4933 -0.1998
   12CHL1    H8  829   4.503   1.081   5.458  0.3192 -0.2630  0.4650
   12CHL1   C14  830   4.421   1.237   5.313 -0.4673  0.3384 -0.4758
   12CHL1   H14  831   4.414   1.346   5.334 -0.9019  0.1618  0.3069
   12CHL1   C15  832   4.275   1.197   5.263  0.3190  0.3535  0.4726
   12CHL1  H15A  833   4.261   1.088   5.275 -0.3395  0.3989  0.1844
   12CHL1  H15B  834   4.196   1.258   5.313 -1.6800 -1.6824 -0.0188
   12CHL1   C16  835   4.291   1.225   5.110 -0.4404 -0.0885  0.6793
   12CHL1  H16A  836   4.272   1.132   5.053  0.8138  0.3305 -0.4852
   12CHL1  H16B  837   4.221   1.306   5.078 -0.0273 -1.1011 -3.3072
   12CHL1   C17  838   4.423   1.284   5.085 -0.6013 -0.3484 -0.0133
   12CHL1   H17  839   4.415   1.392   5.109 -1.4974 -0.4917  0.3882
   12CHL1   C13  840   4.517   1.224   5.193  0.2634  0.2741  0.0420
   12CHL1   C18  841   4.552   1.077   5.157 -0.0110 -0.1629 -0.0380
   12CHL1  H18A  842   4.622   1.033   5.232  2.4655  1.4652 -1.2889
   12CHL1  H18B  843   4.461   1.014   5.148 -1.2326  1.5493 -0.1848
   12CHL1  H18C  844   4.607   1.078   5.061  0.8224 -0.4619  0.4315
   12CHL1   C12  845   4.646   1.302   5.229 -0.2309  0.1249 -0.0905
   12CHL1  H12A  846   4.724   1.277   5.153 -1.4523  0.0114 -1.3536
   12CHL1  H12B  847   4.622   1.410   5.221  0.0074  0.2329  0.6592
   12CHL1   C11  848   4.710   1.256   5.370  0.1715  0.0665 -0.7913
   12CHL1  H11A  849   4.743   1.150   5.365  1.0183  0.2975 -0.2246
   12CHL1  H11B  850   4.801   1.316   5.387  0.3629 -0.3647 -0.2594
   12CHL1    C9  851   4.612   1.268   5.486 -0.0396  0.5978 -0.5135
   12CHL1    H9  852   4.578   1.372   5.502 -0.6218  0.2536  0.5886
   12CHL1   C10  853   4.680   1.215   5.621 -0.1535  0.2886 -0.1218
   12CHL1   C19  854   4.759   1.086   5.600 -0.0795  0.4422 -0.3484
   12CHL1  H19A  855   4.856   1.099   5.547 -0.9284  1.5971 -1.7138
   12CHL1  H19B  856   4.789   1.050   5.700 -0.6782  1.0010  0.0385
   12CHL1  H19C  857   4.704   1.001   5.553  0.0246 -0.8933  1.8223
   12CHL1    C1  858   4.775   1.322   5.671  1.1922  1.1004 -0.0014
   12CHL1   H1A  859   4.863   1.337   5.605  0.7850 -0.8419 -1.0558
   12CHL1   H1B  860   4.719   1.418   5.673 -1.7735 -0.5202  1.2989
   12CHL1    C2  861   4.828   1.308   5.817  0.0535  0.3780 -0.2943
   12CHL1   H2A  862   4.894   1.395   5.838  0.2775 -0.0726  1.0127
   12CHL1   H2B  863   4.900   1.223   5.813 -1.1118 -0.7350  1.1285
   12CHL1   C20  864   4.474   1.280   4.943  0.6390 -0.8457  0.3993
   12CHL1   H20  865   4.585   1.286   4.944  0.5960  0.2032  0.6798
   12CHL1   C21  866   4.418   1.406   4.876 -0.5099  0.0205 -0.0050
   12CHL1  H21A  867   4.308   1.400   4.869 -0.8059  2.7812  1.1319
   12CHL1  H21B  868   4.444   1.418   4.768  0.3378  0.5128  0.2415
   12CHL1  H21C  869   4.453   1.501   4.921  1.1127  0.3493 -1.8308
   12CHL1   C22  870   4.432   1.159   4.868  0.6619 -0.3990  0.0301
   12CHL1  H22A  871   4.435   1.069   4.933  0.3974 -1.0004 -0.7643
   12CHL1  H22B  872   4.329   1.168   4.826  1.2166  0.0647 -1.2937
   12CHL1   C23  873   4.522   1.133   4.743  0.1293 -0.2893 -0.0976
   12CHL1  H23A  874   4.503   1.222   4.679 -0.5797 -1.0644 -1.0123
   12CHL1  H23B  875   4.628   1.124   4.774 -0.5048 -3.0960  1.5611
   12CHL1   C24  876   4.486   0.999   4.671  0.7804 -0.0559  0.0694
   12CHL1  H24A  877   4.489   0.919   4.748  0.1285  0.3994  0.5816
   12CHL1  H24B  878   4.379   0.997   4.644  1.2353 -0.1283 -1.8681
   12CHL1   C25  879   4.573   0.963   4.543  0.6960  0.4469  0.3535
   12CHL1   H25  880   4.678   0.961   4.578  1.4924 -0.6183 -1.9135
   12CHL1   C26  881   4.548   0.817   4.484  0.0536 -0.2659 -0.2117
   12CHL1  H26A  882   4.444   0.798   4.451 -0.7872  1.4505  1.3054
   12CHL1  H26B  883   4.620   0.802   4.400 -0.6245  1.6599 -1.1969
   12CHL1  H26C  884   4.574   0.744   4.564 -1.6188 -0.2773  0.3540
   12CHL1   C27  885   4.570   1.073   4.433  0.3541  0.1402 -0.5339
   12CHL1  H27A  886   4.609   1.167   4.478 -0.0626  0.0261  0.0731
   12CHL1  H27B  887   4.617   1.031   4.341 -0.5619  2.7065 -2.2997
   12CHL1  H27C  888   4.463   1.096   4.415  0.3198  0.5640  0.1833
   13CHL1    C3  889   0.833   0.326   6.128  0.6761 -0.1382 -0.0606
   13CHL1    H3  890   0.825   0.219   6.098  1.1668  0.2248 -1.5719
   13CHL1    O3  891   0.847   0.340   6.271  0.2019  0.0132  0.5658
   13CHL1   H3'  892   0.777   0.399   6.298 -0.7662 -0.9699  0.2527
   13CHL1    C4  893   0.957   0.382   6.052 -0.3068  0.3451  0.5948
   13CHL1   H4A  894   0.967   0.489   6.079 -1.5464  0.5592  0.2756
   13CHL1   H4B  895   1.053   0.334   6.081  1.1882  2.5866 -0.3775
   13CHL1    C5  896   0.927   0.366   5.903 -0.2080 -0.7795 -0.5966
   13CHL1    C6  897   1.017   0.294   5.833 -0.2370 -0.3533  0.7650
   13CHL1    H6  898   1.105   0.255   5.886  1.6007  0.2597 -1.6415
   13CHL1    C7  899   0.995   0.272   5.680 -0.3392 -0.1350 -0.4864
   13CHL1   H7A  900   1.094   0.280   5.631 -0.8476  1.1988 -1.3563
   13CHL1   H7B  901   0.949   0.172   5.668  0.5135 -0.9654  2.4071
   13CHL1    C8  902   0.901   0.376   5.621 -1.3943  0.0741  0.1057
   13CHL1    H8  903   0.952   0.475   5.627 -1.5140  0.3276 -2.1962
   13CHL1   C14  904   0.877   0.345   5.475  0.1417 -0.3084  0.5690
   13CHL1   H14  905   0.858   0.236   5.461  0.3092 -0.4303  1.2866
   13CHL1   C15  906   1.001   0.363   5.382 -0.0710 -0.2355 -0.2379
   13CHL1  H15A  907   1.062   0.451   5.411  0.2269 -0.0766 -1.2888
   13CHL1  H15B  908   1.075   0.282   5.399  0.9430  1.0554  1.8999
   13CHL1   C16  909   0.938   0.366   5.247  0.9270 -0.0705  0.4707
   13CHL1  H16A  910   0.981   0.453   5.193 -3.3552  0.8825 -1.7746
   13CHL1  H16B  911   0.971   0.277   5.191  1.6225  0.2660  0.3308
   13CHL1   C17  912   0.788   0.384   5.262  0.4704  0.1953 -0.8613
   13CHL1   H17  913   0.739   0.284   5.270  2.1402 -0.5844  0.0018
   13CHL1   C13  914   0.773   0.437   5.408 -0.1473 -0.3794 -0.8168
   13CHL1   C18  915   0.813   0.586   5.407 -0.4465 -0.1752 -0.5673
   13CHL1  H18A  916   0.898   0.605   5.339  1.6221  1.3826  2.2338
   13CHL1  H18B  917   0.723   0.646   5.379 -1.0286 -0.4038  0.7230
   13CHL1  H18C  918   0.832   0.617   5.512 -1.2086 -5.7115  1.5540
   13CHL1   C12  919   0.636   0.414   5.481 -0.0744 -0.4405  0.1850
   13CHL1  H12A  920   0.562   0.484   5.436  2.0757  0.4528 -2.1914
   13CHL1  H12B  921   0.598   0.310   5.479 -0.3821 -0.3892  1.9667
   13CHL1   C11  922   0.642   0.448   5.629 -0.5498 -0.2399  0.5986
   13CHL1  H11A  923   0.659   0.557   5.629  0.1932 -0.2625 -2.6929
   13CHL1  H11B  924   0.550   0.428   5.689 -0.4265 -0.4071  0.7349
   13CHL1    C9  925   0.771   0.378   5.702  0.0574  0.0401  0.1547
   13CHL1    H9  926   0.747   0.270   5.713  0.7962 -0.1642 -0.1915
   13CHL1   C10  927   0.796   0.425   5.847  0.1900  0.2057 -0.8340
   13CHL1   C19  928   0.819   0.576   5.850  0.0860 -0.5171 -0.1049
   13CHL1  H19A  929   0.725   0.633   5.832  0.5707  0.6091  0.7532
   13CHL1  H19B  930   0.853   0.618   5.948 -0.8756 -0.8302  0.3808
   13CHL1  H19C  931   0.893   0.615   5.778  0.0814  1.0036  0.6576
   13CHL1    C1  932   0.674   0.396   5.950 -0.2626  0.0289 -0.0484
   13CHL1   H1A  933   0.590   0.462   5.920 -0.4115 -0.5751 -0.9872
   13CHL1   H1B  934   0.641   0.292   5.930 -0.9845  0.2247  0.0925
   13CHL1    C2  935   0.707   0.411   6.092 -0.1597  0.5715 -0.9213
   13CHL1   H2A  936   0.619   0.363   6.139  0.8475 -1.2649 -0.7968
   13CHL1   H2B  937   0.707   0.520   6.115 -0.9323  0.9659 -2.6262
   13CHL1   C20  938   0.723   0.466   5.148 -0.5414  0.1230  0.3059
   13CHL1   H20  939   0.758   0.571   5.162  1.7330 -0.9275  3.4523
   13CHL1   C21  940   0.570   0.451   5.161 -0.5351  0.0130 -0.2060
   13CHL1  H21A  941   0.540   0.523   5.240  0.9110 -0.4540  0.8012
   13CHL1  H21B  942   0.540   0.346   5.183 -0.7938  0.5189  2.0728
   13CHL1  H21C  943   0.515   0.487   5.071 -1.1552  2.4575  1.0834
   13CHL1   C22  944   0.776   0.424   5.010  0.1464  0.0464  0.2187
   13CHL1  H22A  945   0.887   0.413   5.011  0.2926  0.5311 -2.8874
   13CHL1  H22B  946   0.735   0.325   4.984  1.8987 -0.3412 -1.3011
   13CHL1   C23  947   0.749   0.526   4.896  0.6297 -1.2058 -0.0347
   13CHL1  H23A  948   0.641   0.513   4.871  0.6745  1.6856 -2.2771
   13CHL1  H23B  949   0.773   0.629   4.928 -1.5458 -0.9524  0.9076
   13CHL1   C24  950   0.835   0.503   4.779 -0.5817  0.0698  0.2658
   13CHL1  H24A  951   0.827   0.595   4.717 -0.4133  1.7035  2.5167
   13CHL1  H24B  952   0.942   0.479   4.796 -0.4188  0.9079  0.4924
   13CHL1   C25  953   0.787   0.387   4.695  0.1196 -0.2077  0.7580
   13CHL1   H25  954   0.774   0.296   4.758  2.3491  0.0687  1.7279
   13CHL1   C26  955   0.665   0.425   4.610 -0.6019 -0.0424 -0.4846
   13CHL1  H26A  956   0.628   0.346   4.541 -2.5531  1.8463 -1.7040
   13CHL1  H26B  957   0.575   0.446   4.672 -1.1593  0.8738 -1.5621
   13CHL1  H26C  958   0.686   0.518   4.554  1.7077  0.7910  1.5716
   13CHL1   C27  959   0.895   0.333   4.599  0.0967  0.4199  0.4308
   13CHL1  H27A  960   0.908   0.381   4.500 -2.2212 -0.1340 -0.2080
   13CHL1  H27B  961   0.990   0.331   4.656 -0.2398  1.7626  1.0826
   13CHL1  H27C  962   0.873   0.228   4.571  1.3967  0.2007  0.1578
   14CHL1    C3  963   2.061   0.814   6.092  0.2315 -0.4608 -0.2315
   14CHL1    H3  964   1.977   0.886   6.104  1.3376  0.6655  1.1446
   14CHL1    O3  965   2.115   0.812   6.222  0.0015 -0.4857 -0.3497
   14CHL1   H3'  966   2.209   0.791   6.214 -0.3441 -1.9201 -0.9214
   14CHL1    C4  967   2.012   0.672   6.057  0.2065  0.2082  0.1493
   14CHL1   H4A  968   2.083   0.592   6.088 -0.1168 -0.0187  0.3007
   14CHL1   H4B  969   1.925   0.663   6.125  0.6111  1.4961  0.8855
   14CHL1    C5  970   1.967   0.656   5.909  0.5064 -1.0984  0.0392
   14CHL1    C6  971   1.853   0.601   5.887  0.0324 -0.6336  0.3287
   14CHL1    H6  972   1.787   0.567   5.968  0.0322 -0.4129  0.4224
   14CHL1    C7  973   1.802   0.575   5.741 -0.7236  0.1256  0.1137
   14CHL1   H7A  974   1.769   0.470   5.730  1.3149 -0.5041 -0.4482
   14CHL1   H7B  975   1.708   0.632   5.726 -1.6421 -1.4100 -0.2140
   14CHL1    C8  976   1.906   0.609   5.630 -0.1842 -0.6643  0.7366
   14CHL1    H8  977   1.972   0.520   5.618  1.4217  0.5998 -0.2084
   14CHL1   C14  978   1.837   0.634   5.499  0.0395 -0.0168 -0.5016
   14CHL1   H14  979   1.780   0.724   5.529 -0.4223 -0.9106  1.4875
   14CHL1   C15  980   1.734   0.538   5.442  0.0135 -0.0118 -0.3092
   14CHL1  H15A  981   1.763   0.431   5.445 -0.5390 -0.3823 -3.8620
   14CHL1  H15B  982   1.637   0.552   5.493  0.8603  1.9033  0.8729
   14CHL1   C16  983   1.712   0.572   5.296  0.0110 -0.5484 -0.2801
   14CHL1  H16A  984   1.716   0.479   5.235 -0.4798 -0.5090 -0.3796
   14CHL1  H16B  985   1.617   0.625   5.273  1.9385  3.9905  1.1522
   14CHL1   C17  986   1.831   0.672   5.267  0.3031 -0.5072 -0.1172
   14CHL1   H17  987   1.790   0.774   5.281 -0.3811 -0.6442 -1.0175
   14CHL1   C13  988   1.933   0.663   5.382  0.4928 -0.3052 -0.7966
   14CHL1   C18  989   2.029   0.545   5.354  0.3622 -0.4806  0.8248
   14CHL1  H18A  990   1.979   0.456   5.309 -1.0460  1.4341 -1.6889
   14CHL1  H18B  991   2.118   0.569   5.293 -0.3285 -1.7651 -0.7668
   14CHL1  H18C  992   2.071   0.497   5.445  0.0021  0.3869  1.4688
   14CHL1   C12  993   2.008   0.791   5.419  0.2018 -0.1505 -0.0755
   14CHL1  H12A  994   2.079   0.817   5.338 -0.5782  2.0042 -0.1285
   14CHL1  H12B  995   1.942   0.878   5.437  1.5139  0.6550  1.0057
   14CHL1   C11  996   2.088   0.764   5.552 -0.2434 -0.9391 -0.2409
   14CHL1  H11A  997   2.163   0.682   5.538 -1.6476 -2.0436 -1.7338
   14CHL1  H11B  998   2.132   0.862   5.577  0.4687 -0.9612 -1.3208
   14CHL1    C9  999   1.989   0.735   5.671 -0.3904  0.6298  0.9617
   14CHL1    H9 1000   1.916   0.818   5.683  0.5379  1.3279  2.0988
   14CHL1   C10 1001   2.064   0.727   5.804 -0.5293  0.5965 -0.0195
   14CHL1   C19 1002   2.187   0.629   5.792 -0.0378  0.0058  0.3555
   14CHL1  H19A 1003   2.138   0.537   5.754 -0.0668  0.7363 -1.5082
   14CHL1  H19B 1004   2.263   0.649   5.713  0.9681 -2.1998  0.7086
   14CHL1  H19C 1005   2.245   0.608   5.885  5.8441 -1.0154 -3.0137
   14CHL1    C1 1006   2.116   0.865   5.847 -0.4378 -0.7125 -0.0743
   14CHL1   H1A 1007   2.210   0.879   5.790  0.5371 -2.9932  0.8215
   14CHL1   H1B 1008   2.047   0.942   5.807 -0.3281 -0.3887  0.3499
   14CHL1    C2 1009   2.162   0.878   5.996  0.1485 -0.9362 -0.5610
   14CHL1   H2A 1010   2.194   0.979   6.030 -0.3448 -1.3859  1.3716
   14CHL1   H2B 1011   2.247   0.808   6.014  2.2995  0.6681 -3.5840
   14CHL1   C20 1012   1.893   0.693   5.124 -0.2584  0.3686  0.3610
   14CHL1   H20 1013   1.984   0.752   5.145  0.2047 -0.4756  0.7992
   14CHL1   C21 1014   1.800   0.772   5.039 -0.0925  0.0255 -0.9150
   14CHL1  H21A 1015   1.710   0.716   5.009 -1.0033  1.7183 -1.4810
   14CHL1  H21B 1016   1.843   0.796   4.939 -0.0435 -1.2468 -1.2112
   14CHL1  H21C 1017   1.762   0.865   5.086  0.4160  1.1614 -2.6420
   14CHL1   C22 1018   1.941   0.571   5.045  0.3923  1.1925 -0.0702
   14CHL1  H22A 1019   1.941   0.484   5.114  2.1798  0.6001 -0.7408
   14CHL1  H22B 1020   1.864   0.540   4.971  2.9263 -1.6453 -1.8136
   14CHL1   C23 1021   2.075   0.585   4.969  0.3457  0.0542  0.4944
   14CHL1  H23A 1022   2.063   0.675   4.904 -0.5976 -0.2614  0.2093
   14CHL1  H23B 1023   2.154   0.594   5.046  0.2291 -2.4165  0.9742
   14CHL1   C24 1024   2.095   0.474   4.869 -0.8451 -0.0903  0.0220
   14CHL1  H24A 1025   2.083   0.377   4.921 -0.2211 -0.1098  0.1456
   14CHL1  H24B 1026   2.010   0.472   4.798 -1.7147  0.1297  1.0319
   14CHL1   C25 1027   2.227   0.484   4.784 -0.1693 -0.6475  0.0348
   14CHL1   H25 1028   2.301   0.476   4.866 -3.2142 -0.6626  3.0043
   14CHL1   C26 1029   2.236   0.373   4.674 -0.0920  0.0415 -0.5472
   14CHL1  H26A 1030   2.217   0.277   4.727 -0.8556  0.8161  0.6281
   14CHL1  H26B 1031   2.154   0.392   4.603  1.4131  1.5572 -1.9724
   14CHL1  H26C 1032   2.335   0.369   4.624 -0.9540  1.8110 -2.5230
   14CHL1   C27 1033   2.252   0.622   4.716  0.0013 -0.3831  0.1775
   14CHL1  H27A 1034   2.264   0.705   4.790  3.2593 -0.4052 -0.1933
   14CHL1  H27B 1035   2.349   0.614   4.662  0.4024 -0.0283  0.8253
   14CHL1  H27C 1036   2.165   0.645   4.650 -0.3337 -0.6459  0.5246
   15CHL1    C3 1037   4.078   2.964   5.941 -0.2706 -0.2837  0.0738
   15CHL1    H3 1038   4.159   2.894   5.969 -0.7538  0.2115  3.0227
   15CHL1    O3 1039   4.025   3.019   6.063  0.4166 -0.4430  0.2936
   15CHL1   H3' 1040   3.983   3.102   6.039 -1.3523 -0.8674  1.6572
   15CHL1    C4 1041   4.134   3.078   5.853  0.0306 -0.2531  1.2164
   15CHL1   H4A 1042   4.059   3.159   5.843  1.4189  1.0976  1.4191
   15CHL1   H4B 1043   4.211   3.133   5.911 -1.5961  0.0283  3.2366
   15CHL1    C5 1044   4.184   3.040   5.715 -0.1739 -0.2874  1.0432
   15CHL1    C6 1045   4.311   3.065   5.673 -0.1324  0.7578  0.2616
   15CHL1    H6 1046   4.374   3.125   5.741  1.3264  1.5485 -1.7070
   15CHL1    C7 1047   4.379   3.025   5.543  0.9354  0.7235 -0.4165
   15CHL1   H7A 1048   4.413   3.119   5.494  3.8901  1.0843  2.0053
   15CHL1   H7B 1049   4.456   2.952   5.576 -0.3535 -0.2427  0.5732
   15CHL1    C8 1050   4.274   2.953   5.457  0.2970 -0.0016  0.2468
   15CHL1    H8 1051   4.219   3.032   5.403 -0.6608 -0.3975  0.6196
   15CHL1   C14 1052   4.346   2.864   5.348  0.4744 -0.3589  0.1348
   15CHL1   H14 1053   4.390   2.791   5.419 -0.2418 -0.4804  0.4602
   15CHL1   C15 1054   4.446   2.934   5.265 -0.0713  0.1313 -0.2677
   15CHL1  H15A 1055   4.402   3.029   5.228  1.2528  0.4036 -1.1937
   15CHL1  H15B 1056   4.540   2.958   5.318 -0.2822 -1.4625  0.9269
   15CHL1   C16 1057   4.480   2.837   5.152 -0.5527  0.1331  0.3585
   15CHL1  H16A 1058   4.475   2.882   5.050  1.9244 -1.5076 -0.5737
   15CHL1  H16B 1059   4.580   2.791   5.167  0.5464  1.3074 -2.4982
   15CHL1   C17 1060   4.362   2.736   5.160  0.0135  0.0973  0.3574
   15CHL1   H17 1061   4.406   2.654   5.220  1.7675  0.0098 -0.9591
   15CHL1   C13 1062   4.255   2.802   5.248 -0.3742 -0.2037 -0.4568
   15CHL1   C18 1063   4.184   2.912   5.158 -0.0829 -0.2765 -0.4708
   15CHL1  H18A 1064   4.133   2.990   5.219  1.1178  0.3448 -0.2306
   15CHL1  H18B 1065   4.261   2.965   5.098  1.3002  1.4580  2.6052
   15CHL1  H18C 1066   4.110   2.864   5.091 -0.9281  2.1597 -1.4164
   15CHL1   C12 1067   4.155   2.706   5.314 -0.3533  0.3387  0.1035
   15CHL1  H12A 1068   4.080   2.654   5.250  0.4454  0.8452 -1.2990
   15CHL1  H12B 1069   4.211   2.618   5.352 -1.5327 -0.3372  0.3228
   15CHL1   C11 1070   4.084   2.774   5.434  0.2624  0.0641  0.1941
   15CHL1  H11A 1071   4.002   2.836   5.393  0.1553 -0.6750 -0.7464
   15CHL1  H11B 1072   4.028   2.702   5.498  0.9603 -1.1813 -0.5492
   15CHL1    C9 1073   4.172   2.860   5.523  0.1149 -0.8466  0.3898
   15CHL1    H9 1074   4.227   2.792   5.591  1.8544 -1.3855 -1.4648
   15CHL1   C10 1075   4.099   2.943   5.635 -0.0811 -0.1247 -0.4718
   15CHL1   C19 1076   3.987   3.018   5.562  0.0378 -0.6604 -0.4483
   15CHL1  H19A 1077   3.902   2.950   5.541  0.1132 -0.8599 -0.1310
   15CHL1  H19B 1078   3.952   3.094   5.635 -0.8898 -0.2053 -1.3498
   15CHL1  H19C 1079   4.026   3.072   5.473 -3.0452  2.8673  0.1089
   15CHL1    C1 1080   4.028   2.838   5.733 -0.9526  0.7223 -0.5190
   15CHL1   H1A 1081   3.950   2.792   5.668 -0.7229  1.2542 -1.1768
   15CHL1   H1B 1082   4.099   2.761   5.769  0.3393  2.7037  1.4108
   15CHL1    C2 1083   3.974   2.895   5.859 -0.2796  0.1627  0.4771
   15CHL1   H2A 1084   3.937   2.809   5.918  0.2616  0.3297  1.0692
   15CHL1   H2B 1085   3.890   2.960   5.827  0.5558  0.9311 -0.2339
   15CHL1   C20 1086   4.329   2.686   5.024 -0.0986  0.1338 -0.2679
   15CHL1   H20 1087   4.300   2.776   4.966  1.1126  1.4967  1.1700
   15CHL1   C21 1088   4.211   2.586   5.018 -0.0812 -0.3005 -0.0283
   15CHL1  H21A 1089   4.195   2.557   4.912 -1.7322 -0.6660  0.2873
   15CHL1  H21B 1090   4.117   2.637   5.049 -0.2032  0.4715 -1.6067
   15CHL1  H21C 1091   4.226   2.500   5.087 -0.2388  0.6120  1.1760
   15CHL1   C22 1092   4.452   2.636   4.947 -0.3061 -0.4814 -0.4174
   15CHL1  H22A 1093   4.531   2.713   4.936 -0.1334 -0.6895 -0.6543
   15CHL1  H22B 1094   4.498   2.561   5.015  0.9761  0.6231 -0.0404
   15CHL1   C23 1095   4.434   2.593   4.800 -0.0977  0.6219  0.2704
   15CHL1  H23A 1096   4.384   2.495   4.815  1.2153  0.0402  1.1274
   15CHL1  H23B 1097   4.360   2.662   4.755 -0.6718 -1.9115 -2.9968
   15CHL1   C24 1098   4.560   2.570   4.713  0.3489 -0.5103 -0.5221
   15CHL1  H24A 1099   4.628   2.656   4.733 -0.5464 -0.1199  0.9757
   15CHL1  H24B 1100   4.623   2.487   4.751  0.9962  1.0011  1.9311
   15CHL1   C25 1101   4.530   2.552   4.562 -0.8737 -0.4405  0.6571
   15CHL1   H25 1102   4.459   2.468   4.546 -0.3549 -0.7617  0.0028
   15CHL1   C26 1103   4.475   2.677   4.494  0.0545 -0.1129  0.0490
   15CHL1  H26A 1104   4.446   2.656   4.389  2.3285  1.4637 -0.9609
   15CHL1  H26B 1105   4.386   2.728   4.538  0.0095  2.0472 -2.3674
   15CHL1  H26C 1106   4.558   2.751   4.488  0.3444 -0.4936 -0.6584
   15CHL1   C27 1107   4.666   2.506   4.489  0.1455 -0.1622  0.4327
   15CHL1  H27A 1108   4.631   2.515   4.384 -2.0430  0.3057  1.1429
   15CHL1  H27B 1109   4.735   2.593   4.501  0.5310 -0.4750  0.4704
   15CHL1  H27C 1110   4.700   2.406   4.521  2.1709  0.5751  0.6968
   16CHL1    C3 1111   4.894   2.626   5.742  0.7826 -0.2997 -0.0001
   16CHL1    H3 1112   4.934   2.728   5.762 -0.6714  0.3231 -0.1548
   16CHL1    O3 1113   4.838   2.578   5.868  0.0734  0.6844  0.2449
   16CHL1   H3' 1114   4.766   2.638   5.887 -2.5404 -2.3347  0.6466
   16CHL1    C4 1115   4.772   2.645   5.647  0.0004 -0.1211 -0.0561
   16CHL1   H4A 1116   4.708   2.556   5.666 -2.2476  1.0388 -1.6664
   16CHL1   H4B 1117   4.715   2.732   5.684  0.7593 -1.2223  4.2184
   16CHL1    C5 1118   4.830   2.659   5.505  0.3313 -0.2125 -0.1616
   16CHL1    C6 1119   4.800   2.766   5.429 -0.1457  0.7044 -0.0169
   16CHL1    H6 1120   4.739   2.846   5.473 -0.2042  0.3320  0.6033
   16CHL1    C7 1121   4.856   2.794   5.292  0.4304 -0.0627  0.3264
   16CHL1   H7A 1122   4.775   2.847   5.238  0.9548  0.1614 -0.2412
   16CHL1   H7B 1123   4.948   2.855   5.304  0.1679  0.0894  1.7868
   16CHL1    C8 1124   4.876   2.664   5.223 -0.3388 -0.1592 -0.3162
   16CHL1    H8 1125   4.783   2.603   5.214  0.0362 -0.8051  0.0705
   16CHL1   C14 1126   4.940   2.690   5.085  0.3334 -0.8240  0.0769
   16CHL1   H14 1127   5.032   2.752   5.101 -1.1618  2.3920 -2.5420
   16CHL1   C15 1128   4.854   2.771   4.979 -0.0883 -0.1129 -0.3305
   16CHL1  H15A 1129   4.753   2.725   4.984  1.1697 -2.9755  0.7957
   16CHL1  H15B 1130   4.850   2.882   4.983  0.5608 -0.1023  0.2335
   16CHL1   C16 1131   4.915   2.749   4.839  0.2691  0.4787 -0.0099
   16CHL1  H16A 1132   4.831   2.717   4.773  0.0598  1.4339 -0.2292
   16CHL1  H16B 1133   4.966   2.836   4.791 -1.9676  1.2326 -1.1893
   16CHL1   C17 1134   5.019   2.635   4.867  0.0922 -0.1274 -0.1105
   16CHL1   H17 1135   5.121   2.676   4.882 -0.3787  0.2460  2.4579
   16CHL1   C13 1136   4.977   2.566   5.003 -0.3112 -0.5946 -0.4794
   16CHL1   C18 1137   4.856   2.470   4.982  0.2494  0.6596  0.1940
   16CHL1  H18A 1138   4.803   2.435   5.073 -1.1844 -0.1199 -0.9025
   16CHL1  H18B 1139   4.777   2.525   4.926 -0.7007 -1.4236 -0.5978
   16CHL1  H18C 1140   4.875   2.375   4.928 -2.2741 -1.3086  2.4756
   16CHL1   C12 1141   5.082   2.493   5.089  0.7705 -0.1286  0.1865
   16CHL1  H12A 1142   5.126   2.403   5.040  1.4796 -0.2093  0.9560
   16CHL1  H12B 1143   5.174   2.553   5.106 -0.0604  1.1182  0.3581
   16CHL1   C11 1144   5.033   2.458   5.237  0.1002  0.6402  0.1900
   16CHL1  H11A 1145   4.960   2.374   5.235  0.5240  0.2763 -0.5740
   16CHL1  H11B 1146   5.115   2.419   5.300  1.8754  2.7194 -0.6978
   16CHL1    C9 1147   4.972   2.580   5.310  0.1846  0.3600  0.5309
   16CHL1    H9 1148   5.060   2.643   5.336  0.6116 -0.7245  1.7726
   16CHL1   C10 1149   4.921   2.548   5.454 -0.1901 -0.0604  1.4051
   16CHL1   C19 1150   4.834   2.422   5.438  0.0007 -0.0756 -0.6020
   16CHL1  H19A 1151   4.901   2.333   5.435  0.0907  0.0149 -2.1928
   16CHL1  H19B 1152   4.772   2.412   5.529 -0.9486  2.1638 -0.9325
   16CHL1  H19C 1153   4.776   2.422   5.343 -0.0381  1.2639 -0.6032
   16CHL1    C1 1154   5.037   2.529   5.553 -0.2102 -0.3507  0.7020
   16CHL1   H1A 1155   5.106   2.447   5.523  1.6929  1.0307  1.1186
   16CHL1   H1B 1156   5.100   2.621   5.545 -0.1680 -0.4101  0.3566
   16CHL1    C2 1157   4.993   2.515   5.696 -0.6905  0.2803 -0.5142
   16CHL1   H2A 1158   5.086   2.514   5.757 -1.7811 -2.7807  1.3250
   16CHL1   H2B 1159   4.936   2.421   5.713 -0.8205  0.3008 -0.8408
   16CHL1   C20 1160   5.027   2.544   4.744 -0.1772 -0.6221 -0.6373
   16CHL1   H20 1161   4.935   2.483   4.739  0.6640 -2.3167  2.1193
   16CHL1   C21 1162   5.135   2.438   4.770  0.2172 -0.0300  0.5306
   16CHL1  H21A 1163   5.165   2.390   4.675 -1.8742 -0.5563  0.0936
   16CHL1  H21B 1164   5.117   2.354   4.841  0.8507 -1.2122 -0.6736
   16CHL1  H21C 1165   5.227   2.495   4.798 -0.4075  0.2184  2.1915
   16CHL1   C22 1166   5.050   2.627   4.616 -0.7009 -1.1330 -0.4109
   16CHL1  H22A 1167   4.968   2.699   4.598  1.9536  1.5182 -3.0268
   16CHL1  H22B 1168   5.139   2.690   4.637 -1.7400  0.6604 -1.1700
   16CHL1   C23 1169   5.070   2.532   4.496  0.0801  0.0632 -0.1809
   16CHL1  H23A 1170   5.149   2.455   4.512  1.5389  1.7826  1.1937
   16CHL1  H23B 1171   4.983   2.462   4.496 -0.0561  0.1815 -1.7070
   16CHL1   C24 1172   5.090   2.594   4.359 -0.5093  0.5806  0.6074
   16CHL1  H24A 1173   4.996   2.638   4.319  0.6257  2.3111 -0.3159
   16CHL1  H24B 1174   5.163   2.679   4.359 -0.2980  0.4057  1.4000
   16CHL1   C25 1175   5.143   2.494   4.257 -0.5350 -0.0633  0.1348
   16CHL1   H25 1176   5.226   2.444   4.312 -0.8323 -2.0720 -1.1780
   16CHL1   C26 1177   5.041   2.382   4.227 -0.1674 -0.3023  0.0034
   16CHL1  H26A 1178   5.020   2.322   4.318 -1.6640  0.5073  0.2328
   16CHL1  H26B 1179   4.946   2.418   4.180 -1.3500 -2.0212  0.9549
   16CHL1  H26C 1180   5.089   2.318   4.150 -1.5823 -0.9926 -0.3544
   16CHL1   C27 1181   5.186   2.571   4.132  0.0214 -0.2575 -0.3155
   16CHL1  H27A 1182   5.269   2.634   4.170 -1.5192  0.3375  2.3215
   16CHL1  H27B 1183   5.211   2.487   4.064  0.9208 -1.3289  1.2914
   16CHL1  H27C 1184   5.117   2.648   4.090 -0.0789 -0.6756 -0.9367
   17CHL1    C3 1185   6.131   6.186   5.992  0.2731  0.0999  0.1184
   17CHL1    H3 1186   6.022   6.196   6.012 -0.3650 -2.8958 -1.3885
   17CHL1    O3 1187   6.191   6.143   6.113  0.0506 -0.7141 -0.2132
   17CHL1   H3' 1188   6.283   6.168   6.101 -0.3381 -0.3094 -3.2404
   17CHL1    C4 1189   6.172   6.076   5.895 -0.5525  0.1248 -0.3227
   17CHL1   H4A 1190   6.279   6.048   5.900 -0.7195 -0.8869 -1.8425
   17CHL1   H4B 1191   6.115   5.985   5.923 -1.0428  0.8133  1.0083
   17CHL1    C5 1192   6.125   6.122   5.754  0.5699 -0.1023  0.3816
   17CHL1    C6 1193   6.050   6.041   5.681  0.3987 -0.2975  0.4754
   17CHL1    H6 1194   6.027   5.941   5.721  0.0269  0.8713  3.4426
   17CHL1    C7 1195   6.020   6.067   5.533 -0.4814  0.3728  0.5297
   17CHL1   H7A 1196   6.034   5.975   5.473  2.8394 -0.0524  1.7325
   17CHL1   H7B 1197   5.913   6.095   5.521 -0.2037  0.7196 -1.5957
   17CHL1    C8 1198   6.099   6.178   5.468  0.0246  0.8831 -0.8108
   17CHL1    H8 1199   6.201   6.141   5.444 -1.0100 -2.4482 -0.5352
   17CHL1   C14 1200   6.038   6.233   5.340 -0.7008 -0.2529  1.0844
   17CHL1   H14 1201   5.937   6.270   5.369 -1.1534  0.0751 -0.8200
   17CHL1   C15 1202   6.009   6.134   5.228  0.8995  0.3269  0.2457
   17CHL1  H15A 1203   6.078   6.046   5.230 -2.1043 -2.2191 -0.2922
   17CHL1  H15B 1204   5.905   6.100   5.247  0.8730 -0.5445 -1.2791
   17CHL1   C16 1205   6.012   6.203   5.096  0.0447  0.0606 -0.2776
   17CHL1  H16A 1206   6.089   6.154   5.033 -1.3222 -1.2450 -0.9816
   17CHL1  H16B 1207   5.916   6.194   5.041  0.6639  0.1717 -1.4114
   17CHL1   C17 1208   6.037   6.349   5.140  0.3127 -0.9679  0.1777
   17CHL1   H17 1209   5.936   6.388   5.164 -0.1249 -0.4175 -2.2494
   17CHL1   C13 1210   6.116   6.344   5.273  0.2882 -0.6485  0.1585
   17CHL1   C18 1211   6.261   6.302   5.242 -0.4532  0.6049  0.2466
   17CHL1  H18A 1212   6.265   6.208   5.182  0.8901  0.4771  0.5118
   17CHL1  H18B 1213   6.314   6.377   5.180 -1.2357  0.7388 -0.2690
   17CHL1  H18C 1214   6.317   6.288   5.337 -1.9088  0.1656  1.0637
   17CHL1   C12 1215   6.110   6.471   5.360  0.6685  0.4009  0.1650
   17CHL1  H12A 1216   6.188   6.539   5.321  2.2146 -2.0110 -1.2292
   17CHL1  H12B 1217   6.012   6.524   5.359  0.8249  0.6831 -0.6793
   17CHL1   C11 1218   6.166   6.432   5.497  0.8622 -0.3562  0.3974
   17CHL1  H11A 1219   6.276   6.418   5.492  0.9008 -0.2387  0.9053
   17CHL1  H11B 1220   6.146   6.516   5.566  1.1679  1.7541 -1.9429
   17CHL1    C9 1221   6.107   6.301   5.565  0.4285  0.1394  0.0882
   17CHL1    H9 1222   5.998   6.322   5.574 -0.0313  0.6329 -4.3894
   17CHL1   C10 1223   6.172   6.257   5.699  0.4810  0.0527  0.5796
   17CHL1   C19 1224   6.326   6.242   5.685  0.3935  0.0781  0.8330
   17CHL1  H19A 1225   6.360   6.188   5.594 -1.0399  1.7833 -0.7893
   17CHL1  H19B 1226   6.367   6.345   5.686  1.3614 -0.2666 -0.2465
   17CHL1  H19C 1227   6.378   6.192   5.770  1.6384  1.3083  0.8336
   17CHL1    C1 1228   6.130   6.359   5.810  0.7785  0.0828  0.1561
   17CHL1   H1A 1229   6.155   6.464   5.787 -2.0083  1.1393  1.4395
   17CHL1   H1B 1230   6.019   6.364   5.812  0.7870  0.2618  0.1549
   17CHL1    C2 1231   6.186   6.322   5.946  0.1446  0.1534  0.0530
   17CHL1   H2A 1232   6.156   6.403   6.016 -2.5610 -1.0590  0.4301
   17CHL1   H2B 1233   6.297   6.323   5.946  0.2307 -2.3687 -1.0022
   17CHL1   C20 1234   6.090   6.448   5.030 -0.0917  0.2355 -0.2322
   17CHL1   H20 1235   6.154   6.522   5.083  2.2615 -1.2087 -0.9173
   17CHL1   C21 1236   5.963   6.512   4.964  0.0553 -0.0221 -0.2563
   17CHL1  H21A 1237   5.914   6.579   5.038  1.4705 -0.9001  1.5554
   17CHL1  H21B 1238   5.890   6.432   4.940 -1.7117  0.5289  2.6860
   17CHL1  H21C 1239   5.991   6.577   4.879 -1.7359 -1.5275 -2.0848
   17CHL1   C22 1240   6.179   6.373   4.925  0.6048 -0.2381 -0.0658
   17CHL1  H22A 1241   6.268   6.339   4.982  0.7046  0.6510  0.3244
   17CHL1  H22B 1242   6.126   6.286   4.880 -0.9278  0.0909  1.0119
   17CHL1   C23 1243   6.235   6.471   4.817 -0.3539 -0.2724 -0.1573
   17CHL1  H23A 1244   6.150   6.507   4.756  0.6541  0.8977 -0.9306
   17CHL1  H23B 1245   6.275   6.550   4.884 -0.7115 -0.6582  0.5171
   17CHL1   C24 1246   6.351   6.423   4.725 -0.0461 -0.2159  0.2214
   17CHL1  H24A 1247   6.436   6.385   4.785  3.0411  3.5772 -1.3389
   17CHL1  H24B 1248   6.306   6.346   4.660  1.6479 -1.0782  0.0197
   17CHL1   C25 1249   6.410   6.541   4.642 -0.3952  0.1050  0.3365
   17CHL1   H25 1250   6.444   6.624   4.709 -3.5334  2.2489 -0.5161
   17CHL1   C26 1251   6.539   6.501   4.557 -0.5656 -0.6808  0.4684
   17CHL1  H26A 1252   6.578   6.596   4.514 -0.6542 -0.6065  0.5529
   17CHL1  H26B 1253   6.615   6.443   4.612  0.4900 -2.7697 -2.8555
   17CHL1  H26C 1254   6.515   6.437   4.469 -0.4648 -3.7036  2.4779
   17CHL1   C27 1255   6.312   6.606   4.554 -0.0695  0.5833  0.0770
   17CHL1  H27A 1256   6.224   6.653   4.604  1.7319  1.6416  2.4288
   17CHL1  H27B 1257   6.350   6.684   4.485  0.2532 -0.2140 -0.6577
   17CHL1  H27C 1258   6.264   6.528   4.491 -0.6811  1.6668 -0.8653
   18CHL1    C3 1259   0.071   3.019   6.277 -0.7383  0.1136 -0.1765
   18CHL1    H3 1260  -0.012   2.959   6.235 -0.4214 -1.3460  1.2197
   18CHL1    O3 1261   0.057   3.033   6.418 -0.0995  0.3616 -0.6011
   18CHL1   H3' 1262   0.144   3.054   6.452 -0.7242  1.3268  0.4514
   18CHL1    C4 1263   0.205   2.944   6.252 -0.5223 -0.7366 -0.7330
   18CHL1   H4A 1264   0.295   3.001   6.284  0.1866 -1.0843 -2.0389
   18CHL1   H4B 1265   0.196   2.845   6.302 -0.8070  0.2397  1.2778
   18CHL1    C5 1266   0.227   2.927   6.104 -0.2784 -0.3370  0.1274
   18CHL1    C6 1267   0.247   2.804   6.051  0.1252  0.4543 -0.6389
   18CHL1    H6 1268   0.252   2.716   6.116 -0.1795 -0.1049 -1.3667
   18CHL1    C7 1269   0.276   2.776   5.911  0.3251  0.2234 -0.3299
   18CHL1   H7A 1270   0.373   2.725   5.896 -0.7570 -1.5006 -1.9016
   18CHL1   H7B 1271   0.205   2.708   5.859  0.1400 -0.4267  0.7376
   18CHL1    C8 1272   0.302   2.908   5.830  0.1262 -0.5549  0.6715
   18CHL1    H8 1273   0.407   2.940   5.847 -0.5173  1.5893  0.9313
   18CHL1   C14 1274   0.295   2.869   5.680  0.0870  0.5041  0.0505
   18CHL1   H14 1275   0.192   2.838   5.654  0.3947 -0.6531  0.1669
   18CHL1   C15 1276   0.380   2.744   5.634  0.6893  0.2620  0.5150
   18CHL1  H15A 1277   0.476   2.739   5.689  0.1601  1.7152  1.6166
   18CHL1  H15B 1278   0.329   2.645   5.640  1.1636 -0.0503 -0.3778
   18CHL1   C16 1279   0.408   2.774   5.476  0.2901  0.7344 -0.4575
   18CHL1  H16A 1280   0.515   2.783   5.449  0.3065 -0.2675 -0.7850
   18CHL1  H16B 1281   0.365   2.688   5.420 -0.4360  1.1497 -0.5507
   18CHL1   C17 1282   0.334   2.909   5.453  0.0092 -0.0147  0.4473
   18CHL1   H17 1283   0.232   2.888   5.414  0.8981  0.5082 -2.4005
   18CHL1   C13 1284   0.332   2.985   5.589 -0.1108  0.0058 -0.4030
   18CHL1   C18 1285   0.469   3.039   5.622  0.3639  0.0177 -0.3235
   18CHL1  H18A 1286   0.475   3.078   5.727 -1.8483  0.8820 -0.4643
   18CHL1  H18B 1287   0.547   2.963   5.603  1.7070  1.3391 -0.3052
   18CHL1  H18C 1288   0.496   3.126   5.559  4.4296  0.0969  1.2136
   18CHL1   C12 1289   0.230   3.098   5.613 -0.0027 -0.1924  0.3822
   18CHL1  H12A 1290   0.260   3.181   5.546  0.0655 -1.0123 -0.6347
   18CHL1  H12B 1291   0.134   3.061   5.573  1.1737 -0.6442 -2.1935
   18CHL1   C11 1292   0.223   3.147   5.763  0.2081  0.3969 -0.1432
   18CHL1  H11A 1293   0.305   3.219   5.787  0.0858  0.2717  0.7022
   18CHL1  H11B 1294   0.131   3.207   5.780  0.6088  1.3566 -1.2383
   18CHL1    C9 1295   0.209   3.026   5.871 -0.2186 -0.5244  0.1341
   18CHL1    H9 1296   0.105   2.993   5.849 -0.5477 -0.6167  1.6858
   18CHL1   C10 1297   0.211   3.064   6.019 -0.2159  1.0141  0.1070
   18CHL1   C19 1298   0.332   3.163   6.050 -0.7383 -0.4393 -0.1041
   18CHL1  H19A 1299   0.363   3.163   6.157  2.5515  1.1751 -0.9408
   18CHL1  H19B 1300   0.421   3.118   6.003  0.5073 -1.9158  3.3012
   18CHL1  H19C 1301   0.329   3.269   6.016 -0.4071 -0.0477  1.0311
   18CHL1    C1 1302   0.082   3.138   6.060  0.6272  0.4923 -0.0656
   18CHL1   H1A 1303   0.086   3.238   6.012  1.5933  1.1747  1.3781
   18CHL1   H1B 1304   0.000   3.075   6.017 -0.4524  0.0262  2.5116
   18CHL1    C2 1305   0.068   3.157   6.209 -0.5079 -0.5894 -0.2301
   18CHL1   H2A 1306  -0.024   3.217   6.225 -0.7347 -0.3522 -2.2278
   18CHL1   H2B 1307   0.142   3.217   6.267 -0.1014 -1.2156 -0.0826
   18CHL1   C20 1308   0.395   2.979   5.329  0.3330  0.4816 -0.2539
   18CHL1   H20 1309   0.505   2.980   5.343  0.2493 -2.2544  1.2167
   18CHL1   C21 1310   0.356   3.120   5.307  0.4856  0.1179  0.4957
   18CHL1  H21A 1311   0.405   3.185   5.383  1.4382 -1.5422  1.3383
   18CHL1  H21B 1312   0.246   3.130   5.310 -0.0070 -2.2357 -3.1249
   18CHL1  H21C 1313   0.393   3.162   5.211 -2.0389 -0.3664 -0.7669
   18CHL1   C22 1314   0.372   2.905   5.191  0.7572 -0.1976 -0.2912
   18CHL1  H22A 1315   0.387   2.798   5.219 -1.6973  0.0647  2.5745
   18CHL1  H22B 1316   0.265   2.927   5.172  0.4640 -0.7236  0.6393
   18CHL1   C23 1317   0.464   2.944   5.076 -0.0431  0.2235  0.0107
   18CHL1  H23A 1318   0.437   3.044   5.037 -0.4944 -0.3964 -1.3485
   18CHL1  H23B 1319   0.564   2.959   5.121  0.9128 -0.2442 -1.8312
   18CHL1   C24 1320   0.479   2.847   4.954 -0.5877  0.4833 -0.2709
   18CHL1  H24A 1321   0.478   2.746   5.000  1.0201  0.3766 -0.4221
   18CHL1  H24B 1322   0.394   2.854   4.882 -1.6442  1.1756  0.9942
   18CHL1   C25 1323   0.613   2.877   4.874  0.1319 -0.0335 -0.0894
   18CHL1   H25 1324   0.699   2.860   4.942 -0.2201 -3.6512 -0.3499
   18CHL1   C26 1325   0.617   2.781   4.759  0.3917  0.3355 -0.6712
   18CHL1  H26A 1326   0.539   2.801   4.683 -0.8057  0.9949  0.6746
   18CHL1  H26B 1327   0.713   2.779   4.703  0.4440 -1.3919 -0.5683
   18CHL1  H26C 1328   0.601   2.677   4.794 -0.6522  0.9633  0.8161
   18CHL1   C27 1329   0.625   3.023   4.816  0.9371 -0.1130 -0.2388
   18CHL1  H27A 1330   0.630   3.101   4.895  0.1626 -0.4523  0.1526
   18CHL1  H27B 1331   0.715   3.041   4.754 -0.7306 -1.0576 -3.1489
   18CHL1  H27C 1332   0.531   3.045   4.762  0.2641 -0.0368  0.9197
   19CHL1    C3 1333   2.461   4.872   5.832  0.2106 -0.0603  0.2298
   19CHL1    H3 1334   2.358   4.831   5.822 -0.0441  0.8877 -1.4136
   19CHL1    O3 1335   2.493   4.868   5.966 -0.5030  0.7959 -0.9131
   19CHL1   H3' 1336   2.579   4.825   5.971 -1.4923 -1.6045 -2.7362
   19CHL1    C4 1337   2.561   4.792   5.750 -0.7110  0.0696  0.0958
   19CHL1   H4A 1338   2.664   4.832   5.767 -0.0928 -0.1801 -2.5704
   19CHL1   H4B 1339   2.558   4.688   5.789  2.1803 -0.0552  0.2167
   19CHL1    C5 1340   2.551   4.806   5.600 -0.0763 -0.0793  0.0880
   19CHL1    C6 1341   2.550   4.699   5.523  0.4249 -0.1308 -0.0766
   19CHL1    H6 1342   2.573   4.604   5.572  1.0447  0.8408  1.5985
   19CHL1    C7 1343   2.536   4.704   5.370  0.4611  0.5908 -0.5663
   19CHL1   H7A 1344   2.598   4.624   5.324 -0.7774 -0.0082 -1.2494
   19CHL1   H7B 1345   2.438   4.656   5.347  1.5751 -1.2479 -1.7269
   19CHL1    C8 1346   2.563   4.844   5.315  0.2378  0.5464  0.4088
   19CHL1    H8 1347   2.673   4.851   5.304  0.2281  1.7233  0.9346
   19CHL1   C14 1348   2.508   4.850   5.175 -0.3540 -0.3722 -0.6758
   19CHL1   H14 1349   2.400   4.826   5.179 -0.4210 -0.0768 -0.6616
   19CHL1   C15 1350   2.570   4.750   5.073 -0.2073  0.2206  0.2454
   19CHL1  H15A 1351   2.680   4.751   5.088  0.0186 -0.8859 -1.1474
   19CHL1  H15B 1352   2.514   4.655   5.082 -1.1398  0.8910  2.1646
   19CHL1   C16 1353   2.548   4.821   4.932 -0.0453  0.4086  0.1604
   19CHL1  H16A 1354   2.645   4.834   4.881 -1.1101 -0.9639 -2.3913
   19CHL1  H16B 1355   2.484   4.767   4.858  1.2482  1.6854 -1.9807
   19CHL1   C17 1356   2.480   4.956   4.966  0.1924  0.5359 -0.0204
   19CHL1   H17 1357   2.371   4.937   4.974  0.2384 -0.1841 -0.9376
   19CHL1   C13 1358   2.523   4.989   5.106 -0.2913  0.6769  0.2378
   19CHL1   C18 1359   2.670   5.043   5.101 -0.7014  0.4699  0.0070
   19CHL1  H18A 1360   2.673   5.148   5.064 -0.9498  0.0303 -1.3189
   19CHL1  H18B 1361   2.716   5.036   5.202  0.6309 -1.1706 -0.6619
   19CHL1  H18C 1362   2.729   4.984   5.028  0.4909  2.3007 -0.5710
   19CHL1   C12 1363   2.444   5.093   5.191  0.8120  0.0615 -0.4946
   19CHL1  H12A 1364   2.460   5.191   5.143 -1.9388  0.1577 -1.4146
   19CHL1  H12B 1365   2.334   5.079   5.180  0.7088  1.2173 -1.0779
   19CHL1   C11 1366   2.502   5.100   5.332  0.2511 -0.0097 -0.0068
   19CHL1  H11A 1367   2.602   5.148   5.322 -1.2394  3.0578 -1.3735
   19CHL1  H11B 1368   2.449   5.172   5.398 -1.4789 -2.3977  1.3647
   19CHL1    C9 1369   2.504   4.955   5.402  0.3163 -0.4741  0.5867
   19CHL1    H9 1370   2.398   4.921   5.409 -0.0886  0.8482  1.3394
   19CHL1   C10 1371   2.550   4.945   5.549 -0.0833 -0.1456 -0.4944
   19CHL1   C19 1372   2.702   4.988   5.552  0.6606 -0.7636 -0.1690
   19CHL1  H19A 1373   2.772   4.929   5.488  1.7188 -0.3424  0.5625
   19CHL1  H19B 1374   2.716   5.095   5.527  1.1608 -0.5220  1.0678
   19CHL1  H19C 1375   2.754   4.973   5.649  0.0376  1.4889  0.5708
   19CHL1    C1 1376   2.449   5.026   5.636 -0.6512  0.1302  0.3205
   19CHL1   H1A 1377   2.465   5.133   5.611  0.5146  0.2504  1.4647
   19CHL1   H1B 1378   2.342   5.008   5.614 -0.4868  0.3002 -0.6999
   19CHL1    C2 1379   2.454   5.024   5.787  0.9366  0.2207 -0.5500
   19CHL1   H2A 1380   2.377   5.081   5.843  1.6275 -0.8426  1.5776
   19CHL1   H2B 1381   2.549   5.069   5.824 -0.7338  2.8257  0.8385
   19CHL1   C20 1382   2.490   5.079   4.864 -0.0306  0.7026  0.9509
   19CHL1   H20 1383   2.563   5.151   4.907  0.8951 -0.8050  2.0364
   19CHL1   C21 1384   2.349   5.143   4.857  0.0368 -0.0549  1.0127
   19CHL1  H21A 1385   2.343   5.250   4.827 -1.1763 -0.3963 -0.0712
   19CHL1  H21B 1386   2.287   5.118   4.945 -2.2995  0.2663 -0.4539
   19CHL1  H21C 1387   2.298   5.087   4.776  2.6072  0.4935 -1.1322
   19CHL1   C22 1388   2.537   5.038   4.721 -0.1456 -0.0649 -0.4826
   19CHL1  H22A 1389   2.641   5.000   4.723 -0.5737 -1.2592 -0.2110
   19CHL1  H22B 1390   2.467   4.960   4.684 -0.7263  0.1270  0.1905
   19CHL1   C23 1391   2.533   5.153   4.631 -0.7242  0.6931  1.2911
   19CHL1  H23A 1392   2.433   5.199   4.613  0.1247  1.4381 -2.4845
   19CHL1  H23B 1393   2.599   5.231   4.674 -2.1745  1.5456  2.0342
   19CHL1   C24 1394   2.578   5.123   4.485 -0.1976  0.0388  0.0292
   19CHL1  H24A 1395   2.684   5.095   4.470 -0.2441  1.2222 -3.3966
   19CHL1  H24B 1396   2.523   5.037   4.442  2.9509 -1.8795 -0.4042
   19CHL1   C25 1397   2.556   5.249   4.396  0.3257  0.5455 -0.1556
   19CHL1   H25 1398   2.587   5.339   4.453 -1.9928  2.5978 -1.9098
   19CHL1   C26 1399   2.648   5.240   4.268 -0.6871  0.1561  0.4237
   19CHL1  H26A 1400   2.751   5.238   4.309 -0.6821  0.0038  0.4044
   19CHL1  H26B 1401   2.638   5.148   4.206 -2.0709  1.3750 -1.2755
   19CHL1  H26C 1402   2.631   5.333   4.210  0.5740  1.1126  1.5188
   19CHL1   C27 1403   2.410   5.290   4.369 -0.0145 -0.0898  0.3386
   19CHL1  H27A 1404   2.359   5.205   4.320  2.2101  0.0523 -2.5090
   19CHL1  H27B 1405   2.365   5.327   4.463  0.4802  0.9382  0.1836
   19CHL1  H27C 1406   2.400   5.366   4.289 -3.8293 -2.2768 -1.5291
   20CHL1    C3 1407   5.242   2.811   5.854 -0.0298  0.4695 -0.3178
   20CHL1    H3 1408   5.185   2.717   5.843 -0.1847  0.5659 -0.3327
   20CHL1    O3 1409   5.273   2.823   5.993  0.0799  0.1409  0.1536
   20CHL1   H3' 1410   5.284   2.918   5.998 -1.1852  0.3674 -0.7212
   20CHL1    C4 1411   5.377   2.794   5.785 -0.5297  0.3662 -0.2988
   20CHL1   H4A 1412   5.446   2.878   5.805  0.1724  0.4494 -2.7290
   20CHL1   H4B 1413   5.428   2.699   5.814  1.5309  0.8428 -2.0912
   20CHL1    C5 1414   5.360   2.787   5.638 -0.3856 -0.1312  0.5471
   20CHL1    C6 1415   5.403   2.675   5.570  0.4972  0.1260 -0.7748
   20CHL1    H6 1416   5.440   2.588   5.625 -2.1998  0.9229  2.7134
   20CHL1    C7 1417   5.372   2.651   5.428 -0.0730  1.0268 -0.0544
   20CHL1   H7A 1418   5.451   2.588   5.383 -1.5561 -2.6225  1.9406
   20CHL1   H7B 1419   5.278   2.597   5.403  0.6090 -1.5874  2.5196
   20CHL1    C8 1420   5.367   2.787   5.350 -0.2316  0.5125 -0.1925
   20CHL1    H8 1421   5.467   2.833   5.365 -0.3650  0.1110  2.5326
   20CHL1   C14 1422   5.345   2.767   5.204 -0.1333  0.3586 -0.2066
   20CHL1   H14 1423   5.237   2.740   5.200 -0.3787  1.3408 -0.5863
   20CHL1   C15 1424   5.424   2.663   5.125  0.3670 -0.3916  0.2537
   20CHL1  H15A 1425   5.533   2.679   5.143  0.7932 -0.6555 -1.8306
   20CHL1  H15B 1426   5.398   2.555   5.136 -0.7523 -0.1928 -0.3611
   20CHL1   C16 1427   5.403   2.718   4.979  0.3342 -0.4527 -0.0848
   20CHL1  H16A 1428   5.504   2.725   4.935 -0.0569  1.3436 -0.7607
   20CHL1  H16B 1429   5.348   2.648   4.913  1.1943 -2.0567  0.8427
   20CHL1   C17 1430   5.339   2.861   4.990  0.3254 -0.8403 -0.7055
   20CHL1   H17 1431   5.233   2.830   4.978  1.3322 -4.0556 -2.7943
   20CHL1   C13 1432   5.354   2.902   5.129 -0.1035  0.0841 -1.0327
   20CHL1   C18 1433   5.494   2.968   5.140 -0.1380  0.3691 -0.1831
   20CHL1  H18A 1434   5.569   2.902   5.090  1.1831  1.6454  0.0424
   20CHL1  H18B 1435   5.485   3.062   5.082  0.3494 -0.3282 -1.4129
   20CHL1  H18C 1436   5.526   2.995   5.243  1.6820 -0.8955 -0.3660
   20CHL1   C12 1437   5.243   2.989   5.182 -0.0150  0.0060  0.7275
   20CHL1  H12A 1438   5.232   3.086   5.129 -0.1574 -0.0057  0.7352
   20CHL1  H12B 1439   5.141   2.951   5.160  0.9203 -1.7282 -0.7962
   20CHL1   C11 1440   5.262   3.014   5.333  0.2204  0.1116 -0.5724
   20CHL1  H11A 1441   5.345   3.084   5.354  0.2088 -0.5422  2.0998
   20CHL1  H11B 1442   5.176   3.066   5.381  0.0582 -0.2403 -0.4793
   20CHL1    C9 1443   5.264   2.878   5.417 -0.5628 -0.2264 -0.3351
   20CHL1    H9 1444   5.162   2.838   5.398 -0.8526  1.0808 -1.8030
   20CHL1   C10 1445   5.290   2.907   5.569 -0.5969  0.4948 -0.0973
   20CHL1   C19 1446   5.393   3.024   5.583  0.1687 -0.4859  0.1632
   20CHL1  H19A 1447   5.431   3.046   5.685 -1.7012  2.5538  0.3324
   20CHL1  H19B 1448   5.477   3.010   5.512  1.9891  2.0511  1.6458
   20CHL1  H19C 1449   5.336   3.113   5.550  1.3371 -0.3886 -1.7151
   20CHL1    C1 1450   5.153   2.941   5.646  0.4059 -0.0958  0.6671
   20CHL1   H1A 1451   5.120   3.042   5.614 -0.1935 -0.9404 -1.4883
   20CHL1   H1B 1452   5.082   2.861   5.618  1.8814 -0.8613 -1.0846
   20CHL1    C2 1453   5.169   2.934   5.799 -0.3341  0.1693 -0.0991
   20CHL1   H2A 1454   5.068   2.935   5.846  0.0543 -0.7761  0.8029
   20CHL1   H2B 1455   5.225   3.026   5.828  1.6747 -1.2429  0.6713
   20CHL1   C20 1456   5.378   2.943   4.869  0.1417 -0.0356 -0.5961
   20CHL1   H20 1457   5.486   2.966   4.862 -0.2216  1.8913 -0.4272
   20CHL1   C21 1458   5.292   3.072   4.874 -0.2296  0.4354 -0.9289
   20CHL1  H21A 1459   5.320   3.138   4.959 -1.6969 -0.3183  0.1936
   20CHL1  H21B 1460   5.188   3.034   4.883 -0.5192  0.1920 -4.0809
   20CHL1  H21C 1461   5.284   3.125   4.777  0.4156  2.5979  0.1348
   20CHL1   C22 1462   5.361   2.863   4.736 -0.2881  0.0019  0.2462
   20CHL1  H22A 1463   5.436   2.782   4.732 -0.5803 -0.2743  0.2981
   20CHL1  H22B 1464   5.258   2.822   4.748 -0.1840  0.4438  3.5264
   20CHL1   C23 1465   5.392   2.946   4.601  0.3973  0.2219 -0.7452
   20CHL1  H23A 1466   5.298   2.995   4.568  1.0582  0.3533 -2.5228
   20CHL1  H23B 1467   5.459   3.030   4.630 -0.6556  0.7837  0.1438
   20CHL1   C24 1468   5.442   2.858   4.488  0.4598  0.4226 -0.4935
   20CHL1  H24A 1469   5.538   2.810   4.519  0.1458 -1.1431 -1.8000
   20CHL1  H24B 1470   5.380   2.769   4.465 -1.0213  1.3967 -0.3669
   20CHL1   C25 1471   5.465   2.934   4.358 -0.0607 -0.2744  0.0591
   20CHL1   H25 1472   5.366   2.980   4.337 -0.2640 -0.1971  1.1302
   20CHL1   C26 1473   5.580   3.045   4.378  0.1395  0.3455 -0.7087
   20CHL1  H26A 1474   5.670   2.990   4.411  0.3970  0.3964 -1.3131
   20CHL1  H26B 1475   5.595   3.094   4.279  2.0331  1.9792  0.3178
   20CHL1  H26C 1476   5.541   3.127   4.443 -1.0987 -0.3892 -0.4990
   20CHL1   C27 1477   5.500   2.844   4.251 -0.0547  0.4381  0.1576
   20CHL1  H27A 1478   5.600   2.797   4.265  0.0097  0.8960  1.2783
   20CHL1  H27B 1479   5.424   2.769   4.220  0.2559  0.8539 -1.7631
   20CHL1  H27C 1480   5.522   2.906   4.162  0.5463 -1.3592 -1.0091
   21CHL1    C3 1481   2.590   3.123   5.831 -0.0010  1.0289  0.2315
   21CHL1    H3 1482   2.487   3.092   5.801  0.6229 -1.4889  0.4769
   21CHL1    O3 1483   2.598   3.091   5.971 -0.2024 -0.7983  0.3722
   21CHL1   H3' 1484   2.690   3.115   5.983  0.0349 -0.0520 -2.2778
   21CHL1    C4 1485   2.677   3.033   5.740 -0.0860  0.2189 -0.1672
   21CHL1   H4A 1486   2.782   3.044   5.777  0.0594 -0.6584 -0.2860
   21CHL1   H4B 1487   2.662   2.924   5.757  0.2315 -0.0118 -1.2835
   21CHL1    C5 1488   2.666   3.070   5.592 -0.2756  0.6029 -0.8139
   21CHL1    C6 1489   2.622   2.973   5.510  0.0475 -0.1706  0.7080
   21CHL1    H6 1490   2.603   2.869   5.541 -0.3824 -0.7930 -1.4631
   21CHL1    C7 1491   2.621   3.002   5.356  0.0039  0.0007 -0.8543
   21CHL1   H7A 1492   2.674   2.928   5.292  1.7406  1.8211 -1.6295
   21CHL1   H7B 1493   2.517   3.013   5.320 -0.5787  0.5007  0.8685
   21CHL1    C8 1494   2.679   3.142   5.313 -0.2977 -0.3314  0.3109
   21CHL1    H8 1495   2.790   3.135   5.310 -0.1836  1.1247 -2.1033
   21CHL1   C14 1496   2.629   3.184   5.169  0.2297  0.4072 -0.2156
   21CHL1   H14 1497   2.525   3.208   5.200  0.7168  1.4290  0.6714
   21CHL1   C15 1498   2.634   3.077   5.052  0.4756  0.1589 -0.1816
   21CHL1  H15A 1499   2.729   3.019   5.054 -0.5368 -1.7622  4.6249
   21CHL1  H15B 1500   2.554   3.001   5.058 -1.5510  2.2336  0.4342
   21CHL1   C16 1501   2.613   3.165   4.932  0.0517 -0.1720  0.1147
   21CHL1  H16A 1502   2.702   3.152   4.867 -0.8231  1.8604 -1.6189
   21CHL1  H16B 1503   2.522   3.140   4.873  0.4247 -3.0746  0.6648
   21CHL1   C17 1504   2.608   3.320   4.969  0.5511 -0.2737 -0.4431
   21CHL1   H17 1505   2.504   3.356   4.987  0.7907 -0.2178  0.9598
   21CHL1   C13 1506   2.674   3.319   5.107  0.6420  0.6617 -0.9100
   21CHL1   C18 1507   2.828   3.302   5.087  0.8774  0.6894 -0.4585
   21CHL1  H18A 1508   2.859   3.217   5.022 -1.8140 -0.3234 -0.5574
   21CHL1  H18B 1509   2.871   3.391   5.036  1.4031  0.9240  0.3801
   21CHL1  H18C 1510   2.879   3.299   5.186 -3.3102  2.6825  2.0699
   21CHL1   C12 1511   2.643   3.424   5.217  0.3885 -0.4065  0.0147
   21CHL1  H12A 1512   2.683   3.523   5.187  1.7256  0.0500  2.9216
   21CHL1  H12B 1513   2.532   3.431   5.221  0.3133  0.9873 -2.5260
   21CHL1   C11 1514   2.691   3.388   5.359 -0.4422  0.2561  0.5017
   21CHL1  H11A 1515   2.802   3.393   5.355 -0.5114  1.6054 -1.3252
   21CHL1  H11B 1516   2.656   3.470   5.425 -1.2718 -2.1003  3.1774
   21CHL1    C9 1517   2.641   3.249   5.418 -0.2576 -0.1489  0.4466
   21CHL1    H9 1518   2.531   3.257   5.420 -0.3640 -1.4821  1.6801
   21CHL1   C10 1519   2.690   3.218   5.557  0.9178 -0.0606 -0.0062
   21CHL1   C19 1520   2.840   3.237   5.567  0.2065  0.3054 -0.1271
   21CHL1  H19A 1521   2.885   3.166   5.495 -0.9457  1.2456 -1.8683
   21CHL1  H19B 1522   2.867   3.343   5.544  0.7012  0.6445  1.8186
   21CHL1  H19C 1523   2.880   3.217   5.669 -2.9230 -1.2553  0.9391
   21CHL1    C1 1524   2.610   3.310   5.662 -0.3049 -0.0525  0.8991
   21CHL1   H1A 1525   2.631   3.419   5.654 -3.0930  0.5244  0.5710
   21CHL1   H1B 1526   2.500   3.305   5.645 -0.4028 -0.3611  1.5837
   21CHL1    C2 1527   2.619   3.275   5.812  0.2177  0.1895 -0.0668
   21CHL1   H2A 1528   2.553   3.338   5.876  0.2976 -0.4964  0.7174
   21CHL1   H2B 1529   2.721   3.286   5.855  0.5262 -2.6602  0.0765
   21CHL1   C20 1530   2.676   3.414   4.867 -0.8322  0.0013 -0.2701
   21CHL1   H20 1531   2.783   3.390   4.853 -0.6934  0.1278  0.5145
   21CHL1   C21 1532   2.683   3.561   4.913 -0.5044 -0.0305 -0.0990
   21CHL1  H21A 1533   2.751   3.570   5.000 -0.9066  0.5599  0.1633
   21CHL1  H21B 1534   2.579   3.586   4.945  0.2864  2.2072  0.9792
   21CHL1  H21C 1535   2.725   3.642   4.849 -1.0535  0.5764  0.2915
   21CHL1   C22 1536   2.618   3.405   4.727  0.1537 -0.1306  0.9298
   21CHL1  H22A 1537   2.621   3.301   4.687 -1.7242 -0.3463  1.2148
   21CHL1  H22B 1538   2.511   3.434   4.733 -0.1411 -0.6117 -1.0891
   21CHL1   C23 1539   2.675   3.503   4.613  0.0668 -0.7612 -0.3934
   21CHL1  H23A 1540   2.674   3.608   4.650 -0.7634 -1.0466  0.4246
   21CHL1  H23B 1541   2.778   3.473   4.584 -0.3216 -1.1499 -1.4217
   21CHL1   C24 1542   2.586   3.499   4.485 -0.2038 -0.0523 -0.1019
   21CHL1  H24A 1543   2.591   3.393   4.450  1.3498 -1.0989  2.8998
   21CHL1  H24B 1544   2.480   3.484   4.513 -0.5861 -0.1865 -1.5153
   21CHL1   C25 1545   2.598   3.615   4.379  0.1051  0.1865  0.5184
   21CHL1   H25 1546   2.701   3.628   4.338 -0.5408  1.2916 -0.8045
   21CHL1   C26 1547   2.503   3.603   4.261  0.7887 -0.2433  0.1787
   21CHL1  H26A 1548   2.399   3.588   4.296  0.9348  0.7147  1.0722
   21CHL1  H26B 1549   2.501   3.685   4.187 -0.6693 -0.7759 -0.3992
   21CHL1  H26C 1550   2.524   3.509   4.204  1.3572  0.3709 -0.6479
   21CHL1   C27 1551   2.578   3.745   4.447 -0.8539  0.2068  0.4389
   21CHL1  H27A 1552   2.664   3.778   4.511  0.9479 -0.8230 -1.3263
   21CHL1  H27B 1553   2.558   3.823   4.371 -1.0883 -0.1274  0.1568
   21CHL1  H27C 1554   2.490   3.742   4.515  1.2484  0.7596  3.4071
   22CHL1    C3 1555   6.755   5.482   6.270  0.4049 -0.6206  0.3681
   22CHL1    H3 1556   6.689   5.570   6.272 -0.2745 -1.0832 -0.8807
   22CHL1    O3 1557   6.790   5.468   6.402 -0.2154  1.0713  0.1675
   22CHL1   H3' 1558   6.822   5.377   6.398 -1.6092  0.5814 -0.3148
   22CHL1    C4 1559   6.684   5.354   6.213  0.4263  0.5902  0.5132
   22CHL1   H4A 1560   6.749   5.265   6.229 -0.4439 -0.0961  0.2839
   22CHL1   H4B 1561   6.590   5.338   6.269  1.0201 -1.0339  1.1118
   22CHL1    C5 1562   6.649   5.378   6.062  0.1802 -0.1237 -1.1872
   22CHL1    C6 1563   6.521   5.364   6.016 -0.1315  0.3783  0.0920
   22CHL1    H6 1564   6.436   5.353   6.085 -1.7779  1.7419 -1.6085
   22CHL1    C7 1565   6.480   5.371   5.870 -0.8447  0.7857  0.7487
   22CHL1   H7A 1566   6.408   5.294   5.834 -0.7011  0.9268  0.1536
   22CHL1   H7B 1567   6.430   5.466   5.844 -0.1116  0.8414 -0.5535
   22CHL1    C8 1568   6.602   5.355   5.775  0.4679  0.6492 -0.3424
   22CHL1    H8 1569   6.630   5.247   5.770 -0.6284  0.4048 -3.2115
   22CHL1   C14 1570   6.567   5.400   5.635 -0.1072 -0.1294 -0.2075
   22CHL1   H14 1571   6.544   5.508   5.643 -0.9458 -0.2139 -1.2491
   22CHL1   C15 1572   6.437   5.338   5.575 -0.3211  0.2246  0.0194
   22CHL1  H15A 1573   6.431   5.239   5.624 -1.4843  0.8635  1.2115
   22CHL1  H15B 1574   6.357   5.405   5.613 -0.8980  1.9846 -3.7450
   22CHL1   C16 1575   6.449   5.370   5.428 -0.1372  0.9186  0.2013
   22CHL1  H16A 1576   6.433   5.276   5.370  0.1484  0.5789  0.6664
   22CHL1  H16B 1577   6.382   5.459   5.424 -0.0352  1.0481  1.1757
   22CHL1   C17 1578   6.598   5.417   5.403 -1.0136  1.0167 -0.2042
   22CHL1   H17 1579   6.606   5.528   5.401 -0.2451  0.9968  0.8929
   22CHL1   C13 1580   6.678   5.388   5.535  0.0062 -0.4642  0.7235
   22CHL1   C18 1581   6.716   5.233   5.528  0.5881  0.3109  0.6180
   22CHL1  H18A 1582   6.757   5.204   5.627 -0.3003  0.1778  0.9567
   22CHL1  H18B 1583   6.630   5.167   5.506 -0.1152  1.3309  0.2387
   22CHL1  H18C 1584   6.803   5.220   5.460  2.2618 -0.4336  2.7474
   22CHL1   C12 1585   6.791   5.482   5.575  0.2108  0.2375  0.3987
   22CHL1  H12A 1586   6.883   5.468   5.515 -0.9257 -3.1410 -0.7813
   22CHL1  H12B 1587   6.757   5.588   5.581 -1.5444 -0.3226  0.9065
   22CHL1   C11 1588   6.837   5.461   5.720  0.1033 -0.3834  0.6557
   22CHL1  H11A 1589   6.897   5.368   5.724  0.0223 -0.4226  0.9948
   22CHL1  H11B 1590   6.908   5.543   5.745  0.7588 -0.1625 -1.7426
   22CHL1    C9 1591   6.712   5.443   5.825  0.0994 -0.1458  0.6868
   22CHL1    H9 1592   6.669   5.546   5.827 -3.5077 -1.4556 -0.3918
   22CHL1   C10 1593   6.758   5.408   5.965  0.5443 -0.1252 -0.0150
   22CHL1   C19 1594   6.855   5.287   5.967 -0.6088 -0.2336 -0.3006
   22CHL1  H19A 1595   6.891   5.255   6.067  3.1074 -1.0950 -1.7465
   22CHL1  H19B 1596   6.796   5.200   5.932 -0.1872 -0.9220  0.6482
   22CHL1  H19C 1597   6.945   5.291   5.902 -0.1424  1.2730  0.3948
   22CHL1    C1 1598   6.837   5.533   6.029 -0.2608 -0.4422  0.1939
   22CHL1   H1A 1599   6.917   5.563   5.959 -2.8446  0.3057 -2.6454
   22CHL1   H1B 1600   6.763   5.614   6.043 -1.9973 -2.0529  0.8430
   22CHL1    C2 1601   6.878   5.514   6.181 -0.4811 -0.8405  0.3417
   22CHL1   H2A 1602   6.919   5.608   6.222  1.5005 -1.9300  1.0047
   22CHL1   H2B 1603   6.961   5.441   6.195 -0.0160 -0.8272 -1.9517
   22CHL1   C20 1604   6.664   5.379   5.263 -0.0191 -1.1330 -0.6568
   22CHL1   H20 1605   6.674   5.268   5.269  1.9440 -0.8912  1.9267
   22CHL1   C21 1606   6.807   5.439   5.245 -0.3441 -0.5288  0.8863
   22CHL1  H21A 1607   6.840   5.404   5.144 -1.4733 -2.4133  1.1218
   22CHL1  H21B 1608   6.879   5.391   5.316 -0.9075 -0.6980  1.3469
   22CHL1  H21C 1609   6.798   5.549   5.257 -0.5516 -0.5293  0.7363
   22CHL1   C22 1610   6.576   5.423   5.142  0.5852  0.6665 -1.2510
   22CHL1  H22A 1611   6.473   5.392   5.171  1.2297  0.6767  1.3364
   22CHL1  H22B 1612   6.558   5.532   5.133  0.8220  0.7865 -0.3817
   22CHL1   C23 1613   6.601   5.352   5.011  0.4190 -0.0993  0.2728
   22CHL1  H23A 1614   6.709   5.358   4.987  0.0400  2.4379 -1.0805
   22CHL1  H23B 1615   6.571   5.245   5.016 -2.2823  0.4493 -1.5635
   22CHL1   C24 1616   6.524   5.413   4.895  0.1244 -0.4650  0.1096
   22CHL1  H24A 1617   6.420   5.423   4.934  0.6718  0.8256  1.2895
   22CHL1  H24B 1618   6.558   5.514   4.867  0.2554 -0.8218 -1.0692
   22CHL1   C25 1619   6.531   5.329   4.766 -0.1933  0.0650 -0.1755
   22CHL1   H25 1620   6.540   5.222   4.795  3.0207  0.6302  1.4411
   22CHL1   C26 1621   6.393   5.338   4.690 -0.4025 -0.2226  0.2122
   22CHL1  H26A 1622   6.322   5.269   4.740 -1.2524  0.9600  0.6763
   22CHL1  H26B 1623   6.344   5.436   4.674 -0.9108 -0.4645  0.2820
   22CHL1  H26C 1624   6.406   5.286   4.592 -0.1656 -1.0894  0.6903
   22CHL1   C27 1625   6.652   5.371   4.679  0.4271 -0.1688  0.4313
   22CHL1  H27A 1626   6.663   5.306   4.590 -2.2066 -0.1454  0.0132
   22CHL1  H27B 1627   6.643   5.478   4.650  2.1128 -0.1471 -0.1299
   22CHL1  H27C 1628   6.744   5.356   4.740 -0.3212 -0.3529  1.5518
   23CHL1    C3 1629   5.210   4.015   5.971  0.7892 -0.5070  0.0200
   23CHL1    H3 1630   5.266   4.110   5.969 -2.1224  1.3325 -0.7222
   23CHL1    O3 1631   5.218   3.978   6.106 -0.1540 -0.4088 -0.4471
   23CHL1   H3' 1632   5.130   3.942   6.122  0.0135 -1.1715 -1.1573
   23CHL1    C4 1633   5.063   4.061   5.945 -0.0686  0.5910  0.0002
   23CHL1   H4A 1634   4.998   3.974   5.970  0.2396 -0.2743 -2.0677
   23CHL1   H4B 1635   5.043   4.135   6.025  2.6056  0.4795  0.8799
   23CHL1    C5 1636   5.044   4.115   5.803 -0.1113 -0.1484 -0.3167
   23CHL1    C6 1637   4.992   4.240   5.770 -0.0970  0.4033 -0.8177
   23CHL1    H6 1638   4.969   4.314   5.848  1.0664  0.3823 -0.4325
   23CHL1    C7 1639   4.959   4.289   5.629 -0.1759 -0.5273 -0.5283
   23CHL1   H7A 1640   4.858   4.333   5.626 -1.1331 -2.5608  0.3589
   23CHL1   H7B 1641   5.041   4.351   5.587 -0.3810  0.0158 -0.1346
   23CHL1    C8 1642   4.951   4.167   5.531  0.1234 -0.8624  0.0227
   23CHL1    H8 1643   4.857   4.115   5.557 -0.6926  1.0342  1.0812
   23CHL1   C14 1644   4.938   4.225   5.394 -0.3764  0.2990  0.0272
   23CHL1   H14 1645   5.023   4.294   5.373 -1.2219  1.9003  1.5848
   23CHL1   C15 1646   4.816   4.301   5.363  0.1140 -0.1179  0.3591
   23CHL1  H15A 1647   4.739   4.248   5.423  0.9444 -0.4391  1.1580
   23CHL1  H15B 1648   4.832   4.404   5.402 -3.0915  0.9564 -0.7850
   23CHL1   C16 1649   4.802   4.301   5.210  0.1843  0.9914  0.0686
   23CHL1  H16A 1650   4.704   4.257   5.185  0.4666  1.5582 -2.3499
   23CHL1  H16B 1651   4.803   4.402   5.163  0.5779  0.6243 -0.7488
   23CHL1   C17 1652   4.915   4.200   5.162 -0.5260 -0.7134 -0.2228
   23CHL1   H17 1653   5.001   4.270   5.152 -1.2664  0.0216 -1.7509
   23CHL1   C13 1654   4.943   4.114   5.286 -0.2424  0.3716 -0.2656
   23CHL1   C18 1655   4.835   4.009   5.308  0.3903 -0.4202 -0.2323
   23CHL1  H18A 1656   4.837   3.954   5.405 -0.3248  0.6529  0.4010
   23CHL1  H18B 1657   4.729   4.037   5.293 -0.3464 -1.1256  2.9218
   23CHL1  H18C 1658   4.855   3.930   5.232 -1.1158  0.7740 -1.9254
   23CHL1   C12 1659   5.085   4.046   5.297  0.0424  0.1950 -0.3539
   23CHL1  H12A 1660   5.080   3.953   5.236  1.0598  0.2332 -0.5301
   23CHL1  H12B 1661   5.169   4.110   5.261  0.3205 -0.4995 -0.9771
   23CHL1   C11 1662   5.109   3.987   5.437  0.4672 -0.4446  0.0714
   23CHL1  H11A 1663   5.027   3.913   5.441 -1.1685  1.2230 -1.0425
   23CHL1  H11B 1664   5.206   3.933   5.444 -0.2075 -1.5302  1.7562
   23CHL1    C9 1665   5.077   4.090   5.548 -0.8345  0.2942 -1.0522
   23CHL1    H9 1666   5.161   4.160   5.533 -0.5268 -0.0469 -0.9441
   23CHL1   C10 1667   5.077   4.017   5.688  0.1938  0.1227  0.1706
   23CHL1   C19 1668   4.962   3.904   5.702 -0.7756 -0.2980 -0.2668
   23CHL1  H19A 1669   4.973   3.828   5.622  0.8383 -0.1467 -0.2114
   23CHL1  H19B 1670   4.981   3.862   5.803 -0.4940  0.6830  0.0965
   23CHL1  H19C 1671   4.860   3.949   5.701 -0.1933  1.0916  0.5837
   23CHL1    C1 1672   5.214   3.953   5.719 -0.2828  0.5292 -0.4460
   23CHL1   H1A 1673   5.228   3.864   5.654  2.9567  1.3204 -1.0102
   23CHL1   H1B 1674   5.296   4.024   5.693  1.1817 -0.7801  0.4221
   23CHL1    C2 1675   5.245   3.906   5.868 -0.0865 -0.3398 -0.5274
   23CHL1   H2A 1676   5.354   3.885   5.873  0.0888  0.2219 -1.6036
   23CHL1   H2B 1677   5.192   3.810   5.886 -0.5601  0.1601  0.8558
   23CHL1   C20 1678   4.895   4.133   5.031  0.6469 -0.3528 -0.3351
   23CHL1   H20 1679   4.825   4.049   5.051  0.9406 -1.0062 -1.9563
   23CHL1   C21 1680   5.036   4.077   4.986  0.4401 -0.2976  0.1191
   23CHL1  H21A 1681   5.055   3.975   5.026  0.2624 -0.7668 -0.9631
   23CHL1  H21B 1682   5.114   4.148   5.020  0.0489  0.4040 -0.4130
   23CHL1  H21C 1683   5.037   4.068   4.876 -1.2440  0.4754 -0.0015
   23CHL1   C22 1684   4.823   4.215   4.927  0.3987  0.3203 -0.0250
   23CHL1  H22A 1685   4.727   4.253   4.968 -0.5526  0.1207 -1.9604
   23CHL1  H22B 1686   4.879   4.300   4.882 -0.6673  1.4667  0.7308
   23CHL1   C23 1687   4.768   4.122   4.812  0.2943 -0.3141 -0.4340
   23CHL1  H23A 1688   4.854   4.082   4.754 -0.6456  0.9723 -2.8812
   23CHL1  H23B 1689   4.719   4.036   4.862  0.4315  0.5640  1.2823
   23CHL1   C24 1690   4.674   4.190   4.710  0.8672 -0.8152  0.3098
   23CHL1  H24A 1691   4.569   4.191   4.745  0.0056  0.4339 -2.0950
   23CHL1  H24B 1692   4.714   4.293   4.695 -0.7028 -0.1866  0.2916
   23CHL1   C25 1693   4.683   4.107   4.578  0.5247 -0.2664  0.3193
   23CHL1   H25 1694   4.785   4.067   4.562  0.8926  0.2060  1.3936
   23CHL1   C26 1695   4.584   3.987   4.584  0.8748  0.1236  0.5980
   23CHL1  H26A 1696   4.580   3.927   4.491 -0.1770  0.8921  0.1239
   23CHL1  H26B 1697   4.597   3.927   4.676 -0.2538  0.6610  1.1372
   23CHL1  H26C 1698   4.479   4.023   4.586  0.8316  0.0614 -0.0864
   23CHL1   C27 1699   4.652   4.207   4.463  0.0183 -0.2158  0.2035
   23CHL1  H27A 1700   4.667   4.158   4.365 -0.2092  0.5932 -0.2366
   23CHL1  H27B 1701   4.546   4.239   4.469 -0.0007 -0.5327  2.3699
   23CHL1  H27C 1702   4.717   4.296   4.454  0.9848 -0.9506 -0.2695
   24CHL1    C3 1703   5.255   1.021   6.153 -0.3586 -0.1831  0.2483
   24CHL1    H3 1704   5.195   0.927   6.153 -0.7507  0.0650  0.7737
   24CHL1    O3 1705   5.300   1.056   6.282  0.3103  0.0132  0.2588
   24CHL1   H3' 1706   5.333   0.974   6.320 -1.4670 -0.6780  0.3903
   24CHL1    C4 1707   5.382   0.993   6.068  0.2106 -0.2181  0.2740
   24CHL1   H4A 1708   5.446   1.081   6.090 -0.7463  0.0188  2.3278
   24CHL1   H4B 1709   5.430   0.902   6.110  0.9087 -0.7141 -1.4777
   24CHL1    C5 1710   5.346   0.962   5.922  0.0888  0.0677 -0.4972
   24CHL1    C6 1711   5.380   0.845   5.867 -0.5030 -0.2217  0.1010
   24CHL1    H6 1712   5.421   0.762   5.926 -3.1256 -1.1778  0.6735
   24CHL1    C7 1713   5.352   0.818   5.722 -0.2863 -0.7934  0.3306
   24CHL1   H7A 1714   5.428   0.750   5.677 -0.2281  0.9366 -2.4493
   24CHL1   H7B 1715   5.261   0.755   5.714 -1.6362  0.9747  1.1453
   24CHL1    C8 1716   5.329   0.941   5.636 -0.0347 -0.6097  0.0450
   24CHL1    H8 1717   5.419   1.003   5.616 -0.3063  0.1074  0.9549
   24CHL1   C14 1718   5.271   0.905   5.503 -0.2047 -0.5156 -0.0069
   24CHL1   H14 1719   5.181   0.842   5.519 -0.9512  0.7268  0.7790
   24CHL1   C15 1720   5.363   0.817   5.412  0.4762  0.1462  0.4469
   24CHL1  H15A 1721   5.465   0.859   5.425  0.0354  1.5845 -0.4440
   24CHL1  H15B 1722   5.349   0.713   5.448 -1.0677  0.5620  1.1112
   24CHL1   C16 1723   5.298   0.834   5.272  1.3815 -0.6915 -0.1589
   24CHL1  H16A 1724   5.374   0.863   5.196  0.2821  0.0369 -1.0035
   24CHL1  H16B 1725   5.238   0.748   5.236  1.2021 -1.9935  2.9033
   24CHL1   C17 1726   5.199   0.956   5.292  0.6817 -0.1891 -0.0346
   24CHL1   H17 1727   5.109   0.898   5.320  0.3215  0.3543 -0.0542
   24CHL1   C13 1728   5.237   1.030   5.417 -0.0386  0.6583 -0.6894
   24CHL1   C18 1729   5.359   1.120   5.382 -0.5187  0.1018  0.5256
   24CHL1  H18A 1730   5.345   1.217   5.331  0.2831 -0.6185 -1.1431
   24CHL1  H18B 1731   5.419   1.072   5.302 -0.1518  2.1642 -0.4813
   24CHL1  H18C 1732   5.429   1.138   5.467 -0.7043 -0.2511  0.7607
   24CHL1   C12 1733   5.123   1.105   5.498 -0.4831 -0.2533  0.0359
   24CHL1  H12A 1734   5.078   1.181   5.430 -0.5826 -1.7408 -1.6297
   24CHL1  H12B 1735   5.053   1.021   5.518 -1.0535  0.4846  1.2328
   24CHL1   C11 1736   5.177   1.152   5.628  0.4095 -0.3012  0.0556
   24CHL1  H11A 1737   5.255   1.223   5.595 -0.3839  0.1658 -0.8834
   24CHL1  H11B 1738   5.099   1.212   5.680 -2.0825 -1.8892 -1.6192
   24CHL1    C9 1739   5.227   1.035   5.713 -0.3147 -0.2785 -0.2121
   24CHL1    H9 1740   5.140   0.967   5.730 -0.2854  0.0223  1.2960
   24CHL1   C10 1741   5.279   1.078   5.854  0.2028 -0.4302  0.0537
   24CHL1   C19 1742   5.379   1.198   5.839  0.3807 -0.5781 -0.2949
   24CHL1  H19A 1743   5.415   1.241   5.935 -0.8783  1.7703 -0.8019
   24CHL1  H19B 1744   5.464   1.171   5.773  1.7975  1.3141  0.6629
   24CHL1  H19C 1745   5.322   1.277   5.787  0.5426 -0.4954 -0.3462
   24CHL1    C1 1746   5.159   1.122   5.939 -0.1429  0.4098 -0.0048
   24CHL1   H1A 1747   5.120   1.220   5.905  1.0375  0.9511  0.1458
   24CHL1   H1B 1748   5.089   1.036   5.932 -1.7446  0.7281  6.1954
   24CHL1    C2 1749   5.180   1.143   6.090  0.0721 -0.5080 -0.3483
   24CHL1   H2A 1750   5.075   1.144   6.126  0.4927 -0.9025  0.9265
   24CHL1   H2B 1751   5.238   1.235   6.109  0.1769 -0.8993  1.4064
   24CHL1   C20 1752   5.167   1.026   5.163  0.2588 -0.5672  0.2719
   24CHL1   H20 1753   5.250   1.090   5.125  0.0152 -1.3984 -1.7602
   24CHL1   C21 1754   5.049   1.132   5.183  0.0944  0.2859  0.4472
   24CHL1  H21A 1755   5.094   1.219   5.236  0.5749 -1.0054  2.2725
   24CHL1  H21B 1756   4.970   1.082   5.243  1.0114  0.4729  1.8541
   24CHL1  H21C 1757   4.995   1.161   5.091 -2.0687  0.6987  1.7840
   24CHL1   C22 1758   5.131   0.919   5.054 -0.0253 -0.6316 -0.1119
   24CHL1  H22A 1759   5.217   0.850   5.041  0.1947 -0.3710 -0.0296
   24CHL1  H22B 1760   5.046   0.854   5.085 -0.3378 -0.1060  0.1434
   24CHL1   C23 1761   5.096   0.978   4.913 -0.0748  0.0016 -0.0045
   24CHL1  H23A 1762   5.002   1.037   4.903 -1.4441 -1.8244  1.3883
   24CHL1  H23B 1763   5.181   1.039   4.877 -1.8637  1.0216 -2.8382
   24CHL1   C24 1764   5.098   0.869   4.803 -0.1108 -0.2417 -0.5749
   24CHL1  H24A 1765   5.187   0.804   4.816  0.6586  0.9002 -0.0407
   24CHL1  H24B 1766   5.007   0.810   4.828 -1.4416  2.5331  1.6840
   24CHL1   C25 1767   5.095   0.923   4.661 -0.1914 -0.0176 -0.2756
   24CHL1   H25 1768   5.178   0.997   4.650 -0.3643  0.4726  1.4689
   24CHL1   C26 1769   5.136   0.814   4.564 -0.2733  0.3653  0.2871
   24CHL1  H26A 1770   5.159   0.851   4.461 -2.4152 -0.1728 -0.4310
   24CHL1  H26B 1771   5.215   0.749   4.607 -0.9365 -1.4230 -1.0584
   24CHL1  H26C 1772   5.053   0.744   4.543 -3.6828  3.7891  1.1846
   24CHL1   C27 1773   4.968   0.994   4.621  0.1697 -0.5057 -0.3369
   24CHL1  H27A 1774   4.988   1.063   4.535  3.6594  0.3308  0.9775
   24CHL1  H27B 1775   4.886   0.922   4.602  1.0146 -1.3895 -0.6974
   24CHL1  H27C 1776   4.928   1.061   4.700  0.0234  0.1878 -0.9862
   25CHL1    C3 1777   0.554   5.270   6.318 -0.2987 -0.0973 -0.6332
   25CHL1    H3 1778   0.511   5.168   6.318 -1.7766  0.4468  1.7479
   25CHL1    O3 1779   0.592   5.288   6.449 -0.6601  0.5432  0.0470
   25CHL1   H3' 1780   0.593   5.380   6.474  0.7549  0.4327  0.4886
   25CHL1    C4 1781   0.680   5.260   6.222  0.0256 -0.0766  0.9964
   25CHL1   H4A 1782   0.751   5.345   6.232 -0.8588  0.6842  0.8760
   25CHL1   H4B 1783   0.739   5.172   6.257 -0.8071 -0.5711  1.1827
   25CHL1    C5 1784   0.645   5.251   6.073  0.7946 -0.1467  0.5136
   25CHL1    C6 1785   0.675   5.139   5.998 -1.4411 -0.4874  0.3166
   25CHL1    H6 1786   0.720   5.053   6.050 -1.4871 -0.8250 -0.1932
   25CHL1    C7 1787   0.643   5.119   5.850 -0.6047  0.3488  0.0154
   25CHL1   H7A 1788   0.734   5.082   5.798 -2.1290 -2.3434 -0.9979
   25CHL1   H7B 1789   0.576   5.030   5.844  0.0444 -0.2573  1.3323
   25CHL1    C8 1790   0.601   5.248   5.782  0.2186 -0.0299 -0.4786
   25CHL1    H8 1791   0.687   5.316   5.766 -1.0279  0.9501 -4.3039
   25CHL1   C14 1792   0.559   5.230   5.638  0.3134 -0.2746 -1.2271
   25CHL1   H14 1793   0.466   5.170   5.647 -0.2009  0.7740  0.7784
   25CHL1   C15 1794   0.652   5.152   5.544  0.7613  0.0615  0.0455
   25CHL1  H15A 1795   0.760   5.180   5.548  1.1122 -0.7517 -2.3620
   25CHL1  H15B 1796   0.646   5.043   5.562 -1.5923  0.1761  0.2031
   25CHL1   C16 1797   0.601   5.195   5.407 -0.1866 -0.3754  0.4324
   25CHL1  H16A 1798   0.688   5.238   5.353 -0.2108  0.0309  0.7093
   25CHL1  H16B 1799   0.575   5.104   5.350  0.7098 -1.5913  1.8725
   25CHL1   C17 1800   0.487   5.302   5.427  0.3027  0.1667  0.2573
   25CHL1   H17 1801   0.386   5.256   5.417  0.1748  0.8846 -2.6418
   25CHL1   C13 1802   0.509   5.357   5.571 -0.1398 -0.1331  0.0308
   25CHL1   C18 1803   0.624   5.456   5.564  0.8240 -0.3883 -0.1465
   25CHL1  H18A 1804   0.666   5.495   5.659  1.5688 -0.6494 -0.3598
   25CHL1  H18B 1805   0.713   5.415   5.512  1.6005  0.6404  0.3344
   25CHL1  H18C 1806   0.594   5.552   5.519  0.5098  1.0718  2.9016
   25CHL1   C12 1807   0.387   5.413   5.645  0.1124 -0.2955 -0.3870
   25CHL1  H12A 1808   0.345   5.507   5.602 -1.3620 -0.9007 -0.3244
   25CHL1  H12B 1809   0.311   5.331   5.642  0.0794 -0.4678  2.4030
   25CHL1   C11 1810   0.423   5.442   5.790 -0.0828 -0.4194  0.2277
   25CHL1  H11A 1811   0.497   5.523   5.774  0.4281 -1.1015 -1.0057
   25CHL1  H11B 1812   0.342   5.481   5.855 -0.7258 -2.3739  0.6668
   25CHL1    C9 1813   0.491   5.325   5.867  1.5782 -0.1233 -0.3654
   25CHL1    H9 1814   0.407   5.254   5.881  2.0403 -0.6361 -0.1902
   25CHL1   C10 1815   0.546   5.355   6.012  0.2479  0.1325 -0.6370
   25CHL1   C19 1816   0.614   5.496   6.004 -0.3235 -0.4957 -0.3788
   25CHL1  H19A 1817   0.661   5.508   6.104 -1.5297 -0.7008  0.2357
   25CHL1  H19B 1818   0.687   5.484   5.921 -0.9564  0.9706 -1.1788
   25CHL1  H19C 1819   0.553   5.587   5.984 -2.2495 -1.4675  0.7502
   25CHL1    C1 1820   0.418   5.361   6.108  0.6952  0.4634  0.6756
   25CHL1   H1A 1821   0.354   5.445   6.073  0.4060  0.0376  0.1755
   25CHL1   H1B 1822   0.356   5.269   6.111 -1.7810  2.0536  1.5214
   25CHL1    C2 1823   0.467   5.383   6.256 -0.4314 -0.2330 -0.6335
   25CHL1   H2A 1824   0.371   5.386   6.312 -0.6136 -1.0679 -0.8895
   25CHL1   H2B 1825   0.524   5.476   6.273 -0.6087 -0.2263 -0.0471
   25CHL1   C20 1826   0.495   5.401   5.311 -0.8159 -0.0290  0.0868
   25CHL1   H20 1827   0.595   5.449   5.303 -0.6842  0.0783  1.8430
   25CHL1   C21 1828   0.388   5.511   5.328  0.1879 -0.1635 -1.2493
   25CHL1  H21A 1829   0.288   5.465   5.348 -1.0975  2.4906 -1.0732
   25CHL1  H21B 1830   0.384   5.584   5.245  1.4299  2.3355  0.7549
   25CHL1  H21C 1831   0.412   5.572   5.418 -0.2574  0.6967 -1.7035
   25CHL1   C22 1832   0.479   5.351   5.162 -0.1947 -0.6340 -0.2013
   25CHL1  H22A 1833   0.495   5.432   5.088 -3.1049  1.2536  1.0508
   25CHL1  H22B 1834   0.553   5.269   5.151 -0.9476 -1.3154 -0.3233
   25CHL1   C23 1835   0.345   5.292   5.115  0.0471 -0.5966  0.0134
   25CHL1  H23A 1836   0.297   5.235   5.198 -1.4817  0.7524  0.0824
   25CHL1  H23B 1837   0.270   5.369   5.088  2.0143  1.5275  0.3211
   25CHL1   C24 1838   0.368   5.197   4.993 -0.5288 -0.4557 -0.3754
   25CHL1  H24A 1839   0.411   5.252   4.907 -1.2362 -1.2616 -1.2692
   25CHL1  H24B 1840   0.450   5.124   5.012 -0.8929 -1.0002 -0.8870
   25CHL1   C25 1841   0.239   5.135   4.935 -0.9339  0.4934  0.3366
   25CHL1   H25 1842   0.168   5.104   5.015 -1.9676  0.4526 -0.5709
   25CHL1   C26 1843   0.166   5.221   4.837  0.4160 -0.1159 -0.1493
   25CHL1  H26A 1844   0.232   5.235   4.749  1.0963  1.7211  0.6142
   25CHL1  H26B 1845   0.069   5.178   4.803  0.4651 -1.4453  1.2769
   25CHL1  H26C 1846   0.148   5.324   4.874  2.5726  0.0145  0.6880
   25CHL1   C27 1847   0.266   5.001   4.863 -0.1453 -0.4488  0.3386
   25CHL1  H27A 1848   0.162   4.970   4.838 -0.2932  1.2906 -1.4194
   25CHL1  H27B 1849   0.322   5.014   4.769  0.5895  1.1620  0.9742
   25CHL1  H27C 1850   0.320   4.926   4.925 -1.0170 -0.5009  1.0642
   26CHL1    C3 1851   1.049   5.308   6.175 -0.2187 -0.5300 -0.4839
   26CHL1    H3 1852   0.946   5.270   6.158 -1.5832  2.6011  0.0203
   26CHL1    O3 1853   1.089   5.285   6.308 -0.2853 -0.3482 -0.5999
   26CHL1   H3' 1854   1.183   5.305   6.312  0.3753 -2.6090 -2.5214
   26CHL1    C4 1855   1.151   5.232   6.088 -0.3840 -0.5129 -0.5079
   26CHL1   H4A 1856   1.257   5.257   6.111  0.5058 -3.9701 -0.2727
   26CHL1   H4B 1857   1.142   5.124   6.111  3.6067 -1.2617 -1.6814
   26CHL1    C5 1858   1.128   5.270   5.939 -0.5880  0.2752 -0.5068
   26CHL1    C6 1859   1.096   5.172   5.856 -0.0518 -0.0353  0.4720
   26CHL1    H6 1860   1.105   5.072   5.900 -0.8147 -0.7563 -0.9576
   26CHL1    C7 1861   1.058   5.178   5.707  0.3029  0.8598  0.6676
   26CHL1   H7A 1862   1.107   5.091   5.659  1.9878  1.1510  1.7763
   26CHL1   H7B 1863   0.948   5.166   5.693  0.1932  2.0258  0.3767
   26CHL1    C8 1864   1.109   5.311   5.644  0.0240  0.4137 -0.2501
   26CHL1    H8 1865   1.218   5.300   5.624 -0.2772 -3.7896 -0.4875
   26CHL1   C14 1866   1.028   5.330   5.519  0.0404  0.1025 -0.0007
   26CHL1   H14 1867   0.924   5.336   5.557 -0.4379 -1.4308 -0.9711
   26CHL1   C15 1868   1.025   5.216   5.420 -0.1358  0.2887  0.6409
   26CHL1  H15A 1869   1.130   5.180   5.430 -0.2059  0.2048  1.0974
   26CHL1  H15B 1870   0.946   5.139   5.439 -1.1756  0.9647 -0.7339
   26CHL1   C16 1871   1.006   5.276   5.283  0.2725  0.4902 -0.5354
   26CHL1  H16A 1872   1.090   5.242   5.220  1.3080  0.1242  0.9946
   26CHL1  H16B 1873   0.910   5.239   5.242  0.3742 -0.1926 -0.1595
   26CHL1   C17 1874   0.994   5.424   5.301 -0.1944  0.2058 -1.3233
   26CHL1   H17 1875   0.888   5.451   5.323 -0.0607 -1.0097  1.2435
   26CHL1   C13 1876   1.067   5.455   5.438  0.0595 -0.3006 -0.4111
   26CHL1   C18 1877   1.221   5.455   5.408  0.4212  0.3573  0.1951
   26CHL1  H18A 1878   1.245   5.363   5.350 -2.2285 -1.1856  1.3616
   26CHL1  H18B 1879   1.250   5.548   5.354 -0.4457 -0.0170 -0.9484
   26CHL1  H18C 1880   1.283   5.462   5.500  0.7328  2.0160 -0.1051
   26CHL1   C12 1881   1.027   5.575   5.528 -1.3724 -0.2505  0.0137
   26CHL1  H12A 1882   1.059   5.670   5.481 -0.5885 -1.2080 -1.4432
   26CHL1  H12B 1883   0.918   5.581   5.545 -1.8891 -0.8049 -2.6443
   26CHL1   C11 1884   1.088   5.569   5.677  0.6453  0.0129 -0.0840
   26CHL1  H11A 1885   1.194   5.594   5.661  0.5855 -0.6191 -1.6692
   26CHL1  H11B 1886   1.040   5.651   5.735  2.0760  1.2651 -0.6203
   26CHL1    C9 1887   1.074   5.427   5.742  0.4749  0.4334  1.0184
   26CHL1    H9 1888   0.963   5.422   5.748  0.5216 -0.2516  1.4147
   26CHL1   C10 1889   1.119   5.415   5.893 -0.5080  0.5663 -0.0775
   26CHL1   C19 1890   1.265   5.472   5.896 -0.0927  0.4215 -0.6928
   26CHL1  H19A 1891   1.309   5.459   5.997  2.1020  1.3775 -1.4648
   26CHL1  H19B 1892   1.329   5.408   5.830  0.9472  1.9443 -1.2252
   26CHL1  H19C 1893   1.280   5.578   5.868 -0.8727 -0.0893 -3.3576
   26CHL1    C1 1894   1.025   5.485   5.992 -0.8454  0.1992  0.4620
   26CHL1   H1A 1895   1.019   5.594   5.970  2.9938  0.5194  0.2624
   26CHL1   H1B 1896   0.921   5.448   5.988  0.0409 -2.5220  0.1868
   26CHL1    C2 1897   1.058   5.460   6.140 -0.0788 -0.0023  0.3550
   26CHL1   H2A 1898   0.991   5.518   6.206 -0.3609 -0.3434  0.3699
   26CHL1   H2B 1899   1.162   5.496   6.150  0.3798 -1.3594  0.7466
   26CHL1   C20 1900   1.038   5.497   5.183  0.5141 -0.4113 -0.1820
   26CHL1   H20 1901   1.143   5.468   5.165  0.2630 -1.7757  0.4365
   26CHL1   C21 1902   1.029   5.643   5.215  0.7913 -0.3027 -0.2830
   26CHL1  H21A 1903   0.938   5.673   5.271  1.2659  0.2750  0.2067
   26CHL1  H21B 1904   1.042   5.704   5.123 -2.1111  3.8029  1.7125
   26CHL1  H21C 1905   1.114   5.666   5.283  1.7685 -0.4412 -1.4292
   26CHL1   C22 1906   0.955   5.458   5.052 -0.5840 -0.6782 -0.4880
   26CHL1  H22A 1907   0.937   5.348   5.052 -0.1280 -0.7998  1.6146
   26CHL1  H22B 1908   0.862   5.518   5.051 -0.6030 -0.6390  1.0347
   26CHL1   C23 1909   1.032   5.492   4.929 -0.1593  0.6059 -0.5640
   26CHL1  H23A 1910   1.049   5.602   4.930 -2.7998  1.1187 -1.8530
   26CHL1  H23B 1911   1.131   5.442   4.923 -0.2457  0.0612  1.6959
   26CHL1   C24 1912   0.959   5.460   4.792  0.3900 -0.0634  0.1493
   26CHL1  H24A 1913   0.899   5.371   4.820 -0.5009  0.0807 -1.2309
   26CHL1  H24B 1914   0.882   5.537   4.770 -0.5868 -1.3158 -1.0140
   26CHL1   C25 1915   1.053   5.431   4.675 -1.4874  0.3093 -0.5019
   26CHL1   H25 1916   1.138   5.368   4.708 -1.0054  1.9993  1.7432
   26CHL1   C26 1917   0.980   5.361   4.558 -0.2890  0.1079 -0.5814
   26CHL1  H26A 1918   1.049   5.326   4.478  0.6166 -0.5333  0.4470
   26CHL1  H26B 1919   0.947   5.261   4.592 -1.1490  0.3551 -0.6744
   26CHL1  H26C 1920   0.899   5.432   4.532 -1.2033 -0.5609  0.3541
   26CHL1   C27 1921   1.118   5.565   4.629 -0.3561 -0.4303  0.0878
   26CHL1  H27A 1922   1.037   5.633   4.595 -0.7134 -1.3984 -1.0881
   26CHL1  H27B 1923   1.180   5.607   4.711 -0.1952 -2.3762  1.0108
   26CHL1  H27C 1924   1.188   5.551   4.543  0.3131 -0.0977  0.5732
   27CHL1    C3 1925   1.702   6.076   6.206  0.8839 -0.9158  0.5010
   27CHL1    H3 1926   1.663   5.983   6.158  0.5445 -1.6144  2.0405
   27CHL1    O3 1927   1.733   6.037   6.336  0.2022 -0.2455 -0.3976
   27CHL1   H3' 1928   1.812   6.083   6.365 -0.4731  0.5061  0.3054
   27CHL1    C4 1929   1.826   6.126   6.133  0.1581 -0.6281  1.0765
   27CHL1   H4A 1930   1.849   6.227   6.173 -0.9143 -0.1431  0.5206
   27CHL1   H4B 1931   1.915   6.063   6.154 -0.0941 -0.7783  1.7117
   27CHL1    C5 1932   1.783   6.141   5.987 -0.2795 -0.9219 -0.2408
   27CHL1    C6 1933   1.832   6.061   5.883  0.0961  0.8029  0.5214
   27CHL1    H6 1934   1.904   5.984   5.914  0.8248  0.3143 -2.1384
   27CHL1    C7 1935   1.789   6.069   5.743 -0.5615 -0.1945 -0.4567
   27CHL1   H7A 1936   1.876   6.064   5.675  0.1330  1.9945  0.1827
   27CHL1   H7B 1937   1.727   5.981   5.715 -0.6521  0.4907 -2.5865
   27CHL1    C8 1938   1.705   6.197   5.720 -0.3691 -0.2073  0.0776
   27CHL1    H8 1939   1.771   6.286   5.715 -0.0818 -0.4440 -0.4258
   27CHL1   C14 1940   1.657   6.193   5.579  0.5857  0.0602 -0.0725
   27CHL1   H14 1941   1.597   6.100   5.567  0.0386  0.1609  1.5584
   27CHL1   C15 1942   1.762   6.195   5.464  0.1202  0.5710 -0.4519
   27CHL1  H15A 1943   1.835   6.278   5.474 -0.1574  0.6820  0.7534
   27CHL1  H15B 1944   1.823   6.102   5.454 -1.3410 -0.2248 -2.8283
   27CHL1   C16 1945   1.685   6.233   5.341 -0.0659 -0.5194  0.2237
   27CHL1  H16A 1946   1.737   6.319   5.292 -2.4779  1.8483  1.5137
   27CHL1  H16B 1947   1.679   6.151   5.267 -1.2998 -1.7190  1.5993
   27CHL1   C17 1948   1.548   6.276   5.391 -0.2101 -0.0960 -0.1999
   27CHL1   H17 1949   1.470   6.196   5.384 -1.5481  1.1837 -0.3229
   27CHL1   C13 1950   1.565   6.311   5.545  0.7095  0.3237 -0.5653
   27CHL1   C18 1951   1.636   6.443   5.554 -0.1302  0.1267 -0.8225
   27CHL1  H18A 1952   1.578   6.532   5.522  1.3840  0.8552 -1.6519
   27CHL1  H18B 1953   1.688   6.468   5.649 -1.4534 -1.6989  0.4535
   27CHL1  H18C 1954   1.718   6.450   5.480  0.4330 -0.4561 -0.2659
   27CHL1   C12 1955   1.442   6.309   5.632 -0.4246  0.6227  0.1621
   27CHL1  H12A 1956   1.368   6.390   5.613 -1.2314 -0.0880  0.2166
   27CHL1  H12B 1957   1.386   6.213   5.629  1.2772 -0.5014  1.8777
   27CHL1   C11 1958   1.483   6.322   5.786  0.2267  0.3952  0.7632
   27CHL1  H11A 1959   1.519   6.427   5.777 -0.2559  0.4465 -0.8618
   27CHL1  H11B 1960   1.395   6.323   5.853  1.0041 -1.2230  1.8809
   27CHL1    C9 1961   1.598   6.214   5.821 -0.4008  0.6066 -0.4358
   27CHL1    H9 1962   1.543   6.119   5.841  0.2107  0.1601 -0.8306
   27CHL1   C10 1963   1.665   6.233   5.967  0.7154  0.5657  0.6044
   27CHL1   C19 1964   1.716   6.378   5.967 -0.4176  0.0801 -0.0516
   27CHL1  H19A 1965   1.764   6.407   6.063 -0.5694 -1.1220  0.4013
   27CHL1  H19B 1966   1.792   6.405   5.890  1.2007  2.5743  2.2023
   27CHL1  H19C 1967   1.637   6.455   5.956 -0.0432  0.2823 -1.5649
   27CHL1    C1 1968   1.550   6.215   6.068  0.1759 -0.4868  0.1164
   27CHL1   H1A 1969   1.506   6.317   6.075 -1.7619 -1.2940  0.3757
   27CHL1   H1B 1970   1.483   6.131   6.040 -1.4777  0.9698 -0.4570
   27CHL1    C2 1971   1.596   6.184   6.209 -0.4160 -0.6164  0.4956
   27CHL1   H2A 1972   1.499   6.166   6.260 -1.2247  0.2809 -0.6799
   27CHL1   H2B 1973   1.642   6.271   6.260 -0.6903 -0.7767  1.0295
   27CHL1   C20 1974   1.482   6.389   5.302  0.3587  0.2612  0.0310
   27CHL1   H20 1975   1.519   6.491   5.326 -0.6054  0.5890  0.1555
   27CHL1   C21 1976   1.332   6.391   5.329 -0.1375 -0.6627 -0.6020
   27CHL1  H21A 1977   1.282   6.458   5.256 -1.5047  1.1975  1.9104
   27CHL1  H21B 1978   1.305   6.441   5.424 -0.0020 -2.4708  0.4395
   27CHL1  H21C 1979   1.282   6.292   5.316 -0.4521 -0.3788 -1.7277
   27CHL1   C22 1980   1.507   6.357   5.153 -0.0212 -0.6303  0.0186
   27CHL1  H22A 1981   1.617   6.354   5.134 -0.0703 -0.7894 -0.2454
   27CHL1  H22B 1982   1.465   6.257   5.129 -1.9273 -0.0744  0.8905
   27CHL1   C23 1983   1.460   6.466   5.058 -0.3367  0.1058 -0.1548
   27CHL1  H23A 1984   1.352   6.452   5.037 -0.1124  0.5318 -1.7622
   27CHL1  H23B 1985   1.485   6.566   5.100  0.9106  0.6874 -2.1111
   27CHL1   C24 1986   1.523   6.459   4.918  0.0613  0.1688 -0.7784
   27CHL1  H24A 1987   1.631   6.432   4.926 -0.3092 -1.3988 -0.8457
   27CHL1  H24B 1988   1.479   6.372   4.865  0.1272  1.5763 -3.3376
   27CHL1   C25 1989   1.497   6.578   4.821 -0.2264 -0.7404  0.2647
   27CHL1   H25 1990   1.523   6.546   4.718 -0.1887  0.3743 -0.0833
   27CHL1   C26 1991   1.349   6.621   4.824  0.8196 -0.3715 -0.1521
   27CHL1  H26A 1992   1.337   6.708   4.757 -1.7932 -0.1745  0.4503
   27CHL1  H26B 1993   1.281   6.543   4.784  0.4671  0.2402 -0.7669
   27CHL1  H26C 1994   1.308   6.664   4.918 -0.7060 -0.2636 -0.8411
   27CHL1   C27 1995   1.590   6.690   4.863 -0.5497 -0.1644  0.1037
   27CHL1  H27A 1996   1.700   6.671   4.864 -0.3746  0.7682  0.0448
   27CHL1  H27B 1997   1.579   6.764   4.781  1.9133 -2.1104 -2.1706
   27CHL1  H27C 1998   1.568   6.733   4.963  0.1738 -1.5685  0.8867
   28CHL1    C3 1999   2.110   5.122   5.958  0.4099  0.0027 -0.1920
   28CHL1    H3 2000   2.184   5.056   5.908  1.1432 -1.9812  3.1669
   28CHL1    O3 2001   2.122   5.091   6.096  0.0586 -0.4078 -0.0959
   28CHL1   H3' 2002   2.064   5.155   6.138  1.0229  0.4304  0.0162
   28CHL1    C4 2003   2.141   5.270   5.938  1.0947 -1.1564  0.5064
   28CHL1   H4A 2004   2.057   5.329   5.981  0.1344 -2.4382  0.4402
   28CHL1   H4B 2005   2.231   5.288   6.000 -1.0765  1.7079  3.1366
   28CHL1    C5 2006   2.144   5.303   5.792  0.2597 -0.1539  0.2137
   28CHL1    C6 2007   2.261   5.345   5.735  0.3664  0.4351  0.1728
   28CHL1    H6 2008   2.354   5.356   5.793  2.2651 -1.4866 -2.3107
   28CHL1    C7 2009   2.266   5.375   5.586 -0.1972 -0.6493 -0.6125
   28CHL1   H7A 2010   2.335   5.460   5.566 -1.0595 -0.0190 -0.9367
   28CHL1   H7B 2011   2.317   5.289   5.537  2.0785 -1.0703  2.1910
   28CHL1    C8 2012   2.125   5.393   5.519 -0.1900  0.4949 -0.5385
   28CHL1    H8 2013   2.078   5.483   5.564 -1.1747 -1.4689  2.7469
   28CHL1   C14 2014   2.140   5.408   5.370 -0.2963  0.4039  0.2159
   28CHL1   H14 2015   2.179   5.307   5.345 -2.2730 -0.4396  0.3649
   28CHL1   C15 2016   2.239   5.513   5.312 -0.3485 -0.1150  0.4546
   28CHL1  H15A 2017   2.197   5.607   5.355 -0.3227 -0.3873  1.0890
   28CHL1  H15B 2018   2.340   5.485   5.347 -0.3283  0.0182  0.5016
   28CHL1   C16 2019   2.210   5.494   5.163 -0.3400  0.3095  0.1619
   28CHL1  H16A 2020   2.214   5.590   5.108  0.5289 -0.1487 -0.6061
   28CHL1  H16B 2021   2.275   5.419   5.112  1.0102  0.5727  1.4162
   28CHL1   C17 2022   2.066   5.423   5.147 -0.2412  0.0408 -0.7113
   28CHL1   H17 2023   2.086   5.315   5.128 -0.2026 -0.1206  0.1725
   28CHL1   C13 2024   2.008   5.421   5.289 -0.7273  0.4137 -0.0174
   28CHL1   C18 2025   1.950   5.565   5.313 -0.5417  0.1327 -0.4262
   28CHL1  H18A 2026   2.012   5.650   5.275  1.5631  0.2519  2.9333
   28CHL1  H18B 2027   1.843   5.562   5.280  0.2202  1.4457 -3.4049
   28CHL1  H18C 2028   1.944   5.585   5.422  0.2364 -1.7718 -0.0046
   28CHL1   C12 2029   1.908   5.307   5.335  0.2993 -0.4950  0.3485
   28CHL1  H12A 2030   1.807   5.321   5.290  0.3966  0.4628  0.4126
   28CHL1  H12B 2031   1.946   5.205   5.312  0.0154 -0.6063  0.3747
   28CHL1   C11 2032   1.887   5.315   5.485  1.5697  0.6390 -0.1847
   28CHL1  H11A 2033   1.832   5.406   5.517 -1.6361 -0.9716 -0.7132
   28CHL1  H11B 2034   1.814   5.237   5.517  1.0646  1.7289  1.4467
   28CHL1    C9 2035   2.026   5.285   5.554  0.3038 -0.2760 -0.2309
   28CHL1    H9 2036   2.079   5.196   5.515  0.4354 -1.0837  1.6809
   28CHL1   C10 2037   2.019   5.276   5.712 -0.5554  0.0033  0.5582
   28CHL1   C19 2038   1.916   5.380   5.759  0.4525  0.6758  0.0132
   28CHL1  H19A 2039   1.900   5.385   5.869 -2.2886  0.1842 -0.3036
   28CHL1  H19B 2040   1.917   5.482   5.716  0.4758  0.3018 -0.8778
   28CHL1  H19C 2041   1.820   5.332   5.729  1.2681 -1.4022  0.5489
   28CHL1    C1 2042   1.974   5.129   5.753  0.6480 -0.6701 -0.2487
   28CHL1   H1A 2043   1.886   5.099   5.691  1.0188 -0.0532 -1.0817
   28CHL1   H1B 2044   2.057   5.071   5.707  1.3897  0.9187 -0.9616
   28CHL1    C2 2045   1.972   5.087   5.909 -0.0986  0.3508  0.4957
   28CHL1   H2A 2046   1.952   4.978   5.918  0.0074  0.2072 -0.7528
   28CHL1   H2B 2047   1.899   5.149   5.965 -1.4062 -2.0244  1.5674
   28CHL1   C20 2048   1.989   5.467   5.022 -0.0317  0.2495 -0.3440
   28CHL1   H20 2049   1.967   5.575   5.028  4.7900  1.4418  0.1805
   28CHL1   C21 2050   1.849   5.389   5.013 -0.3360 -0.0302  0.2639
   28CHL1  H21A 2051   1.881   5.283   5.001  0.9575  0.2614  0.9673
   28CHL1  H21B 2052   1.787   5.413   4.924  0.7102  0.3163 -0.3867
   28CHL1  H21C 2053   1.778   5.392   5.098 -0.2273  0.8310  0.3281
   28CHL1   C22 2054   2.068   5.437   4.898 -0.1341 -0.8568  0.3961
   28CHL1  H22A 2055   2.172   5.476   4.899 -0.7901  0.9472  0.2807
   28CHL1  H22B 2056   2.075   5.326   4.892 -1.8794 -1.0441  1.1395
   28CHL1   C23 2057   2.016   5.513   4.773 -0.0346 -0.2039  0.2523
   28CHL1  H23A 2058   1.910   5.488   4.750 -0.2763  0.5118  0.5269
   28CHL1  H23B 2059   2.014   5.621   4.802  1.1311 -0.1853  0.3207
   28CHL1   C24 2060   2.107   5.496   4.654 -0.2172 -0.1223 -0.0082
   28CHL1  H24A 2061   2.213   5.471   4.676 -0.0771 -0.2136 -0.7615
   28CHL1  H24B 2062   2.063   5.432   4.575  0.2517  3.5480 -3.5936
   28CHL1   C25 2063   2.106   5.626   4.559  0.1423  0.3659  0.4247
   28CHL1   H25 2064   2.159   5.702   4.621  1.7204 -0.6382  0.3444
   28CHL1   C26 2065   2.187   5.612   4.426  0.1997  0.1651 -0.2947
   28CHL1  H26A 2066   2.139   5.555   4.344  0.1623 -0.0827 -0.1052
   28CHL1  H26B 2067   2.201   5.714   4.384  0.3524  1.4790  2.6673
   28CHL1  H26C 2068   2.282   5.558   4.446 -0.3684 -1.9564 -2.8474
   28CHL1   C27 2069   1.960   5.662   4.519  0.7438  0.4037  0.0514
   28CHL1  H27A 2070   1.898   5.649   4.611  2.4034 -0.5752  1.1044
   28CHL1  H27B 2071   1.954   5.768   4.487  0.2860 -0.1560 -1.7832
   28CHL1  H27C 2072   1.941   5.599   4.430  1.8248 -0.3027  0.2913
   29CHL1    C3 2073   2.705   2.610   2.327  0.2547  0.4754 -0.0639
   29CHL1    H3 2074   2.679   2.717   2.343  1.5977  1.1391 -1.9620
   29CHL1    O3 2075   2.720   2.611   2.186 -0.1281  0.7008 -0.1932
   29CHL1   H3' 2076   2.663   2.539   2.156 -2.7531  2.9201 -0.9552
   29CHL1    C4 2077   2.833   2.566   2.407  0.1823  0.7158  0.3167
   29CHL1   H4A 2078   2.868   2.467   2.369 -3.1464 -1.0345  1.4481
   29CHL1   H4B 2079   2.910   2.638   2.371  0.5023 -0.4275 -1.4396
   29CHL1    C5 2080   2.811   2.558   2.554 -0.7219  0.1501 -0.1771
   29CHL1    C6 2081   2.888   2.628   2.636  0.3867  0.1352 -0.9413
   29CHL1    H6 2082   2.977   2.682   2.601 -0.7068  2.3694 -0.4838
   29CHL1    C7 2083   2.875   2.618   2.787  0.1419  0.1186  0.0039
   29CHL1   H7A 2084   2.970   2.598   2.841  1.3486  1.4822 -1.4881
   29CHL1   H7B 2085   2.858   2.721   2.825  0.1228  0.2710 -0.4061
   29CHL1    C8 2086   2.774   2.511   2.829 -0.0458  1.3480  0.1006
   29CHL1    H8 2087   2.822   2.412   2.838  1.4020  2.0589  0.5856
   29CHL1   C14 2088   2.717   2.545   2.969 -0.3232  0.0652 -0.2979
   29CHL1   H14 2089   2.658   2.639   2.963  0.1457  0.5306  1.6380
   29CHL1   C15 2090   2.822   2.574   3.085  1.0916 -0.5090  0.4301
   29CHL1  H15A 2091   2.908   2.506   3.098  1.0240 -0.6385  0.2142
   29CHL1  H15B 2092   2.865   2.675   3.065  0.6247 -0.2848  0.5486
   29CHL1   C16 2093   2.729   2.571   3.207  0.4888  0.4909  0.4216
   29CHL1  H16A 2094   2.769   2.503   3.286 -2.2836  0.7774  2.2435
   29CHL1  H16B 2095   2.722   2.673   3.249  0.6337  0.7857 -0.2680
   29CHL1   C17 2096   2.589   2.524   3.163 -0.3809  0.0295  1.2196
   29CHL1   H17 2097   2.539   2.617   3.127  3.9257  1.9247 -0.5085
   29CHL1   C13 2098   2.618   2.447   3.034 -0.5737 -0.4156  0.8549
   29CHL1   C18 2099   2.672   2.307   3.071 -0.3725 -0.0626  0.4445
   29CHL1  H18A 2100   2.592   2.230   3.072 -0.6737  0.0602 -2.8683
   29CHL1  H18B 2101   2.740   2.281   2.987 -0.7839  2.8960 -0.9127
   29CHL1  H18C 2102   2.733   2.310   3.163  2.0103  0.8108 -1.0800
   29CHL1   C12 2103   2.499   2.442   2.933 -0.5709  0.0679  0.1399
   29CHL1  H12A 2104   2.416   2.377   2.969 -0.9735  0.1323 -0.6673
   29CHL1  H12B 2105   2.450   2.541   2.931  0.1382  0.4236 -2.1595
   29CHL1   C11 2106   2.536   2.395   2.799  0.0495 -0.5592  0.1699
   29CHL1  H11A 2107   2.567   2.288   2.802  1.0311 -0.2623  1.2531
   29CHL1  H11B 2108   2.440   2.403   2.744  0.0240  1.3808  0.4509
   29CHL1    C9 2109   2.652   2.489   2.736 -0.1602 -0.5430  0.5287
   29CHL1    H9 2110   2.610   2.590   2.750 -3.0947 -1.4538 -1.0025
   29CHL1   C10 2111   2.683   2.475   2.587 -0.1346  0.5506  0.6208
   29CHL1   C19 2112   2.718   2.330   2.553 -0.1104  1.0615 -0.0820
   29CHL1  H19A 2113   2.627   2.267   2.545  1.7731 -1.7627 -0.7911
   29CHL1  H19B 2114   2.779   2.316   2.461 -1.7484  1.7602 -1.3237
   29CHL1  H19C 2115   2.767   2.283   2.641 -0.2458  0.3911 -0.3585
   29CHL1    C1 2116   2.559   2.510   2.510 -0.5780  0.0968  0.6809
   29CHL1   H1A 2117   2.475   2.440   2.528 -0.6241  0.2171  0.9311
   29CHL1   H1B 2118   2.538   2.608   2.558  0.4032  0.0711  1.1958
   29CHL1    C2 2119   2.587   2.521   2.358 -0.1254 -0.3838 -0.2773
   29CHL1   H2A 2120   2.491   2.547   2.308 -0.9365 -0.4201  1.2164
   29CHL1   H2B 2121   2.625   2.422   2.324  1.4131  0.2730 -0.5350
   29CHL1   C20 2122   2.514   2.453   3.278  1.1736  0.1062 -0.1090
   29CHL1   H20 2123   2.569   2.360   3.304  0.7391 -1.1582 -3.2744
   29CHL1   C21 2124   2.372   2.411   3.234  0.2556 -0.1425 -0.4316
   29CHL1  H21A 2125   2.377   2.332   3.156 -0.0553 -0.8041  0.2105
   29CHL1  H21B 2126   2.325   2.502   3.190  0.4617  0.8155  1.2506
   29CHL1  H21C 2127   2.308   2.371   3.315  0.4785  0.3486 -0.0099
   29CHL1   C22 2128   2.493   2.534   3.406  0.3877 -1.4042  0.2787
   29CHL1  H22A 2129   2.575   2.607   3.428 -1.8254  0.6665  2.2414
   29CHL1  H22B 2130   2.408   2.605   3.412  2.1834  0.8269  0.7841
   29CHL1   C23 2131   2.485   2.443   3.533 -0.1047  0.3398 -0.3761
   29CHL1  H23A 2132   2.425   2.350   3.520  1.3644 -0.7193  0.2253
   29CHL1  H23B 2133   2.590   2.411   3.550  0.1513  0.5275 -1.5237
   29CHL1   C24 2134   2.429   2.508   3.659  0.4720 -0.0536 -0.2776
   29CHL1  H24A 2135   2.493   2.598   3.672 -0.3446  0.8815 -2.2369
   29CHL1  H24B 2136   2.323   2.538   3.643  0.5621 -0.1061 -1.0285
   29CHL1   C25 2137   2.420   2.419   3.784 -0.4276  0.2999  0.0984
   29CHL1   H25 2138   2.509   2.360   3.815 -1.1182 -0.6086  0.3794
   29CHL1   C26 2139   2.395   2.511   3.904 -0.6741 -0.2572 -0.1974
   29CHL1  H26A 2140   2.305   2.574   3.890 -1.3457 -0.7622  1.5993
   29CHL1  H26B 2141   2.381   2.443   3.990  0.4682 -0.2851 -0.0213
   29CHL1  H26C 2142   2.486   2.570   3.930 -0.8088 -0.3393  0.4870
   29CHL1   C27 2143   2.304   2.324   3.771 -0.4247  0.5257 -0.4721
   29CHL1  H27A 2144   2.302   2.263   3.864 -2.0097 -1.0495 -1.4755
   29CHL1  H27B 2145   2.208   2.380   3.765 -0.8055  0.2951  2.2784
   29CHL1  H27C 2146   2.326   2.247   3.694 -0.0825  0.2930 -0.1453
   30CHL1    C3 2147   0.736   1.323   2.783 -0.5966 -0.3418 -0.7340
   30CHL1    H3 2148   0.791   1.228   2.799  0.8129  0.5359 -0.1372
   30CHL1    O3 2149   0.726   1.350   2.647  0.5557 -0.6197  0.0036
   30CHL1   H3' 2150   0.675   1.431   2.654 -1.4121 -1.8305  0.5915
   30CHL1    C4 2151   0.598   1.316   2.849 -0.2236 -0.1139 -0.9742
   30CHL1   H4A 2152   0.528   1.399   2.827  0.1633  0.7906  0.9640
   30CHL1   H4B 2153   0.558   1.222   2.807 -0.9940 -1.5911  2.6394
   30CHL1    C5 2154   0.610   1.301   3.000 -0.1061 -0.1992  0.1816
   30CHL1    C6 2155   0.544   1.206   3.067  0.7228  0.5503 -0.5260
   30CHL1    H6 2156   0.474   1.141   3.014 -1.0922  0.8528  1.4057
   30CHL1    C7 2157   0.547   1.192   3.217 -1.0788 -0.5654 -0.1715
   30CHL1   H7A 2158   0.447   1.189   3.267 -1.0082 -1.8935 -0.0635
   30CHL1   H7B 2159   0.620   1.112   3.241  0.7028  0.4610 -1.9755
   30CHL1    C8 2160   0.615   1.312   3.290 -0.1011  0.5242 -0.8188
   30CHL1    H8 2161   0.538   1.391   3.311 -0.1598  0.4226 -0.6525
   30CHL1   C14 2162   0.673   1.264   3.418 -0.5120  0.0502 -0.2520
   30CHL1   H14 2163   0.754   1.194   3.387 -0.1284  0.2914  0.1735
   30CHL1   C15 2164   0.584   1.177   3.512  0.2713 -0.2384 -0.7560
   30CHL1  H15A 2165   0.480   1.213   3.526  0.5485  0.0460  0.8370
   30CHL1  H15B 2166   0.584   1.074   3.471  0.4586  0.1338 -1.7307
   30CHL1   C16 2167   0.659   1.178   3.645  0.0343  0.0678  0.7168
   30CHL1  H16A 2168   0.579   1.210   3.715  0.0103  0.8195  0.3550
   30CHL1  H16B 2169   0.706   1.080   3.671  1.3023  0.7132  0.9319
   30CHL1   C17 2170   0.776   1.287   3.633 -0.0736 -0.5194  0.3111
   30CHL1   H17 2171   0.870   1.238   3.600 -0.7258 -2.1004  0.7047
   30CHL1   C13 2172   0.729   1.378   3.514  1.0219  0.4824 -0.1552
   30CHL1   C18 2173   0.611   1.468   3.563  0.4911  0.1026  0.2977
   30CHL1  H18A 2174   0.572   1.530   3.479 -5.4570 -0.3592  2.2906
   30CHL1  H18B 2175   0.529   1.411   3.611  0.3533 -0.8302 -0.9927
   30CHL1  H18C 2176   0.654   1.539   3.637  0.1492  1.9621 -1.2048
   30CHL1   C12 2177   0.838   1.459   3.436  0.6076  0.5570 -0.2292
   30CHL1  H12A 2178   0.862   1.548   3.498  0.9261 -1.0154  2.0192
   30CHL1  H12B 2179   0.927   1.395   3.416  0.0443  0.0130 -1.0798
   30CHL1   C11 2180   0.802   1.492   3.290  0.3013  0.2610  0.3174
   30CHL1  H11A 2181   0.736   1.581   3.297  0.3464  0.6907 -3.1946
   30CHL1  H11B 2182   0.896   1.531   3.247  1.7388 -0.2853  2.7324
   30CHL1    C9 2183   0.737   1.373   3.211 -0.1329  0.2105 -0.6094
   30CHL1    H9 2184   0.809   1.288   3.211 -0.6221 -0.2090  0.0583
   30CHL1   C10 2185   0.710   1.405   3.066  0.1770 -0.1784 -0.9301
   30CHL1   C19 2186   0.632   1.541   3.062 -0.6525 -0.0623 -0.0307
   30CHL1  H19A 2187   0.544   1.537   3.130 -0.2500 -1.6692  0.4449
   30CHL1  H19B 2188   0.709   1.619   3.082  1.8696 -2.2985 -0.3575
   30CHL1  H19C 2189   0.599   1.568   2.960  0.3675 -2.8536 -1.2006
   30CHL1    C1 2190   0.850   1.426   2.988  0.4002  0.0635  0.0769
   30CHL1   H1A 2191   0.898   1.517   3.030  0.7192  0.2887 -0.7696
   30CHL1   H1B 2192   0.911   1.334   2.999  2.6271  1.1603 -2.1400
   30CHL1    C2 2193   0.810   1.443   2.840 -0.3587  0.2666  0.5279
   30CHL1   H2A 2194   0.907   1.450   2.787 -1.2186 -1.1948 -1.3699
   30CHL1   H2B 2195   0.754   1.539   2.826 -0.4775  0.3973  1.7616
   30CHL1   C20 2196   0.821   1.365   3.762 -0.2817 -0.8717  0.3392
   30CHL1   H20 2197   0.762   1.458   3.772  1.8283  0.9220 -2.3433
   30CHL1   C21 2198   0.973   1.399   3.742  0.1200 -0.5510  0.4829
   30CHL1  H21A 2199   1.036   1.309   3.731  1.2251  0.2367  0.1127
   30CHL1  H21B 2200   1.015   1.477   3.809 -1.7243  1.9250 -1.0532
   30CHL1  H21C 2201   0.989   1.455   3.647  0.6278  0.0641  0.9203
   30CHL1   C22 2202   0.809   1.288   3.890  0.0841 -0.3835  0.4887
   30CHL1  H22A 2203   0.702   1.259   3.896  0.6101 -2.3860  1.0195
   30CHL1  H22B 2204   0.865   1.192   3.892  1.3010  0.3104  1.0631
   30CHL1   C23 2205   0.846   1.368   4.020 -0.1659  0.8337 -0.3081
   30CHL1  H23A 2206   0.956   1.377   4.010  0.1540 -1.5416  0.5727
   30CHL1  H23B 2207   0.800   1.469   4.036 -0.7376  0.1501  3.2137
   30CHL1   C24 2208   0.825   1.289   4.157 -0.1983  0.3725 -0.8672
   30CHL1  H24A 2209   0.717   1.306   4.179 -0.2270  0.0149 -0.7300
   30CHL1  H24B 2210   0.841   1.181   4.137 -1.1954  0.5305 -2.7191
   30CHL1   C25 2211   0.918   1.331   4.268 -0.0240  0.0458 -0.4052
   30CHL1   H25 2212   1.020   1.290   4.249 -0.7290 -1.8858 -0.2117
   30CHL1   C26 2213   0.925   1.476   4.293 -0.1699  0.6237 -0.0043
   30CHL1  H26A 2214   0.984   1.532   4.218 -1.0390  0.6433 -0.6985
   30CHL1  H26B 2215   0.826   1.527   4.292 -0.2807  0.4140 -1.2038
   30CHL1  H26C 2216   0.973   1.497   4.391  0.2382 -3.3696  0.8096
   30CHL1   C27 2217   0.867   1.276   4.405  0.1473 -0.4626  0.9461
   30CHL1  H27A 2218   0.944   1.277   4.485 -0.0649  0.8789  1.1581
   30CHL1  H27B 2219   0.781   1.335   4.441 -0.3913 -1.2014  0.8815
   30CHL1  H27C 2220   0.832   1.173   4.385  0.1944 -0.2355 -0.4224
   31CHL1    C3 2221   1.312   2.602   3.012 -0.1175  0.0227  0.0990
   31CHL1    H3 2222   1.201   2.603   3.005 -0.0700  1.6794 -0.9932
   31CHL1    O3 2223   1.365   2.620   2.881  0.2997  0.2242 -0.1702
   31CHL1   H3' 2224   1.451   2.578   2.886 -1.1617 -2.9398  1.0122
   31CHL1    C4 2225   1.350   2.715   3.107 -0.5357 -0.1951 -0.1005
   31CHL1   H4A 2226   1.460   2.728   3.111 -0.6707  0.6999  2.0340
   31CHL1   H4B 2227   1.307   2.810   3.068 -4.0229 -1.1524  1.0292
   31CHL1    C5 2228   1.298   2.688   3.248  0.2231  0.3826  0.1417
   31CHL1    C6 2229   1.220   2.779   3.308  0.7055  0.4339  0.0848
   31CHL1    H6 2230   1.199   2.872   3.254 -2.2712 -0.0193  0.2996
   31CHL1    C7 2231   1.165   2.773   3.449 -0.6693 -0.3539  0.5322
   31CHL1   H7A 2232   1.183   2.872   3.499 -0.4389 -0.6731  1.0954
   31CHL1   H7B 2233   1.058   2.744   3.452 -0.6775 -0.5424 -0.9811
   31CHL1    C8 2234   1.242   2.660   3.523 -0.5333 -0.9284 -0.3370
   31CHL1    H8 2235   1.342   2.698   3.553  0.3984 -1.5447 -2.4610
   31CHL1   C14 2236   1.177   2.624   3.643 -0.5566 -0.1055  0.2221
   31CHL1   H14 2237   1.072   2.609   3.612  0.6142 -0.2133 -4.4773
   31CHL1   C15 2238   1.152   2.739   3.745 -0.2732  0.0315 -0.2519
   31CHL1  H15A 2239   1.252   2.777   3.777 -0.1283 -2.0829  2.1531
   31CHL1  H15B 2240   1.081   2.818   3.712 -0.6283  0.1083  0.6662
   31CHL1   C16 2241   1.104   2.665   3.876  0.1406 -0.3655  0.4867
   31CHL1  H16A 2242   1.160   2.708   3.961  0.0579 -1.1608  0.9462
   31CHL1  H16B 2243   0.998   2.691   3.898 -0.4338 -2.5104  0.4904
   31CHL1   C17 2244   1.125   2.512   3.849  0.2912 -0.1322 -0.2245
   31CHL1   H17 2245   1.026   2.475   3.817  0.6229 -0.7466 -0.5529
   31CHL1   C13 2246   1.226   2.507   3.731 -0.5652  0.1974 -0.7915
   31CHL1   C18 2247   1.370   2.538   3.788  0.2468  0.2103  0.0573
   31CHL1  H18A 2248   1.444   2.567   3.710 -0.3876 -0.5467 -0.8431
   31CHL1  H18B 2249   1.373   2.617   3.866 -0.0532  1.8488 -1.5253
   31CHL1  H18C 2250   1.408   2.449   3.842 -3.2280 -0.8689  0.9497
   31CHL1   C12 2251   1.228   2.383   3.646 -0.5667 -0.1430  0.2710
   31CHL1  H12A 2252   1.273   2.288   3.682 -0.9548  0.4039  2.3338
   31CHL1  H12B 2253   1.125   2.350   3.621 -0.6444  1.3154 -1.6056
   31CHL1   C11 2254   1.301   2.407   3.514 -0.1792  0.8244  0.1947
   31CHL1  H11A 2255   1.410   2.387   3.520 -0.2420  0.0076 -1.1259
   31CHL1  H11B 2256   1.274   2.318   3.454 -1.2514  1.3578 -0.1451
   31CHL1    C9 2257   1.262   2.537   3.440  0.3390  0.6522 -0.1062
   31CHL1    H9 2258   1.162   2.506   3.404  0.9156 -0.6493 -0.6559
   31CHL1   C10 2259   1.344   2.556   3.308 -0.1696  0.2145 -0.5106
   31CHL1   C19 2260   1.492   2.554   3.348 -0.1924  0.3942 -0.1214
   31CHL1  H19A 2261   1.503   2.621   3.436  0.0779  2.2390 -1.5041
   31CHL1  H19B 2262   1.524   2.451   3.371  0.2734  0.6583  0.4437
   31CHL1  H19C 2263   1.557   2.604   3.273 -2.1642  1.0490 -1.4930
   31CHL1    C1 2264   1.295   2.444   3.209  0.5141 -0.6989  0.3867
   31CHL1   H1A 2265   1.339   2.350   3.248  0.3169 -0.5540  0.9759
   31CHL1   H1B 2266   1.184   2.450   3.196  0.6183  2.0298  0.0822
   31CHL1    C2 2267   1.351   2.466   3.065  0.2585  0.2208 -0.2383
   31CHL1   H2A 2268   1.317   2.390   2.992  0.4320 -1.1626  1.0607
   31CHL1   H2B 2269   1.462   2.466   3.068  0.2727  1.3245 -0.1733
   31CHL1   C20 2270   1.173   2.435   3.973  0.2971 -0.0972  0.9540
   31CHL1   H20 2271   1.274   2.466   4.007  0.8121 -0.1329 -0.4669
   31CHL1   C21 2272   1.185   2.279   3.945  0.3539  0.6821 -0.0026
   31CHL1  H21A 2273   1.200   2.234   4.045  1.0236  0.7525 -0.0704
   31CHL1  H21B 2274   1.277   2.249   3.890 -0.0140 -0.6542  0.0603
   31CHL1  H21C 2275   1.094   2.234   3.899 -0.4226  2.7899 -0.6491
   31CHL1   C22 2276   1.086   2.467   4.099 -0.7060  0.2682 -0.5546
   31CHL1  H22A 2277   1.076   2.577   4.116  3.4814  0.5359  1.4442
   31CHL1  H22B 2278   0.992   2.410   4.085 -1.2679  0.9744  0.2126
   31CHL1   C23 2279   1.143   2.410   4.226  0.3985  0.1387 -0.2284
   31CHL1  H23A 2280   1.172   2.303   4.226 -1.9941 -0.5813  0.1508
   31CHL1  H23B 2281   1.233   2.473   4.242  1.0378  0.0545 -2.9902
   31CHL1   C24 2282   1.068   2.443   4.358 -0.7161 -0.2324 -0.0013
   31CHL1  H24A 2283   1.057   2.552   4.376  1.7438  0.1657 -0.5955
   31CHL1  H24B 2284   0.964   2.407   4.343 -1.2431  1.8331 -1.8791
   31CHL1   C25 2285   1.130   2.378   4.484  0.2434 -0.4821  0.1220
   31CHL1   H25 2286   1.113   2.268   4.484 -1.2218 -0.2808 -1.1819
   31CHL1   C26 2287   1.280   2.407   4.493  0.7043 -0.1021  0.0635
   31CHL1  H26A 2288   1.303   2.514   4.512 -1.3421  0.7859 -2.0176
   31CHL1  H26B 2289   1.321   2.349   4.579  0.3798  0.3717  0.5424
   31CHL1  H26C 2290   1.339   2.373   4.405  1.7399  2.9343 -0.5382
   31CHL1   C27 2291   1.063   2.424   4.619  0.0801  0.0027  0.5809
   31CHL1  H27A 2292   0.953   2.413   4.614 -0.0961  1.5030  0.6139
   31CHL1  H27B 2293   1.109   2.383   4.711  0.1381  2.1047  1.5413
   31CHL1  H27C 2294   1.086   2.532   4.634 -2.3152  0.4263  1.6084
   32CHL1    C3 2295   0.303   1.638   2.873  0.0020  0.3080  0.2527
   32CHL1    H3 2296   0.393   1.625   2.938 -0.3397 -0.3270  0.6080
   32CHL1    O3 2297   0.334   1.660   2.738 -0.7552 -0.1282 -0.3133
   32CHL1   H3' 2298   0.264   1.716   2.703 -2.4909 -1.4985  0.8404
   32CHL1    C4 2299   0.213   1.516   2.889 -0.3037  0.1317  0.2547
   32CHL1   H4A 2300   0.115   1.538   2.840  0.1211 -1.6025 -1.4855
   32CHL1   H4B 2301   0.265   1.438   2.829  0.3488  0.1873  0.7319
   32CHL1    C5 2302   0.185   1.488   3.032  0.3676  0.3157  0.6825
   32CHL1    C6 2303   0.212   1.370   3.080  0.7735  0.6241 -0.0921
   32CHL1    H6 2304   0.246   1.288   3.016  0.2996  0.9688 -0.7905
   32CHL1    C7 2305   0.194   1.336   3.229  0.5498 -0.5020  0.0369
   32CHL1   H7A 2306   0.151   1.234   3.232  0.9864 -1.0713 -4.8408
   32CHL1   H7B 2307   0.294   1.332   3.277  0.2141 -0.7851  0.7159
   32CHL1    C8 2308   0.123   1.445   3.314  1.0420  0.3965  0.2340
   32CHL1    H8 2309   0.013   1.432   3.305  0.6036  1.3616  3.1356
   32CHL1   C14 2310   0.162   1.426   3.462 -0.0168 -0.4599  0.1097
   32CHL1   H14 2311   0.268   1.457   3.469 -0.2286  0.2526  0.2638
   32CHL1   C15 2312   0.147   1.281   3.520  0.7004 -0.3479 -0.6001
   32CHL1  H15A 2313   0.047   1.238   3.502 -0.7335  3.3088 -2.2454
   32CHL1  H15B 2314   0.237   1.226   3.485  0.9209  0.6897 -1.7131
   32CHL1   C16 2315   0.162   1.312   3.670 -1.0339 -0.3512 -0.0879
   32CHL1  H16A 2316   0.075   1.265   3.721 -0.8737  0.1439  0.6662
   32CHL1  H16B 2317   0.262   1.274   3.701 -0.9007 -1.5794 -1.8498
   32CHL1   C17 2318   0.152   1.469   3.696  0.0312 -0.1133  0.5226
   32CHL1   H17 2319   0.260   1.494   3.704  0.5763 -2.4902  1.5041
   32CHL1   C13 2320   0.090   1.519   3.558 -0.5241 -0.2801  0.2496
   32CHL1   C18 2321  -0.061   1.485   3.561  0.6768 -0.2604 -0.1127
   32CHL1  H18A 2322  -0.117   1.557   3.625  0.6879  0.0574 -0.4544
   32CHL1  H18B 2323  -0.095   1.504   3.457  2.0193 -0.6215 -0.6323
   32CHL1  H18C 2324  -0.095   1.392   3.611 -2.8270  0.7720 -0.2717
   32CHL1   C12 2325   0.124   1.665   3.513 -0.0708 -0.0821  0.2370
   32CHL1  H12A 2326   0.056   1.724   3.578  1.1871  0.3348  1.2245
   32CHL1  H12B 2327   0.231   1.682   3.537  0.6706 -1.6298 -1.6481
   32CHL1   C11 2328   0.100   1.691   3.367  0.9371  0.4335  0.4470
   32CHL1  H11A 2329  -0.010   1.701   3.355  0.9130  1.8902  1.7064
   32CHL1  H11B 2330   0.138   1.793   3.349 -1.6597  1.0548 -2.4849
   32CHL1    C9 2331   0.165   1.581   3.272  0.6568 -0.5626  0.0464
   32CHL1    H9 2332   0.275   1.578   3.288  0.8823  0.2547 -1.2408
   32CHL1   C10 2333   0.138   1.608   3.122 -0.4306  0.8852  0.7927
   32CHL1   C19 2334  -0.014   1.630   3.085 -0.3857  0.0886 -0.5530
   32CHL1  H19A 2335  -0.047   1.725   3.134  0.6724 -0.9192  2.3339
   32CHL1  H19B 2336  -0.030   1.632   2.975  3.0851 -2.0620 -1.2532
   32CHL1  H19C 2337  -0.062   1.537   3.122  0.5765  0.9949  3.4337
   32CHL1    C1 2338   0.210   1.742   3.075 -0.0489 -0.3651  0.1246
   32CHL1   H1A 2339   0.159   1.828   3.123 -1.2585 -0.7487 -0.4254
   32CHL1   H1B 2340   0.309   1.741   3.125 -1.0142 -4.3274  2.4357
   32CHL1    C2 2341   0.233   1.765   2.925 -0.0171 -0.4696 -0.1728
   32CHL1   H2A 2342   0.300   1.852   2.912  0.0300 -0.4803 -0.0017
   32CHL1   H2B 2343   0.137   1.777   2.870 -0.1813 -1.3465 -0.0856
   32CHL1   C20 2344   0.083   1.515   3.829 -0.7172  0.7639  0.5187
   32CHL1   H20 2345  -0.025   1.491   3.825 -0.4552 -0.4909  0.5789
   32CHL1   C21 2346   0.111   1.666   3.846  0.9241  0.0389  0.3654
   32CHL1  H21A 2347   0.074   1.702   3.944 -0.5959  1.2851 -0.6289
   32CHL1  H21B 2348   0.050   1.717   3.768  1.3086  0.2833  0.2167
   32CHL1  H21C 2349   0.220   1.690   3.836  0.9277  0.1451  0.6620
   32CHL1   C22 2350   0.148   1.426   3.946 -0.5022 -0.5253 -0.1067
   32CHL1  H22A 2351   0.154   1.318   3.918 -0.4398 -0.5744  0.0946
   32CHL1  H22B 2352   0.254   1.456   3.959 -0.7184 -0.0348  0.5372
   32CHL1   C23 2353   0.070   1.449   4.079  0.1722  0.2728 -0.4602
   32CHL1  H23A 2354   0.141   1.403   4.151  2.9649  0.6006 -2.7820
   32CHL1  H23B 2355   0.080   1.558   4.099 -0.2577 -0.0795  1.8783
   32CHL1   C24 2356  -0.066   1.391   4.100  0.4557  0.2369  0.9753
   32CHL1  H24A 2357  -0.146   1.450   4.048 -0.2603 -0.4857  1.2323
   32CHL1  H24B 2358  -0.064   1.291   4.052  0.4215  0.2848  0.8734
   32CHL1   C25 2359  -0.108   1.377   4.249  0.4067  0.3373  0.0204
   32CHL1   H25 2360  -0.034   1.315   4.304 -1.9944 -2.3555  0.4345
   32CHL1   C26 2361  -0.141   1.514   4.320 -0.3844  0.0072 -1.1405
   32CHL1  H26A 2362  -0.195   1.497   4.415 -0.2737  1.6429 -0.7435
   32CHL1  H26B 2363  -0.050   1.574   4.343 -0.5984  0.8998 -2.4645
   32CHL1  H26C 2364  -0.202   1.568   4.244 -0.2487  1.7033 -0.1131
   32CHL1   C27 2365  -0.240   1.296   4.259  0.3819  0.2588 -0.6322
   32CHL1  H27A 2366  -0.276   1.299   4.364  1.9275 -0.5752 -0.0366
   32CHL1  H27B 2367  -0.312   1.347   4.192  0.5787  2.2963  0.6048
   32CHL1  H27C 2368  -0.216   1.194   4.221  0.8583  0.9839 -2.3866
   33CHL1    C3 2369   2.386   1.425   2.662 -0.7621 -0.2168  0.0864
   33CHL1    H3 2370   2.413   1.317   2.663 -1.4083 -0.4245 -1.5839
   33CHL1    O3 2371   2.361   1.460   2.525 -0.0220 -0.3825 -0.0415
   33CHL1   H3' 2372   2.453   1.459   2.496 -0.2409 -0.9414 -0.7572
   33CHL1    C4 2373   2.256   1.443   2.737  0.9602 -0.2593 -0.5010
   33CHL1   H4A 2374   2.215   1.544   2.718  1.5138  0.3834  1.5204
   33CHL1   H4B 2375   2.180   1.370   2.702  1.7428 -2.2258  1.6313
   33CHL1    C5 2376   2.281   1.428   2.891  0.3875  0.6999  0.4630
   33CHL1    C6 2377   2.204   1.338   2.953 -0.4815 -0.4961 -0.3430
   33CHL1    H6 2378   2.130   1.284   2.891 -0.9397  1.1802 -1.3089
   33CHL1    C7 2379   2.215   1.316   3.100 -0.1473  0.1177 -0.3856
   33CHL1   H7A 2380   2.111   1.325   3.138  0.7603  2.0398  1.8910
   33CHL1   H7B 2381   2.249   1.212   3.122 -1.2365  0.0957  1.3801
   33CHL1    C8 2382   2.313   1.418   3.170  0.5798 -0.1138 -0.1586
   33CHL1    H8 2383   2.252   1.510   3.179  0.5908 -0.2469  1.6048
   33CHL1   C14 2384   2.352   1.374   3.312 -0.5562 -0.4826 -0.7322
   33CHL1   H14 2385   2.414   1.282   3.305  0.5201 -0.0596  1.9962
   33CHL1   C15 2386   2.234   1.345   3.407 -0.4394  0.2915  0.4723
   33CHL1  H15A 2387   2.155   1.421   3.391  0.0765  0.1348 -3.7523
   33CHL1  H15B 2388   2.191   1.242   3.402  0.5933 -0.2478  1.8586
   33CHL1   C16 2389   2.301   1.355   3.541  0.6239  0.3614  0.1997
   33CHL1  H16A 2390   2.238   1.413   3.613  0.8455  0.0231  0.6714
   33CHL1  H16B 2391   2.315   1.249   3.569  1.6644  0.5039  0.2879
   33CHL1   C17 2392   2.442   1.423   3.533 -0.0143  0.1705 -0.2340
   33CHL1   H17 2393   2.521   1.345   3.527 -0.6160 -0.4911  0.2419
   33CHL1   C13 2394   2.432   1.482   3.387 -0.3930  0.5481 -0.6991
   33CHL1   C18 2395   2.357   1.618   3.401  0.1047 -0.1636  0.1772
   33CHL1  H18A 2396   2.352   1.677   3.307 -1.0948  0.2869  0.5014
   33CHL1  H18B 2397   2.250   1.613   3.431  0.0210  0.8029  0.0825
   33CHL1  H18C 2398   2.408   1.693   3.464 -0.5683 -0.6121  1.2788
   33CHL1   C12 2399   2.568   1.493   3.315  0.2177  0.1053  0.4354
   33CHL1  H12A 2400   2.620   1.576   3.366 -2.8252  1.9506  0.7541
   33CHL1  H12B 2401   2.634   1.404   3.326  0.9337  0.3477 -1.4252
   33CHL1   C11 2402   2.551   1.529   3.161  0.0416  0.4127 -0.0356
   33CHL1  H11A 2403   2.522   1.636   3.161 -0.7417  0.2342 -1.4417
   33CHL1  H11B 2404   2.653   1.518   3.119  0.3210 -1.8934  1.1147
   33CHL1    C9 2405   2.440   1.445   3.092  0.8096  0.2077  0.4652
   33CHL1    H9 2406   2.483   1.343   3.076  1.1863  0.5002 -0.4474
   33CHL1   C10 2407   2.402   1.501   2.951  0.5424  0.0529 -0.0921
   33CHL1   C19 2408   2.360   1.656   2.955 -0.1242  0.6417 -0.0117
   33CHL1  H19A 2409   2.284   1.674   3.033  0.8364 -1.1286  1.4148
   33CHL1  H19B 2410   2.452   1.717   2.966 -0.2203  1.1942 -1.8835
   33CHL1  H19C 2411   2.313   1.687   2.859  0.8028  0.0091 -0.6954
   33CHL1    C1 2412   2.528   1.497   2.865 -0.2505 -0.2562  0.2622
   33CHL1   H1A 2413   2.592   1.584   2.893  0.0088 -0.4653  0.3231
   33CHL1   H1B 2414   2.566   1.393   2.880 -1.2709 -1.1605 -2.7032
   33CHL1    C2 2415   2.500   1.512   2.714 -0.1224  0.4484  0.1701
   33CHL1   H2A 2416   2.597   1.487   2.665 -0.1716  1.5655 -0.5180
   33CHL1   H2B 2417   2.473   1.616   2.689  0.0147  0.2608 -0.7919
   33CHL1   C20 2418   2.466   1.505   3.662 -0.4842  0.5721  0.2363
   33CHL1   H20 2419   2.382   1.578   3.668 -1.3292 -0.1961 -1.4962
   33CHL1   C21 2420   2.608   1.575   3.656  0.7115  0.9151 -0.2778
   33CHL1  H21A 2421   2.622   1.625   3.755  0.6986 -0.2963  0.3490
   33CHL1  H21B 2422   2.600   1.650   3.574  0.7841  1.5449  0.2773
   33CHL1  H21C 2423   2.686   1.499   3.636 -0.7231 -0.1522 -2.0824
   33CHL1   C22 2424   2.452   1.414   3.784 -0.1584 -0.5999 -0.6234
   33CHL1  H22A 2425   2.406   1.316   3.761 -0.5553 -0.5744  0.0444
   33CHL1  H22B 2426   2.556   1.383   3.809  0.0456 -0.2163 -0.9756
   33CHL1   C23 2427   2.407   1.497   3.910 -0.0567 -0.1562  0.3438
   33CHL1  H23A 2428   2.483   1.577   3.913  0.4648 -0.6600  0.7682
   33CHL1  H23B 2429   2.310   1.547   3.888  0.3958  2.1504  3.0396
   33CHL1   C24 2430   2.404   1.427   4.047  0.6698  0.2304  0.3520
   33CHL1  H24A 2431   2.389   1.504   4.126  1.1329  2.4304 -1.6003
   33CHL1  H24B 2432   2.318   1.358   4.038 -1.2302  2.4852  0.0440
   33CHL1   C25 2433   2.531   1.349   4.085 -0.6014  0.6383  0.3698
   33CHL1   H25 2434   2.565   1.294   3.994  0.4173  2.1206 -0.1819
   33CHL1   C26 2435   2.648   1.439   4.130 -0.0717  0.3138  0.5218
   33CHL1  H26A 2436   2.740   1.379   4.149 -0.5196  0.4125  3.3242
   33CHL1  H26B 2437   2.654   1.526   4.061 -0.4977  0.5561  0.7915
   33CHL1  H26C 2438   2.629   1.474   4.233 -0.6240  1.8909 -0.0907
   33CHL1   C27 2439   2.507   1.247   4.196  0.4857 -0.2719  0.0226
   33CHL1  H27A 2440   2.430   1.176   4.158 -0.1628  0.0085  0.7657
   33CHL1  H27B 2441   2.605   1.200   4.216  0.4302  0.3622  2.0122
   33CHL1  H27C 2442   2.466   1.291   4.290  2.6101  1.6938  0.1209
   34CHL1    C3 2443   1.431   1.243   2.704  0.0351 -0.0052 -0.0257
   34CHL1    H3 2444   1.514   1.177   2.735 -1.8621 -1.6345  1.8759
   34CHL1    O3 2445   1.422   1.246   2.566 -0.3717  0.7295 -0.4859
   34CHL1   H3' 2446   1.328   1.245   2.548 -0.9413  0.1140  2.1695
   34CHL1    C4 2447   1.303   1.214   2.776  1.1112  0.3777  0.1045
   34CHL1   H4A 2448   1.214   1.269   2.738  1.7134  0.4236 -1.3006
   34CHL1   H4B 2449   1.294   1.106   2.750  2.4168  0.0737  0.8517
   34CHL1    C5 2450   1.302   1.235   2.923  0.7893 -0.9340 -0.0985
   34CHL1    C6 2451   1.270   1.132   2.999  0.5434  0.0286 -0.3194
   34CHL1    H6 2452   1.241   1.039   2.948 -0.1036  0.5210 -0.8751
   34CHL1    C7 2453   1.268   1.146   3.150  0.0292  0.7157  0.5482
   34CHL1   H7A 2454   1.170   1.117   3.192 -0.2287  0.3090 -0.3025
   34CHL1   H7B 2455   1.346   1.076   3.186 -1.3589 -0.9090  0.5071
   34CHL1    C8 2456   1.293   1.290   3.200  0.4802 -0.4011 -0.2889
   34CHL1    H8 2457   1.192   1.336   3.199 -0.7495 -2.8595  0.9447
   34CHL1   C14 2458   1.334   1.274   3.343  0.3456  0.0116 -0.0740
   34CHL1   H14 2459   1.437   1.234   3.338  1.3953  2.6233 -1.6080
   34CHL1   C15 2460   1.253   1.189   3.435  0.6161  0.2882  0.1788
   34CHL1  H15A 2461   1.145   1.207   3.415  0.3123 -0.7113  0.8320
   34CHL1  H15B 2462   1.264   1.080   3.420 -2.4362  0.0567 -1.1989
   34CHL1   C16 2463   1.279   1.234   3.579  0.1490 -0.0184  0.2876
   34CHL1  H16A 2464   1.182   1.261   3.625 -0.3069 -1.8579  0.5116
   34CHL1  H16B 2465   1.313   1.153   3.649 -0.0061 -0.1778  0.1779
   34CHL1   C17 2466   1.377   1.357   3.563  0.6223 -0.3106 -0.0073
   34CHL1   H17 2467   1.481   1.319   3.570  1.2720  1.6398  2.1852
   34CHL1   C13 2468   1.345   1.408   3.416 -0.9281  0.0281  0.4966
   34CHL1   C18 2469   1.211   1.480   3.422  0.4042 -0.1349 -0.2483
   34CHL1  H18A 2470   1.165   1.486   3.321 -0.1368  1.2892  0.0607
   34CHL1  H18B 2471   1.138   1.434   3.492 -0.9247  1.1882 -0.7072
   34CHL1  H18C 2472   1.201   1.587   3.453 -1.1219 -0.9116  2.2943
   34CHL1   C12 2473   1.450   1.486   3.347 -0.0838 -0.6374 -0.0143
   34CHL1  H12A 2474   1.431   1.590   3.381  0.4119 -0.9101  1.1761
   34CHL1  H12B 2475   1.551   1.457   3.383 -0.9397 -1.5471  1.8299
   34CHL1   C11 2476   1.420   1.494   3.199 -0.2344  0.5425  0.0119
   34CHL1  H11A 2477   1.326   1.549   3.175 -0.7732 -0.3251  0.0812
   34CHL1  H11B 2478   1.504   1.549   3.152  1.4782  0.2279  2.4595
   34CHL1    C9 2479   1.400   1.361   3.121  0.0720 -0.3571 -0.1995
   34CHL1    H9 2480   1.497   1.309   3.127 -0.5292 -1.5355 -0.3886
   34CHL1   C10 2481   1.357   1.366   2.971 -0.3546 -0.5701 -0.4065
   34CHL1   C19 2482   1.245   1.469   2.940 -0.3225  0.4874  0.1560
   34CHL1  H19A 2483   1.149   1.436   2.983  0.2821 -0.4081  0.8559
   34CHL1  H19B 2484   1.262   1.570   2.983  0.9739 -0.9022  3.2247
   34CHL1  H19C 2485   1.238   1.488   2.830  0.1448 -0.0381  0.0292
   34CHL1    C1 2486   1.488   1.392   2.889 -0.7951  0.1597 -0.2429
   34CHL1   H1A 2487   1.534   1.488   2.922 -1.3506  0.2377  0.3292
   34CHL1   H1B 2488   1.555   1.310   2.923 -1.7683 -0.0534  1.2358
   34CHL1    C2 2489   1.477   1.381   2.741 -0.2555 -0.2910  0.3697
   34CHL1   H2A 2490   1.580   1.409   2.710  1.3853 -3.7023  2.1528
   34CHL1   H2B 2491   1.413   1.466   2.707 -1.4214 -0.7805  1.2628
   34CHL1   C20 2492   1.380   1.463   3.677  0.3595  0.3755 -0.5233
   34CHL1   H20 2493   1.286   1.521   3.661  0.4158  0.4134 -0.7193
   34CHL1   C21 2494   1.503   1.554   3.663 -0.1795 -0.8045  0.6062
   34CHL1  H21A 2495   1.469   1.647   3.713  0.8160 -0.7154  1.1472
   34CHL1  H21B 2496   1.542   1.576   3.561  1.5904 -0.6283  1.2854
   34CHL1  H21C 2497   1.589   1.518   3.724  0.2108 -1.6481 -0.4026
   34CHL1   C22 2498   1.377   1.401   3.819 -0.5090 -0.1387 -0.6941
   34CHL1  H22A 2499   1.283   1.343   3.836  1.3167 -2.6443  1.7841
   34CHL1  H22B 2500   1.455   1.328   3.850 -0.6373 -0.1084 -0.2899
   34CHL1   C23 2501   1.368   1.516   3.932 -0.1815  0.2995 -0.4714
   34CHL1  H23A 2502   1.464   1.570   3.922 -0.2292  0.6731  0.9452
   34CHL1  H23B 2503   1.280   1.579   3.906 -1.5983 -1.6337 -0.5926
   34CHL1   C24 2504   1.353   1.471   4.078  0.0970 -0.0169  0.5354
   34CHL1  H24A 2505   1.258   1.414   4.086  1.1184 -1.7366  1.1537
   34CHL1  H24B 2506   1.435   1.397   4.091  0.8028  0.6770  0.1245
   34CHL1   C25 2507   1.373   1.589   4.173  0.2473  0.2525 -0.4878
   34CHL1   H25 2508   1.306   1.672   4.140 -3.8504 -3.0793 -1.5323
   34CHL1   C26 2509   1.323   1.532   4.308  0.1993 -0.1006 -0.3300
   34CHL1  H26A 2510   1.341   1.596   4.397  1.9753 -1.8018  0.6072
   34CHL1  H26B 2511   1.215   1.506   4.309  0.2493 -0.3017  0.0024
   34CHL1  H26C 2512   1.376   1.437   4.330  3.6179  1.7926  0.2690
   34CHL1   C27 2513   1.515   1.646   4.190 -0.2540 -0.2620  0.3860
   34CHL1  H27A 2514   1.514   1.740   4.248 -1.2390  0.5225 -0.8525
   34CHL1  H27B 2515   1.564   1.574   4.258 -0.0039  0.2802  0.7802
   34CHL1  H27C 2516   1.571   1.655   4.095 -0.3174 -2.0391  0.1466
   35CHL1    C3 2517   2.780   6.735   2.664 -0.8909  0.1727  0.1802
   35CHL1    H3 2518   2.889   6.716   2.661 -0.7407  0.9702  0.2972
   35CHL1    O3 2519   2.741   6.725   2.530 -0.2560  0.7273 -0.1735
   35CHL1   H3' 2520   2.727   6.632   2.511  2.2679  0.3899 -0.7212
   35CHL1    C4 2521   2.700   6.628   2.746  0.1231  0.2425  0.1606
   35CHL1   H4A 2522   2.592   6.631   2.719  0.3792 -0.4623 -0.9976
   35CHL1   H4B 2523   2.739   6.532   2.707  0.3863  0.6249 -0.5474
   35CHL1    C5 2524   2.719   6.645   2.895 -0.0431  0.0290 -0.4632
   35CHL1    C6 2525   2.756   6.537   2.960  0.1367  0.8397 -0.6209
   35CHL1    H6 2526   2.747   6.437   2.914 -0.2618  1.2545 -1.4691
   35CHL1    C7 2527   2.765   6.534   3.109  1.1102 -0.3559  0.4622
   35CHL1   H7A 2528   2.715   6.446   3.155  0.9162 -0.7877 -0.5634
   35CHL1   H7B 2529   2.873   6.513   3.128  0.7270 -2.2472  0.7397
   35CHL1    C8 2530   2.711   6.662   3.174 -0.7773  0.1303 -0.1248
   35CHL1    H8 2531   2.601   6.648   3.167 -0.5492 -1.4401 -0.8724
   35CHL1   C14 2532   2.752   6.667   3.316  0.2056 -0.4634  0.2704
   35CHL1   H14 2533   2.862   6.684   3.322  0.3367 -0.8986 -0.7025
   35CHL1   C15 2534   2.723   6.540   3.400 -0.1711  0.6498  0.2530
   35CHL1  H15A 2535   2.629   6.496   3.361 -0.2822  1.2287 -0.1487
   35CHL1  H15B 2536   2.808   6.468   3.392 -0.8908 -0.5030  2.2558
   35CHL1   C16 2537   2.718   6.594   3.543 -0.8161  0.2628 -0.3421
   35CHL1  H16A 2538   2.621   6.574   3.594 -0.3560  0.7834  0.7485
   35CHL1  H16B 2539   2.794   6.550   3.610  1.9867 -0.5093 -3.7506
   35CHL1   C17 2540   2.742   6.749   3.535 -0.7272  0.6216 -0.7492
   35CHL1   H17 2541   2.853   6.746   3.540 -0.7830 -2.7356  1.9247
   35CHL1   C13 2542   2.691   6.779   3.395  0.2510  0.2749 -0.3684
   35CHL1   C18 2543   2.534   6.770   3.386 -0.3808 -0.4296 -0.2520
   35CHL1  H18A 2544   2.496   6.804   3.287 -0.0238  2.3138  0.4582
   35CHL1  H18B 2545   2.505   6.666   3.412 -0.5599 -0.3970 -0.3213
   35CHL1  H18C 2546   2.497   6.844   3.460  1.2670  0.0834  0.1007
   35CHL1   C12 2547   2.748   6.916   3.331  0.1316 -0.1076 -0.7623
   35CHL1  H12A 2548   2.703   7.013   3.359 -0.2648  0.1292 -2.1314
   35CHL1  H12B 2549   2.853   6.906   3.364 -0.5817  0.4182  1.8934
   35CHL1   C11 2550   2.714   6.920   3.181 -0.8215  0.4725 -0.5228
   35CHL1  H11A 2551   2.605   6.938   3.175 -0.6927  0.9539 -1.7984
   35CHL1  H11B 2552   2.770   7.003   3.134  0.9227 -0.9272 -1.0501
   35CHL1    C9 2553   2.750   6.791   3.103  0.3937  0.5129  0.1753
   35CHL1    H9 2554   2.860   6.784   3.115  0.1633  0.4959  2.6430
   35CHL1   C10 2555   2.703   6.788   2.957 -0.3056  0.0629  1.0466
   35CHL1   C19 2556   2.554   6.823   2.956  0.4087 -0.2925 -0.2267
   35CHL1  H19A 2557   2.540   6.930   2.983 -0.1062 -0.8259  1.7870
   35CHL1  H19B 2558   2.496   6.800   2.864  0.9535 -1.9063 -0.1969
   35CHL1  H19C 2559   2.506   6.770   3.040 -0.5327  1.7012  0.5554
   35CHL1    C1 2560   2.786   6.879   2.875 -0.3142 -0.5218  0.1085
   35CHL1   H1A 2561   2.771   6.982   2.913  3.5752  0.8005 -1.4501
   35CHL1   H1B 2562   2.890   6.843   2.890  0.0734 -0.1684 -1.5450
   35CHL1    C2 2563   2.758   6.868   2.725 -0.3154  0.0677 -0.0360
   35CHL1   H2A 2564   2.809   6.946   2.663  0.9010 -1.0442 -0.4939
   35CHL1   H2B 2565   2.652   6.897   2.709  0.0841  0.4436 -2.5357
   35CHL1   C20 2566   2.692   6.825   3.660 -0.3851 -0.1761  0.0759
   35CHL1   H20 2567   2.583   6.804   3.662 -0.5052  0.2699 -0.9448
   35CHL1   C21 2568   2.718   6.973   3.634 -0.6471  0.1175  0.8360
   35CHL1  H21A 2569   2.639   7.008   3.563  1.1958  2.6092 -0.1485
   35CHL1  H21B 2570   2.819   7.004   3.602 -1.2486  0.2665 -1.0469
   35CHL1  H21C 2571   2.690   7.036   3.721 -1.1684  0.8633  0.1461
   35CHL1   C22 2572   2.757   6.767   3.784 -0.3103  1.1609  0.0010
   35CHL1  H22A 2573   2.711   6.667   3.800  1.6568  0.0337 -1.0280
   35CHL1  H22B 2574   2.865   6.749   3.765  0.1102  1.9553  1.5023
   35CHL1   C23 2575   2.736   6.858   3.904 -0.1846  0.0186  0.8498
   35CHL1  H23A 2576   2.801   6.948   3.900  1.6690 -1.2938  0.5629
   35CHL1  H23B 2577   2.634   6.901   3.892  0.0322  0.3569  0.1637
   35CHL1   C24 2578   2.755   6.779   4.033  0.4205 -0.2031  0.4430
   35CHL1  H24A 2579   2.660   6.720   4.031  0.4302 -0.2072 -0.3668
   35CHL1  H24B 2580   2.836   6.704   4.035  1.2305  0.6302 -0.2738
   35CHL1   C25 2581   2.755   6.865   4.164 -0.5286 -0.8902  0.2014
   35CHL1   H25 2582   2.843   6.932   4.154 -0.5918 -0.9932 -1.2403
   35CHL1   C26 2583   2.625   6.945   4.178 -0.3487  0.4125  0.8513
   35CHL1  H26A 2584   2.539   6.876   4.171 -0.8100  1.0855 -0.6247
   35CHL1  H26B 2585   2.619   7.001   4.273 -3.1152  1.5642  0.1067
   35CHL1  H26C 2586   2.610   7.021   4.097  0.0602 -0.3739  0.0118
   35CHL1   C27 2587   2.781   6.780   4.293 -0.1134 -0.8446 -0.7672
   35CHL1  H27A 2588   2.873   6.720   4.274  0.6585 -0.4344  1.4119
   35CHL1  H27B 2589   2.798   6.852   4.376  1.4615 -0.1201 -1.6796
   35CHL1  H27C 2590   2.701   6.710   4.322  1.1981 -1.5412  1.3587
   36CHL1    C3 2591   0.783   4.592   2.894 -0.6560 -0.0186 -0.1932
   36CHL1    H3 2592   0.676   4.618   2.904 -0.5863  0.4640 -0.6777
   36CHL1    O3 2593   0.805   4.577   2.755  0.3116  0.2471  0.0513
   36CHL1   H3' 2594   0.898   4.577   2.733  0.4467 -0.3726  0.6216
   36CHL1    C4 2595   0.858   4.705   2.960  0.5761  1.0628  0.2326
   36CHL1   H4A 2596   0.965   4.697   2.933  0.1422 -0.5935 -1.1734
   36CHL1   H4B 2597   0.826   4.802   2.915 -3.3773  0.4066  1.2751
   36CHL1    C5 2598   0.844   4.713   3.109 -0.0850 -0.0091 -0.0545
   36CHL1    C6 2599   0.801   4.821   3.177  0.5251  0.0389 -0.3514
   36CHL1    H6 2600   0.768   4.909   3.119 -0.1651 -1.1818 -1.9097
   36CHL1    C7 2601   0.790   4.829   3.330  0.2689 -0.5848 -0.2255
   36CHL1   H7A 2602   0.812   4.929   3.374  0.7303 -1.5646  1.8936
   36CHL1   H7B 2603   0.688   4.804   3.366  1.2252 -1.3806  2.0672
   36CHL1    C8 2604   0.880   4.722   3.400  0.5645 -0.1276 -0.4615
   36CHL1    H8 2605   0.985   4.759   3.403  0.9717 -1.1753 -1.4127
   36CHL1   C14 2606   0.836   4.716   3.541 -0.2925  0.4423 -0.3697
   36CHL1   H14 2607   0.727   4.694   3.544 -0.2397  0.1148 -0.8026
   36CHL1   C15 2608   0.863   4.841   3.625  0.2505  0.4570  0.0627
   36CHL1  H15A 2609   0.964   4.878   3.597  0.9054 -1.2125  0.1486
   36CHL1  H15B 2610   0.781   4.913   3.600 -1.1901 -1.1193  0.0796
   36CHL1   C16 2611   0.856   4.792   3.769  0.0886  0.1326 -0.6977
   36CHL1  H16A 2612   0.947   4.824   3.823 -0.5239  0.9861 -0.1535
   36CHL1  H16B 2613   0.759   4.832   3.806 -1.3991 -2.1481 -1.9159
   36CHL1   C17 2614   0.854   4.638   3.762  0.4782  0.2761 -0.0129
   36CHL1   H17 2615   0.748   4.602   3.759  0.2987  0.8497 -1.7728
   36CHL1   C13 2616   0.909   4.603   3.625  0.3762  0.0880 -0.4862
   36CHL1   C18 2617   1.063   4.615   3.626  0.1639 -0.5650  0.0905
   36CHL1  H18A 2618   1.097   4.618   3.520  0.3507  0.0663  0.1618
   36CHL1  H18B 2619   1.102   4.707   3.675  0.9239 -1.7121  1.7489
   36CHL1  H18C 2620   1.118   4.524   3.658 -0.1664 -0.4793  0.9420
   36CHL1   C12 2621   0.863   4.471   3.565 -0.6746 -0.2046 -0.0849
   36CHL1  H12A 2622   0.911   4.382   3.611  0.8992  0.6933  0.1132
   36CHL1  H12B 2623   0.754   4.452   3.577 -0.5276 -1.0406  0.0264
   36CHL1   C11 2624   0.904   4.469   3.418 -0.2764  0.3927 -0.3673
   36CHL1  H11A 2625   1.014   4.455   3.404 -0.3318 -0.4309 -0.0198
   36CHL1  H11B 2626   0.849   4.382   3.375  1.1702  0.4436 -2.4729
   36CHL1    C9 2627   0.859   4.589   3.333  0.2100 -0.0319 -0.1068
   36CHL1    H9 2628   0.749   4.582   3.342  0.3814 -0.8509  2.4475
   36CHL1   C10 2629   0.886   4.587   3.182  1.1697 -0.2573 -0.1308
   36CHL1   C19 2630   1.039   4.574   3.167  0.1603 -0.1680  0.3005
   36CHL1  H19A 2631   1.065   4.478   3.216  1.1994  0.7399  1.6049
   36CHL1  H19B 2632   1.065   4.573   3.059 -3.4839  1.4800 -0.7339
   36CHL1  H19C 2633   1.092   4.661   3.213 -2.2104  2.0140 -0.8421
   36CHL1    C1 2634   0.804   4.467   3.118 -0.1947  0.3577  0.5356
   36CHL1   H1A 2635   0.838   4.366   3.149 -2.0941 -0.8333 -1.0367
   36CHL1   H1B 2636   0.697   4.474   3.146 -0.7518 -0.6762 -1.2099
   36CHL1    C2 2637   0.817   4.460   2.964 -0.0565  0.6531  1.0283
   36CHL1   H2A 2638   0.729   4.397   2.939  0.5140  0.1706  0.2136
   36CHL1   H2B 2639   0.909   4.415   2.923  0.0228  0.3847  1.4893
   36CHL1   C20 2640   0.921   4.574   3.882  0.6632 -0.5117  0.2715
   36CHL1   H20 2641   1.026   4.610   3.893  0.4614  0.2078 -0.0756
   36CHL1   C21 2642   0.905   4.423   3.872 -0.3777 -0.0071 -1.2329
   36CHL1  H21A 2643   0.808   4.383   3.835 -1.1306 -1.6891  2.1463
   36CHL1  H21B 2644   0.905   4.380   3.974  1.5519  1.6684 -0.4489
   36CHL1  H21C 2645   0.986   4.375   3.812  0.2035 -0.7993  0.1391
   36CHL1   C22 2646   0.855   4.623   4.013 -0.0546 -0.1543 -0.3905
   36CHL1  H22A 2647   0.845   4.733   3.999 -0.8469 -0.2980 -1.0257
   36CHL1  H22B 2648   0.753   4.580   4.024 -0.4474 -0.5453 -4.1558
   36CHL1   C23 2649   0.941   4.599   4.141 -0.0213 -0.8144 -0.0435
   36CHL1  H23A 2650   0.930   4.490   4.162 -0.5285 -0.9676 -1.0578
   36CHL1  H23B 2651   1.048   4.625   4.129 -0.0950 -0.5328 -0.1006
   36CHL1   C24 2652   0.891   4.692   4.261 -0.1419  0.4113 -0.1281
   36CHL1  H24A 2653   0.938   4.789   4.236  3.4063 -1.0319  0.2799
   36CHL1  H24B 2654   0.782   4.713   4.253 -0.2741 -0.6429 -1.9288
   36CHL1   C25 2655   0.940   4.645   4.399 -0.2091 -0.1699 -0.2177
   36CHL1   H25 2656   0.916   4.537   4.407 -0.1430 -0.1957 -0.3596
   36CHL1   C26 2657   1.093   4.683   4.409 -0.2023 -0.2500 -0.4899
   36CHL1  H26A 2658   1.130   4.662   4.512  0.0010 -1.7050 -0.8269
   36CHL1  H26B 2659   1.148   4.627   4.329  1.6372  1.6036 -0.6000
   36CHL1  H26C 2660   1.103   4.791   4.388 -2.2306  0.0145 -0.2318
   36CHL1   C27 2661   0.864   4.716   4.516  0.5255 -0.3961  0.8759
   36CHL1  H27A 2662   0.895   4.823   4.519  0.1627 -0.2475 -0.3165
   36CHL1  H27B 2663   0.753   4.713   4.518  0.4964 -0.7979 -0.6780
   36CHL1  H27C 2664   0.899   4.678   4.615  2.4388  0.6896  0.6581
   37CHL1    C3 2665   0.158   2.885   3.028 -0.6929 -0.1144 -0.4422
   37CHL1    H3 2666   0.115   2.784   3.042 -0.8242  0.1587  1.4456
   37CHL1    O3 2667   0.173   2.909   2.888 -0.1362 -0.8742 -0.0913
   37CHL1   H3' 2668   0.214   2.995   2.887 -0.9626 -0.4625 -1.7999
   37CHL1    C4 2669   0.066   2.997   3.082 -0.3093 -0.4807 -0.4231
   37CHL1   H4A 2670   0.126   3.086   3.053 -0.2673 -0.4839 -0.3453
   37CHL1   H4B 2671  -0.036   3.000   3.038 -0.5628  0.2399  0.1819
   37CHL1    C5 2672   0.047   3.001   3.233 -0.4511 -0.1407 -0.3410
   37CHL1    C6 2673  -0.071   3.003   3.285 -0.1714  0.3373 -0.6346
   37CHL1    H6 2674  -0.162   3.001   3.224 -2.0314 -0.8181  1.9732
   37CHL1    C7 2675  -0.103   2.997   3.427 -0.7012  0.0441 -0.5457
   37CHL1   H7A 2676  -0.173   3.081   3.450  0.5660  1.0209 -0.1387
   37CHL1   H7B 2677  -0.143   2.897   3.454 -0.6171 -0.2424 -1.4401
   37CHL1    C8 2678   0.025   3.016   3.517 -0.0201  0.0608  0.1736
   37CHL1    H8 2679   0.052   3.124   3.524 -2.3712  0.6950  0.1453
   37CHL1   C14 2680   0.001   2.965   3.654  0.1233 -0.0889  0.3088
   37CHL1   H14 2681  -0.026   2.857   3.657 -1.4732  0.3076  0.9353
   37CHL1   C15 2682  -0.109   3.033   3.729  0.1240 -0.0826  0.1966
   37CHL1  H15A 2683  -0.085   3.141   3.718 -2.1760  0.3022 -2.0930
   37CHL1  H15B 2684  -0.204   3.001   3.682 -0.6011  0.4994  1.2456
   37CHL1   C16 2685  -0.095   2.980   3.877 -0.1228  0.1723 -0.2838
   37CHL1  H16A 2686  -0.112   3.068   3.943 -1.7777 -0.1363 -0.2487
   37CHL1  H16B 2687  -0.166   2.896   3.896 -0.4566  0.6381  0.5632
   37CHL1   C17 2688   0.047   2.919   3.879 -0.5928  0.1957 -0.1154
   37CHL1   H17 2689   0.023   2.817   3.842 -1.3370  1.2436 -2.6866
   37CHL1   C13 2690   0.119   2.970   3.753 -0.6666  0.0617 -0.2659
   37CHL1   C18 2691   0.172   3.116   3.785  0.2676  0.7806  0.7635
   37CHL1  H18A 2692   0.187   3.175   3.693  2.8958  0.5619  0.9896
   37CHL1  H18B 2693   0.098   3.167   3.851 -1.0535 -0.1980  0.0984
   37CHL1  H18C 2694   0.268   3.115   3.840 -0.3408 -1.3309  1.9035
   37CHL1   C12 2695   0.228   2.875   3.696 -0.3187 -0.5341 -0.7701
   37CHL1  H12A 2696   0.317   2.871   3.761 -0.1093 -0.4960 -1.0511
   37CHL1  H12B 2697   0.204   2.769   3.676 -0.2490 -0.4674 -1.2308
   37CHL1   C11 2698   0.266   2.936   3.554 -0.7295 -0.3419  0.3296
   37CHL1  H11A 2699   0.314   3.036   3.559 -1.0451 -0.1567 -0.3184
   37CHL1  H11B 2700   0.349   2.868   3.526 -0.0824 -0.0963  1.5797
   37CHL1    C9 2701   0.148   2.938   3.453 -0.3761 -0.6271  0.4492
   37CHL1    H9 2702   0.121   2.830   3.449  1.0032 -1.0346  1.3206
   37CHL1   C10 2703   0.182   2.989   3.310 -0.5172  0.8105  0.2104
   37CHL1   C19 2704   0.251   3.128   3.306  0.5008  0.3311  0.1352
   37CHL1  H19A 2705   0.333   3.142   3.380  2.0719 -0.1908 -1.4429
   37CHL1  H19B 2706   0.282   3.156   3.203 -0.0471  2.8936  0.5925
   37CHL1  H19C 2707   0.182   3.210   3.337 -0.4419 -0.3872 -0.0067
   37CHL1    C1 2708   0.280   2.873   3.241  0.5802 -0.3645 -0.4048
   37CHL1   H1A 2709   0.380   2.867   3.290 -0.4510 -0.5460  1.8110
   37CHL1   H1B 2710   0.225   2.779   3.266 -0.0852  0.3904  1.0857
   37CHL1    C2 2711   0.300   2.885   3.093 -0.2134  0.3469  0.2597
   37CHL1   H2A 2712   0.362   2.794   3.078  1.3221  1.2129  1.1214
   37CHL1   H2B 2713   0.361   2.977   3.078 -0.0133  0.6107  2.3198
   37CHL1   C20 2714   0.120   2.923   4.010 -0.0799 -0.5316 -0.3387
   37CHL1   H20 2715   0.226   2.903   3.985 -0.3886 -0.9602 -1.3528
   37CHL1   C21 2716   0.061   2.805   4.089 -0.0151 -0.0770 -0.2169
   37CHL1  H21A 2717  -0.049   2.813   4.100  0.1906  1.1170  1.3353
   37CHL1  H21B 2718   0.117   2.801   4.185  1.4366 -1.9603 -1.0703
   37CHL1  H21C 2719   0.074   2.709   4.035 -0.5899 -1.8651  2.6080
   37CHL1   C22 2720   0.127   3.059   4.096 -0.1690  0.3540 -0.1491
   37CHL1  H22A 2721   0.191   3.139   4.053  0.4405 -0.6282 -1.1211
   37CHL1  H22B 2722   0.024   3.099   4.112 -0.2362 -0.0384  0.3986
   37CHL1   C23 2723   0.201   3.028   4.232 -0.0343 -0.1386 -0.0564
   37CHL1  H23A 2724   0.142   2.963   4.300 -0.5457  0.1406 -0.2298
   37CHL1  H23B 2725   0.290   2.966   4.208 -0.1453 -0.7510  1.0395
   37CHL1   C24 2726   0.242   3.152   4.309  0.2262  0.2527 -0.0108
   37CHL1  H24A 2727   0.322   3.209   4.257  0.2616  1.0026  0.8468
   37CHL1  H24B 2728   0.154   3.219   4.324  0.4465  0.5493 -0.0447
   37CHL1   C25 2729   0.287   3.108   4.458 -0.0723  0.3405  0.8380
   37CHL1   H25 2730   0.198   3.059   4.504 -1.3970  2.4497  0.6621
   37CHL1   C26 2731   0.413   3.008   4.448  0.1760 -0.3729 -0.6394
   37CHL1  H26A 2732   0.399   2.940   4.362 -0.1685 -0.6539 -0.3646
   37CHL1  H26B 2733   0.510   3.061   4.438  1.1676 -1.6582  1.3552
   37CHL1  H26C 2734   0.416   2.940   4.536 -0.4945 -0.7851 -0.9291
   37CHL1   C27 2735   0.321   3.232   4.541  0.1635  0.1126  0.7065
   37CHL1  H27A 2736   0.418   3.279   4.515 -0.7297  1.7475  0.1479
   37CHL1  H27B 2737   0.245   3.313   4.531 -0.0209 -0.2872 -1.6748
   37CHL1  H27C 2738   0.327   3.216   4.650 -1.7620 -0.3097  0.7969
   38CHL1    C3 2739   4.083   6.740   3.087  0.1120 -0.0229 -0.2975
   38CHL1    H3 2740   3.998   6.678   3.123  1.5879 -0.2152  3.3731
   38CHL1    O3 2741   4.074   6.780   2.947  0.1672  0.0689 -0.2154
   38CHL1   H3' 2742   4.167   6.796   2.929  0.7693 -1.8890  0.8366
   38CHL1    C4 2743   4.108   6.857   3.182 -0.1460 -0.1782 -0.1307
   38CHL1   H4A 2744   4.188   6.917   3.134 -2.2489  2.5854 -0.4253
   38CHL1   H4B 2745   4.016   6.919   3.177 -0.9859 -1.4869 -1.5485
   38CHL1    C5 2746   4.142   6.821   3.325  0.5301 -0.2468  0.5071
   38CHL1    C6 2747   4.064   6.869   3.422 -0.2640 -0.5381 -0.2800
   38CHL1    H6 2748   3.998   6.955   3.402 -1.1102 -1.0286  0.3311
   38CHL1    C7 2749   4.073   6.827   3.564  0.8716  0.0298 -0.5072
   38CHL1   H7A 2750   4.055   6.918   3.625  0.6498 -0.0337 -0.4763
   38CHL1   H7B 2751   3.982   6.765   3.580 -0.3216  1.3071 -1.9031
   38CHL1    C8 2752   4.198   6.745   3.596  0.8737  0.4057 -0.0423
   38CHL1    H8 2753   4.283   6.817   3.589 -1.0294  2.6779 -2.9574
   38CHL1   C14 2754   4.191   6.672   3.738  0.7967  0.0094  0.1069
   38CHL1   H14 2755   4.112   6.594   3.726 -2.9168  3.3147  0.8893
   38CHL1   C15 2756   4.150   6.754   3.863  0.2437  0.6237 -0.4482
   38CHL1  H15A 2757   4.210   6.847   3.854  1.5410 -0.2919 -1.6537
   38CHL1  H15B 2758   4.042   6.778   3.858 -0.4227 -1.8988  0.4782
   38CHL1   C16 2759   4.200   6.657   3.982 -0.1070 -0.1416  0.3345
   38CHL1  H16A 2760   4.275   6.703   4.049  2.4711 -2.3288 -0.8737
   38CHL1  H16B 2761   4.127   6.614   4.054  1.4182 -0.0191  2.0065
   38CHL1   C17 2762   4.280   6.537   3.914 -0.2699  0.3781  0.2663
   38CHL1   H17 2763   4.203   6.457   3.902 -0.5857  0.9080 -1.5630
   38CHL1   C13 2764   4.319   6.597   3.778 -0.6449  0.3775 -0.3395
   38CHL1   C18 2765   4.446   6.691   3.801  0.0497  0.6015  0.0898
   38CHL1  H18A 2766   4.459   6.759   3.714  1.8502 -0.3706 -0.4676
   38CHL1  H18B 2767   4.433   6.758   3.888  1.0247 -0.8234  1.3756
   38CHL1  H18C 2768   4.538   6.629   3.805 -0.6412 -0.6394 -1.8079
   38CHL1   C12 2769   4.332   6.494   3.670  0.1187 -0.0652 -0.5447
   38CHL1  H12A 2770   4.416   6.422   3.681 -1.0010 -1.3765 -0.2942
   38CHL1  H12B 2771   4.237   6.436   3.671  0.5375 -0.8311  2.2579
   38CHL1   C11 2772   4.347   6.548   3.524 -0.0126 -0.0269  0.0140
   38CHL1  H11A 2773   4.447   6.596   3.517  0.5743 -1.1785  0.2201
   38CHL1  H11B 2774   4.355   6.458   3.460 -3.8132 -0.8496  0.4811
   38CHL1    C9 2775   4.234   6.640   3.486  0.3807 -0.1479  0.4179
   38CHL1    H9 2776   4.144   6.574   3.485  1.2907 -1.5001  1.7468
   38CHL1   C10 2777   4.242   6.702   3.342 -0.0774 -0.1237 -0.5565
   38CHL1   C19 2778   4.380   6.755   3.322 -0.0117 -0.3845 -0.7482
   38CHL1  H19A 2779   4.385   6.796   3.219 -1.0717  2.5564  0.2873
   38CHL1  H19B 2780   4.401   6.838   3.392 -3.2306  0.1046 -0.2239
   38CHL1  H19C 2781   4.457   6.675   3.332  1.4664  1.0358 -0.3253
   38CHL1    C1 2782   4.212   6.583   3.240 -0.4237 -0.9414  0.8756
   38CHL1   H1A 2783   4.291   6.505   3.242 -1.8092 -2.3765  1.6164
   38CHL1   H1B 2784   4.111   6.557   3.278 -0.5432 -0.5088  0.8643
   38CHL1    C2 2785   4.199   6.632   3.096 -0.4916  0.2389  0.5230
   38CHL1   H2A 2786   4.179   6.545   3.030  1.1499 -0.0668  0.3841
   38CHL1   H2B 2787   4.290   6.688   3.067 -3.1861  4.6909 -0.3708
   38CHL1   C20 2788   4.383   6.481   4.013 -0.8030  0.2568  0.2417
   38CHL1   H20 2789   4.455   6.565   4.024 -1.0154  1.2174 -3.9978
   38CHL1   C21 2790   4.457   6.358   3.955  0.2797  0.6818  0.3164
   38CHL1  H21A 2791   4.497   6.368   3.851 -2.1922  0.4545 -0.7095
   38CHL1  H21B 2792   4.388   6.271   3.949 -0.3167  1.1888 -0.2589
   38CHL1  H21C 2793   4.540   6.320   4.019 -0.0566  0.7792  0.8101
   38CHL1   C22 2794   4.318   6.445   4.148 -0.8457  0.2276 -0.3173
   38CHL1  H22A 2795   4.290   6.537   4.204  0.1538  0.3241  0.0524
   38CHL1  H22B 2796   4.229   6.382   4.129 -0.9548  0.5709 -0.9779
   38CHL1   C23 2797   4.409   6.375   4.254 -1.2034  0.5002 -0.6408
   38CHL1  H23A 2798   4.352   6.356   4.347  0.2439  1.4505  0.4869
   38CHL1  H23B 2799   4.441   6.278   4.211 -0.9786  0.3888 -0.2273
   38CHL1   C24 2800   4.532   6.447   4.294  0.2641 -0.4267 -0.4396
   38CHL1  H24A 2801   4.594   6.472   4.205  2.1526  0.7529  1.1317
   38CHL1  H24B 2802   4.495   6.539   4.346 -0.4028  0.6768 -2.7210
   38CHL1   C25 2803   4.636   6.380   4.377 -0.2488 -0.3037  0.0681
   38CHL1   H25 2804   4.667   6.288   4.323  0.1713 -0.5689  0.7518
   38CHL1   C26 2805   4.758   6.470   4.399  0.6998  0.2195  0.7677
   38CHL1  H26A 2806   4.734   6.570   4.442  3.0465  0.7934  0.8526
   38CHL1  H26B 2807   4.839   6.418   4.455  2.1920 -2.3284 -3.3725
   38CHL1  H26C 2808   4.801   6.497   4.301 -0.9354 -0.0763 -0.0581
   38CHL1   C27 2809   4.576   6.332   4.510  0.5936  0.0028 -0.1112
   38CHL1  H27A 2810   4.634   6.362   4.600 -2.1757  1.6788  1.2302
   38CHL1  H27B 2811   4.485   6.390   4.534  1.5300  2.1378 -1.4130
   38CHL1  H27C 2812   4.554   6.224   4.503  0.3607  0.1541 -2.5940
   39CHL1    C3 2813   6.612   5.985   2.706 -0.1750  0.1027  0.0981
   39CHL1    H3 2814   6.524   5.985   2.773 -1.4918 -0.3079 -1.5555
   39CHL1    O3 2815   6.577   5.983   2.568 -0.0739 -0.2534 -0.1618
   39CHL1   H3' 2816   6.637   6.038   2.517  1.5666 -1.4290  0.4082
   39CHL1    C4 2817   6.710   6.105   2.732  0.4064 -0.3475 -0.8850
   39CHL1   H4A 2818   6.796   6.100   2.662 -0.4490  0.6486 -2.0246
   39CHL1   H4B 2819   6.666   6.204   2.710  1.9191  0.7947  0.8656
   39CHL1    C5 2820   6.762   6.101   2.875  0.0363  0.2835  0.3277
   39CHL1    C6 2821   6.757   6.213   2.946 -0.2855 -0.2226  0.3150
   39CHL1    H6 2822   6.721   6.308   2.905  1.9902  0.7390  0.4029
   39CHL1    C7 2823   6.807   6.227   3.086  0.1516 -0.0645  0.5811
   39CHL1   H7A 2824   6.880   6.310   3.093 -0.3787  0.7052 -1.9221
   39CHL1   H7B 2825   6.725   6.245   3.159 -0.0229 -0.5005  0.4980
   39CHL1    C8 2826   6.879   6.098   3.146  0.1341 -0.0207  0.0223
   39CHL1    H8 2827   6.985   6.105   3.115 -0.8945  0.9658 -3.8066
   39CHL1   C14 2828   6.863   6.102   3.295 -0.2681 -0.1698  0.3721
   39CHL1   H14 2829   6.754   6.089   3.310 -0.3041 -0.3951 -0.0720
   39CHL1   C15 2830   6.899   6.228   3.373 -0.0562 -0.8971 -0.2715
   39CHL1  H15A 2831   6.999   6.250   3.330 -1.1191  0.5005 -2.1134
   39CHL1  H15B 2832   6.831   6.315   3.365  3.1566  1.8125 -0.2967
   39CHL1   C16 2833   6.898   6.167   3.515 -0.2424 -0.2335  0.0778
   39CHL1  H16A 2834   6.976   6.209   3.582  1.9229 -2.9518 -0.5477
   39CHL1  H16B 2835   6.801   6.186   3.564  0.0335 -1.8532  1.2963
   39CHL1   C17 2836   6.905   6.015   3.507  0.9329  0.4616 -0.4931
   39CHL1   H17 2837   6.805   5.969   3.521  1.3277 -0.2693 -0.0357
   39CHL1   C13 2838   6.939   5.987   3.361  0.2442 -0.3185 -0.1564
   39CHL1   C18 2839   7.089   5.993   3.339  0.6998  0.7562  0.4441
   39CHL1  H18A 2840   7.143   5.906   3.382 -1.3701 -0.3590  0.9358
   39CHL1  H18B 2841   7.113   5.998   3.230 -1.6095 -1.3201 -0.2760
   39CHL1  H18C 2842   7.141   6.080   3.383 -0.6858  0.8955  1.8970
   39CHL1   C12 2843   6.885   5.851   3.296 -0.3098 -0.0813 -0.5109
   39CHL1  H12A 2844   6.944   5.765   3.333 -1.9442 -0.1494  2.2681
   39CHL1  H12B 2845   6.781   5.845   3.335  0.1270  2.0549  1.1501
   39CHL1   C11 2846   6.875   5.835   3.144 -0.3036 -0.3152 -0.4104
   39CHL1  H11A 2847   6.979   5.827   3.106 -0.4598 -0.2336 -0.8492
   39CHL1  H11B 2848   6.814   5.745   3.120 -0.0910 -1.1862  1.9522
   39CHL1    C9 2849   6.810   5.966   3.088 -0.8690 -0.8700 -0.1898
   39CHL1    H9 2850   6.707   5.969   3.131 -1.0564  0.6374 -0.6638
   39CHL1   C10 2851   6.803   5.968   2.930  0.2590  0.8069 -0.2411
   39CHL1   C19 2852   6.945   5.952   2.865 -0.5305 -0.1469  0.0521
   39CHL1  H19A 2853   6.997   5.859   2.897 -0.5067 -0.4406 -0.8286
   39CHL1  H19B 2854   6.943   5.944   2.754 -1.5824  3.6836 -0.3453
   39CHL1  H19C 2855   7.012   6.032   2.904 -0.5180  0.6599 -1.5343
   39CHL1    C1 2856   6.711   5.851   2.885 -0.0702  0.2924  0.2907
   39CHL1   H1A 2857   6.762   5.757   2.916 -0.1912 -0.1087 -0.6963
   39CHL1   H1B 2858   6.618   5.855   2.944  0.8686  1.7580  1.7505
   39CHL1    C2 2859   6.688   5.854   2.730 -0.6937 -0.2227 -0.4849
   39CHL1   H2A 2860   6.633   5.764   2.697  1.1946 -2.0048  0.9384
   39CHL1   H2B 2861   6.783   5.861   2.674  0.4877 -0.5778  1.3805
   39CHL1   C20 2862   6.982   5.948   3.622 -0.9356  0.6134 -0.6605
   39CHL1   H20 2863   7.089   5.966   3.600 -1.0494  1.0668 -0.8504
   39CHL1   C21 2864   6.962   5.798   3.625  0.0395  0.0610  0.1258
   39CHL1  H21A 2865   7.005   5.755   3.719  1.6694  1.1499 -0.0669
   39CHL1  H21B 2866   7.007   5.753   3.534  0.4654  0.3226  0.2051
   39CHL1  H21C 2867   6.854   5.775   3.621 -0.1423  0.9984 -0.7247
   39CHL1   C22 2868   6.964   6.013   3.768 -0.0709 -0.9523  0.4471
   39CHL1  H22A 2869   7.045   5.977   3.835 -0.9479 -1.1144  1.4525
   39CHL1  H22B 2870   6.964   6.123   3.753 -0.5836 -1.0355 -0.2018
   39CHL1   C23 2871   6.838   5.977   3.846  0.3440  0.1567 -0.2518
   39CHL1  H23A 2872   6.748   5.976   3.782  0.9244  1.0314 -1.1180
   39CHL1  H23B 2873   6.846   5.870   3.876 -0.6063 -0.0458 -0.7004
   39CHL1   C24 2874   6.805   6.064   3.972 -0.1101  0.4662  0.5561
   39CHL1  H24A 2875   6.892   6.063   4.042 -0.7988  2.6019  1.5286
   39CHL1  H24B 2876   6.791   6.167   3.935  0.1938 -0.3625 -2.0542
   39CHL1   C25 2877   6.667   6.035   4.039 -0.1900 -0.2835  0.5363
   39CHL1   H25 2878   6.609   5.996   3.953  1.5089 -1.7368 -0.0247
   39CHL1   C26 2879   6.675   5.920   4.137 -0.1787  0.5811 -0.1332
   39CHL1  H26A 2880   6.706   5.828   4.082  0.3490  0.0089  1.1045
   39CHL1  H26B 2881   6.740   5.940   4.224  0.3668 -1.4328 -0.0331
   39CHL1  H26C 2882   6.570   5.901   4.168  0.7171 -1.6144  1.8180
   39CHL1   C27 2883   6.592   6.156   4.107  0.8343  0.1768  0.2444
   39CHL1  H27A 2884   6.670   6.204   4.171  1.9643  1.4971 -2.0201
   39CHL1  H27B 2885   6.564   6.229   4.028 -0.7668 -0.6589  0.0153
   39CHL1  H27C 2886   6.505   6.122   4.167  3.3149 -1.1544  3.3952
   40CHL1    C3 2887   0.285   6.419   2.874 -0.0997  0.0042 -0.1082
   40CHL1    H3 2888   0.227   6.325   2.884  0.2677 -0.1870  0.2332
   40CHL1    O3 2889   0.350   6.410   2.749 -0.3456 -0.3534  0.1841
   40CHL1   H3' 2890   0.283   6.391   2.683  0.4277 -3.3822  0.0953
   40CHL1    C4 2891   0.193   6.547   2.888 -0.4842  0.6233 -0.1797
   40CHL1   H4A 2892   0.247   6.633   2.845  0.1904  0.7529  0.8804
   40CHL1   H4B 2893   0.104   6.526   2.825  0.1812 -0.4155 -0.8113
   40CHL1    C5 2894   0.156   6.576   3.033 -0.0888  0.3592  0.7186
   40CHL1    C6 2895   0.031   6.583   3.073  0.2777  0.2093 -0.5349
   40CHL1    H6 2896  -0.045   6.542   3.005  1.7159 -1.8130 -1.0216
   40CHL1    C7 2897  -0.014   6.622   3.212  0.7160  0.9722 -0.1108
   40CHL1   H7A 2898  -0.099   6.693   3.203 -1.5950 -1.4324  1.3082
   40CHL1   H7B 2899  -0.061   6.541   3.271 -0.4513  2.4516  1.1120
   40CHL1    C8 2900   0.107   6.682   3.296 -0.1429 -0.2147 -0.3719
   40CHL1    H8 2901   0.124   6.785   3.259  0.6767  0.4187  1.6739
   40CHL1   C14 2902   0.070   6.668   3.446  0.3048  0.1998 -0.5942
   40CHL1   H14 2903   0.084   6.560   3.468  1.2563  0.4285 -0.0201
   40CHL1   C15 2904  -0.074   6.710   3.490  0.0830 -0.1932 -0.0682
   40CHL1  H15A 2905  -0.109   6.793   3.426  1.5741 -0.4218 -1.2385
   40CHL1  H15B 2906  -0.137   6.620   3.475  0.0324 -0.0991 -0.4140
   40CHL1   C16 2907  -0.060   6.737   3.642  0.8498  0.0856  0.3231
   40CHL1  H16A 2908  -0.082   6.846   3.652  1.4770  0.1964  0.5248
   40CHL1  H16B 2909  -0.132   6.682   3.706  1.5252  0.3518  1.3299
   40CHL1   C17 2910   0.089   6.721   3.686  0.3346 -0.0960 -0.4362
   40CHL1   H17 2911   0.113   6.622   3.729 -0.8887  0.4668  1.6704
   40CHL1   C13 2912   0.166   6.733   3.548 -0.0079 -0.1539 -0.0261
   40CHL1   C18 2913   0.178   6.882   3.512 -0.0023  0.5833  0.4299
   40CHL1  H18A 2914   0.093   6.949   3.536  0.4839  0.9742  1.0817
   40CHL1  H18B 2915   0.260   6.919   3.576  2.7703 -2.4294 -1.0574
   40CHL1  H18C 2916   0.206   6.892   3.405  2.4679  3.0141  1.1785
   40CHL1   C12 2917   0.301   6.661   3.529 -0.2958 -0.3218 -0.4585
   40CHL1  H12A 2918   0.370   6.731   3.579  2.3281 -0.8956 -2.9964
   40CHL1  H12B 2919   0.297   6.558   3.572  1.3891 -0.2289 -0.0229
   40CHL1   C11 2920   0.348   6.645   3.375 -0.1634 -0.3303 -0.5126
   40CHL1  H11A 2921   0.370   6.748   3.340  2.6822 -1.5836 -2.9597
   40CHL1  H11B 2922   0.441   6.585   3.369 -0.9087 -1.6141  0.2796
   40CHL1    C9 2923   0.235   6.601   3.280 -0.3316 -0.0186 -0.0346
   40CHL1    H9 2924   0.206   6.500   3.318 -2.3232  0.5537  0.1062
   40CHL1   C10 2925   0.277   6.590   3.130 -0.0409 -0.4172 -0.2298
   40CHL1   C19 2926   0.358   6.715   3.085 -0.3575  0.0935  0.1929
   40CHL1  H19A 2927   0.456   6.703   3.135  0.0418  0.3434 -0.5271
   40CHL1  H19B 2928   0.382   6.713   2.977  0.9644  1.8053  0.4069
   40CHL1  H19C 2929   0.289   6.796   3.118 -3.5047 -2.9346  1.6828
   40CHL1    C1 2930   0.361   6.461   3.120 -0.4076  0.1602 -0.1762
   40CHL1   H1A 2931   0.458   6.484   3.169 -0.7250  0.1666  0.4521
   40CHL1   H1B 2932   0.304   6.377   3.164 -2.0170  1.3223  0.0792
   40CHL1    C2 2933   0.404   6.426   2.976  1.1142  0.1125  0.1841
   40CHL1   H2A 2934   0.465   6.333   2.985  2.5407  0.7004 -2.3052
   40CHL1   H2B 2935   0.480   6.498   2.938 -0.2181  2.2996  1.4137
   40CHL1   C20 2936   0.135   6.810   3.803 -0.0141 -0.2983  0.7875
   40CHL1   H20 2937   0.106   6.913   3.774 -0.6347 -0.1618  1.8720
   40CHL1   C21 2938   0.286   6.798   3.837 -0.0831 -0.2517  0.8860
   40CHL1  H21A 2939   0.320   6.839   3.935 -0.2279  1.0905  0.4035
   40CHL1  H21B 2940   0.348   6.869   3.779 -5.0276  3.6580 -0.3280
   40CHL1  H21C 2941   0.311   6.690   3.834  0.1960 -0.3187  3.4808
   40CHL1   C22 2942   0.046   6.790   3.925  0.5711  0.4782 -0.1496
   40CHL1  H22A 2943  -0.060   6.781   3.894  1.5646 -0.0006 -3.8635
   40CHL1  H22B 2944   0.067   6.695   3.979  0.1600 -0.6928 -1.9478
   40CHL1   C23 2945   0.042   6.921   4.010 -0.7802  0.5803  0.4589
   40CHL1  H23A 2946   0.147   6.946   4.036 -0.7026  1.4299 -0.6046
   40CHL1  H23B 2947   0.016   7.003   3.940  0.2227  1.1944  0.7907
   40CHL1   C24 2948  -0.052   6.898   4.134  0.7750 -0.4856 -0.1502
   40CHL1  H24A 2949  -0.152   6.891   4.085  1.9435 -0.5794 -2.6755
   40CHL1  H24B 2950  -0.015   6.811   4.193  2.2042  1.0533  1.3302
   40CHL1   C25 2951  -0.059   7.031   4.209 -0.2600  0.1570  0.4654
   40CHL1   H25 2952  -0.079   7.115   4.139 -1.8555  0.2808  1.0351
   40CHL1   C26 2953  -0.169   7.031   4.315 -0.3496  0.2783  0.1274
   40CHL1  H26A 2954  -0.158   6.947   4.386  1.5918 -0.3358 -0.8322
   40CHL1  H26B 2955  -0.146   7.121   4.376  4.0277  0.5067 -1.4888
   40CHL1  H26C 2956  -0.269   7.029   4.267  0.4979 -4.0548 -1.9770
   40CHL1   C27 2957   0.075   7.071   4.272  0.1890  0.2919  0.0329
   40CHL1  H27A 2958   0.146   7.089   4.188  0.8657  0.7149  0.6728
   40CHL1  H27B 2959   0.055   7.165   4.327  1.9787  0.6684  0.1294
   40CHL1  H27C 2960   0.099   6.992   4.347 -2.3904  0.8701  1.5779
   41CHL1    C3 2961   0.298   5.493   2.719  1.0661 -0.1096 -0.2689
   41CHL1    H3 2962   0.398   5.538   2.734  0.7220  0.6350 -0.1631
   41CHL1    O3 2963   0.271   5.515   2.584 -0.3320 -0.3221  0.1153
   41CHL1   H3' 2964   0.189   5.472   2.559  1.0860 -1.9772 -1.9901
   41CHL1    C4 2965   0.303   5.345   2.759  0.2993 -0.5125  0.2241
   41CHL1   H4A 2966   0.206   5.304   2.727 -1.0442  2.5017  0.1030
   41CHL1   H4B 2967   0.376   5.299   2.690 -0.4815 -2.0041  0.3648
   41CHL1    C5 2968   0.332   5.323   2.907 -0.4311 -0.2596 -0.5195
   41CHL1    C6 2969   0.442   5.255   2.936 -0.4682  0.0641  0.1989
   41CHL1    H6 2970   0.503   5.204   2.860  0.3312  0.5213  0.5184
   41CHL1    C7 2971   0.488   5.238   3.079  0.1540 -0.3166 -0.4527
   41CHL1   H7A 2972   0.536   5.138   3.088 -0.0294 -0.2851  1.1241
   41CHL1   H7B 2973   0.565   5.315   3.100 -0.6915  0.2668  0.6062
   41CHL1    C8 2974   0.379   5.267   3.175  0.3627 -0.1787 -0.4209
   41CHL1    H8 2975   0.308   5.182   3.159  1.4171 -1.1792  0.0748
   41CHL1   C14 2976   0.438   5.270   3.320  0.1137  0.5862 -0.2124
   41CHL1   H14 2977   0.502   5.358   3.346  1.2150 -0.0153 -0.8340
   41CHL1   C15 2978   0.531   5.152   3.363  0.5477  0.2025 -0.2033
   41CHL1  H15A 2979   0.502   5.054   3.320 -0.6709  0.0084  0.9785
   41CHL1  H15B 2980   0.633   5.185   3.335  0.9661 -1.9400 -1.4165
   41CHL1   C16 2981   0.502   5.138   3.518 -0.5039 -0.9910  0.6330
   41CHL1  H16A 2982   0.450   5.040   3.532 -1.2525 -0.8291 -0.8864
   41CHL1  H16B 2983   0.601   5.144   3.567  1.0957 -0.7638 -2.4097
   41CHL1   C17 2984   0.412   5.265   3.554  0.2663  0.1932  0.3149
   41CHL1   H17 2985   0.483   5.350   3.560 -1.0622  1.3863 -0.3397
   41CHL1   C13 2986   0.331   5.282   3.423  0.7032 -0.0703  0.1187
   41CHL1   C18 2987   0.222   5.173   3.422  0.3785 -0.1407 -0.1737
   41CHL1  H18A 2988   0.138   5.198   3.491  0.1644 -0.5050 -0.2959
   41CHL1  H18B 2989   0.167   5.185   3.326 -4.3598 -0.7551  2.1319
   41CHL1  H18C 2990   0.249   5.067   3.437 -0.7060 -0.5714 -1.0903
   41CHL1   C12 2991   0.266   5.422   3.406 -0.1974  0.1450  0.4921
   41CHL1  H12A 2992   0.189   5.434   3.486 -2.3222 -1.4330 -1.1943
   41CHL1  H12B 2993   0.336   5.507   3.407 -3.3085  3.0030 -2.0286
   41CHL1   C11 2994   0.200   5.431   3.264  0.0305  0.0307  0.9900
   41CHL1  H11A 2995   0.111   5.364   3.268  0.9815 -1.2659  1.0554
   41CHL1  H11B 2996   0.174   5.539   3.257  0.7461  0.1047 -1.1397
   41CHL1    C9 2997   0.297   5.391   3.150  0.1054 -0.1644 -0.2598
   41CHL1    H9 2998   0.377   5.469   3.152  2.0947 -2.0159  3.3289
   41CHL1   C10 2999   0.240   5.394   3.010  0.2621 -0.0623 -0.1934
   41CHL1   C19 3000   0.107   5.306   3.007 -0.0683 -0.1244 -0.2633
   41CHL1  H19A 3001   0.027   5.353   3.069 -0.9428  0.3510 -1.6897
   41CHL1  H19B 3002   0.066   5.315   2.904  1.7461  0.0448 -1.0087
   41CHL1  H19C 3003   0.115   5.196   3.020 -0.3936 -0.4317 -2.3252
   41CHL1    C1 3004   0.209   5.538   2.961  0.1850  0.1804  1.1391
   41CHL1   H1A 3005   0.114   5.575   3.004 -0.0063  0.9812  0.0867
   41CHL1   H1B 3006   0.285   5.610   2.997  0.3022  0.0312  1.1915
   41CHL1    C2 3007   0.191   5.556   2.807  0.1328 -0.1669 -0.3710
   41CHL1   H2A 3008   0.204   5.666   2.796 -0.5410  0.1164  1.3337
   41CHL1   H2B 3009   0.086   5.522   2.789 -0.6128  2.4039 -1.2453
   41CHL1   C20 3010   0.329   5.261   3.686  0.5556 -1.0225  0.2932
   41CHL1   H20 3011   0.230   5.214   3.668 -0.4714  1.6689 -1.7622
   41CHL1   C21 3012   0.300   5.405   3.746  0.7338  0.2105 -0.1025
   41CHL1  H21A 3013   0.395   5.449   3.781 -1.1605  2.6363  2.3985
   41CHL1  H21B 3014   0.237   5.387   3.836  0.5811  1.8071  0.1409
   41CHL1  H21C 3015   0.252   5.469   3.669 -1.7231 -1.7097 -0.3195
   41CHL1   C22 3016   0.412   5.181   3.793 -0.0949  0.0083  0.0941
   41CHL1  H22A 3017   0.410   5.072   3.768  1.0911 -0.7802  2.9934
   41CHL1  H22B 3018   0.516   5.219   3.782 -0.5993  1.1067 -0.9910
   41CHL1   C23 3019   0.357   5.183   3.934 -0.0943 -0.0587  0.3735
   41CHL1  H23A 3020   0.337   5.288   3.963 -2.7633  0.3939 -2.5220
   41CHL1  H23B 3021   0.258   5.131   3.939 -0.1971  0.0231 -0.6450
   41CHL1   C24 3022   0.448   5.105   4.039  0.2195 -0.0257  0.8305
   41CHL1  H24A 3023   0.387   5.085   4.131  0.9581 -1.5503  1.0305
   41CHL1  H24B 3024   0.464   5.000   4.006 -0.4982 -1.4373  4.4630
   41CHL1   C25 3025   0.580   5.173   4.085  0.3351  0.2585 -0.1808
   41CHL1   H25 3026   0.642   5.217   4.004  1.3673  1.3238  1.1420
   41CHL1   C26 3027   0.548   5.281   4.186 -0.7760  0.0442  0.6676
   41CHL1  H26A 3028   0.468   5.240   4.252  0.0617 -1.0958  0.9944
   41CHL1  H26B 3029   0.644   5.302   4.239 -0.2591  2.2706 -1.0214
   41CHL1  H26C 3030   0.506   5.368   4.130  0.8731  0.2532 -0.2862
   41CHL1   C27 3031   0.662   5.065   4.155 -0.4356 -0.8172 -0.5320
   41CHL1  H27A 3032   0.752   5.112   4.200 -0.1319 -1.9093  0.0367
   41CHL1  H27B 3033   0.603   5.024   4.240  0.8563  1.0809  1.3845
   41CHL1  H27C 3034   0.704   4.993   4.082  0.0434  0.4923 -1.5906
   42CHL1    C3 3035   3.289   6.642   2.823 -0.1042 -0.8043 -0.5686
   42CHL1    H3 3036   3.344   6.737   2.842 -2.1960  0.4325 -0.3911
   42CHL1    O3 3037   3.287   6.644   2.682 -0.3474  0.0320  0.3342
   42CHL1   H3' 3038   3.212   6.591   2.655 -1.2353  1.4545 -0.1198
   42CHL1    C4 3039   3.374   6.527   2.878  0.0314 -0.1896  0.7769
   42CHL1   H4A 3040   3.320   6.434   2.849  0.7380  0.0601 -1.4798
   42CHL1   H4B 3041   3.472   6.549   2.831  0.6560  0.7432  2.4127
   42CHL1    C5 3042   3.381   6.525   3.032 -0.4290 -0.5815 -0.5854
   42CHL1    C6 3043   3.497   6.527   3.101  0.2901 -0.1759  1.2668
   42CHL1    H6 3044   3.589   6.520   3.042 -1.5221  1.2992 -1.9939
   42CHL1    C7 3045   3.505   6.513   3.252 -0.6824 -0.1308 -0.4452
   42CHL1   H7A 3046   3.583   6.437   3.276  0.8467  0.4835 -3.0305
   42CHL1   H7B 3047   3.539   6.613   3.286  0.7781 -1.1170  1.1765
   42CHL1    C8 3048   3.371   6.484   3.313  0.0770 -0.3860 -0.2616
   42CHL1    H8 3049   3.343   6.377   3.308 -0.8734 -0.2147  0.8111
   42CHL1   C14 3050   3.375   6.508   3.462 -0.3998 -0.1804 -0.3658
   42CHL1   H14 3051   3.390   6.617   3.480 -1.9516 -0.0561  0.3201
   42CHL1   C15 3052   3.491   6.442   3.539  1.1325  0.5531  0.4476
   42CHL1  H15A 3053   3.501   6.334   3.514 -1.2177  0.4971 -0.5337
   42CHL1  H15B 3054   3.588   6.494   3.520 -0.3860  2.5950 -2.4973
   42CHL1   C16 3055   3.449   6.462   3.686 -0.7526  0.3356  0.5751
   42CHL1  H16A 3056   3.478   6.371   3.742  1.6869  1.2261  0.8953
   42CHL1  H16B 3057   3.511   6.546   3.725  0.4137  0.1816 -0.8383
   42CHL1   C17 3058   3.298   6.501   3.681  0.2274  0.5399 -0.5291
   42CHL1   H17 3059   3.302   6.612   3.691 -0.5958  0.8884 -3.1056
   42CHL1   C13 3060   3.250   6.471   3.537 -0.1017 -0.0643  0.1689
   42CHL1   C18 3061   3.212   6.327   3.523 -0.5557  0.7266  0.7195
   42CHL1  H18A 3062   3.282   6.260   3.578 -1.6527 -1.0473  0.0476
   42CHL1  H18B 3063   3.113   6.321   3.573  0.2024 -0.4363  2.1546
   42CHL1  H18C 3064   3.201   6.286   3.420 -2.5884  0.8769  0.8447
   42CHL1   C12 3065   3.141   6.566   3.477  0.1713 -0.5867  0.6330
   42CHL1  H12A 3066   3.042   6.552   3.524  0.3935 -3.0561  0.5193
   42CHL1  H12B 3067   3.172   6.669   3.503 -3.5857  0.5386  1.1927
   42CHL1   C11 3068   3.121   6.548   3.327 -0.3872  0.8474 -0.1099
   42CHL1  H11A 3069   3.073   6.448   3.321 -1.1102  1.1675  0.2982
   42CHL1  H11B 3070   3.048   6.617   3.281 -1.9998  0.5149  1.8505
   42CHL1    C9 3071   3.256   6.560   3.248  0.3191 -0.7882 -0.3947
   42CHL1    H9 3072   3.269   6.671   3.245 -0.0681 -0.5162  3.2172
   42CHL1   C10 3073   3.244   6.526   3.096  0.5212 -0.1530  0.4276
   42CHL1   C19 3074   3.154   6.402   3.068  0.0015  0.6514 -0.3776
   42CHL1  H19A 3075   3.049   6.414   3.102 -0.7611  0.8579 -2.6188
   42CHL1  H19B 3076   3.149   6.367   2.963  0.4534 -2.9655  0.6440
   42CHL1  H19C 3077   3.196   6.311   3.117  0.0683  1.4364  1.0629
   42CHL1    C1 3078   3.170   6.654   3.031 -0.4656 -0.2326  0.0097
   42CHL1   H1A 3079   3.073   6.686   3.074  1.4328  0.0603  4.6797
   42CHL1   H1B 3080   3.246   6.733   3.048 -1.6496  0.9369 -0.0272
   42CHL1    C2 3081   3.154   6.647   2.884 -0.1679 -0.3209  0.0965
   42CHL1   H2A 3082   3.085   6.725   2.846 -1.2999 -0.9130  0.8619
   42CHL1   H2B 3083   3.098   6.554   2.862  0.2754 -0.5937  0.1079
   42CHL1   C20 3084   3.214   6.446   3.800 -0.1723 -0.0153 -0.4959
   42CHL1   H20 3085   3.192   6.338   3.789 -0.5373  0.1547 -1.5408
   42CHL1   C21 3086   3.081   6.515   3.815  0.1801 -0.2280  0.8460
   42CHL1  H21A 3087   3.093   6.622   3.842  1.8464 -0.8273  2.7433
   42CHL1  H21B 3088   3.017   6.463   3.890  1.3337 -0.8029  1.4579
   42CHL1  H21C 3089   3.033   6.510   3.715  2.6272 -0.8911 -0.3574
   42CHL1   C22 3090   3.284   6.464   3.940 -0.7163 -0.0694  0.8162
   42CHL1  H22A 3091   3.395   6.454   3.930 -0.7353  0.4774 -0.0450
   42CHL1  H22B 3092   3.273   6.571   3.967  0.6310  0.2221  0.2921
   42CHL1   C23 3093   3.233   6.380   4.054  0.5880 -0.3545  0.1060
   42CHL1  H23A 3094   3.128   6.416   4.050 -0.2974 -2.7320  0.5329
   42CHL1  H23B 3095   3.231   6.270   4.038  2.1181 -0.4124  0.1642
   42CHL1   C24 3096   3.313   6.402   4.176  0.1627  0.1421  0.1351
   42CHL1  H24A 3097   3.422   6.402   4.152  0.1218  0.1269 -0.0498
   42CHL1  H24B 3098   3.277   6.494   4.226 -0.8562 -0.4054  0.4309
   42CHL1   C25 3099   3.298   6.296   4.293  0.2316  0.6010  0.8311
   42CHL1   H25 3100   3.312   6.199   4.240 -1.7487  1.1138 -0.7814
   42CHL1   C26 3101   3.404   6.328   4.405 -0.2677  0.4282  0.1245
   42CHL1  H26A 3102   3.385   6.430   4.446  4.6251  0.5238  2.9312
   42CHL1  H26B 3103   3.397   6.248   4.481 -0.8128  1.5883  1.3290
   42CHL1  H26C 3104   3.504   6.322   4.356  0.0470  1.1369  0.6579
   42CHL1   C27 3105   3.158   6.293   4.358  0.8069 -0.5969 -0.1762
   42CHL1  H27A 3106   3.077   6.284   4.282  0.9051  0.2243 -0.3878
   42CHL1  H27B 3107   3.143   6.210   4.430  1.2731 -1.0225 -0.5577
   42CHL1  H27C 3108   3.140   6.395   4.397 -0.1474 -0.1014 -1.7867
   43CHL1    C3 3109   3.795   6.230   3.084  0.2127  0.1324  0.4443
   43CHL1    H3 3110   3.703   6.205   3.141  0.7456 -2.6462  0.2614
   43CHL1    O3 3111   3.773   6.253   2.946  0.1855  0.4881 -0.7217
   43CHL1   H3' 3112   3.831   6.192   2.901 -0.5282  0.9946 -2.4237
   43CHL1    C4 3113   3.875   6.352   3.147 -0.2461  0.0338 -0.7592
   43CHL1   H4A 3114   3.976   6.349   3.100 -0.2733  0.7164 -0.8737
   43CHL1   H4B 3115   3.828   6.450   3.124  0.3795  0.1997 -1.3595
   43CHL1    C5 3116   3.894   6.340   3.303  0.5793  0.3843 -0.4023
   43CHL1    C6 3117   3.853   6.427   3.396  0.2429 -1.0779 -0.2361
   43CHL1    H6 3118   3.803   6.519   3.362 -0.9774 -1.5396  0.2259
   43CHL1    C7 3119   3.857   6.414   3.542 -0.1207  0.8600 -0.3964
   43CHL1   H7A 3120   3.898   6.503   3.595  0.2536  0.3944  0.1062
   43CHL1   H7B 3121   3.753   6.390   3.571  0.3314 -0.3111  0.3457
   43CHL1    C8 3122   3.953   6.295   3.591 -0.1205  0.0614  0.7575
   43CHL1    H8 3123   4.053   6.342   3.589  0.8084 -1.8478  0.3216
   43CHL1   C14 3124   3.911   6.245   3.733 -0.1490 -0.0324  0.1516
   43CHL1   H14 3125   3.803   6.222   3.743  0.2832 -1.5630  1.8935
   43CHL1   C15 3126   3.932   6.350   3.839 -0.3730  0.5114  0.6464
   43CHL1  H15A 3127   4.031   6.397   3.819 -0.3706  0.5720  0.7980
   43CHL1  H15B 3128   3.856   6.428   3.858  0.4014  1.8107 -1.2373
   43CHL1   C16 3129   3.935   6.269   3.965 -0.0354 -0.3372 -0.2638
   43CHL1  H16A 3130   4.037   6.286   4.007  0.5686 -2.1308 -0.8973
   43CHL1  H16B 3131   3.865   6.290   4.048  0.4068  1.4088 -0.2822
   43CHL1   C17 3132   3.949   6.118   3.928  0.3502 -0.5455  0.4029
   43CHL1   H17 3133   3.844   6.084   3.920 -0.4949  0.7589  4.0145
   43CHL1   C13 3134   4.000   6.134   3.780  0.3791  0.0693  0.2022
   43CHL1   C18 3135   4.147   6.171   3.786 -0.1528 -0.2025  0.3254
   43CHL1  H18A 3136   4.181   6.206   3.686 -0.3447  2.3103  1.0723
   43CHL1  H18B 3137   4.182   6.249   3.858 -0.4490  0.0090  0.2438
   43CHL1  H18C 3138   4.205   6.078   3.799 -1.4679 -1.3430 -1.5378
   43CHL1   C12 3139   3.975   6.011   3.697  0.5111 -0.0415  0.3428
   43CHL1  H12A 3140   4.038   5.928   3.735  0.8599 -0.5460 -1.2655
   43CHL1  H12B 3141   3.867   5.983   3.699  0.1000  1.3718 -0.4741
   43CHL1   C11 3142   4.007   6.035   3.549  0.6849 -0.9213  0.8716
   43CHL1  H11A 3143   4.117   6.042   3.536  0.3727  1.0067 -1.2599
   43CHL1  H11B 3144   3.982   5.953   3.479 -0.5110 -0.7634  1.0794
   43CHL1    C9 3145   3.939   6.171   3.498 -0.1201  0.6020 -0.0443
   43CHL1    H9 3146   3.831   6.143   3.496  0.3430 -1.4181  0.7301
   43CHL1   C10 3147   3.962   6.206   3.345  0.4263 -0.0663  0.1547
   43CHL1   C19 3148   4.114   6.228   3.334 -0.3092  0.4464  0.2801
   43CHL1  H19A 3149   4.148   6.260   3.233 -1.3280 -1.4309 -0.7075
   43CHL1  H19B 3150   4.146   6.308   3.405 -1.5345  1.2982 -0.0839
   43CHL1  H19C 3151   4.176   6.143   3.369  0.6311  1.7579  1.9836
   43CHL1    C1 3152   3.911   6.088   3.257  0.3101 -0.1395  0.0530
   43CHL1   H1A 3153   3.968   5.994   3.273  2.5684  0.9558 -1.1501
   43CHL1   H1B 3154   3.806   6.061   3.284 -0.3290  0.2686 -1.8244
   43CHL1    C2 3155   3.889   6.111   3.106 -0.0579  0.2226 -0.3084
   43CHL1   H2A 3156   3.839   6.025   3.056  0.5924  0.2987 -1.1192
   43CHL1   H2B 3157   3.985   6.128   3.054 -0.6017 -1.7474 -2.1331
   43CHL1   C20 3158   4.013   6.025   4.030 -0.8590  0.8173 -0.4688
   43CHL1   H20 3159   4.032   5.929   3.978 -0.0661  0.5057  0.3655
   43CHL1   C21 3160   3.900   5.984   4.135 -0.4640 -0.2732  0.3475
   43CHL1  H21A 3161   3.948   5.923   4.215  0.4088  1.6617  1.3742
   43CHL1  H21B 3162   3.824   5.919   4.087  0.4825 -1.9107  0.9592
   43CHL1  H21C 3163   3.855   6.076   4.178  0.4262  1.0231 -1.3795
   43CHL1   C22 3164   4.147   6.063   4.104 -0.3980 -0.6110 -0.2218
   43CHL1  H22A 3165   4.223   6.106   4.035  0.5215 -0.9618  0.5347
   43CHL1  H22B 3166   4.122   6.140   4.180  0.4593 -1.5467  1.0632
   43CHL1   C23 3167   4.216   5.936   4.171 -0.4005  0.4910  0.0461
   43CHL1  H23A 3168   4.167   5.912   4.268 -0.1284  0.3367  0.1472
   43CHL1  H23B 3169   4.222   5.848   4.103  0.3482  0.8808 -0.4033
   43CHL1   C24 3170   4.357   5.971   4.206 -0.2751 -0.8594 -0.0910
   43CHL1  H24A 3171   4.427   5.963   4.120  0.1695  2.0469 -0.1016
   43CHL1  H24B 3172   4.353   6.077   4.238 -2.2168 -1.2934  1.2871
   43CHL1   C25 3173   4.430   5.885   4.313 -0.4870  0.7437  0.3288
   43CHL1   H25 3174   4.388   5.903   4.415 -2.7097 -1.9369 -0.0035
   43CHL1   C26 3175   4.394   5.737   4.291  0.6653  0.4580  0.5812
   43CHL1  H26A 3176   4.459   5.671   4.352  0.9808  0.3164  0.0980
   43CHL1  H26B 3177   4.290   5.711   4.317  0.3585  1.2055  0.1601
   43CHL1  H26C 3178   4.398   5.726   4.180 -2.6750  0.9557  0.3192
   43CHL1   C27 3179   4.580   5.915   4.319  0.2507  0.5637  0.2333
   43CHL1  H27A 3180   4.595   6.020   4.351  0.2073  0.2022  1.4821
   43CHL1  H27B 3181   4.625   5.851   4.397  2.0143 -0.5818 -1.6225
   43CHL1  H27C 3182   4.633   5.903   4.222 -1.2846 -2.5251 -0.3517
   44CHL1    C3 3183   5.554   4.578   2.827 -0.1777 -0.9308 -1.0628
   44CHL1    H3 3184   5.642   4.645   2.811 -0.4587 -0.4509 -0.6541
   44CHL1    O3 3185   5.505   4.535   2.705  0.0737  0.0386  0.4513
   44CHL1   H3' 3186   5.457   4.613   2.678 -1.2782 -0.9889 -0.2345
   44CHL1    C4 3187   5.598   4.453   2.908  0.6253  1.0208  0.3475
   44CHL1   H4A 3188   5.513   4.382   2.902  0.6711  1.0830 -1.6664
   44CHL1   H4B 3189   5.685   4.408   2.855 -0.2167 -0.2402  0.0008
   44CHL1    C5 3190   5.637   4.483   3.046  0.4479  0.9176 -0.0369
   44CHL1    C6 3191   5.758   4.453   3.091  0.3976 -0.2199 -0.2516
   44CHL1    H6 3192   5.830   4.409   3.020  1.9341 -1.0592  1.7241
   44CHL1    C7 3193   5.812   4.496   3.225 -0.1455  0.2633  0.3011
   44CHL1   H7A 3194   5.886   4.426   3.269  1.8685  1.4557 -1.0004
   44CHL1   H7B 3195   5.859   4.597   3.223 -0.1985  0.3603  2.2051
   44CHL1    C8 3196   5.692   4.516   3.326  0.3140 -0.0086  0.5773
   44CHL1    H8 3197   5.632   4.423   3.338  2.7392 -1.9794 -1.3393
   44CHL1   C14 3198   5.752   4.561   3.457 -0.3675 -0.1154  0.0355
   44CHL1   H14 3199   5.805   4.655   3.429 -0.7208 -0.6106 -2.6132
   44CHL1   C15 3200   5.859   4.476   3.526  0.1725  0.6390  0.4530
   44CHL1  H15A 3201   5.843   4.368   3.504  1.0379  0.6360 -0.2039
   44CHL1  H15B 3202   5.958   4.497   3.481  0.4943 -1.3350  0.1320
   44CHL1   C16 3203   5.860   4.521   3.674  0.6830 -0.3778  1.2489
   44CHL1  H16A 3204   5.820   4.433   3.728 -0.5391 -1.4171 -1.1974
   44CHL1  H16B 3205   5.961   4.556   3.703  0.1439  1.1290  1.4174
   44CHL1   C17 3206   5.747   4.630   3.680 -0.9847  0.5024 -0.2676
   44CHL1   H17 3207   5.788   4.730   3.654 -0.5078  0.7422  1.3014
   44CHL1   C13 3208   5.650   4.601   3.563  0.4020 -0.1417 -0.1548
   44CHL1   C18 3209   5.560   4.478   3.606 -0.0958 -0.4382  0.4779
   44CHL1  H18A 3210   5.615   4.420   3.683  1.4282  0.7077  0.2845
   44CHL1  H18B 3211   5.481   4.524   3.668  1.5933  0.1149  2.2991
   44CHL1  H18C 3212   5.528   4.414   3.521  1.1216  0.5573 -0.7708
   44CHL1   C12 3213   5.568   4.715   3.502  0.1837  0.8693 -0.0304
   44CHL1  H12A 3214   5.493   4.758   3.572  0.3810  0.0177  0.7316
   44CHL1  H12B 3215   5.644   4.793   3.481 -0.6506  1.2833 -1.6861
   44CHL1   C11 3216   5.505   4.675   3.367  0.2624 -0.1097  0.8367
   44CHL1  H11A 3217   5.422   4.602   3.381  0.5577 -0.5564  0.2799
   44CHL1  H11B 3218   5.449   4.753   3.312  1.0060 -0.9779 -1.2417
   44CHL1    C9 3219   5.601   4.622   3.266  0.1780  0.4160 -0.2105
   44CHL1    H9 3220   5.662   4.710   3.237  1.3357 -0.6167 -1.0227
   44CHL1   C10 3221   5.542   4.569   3.132  0.2614 -0.0811  0.2531
   44CHL1   C19 3222   5.414   4.485   3.166  0.5727 -0.9722  0.3721
   44CHL1  H19A 3223   5.367   4.428   3.082 -2.1622  1.4712  0.0738
   44CHL1  H19B 3224   5.436   4.425   3.256 -1.9174 -1.5010  0.7189
   44CHL1  H19C 3225   5.335   4.559   3.194 -2.0145 -1.8178 -3.7393
   44CHL1    C1 3226   5.499   4.693   3.048 -0.0456 -0.3119  0.5023
   44CHL1   H1A 3227   5.420   4.752   3.098  0.9609  0.2276  1.4949
   44CHL1   H1B 3228   5.574   4.774   3.040 -0.5771  0.2205  0.8687
   44CHL1    C2 3229   5.454   4.660   2.906  0.4111  0.8604  0.5670
   44CHL1   H2A 3230   5.405   4.747   2.856 -0.3322  0.5471  0.7454
   44CHL1   H2B 3231   5.366   4.593   2.918  0.0558  0.7948 -1.8691
   44CHL1   C20 3232   5.686   4.643   3.827 -0.3796 -0.9950 -0.3615
   44CHL1   H20 3233   5.641   4.547   3.859 -0.1115 -0.9064  0.2892
   44CHL1   C21 3234   5.567   4.737   3.831 -0.0099 -0.5608  0.1883
   44CHL1  H21A 3235   5.554   4.780   3.933  0.2203  1.4620 -0.5813
   44CHL1  H21B 3236   5.595   4.832   3.780  0.5363  0.5276  2.4054
   44CHL1  H21C 3237   5.470   4.694   3.797 -0.1864  1.3824 -2.0750
   44CHL1   C22 3238   5.799   4.689   3.921 -0.4134 -0.1327 -0.3350
   44CHL1  H22A 3239   5.899   4.646   3.898 -0.3903 -0.1292 -0.2418
   44CHL1  H22B 3240   5.809   4.799   3.910  1.8573 -0.2852 -0.3153
   44CHL1   C23 3241   5.776   4.650   4.066 -0.8061  0.0473 -0.4460
   44CHL1  H23A 3242   5.691   4.707   4.109  0.3667  1.8972 -0.4963
   44CHL1  H23B 3243   5.753   4.542   4.081  0.4543 -0.0659  0.8449
   44CHL1   C24 3244   5.904   4.680   4.154 -1.1071  0.0142  0.2379
   44CHL1  H24A 3245   5.975   4.598   4.130 -1.8189 -1.3998  2.6590
   44CHL1  H24B 3246   5.948   4.778   4.130  0.0300 -0.2200  1.2704
   44CHL1   C25 3247   5.869   4.690   4.301  0.1331  0.0877  0.3669
   44CHL1   H25 3248   5.795   4.772   4.293  1.2557  1.1348  0.4141
   44CHL1   C26 3249   5.814   4.559   4.358  0.1518  0.4328  0.3106
   44CHL1  H26A 3250   5.797   4.565   4.468 -0.2126  2.1061  0.1924
   44CHL1  H26B 3251   5.718   4.532   4.309  0.1448  0.4428  0.3190
   44CHL1  H26C 3252   5.895   4.486   4.337  1.7038  1.9233  0.8373
   44CHL1   C27 3253   5.986   4.735   4.389  0.0258 -0.7898  0.0870
   44CHL1  H27A 3254   6.027   4.829   4.348 -0.9166 -1.2803 -2.0967
   44CHL1  H27B 3255   5.949   4.747   4.493  0.9200  0.0365  0.3295
   44CHL1  H27C 3256   6.042   4.640   4.380 -2.4846 -2.7233  2.8551
   45CHL1    C3 3257   3.134   4.153   2.978  0.8876 -0.4182  0.1742
   45CHL1    H3 3258   3.123   4.073   3.055 -0.0284 -1.0523 -0.5971
   45CHL1    O3 3259   3.151   4.091   2.853 -0.4134  0.2712 -0.1912
   45CHL1   H3' 3260   3.171   4.162   2.791  1.4778  2.5090  2.6735
   45CHL1    C4 3261   2.997   4.226   2.962  0.4508 -0.2659 -0.7352
   45CHL1   H4A 3262   2.995   4.299   2.878 -0.8242  1.9197  1.0666
   45CHL1   H4B 3263   2.923   4.157   2.917  0.1112  0.3710 -1.1790
   45CHL1    C5 3264   2.963   4.311   3.090  0.9661 -0.8882  1.1892
   45CHL1    C6 3265   2.842   4.289   3.147 -0.3882 -0.1460 -0.4535
   45CHL1    H6 3266   2.770   4.221   3.100 -2.7613  1.8620  0.1250
   45CHL1    C7 3267   2.795   4.371   3.265 -0.3651 -0.2549  0.2380
   45CHL1   H7A 3268   2.694   4.411   3.241  0.4736  0.7533 -1.8900
   45CHL1   H7B 3269   2.786   4.313   3.359 -0.8202  0.2583  0.5195
   45CHL1    C8 3270   2.886   4.496   3.300  0.0878  0.6230  0.7712
   45CHL1    H8 3271   2.871   4.585   3.235  0.6817  0.6770  0.7029
   45CHL1   C14 3272   2.856   4.540   3.439  0.9277  0.2668 -0.2251
   45CHL1   H14 3273   2.878   4.451   3.502 -1.1567 -0.6052 -0.6436
   45CHL1   C15 3274   2.706   4.575   3.470  0.3919  0.5253  0.2247
   45CHL1  H15A 3275   2.669   4.650   3.396 -0.1014 -0.6120 -0.7268
   45CHL1  H15B 3276   2.639   4.486   3.465  1.7359 -0.5047  0.0969
   45CHL1   C16 3277   2.710   4.632   3.614  0.3065 -0.4875  0.5434
   45CHL1  H16A 3278   2.639   4.717   3.625  0.9014  0.0141  0.5966
   45CHL1  H16B 3279   2.677   4.554   3.687 -1.1879 -0.6075 -0.2233
   45CHL1   C17 3280   2.864   4.676   3.630 -0.0865  0.6896  0.3288
   45CHL1   H17 3281   2.903   4.598   3.700 -1.6849 -1.1422 -0.7092
   45CHL1   C13 3282   2.930   4.657   3.492 -0.7370  0.0996  0.3069
   45CHL1   C18 3283   2.913   4.783   3.409  0.1640  0.6357  0.4973
   45CHL1  H18A 3284   2.984   4.866   3.432 -0.8024  1.1891  1.5416
   45CHL1  H18B 3285   2.919   4.763   3.300  0.2514 -2.5388  1.0056
   45CHL1  H18C 3286   2.811   4.824   3.422  0.3035  0.7576  1.2460
   45CHL1   C12 3287   3.090   4.622   3.485 -0.1733  0.5577  0.2182
   45CHL1  H12A 3288   3.151   4.709   3.517 -2.0245  1.4021  1.7077
   45CHL1  H12B 3289   3.104   4.536   3.554 -1.4165 -1.9799 -2.5011
   45CHL1   C11 3290   3.125   4.570   3.342  0.4714  0.2754  0.6268
   45CHL1  H11A 3291   3.137   4.658   3.276  1.4539 -0.7926 -0.6663
   45CHL1  H11B 3292   3.230   4.538   3.357  0.2775 -0.5934  0.1944
   45CHL1    C9 3293   3.038   4.459   3.282 -0.2194 -0.0464  0.3096
   45CHL1    H9 3294   3.055   4.371   3.348 -1.2225 -0.3757  0.1322
   45CHL1   C10 3295   3.069   4.406   3.144 -0.3475  0.2232  0.7077
   45CHL1   C19 3296   3.073   4.534   3.053  0.2744  0.0869 -0.2247
   45CHL1  H19A 3297   3.064   4.508   2.946  0.2484 -3.3187  0.5029
   45CHL1  H19B 3298   2.976   4.586   3.070 -1.1473 -2.8881  1.5181
   45CHL1  H19C 3299   3.161   4.602   3.063  0.3770  0.2141 -1.7664
   45CHL1    C1 3300   3.207   4.328   3.146  0.7274  0.2095 -1.3895
   45CHL1   H1A 3301   3.285   4.403   3.168  0.9275 -0.0337 -1.2550
   45CHL1   H1B 3302   3.207   4.250   3.226 -0.9419  0.8550 -0.7162
   45CHL1    C2 3303   3.243   4.255   3.017 -0.2273  0.9220  0.8229
   45CHL1   H2A 3304   3.335   4.194   3.024 -1.3775 -1.3426 -1.7600
   45CHL1   H2B 3305   3.258   4.336   2.942  0.8327 -0.0335 -0.0406
   45CHL1   C20 3306   2.877   4.809   3.711  0.0099  0.2157  0.4217
   45CHL1   H20 3307   2.834   4.889   3.649 -1.2913 -0.3794  0.5276
   45CHL1   C21 3308   3.024   4.847   3.726  0.5305  0.0682 -0.1335
   45CHL1  H21A 3309   3.044   4.947   3.770 -2.8649  0.6012  0.4283
   45CHL1  H21B 3310   3.086   4.848   3.634  3.1213 -2.1229  1.4111
   45CHL1  H21C 3311   3.069   4.781   3.804 -0.9337 -0.3444  0.3876
   45CHL1   C22 3312   2.806   4.801   3.846 -0.1903 -0.6025 -0.0825
   45CHL1  H22A 3313   2.777   4.698   3.877 -1.1761 -1.4440 -3.3881
   45CHL1  H22B 3314   2.883   4.837   3.918 -1.6767  2.4068  0.1423
   45CHL1   C23 3315   2.693   4.904   3.859 -0.1082  0.8563  0.7507
   45CHL1  H23A 3316   2.732   5.000   3.818  0.6706  0.4688  0.5752
   45CHL1  H23B 3317   2.609   4.884   3.789  0.6887  2.5553 -0.7853
   45CHL1   C24 3318   2.655   4.924   4.005  0.3380  0.1207 -0.0908
   45CHL1  H24A 3319   2.742   4.958   4.065  0.7016  0.4163 -0.7839
   45CHL1  H24B 3320   2.581   5.007   4.005  0.8432  0.5808 -0.8315
   45CHL1   C25 3321   2.601   4.794   4.078  0.2759 -0.3697 -0.1159
   45CHL1   H25 3322   2.671   4.709   4.089  0.2874 -0.4086 -0.4729
   45CHL1   C26 3323   2.558   4.818   4.227 -0.6119  0.0299  0.6437
   45CHL1  H26A 3324   2.517   4.728   4.278 -0.8241  0.1153  0.6243
   45CHL1  H26B 3325   2.641   4.855   4.291 -0.3420 -1.3130  1.0999
   45CHL1  H26C 3326   2.492   4.907   4.221  0.2351  0.6064 -0.4376
   45CHL1   C27 3327   2.476   4.748   4.002 -0.2800 -0.3046  0.2076
   45CHL1  H27A 3328   2.515   4.710   3.905 -0.3613  2.5290 -1.0623
   45CHL1  H27B 3329   2.419   4.661   4.039  0.4074 -0.0666  1.9274
   45CHL1  H27C 3330   2.409   4.834   3.979  0.4368  0.4984  1.0216
   46CHL1    C3 3331   3.644   5.609   2.615  0.0918 -0.3504 -0.1937
   46CHL1    H3 3332   3.723   5.532   2.596 -0.0913 -0.0001 -2.7219
   46CHL1    O3 3333   3.590   5.635   2.489  0.2538 -0.3913  0.5416
   46CHL1   H3' 3334   3.547   5.720   2.497 -0.3493 -0.7864  1.8224
   46CHL1    C4 3335   3.526   5.587   2.708 -0.1262 -0.2557  0.2516
   46CHL1   H4A 3336   3.461   5.677   2.707  2.2192  1.5335 -2.0420
   46CHL1   H4B 3337   3.461   5.500   2.683  1.3365 -1.4505  0.5071
   46CHL1    C5 3338   3.570   5.557   2.849 -0.6689  0.6167 -0.1924
   46CHL1    C6 3339   3.533   5.445   2.913  0.0599 -0.0140  0.7362
   46CHL1    H6 3340   3.454   5.388   2.861 -1.2665  1.1866  1.3585
   46CHL1    C7 3341   3.566   5.409   3.056 -0.2380 -0.0759  0.2203
   46CHL1   H7A 3342   3.468   5.387   3.105  0.2793 -0.5122  1.0768
   46CHL1   H7B 3343   3.626   5.316   3.063 -0.1312 -0.0240  0.0009
   46CHL1    C8 3344   3.637   5.518   3.128  0.0597  0.0022 -0.1177
   46CHL1    H8 3345   3.564   5.597   3.156 -1.0086 -0.9849 -0.0196
   46CHL1   C14 3346   3.712   5.464   3.246 -0.1459 -1.0672 -0.1330
   46CHL1   H14 3347   3.795   5.414   3.193  2.0624  0.6386  1.4910
   46CHL1   C15 3348   3.655   5.362   3.348  0.0008  0.3288 -0.4344
   46CHL1  H15A 3349   3.560   5.407   3.384 -0.0900  1.5281 -2.0281
   46CHL1  H15B 3350   3.636   5.262   3.305 -0.0877  0.0580  0.2258
   46CHL1   C16 3351   3.753   5.356   3.461 -0.6460 -0.2634 -0.2620
   46CHL1  H16A 3352   3.710   5.345   3.562 -0.5862 -1.5720 -0.3672
   46CHL1  H16B 3353   3.822   5.274   3.434 -0.1295  0.7124 -2.1392
   46CHL1   C17 3354   3.854   5.481   3.437  0.0961  0.5708  0.4523
   46CHL1   H17 3355   3.946   5.441   3.388  2.2603  3.1558  2.0918
   46CHL1   C13 3356   3.784   5.572   3.333  0.0986 -0.1407 -0.1596
   46CHL1   C18 3357   3.684   5.663   3.405  0.4917  0.0480  0.9794
   46CHL1  H18A 3358   3.616   5.699   3.325 -1.0015 -1.4671  1.5126
   46CHL1  H18B 3359   3.620   5.611   3.480  0.7167  0.5651  1.5382
   46CHL1  H18C 3360   3.731   5.752   3.454  3.1962  0.2369 -1.6756
   46CHL1   C12 3361   3.882   5.645   3.241 -0.0370 -0.8284  0.5493
   46CHL1  H12A 3362   3.921   5.735   3.292 -0.1003 -0.1438 -0.5749
   46CHL1  H12B 3363   3.970   5.583   3.214  0.9177  0.1403  1.3592
   46CHL1   C11 3364   3.815   5.705   3.117 -0.1714 -0.1266 -0.2139
   46CHL1  H11A 3365   3.758   5.790   3.160  1.9164  1.2389  0.0201
   46CHL1  H11B 3366   3.882   5.754   3.044 -1.3302 -0.9406 -1.8851
   46CHL1    C9 3367   3.728   5.602   3.036  0.3885  0.0583 -0.0168
   46CHL1    H9 3368   3.797   5.525   2.995 -0.1824 -1.3258  1.5096
   46CHL1   C10 3369   3.669   5.665   2.909  0.3006  0.6144  0.3928
   46CHL1   C19 3370   3.570   5.777   2.945 -0.6225  0.3472 -0.9867
   46CHL1  H19A 3371   3.620   5.858   3.002 -1.8049  0.3360  0.1056
   46CHL1  H19B 3372   3.528   5.823   2.853 -0.2186 -0.4977 -1.6136
   46CHL1  H19C 3373   3.482   5.736   2.999 -1.0309  1.1091 -1.0602
   46CHL1    C1 3374   3.777   5.707   2.813  0.3790  0.2950 -0.0632
   46CHL1   H1A 3375   3.839   5.792   2.847 -0.5690  0.5181  1.1920
   46CHL1   H1B 3376   3.847   5.622   2.801  2.0578  0.9683  3.5184
   46CHL1    C2 3377   3.726   5.731   2.667  0.4039 -0.3660 -0.8828
   46CHL1   H2A 3378   3.817   5.757   2.609  2.1306 -3.5211  0.2042
   46CHL1   H2B 3379   3.654   5.814   2.678  2.0096  1.1182 -1.2010
   46CHL1   C20 3380   3.907   5.526   3.574 -0.4421 -0.1576 -0.8198
   46CHL1   H20 3381   3.815   5.564   3.621 -1.0534  0.4433 -2.4269
   46CHL1   C21 3382   4.000   5.647   3.556  0.0868  0.9354 -0.3091
   46CHL1  H21A 3383   3.949   5.719   3.488 -0.2067  0.2770 -0.8022
   46CHL1  H21B 3384   4.096   5.618   3.509  0.6990  2.9361 -0.3765
   46CHL1  H21C 3385   4.018   5.688   3.658 -0.3397 -2.1103  1.1147
   46CHL1   C22 3386   3.976   5.416   3.660  0.2712 -0.9282 -0.1298
   46CHL1  H22A 3387   3.902   5.335   3.678 -0.8251  0.4529  1.9678
   46CHL1  H22B 3388   4.060   5.376   3.600 -0.4884 -2.3789 -0.2677
   46CHL1   C23 3389   4.039   5.453   3.801  0.0623 -0.1900  0.1108
   46CHL1  H23A 3390   4.076   5.356   3.842 -0.4812 -0.0574  0.9475
   46CHL1  H23B 3391   4.118   5.530   3.798 -1.3330  1.2893  0.3185
   46CHL1   C24 3392   3.930   5.490   3.904 -0.8152 -0.1912 -0.1295
   46CHL1  H24A 3393   3.857   5.563   3.861 -2.0540 -1.3765 -0.1006
   46CHL1  H24B 3394   3.884   5.395   3.937  0.7463  0.0598  3.1637
   46CHL1   C25 3395   3.984   5.569   4.026  0.3984  1.0248 -0.6818
   46CHL1   H25 3396   4.048   5.656   3.998  0.7446  1.3333  0.9391
   46CHL1   C26 3397   3.873   5.619   4.119  0.3040 -0.1071  0.7522
   46CHL1  H26A 3398   3.812   5.695   4.067 -0.5061 -0.6943  0.8185
   46CHL1  H26B 3399   3.807   5.531   4.138  1.2597 -0.7144  1.3889
   46CHL1  H26C 3400   3.923   5.658   4.210  1.9588  0.5228 -0.3869
   46CHL1   C27 3401   4.079   5.481   4.104 -0.6781  0.0645 -0.0239
   46CHL1  H27A 3402   4.088   5.531   4.203 -1.8027  1.6146 -0.6625
   46CHL1  H27B 3403   4.035   5.381   4.125  0.5061 -0.3922  0.3476
   46CHL1  H27C 3404   4.173   5.472   4.046 -1.9156  0.4273 -2.1989
   47CHL1    C3 3405   6.434   6.795   2.934  0.0092 -1.0133 -0.0564
   47CHL1    H3 3406   6.430   6.689   2.966 -1.3920 -1.4137 -1.4260
   47CHL1    O3 3407   6.448   6.800   2.788 -0.0185 -0.2450 -0.1656
   47CHL1   H3' 3408   6.373   6.744   2.767  0.0397 -1.3069  2.0679
   47CHL1    C4 3409   6.298   6.859   2.959  0.0264 -0.8188 -0.9025
   47CHL1   H4A 3410   6.294   6.961   2.916 -1.7956 -0.3985  0.1859
   47CHL1   H4B 3411   6.221   6.799   2.907  0.5428 -1.4591 -0.9501
   47CHL1    C5 3412   6.271   6.863   3.113  1.1855  0.3106  0.0018
   47CHL1    C6 3413   6.168   6.796   3.168 -0.1870 -0.3944 -0.3656
   47CHL1    H6 3414   6.101   6.725   3.117 -1.6894 -1.0938  2.3509
   47CHL1    C7 3415   6.126   6.812   3.319 -0.2546  0.2196  0.2507
   47CHL1   H7A 3416   6.024   6.850   3.340  0.2497  1.4130  0.6299
   47CHL1   H7B 3417   6.151   6.717   3.371 -1.6910  0.3148  1.1839
   47CHL1    C8 3418   6.214   6.927   3.387 -0.1117  0.3897  0.2548
   47CHL1    H8 3419   6.175   7.024   3.352  0.2130  0.4145 -0.0375
   47CHL1   C14 3420   6.205   6.908   3.542 -0.7919 -0.1497 -0.6024
   47CHL1   H14 3421   6.244   6.808   3.567 -0.8062  0.2457  1.1155
   47CHL1   C15 3422   6.066   6.912   3.607  0.0066  0.0811  1.0578
   47CHL1  H15A 3423   6.013   7.003   3.570 -1.4363 -0.3811  1.9308
   47CHL1  H15B 3424   6.000   6.827   3.582  1.3062 -1.0398  1.2808
   47CHL1   C16 3425   6.093   6.919   3.762  0.3285 -0.2832  0.8424
   47CHL1  H16A 3426   6.042   7.007   3.806  0.4856  0.5055 -0.5138
   47CHL1  H16B 3427   6.066   6.822   3.810  0.4554  0.1563  1.8184
   47CHL1   C17 3428   6.250   6.942   3.765  1.2196 -0.4988 -0.0187
   47CHL1   H17 3429   6.295   6.840   3.763 -1.1284 -1.5836 -0.4947
   47CHL1   C13 3430   6.298   6.997   3.631  0.2306  0.2939  0.7587
   47CHL1   C18 3431   6.258   7.150   3.621  0.6032  0.4848  0.1423
   47CHL1  H18A 3432   6.317   7.216   3.687 -0.6991  1.9794 -0.1180
   47CHL1  H18B 3433   6.287   7.187   3.520  1.5250  1.0924  0.6135
   47CHL1  H18C 3434   6.155   7.184   3.645 -0.1771  0.9535 -3.2925
   47CHL1   C12 3435   6.440   6.964   3.592  0.0104 -0.8325  0.3483
   47CHL1  H12A 3436   6.510   7.034   3.640 -2.7250  2.1077  0.3966
   47CHL1  H12B 3437   6.465   6.857   3.610  0.2053 -0.7629  0.4812
   47CHL1   C11 3438   6.454   6.995   3.437 -0.0657 -0.0206  0.1769
   47CHL1  H11A 3439   6.435   7.103   3.421  0.5016 -0.1878 -1.9138
   47CHL1  H11B 3440   6.561   6.982   3.410 -0.2757 -0.6937 -0.3599
   47CHL1    C9 3441   6.363   6.916   3.344 -0.0999  0.0538  0.5894
   47CHL1    H9 3442   6.398   6.813   3.368  0.8556  0.3557  0.5126
   47CHL1   C10 3443   6.373   6.938   3.191 -0.7619  0.1159 -0.3042
   47CHL1   C19 3444   6.377   7.084   3.166  0.2090  0.7913  0.5837
   47CHL1  H19A 3445   6.363   7.109   3.058  0.2478  0.3792  0.4831
   47CHL1  H19B 3446   6.301   7.139   3.225  0.9182  0.8470  1.4703
   47CHL1  H19C 3447   6.479   7.122   3.191 -1.0295  4.6833  0.4718
   47CHL1    C1 3448   6.507   6.876   3.143  0.2892  0.6866  0.3423
   47CHL1   H1A 3449   6.584   6.936   3.196  0.9351  1.6091 -1.5517
   47CHL1   H1B 3450   6.511   6.776   3.190 -0.7047  1.5022  2.3205
   47CHL1    C2 3451   6.540   6.873   2.999 -0.6230 -0.6160 -0.4241
   47CHL1   H2A 3452   6.640   6.829   2.981 -1.6009 -2.3679 -1.8993
   47CHL1   H2B 3453   6.534   6.977   2.960 -0.6564  0.3895  2.0779
   47CHL1   C20 3454   6.291   7.011   3.888  0.2658 -0.3475  0.1329
   47CHL1   H20 3455   6.286   7.121   3.877 -2.6640 -0.5891 -1.8250
   47CHL1   C21 3456   6.437   6.964   3.919 -0.4787  0.7509 -0.5124
   47CHL1  H21A 3457   6.442   6.874   3.984  0.7009 -0.9611 -2.8338
   47CHL1  H21B 3458   6.495   7.034   3.981  1.7939 -0.4898 -1.1244
   47CHL1  H21C 3459   6.502   6.947   3.830 -1.0884 -1.0605 -0.6562
   47CHL1   C22 3460   6.199   6.996   4.015 -0.4233 -0.3996  0.4332
   47CHL1  H22A 3461   6.103   7.052   4.005  0.7676  1.8894  1.1318
   47CHL1  H22B 3462   6.182   6.888   4.034 -0.1540 -0.6507 -0.7039
   47CHL1   C23 3463   6.256   7.047   4.149 -0.1156 -0.4515 -0.3803
   47CHL1  H23A 3464   6.328   6.968   4.179  0.2329  0.4663  1.3043
   47CHL1  H23B 3465   6.308   7.145   4.149 -0.4246 -0.2771  0.5881
   47CHL1   C24 3466   6.145   7.040   4.255  0.0559 -0.4562 -0.7436
   47CHL1  H24A 3467   6.080   7.130   4.246  0.5363 -0.1042 -0.7275
   47CHL1  H24B 3468   6.077   6.953   4.241  1.4058 -1.6318 -0.3120
   47CHL1   C25 3469   6.187   7.040   4.404  0.0855 -0.0551  0.4273
   47CHL1   H25 3470   6.242   6.946   4.428 -0.2676 -0.2622  0.4235
   47CHL1   C26 3471   6.294   7.156   4.429  0.4316  0.1809 -0.4307
   47CHL1  H26A 3472   6.302   7.187   4.536 -1.1334  2.3101 -0.8540
   47CHL1  H26B 3473   6.385   7.095   4.409  0.2861 -0.1882  0.0413
   47CHL1  H26C 3474   6.273   7.234   4.352 -1.3350 -0.8773 -1.0657
   47CHL1   C27 3475   6.075   7.044   4.510  0.1278  0.0735 -0.7368
   47CHL1  H27A 3476   6.121   7.026   4.609 -0.5526 -0.2340 -0.4719
   47CHL1  H27B 3477   6.013   7.136   4.512 -0.8066 -0.5426 -0.8190
   47CHL1  H27C 3478   6.004   6.959   4.500  0.9201 -0.8372  0.8786
   48CHL1    C3 3479   2.395   5.659   2.788  0.1386 -0.0724 -0.1378
   48CHL1    H3 3480   2.436   5.762   2.775 -0.6232  0.2182 -0.3038
   48CHL1    O3 3481   2.371   5.594   2.670 -0.1387 -0.2049 -0.0791
   48CHL1   H3' 3482   2.348   5.507   2.702  1.4820 -0.1484  1.4027
   48CHL1    C4 3483   2.505   5.588   2.869  0.7984  0.3653  0.0387
   48CHL1   H4A 3484   2.475   5.481   2.862  0.8562  0.3010  0.7702
   48CHL1   H4B 3485   2.596   5.591   2.806 -0.3713  0.3339 -1.7407
   48CHL1    C5 3486   2.522   5.638   3.015  0.0452 -0.4313 -0.4859
   48CHL1    C6 3487   2.643   5.676   3.063 -0.4185  0.4541 -1.1604
   48CHL1    H6 3488   2.734   5.660   3.004  1.1251  1.1250  0.9040
   48CHL1    C7 3489   2.671   5.722   3.207  0.1469  0.5293  0.5266
   48CHL1   H7A 3490   2.762   5.670   3.244 -0.2049 -1.4926 -1.2549
   48CHL1   H7B 3491   2.678   5.832   3.216 -4.6168  1.1420 -0.6041
   48CHL1    C8 3492   2.549   5.670   3.289  0.3073  0.1122 -0.9699
   48CHL1    H8 3493   2.556   5.562   3.311  1.7077  0.5422  1.0246
   48CHL1   C14 3494   2.546   5.744   3.429  0.0523 -0.3638 -0.0671
   48CHL1   H14 3495   2.552   5.853   3.406 -0.1900 -0.3074  0.1314
   48CHL1   C15 3496   2.673   5.731   3.520 -0.6563  0.3869 -0.5526
   48CHL1  H15A 3497   2.712   5.627   3.529  4.3099  1.9751 -0.5598
   48CHL1  H15B 3498   2.757   5.788   3.476  1.3208 -0.6219  1.6908
   48CHL1   C16 3499   2.622   5.769   3.661 -0.6659  0.1317 -0.1576
   48CHL1  H16A 3500   2.638   5.682   3.728  0.1170  0.1886 -0.2632
   48CHL1  H16B 3501   2.674   5.861   3.695 -1.4036  1.6367 -2.8272
   48CHL1   C17 3502   2.469   5.794   3.655  0.1771  0.1801  0.2146
   48CHL1   H17 3503   2.466   5.902   3.627 -1.3895 -0.5470 -2.9681
   48CHL1   C13 3504   2.429   5.718   3.527 -0.0825  0.2520 -0.0925
   48CHL1   C18 3505   2.415   5.568   3.561  0.0451 -0.5362 -0.2145
   48CHL1  H18A 3506   2.417   5.515   3.464  2.9204 -1.7007  0.3739
   48CHL1  H18B 3507   2.492   5.531   3.632  0.2358 -1.1224 -0.7176
   48CHL1  H18C 3508   2.315   5.551   3.607 -0.6307  0.3139 -1.3265
   48CHL1   C12 3509   2.300   5.773   3.464  0.7651  0.4055  0.1099
   48CHL1  H12A 3510   2.208   5.750   3.520  1.2186 -3.2688 -0.3955
   48CHL1  H12B 3511   2.303   5.880   3.433  0.5192  0.2849 -0.3515
   48CHL1   C11 3512   2.285   5.703   3.324 -0.4056  0.2735  0.2337
   48CHL1  H11A 3513   2.252   5.598   3.335  1.4570 -0.1779  2.2014
   48CHL1  H11B 3514   2.210   5.765   3.269  0.3291  1.6284  0.7065
   48CHL1    C9 3515   2.412   5.707   3.227  0.3040 -0.0800  0.4291
   48CHL1    H9 3516   2.422   5.816   3.209  0.5246 -0.3552 -1.3135
   48CHL1   C10 3517   2.391   5.645   3.090  0.4602 -0.2721 -0.9221
   48CHL1   C19 3518   2.347   5.494   3.114 -0.0610 -0.3340 -0.1547
   48CHL1  H19A 3519   2.415   5.436   3.180  0.6385 -1.6519 -1.9699
   48CHL1  H19B 3520   2.252   5.498   3.171 -0.6485  0.5534 -1.1617
   48CHL1  H19C 3521   2.339   5.446   3.015  1.4380 -0.1258 -0.4001
   48CHL1    C1 3522   2.287   5.727   3.007 -0.6432  0.3447  1.4937
   48CHL1   H1A 3523   2.188   5.735   3.057 -2.5788  0.8582 -2.0877
   48CHL1   H1B 3524   2.317   5.834   3.003  3.1719 -0.5877  0.7000
   48CHL1    C2 3525   2.259   5.673   2.863  1.1815 -0.5940 -0.6713
   48CHL1   H2A 3526   2.195   5.745   2.808 -0.4342 -1.5279 -0.1041
   48CHL1   H2B 3527   2.209   5.574   2.874  2.0781 -1.0066 -0.2148
   48CHL1   C20 3528   2.390   5.772   3.785  0.5198 -0.1425  0.6120
   48CHL1   H20 3529   2.366   5.664   3.788  0.5989 -0.2093 -0.5739
   48CHL1   C21 3530   2.264   5.867   3.781  0.3641  0.0276  0.3598
   48CHL1  H21A 3531   2.235   5.890   3.886  0.9263 -0.8150  0.7107
   48CHL1  H21B 3532   2.178   5.806   3.746  0.6769 -1.8674  2.6183
   48CHL1  H21C 3533   2.282   5.963   3.728 -0.0056  0.9758  1.8817
   48CHL1   C22 3534   2.482   5.801   3.909  0.1458  0.5623  0.4226
   48CHL1  H22A 3535   2.544   5.710   3.919 -1.3676 -0.2843  2.7791
   48CHL1  H22B 3536   2.544   5.893   3.897 -0.5508  0.7992 -2.0144
   48CHL1   C23 3537   2.405   5.800   4.047 -0.0713 -0.1776  0.5426
   48CHL1  H23A 3538   2.379   5.905   4.072 -1.0751 -0.3982  0.4619
   48CHL1  H23B 3539   2.319   5.733   4.027 -0.2018  0.3918 -0.9123
   48CHL1   C24 3540   2.492   5.742   4.159  0.5228  0.0806  0.2687
   48CHL1  H24A 3541   2.425   5.739   4.247 -2.6400 -2.0898 -1.9850
   48CHL1  H24B 3542   2.512   5.636   4.133  0.3531  0.1490 -0.1487
   48CHL1   C25 3543   2.615   5.830   4.197  0.2104 -0.1628 -0.1300
   48CHL1   H25 3544   2.666   5.850   4.101  0.4042 -2.6039 -0.6039
   48CHL1   C26 3545   2.595   5.955   4.290 -0.1229  0.1319 -0.5185
   48CHL1  H26A 3546   2.549   5.931   4.388  0.2078  1.6686  0.0480
   48CHL1  H26B 3547   2.690   6.007   4.314 -0.7473  0.8219  0.5372
   48CHL1  H26C 3548   2.528   6.033   4.247  0.4248  0.5931 -0.5441
   48CHL1   C27 3549   2.720   5.742   4.269 -0.1499  0.5980  0.0845
   48CHL1  H27A 3550   2.758   5.658   4.207 -1.6229 -0.4830  0.6012
   48CHL1  H27B 3551   2.809   5.807   4.283  0.1234  0.3861 -0.6232
   48CHL1  H27C 3552   2.692   5.714   4.373 -0.8406  2.2818  0.3773
   49CHL1    C3 3553   6.508   3.102   2.827 -0.3930  0.2228 -0.4172
   49CHL1    H3 3554   6.589   3.038   2.868 -0.1021  1.3872  0.8814
   49CHL1    O3 3555   6.511   3.102   2.685  0.0250 -0.0156  0.3879
   49CHL1   H3' 3556   6.440   3.157   2.651  0.5365 -1.0632 -2.6400
   49CHL1    C4 3557   6.380   3.030   2.882 -0.1724 -0.1731  1.0218
   49CHL1   H4A 3558   6.295   3.082   2.832  2.4648  2.4585 -1.1098
   49CHL1   H4B 3559   6.381   2.923   2.853 -0.6622 -0.5564  2.3217
   49CHL1    C5 3560   6.366   3.042   3.030 -0.0850  0.4774  0.3810
   49CHL1    C6 3561   6.349   2.928   3.104 -0.1434 -0.9345  0.3659
   49CHL1    H6 3562   6.349   2.836   3.043 -0.2121 -0.1926 -0.7839
   49CHL1    C7 3563   6.349   2.918   3.254  0.7123 -0.5641 -0.5402
   49CHL1   H7A 3564   6.272   2.849   3.294 -1.6529  1.6469 -0.9706
   49CHL1   H7B 3565   6.448   2.891   3.295  1.1723  1.1863 -0.4486
   49CHL1    C8 3566   6.308   3.058   3.320 -0.1625  0.5486  0.5927
   49CHL1    H8 3567   6.201   3.072   3.295  0.0286  1.6229  0.3043
   49CHL1   C14 3568   6.333   3.057   3.469 -0.0505  0.2477  0.8993
   49CHL1   H14 3569   6.438   3.023   3.480 -0.3146 -1.0715 -0.4495
   49CHL1   C15 3570   6.257   2.950   3.549 -0.6419 -0.8700 -0.5251
   49CHL1  H15A 3571   6.154   2.950   3.507 -0.9702  1.7387  0.1453
   49CHL1  H15B 3572   6.310   2.852   3.544  0.8066 -0.0704 -1.4660
   49CHL1   C16 3573   6.265   3.001   3.701 -0.4831  0.4215  0.6809
   49CHL1  H16A 3574   6.165   3.003   3.749 -0.4311  2.4420  0.7641
   49CHL1  H16B 3575   6.332   2.939   3.763 -2.1522 -0.3864  1.7469
   49CHL1   C17 3576   6.313   3.151   3.690  0.0749 -0.3190  0.7215
   49CHL1   H17 3577   6.422   3.138   3.705 -0.0978 -1.2336  1.3525
   49CHL1   C13 3578   6.304   3.187   3.536  0.2350  0.8353 -0.1660
   49CHL1   C18 3579   6.152   3.226   3.514  0.5750 -0.5949  0.2385
   49CHL1  H18A 3580   6.079   3.152   3.555 -0.6427 -0.0653 -0.9101
   49CHL1  H18B 3581   6.129   3.328   3.552  1.1194 -1.3461  2.7669
   49CHL1  H18C 3582   6.136   3.223   3.404 -0.2437  2.4712  0.1795
   49CHL1   C12 3583   6.394   3.298   3.485  0.8111 -0.6859 -0.3266
   49CHL1  H12A 3584   6.378   3.398   3.531  2.4927  0.5118 -2.1351
   49CHL1  H12B 3585   6.501   3.271   3.503  1.0416  1.4511  2.0921
   49CHL1   C11 3586   6.392   3.310   3.332 -0.0170  0.0585 -0.9685
   49CHL1  H11A 3587   6.300   3.366   3.307 -0.0525 -0.1965 -1.4033
   49CHL1  H11B 3588   6.483   3.365   3.299  0.1786  0.4414  0.1532
   49CHL1    C9 3589   6.394   3.172   3.258 -0.1675 -0.0086  0.3181
   49CHL1    H9 3590   6.496   3.130   3.266  0.4202  1.4634  0.9781
   49CHL1   C10 3591   6.381   3.181   3.097  0.1590 -0.6606  0.1103
   49CHL1   C19 3592   6.247   3.257   3.061 -0.1824  0.1754 -0.5388
   49CHL1  H19A 3593   6.158   3.222   3.117  0.5807  0.5743  0.9622
   49CHL1  H19B 3594   6.249   3.361   3.101 -0.6916 -0.0739  0.1559
   49CHL1  H19C 3595   6.230   3.267   2.952  1.6040 -0.8428 -0.9462
   49CHL1    C1 3596   6.502   3.256   3.032  0.1034 -0.9029 -0.0888
   49CHL1   H1A 3597   6.525   3.359   3.066 -1.0303 -1.1743  1.6282
   49CHL1   H1B 3598   6.591   3.202   3.070  0.1228  0.7421  2.4316
   49CHL1    C2 3599   6.505   3.246   2.877 -0.5435  0.5393 -0.2841
   49CHL1   H2A 3600   6.595   3.304   2.848 -0.6138  0.0023 -1.6608
   49CHL1   H2B 3601   6.425   3.304   2.827  0.8313  2.0815 -0.7816
   49CHL1   C20 3602   6.255   3.241   3.795  0.9453  0.2744  0.2288
   49CHL1   H20 3603   6.155   3.283   3.771  1.5661  1.7079  0.0773
   49CHL1   C21 3604   6.343   3.363   3.799  0.1114 -0.1316 -0.1621
   49CHL1  H21A 3605   6.309   3.435   3.721 -0.3883 -1.4898 -1.2649
   49CHL1  H21B 3606   6.452   3.351   3.783  0.3537  1.1514  0.4571
   49CHL1  H21C 3607   6.331   3.418   3.894  1.2125  0.0564 -0.1232
   49CHL1   C22 3608   6.244   3.181   3.938  0.2822 -0.2224  0.0991
   49CHL1  H22A 3609   6.194   3.259   3.999  0.5742 -0.3823  0.5433
   49CHL1  H22B 3610   6.177   3.092   3.938  0.9121 -0.7889 -2.4614
   49CHL1   C23 3611   6.376   3.147   4.002  0.4801  0.3549  0.6594
   49CHL1  H23A 3612   6.432   3.095   3.921 -1.2373  0.9715 -0.9930
   49CHL1  H23B 3613   6.435   3.238   4.026  3.4706 -1.3721  0.3788
   49CHL1   C24 3614   6.359   3.057   4.129 -0.0841  0.6170  0.7111
   49CHL1  H24A 3615   6.300   3.121   4.199 -0.7816  0.6361  0.1114
   49CHL1  H24B 3616   6.313   2.962   4.095  0.7125 -0.2049  1.8421
   49CHL1   C25 3617   6.486   3.022   4.210 -0.3075  0.1820  0.4099
   49CHL1   H25 3618   6.561   2.981   4.138 -0.0701  1.1821  0.0713
   49CHL1   C26 3619   6.551   3.144   4.275  0.3471 -0.3248 -1.0314
   49CHL1  H26A 3620   6.560   3.236   4.213  0.5804 -1.3622 -2.5911
   49CHL1  H26B 3621   6.518   3.172   4.378  1.1224 -0.4641 -0.7399
   49CHL1  H26C 3622   6.656   3.113   4.295 -0.4090 -3.3094 -1.2060
   49CHL1   C27 3623   6.458   2.911   4.313  0.7588 -0.3775  0.5687
   49CHL1  H27A 3624   6.558   2.895   4.359  1.9498  3.7161 -0.1894
   49CHL1  H27B 3625   6.379   2.947   4.383  0.8331 -0.7803  0.8630
   49CHL1  H27C 3626   6.418   2.817   4.270 -0.2522 -0.4916  1.7040
   50CHL1    C3 3627   4.015   4.559   2.638 -0.4721 -1.2136  0.2456
   50CHL1    H3 3628   4.091   4.628   2.679 -1.7813  1.5566 -1.7198
   50CHL1    O3 3629   4.016   4.571   2.497 -0.1640  0.8399  0.2304
   50CHL1   H3' 3630   3.952   4.504   2.471 -0.7623  1.3013  0.4755
   50CHL1    C4 3631   4.063   4.414   2.676 -0.4340  0.4216 -0.0883
   50CHL1   H4A 3632   3.995   4.338   2.633  1.9314 -1.0886 -1.3835
   50CHL1   H4B 3633   4.164   4.405   2.630  0.1918 -0.9367  1.4612
   50CHL1    C5 3634   4.073   4.396   2.830 -0.9111 -0.8815 -0.4586
   50CHL1    C6 3635   4.186   4.350   2.887 -0.5603  1.3821  0.6042
   50CHL1    H6 3636   4.270   4.315   2.825 -2.1149 -0.7101 -0.4209
   50CHL1    C7 3637   4.205   4.331   3.037 -0.3394  0.1365  0.6506
   50CHL1   H7A 3638   4.254   4.235   3.064  0.1107 -0.1466 -1.0459
   50CHL1   H7B 3639   4.264   4.415   3.080  0.5542 -1.9175  3.7021
   50CHL1    C8 3640   4.065   4.322   3.103 -0.1907  0.5580 -0.3729
   50CHL1    H8 3641   4.019   4.224   3.077  1.4663 -0.2842 -0.2945
   50CHL1   C14 3642   4.088   4.332   3.257 -0.0265  0.7467  0.2853
   50CHL1   H14 3643   4.157   4.418   3.275 -0.0717  0.8335  0.0551
   50CHL1   C15 3644   4.169   4.221   3.329  0.0302 -0.0163  0.1704
   50CHL1  H15A 3645   4.133   4.120   3.299  0.9714 -1.5177  3.6665
   50CHL1  H15B 3646   4.278   4.232   3.316  0.3010 -1.2062  1.2607
   50CHL1   C16 3647   4.140   4.238   3.473 -0.3728  0.0166  0.6639
   50CHL1  H16A 3648   4.104   4.139   3.507 -0.8071 -0.3048 -0.6860
   50CHL1  H16B 3649   4.219   4.278   3.541 -2.0770  0.1639  2.6546
   50CHL1   C17 3650   4.027   4.343   3.485 -0.4931  0.0787 -0.3291
   50CHL1   H17 3651   4.078   4.440   3.502 -3.3504  1.3033  2.1382
   50CHL1   C13 3652   3.966   4.355   3.343  0.4280  0.3283  0.0537
   50CHL1   C18 3653   3.868   4.241   3.318  0.2477  0.1978 -0.6402
   50CHL1  H18A 3654   3.846   4.220   3.211  0.9865  0.2341 -0.8045
   50CHL1  H18B 3655   3.904   4.143   3.355 -0.4280  0.5961  1.1826
   50CHL1  H18C 3656   3.780   4.257   3.384  2.1791 -2.0697  2.8389
   50CHL1   C12 3657   3.904   4.487   3.304 -0.0131  0.3288  0.3682
   50CHL1  H12A 3658   3.816   4.493   3.372  0.2158 -0.1729  0.7156
   50CHL1  H12B 3659   3.979   4.566   3.324 -1.2902  1.4838  0.8021
   50CHL1   C11 3660   3.865   4.486   3.154  0.4239 -0.1795  0.7784
   50CHL1  H11A 3661   3.775   4.421   3.154 -1.8079  2.7203  0.0847
   50CHL1  H11B 3662   3.811   4.573   3.110  1.1636 -0.0991  0.0059
   50CHL1    C9 3663   3.976   4.446   3.059  0.1659 -0.0949 -0.1068
   50CHL1    H9 3664   4.031   4.543   3.059 -1.3595  0.8075 -0.5695
   50CHL1   C10 3665   3.944   4.445   2.906 -0.3496  0.2283 -0.4037
   50CHL1   C19 3666   3.829   4.345   2.878  0.0729  0.0301 -0.5661
   50CHL1  H19A 3667   3.734   4.390   2.914  1.7912  1.1938  3.0358
   50CHL1  H19B 3668   3.816   4.330   2.769 -0.0608  0.7180 -0.6495
   50CHL1  H19C 3669   3.854   4.244   2.918  0.6973  0.3616 -0.1070
   50CHL1    C1 3670   3.895   4.594   2.857 -0.0766 -0.5341 -0.2887
   50CHL1   H1A 3671   3.796   4.619   2.902 -0.3490 -0.7601 -0.7575
   50CHL1   H1B 3672   3.960   4.675   2.896 -1.9663  0.6025  0.6775
   50CHL1    C2 3673   3.884   4.601   2.703  0.2527  0.1365  0.0219
   50CHL1   H2A 3674   3.857   4.705   2.673 -0.5510  0.4354  1.6563
   50CHL1   H2B 3675   3.796   4.543   2.671  0.0241  0.4064  0.1516
   50CHL1   C20 3676   3.935   4.331   3.611 -0.9839 -0.3425  0.0996
   50CHL1   H20 3677   3.850   4.265   3.584 -1.0612  0.1316 -0.8692
   50CHL1   C21 3678   3.866   4.471   3.649  0.1756 -0.0461  0.0536
   50CHL1  H21A 3679   3.823   4.521   3.560  3.3788 -0.7910 -2.0914
   50CHL1  H21B 3680   3.950   4.537   3.680  0.5512 -0.0861 -0.8630
   50CHL1  H21C 3681   3.789   4.459   3.729 -0.8581  1.1997 -0.7259
   50CHL1   C22 3682   4.005   4.259   3.731  0.1021 -0.1845  0.6121
   50CHL1  H22A 3683   4.056   4.163   3.707  1.2400  0.4630  0.3739
   50CHL1  H22B 3684   4.087   4.322   3.772 -1.1859  1.6131  0.5134
   50CHL1   C23 3685   3.907   4.251   3.858  0.4040 -1.0679  0.4428
   50CHL1  H23A 3686   3.894   4.352   3.902  2.4334 -0.4514 -0.2748
   50CHL1  H23B 3687   3.815   4.212   3.810 -0.7253 -0.3966  1.9705
   50CHL1   C24 3688   3.951   4.160   3.969 -0.1309 -0.1140 -0.3159
   50CHL1  H24A 3689   4.009   4.080   3.917  0.5839  1.7959 -2.6080
   50CHL1  H24B 3690   4.023   4.219   4.029 -1.1949 -0.3453  1.2402
   50CHL1   C25 3691   3.856   4.112   4.064  0.4310 -0.0496 -0.7855
   50CHL1   H25 3692   3.772   4.055   4.019 -2.3827  3.5158 -0.4887
   50CHL1   C26 3693   3.932   4.024   4.169  0.8373  0.0741 -0.3408
   50CHL1  H26A 3694   3.863   3.999   4.252  0.4495 -0.9711 -0.9670
   50CHL1  H26B 3695   3.971   3.931   4.122 -0.5152 -0.5081 -0.3558
   50CHL1  H26C 3696   4.017   4.078   4.215  0.5854  1.3526 -1.3099
   50CHL1   C27 3697   3.784   4.230   4.139  0.3204 -0.5889  0.2194
   50CHL1  H27A 3698   3.704   4.205   4.212 -0.1738 -1.3921 -0.5628
   50CHL1  H27B 3699   3.851   4.299   4.194 -1.5682  1.8683 -0.3459
   50CHL1  H27C 3700   3.748   4.298   4.059  3.4232  0.7202 -0.1962
   51CHL1    C3 3701   4.125   5.389   2.515 -0.2375  0.2132 -1.0441
   51CHL1    H3 3702   4.168   5.287   2.519  0.1763  0.3748 -1.2872
   51CHL1    O3 3703   4.075   5.415   2.388 -0.1645  0.3167  0.1489
   51CHL1   H3' 3704   4.012   5.486   2.404  0.1552  0.9719 -1.3502
   51CHL1    C4 3705   4.015   5.412   2.615 -0.0790  0.3060 -0.4429
   51CHL1   H4A 3706   3.970   5.513   2.620  0.4194  0.4984  0.4821
   51CHL1   H4B 3707   3.932   5.341   2.595 -0.1750 -0.5735  2.5882
   51CHL1    C5 3708   4.067   5.377   2.750  0.5300  0.0816 -0.0874
   51CHL1    C6 3709   4.008   5.280   2.824 -0.6322  0.0448 -0.1626
   51CHL1    H6 3710   3.924   5.219   2.789 -0.3406 -0.4035 -0.0900
   51CHL1    C7 3711   4.051   5.239   2.958  0.5285 -0.0682 -0.3035
   51CHL1   H7A 3712   3.968   5.226   3.032  1.1071 -0.8398  0.2349
   51CHL1   H7B 3713   4.094   5.137   2.948 -0.1745 -0.2118 -2.1298
   51CHL1    C8 3714   4.145   5.340   3.021  0.3814  0.3247 -0.5140
   51CHL1    H8 3715   4.077   5.420   3.059 -2.5283 -0.4393 -3.7027
   51CHL1   C14 3716   4.231   5.280   3.137  0.3433 -0.0889  0.7735
   51CHL1   H14 3717   4.289   5.197   3.091  0.9012 -1.0941  3.1533
   51CHL1   C15 3718   4.156   5.209   3.250 -0.2969 -0.0637 -0.0028
   51CHL1  H15A 3719   4.072   5.265   3.296 -1.7046 -2.0961  0.0229
   51CHL1  H15B 3720   4.117   5.109   3.219 -0.0937 -0.8177  2.0158
   51CHL1   C16 3721   4.256   5.186   3.361 -0.9153  0.1819 -0.6105
   51CHL1  H16A 3722   4.203   5.234   3.446  0.4548  0.5510  0.0679
   51CHL1  H16B 3723   4.285   5.082   3.388 -0.1323  0.7810  1.0484
   51CHL1   C17 3724   4.375   5.275   3.318  0.3373 -0.3801  0.2642
   51CHL1   H17 3725   4.445   5.201   3.274 -0.9837 -1.3498 -0.2690
   51CHL1   C13 3726   4.321   5.375   3.208  0.3725 -0.4988  0.1022
   51CHL1   C18 3727   4.250   5.497   3.270  0.3336 -0.1146 -0.3591
   51CHL1  H18A 3728   4.321   5.569   3.315  0.4491 -0.8297  0.6409
   51CHL1  H18B 3729   4.186   5.542   3.192  0.7038 -0.2138 -0.7239
   51CHL1  H18C 3730   4.178   5.456   3.344  1.5464 -0.4392  0.6721
   51CHL1   C12 3731   4.431   5.414   3.107  0.0383 -0.5427 -0.3224
   51CHL1  H12A 3732   4.494   5.485   3.163 -0.5374  0.9954 -1.5531
   51CHL1  H12B 3733   4.496   5.326   3.086 -1.1031 -2.0171  1.8935
   51CHL1   C11 3734   4.372   5.476   2.979  0.0997 -0.3095 -0.1795
   51CHL1  H11A 3735   4.334   5.578   3.004 -0.3444 -0.2723 -0.9937
   51CHL1  H11B 3736   4.454   5.486   2.904  0.5769  3.1126  0.6065
   51CHL1    C9 3737   4.247   5.397   2.927 -0.8898  0.3780 -0.2763
   51CHL1    H9 3738   4.296   5.301   2.897  0.1310  0.1441  1.9523
   51CHL1   C10 3739   4.182   5.459   2.797 -0.6532 -0.3398 -0.6175
   51CHL1   C19 3740   4.127   5.604   2.838 -0.4829  0.1329 -0.5312
   51CHL1  H19A 3741   4.066   5.645   2.754 -2.5377  1.9369  1.6774
   51CHL1  H19B 3742   4.060   5.591   2.926 -1.8507 -3.5871 -1.9179
   51CHL1  H19C 3743   4.204   5.681   2.859 -0.5611  0.1742 -0.3915
   51CHL1    C1 3744   4.294   5.460   2.688 -0.0878  0.4851  0.3053
   51CHL1   H1A 3745   4.368   5.541   2.704 -2.1298  2.0100  2.6731
   51CHL1   H1B 3746   4.335   5.356   2.684 -0.7539  0.2567 -1.7060
   51CHL1    C2 3747   4.244   5.477   2.543 -0.0818 -0.1369  0.1420
   51CHL1   H2A 3748   4.331   5.456   2.476 -1.2376  1.5019 -2.0218
   51CHL1   H2B 3749   4.218   5.585   2.539  1.4215  0.3041  1.4649
   51CHL1   C20 3750   4.459   5.340   3.426  0.4732 -0.3457  0.0239
   51CHL1   H20 3751   4.514   5.426   3.382 -1.0235  0.3639 -0.5249
   51CHL1   C21 3752   4.572   5.246   3.470 -0.2467  0.2828 -0.2965
   51CHL1  H21A 3753   4.535   5.146   3.501  1.3975 -0.8646 -1.8188
   51CHL1  H21B 3754   4.629   5.273   3.561 -0.3827 -1.0847  0.2284
   51CHL1  H21C 3755   4.646   5.232   3.388 -1.1735  3.1845 -1.7722
   51CHL1   C22 3756   4.383   5.384   3.552 -0.1219 -0.2871 -0.0049
   51CHL1  H22A 3757   4.297   5.448   3.522  0.2005  0.6668  1.0302
   51CHL1  H22B 3758   4.347   5.292   3.602  2.7396 -1.9332 -0.7873
   51CHL1   C23 3759   4.470   5.468   3.642  0.2656 -0.4739  0.2712
   51CHL1  H23A 3760   4.531   5.409   3.713 -0.0846 -1.1439  0.0240
   51CHL1  H23B 3761   4.550   5.529   3.596 -1.2037  1.5878  0.3243
   51CHL1   C24 3762   4.388   5.569   3.725 -0.0875  0.0908 -0.4589
   51CHL1  H24A 3763   4.314   5.616   3.656 -0.4288 -1.3340 -1.1118
   51CHL1  H24B 3764   4.339   5.516   3.809  1.7058 -2.1595 -0.7205
   51CHL1   C25 3765   4.467   5.690   3.782 -0.2001 -0.5773 -0.5295
   51CHL1   H25 3766   4.514   5.735   3.692 -1.5594  1.0304 -0.4701
   51CHL1   C26 3767   4.381   5.807   3.841  0.0117  0.0237 -0.1432
   51CHL1  H26A 3768   4.290   5.828   3.782  1.5064 -2.3873 -3.6820
   51CHL1  H26B 3769   4.347   5.776   3.942  1.3628  0.8242  0.6081
   51CHL1  H26C 3770   4.437   5.903   3.854  0.6355 -0.5023  1.2565
   51CHL1   C27 3771   4.574   5.647   3.881 -0.0581 -0.3444 -0.4128
   51CHL1  H27A 3772   4.623   5.746   3.887 -0.6103 -0.0781 -0.2644
   51CHL1  H27B 3773   4.531   5.617   3.979 -1.1901  4.0247  0.6398
   51CHL1  H27C 3774   4.649   5.575   3.842  0.7747  0.3934 -0.1992
   52CHL1    C3 3775   6.729   4.020   2.933 -0.2935  0.5308  0.5437
   52CHL1    H3 3776   6.631   4.071   2.945 -0.3447  1.1282 -1.8809
   52CHL1    O3 3777   6.757   3.987   2.795 -0.6228  0.0054 -0.2198
   52CHL1   H3' 3778   6.671   3.990   2.754 -0.3487  2.0741 -0.7498
   52CHL1    C4 3779   6.844   4.110   2.980  0.4477  0.0884  0.2505
   52CHL1   H4A 3780   6.939   4.064   2.944  0.5480 -0.4493  1.1563
   52CHL1   H4B 3781   6.832   4.207   2.929 -3.5463 -0.0814  0.5710
   52CHL1    C5 3782   6.846   4.117   3.131  1.1664  0.1630  0.3602
   52CHL1    C6 3783   6.842   4.240   3.189 -0.2317  0.5183  0.2802
   52CHL1    H6 3784   6.816   4.325   3.124 -2.9381 -0.0716  0.4895
   52CHL1    C7 3785   6.856   4.265   3.335 -0.1173 -0.0598 -0.8570
   52CHL1   H7A 3786   6.935   4.337   3.363  0.3057 -0.3473 -1.3039
   52CHL1   H7B 3787   6.759   4.300   3.376 -0.8953 -1.3723 -1.4703
   52CHL1    C8 3788   6.888   4.135   3.414 -0.1200 -0.1733 -1.0400
   52CHL1    H8 3789   6.997   4.122   3.396 -0.0967 -0.2039 -0.8779
   52CHL1   C14 3790   6.850   4.155   3.561  0.3759  0.5589  0.1190
   52CHL1   H14 3791   6.739   4.163   3.567 -0.0810 -2.9671 -1.3842
   52CHL1   C15 3792   6.907   4.282   3.638 -0.0212  0.5116  0.1268
   52CHL1  H15A 3793   7.013   4.286   3.607  0.0331  0.9599  0.3765
   52CHL1  H15B 3794   6.841   4.371   3.628 -2.2295 -0.9408  0.8025
   52CHL1   C16 3795   6.901   4.240   3.788 -0.3219  0.2588  0.4147
   52CHL1  H16A 3796   7.007   4.234   3.821 -0.4753 -0.8602  0.7710
   52CHL1  H16B 3797   6.848   4.315   3.850  2.3517  1.9785  0.7730
   52CHL1   C17 3798   6.841   4.099   3.792 -0.0250 -0.5868  0.2692
   52CHL1   H17 3799   6.731   4.107   3.780  0.0654  1.5776  0.4089
   52CHL1   C13 3800   6.884   4.041   3.654  0.1340  0.3953 -0.1873
   52CHL1   C18 3801   7.033   4.005   3.652  0.0419 -0.4153 -0.2315
   52CHL1  H18A 3802   7.062   3.973   3.549 -0.1495  0.7219 -0.6490
   52CHL1  H18B 3803   7.093   4.088   3.695 -0.4091 -0.1541 -0.0987
   52CHL1  H18C 3804   7.044   3.913   3.714 -2.1927 -0.7614 -0.2663
   52CHL1   C12 3805   6.803   3.921   3.596 -0.6116 -0.0241 -0.1256
   52CHL1  H12A 3806   6.830   3.837   3.664  0.5237  0.7865  0.4656
   52CHL1  H12B 3807   6.696   3.945   3.614 -0.2637  1.4661  0.0871
   52CHL1   C11 3808   6.831   3.884   3.452  0.5038 -0.1752 -0.3257
   52CHL1  H11A 3809   6.930   3.837   3.433  0.2130 -0.4117 -1.3325
   52CHL1  H11B 3810   6.758   3.802   3.439  1.0707 -0.5876 -0.9708
   52CHL1    C9 3811   6.811   4.010   3.362  0.2669  0.0073  0.4451
   52CHL1    H9 3812   6.702   4.033   3.368  0.3068 -0.0681  1.7127
   52CHL1   C10 3813   6.845   3.985   3.212  0.6244 -0.3187 -0.9832
   52CHL1   C19 3814   6.986   3.920   3.193  0.5832  0.1700  0.0185
   52CHL1  H19A 3815   6.984   3.812   3.219  1.4424  0.3205  0.7415
   52CHL1  H19B 3816   7.020   3.916   3.088  1.0879  0.5273  0.1652
   52CHL1  H19C 3817   7.063   3.974   3.252  0.9492 -1.9630  1.5670
   52CHL1    C1 3818   6.732   3.895   3.153 -0.2553  0.0398  0.1509
   52CHL1   H1A 3819   6.746   3.796   3.201  1.9563 -0.1719 -0.7824
   52CHL1   H1B 3820   6.639   3.938   3.195 -0.6016 -2.3031  1.9917
   52CHL1    C2 3821   6.736   3.888   3.006 -0.0307  1.0164  0.3303
   52CHL1   H2A 3822   6.652   3.821   2.977  1.1438  0.0957 -1.1074
   52CHL1   H2B 3823   6.830   3.832   2.983 -0.8891 -0.8867  1.1822
   52CHL1   C20 3824   6.872   4.008   3.917 -0.0711 -0.1001 -0.1046
   52CHL1   H20 3825   6.974   3.965   3.906  0.1347  0.6720 -1.3308
   52CHL1   C21 3826   6.768   3.897   3.933 -0.2997  0.0110  0.3587
   52CHL1  H21A 3827   6.791   3.834   4.022 -2.0186 -0.0892  0.7630
   52CHL1  H21B 3828   6.774   3.826   3.847  0.6093 -1.4753  1.5914
   52CHL1  H21C 3829   6.673   3.954   3.936  0.3993  1.1794  1.1590
   52CHL1   C22 3830   6.872   4.084   4.049 -0.1138  0.0839 -0.3788
   52CHL1  H22A 3831   6.962   4.149   4.059  0.0820 -0.4391  2.0243
   52CHL1  H22B 3832   6.779   4.145   4.043  0.5812  1.1452 -0.6543
   52CHL1   C23 3833   6.863   4.007   4.180  0.2903 -0.8073 -0.0597
   52CHL1  H23A 3834   6.764   3.966   4.207 -0.0529  0.5378  0.8314
   52CHL1  H23B 3835   6.944   3.931   4.175 -0.5137 -1.5961 -1.7919
   52CHL1   C24 3836   6.886   4.110   4.300 -0.7868  0.7981  0.3640
   52CHL1  H24A 3837   6.989   4.150   4.291 -0.7388  0.7715  0.7921
   52CHL1  H24B 3838   6.815   4.191   4.273 -1.9208 -0.2587  0.0396
   52CHL1   C25 3839   6.850   4.049   4.437  0.1308 -0.7001 -0.0048
   52CHL1   H25 3840   6.844   3.938   4.445 -0.8857 -0.6395  0.1980
   52CHL1   C26 3841   6.963   4.092   4.531  0.1366 -0.0663 -0.4460
   52CHL1  H26A 3842   6.957   4.202   4.545 -1.6263 -0.4113  2.3237
   52CHL1  H26B 3843   6.948   4.060   4.636 -0.6028 -2.0207 -1.1053
   52CHL1  H26C 3844   7.056   4.055   4.484  0.4292 -1.3024  1.0421
   52CHL1   C27 3845   6.729   4.112   4.498 -0.1653 -0.2168  0.2572
   52CHL1  H27A 3846   6.744   4.205   4.557  0.2509 -1.1628  1.6921
   52CHL1  H27B 3847   6.664   4.144   4.414  0.1940  1.7934  0.6763
   52CHL1  H27C 3848   6.680   4.047   4.573 -1.0532 -1.3440 -1.2343
   53CHL1    C3 3849   6.425   4.453   2.906 -0.0227  0.1429  0.1956
   53CHL1    H3 3850   6.536   4.452   2.912  0.0176 -0.8435 -0.5272
   53CHL1    O3 3851   6.377   4.444   2.776 -0.2087 -0.1591  0.2210
   53CHL1   H3' 3852   6.418   4.369   2.731 -0.9979 -0.5721  0.1810
   53CHL1    C4 3853   6.374   4.331   2.984 -0.2160  0.0258  0.8010
   53CHL1   H4A 3854   6.265   4.320   2.965 -0.3098 -1.2648  1.9234
   53CHL1   H4B 3855   6.422   4.245   2.933  0.2801 -0.3654  1.9025
   53CHL1    C5 3856   6.388   4.332   3.135  0.1029  0.3621  0.6170
   53CHL1    C6 3857   6.427   4.225   3.207  0.0326  0.0329  0.9107
   53CHL1    H6 3858   6.459   4.135   3.153 -0.9215 -0.1957  0.7066
   53CHL1    C7 3859   6.432   4.214   3.355  0.0196  0.2049  0.3815
   53CHL1   H7A 3860   6.372   4.128   3.393  0.9884 -0.5149  0.3226
   53CHL1   H7B 3861   6.537   4.195   3.386  0.0158 -0.5065 -0.0177
   53CHL1    C8 3862   6.383   4.342   3.421 -0.3629 -0.8177 -0.4678
   53CHL1    H8 3863   6.274   4.324   3.432  0.1512 -3.0124  2.2124
   53CHL1   C14 3864   6.441   4.357   3.561  0.1365  0.4393 -0.2327
   53CHL1   H14 3865   6.550   4.372   3.549 -0.0254  1.9646 -0.0404
   53CHL1   C15 3866   6.425   4.242   3.665  0.0850 -0.0528  0.2377
   53CHL1  H15A 3867   6.317   4.215   3.662  0.1428 -0.3282  0.5441
   53CHL1  H15B 3868   6.467   4.146   3.629 -0.1075 -0.7526  1.7862
   53CHL1   C16 3869   6.469   4.300   3.797 -0.1572  0.1784  0.3794
   53CHL1  H16A 3870   6.403   4.256   3.875  0.3501 -1.3306 -0.0121
   53CHL1  H16B 3871   6.569   4.254   3.814  0.7584  1.5089 -1.1280
   53CHL1   C17 3872   6.475   4.454   3.774 -0.0571  0.9670  0.1319
   53CHL1   H17 3873   6.582   4.480   3.759  0.6130 -1.8094 -0.3414
   53CHL1   C13 3874   6.393   4.481   3.642 -0.4744 -0.1855  0.4938
   53CHL1   C18 3875   6.234   4.478   3.667 -1.3924  0.2373  0.9061
   53CHL1  H18A 3876   6.207   4.581   3.699  0.4114  1.4985 -1.3109
   53CHL1  H18B 3877   6.175   4.448   3.578  1.3460 -0.8968 -0.6684
   53CHL1  H18C 3878   6.226   4.405   3.750  1.2950 -0.9995  0.1881
   53CHL1   C12 3879   6.433   4.610   3.563  0.7002  0.6203  0.2085
   53CHL1  H12A 3880   6.400   4.706   3.607 -1.2470  1.3369 -2.5445
   53CHL1  H12B 3881   6.542   4.609   3.539  0.6081 -1.7456 -0.3773
   53CHL1   C11 3882   6.361   4.602   3.424 -0.6265  0.6304 -0.4037
   53CHL1  H11A 3883   6.251   4.598   3.443 -0.5649 -0.7623 -0.2547
   53CHL1  H11B 3884   6.385   4.685   3.355 -0.0265 -0.6848 -1.8333
   53CHL1    C9 3885   6.413   4.474   3.349 -0.1323  0.2494  0.2147
   53CHL1    H9 3886   6.522   4.489   3.341  0.4280 -2.2290  1.8761
   53CHL1   C10 3887   6.352   4.466   3.203 -0.6444  0.5725 -0.6945
   53CHL1   C19 3888   6.194   4.464   3.211 -0.4231  0.1316  0.9822
   53CHL1  H19A 3889   6.159   4.378   3.271 -2.9886  0.1530 -0.3578
   53CHL1  H19B 3890   6.159   4.561   3.252  0.1136 -0.1641  2.1882
   53CHL1  H19C 3891   6.145   4.457   3.111 -2.6984  1.0371  1.9661
   53CHL1    C1 3892   6.407   4.586   3.112  0.3092 -0.0431  0.3114
   53CHL1   H1A 3893   6.374   4.682   3.157 -0.7836 -0.9154  1.4669
   53CHL1   H1B 3894   6.517   4.591   3.124  0.2374  0.0600  0.9522
   53CHL1    C2 3895   6.368   4.580   2.967  0.7483  1.3049  0.2458
   53CHL1   H2A 3896   6.389   4.673   2.910 -3.1319  2.0296 -0.2315
   53CHL1   H2B 3897   6.258   4.568   2.964  0.9557 -1.9149  1.2594
   53CHL1   C20 3898   6.443   4.527   3.906 -0.3497 -0.1202 -0.7029
   53CHL1   H20 3899   6.337   4.512   3.934 -1.1573  3.7511 -1.1298
   53CHL1   C21 3900   6.450   4.675   3.873 -0.2019 -0.4662  0.2699
   53CHL1  H21A 3901   6.427   4.733   3.965 -1.4428  1.7042 -1.3055
   53CHL1  H21B 3902   6.362   4.691   3.807  0.8009  0.0582 -0.9835
   53CHL1  H21C 3903   6.542   4.706   3.819 -1.3209  0.3573 -1.2390
   53CHL1   C22 3904   6.538   4.489   4.022 -0.2187  0.8405  0.5832
   53CHL1  H22A 3905   6.527   4.380   4.039  1.7730  0.6661  1.0461
   53CHL1  H22B 3906   6.644   4.493   3.988  0.4832  0.2169  2.5678
   53CHL1   C23 3907   6.518   4.541   4.164  0.1424 -0.4586 -0.0964
   53CHL1  H23A 3908   6.495   4.649   4.170 -0.8466 -0.5704 -1.5171
   53CHL1  H23B 3909   6.427   4.490   4.203  0.2688 -2.1945 -1.9161
   53CHL1   C24 3910   6.621   4.513   4.271  0.2199  0.0330  0.0977
   53CHL1  H24A 3911   6.583   4.536   4.373 -0.9284 -0.8741 -0.1112
   53CHL1  H24B 3912   6.643   4.405   4.267 -1.0881 -0.2176 -2.6411
   53CHL1   C25 3913   6.758   4.582   4.262 -0.2941  0.0698 -0.2719
   53CHL1   H25 3914   6.791   4.569   4.157  1.8754 -0.1032  0.3794
   53CHL1   C26 3915   6.751   4.733   4.291 -0.3650 -1.1619  0.1280
   53CHL1  H26A 3916   6.849   4.777   4.261 -0.1863 -2.2256 -0.9172
   53CHL1  H26B 3917   6.673   4.778   4.226  0.0400  0.2029  0.5577
   53CHL1  H26C 3918   6.734   4.763   4.396 -1.3006  2.3624 -0.9018
   53CHL1   C27 3919   6.864   4.509   4.348  0.5039 -0.6243  0.0213
   53CHL1  H27A 3920   6.835   4.412   4.393  0.2763 -1.4433 -1.7994
   53CHL1  H27B 3921   6.939   4.485   4.270 -0.2026  1.4123 -1.3665
   53CHL1  H27C 3922   6.900   4.581   4.425 -0.1622 -0.0871 -0.1662
   54CHL1    C3 3923   4.828   5.543   2.855  0.4980 -0.2391 -0.1117
   54CHL1    H3 3924   4.736   5.482   2.864 -0.2393  0.8512  0.0205
   54CHL1    O3 3925   4.815   5.628   2.742 -0.0303  0.3356 -0.1716
   54CHL1   H3' 3926   4.894   5.681   2.743 -0.5664  1.1644 -0.6163
   54CHL1    C4 3927   4.847   5.633   2.974  0.3073 -0.4100  0.4481
   54CHL1   H4A 3928   4.938   5.688   2.945 -0.3564 -0.9055 -2.9616
   54CHL1   H4B 3929   4.761   5.703   2.980  0.1849 -0.4934 -0.2675
   54CHL1    C5 3930   4.870   5.567   3.106 -0.2991 -0.0665  0.1234
   54CHL1    C6 3931   4.785   5.597   3.210  0.4937  0.4552 -0.7868
   54CHL1    H6 3932   4.706   5.674   3.201  1.7935  1.7277 -1.7660
   54CHL1    C7 3933   4.794   5.524   3.340 -0.9248  0.3717  0.6508
   54CHL1   H7A 3934   4.780   5.594   3.424 -4.2252 -0.8269  1.2816
   54CHL1   H7B 3935   4.715   5.446   3.348 -0.7566  0.3786  3.2009
   54CHL1    C8 3936   4.934   5.454   3.362  0.1986  0.1034  0.0653
   54CHL1    H8 3937   5.008   5.532   3.388 -1.4380  1.3428  1.1951
   54CHL1   C14 3938   4.927   5.358   3.483 -0.0261  0.1272  0.1813
   54CHL1   H14 3939   4.860   5.273   3.458 -0.3462  0.2461  0.6179
   54CHL1   C15 3940   4.867   5.416   3.613 -0.6394 -0.4071  0.2305
   54CHL1  H15A 3941   4.904   5.517   3.642  0.9509 -1.0474  0.5458
   54CHL1  H15B 3942   4.757   5.421   3.596 -0.6696 -1.5617  0.0234
   54CHL1   C16 3943   4.908   5.307   3.713 -0.3691 -0.3302  0.1548
   54CHL1  H16A 3944   4.940   5.361   3.805 -1.5338 -1.1181  1.0665
   54CHL1  H16B 3945   4.816   5.249   3.736 -0.8745 -0.8223 -2.7619
   54CHL1   C17 3946   5.008   5.206   3.650 -0.2841  0.0176  0.3621
   54CHL1   H17 3947   4.947   5.124   3.605  0.0853  0.4194 -0.9068
   54CHL1   C13 3948   5.054   5.283   3.517 -0.6482 -0.1194  0.2828
   54CHL1   C18 3949   5.166   5.381   3.557 -0.1961  0.2266  0.1532
   54CHL1  H18A 3950   5.250   5.313   3.581 -1.1366 -0.6844  0.9570
   54CHL1  H18B 3951   5.191   5.464   3.488 -2.2478 -0.6458 -1.7851
   54CHL1  H18C 3952   5.141   5.429   3.654  1.3718  0.1088  0.6398
   54CHL1   C12 3953   5.089   5.190   3.395 -0.8408 -0.1117  0.6843
   54CHL1  H12A 3954   5.189   5.142   3.406  1.5809  3.9831 -1.2477
   54CHL1  H12B 3955   5.004   5.123   3.372 -0.2434 -0.8086  0.4533
   54CHL1   C11 3956   5.099   5.272   3.265  0.2446 -0.3362  0.0209
   54CHL1  H11A 3957   5.188   5.340   3.270 -1.1327  1.5558  0.0745
   54CHL1  H11B 3958   5.108   5.210   3.174  0.5061  0.1646 -0.2965
   54CHL1    C9 3959   4.974   5.373   3.240 -0.6604 -0.3484  0.3018
   54CHL1    H9 3960   4.889   5.303   3.226  0.1662 -1.2021 -0.6736
   54CHL1   C10 3961   4.982   5.457   3.110  0.4028 -0.4928  0.8434
   54CHL1   C19 3962   5.118   5.524   3.108  0.0649 -0.4619 -0.2653
   54CHL1  H19A 3963   5.139   5.580   3.201 -2.4176  0.0979  0.0241
   54CHL1  H19B 3964   5.201   5.451   3.097  1.2119  0.9081 -0.9156
   54CHL1  H19C 3965   5.124   5.604   3.031  0.4049  0.6140  0.8571
   54CHL1    C1 3966   4.962   5.360   2.984 -0.5854  0.1196  0.0316
   54CHL1   H1A 3967   5.055   5.299   2.978 -0.5721 -0.4550  3.7927
   54CHL1   H1B 3968   4.876   5.300   3.020 -1.1756  1.0612  0.2132
   54CHL1    C2 3969   4.940   5.436   2.851 -0.2459  0.2479  0.3904
   54CHL1   H2A 3970   4.913   5.367   2.768  0.0654  0.2718  0.2673
   54CHL1   H2B 3971   5.036   5.486   2.829  0.2505 -0.8906 -0.1492
   54CHL1   C20 3972   5.110   5.136   3.746 -0.3975  0.1416  0.3866
   54CHL1   H20 3973   5.194   5.205   3.769 -0.1278  0.6065 -1.7450
   54CHL1   C21 3974   5.176   5.016   3.665 -0.6023  0.2064  0.2816
   54CHL1  H21A 3975   5.108   4.931   3.684 -0.7416 -0.1400 -1.5870
   54CHL1  H21B 3976   5.277   4.984   3.701  0.2344  1.8552 -0.4607
   54CHL1  H21C 3977   5.186   5.023   3.555 -2.4011 -1.4166 -0.0231
   54CHL1   C22 3978   5.060   5.088   3.889 -0.5112 -0.0318 -0.6541
   54CHL1  H22A 3979   5.015   5.180   3.931  1.2892  0.9411 -0.7571
   54CHL1  H22B 3980   4.987   5.004   3.886 -1.1310  0.4593  0.1886
   54CHL1   C23 3981   5.180   5.044   3.977 -0.4461 -0.4640 -0.2286
   54CHL1  H23A 3982   5.222   4.946   3.946  0.9421  0.8078 -2.6928
   54CHL1  H23B 3983   5.266   5.110   3.950 -0.7025 -0.2125 -0.4379
   54CHL1   C24 3984   5.156   5.059   4.129  0.0473  0.2477 -0.7313
   54CHL1  H24A 3985   5.088   5.145   4.147 -1.9411 -1.7485  2.4596
   54CHL1  H24B 3986   5.102   4.966   4.158 -0.3311  0.2201 -1.4992
   54CHL1   C25 3987   5.282   5.074   4.218 -0.7174 -0.0165  0.0305
   54CHL1   H25 3988   5.343   5.145   4.158 -0.8259  0.6555  0.6965
   54CHL1   C26 3989   5.245   5.142   4.353 -0.1751 -0.7675 -0.3131
   54CHL1  H26A 3990   5.206   5.244   4.329 -0.5685 -0.5164  1.3129
   54CHL1  H26B 3991   5.165   5.083   4.402 -0.5107 -1.2070 -1.3493
   54CHL1  H26C 3992   5.335   5.146   4.417  0.8584 -1.0790 -1.6884
   54CHL1   C27 3993   5.350   4.943   4.236  0.5727  1.1861  0.0557
   54CHL1  H27A 3994   5.449   4.950   4.286  0.0986  1.6855  0.9540
   54CHL1  H27B 3995   5.284   4.875   4.293  2.1867  0.6951  1.3968
   54CHL1  H27C 3996   5.367   4.905   4.133 -0.1367  1.8084 -0.3042
   55CHL1    C3 3997   5.408   6.074   2.792 -0.6413 -0.7650  0.3991
   55CHL1    H3 3998   5.314   6.131   2.779 -0.7922 -1.3296 -1.2316
   55CHL1    O3 3999   5.447   6.013   2.668 -0.7963 -0.0152  0.5721
   55CHL1   H3' 4000   5.485   5.926   2.682 -0.6151 -0.3146 -1.4389
   55CHL1    C4 4001   5.519   6.175   2.839 -0.3480 -0.2947 -0.1965
   55CHL1   H4A 4002   5.614   6.119   2.850 -0.4794 -0.3251  0.8062
   55CHL1   H4B 4003   5.538   6.254   2.762 -1.7941  1.9679  1.6260
   55CHL1    C5 4004   5.491   6.237   2.975 -0.0531  0.7116 -0.2549
   55CHL1    C6 4005   5.482   6.372   2.986  0.1157 -0.6519  0.0885
   55CHL1    H6 4006   5.520   6.428   2.900  2.6120 -2.3145 -0.0066
   55CHL1    C7 4007   5.451   6.444   3.113  0.0105  0.1182  0.0965
   55CHL1   H7A 4008   5.533   6.514   3.139 -0.4686  0.8710 -0.3729
   55CHL1   H7B 4009   5.355   6.499   3.103  0.8106  1.3332 -1.5676
   55CHL1    C8 4010   5.452   6.346   3.236 -0.2231 -0.3669 -0.2005
   55CHL1    H8 4011   5.559   6.329   3.262 -0.3051 -1.9483 -0.8058
   55CHL1   C14 4012   5.383   6.408   3.362 -0.0541 -0.3007  0.1213
   55CHL1   H14 4013   5.277   6.413   3.331 -0.1626 -2.7813 -0.1444
   55CHL1   C15 4014   5.450   6.539   3.410  0.5197 -0.4693  0.2083
   55CHL1  H15A 4015   5.560   6.527   3.404  0.5702  0.7896 -3.2800
   55CHL1  H15B 4016   5.413   6.626   3.353  1.8271  0.0669  0.1423
   55CHL1   C16 4017   5.397   6.553   3.552 -0.4160 -0.2606 -0.0263
   55CHL1  H16A 4018   5.467   6.599   3.626 -2.9129  1.7876  1.1963
   55CHL1  H16B 4019   5.310   6.620   3.542 -0.2731 -0.0359  0.2057
   55CHL1   C17 4020   5.349   6.411   3.598  0.2716  0.1299 -0.1886
   55CHL1   H17 4021   5.238   6.408   3.595  0.2435  0.8355 -0.1103
   55CHL1   C13 4022   5.396   6.318   3.488 -0.1798 -0.9043  0.3922
   55CHL1   C18 4023   5.541   6.273   3.515 -0.5908 -0.5744 -0.0165
   55CHL1  H18A 4024   5.544   6.210   3.607 -2.0776 -1.6372 -0.6616
   55CHL1  H18B 4025   5.593   6.217   3.434  0.0701 -0.4213  0.2928
   55CHL1  H18C 4026   5.604   6.364   3.528 -1.5360 -0.0670  1.2432
   55CHL1   C12 4027   5.313   6.198   3.453 -0.1640  0.0405  0.5065
   55CHL1  H12A 4028   5.307   6.129   3.540  1.1372  0.0833  0.6542
   55CHL1  H12B 4029   5.209   6.221   3.421  0.7933  2.6485 -1.0541
   55CHL1   C11 4030   5.370   6.120   3.330 -0.4955  0.8310 -0.7933
   55CHL1  H11A 4031   5.465   6.071   3.361 -1.7826 -0.7530  0.8845
   55CHL1  H11B 4032   5.295   6.042   3.303 -0.7168  0.7555  0.0064
   55CHL1    C9 4033   5.388   6.211   3.205  0.1167 -0.5988  0.2503
   55CHL1    H9 4034   5.287   6.248   3.179 -0.3670 -0.0024  2.6685
   55CHL1   C10 4035   5.450   6.140   3.086 -0.1502  0.2820  0.2764
   55CHL1   C19 4036   5.587   6.076   3.118  0.3442  0.6165 -0.6195
   55CHL1  H19A 4037   5.553   5.999   3.191 -1.6497  1.4466 -0.5886
   55CHL1  H19B 4038   5.631   6.025   3.030 -1.1842  0.9584 -1.6194
   55CHL1  H19C 4039   5.653   6.147   3.173 -0.0532  1.1525 -0.8191
   55CHL1    C1 4040   5.350   6.033   3.030  0.2016  0.9597 -0.1900
   55CHL1   H1A 4041   5.346   5.947   3.100 -2.1957  0.6659 -0.5819
   55CHL1   H1B 4042   5.247   6.075   3.022  0.0450  0.6743  0.3062
   55CHL1    C2 4043   5.383   5.968   2.894 -0.2862 -0.3725  0.2772
   55CHL1   H2A 4044   5.300   5.903   2.859  0.2642  0.2024 -2.3454
   55CHL1   H2B 4045   5.472   5.902   2.900  0.0248 -0.0407 -0.5186
   55CHL1   C20 4046   5.372   6.385   3.746 -0.8379  0.7517  0.3285
   55CHL1   H20 4047   5.482   6.395   3.756 -0.8149  0.5433  0.2919
   55CHL1   C21 4048   5.318   6.246   3.782 -0.4959 -0.7401  0.3834
   55CHL1  H21A 4049   5.218   6.232   3.736 -0.5785 -2.2842  0.9526
   55CHL1  H21B 4050   5.311   6.229   3.892 -1.2902  1.1958  0.6758
   55CHL1  H21C 4051   5.375   6.164   3.733 -0.0829 -2.4119  3.3651
   55CHL1   C22 4052   5.311   6.492   3.838 -0.3800  0.2239 -0.4222
   55CHL1  H22A 4053   5.283   6.581   3.779  0.0911  0.6944  0.0591
   55CHL1  H22B 4054   5.220   6.449   3.887  0.0629 -2.1573 -1.5364
   55CHL1   C23 4055   5.393   6.530   3.963 -0.7036  0.1058  0.2338
   55CHL1  H23A 4056   5.429   6.452   4.033  1.6245  1.3276  0.4900
   55CHL1  H23B 4057   5.486   6.575   3.921 -0.9288  0.4868  0.1321
   55CHL1   C24 4058   5.322   6.639   4.039  0.1967  0.2256  0.0826
   55CHL1  H24A 4059   5.245   6.690   3.978 -1.0888 -0.6238  0.9535
   55CHL1  H24B 4060   5.268   6.589   4.122  0.2832 -0.4695 -0.2790
   55CHL1   C25 4061   5.406   6.746   4.093  0.7497  0.1949  0.5114
   55CHL1   H25 4062   5.467   6.791   4.012  0.8466  0.6935  0.8580
   55CHL1   C26 4063   5.325   6.855   4.157 -0.6630  0.0050 -0.1459
   55CHL1  H26A 4064   5.254   6.816   4.233 -1.5161  0.2333 -0.8200
   55CHL1  H26B 4065   5.396   6.924   4.207  1.0218 -1.6077 -0.1943
   55CHL1  H26C 4066   5.270   6.910   4.079 -0.5053  0.4769  0.0725
   55CHL1   C27 4067   5.508   6.693   4.191  0.1482  0.2953  0.6126
   55CHL1  H27A 4068   5.569   6.606   4.160 -1.6706 -0.8822  0.1502
   55CHL1  H27B 4069   5.580   6.776   4.205 -0.1660  0.3103  2.3160
   55CHL1  H27C 4070   5.463   6.681   4.291  0.0166  1.2784  0.6775
   56CHL1    C3 4071   5.903   4.977   2.746 -0.6844 -0.0490  0.1667
   56CHL1    H3 4072   5.824   5.044   2.787  0.9439  2.0241  0.0887
   56CHL1    O3 4073   5.892   4.963   2.607 -0.5555  0.8086 -0.2934
   56CHL1   H3' 4074   5.980   4.981   2.574 -0.2466  2.0053  1.0832
   56CHL1    C4 4075   6.042   5.043   2.780 -0.4925  0.8615  0.2913
   56CHL1   H4A 4076   6.120   4.969   2.754 -1.5763  0.3171 -1.6272
   56CHL1   H4B 4077   6.073   5.125   2.711  2.7295  1.0508  1.8104
   56CHL1    C5 4078   6.064   5.065   2.933 -0.3422  0.5220  0.6379
   56CHL1    C6 4079   6.087   5.187   2.982 -0.1604  0.6337  0.2888
   56CHL1    H6 4080   6.070   5.275   2.919  3.4498  1.1315 -0.1951
   56CHL1    C7 4081   6.110   5.217   3.126 -1.0463  0.2683 -0.4856
   56CHL1   H7A 4082   6.205   5.273   3.138 -1.4130  1.4362 -2.5123
   56CHL1   H7B 4083   6.033   5.284   3.168 -2.2680 -0.9733 -0.6739
   56CHL1    C8 4084   6.113   5.085   3.219 -0.0770 -0.1525  0.3959
   56CHL1    H8 4085   6.209   5.037   3.192  0.6171  0.9264  0.8728
   56CHL1   C14 4086   6.095   5.108   3.368  1.2901 -0.1668 -0.3483
   56CHL1   H14 4087   5.990   5.139   3.385  1.0618 -0.9642 -0.2339
   56CHL1   C15 4088   6.177   5.223   3.433 -0.4669  0.0438 -0.0041
   56CHL1  H15A 4089   6.268   5.235   3.370 -0.5264 -0.7569 -0.2615
   56CHL1  H15B 4090   6.120   5.317   3.420 -0.3364  0.2642  0.9517
   56CHL1   C16 4091   6.191   5.189   3.580  0.1577 -0.2263  0.0818
   56CHL1  H16A 4092   6.294   5.159   3.608 -0.2689 -1.2494  0.6172
   56CHL1  H16B 4093   6.169   5.271   3.652  1.4623  0.5229 -0.3282
   56CHL1   C17 4094   6.108   5.057   3.598  0.5289 -0.0720  0.2877
   56CHL1   H17 4095   6.001   5.083   3.614  0.9003  0.8257  1.3980
   56CHL1   C13 4096   6.117   4.993   3.458 -0.2264  0.3850  0.2103
   56CHL1   C18 4097   6.261   4.938   3.441  0.0157 -0.1213 -0.1965
   56CHL1  H18A 4098   6.273   4.889   3.343 -1.4499 -1.5067  0.2692
   56CHL1  H18B 4099   6.334   5.021   3.453 -1.2062  0.8816  0.5796
   56CHL1  H18C 4100   6.273   4.859   3.518 -1.5254 -1.0159 -0.8325
   56CHL1   C12 4101   6.003   4.898   3.421  0.7752  0.2110  0.7858
   56CHL1  H12A 4102   6.007   4.808   3.485  1.5666  0.3804  0.9855
   56CHL1  H12B 4103   5.907   4.949   3.442  0.1480 -0.0114 -1.3593
   56CHL1   C11 4104   6.006   4.860   3.270 -0.3709 -0.2866 -0.2792
   56CHL1  H11A 4105   6.098   4.799   3.261 -0.4374 -0.2275 -1.4868
   56CHL1  H11B 4106   5.914   4.804   3.243 -1.1756  1.7719 -2.0491
   56CHL1    C9 4107   6.017   4.980   3.173 -0.1828  0.4066  1.0095
   56CHL1    H9 4108   5.917   5.027   3.171 -0.5013 -0.2671 -0.1775
   56CHL1   C10 4109   6.044   4.942   3.021 -0.6814  0.3346 -0.0998
   56CHL1   C19 4110   6.167   4.842   3.000  0.7239  0.3661  0.1428
   56CHL1  H19A 4111   6.268   4.890   3.005  0.9202 -0.1844  2.5359
   56CHL1  H19B 4112   6.158   4.772   3.086 -0.7383  0.7346  0.3119
   56CHL1  H19C 4113   6.154   4.776   2.912  0.1986 -1.3262  1.4468
   56CHL1    C1 4114   5.913   4.876   2.981  0.0349  0.5209 -0.6184
   56CHL1   H1A 4115   5.901   4.780   3.037  0.5346  2.0102  2.2472
   56CHL1   H1B 4116   5.824   4.931   3.017  0.3625 -0.3616  1.7594
   56CHL1    C2 4117   5.887   4.848   2.826 -0.1186 -0.0147  0.1665
   56CHL1   H2A 4118   5.787   4.803   2.807  0.2110  0.2777 -2.6946
   56CHL1   H2B 4119   5.965   4.780   2.784 -0.0973 -0.0093  0.1982
   56CHL1   C20 4120   6.141   4.981   3.725  0.1799  0.5437  0.2341
   56CHL1   H20 4121   6.243   4.936   3.720  0.5203  1.2372  0.7595
   56CHL1   C21 4122   6.045   4.856   3.745 -0.3860 -0.5239  0.6228
   56CHL1  H21A 4123   6.058   4.818   3.848  0.6515 -1.5142  0.1504
   56CHL1  H21B 4124   6.061   4.768   3.678 -1.4727 -0.4472  0.2441
   56CHL1  H21C 4125   5.942   4.898   3.736  0.2018  0.7535 -0.4097
   56CHL1   C22 4126   6.150   5.076   3.853 -0.8795 -0.1664  1.3828
   56CHL1  H22A 4127   6.219   5.162   3.840 -1.7948  0.7745  2.4860
   56CHL1  H22B 4128   6.054   5.122   3.884 -0.6260 -0.8165  3.2498
   56CHL1   C23 4129   6.190   5.000   3.982 -0.1337  0.7356  0.7775
   56CHL1  H23A 4130   6.116   4.919   3.998 -0.6891  1.4064  1.6732
   56CHL1  H23B 4131   6.291   4.957   3.961 -0.8542  0.3627 -2.5356
   56CHL1   C24 4132   6.185   5.087   4.112 -0.6688 -0.2950  0.4497
   56CHL1  H24A 4133   6.267   5.160   4.094 -0.2821 -1.1552 -1.5471
   56CHL1  H24B 4134   6.087   5.138   4.112 -1.1243 -1.1395  1.2373
   56CHL1   C25 4135   6.209   5.011   4.239 -0.6639 -0.4957 -0.1662
   56CHL1   H25 4136   6.156   4.914   4.230 -0.1093 -0.7342 -0.9776
   56CHL1   C26 4137   6.359   4.963   4.254 -0.4188  0.4316 -0.2879
   56CHL1  H26A 4138   6.416   5.059   4.254 -2.5140  1.7606  0.6384
   56CHL1  H26B 4139   6.368   4.904   4.347 -0.3172  0.0466 -0.5407
   56CHL1  H26C 4140   6.381   4.886   4.177  0.1070 -1.9841  2.1139
   56CHL1   C27 4141   6.172   5.082   4.372 -0.5345  0.4534  0.2748
   56CHL1  H27A 4142   6.237   5.171   4.383 -0.0741 -0.0106  1.3725
   56CHL1  H27B 4143   6.067   5.108   4.347 -0.7909 -0.9546 -0.2240
   56CHL1  H27C 4144   6.172   5.013   4.459  0.5338  0.1007  0.0130
   57OSM      N 4145   3.603   1.725   6.392 -0.1333 -0.2885 -0.8375
   57OSM    C15 4146   3.457   1.687   6.421  0.0051 -0.1254  0.1048
   57OSM   H15A 4147   3.461   1.599   6.483  0.2989 -1.3342 -1.5523
   57OSM   H15B 4148   3.399   1.665   6.333  2.8014  1.2004 -2.2575
   57OSM   H15C 4149   3.410   1.764   6.480  1.9297  1.9050 -0.8620
   57OSM    C14 4150   3.611   1.833   6.295  0.3123 -0.3484 -0.2874
   57OSM   H14A 4151   3.564   1.926   6.321  0.3833  1.1592 -4.7529
   57OSM   H14B 4152   3.570   1.803   6.200 -0.3492  1.9221 -0.7563
   57OSM   H14C 4153   3.715   1.858   6.281  0.9670 -1.4514  2.0280
   57OSM    C13 4154   3.658   1.780   6.518  0.3562 -0.0436  0.1092
   57OSM   H13A 4155   3.621   1.728   6.604 -0.7703 -1.3004 -1.0965
   57OSM   H13B 4156   3.645   1.887   6.524  0.2354  0.0412 -1.2379
   57OSM   H13C 4157   3.765   1.765   6.508  0.1338 -0.4098 -2.4685
   57OSM    C12 4158   3.671   1.598   6.348  0.6060 -0.2704 -0.3197
   57OSM   H12A 4159   3.601   1.552   6.279  1.1641 -0.3088 -0.8652
   57OSM   H12B 4160   3.669   1.521   6.423  1.6871 -0.5482 -0.5596
   57OSM    C11 4161   3.813   1.603   6.285  1.2386  0.4246 -0.8753
   57OSM   H11A 4162   3.809   1.629   6.177 -1.7056  1.4958 -0.6059
   57OSM   H11B 4163   3.851   1.499   6.296  1.0811  0.5009  0.7133
   57OSM      P 4164   3.996   1.788   6.289  0.0748  0.2327  0.5579
   57OSM    O13 4165   4.032   1.887   6.388  0.3727 -0.2154  0.1440
   57OSM    O14 4166   4.101   1.714   6.215  0.2779 -0.4547 -0.2850
   57OSM    O11 4167   3.911   1.847   6.176  0.1735 -0.0881  0.1997
   57OSM    O12 4168   3.903   1.682   6.357 -0.3694 -0.8617 -0.0385
   57OSM    C1S 4169   3.888   1.984   6.146 -0.5639 -0.0709 -0.4206
   57OSM    H1S 4170   3.979   2.046   6.158 -0.5875  0.1342 -1.2427
   57OSM    H1T 4171   3.799   2.024   6.199  0.2623  0.7360  0.3859
   57OSM     NF 4172   3.830   2.153   5.970 -0.3273  0.6822 -0.3034
   57OSM    HNF 4173   3.732   2.169   5.980 -0.2192 -0.0959  3.0134
   57OSM    C2S 4174   3.857   2.009   5.991 -0.3551 -0.1620 -0.2223
   57OSM    H2S 4175   3.943   1.997   5.921  0.2338  2.2905 -0.0054
   57OSM    C3S 4176   3.739   1.910   5.944  0.0580  0.0907 -0.3234
   57OSM    H3S 4177   3.650   1.929   6.007  0.8073 -0.7764  1.0522
   57OSM     O3 4178   3.779   1.771   5.946  0.3068  0.7064 -0.1748
   57OSM    HO3 4179   3.869   1.766   5.981  1.1923 -1.0354 -2.3931
   57OSM    C4S 4180   3.702   1.946   5.799  0.4948 -0.0738  0.1815
   57OSM    H4S 4181   3.621   2.020   5.785  0.9272 -0.0330 -2.7105
   57OSM    C5S 4182   3.765   1.911   5.688 -0.2866  0.8624 -0.1436
   57OSM    H5S 4183   3.848   1.841   5.699 -0.3531  0.6895 -0.6955
   57OSM    C6S 4184   3.711   1.966   5.559 -0.2167 -0.5482  0.0710
   57OSM    H6S 4185   3.793   1.951   5.486 -1.4874  1.6111 -1.9243
   57OSM    H6T 4186   3.715   2.077   5.561  1.8733 -0.5873  1.2481
   57OSM    C7S 4187   3.579   1.921   5.495 -0.1433  0.4889 -0.8707
   57OSM    H7S 4188   3.491   1.962   5.548 -0.1250 -1.6097  0.8822
   57OSM    H7T 4189   3.564   1.812   5.485 -1.6630  0.6048 -0.0595
   57OSM    C8S 4190   3.590   1.986   5.350  0.1733 -0.8599  0.3654
   57OSM    H8S 4191   3.690   1.952   5.316 -0.0442  1.2167 -2.6876
   57OSM    H8T 4192   3.588   2.096   5.365  0.6215 -0.9662  1.3088
   57OSM    C9S 4193   3.472   1.953   5.253  0.7480  0.0446 -0.0408
   57OSM    H9S 4194   3.378   2.004   5.282  0.1282 -0.0995 -1.6606
   57OSM    H9T 4195   3.448   1.844   5.246 -0.5882  0.3408 -0.3540
   57OSM   C10S 4196   3.498   1.997   5.110 -0.2746 -0.1046 -0.2124
   57OSM   H10S 4197   3.570   1.938   5.049 -1.6245 -1.7765 -0.2685
   57OSM   H10T 4198   3.525   2.105   5.112 -1.1964  0.1883 -1.6169
   57OSM   C11S 4199   3.368   1.989   5.032  0.0892 -0.0132 -0.2160
   57OSM   H11S 4200   3.285   2.026   5.095 -0.9232  1.1490 -2.1241
   57OSM   H11T 4201   3.348   1.884   5.004  2.7202 -0.2676 -1.4066
   57OSM   C12S 4202   3.388   2.063   4.897  0.3740  0.5226 -1.3609
   57OSM   H12S 4203   3.485   2.032   4.852  1.1971  1.4398 -0.2772
   57OSM   H12T 4204   3.403   2.172   4.917 -1.2382  0.6391 -0.5992
   57OSM   C13S 4205   3.274   2.022   4.801 -0.1387 -0.0197  0.1227
   57OSM   H13S 4206   3.178   2.058   4.844 -0.6029  0.9858 -1.6392
   57OSM   H13T 4207   3.286   1.914   4.776  1.1648  0.4175 -1.2863
   57OSM   C14S 4208   3.298   2.088   4.664 -0.0439  0.2072 -0.8724
   57OSM   H14S 4209   3.395   2.044   4.634 -0.1338  0.6492 -1.8528
   57OSM   H14T 4210   3.301   2.199   4.676  3.1971  0.1577 -0.5344
   57OSM   C15S 4211   3.196   2.036   4.556  0.1910  0.4728  0.1617
   57OSM   H15S 4212   3.098   2.079   4.586 -0.2868 -1.8509  2.3252
   57OSM   H15T 4213   3.193   1.925   4.558 -0.5915  0.4869  0.0684
   57OSM   C16S 4214   3.240   2.076   4.411  0.5005  0.0958 -0.4790
   57OSM   H16S 4215   3.242   2.186   4.395  2.3830 -0.1065 -1.9019
   57OSM   H16T 4216   3.150   2.046   4.353 -0.5098 -1.5669  1.7819
   57OSM   C17S 4217   3.372   2.020   4.358  0.1934  0.3313  0.1795
   57OSM   H17S 4218   3.454   2.061   4.421  0.9736 -1.5350  0.4396
   57OSM   H17T 4219   3.380   2.055   4.252  0.8382  1.3897  0.5619
   57OSM   C18S 4220   3.382   1.866   4.362 -0.7358 -0.0791  0.0455
   57OSM   H18S 4221   3.373   1.819   4.463 -0.3890 -3.4017 -1.3366
   57OSM   H18T 4222   3.486   1.840   4.332 -1.0288 -0.5909 -0.5601
   57OSM   H18U 4223   3.315   1.816   4.288 -1.5380  0.4213  0.4196
   57OSM    C1F 4224   3.926   2.244   5.973  0.5923 -0.0093  0.9245
   57OSM     OF 4225   4.045   2.213   5.989  0.0415 -0.5305 -0.1697
   57OSM    C2F 4226   3.883   2.390   5.942  0.1206  0.3222  0.4497
   57OSM    H2F 4227   3.869   2.440   6.040 -1.5291 -1.0780  0.9799
   57OSM    H2G 4228   3.779   2.391   5.902  0.3599 -2.2924 -0.4398
   57OSM    C3F 4229   3.988   2.466   5.853  0.4289 -0.1582  0.0250
   57OSM    H3F 4230   4.086   2.463   5.906  0.1709 -1.6092  0.4649
   57OSM    H3G 4231   3.951   2.570   5.839  0.0497 -0.1146  1.2266
   57OSM    C4F 4232   4.024   2.413   5.720 -0.2015  0.5928  0.0511
   57OSM    H4F 4233   4.025   2.302   5.720 -2.7142  0.5001 -1.3059
   57OSM    H4G 4234   4.120   2.459   5.687 -0.0020  0.2456  0.1387
   57OSM    C5F 4235   3.924   2.447   5.618 -0.1983  0.0687  0.2215
   57OSM    H5F 4236   3.911   2.557   5.621 -0.8765 -0.0011  0.1912
   57OSM    H5G 4237   3.829   2.395   5.645 -0.3450 -0.2670 -0.8618
   57OSM    C6F 4238   3.957   2.401   5.476 -0.4225  0.4539  0.3779
   57OSM    H6F 4239   3.983   2.293   5.483  0.1010  0.4123 -1.6069
   57OSM    H6G 4240   4.052   2.448   5.445  2.1953 -2.9547  2.5668
   57OSM    C7F 4241   3.849   2.430   5.368  0.1475  0.2588  0.4135
   57OSM    H7F 4242   3.810   2.531   5.390 -1.0045 -0.4634  1.9190
   57OSM    H7G 4243   3.767   2.357   5.386 -0.2804  0.6017 -0.1374
   57OSM    C8F 4244   3.903   2.408   5.228  0.4345  0.2132 -1.4703
   57OSM    H8F 4245   3.967   2.318   5.216  0.4820 -0.0489  0.5399
   57OSM    H8G 4246   3.974   2.489   5.200  0.5074  0.5861 -0.2654
   57OSM    C9F 4247   3.797   2.418   5.128  0.5563  0.4558  0.5899
   57OSM    H9F 4248   3.734   2.506   5.151  1.9762  1.6484  0.1234
   57OSM   C10F 4249   3.757   2.340   5.025  0.2082  0.0667  0.2762
   57OSM   H10F 4250   3.674   2.374   4.962 -0.3805 -0.7927  0.5766
   57OSM   C11F 4251   3.836   2.217   4.995  0.1302  0.1711  0.7503
   57OSM   H11F 4252   3.766   2.131   4.995 -1.2436  0.9845 -3.9411
   57OSM   H11G 4253   3.922   2.195   5.062  2.1938 -0.4946 -1.9203
   57OSM   C12F 4254   3.896   2.221   4.853 -0.1248 -0.5487  0.5561
   57OSM   H12F 4255   3.822   2.235   4.772  1.9414  1.2484 -1.1422
   57OSM   H12G 4256   3.942   2.123   4.829  2.4294  0.8891 -0.9152
   57OSM   C13F 4257   4.001   2.328   4.834  0.0964  0.4666  0.2116
   57OSM   H13F 4258   4.064   2.330   4.926 -1.1387 -0.6898  1.1074
   57OSM   H13G 4259   3.952   2.428   4.828 -0.8550  0.0313  0.5148
   57OSM   C14F 4260   4.092   2.297   4.709  0.5444  0.1989 -0.5204
   57OSM   H14F 4261   4.149   2.203   4.722 -0.1231 -0.2840 -0.9662
   57OSM   H14G 4262   4.155   2.387   4.698 -2.9112  3.0616  1.0110
   57OSM   C15F 4263   3.999   2.274   4.586 -0.6697  0.3264  0.4968
   57OSM   H15F 4264   3.924   2.356   4.586 -3.3030 -1.8783  2.2358
   57OSM   H15G 4265   3.940   2.180   4.593 -0.8341 -0.0094 -3.4130
   57OSM   C16F 4266   4.088   2.264   4.455  0.0733  0.1040  0.5128
   57OSM   H16F 4267   4.033   2.185   4.401  1.1256  0.3724 -1.0286
   57OSM   H16G 4268   4.188   2.223   4.482  0.9047 -0.1065 -2.5030
   57OSM   C17F 4269   4.102   2.392   4.381 -0.1260  0.6661  0.1872
   57OSM   H17F 4270   4.138   2.467   4.454 -0.8726  1.2346 -0.0136
   57OSM   H17G 4271   4.001   2.399   4.335  0.2520 -0.7115 -0.9254
   57OSM   C18F 4272   4.199   2.392   4.262  0.1299  0.1057 -0.3408
   57OSM   H18F 4273   4.177   2.304   4.197  0.0265 -0.0153 -0.1416
   57OSM   H18G 4274   4.304   2.375   4.291  0.0889 -1.7712 -1.1297
   57OSM   H18H 4275   4.194   2.494   4.216  0.2917  1.2410  2.0150
   58OSM      N 4276   3.670   0.746   6.667 -0.5242 -0.0576  0.6431
   58OSM    C15 4277   3.615   0.746   6.810  0.1951  0.0874  0.4537
   58OSM   H15A 4278   3.623   0.844   6.856  0.9906  0.5794 -0.6906
   58OSM   H15B 4279   3.653   0.659   6.862  0.8617 -0.4361 -0.8554
   58OSM   H15C 4280   3.509   0.728   6.807 -0.0449  1.5205 -1.2531
   58OSM    C14 4281   3.818   0.774   6.671 -0.5671  0.6034  0.4034
   58OSM   H14A 4282   3.846   0.784   6.567 -1.8292  0.8374  0.0647
   58OSM   H14B 4283   3.874   0.693   6.715 -0.3645  0.6487  0.2260
   58OSM   H14C 4284   3.849   0.868   6.715  2.1795  0.5324 -1.1638
   58OSM    C13 4285   3.651   0.608   6.607  0.1330 -0.7727 -0.3910
   58OSM   H13A 4286   3.551   0.586   6.573 -0.0086  1.2267 -1.4166
   58OSM   H13B 4287   3.664   0.539   6.689  2.2747  0.1497  0.1177
   58OSM   H13C 4288   3.711   0.584   6.521 -0.2349  1.2856 -1.2873
   58OSM    C12 4289   3.603   0.851   6.581 -0.1152  0.1885  0.1832
   58OSM   H12A 4290   3.602   0.945   6.634  1.0883 -0.3716  1.2375
   58OSM   H12B 4291   3.501   0.817   6.566  0.7008 -1.7554 -1.3350
   58OSM    C11 4292   3.654   0.878   6.437  1.0627 -0.3815 -0.1131
   58OSM   H11A 4293   3.579   0.941   6.384  0.8205 -0.3902  0.2117
   58OSM   H11B 4294   3.649   0.781   6.384 -2.2887 -0.3890  0.0087
   58OSM      P 4295   3.817   1.083   6.470  0.1017  0.0212 -0.1922
   58OSM    O13 4296   3.751   1.111   6.599 -0.0601 -0.3576  0.2236
   58OSM    O14 4297   3.964   1.090   6.462  0.0619  0.0224 -0.0036
   58OSM    O11 4298   3.751   1.165   6.348  0.0749  0.3671  0.1842
   58OSM    O12 4299   3.780   0.933   6.437  0.4649 -0.1532  0.1240
   58OSM    C1S 4300   3.816   1.159   6.214  0.3371  0.3726  0.3965
   58OSM    H1S 4301   3.915   1.111   6.227  0.9061  1.5554  0.5584
   58OSM    H1T 4302   3.841   1.263   6.184 -0.8581  0.8655  1.0297
   58OSM     NF 4303   3.808   1.082   5.980  0.1670 -0.3218  0.0751
   58OSM    HNF 4304   3.762   1.113   5.897  1.4355 -1.7444 -1.2369
   58OSM    C2S 4305   3.731   1.088   6.104  1.1218 -0.0205  0.2520
   58OSM    H2S 4306   3.718   0.984   6.140  1.9707 -0.2591 -0.1045
   58OSM    C3S 4307   3.588   1.145   6.095 -0.2793  0.1434 -0.0179
   58OSM    H3S 4308   3.604   1.244   6.047  0.3686 -0.5747 -1.3509
   58OSM     O3 4309   3.522   1.174   6.219  0.4534 -0.3435  0.6218
   58OSM    HO3 4310   3.598   1.164   6.276  0.3490 -1.9860  0.5189
   58OSM    C4S 4311   3.505   1.063   6.006 -0.5972 -0.3749 -0.5609
   58OSM    H4S 4312   3.494   1.116   5.910  0.0116 -1.4333 -1.2403
   58OSM    C5S 4313   3.434   0.951   6.042  0.3243  0.4754 -0.1574
   58OSM    H5S 4314   3.450   0.905   6.140  0.7416 -2.3993 -1.4673
   58OSM    C6S 4315   3.326   0.882   5.956  0.1718  0.1196  0.3024
   58OSM    H6S 4316   3.226   0.900   6.002  0.3848  2.4023 -0.0462
   58OSM    H6T 4317   3.339   0.771   5.956 -0.3762 -0.0638 -3.1030
   58OSM    C7S 4318   3.325   0.908   5.804 -0.7204 -0.0688 -0.6032
   58OSM    H7S 4319   3.334   1.018   5.787 -0.2578  0.3997  2.2538
   58OSM    H7T 4320   3.222   0.879   5.774 -1.8245  1.8116  1.1193
   58OSM    C8S 4321   3.440   0.840   5.728 -0.6409  0.2291 -0.8267
   58OSM    H8S 4322   3.441   0.730   5.746  0.4464  0.1343 -1.3704
   58OSM    H8T 4323   3.542   0.874   5.757 -1.2975  0.2305  1.7906
   58OSM    C9S 4324   3.429   0.872   5.580  0.9144  0.0873  0.1363
   58OSM    H9S 4325   3.423   0.982   5.565  0.3048  0.1288  0.6538
   58OSM    H9T 4326   3.335   0.830   5.536  2.0892 -2.1093 -0.4199
   58OSM   C10S 4327   3.537   0.812   5.501  0.2787  0.2349  0.8465
   58OSM   H10S 4328   3.543   0.702   5.506 -0.6767  0.2205  1.9093
   58OSM   H10T 4329   3.634   0.850   5.540  1.8363 -1.4102 -1.2186
   58OSM   C11S 4330   3.526   0.846   5.348  0.0609 -0.0724 -0.7302
   58OSM   H11S 4331   3.628   0.837   5.306  1.2411  0.7671  1.7918
   58OSM   H11T 4332   3.509   0.956   5.340  1.7112  0.3480  0.8925
   58OSM   C12S 4333   3.435   0.753   5.272  0.4661 -0.4805  0.4046
   58OSM   H12S 4334   3.331   0.777   5.305  0.1854 -1.1802  0.0430
   58OSM   H12T 4335   3.454   0.649   5.308  0.4733  0.0552  2.0695
   58OSM   C13S 4336   3.483   0.756   5.128  0.6673 -0.7317 -0.0079
   58OSM   H13S 4337   3.423   0.676   5.079 -1.5361 -0.2984  1.8190
   58OSM   H13T 4338   3.591   0.732   5.127  0.9972  0.6716 -0.1918
   58OSM   C14S 4339   3.483   0.885   5.054 -0.0319  0.2526 -0.4261
   58OSM   H14S 4340   3.570   0.950   5.076  0.5763 -0.0982 -1.6944
   58OSM   H14T 4341   3.393   0.945   5.077 -0.0662 -0.7439  2.4965
   58OSM   C15S 4342   3.493   0.858   4.901  0.2654 -0.0561 -0.3523
   58OSM   H15S 4343   3.415   0.785   4.870  1.6721 -1.0549 -1.7413
   58OSM   H15T 4344   3.584   0.798   4.882 -0.7304 -1.3840 -1.1809
   58OSM   C16S 4345   3.483   0.992   4.815  0.1947 -0.1597  0.3011
   58OSM   H16S 4346   3.553   1.068   4.854 -0.6603  0.1813  1.1964
   58OSM   H16T 4347   3.388   1.050   4.818  2.2216  3.4338  0.3035
   58OSM   C17S 4348   3.523   0.963   4.670 -0.2637 -0.2768 -0.0338
   58OSM   H17S 4349   3.630   0.933   4.666 -0.7981 -2.2974 -0.4914
   58OSM   H17T 4350   3.506   1.056   4.613  1.7053  0.2526  0.1561
   58OSM   C18S 4351   3.461   0.851   4.590 -0.3629 -0.1181 -0.1966
   58OSM   H18S 4352   3.499   0.850   4.486 -1.6641 -1.2419 -0.6964
   58OSM   H18T 4353   3.353   0.864   4.569 -1.4939 -5.0412  1.1302
   58OSM   H18U 4354   3.454   0.745   4.624 -0.1832 -0.6332 -1.6962
   58OSM    C1F 4355   3.914   1.011   5.969  0.2697  0.2660  0.4450
   58OSM     OF 4356   3.951   0.941   6.062  0.6131  0.2613  0.4517
   58OSM    C2F 4357   3.980   1.010   5.836 -1.0568 -0.3406 -0.3625
   58OSM    H2F 4358   4.082   0.968   5.849 -1.2653 -0.0650  2.9594
   58OSM    H2G 4359   3.989   1.117   5.809  0.2645 -0.4507 -0.4133
   58OSM    C3F 4360   3.907   0.942   5.718  0.0525  0.0970  0.4336
   58OSM    H3F 4361   3.815   1.000   5.693 -0.5300 -0.7808  0.5250
   58OSM    H3G 4362   3.880   0.839   5.749  0.0891  0.0251  0.2314
   58OSM    C4F 4363   4.000   0.952   5.599  0.5995 -0.2707 -0.3045
   58OSM    H4F 4364   4.087   0.886   5.616  0.5816 -0.2694 -0.2114
   58OSM    H4G 4365   4.029   1.059   5.594 -2.6049  0.6640 -1.7078
   58OSM    C5F 4366   3.926   0.912   5.466  0.1729  0.6222  0.0723
   58OSM    H5F 4367   3.849   0.987   5.441 -0.7394 -0.0783  0.7135
   58OSM    H5G 4368   3.881   0.812   5.485  1.0956  0.2232  0.2349
   58OSM    C6F 4369   4.029   0.904   5.349  0.2161  0.3441  0.2335
   58OSM    H6F 4370   4.096   0.818   5.369 -0.7798 -0.8071 -1.1427
   58OSM    H6G 4371   4.082   1.000   5.333 -0.5931  0.7856  0.1146
   58OSM    C7F 4372   3.948   0.869   5.220  0.0278  0.2010 -0.1409
   58OSM    H7F 4373   3.910   0.972   5.204  0.3054  0.5372  1.2582
   58OSM    H7G 4374   3.870   0.793   5.238 -1.0059  0.8967 -1.4841
   58OSM    C8F 4375   4.042   0.817   5.109  0.2221  0.2392 -0.5962
   58OSM    H8F 4376   4.083   0.714   5.124 -1.3844 -0.6790 -2.1934
   58OSM    H8G 4377   4.128   0.888   5.106  1.7598 -1.4636  0.3748
   58OSM    C9F 4378   3.970   0.825   4.973 -0.5465  0.4731  0.2574
   58OSM    H9F 4379   3.918   0.732   4.946  0.7512  0.0216 -0.7951
   58OSM   C10F 4380   3.977   0.911   4.870  0.0975 -0.7519  0.0254
   58OSM   H10F 4381   3.924   0.890   4.776 -2.2289  0.8263  0.8982
   58OSM   C11F 4382   4.042   1.043   4.876 -0.5275  0.6452 -0.5093
   58OSM   H11F 4383   4.151   1.022   4.862 -0.3330  0.2119  1.3234
   58OSM   H11G 4384   4.032   1.096   4.973  0.3751  1.6198 -0.9375
   58OSM   C12F 4385   3.996   1.140   4.767 -0.0330 -0.3700  0.0769
   58OSM   H12F 4386   3.894   1.173   4.798  0.6501  2.5384 -0.4431
   58OSM   H12G 4387   3.973   1.102   4.666 -0.7830  1.8676 -0.6606
   58OSM   C13F 4388   4.078   1.270   4.752 -0.3987  0.3291 -0.0199
   58OSM   H13F 4389   4.175   1.240   4.706  0.5215 -2.3112  3.2046
   58OSM   H13G 4390   4.092   1.310   4.855 -0.4296  0.1313  0.0623
   58OSM   C14F 4391   4.020   1.364   4.644  0.3018 -0.2494  0.0520
   58OSM   H14F 4392   4.062   1.463   4.670  0.9039 -1.0816  2.6240
   58OSM   H14G 4393   3.911   1.369   4.668  0.3961  0.8008  0.2901
   58OSM   C15F 4394   4.064   1.332   4.503 -0.2484  0.2938  0.0016
   58OSM   H15F 4395   4.016   1.237   4.472  1.2687 -0.7889  0.8355
   58OSM   H15G 4396   4.169   1.301   4.488 -0.6857 -1.8594  0.9993
   58OSM   C16F 4397   4.031   1.450   4.412  0.7209 -0.1877  0.5569
   58OSM   H16F 4398   4.098   1.523   4.461  1.7343 -1.1635  0.6777
   58OSM   H16G 4399   3.929   1.494   4.424  1.1177  0.6875  0.7561
   58OSM   C17F 4400   4.061   1.442   4.263 -0.2100 -0.0211 -0.0721
   58OSM   H17F 4401   3.989   1.370   4.219 -0.8095  1.7242 -2.0472
   58OSM   H17G 4402   4.163   1.402   4.242 -0.2123 -0.8027  1.2610
   58OSM   C18F 4403   4.060   1.575   4.188 -0.8280  0.1050  0.5936
   58OSM   H18F 4404   3.965   1.630   4.206 -0.0665  1.8132 -0.3724
   58OSM   H18G 4405   4.054   1.548   4.080 -0.0358  1.2795  0.2306
   58OSM   H18H 4406   4.159   1.620   4.209  0.1065 -1.2445 -0.7240
   59OSM      N 4407   3.953   2.461   6.589  0.0321  0.9815  0.2535
   59OSM    C15 4408   3.817   2.472   6.633  0.0654 -0.2224 -0.0725
   59OSM   H15A 4409   3.802   2.579   6.633  1.9219  0.0702 -0.7924
   59OSM   H15B 4410   3.801   2.427   6.730 -2.5797 -0.2878 -0.4478
   59OSM   H15C 4411   3.758   2.427   6.554 -0.1208 -0.7797  0.3792
   59OSM    C14 4412   3.987   2.550   6.477  0.4100 -0.7361  0.7263
   59OSM   H14A 4413   3.962   2.651   6.507 -1.3807 -1.2750  1.2061
   59OSM   H14B 4414   3.915   2.532   6.398 -3.3573 -0.0052  3.6456
   59OSM   H14C 4415   4.088   2.543   6.441 -0.2681 -0.1294 -1.4396
   59OSM    C13 4416   4.045   2.498   6.706 -0.6377  0.5417  0.2549
   59OSM   H13A 4417   4.151   2.493   6.688 -0.5002 -0.9651  1.3415
   59OSM   H13B 4418   4.020   2.434   6.789 -0.4017 -1.5725 -1.2364
   59OSM   H13C 4419   4.026   2.600   6.735  1.1887  1.3493 -1.1539
   59OSM    C12 4420   3.968   2.313   6.549  0.5121 -0.3803  0.4313
   59OSM   H12A 4421   3.939   2.244   6.628 -0.1300 -0.7443 -0.1178
   59OSM   H12B 4422   4.075   2.297   6.542  0.4049 -0.3326 -2.5273
   59OSM    C11 4423   3.905   2.259   6.419 -0.4289  0.9435  0.0620
   59OSM   H11A 4424   3.937   2.152   6.417  0.4717  1.1551  1.6428
   59OSM   H11B 4425   3.951   2.308   6.331 -0.1394  0.5358 -0.0154
   59OSM      P 4426   3.667   2.180   6.492  0.6903  0.2546  0.4296
   59OSM    O13 4427   3.743   2.065   6.545 -0.0212  0.0298  0.2385
   59OSM    O14 4428   3.586   2.257   6.586  0.0839  0.4845 -0.7693
   59OSM    O11 4429   3.574   2.121   6.383 -0.1031 -0.2405  0.5406
   59OSM    O12 4430   3.763   2.274   6.415 -0.5939 -0.5612  0.0444
   59OSM    C1S 4431   3.515   2.207   6.284 -0.5909 -0.0358 -0.5358
   59OSM    H1S 4432   3.591   2.261   6.225  1.3180 -1.6711  0.3367
   59OSM    H1T 4433   3.455   2.286   6.336 -0.3806  0.5523 -1.1666
   59OSM     NF 4434   3.381   2.209   6.066 -0.1087 -0.3504 -0.5119
   59OSM    HNF 4435   3.296   2.261   6.070  0.0092 -0.1362 -0.7393
   59OSM    C2S 4436   3.415   2.130   6.187 -0.4544 -0.2594 -0.3300
   59OSM    H2S 4437   3.461   2.033   6.163  1.0229 -0.0677  1.5150
   59OSM    C3S 4438   3.290   2.094   6.271 -0.3010  0.8355 -0.8854
   59OSM    H3S 4439   3.254   2.196   6.294 -0.5166  0.6867 -0.5440
   59OSM     O3 4440   3.314   2.027   6.397 -0.3246 -0.9430  0.1203
   59OSM    HO3 4441   3.410   2.022   6.397 -0.2344  0.4449  0.5066
   59OSM    C4S 4442   3.186   2.021   6.194 -0.0980  0.0743  0.0716
   59OSM    H4S 4443   3.199   1.912   6.187  0.1783 -0.1605  2.8666
   59OSM    C5S 4444   3.070   2.077   6.157  1.0541 -0.1830 -0.4582
   59OSM    H5S 4445   3.045   2.181   6.183 -0.9306 -0.7859  0.2714
   59OSM    C6S 4446   2.948   2.019   6.093 -0.5770 -0.8225 -0.6731
   59OSM    H6S 4447   2.864   2.060   6.153  1.5657  2.1902  0.5394
   59OSM    H6T 4448   2.948   1.908   6.095  1.0224 -0.8919 -2.2090
   59OSM    C7S 4449   2.939   2.048   5.944  0.3528  0.3396 -0.4104
   59OSM    H7S 4450   2.872   1.971   5.900  1.7691 -1.5011  0.5026
   59OSM    H7T 4451   3.030   2.044   5.879 -1.1647  1.8209 -2.7770
   59OSM    C8S 4452   2.898   2.189   5.916 -0.2053 -0.4824  0.7558
   59OSM    H8S 4453   2.984   2.254   5.943  0.5331 -1.5210  0.9609
   59OSM    H8T 4454   2.814   2.218   5.984 -0.3404  0.5712  0.1597
   59OSM    C9S 4455   2.869   2.224   5.761 -0.0852  0.2300  0.1282
   59OSM    H9S 4456   2.955   2.192   5.698 -2.1569 -1.2207 -2.1500
   59OSM    H9T 4457   2.879   2.335   5.751  1.5348 -0.0162 -1.6699
   59OSM   C10S 4458   2.739   2.164   5.705 -0.1422  0.3655 -0.0985
   59OSM   H10S 4459   2.645   2.204   5.748 -0.2880  2.6019 -2.2369
   59OSM   H10T 4460   2.747   2.055   5.720  0.2420  0.5624  1.2780
   59OSM   C11S 4461   2.727   2.200   5.558  0.6025  0.8289  0.5193
   59OSM   H11S 4462   2.796   2.135   5.500 -0.0942 -0.5771  1.2082
   59OSM   H11T 4463   2.745   2.309   5.551 -1.0642  1.2750  2.2930
   59OSM   C12S 4464   2.589   2.171   5.501 -0.4026  0.3104 -0.0046
   59OSM   H12S 4465   2.510   2.185   5.578 -1.8059 -0.9730 -1.1611
   59OSM   H12T 4466   2.581   2.063   5.478  2.6180 -0.0863  0.3184
   59OSM   C13S 4467   2.565   2.245   5.367 -0.3084  0.1271  0.0419
   59OSM   H13S 4468   2.594   2.352   5.371 -0.5114  0.1931 -0.2196
   59OSM   H13T 4469   2.458   2.243   5.336 -0.5737  2.4782  0.5697
   59OSM   C14S 4470   2.651   2.179   5.257  0.9924 -0.5849  0.5807
   59OSM   H14S 4471   2.637   2.069   5.255  0.7094 -0.5791  1.5699
   59OSM   H14T 4472   2.760   2.198   5.266  1.1900 -0.9496 -0.7780
   59OSM   C15S 4473   2.606   2.244   5.129 -0.6962 -0.1971 -0.5717
   59OSM   H15S 4474   2.601   2.353   5.153  1.2148 -0.7448  2.8834
   59OSM   H15T 4475   2.502   2.213   5.105 -1.0354  1.4456 -1.3941
   59OSM   C16S 4476   2.704   2.225   5.015  0.4803  0.2930  0.3928
   59OSM   H16S 4477   2.771   2.140   5.040 -0.4721 -0.4793  0.3916
   59OSM   H16T 4478   2.764   2.317   4.998  2.6615 -0.7917  1.7469
   59OSM   C17S 4479   2.643   2.172   4.887  0.0648 -0.0261  0.0515
   59OSM   H17S 4480   2.726   2.159   4.814  0.3754  1.5275  0.1069
   59OSM   H17T 4481   2.580   2.247   4.834 -1.3504 -1.4747 -0.4231
   59OSM   C18S 4482   2.566   2.043   4.896 -0.0908  0.2783 -0.2229
   59OSM   H18S 4483   2.609   1.968   4.964  0.8974  1.2723  0.2795
   59OSM   H18T 4484   2.570   1.993   4.797 -0.1397  0.1880 -0.1800
   59OSM   H18U 4485   2.458   2.050   4.922 -0.0452 -1.0884  0.3953
   59OSM    C1F 4486   3.461   2.242   5.962  0.1080  0.8843 -0.6229
   59OSM     OF 4487   3.571   2.189   5.953 -0.0951 -0.1195  0.4457
   59OSM    C2F 4488   3.407   2.332   5.860  0.1295  0.5436  0.0119
   59OSM    H2F 4489   3.452   2.430   5.886  0.4820  0.1906  0.7728
   59OSM    H2G 4490   3.296   2.334   5.853  0.1846  1.9741 -1.1278
   59OSM    C3F 4491   3.460   2.297   5.714 -0.5749 -0.4664  0.5398
   59OSM    H3F 4492   3.446   2.190   5.691 -1.2290 -0.3178  0.2124
   59OSM    H3G 4493   3.568   2.316   5.726 -0.3967  0.3788 -1.8619
   59OSM    C4F 4494   3.390   2.388   5.619  0.5431 -0.3110 -0.4910
   59OSM    H4F 4495   3.389   2.489   5.666  0.6156  0.5080 -2.1600
   59OSM    H4G 4496   3.284   2.356   5.630  0.7955 -0.6617  1.2674
   59OSM    C5F 4497   3.448   2.395   5.478 -0.2302 -0.3991  0.2620
   59OSM    H5F 4498   3.445   2.296   5.428  1.3523 -0.9638  1.2062
   59OSM    H5G 4499   3.553   2.430   5.484 -0.1021 -0.9321  1.4074
   59OSM    C6F 4500   3.364   2.497   5.396  0.4696  0.3031  0.2159
   59OSM    H6F 4501   3.374   2.593   5.451  1.9017 -0.5118  1.4436
   59OSM    H6G 4502   3.256   2.469   5.394  0.4016  0.1243  2.6167
   59OSM    C7F 4503   3.407   2.508   5.248  0.0468  0.2714 -0.2783
   59OSM    H7F 4504   3.514   2.538   5.250 -0.0696  0.9477 -2.3491
   59OSM    H7G 4505   3.356   2.588   5.191  0.5403  1.6340  1.1248
   59OSM    C8F 4506   3.399   2.379   5.161  0.7024  0.2210 -0.5367
   59OSM    H8F 4507   3.464   2.296   5.195 -0.1318  0.4433  1.7978
   59OSM    H8G 4508   3.417   2.427   5.062 -2.2907  2.4145 -0.1594
   59OSM    C9F 4509   3.269   2.301   5.153  0.0815  0.0157  0.4636
   59OSM    H9F 4510   3.254   2.221   5.227  0.8922 -0.0575  0.5561
   59OSM   C10F 4511   3.171   2.325   5.064  0.0369 -0.1016 -0.4648
   59OSM   H10F 4512   3.083   2.258   5.060  0.8369 -1.1225 -2.9788
   59OSM   C11F 4513   3.170   2.432   4.956 -0.5430 -0.0706  0.3891
   59OSM   H11F 4514   3.269   2.467   4.920  0.0339 -1.7628  0.2414
   59OSM   H11G 4515   3.117   2.527   4.979 -0.4126  1.0662 -3.3169
   59OSM   C12F 4516   3.097   2.395   4.827  0.0691 -0.0777 -0.7318
   59OSM   H12F 4517   2.987   2.391   4.842 -0.2321  2.2191 -1.8349
   59OSM   H12G 4518   3.149   2.308   4.780  1.5078  0.2749  0.1515
   59OSM   C13F 4519   3.086   2.503   4.717  0.5165 -0.0017 -0.0379
   59OSM   H13F 4520   3.183   2.549   4.688  0.9312  0.0673  1.3952
   59OSM   H13G 4521   3.028   2.590   4.752  2.0761  0.7714  0.7401
   59OSM   C14F 4522   3.021   2.444   4.591  0.1531 -0.5224 -0.2398
   59OSM   H14F 4523   3.076   2.355   4.554  0.2665 -0.3643 -0.4507
   59OSM   H14G 4524   3.017   2.529   4.520 -0.8235 -0.0238  0.3857
   59OSM   C15F 4525   2.875   2.391   4.617  0.1135 -0.6044  0.6395
   59OSM   H15F 4526   2.820   2.448   4.695  1.0952 -0.2182  1.0650
   59OSM   H15G 4527   2.894   2.285   4.644  2.4287 -0.1177  1.1644
   59OSM   C16F 4528   2.793   2.394   4.487 -0.7003 -0.0583 -1.1566
   59OSM   H16F 4529   2.782   2.499   4.453  0.1324  0.9301  1.3501
   59OSM   H16G 4530   2.696   2.352   4.521  0.7538 -2.4315  0.4273
   59OSM   C17F 4531   2.841   2.303   4.378  0.5077  0.1314  0.2052
   59OSM   H17F 4532   2.815   2.199   4.408  1.1950  0.4304  1.9207
   59OSM   H17G 4533   2.951   2.291   4.371  0.7973  2.4499  0.0496
   59OSM   C18F 4534   2.777   2.331   4.240 -0.1035  0.0166 -0.4751
   59OSM   H18F 4535   2.764   2.244   4.173 -0.4227 -0.0002 -0.3903
   59OSM   H18G 4536   2.813   2.417   4.179  1.1584  0.0104  0.2179
   59OSM   H18H 4537   2.672   2.362   4.258 -0.0912  0.4249 -1.0825
   60OSM      N 4538   5.195   0.328   6.667  0.0857 -0.4161  0.2052
   60OSM    C15 4539   5.118   0.244   6.572  0.1979 -0.4424 -0.0924
   60OSM   H15A 4540   5.067   0.165   6.626 -1.1426  1.2433  1.2439
   60OSM   H15B 4541   5.188   0.212   6.496  0.9272 -1.1321  0.8421
   60OSM   H15C 4542   5.034   0.296   6.528  1.7277  1.4062 -0.9727
   60OSM    C14 4543   5.210   0.463   6.592 -0.4769  0.5213  0.0960
   60OSM   H14A 4544   5.121   0.523   6.579  0.8092  2.0967 -2.1953
   60OSM   H14B 4545   5.231   0.423   6.493  0.9947  0.5939  0.3648
   60OSM   H14C 4546   5.297   0.514   6.628 -0.6866 -1.1068  3.2764
   60OSM    C13 4547   5.104   0.340   6.789  0.2326  0.2337 -0.3320
   60OSM   H13A 4548   5.155   0.397   6.865  1.3189 -0.1353 -0.7653
   60OSM   H13B 4549   5.085   0.242   6.830  1.3183 -1.3456 -3.2940
   60OSM   H13C 4550   5.005   0.375   6.765 -0.2251 -1.5042 -1.1382
   60OSM    C12 4551   5.327   0.258   6.707  0.5772 -0.0660  0.9514
   60OSM   H12A 4552   5.298   0.156   6.725 -2.7144 -0.0710 -2.9821
   60OSM   H12B 4553   5.377   0.310   6.788  3.0545  1.1120 -1.1844
   60OSM    C11 4554   5.433   0.244   6.587  0.4154  0.1225 -0.8638
   60OSM   H11A 4555   5.529   0.215   6.636 -0.1614  2.9635  2.3533
   60OSM   H11B 4556   5.442   0.347   6.548  0.0136  0.5904  0.2439
   60OSM      P 4557   5.458   0.007   6.472  0.0631 -0.0838 -0.3610
   60OSM    O13 4558   5.571  -0.003   6.377  0.1045 -0.2797  0.4625
   60OSM    O14 4559   5.466  -0.053   6.608  0.2697 -0.0990  0.3666
   60OSM    O11 4560   5.342  -0.058   6.397 -0.2781 -0.0401  0.2424
   60OSM    O12 4561   5.389   0.153   6.484 -0.0480 -0.6977  0.0828
   60OSM    C1S 4562   5.256   0.008   6.304 -0.3996 -0.1802  0.1379
   60OSM    H1S 4563   5.308   0.098   6.265 -1.4343  0.8132  1.0044
   60OSM    H1T 4564   5.161   0.041   6.351 -0.8448  0.2972 -1.0502
   60OSM     NF 4565   5.181  -0.043   6.060 -0.1635 -0.8642  0.2104
   60OSM    HNF 4566   5.100  -0.084   6.019  0.6477 -3.0432  0.6718
   60OSM    C2S 4567   5.221  -0.097   6.198 -0.1316  0.2649  0.3140
   60OSM    H2S 4568   5.312  -0.155   6.170  0.1000  1.5687 -1.9065
   60OSM    C3S 4569   5.119  -0.205   6.256  0.7230  0.2878  0.8398
   60OSM    H3S 4570   5.014  -0.171   6.265  0.2865 -1.1507  1.5287
   60OSM     O3 4571   5.162  -0.257   6.376 -0.0746  0.0623 -0.3723
   60OSM    HO3 4572   5.243  -0.212   6.399  0.5504 -0.7628 -0.8963
   60OSM    C4S 4573   5.117  -0.330   6.165 -1.0003 -0.0039  0.1451
   60OSM    H4S 4574   5.209  -0.391   6.175 -1.6834 -1.4166 -1.6307
   60OSM    C5S 4575   5.015  -0.375   6.092 -0.6111 -0.4439 -0.5644
   60OSM    H5S 4576   4.918  -0.324   6.079 -0.2750  0.1430 -0.8254
   60OSM    C6S 4577   5.030  -0.506   6.022  0.1266  0.5138 -0.0672
   60OSM    H6S 4578   4.944  -0.576   6.031  1.1976 -1.2672 -2.4636
   60OSM    H6T 4579   5.123  -0.556   6.055 -0.3282  0.8445  1.8182
   60OSM    C7S 4580   5.046  -0.514   5.869  0.6420 -0.1909  0.0801
   60OSM    H7S 4581   4.955  -0.464   5.830 -0.0394 -0.0461  1.7777
   60OSM    H7T 4582   5.061  -0.617   5.831  2.5793 -0.4429  1.3641
   60OSM    C8S 4583   5.163  -0.430   5.805 -0.1568 -0.0926  0.2196
   60OSM    H8S 4584   5.261  -0.474   5.833  0.2709 -0.3021 -1.4591
   60OSM    H8T 4585   5.140  -0.325   5.831 -0.0392 -0.4702  1.9305
   60OSM    C9S 4586   5.171  -0.438   5.648  0.4801  0.5181  0.4430
   60OSM    H9S 4587   5.264  -0.388   5.612  0.2557  1.5292  1.2078
   60OSM    H9T 4588   5.081  -0.379   5.621 -1.0536 -1.5429  0.8007
   60OSM   C10S 4589   5.165  -0.579   5.591 -0.0621  1.0514  0.2782
   60OSM   H10S 4590   5.083  -0.642   5.632 -0.9566  0.0300 -2.8494
   60OSM   H10T 4591   5.263  -0.617   5.629 -0.8794 -0.2474  1.1334
   60OSM   C11S 4592   5.173  -0.573   5.442  0.3705  1.2266 -0.3269
   60OSM   H11S 4593   5.265  -0.528   5.399  0.8865 -0.1583 -0.7403
   60OSM   H11T 4594   5.084  -0.519   5.402 -2.9689 -1.3544  2.8809
   60OSM   C12S 4595   5.149  -0.712   5.382  0.2260  0.1996  0.4515
   60OSM   H12S 4596   5.047  -0.740   5.415 -0.1211  2.0941  1.1225
   60OSM   H12T 4597   5.216  -0.786   5.430 -0.2035 -0.3838  0.1680
   60OSM   C13S 4598   5.156  -0.700   5.231  0.0640 -0.1211 -0.2580
   60OSM   H13S 4599   5.250  -0.646   5.207  0.2150  0.0230  0.6206
   60OSM   H13T 4600   5.077  -0.630   5.196  0.1027 -0.0492 -0.2024
   60OSM   C14S 4601   5.151  -0.835   5.160 -0.8555 -0.0642 -0.3823
   60OSM   H14S 4602   5.051  -0.878   5.179 -1.4768  1.5107  0.0853
   60OSM   H14T 4603   5.228  -0.900   5.208 -2.2757 -1.6300 -0.1467
   60OSM   C15S 4604   5.162  -0.839   5.009  0.1098  0.5860  0.6290
   60OSM   H15S 4605   5.168  -0.942   4.966 -0.1302  1.3643 -1.4027
   60OSM   H15T 4606   5.258  -0.792   4.976 -1.0147 -0.0492 -4.4464
   60OSM   C16S 4607   5.040  -0.771   4.948  0.0467 -0.3364  0.5999
   60OSM   H16S 4608   5.048  -0.660   4.954  1.5216 -0.2735 -1.4844
   60OSM   H16T 4609   4.948  -0.794   5.005 -0.3877  2.5907  1.2446
   60OSM   C17S 4610   5.011  -0.803   4.793 -0.4306  0.0773 -0.7697
   60OSM   H17S 4611   4.902  -0.783   4.780 -0.8357 -0.4322  1.3881
   60OSM   H17T 4612   5.033  -0.912   4.786  0.3378  0.1322  0.3742
   60OSM   C18S 4613   5.096  -0.713   4.705  0.0169  0.2214 -0.5579
   60OSM   H18S 4614   5.199  -0.732   4.740 -0.3916  0.8915  1.1144
   60OSM   H18T 4615   5.073  -0.606   4.724  0.0816  0.0786  0.3666
   60OSM   H18U 4616   5.090  -0.747   4.600  1.8416 -1.9744 -0.0255
   60OSM    C1F 4617   5.255   0.044   5.990 -0.0920  0.1680  0.0300
   60OSM     OF 4618   5.353   0.101   6.041  0.0099 -0.4115  0.2949
   60OSM    C2F 4619   5.200   0.089   5.855 -0.3338 -0.1873 -0.5971
   60OSM    H2F 4620   5.183   0.198   5.845  0.6807 -0.0014 -0.4111
   60OSM    H2G 4621   5.102   0.043   5.828  0.0294  0.1206 -2.5955
   60OSM    C3F 4622   5.295   0.035   5.749  1.0817 -0.9263  0.2552
   60OSM    H3F 4623   5.310  -0.075   5.758  0.2924 -1.1447 -0.8788
   60OSM    H3G 4624   5.391   0.091   5.760  0.7546 -0.5201  1.0912
   60OSM    C4F 4625   5.258   0.078   5.609  0.3394  0.8415 -0.0176
   60OSM    H4F 4626   5.269   0.188   5.593 -0.3988  0.8461 -0.5789
   60OSM    H4G 4627   5.159   0.042   5.574  0.8746 -0.1060 -0.6029
   60OSM    C5F 4628   5.351   0.029   5.495 -0.2761 -0.3251 -0.3586
   60OSM    H5F 4629   5.349  -0.081   5.506  2.2924 -0.2382  2.9330
   60OSM    H5G 4630   5.454   0.070   5.508 -0.2794  0.5691 -2.6977
   60OSM    C6F 4631   5.314   0.065   5.347  0.4139  0.1828 -0.2201
   60OSM    H6F 4632   5.282   0.171   5.351  0.5908  0.3133 -1.8818
   60OSM    H6G 4633   5.223   0.008   5.318  0.0455  0.6131  0.0736
   60OSM    C7F 4634   5.435   0.045   5.269  0.4469  0.0267  0.7235
   60OSM    H7F 4635   5.474  -0.057   5.289 -0.4946 -1.0827 -2.4142
   60OSM    H7G 4636   5.504   0.120   5.312 -0.2672  2.0327 -1.4284
   60OSM    C8F 4637   5.413   0.085   5.125 -0.3377 -1.0710 -0.3674
   60OSM    H8F 4638   5.512   0.123   5.091 -0.4480  1.6501  1.9340
   60OSM    H8G 4639   5.358   0.180   5.104  0.4946 -1.0499 -2.8587
   60OSM    C9F 4640   5.359  -0.024   5.041  0.1384 -0.5427 -1.2033
   60OSM    H9F 4641   5.281  -0.087   5.087  1.5335  0.6686  3.2892
   60OSM   C10F 4642   5.394  -0.044   4.916 -0.1308  0.0492  0.3274
   60OSM   H10F 4643   5.348  -0.130   4.864  0.4251 -0.7939  1.1996
   60OSM   C11F 4644   5.501   0.026   4.836  0.4115  0.4202 -0.6098
   60OSM   H11F 4645   5.599  -0.025   4.850 -0.9325 -1.9270  1.0008
   60OSM   H11G 4646   5.514   0.133   4.863  2.5664 -0.2571  1.4734
   60OSM   C12F 4647   5.463   0.021   4.689 -0.5702 -0.2185  0.6592
   60OSM   H12F 4648   5.392   0.101   4.661 -0.2735  0.2856  1.3033
   60OSM   H12G 4649   5.418  -0.072   4.648  1.1326  0.7058 -3.8860
   60OSM   C13F 4650   5.583   0.052   4.595 -0.0136 -0.8769  0.0763
   60OSM   H13F 4651   5.651   0.125   4.644  0.7978  1.2154 -3.7646
   60OSM   H13G 4652   5.550   0.093   4.497 -0.7191  1.6913  1.3047
   60OSM   C14F 4653   5.661  -0.081   4.577  0.3351 -0.3874  0.3046
   60OSM   H14F 4654   5.595  -0.168   4.559 -2.9339  1.4784  2.2906
   60OSM   H14G 4655   5.709  -0.108   4.673  0.6445 -0.5728  0.0984
   60OSM   C15F 4656   5.774  -0.077   4.481  0.3422  0.3846 -0.8201
   60OSM   H15F 4657   5.859  -0.008   4.503  0.3715  0.3292 -0.7592
   60OSM   H15G 4658   5.730  -0.047   4.384  1.1390  0.7178 -1.0914
   60OSM   C16F 4659   5.839  -0.226   4.473  0.4101 -0.6683  0.9524
   60OSM   H16F 4660   5.750  -0.292   4.473 -0.5420  0.5673  0.6782
   60OSM   H16G 4661   5.899  -0.246   4.564  1.4491  0.6617  0.6069
   60OSM   C17F 4662   5.930  -0.242   4.357 -0.3736 -0.3125 -0.2336
   60OSM   H17F 4663   6.027  -0.191   4.374 -0.6815  0.2384 -0.0858
   60OSM   H17G 4664   5.877  -0.181   4.280 -0.0627  1.3504  0.8219
   60OSM   C18F 4665   5.950  -0.395   4.322 -0.0732 -1.4591 -0.6984
   60OSM   H18F 4666   5.979  -0.448   4.414 -0.0854 -0.1050  0.1126
   60OSM   H18G 4667   6.030  -0.417   4.249  0.8889 -2.4910  0.6279
   60OSM   H18H 4668   5.850  -0.434   4.292 -0.5864 -0.4732 -0.3101
   61OSM      N 4669   6.199   0.093   6.821  0.1228 -0.1791 -0.3681
   61OSM    C15 4670   6.258   0.212   6.884 -0.3174 -0.3404  0.1199
   61OSM   H15A 4671   6.316   0.262   6.808  1.1383 -1.2987  0.5416
   61OSM   H15B 4672   6.327   0.184   6.962  1.4210  3.8465  0.3292
   61OSM   H15C 4673   6.177   0.278   6.909 -2.6014 -2.2814 -1.6764
   61OSM    C14 4674   6.316   0.007   6.786  0.3143  0.2958  0.4341
   61OSM   H14A 4675   6.357  -0.023   6.882 -2.2067 -3.2992  0.6038
   61OSM   H14B 4676   6.391   0.053   6.725  1.2215 -1.1645  0.3939
   61OSM   H14C 4677   6.278  -0.086   6.746 -1.3699  1.0378  0.2071
   61OSM    C13 4678   6.126   0.021   6.939 -0.6999 -0.0804  0.2069
   61OSM   H13A 4679   6.206  -0.003   7.007  0.5819  1.8030 -0.5617
   61OSM   H13B 4680   6.073  -0.067   6.904 -0.4185  0.7383 -2.4726
   61OSM   H13C 4681   6.065   0.085   7.000  0.4445 -0.4636  1.8212
   61OSM    C12 4682   6.106   0.122   6.698 -0.5721 -0.4817  0.3475
   61OSM   H12A 4683   6.021   0.182   6.728  0.9001  0.8943  2.0552
   61OSM   H12B 4684   6.075   0.022   6.674 -0.7739 -0.3238 -0.0567
   61OSM    C11 4685   6.168   0.198   6.578 -0.0732  0.5177 -0.5181
   61OSM   H11A 4686   6.099   0.208   6.492  1.3619  2.1270 -1.5544
   61OSM   H11B 4687   6.255   0.149   6.530 -1.0049  0.7707 -2.5311
   61OSM      P 4688   6.105   0.443   6.656 -0.0723 -0.1395 -0.2534
   61OSM    O13 4689   5.971   0.381   6.682  0.1745  0.2929  0.3205
   61OSM    O14 4690   6.165   0.537   6.757  0.3419  0.1002  0.4884
   61OSM    O11 4691   6.103   0.518   6.516  0.0680  0.2379 -0.3114
   61OSM    O12 4692   6.217   0.325   6.629 -0.1493  0.3744  0.3313
   61OSM    C1S 4693   6.221   0.583   6.468 -0.4815  1.1044  0.2159
   61OSM    H1S 4694   6.312   0.573   6.530 -0.0844 -1.1618 -0.6492
   61OSM    H1T 4695   6.202   0.693   6.470 -0.9527  1.0888 -1.6657
   61OSM     NF 4696   6.369   0.598   6.264  0.2853  0.5614  0.3926
   61OSM    HNF 4697   6.354   0.663   6.190  5.8463 -0.7595 -2.4148
   61OSM    C2S 4698   6.252   0.531   6.321 -0.3361  0.3932 -0.2972
   61OSM    H2S 4699   6.284   0.426   6.335 -0.4147  0.3035 -0.8004
   61OSM    C3S 4700   6.126   0.534   6.237 -0.4769 -0.5586  0.0186
   61OSM    H3S 4701   6.082   0.635   6.228 -0.0216 -0.4443 -1.0456
   61OSM     O3 4702   6.023   0.453   6.283  0.0185  0.0221  0.3772
   61OSM    HO3 4703   6.057   0.437   6.372 -0.6231 -1.5775  0.3583
   61OSM    C4S 4704   6.151   0.490   6.099 -0.3525 -0.4172  0.3278
   61OSM    H4S 4705   6.138   0.382   6.084 -0.7244 -0.2520 -0.6599
   61OSM    C5S 4706   6.158   0.582   5.994  0.5519 -0.0090 -0.6123
   61OSM    H5S 4707   6.153   0.685   6.032  1.9223 -0.2170  0.1823
   61OSM    C6S 4708   6.159   0.544   5.849  0.0134  0.6337 -0.0450
   61OSM    H6S 4709   6.254   0.574   5.801  0.3045 -1.7631 -1.1145
   61OSM    H6T 4710   6.080   0.609   5.805 -1.1339  2.3054  4.0219
   61OSM    C7S 4711   6.141   0.394   5.815  0.0812 -0.2839 -0.3436
   61OSM    H7S 4712   6.044   0.351   5.848 -0.7791 -0.2839 -2.6237
   61OSM    H7T 4713   6.220   0.354   5.882  1.4098  2.6600 -0.0118
   61OSM    C8S 4714   6.154   0.367   5.667  0.2101  0.2501  0.1916
   61OSM    H8S 4715   6.180   0.260   5.652 -1.1421  0.2917 -3.6896
   61OSM    H8T 4716   6.248   0.415   5.633  0.1299 -0.6297 -1.3596
   61OSM    C9S 4717   6.029   0.414   5.581 -0.8498  0.6351 -0.1865
   61OSM    H9S 4718   5.996   0.519   5.595  0.0878  0.7961  0.9852
   61OSM    H9T 4719   5.941   0.358   5.620  0.5989 -0.4998  1.6629
   61OSM   C10S 4720   6.050   0.374   5.435 -0.1873 -0.2847 -0.3124
   61OSM   H10S 4721   6.029   0.265   5.433  2.8254 -1.1874  4.0129
   61OSM   H10T 4722   6.158   0.381   5.410 -0.1923 -1.9159 -0.8933
   61OSM   C11S 4723   5.987   0.449   5.315  0.6504  0.1624  0.1880
   61OSM   H11S 4724   6.001   0.559   5.322  0.4540  0.4770 -2.8721
   61OSM   H11T 4725   5.877   0.439   5.308  0.4954 -0.4089  2.7873
   61OSM   C12S 4726   6.052   0.403   5.183  0.1401  0.3303 -0.0430
   61OSM   H12S 4727   6.028   0.297   5.162 -0.9558  0.1670  1.8463
   61OSM   H12T 4728   6.161   0.402   5.199  0.1517  0.7622 -0.0701
   61OSM   C13S 4729   6.026   0.498   5.075  0.2368 -0.2133  0.8411
   61OSM   H13S 4730   6.043   0.599   5.118  1.1128  0.1781 -0.3458
   61OSM   H13T 4731   5.919   0.487   5.046  0.2534 -4.5086  1.8101
   61OSM   C14S 4732   6.107   0.472   4.951  0.8009  0.1521  0.0575
   61OSM   H14S 4733   6.070   0.375   4.912 -0.6879  0.5474  0.4423
   61OSM   H14T 4734   6.217   0.467   4.966  0.7343 -0.0892  0.4666
   61OSM   C15S 4735   6.070   0.563   4.834 -0.4171 -0.2521 -0.5679
   61OSM   H15S 4736   6.034   0.658   4.877  0.4990 -0.7777  1.4915
   61OSM   H15T 4737   5.997   0.509   4.771  0.3900  0.1901 -1.9275
   61OSM   C16S 4738   6.190   0.603   4.747  0.5811 -0.2123 -0.9171
   61OSM   H16S 4739   6.236   0.506   4.719 -1.7054 -2.0141  1.1387
   61OSM   H16T 4740   6.264   0.664   4.803 -0.5896  0.2397  0.1731
   61OSM   C17S 4741   6.155   0.662   4.610 -0.4394  0.8585 -0.1871
   61OSM   H17S 4742   6.065   0.728   4.614 -1.4089 -0.3937 -0.8200
   61OSM   H17T 4743   6.118   0.583   4.541  1.4467  0.2711 -0.5582
   61OSM   C18S 4744   6.273   0.734   4.544  0.3182 -0.1330 -0.1444
   61OSM   H18S 4745   6.230   0.791   4.460  0.8565 -2.3278 -2.0149
   61OSM   H18T 4746   6.341   0.652   4.511 -0.2203 -1.1829  1.1977
   61OSM   H18U 4747   6.328   0.800   4.614  1.0606 -1.0496  0.1723
   61OSM    C1F 4748   6.488   0.580   6.305  0.2025 -0.2662  0.3588
   61OSM     OF 4749   6.523   0.515   6.402 -0.0837  0.4634  0.6467
   61OSM    C2F 4750   6.591   0.632   6.212 -0.2865  0.6247 -0.4927
   61OSM    H2F 4751   6.693   0.597   6.240 -1.0662  0.0450  1.8200
   61OSM    H2G 4752   6.578   0.742   6.218 -2.3769  0.4576 -0.9569
   61OSM    C3F 4753   6.565   0.607   6.055 -0.2067 -0.3681 -0.8519
   61OSM    H3F 4754   6.655   0.658   6.013  0.2611  1.9468  2.5126
   61OSM    H3G 4755   6.475   0.663   6.022 -0.6888 -0.6058  0.0325
   61OSM    C4F 4756   6.540   0.464   6.018 -0.1266 -0.3019  0.2554
   61OSM    H4F 4757   6.434   0.439   6.040 -0.4366  0.7698  0.0290
   61OSM    H4G 4758   6.595   0.384   6.072  1.4275  1.0235  0.7238
   61OSM    C5F 4759   6.557   0.436   5.866 -0.0258 -0.5952 -0.5265
   61OSM    H5F 4760   6.644   0.496   5.833 -0.0178  0.7158  1.6822
   61OSM    H5G 4761   6.464   0.479   5.822 -0.2106  0.2642  0.6315
   61OSM    C6F 4762   6.572   0.288   5.823  0.6618 -0.4847  0.0536
   61OSM    H6F 4763   6.678   0.256   5.814  0.8421 -1.1050  3.2624
   61OSM    H6G 4764   6.532   0.292   5.720  0.4297 -0.5405  0.1422
   61OSM    C7F 4765   6.502   0.185   5.918 -0.2670  0.5046  0.1181
   61OSM    H7F 4766   6.404   0.233   5.935 -0.0053  0.6970  1.1250
   61OSM    H7G 4767   6.562   0.182   6.012 -1.3106 -1.6038  0.7682
   61OSM    C8F 4768   6.482   0.041   5.863  0.3283  0.1355  0.0183
   61OSM    H8F 4769   6.468  -0.008   5.962 -0.1708 -0.6070 -0.4080
   61OSM    H8G 4770   6.578   0.007   5.818  0.3576  0.2145  0.0207
   61OSM    C9F 4771   6.362   0.027   5.769  0.2811 -0.1888  0.0622
   61OSM    H9F 4772   6.271   0.078   5.806 -0.0139 -0.5318 -0.1830
   61OSM   C10F 4773   6.366  -0.031   5.647  0.6493 -0.4421 -0.0794
   61OSM   H10F 4774   6.276  -0.021   5.584  1.3930 -0.5517 -1.1758
   61OSM   C11F 4775   6.483  -0.081   5.563 -0.6341  0.3476  0.1958
   61OSM   H11F 4776   6.456  -0.182   5.525  1.2478  0.0695 -0.5207
   61OSM   H11G 4777   6.583  -0.095   5.611 -0.1740 -4.2385 -1.5465
   61OSM   C12F 4778   6.506  -0.003   5.432  0.2810  0.1485 -0.2788
   61OSM   H12F 4779   6.604  -0.036   5.390 -0.2520 -0.3839 -1.1315
   61OSM   H12G 4780   6.524   0.103   5.459  0.9875 -0.9416  4.2732
   61OSM   C13F 4781   6.390  -0.032   5.338 -0.1734 -0.5754 -0.2652
   61OSM   H13F 4782   6.303  -0.012   5.404  1.2856 -0.0002  1.5949
   61OSM   H13G 4783   6.390  -0.142   5.323  0.3523 -0.6577  0.2790
   61OSM   C14F 4784   6.401   0.041   5.207  0.2140 -0.5311  0.0852
   61OSM   H14F 4785   6.491   0.012   5.148 -0.6178  1.0110 -2.0644
   61OSM   H14G 4786   6.406   0.150   5.231  0.1441  0.2978 -3.2425
   61OSM   C15F 4787   6.269   0.015   5.131  0.0286 -0.5071  0.7517
   61OSM   H15F 4788   6.183   0.028   5.200  0.0892  0.3272  0.6801
   61OSM   H15G 4789   6.267  -0.091   5.101 -1.4255 -0.1119 -0.7074
   61OSM   C16F 4790   6.259   0.105   5.006  0.0571 -0.0655  0.2970
   61OSM   H16F 4791   6.247   0.211   5.037 -2.5639 -0.5792  1.3679
   61OSM   H16G 4792   6.172   0.076   4.943  0.1758 -1.1049  0.5970
   61OSM   C17F 4793   6.391   0.086   4.924  1.6592 -0.0979 -0.3453
   61OSM   H17F 4794   6.384  -0.025   4.915  0.4428  0.0369 -1.3831
   61OSM   H17G 4795   6.476   0.123   4.985  1.5300  0.9501 -0.7852
   61OSM   C18F 4796   6.389   0.143   4.782 -0.0919  0.5146 -0.0749
   61OSM   H18F 4797   6.474   0.106   4.721 -0.3875 -0.3703  0.0301
   61OSM   H18G 4798   6.407   0.252   4.789 -0.2650  0.4555  1.9288
   61OSM   H18H 4799   6.292   0.132   4.728 -0.5369  0.8236  0.6459
   62OSM      N 4800   6.404   5.686   6.749 -0.6460 -0.5336  0.5086
   62OSM    C15 4801   6.545   5.675   6.701 -0.1859  0.8621 -1.4286
   62OSM   H15A 4802   6.539   5.610   6.615  0.4143  0.9452 -1.5360
   62OSM   H15B 4803   6.602   5.625   6.777  1.1652  0.3846 -2.7191
   62OSM   H15C 4804   6.582   5.773   6.674  0.5328  0.6826 -1.1025
   62OSM    C14 4805   6.416   5.747   6.885  0.1205 -0.5340 -0.4214
   62OSM   H14A 4806   6.319   5.767   6.926  0.9252  0.1133  1.2293
   62OSM   H14B 4807   6.476   5.836   6.885  0.7166 -0.9047  1.0726
   62OSM   H14C 4808   6.465   5.668   6.941  3.5963  0.4231 -1.8711
   62OSM    C13 4809   6.325   5.778   6.661  0.0694  0.8096  0.6215
   62OSM   H13A 4810   6.217   5.764   6.660  0.1259  0.2936  1.2226
   62OSM   H13B 4811   6.350   5.742   6.562 -1.7073  0.4234  0.2738
   62OSM   H13C 4812   6.352   5.882   6.669 -0.7490  1.2275 -1.4477
   62OSM    C12 4813   6.355   5.549   6.760 -0.0049 -0.8578  0.1864
   62OSM   H12A 4814   6.407   5.503   6.843  3.0133 -0.7622 -1.5032
   62OSM   H12B 4815   6.375   5.489   6.673 -2.9265  0.1427 -1.3001
   62OSM    C11 4816   6.204   5.533   6.781  0.1566  0.2943  0.9127
   62OSM   H11A 4817   6.163   5.585   6.869  0.0625 -0.2876  1.2215
   62OSM   H11B 4818   6.192   5.427   6.812 -1.7135  1.1048  3.2229
   62OSM      P 4819   6.038   5.458   6.582  0.2172 -0.3123 -0.4011
   62OSM    O13 4820   6.084   5.319   6.614  0.1542 -0.3115 -0.0265
   62OSM    O14 4821   5.899   5.483   6.622  0.1468  0.3730  0.4114
   62OSM    O11 4822   6.066   5.484   6.427 -0.3329  0.1730 -0.8934
   62OSM    O12 4823   6.128   5.558   6.664 -0.5002  0.1001 -0.2421
   62OSM    C1S 4824   6.129   5.609   6.391 -0.5541  0.3341 -0.5670
   62OSM    H1S 4825   6.209   5.632   6.464 -0.1902 -0.2651 -0.7733
   62OSM    H1T 4826   6.060   5.696   6.393  0.4057  1.1009 -0.1221
   62OSM     NF 4827   6.269   5.717   6.225  0.2445  0.4085  0.6038
   62OSM    HNF 4828   6.223   5.794   6.180  2.2469  0.7847 -0.9818
   62OSM    C2S 4829   6.189   5.593   6.246  0.0921  0.2102 -0.2670
   62OSM    H2S 4830   6.257   5.506   6.252  1.1296  1.1056  2.3766
   62OSM    C3S 4831   6.070   5.571   6.150 -0.7752  0.0970  0.0338
   62OSM    H3S 4832   5.993   5.649   6.167  0.3945  1.0667  1.0887
   62OSM     O3 4833   5.995   5.455   6.167 -0.8614  0.4829 -0.0917
   62OSM    HO3 4834   6.018   5.421   6.254 -0.9614 -1.9154 -0.9276
   62OSM    C4S 4835   6.118   5.565   6.011 -0.0870 -0.0121  0.4536
   62OSM    H4S 4836   6.176   5.473   5.991  1.7787  1.4536 -1.3134
   62OSM    C5S 4837   6.098   5.657   5.917  0.9644  0.7861  0.2796
   62OSM    H5S 4838   6.045   5.752   5.931  2.5338  1.8801 -0.8836
   62OSM    C6S 4839   6.161   5.647   5.779 -0.2322  0.0817 -0.6114
   62OSM    H6S 4840   6.243   5.572   5.768  2.0684  1.7465  2.9717
   62OSM    H6T 4841   6.219   5.741   5.763  0.0183  0.4934  2.1729
   62OSM    C7S 4842   6.048   5.645   5.676 -0.4430  0.3137  0.1557
   62OSM    H7S 4843   5.981   5.730   5.702  1.5066  1.4604  1.7081
   62OSM    H7T 4844   5.988   5.553   5.693  0.8098 -1.1365 -2.6846
   62OSM    C8S 4845   6.098   5.637   5.533 -0.4838 -0.1301 -0.3671
   62OSM    H8S 4846   6.186   5.572   5.555 -1.0960 -0.0984  2.5969
   62OSM    H8T 4847   6.132   5.735   5.493 -0.3279  0.6226  1.4957
   62OSM    C9S 4848   6.007   5.579   5.429  0.4387 -0.0460 -0.1625
   62OSM    H9S 4849   5.907   5.627   5.433  1.0456  1.3108 -0.9135
   62OSM    H9T 4850   5.988   5.471   5.447 -0.4098 -0.1804 -1.7180
   62OSM   C10S 4851   6.042   5.602   5.276  0.2806 -0.1280 -0.1123
   62OSM   H10S 4852   6.134   5.549   5.247  0.7731  0.2023  0.7974
   62OSM   H10T 4853   6.055   5.712   5.260  1.9566 -0.2694  0.1481
   62OSM   C11S 4854   5.933   5.560   5.184  0.0442  0.7974 -0.1011
   62OSM   H11S 4855   5.834   5.608   5.196  0.8276  2.4519  0.1788
   62OSM   H11T 4856   5.908   5.453   5.196  0.7879  0.6369  0.1074
   62OSM   C12S 4857   5.958   5.593   5.033 -0.8742  0.3172  0.0727
   62OSM   H12S 4858   5.875   5.543   4.979 -1.0569  0.4665  0.2147
   62OSM   H12T 4859   6.056   5.555   4.998 -1.4166 -1.0205 -0.0500
   62OSM   C13S 4860   5.951   5.743   5.008  0.0955  0.1460  0.4655
   62OSM   H13S 4861   6.028   5.803   5.061 -0.4169  1.9532 -0.7585
   62OSM   H13T 4862   5.847   5.769   5.037 -0.1848  0.6165 -0.8952
   62OSM   C14S 4863   5.978   5.779   4.862  0.0054  0.2730 -0.0091
   62OSM   H14S 4864   5.896   5.739   4.800 -1.1588  2.1716  0.2208
   62OSM   H14T 4865   6.059   5.709   4.834  0.7201  0.5548  1.2531
   62OSM   C15S 4866   6.000   5.919   4.818 -0.4516 -0.1938 -0.5646
   62OSM   H15S 4867   6.074   5.977   4.877  1.2181 -0.3727 -2.3838
   62OSM   H15T 4868   5.910   5.985   4.818 -0.2816  0.0499 -1.5160
   62OSM   C16S 4869   6.062   5.929   4.673 -0.0498 -0.3104  0.0661
   62OSM   H16S 4870   6.153   5.868   4.661  1.3638  1.6501  0.2939
   62OSM   H16T 4871   6.098   6.034   4.661 -0.3885 -0.3922 -2.1168
   62OSM   C17S 4872   5.960   5.911   4.557  0.5047  0.5280  0.4098
   62OSM   H17S 4873   5.884   5.990   4.573  0.7109  1.3724 -2.2805
   62OSM   H17T 4874   5.898   5.819   4.565  1.8368 -0.4897 -0.4560
   62OSM   C18S 4875   6.018   5.923   4.416  0.1822 -0.1511 -0.2416
   62OSM   H18S 4876   6.066   6.022   4.407 -2.1066  0.9062 -1.8148
   62OSM   H18T 4877   5.941   5.930   4.337 -0.2486 -2.2114 -0.0780
   62OSM   H18U 4878   6.083   5.840   4.382 -0.8166 -0.5920 -1.1353
   62OSM    C1F 4879   6.385   5.735   6.288 -0.3227 -0.8493 -0.1185
   62OSM     OF 4880   6.436   5.647   6.359 -0.2274 -0.2238  0.2459
   62OSM    C2F 4881   6.450   5.875   6.277 -0.2780  0.7053  0.6592
   62OSM    H2F 4882   6.445   5.918   6.380  1.8253  1.0089  0.6675
   62OSM    H2G 4883   6.387   5.939   6.211 -0.4197 -0.0638  0.0400
   62OSM    C3F 4884   6.595   5.868   6.232 -1.1627  0.6006  1.5316
   62OSM    H3F 4885   6.668   5.815   6.297 -0.0323  1.0841  0.7013
   62OSM    H3G 4886   6.636   5.971   6.227 -2.4135  1.0879  0.9777
   62OSM    C4F 4887   6.603   5.812   6.086  0.1631  1.5348 -0.6624
   62OSM    H4F 4888   6.567   5.708   6.077  1.2549  0.6496  3.3588
   62OSM    H4G 4889   6.713   5.813   6.070  0.2412  1.5002 -0.1453
   62OSM    C5F 4890   6.525   5.891   5.975 -0.2598  0.3423 -0.1607
   62OSM    H5F 4891   6.564   5.995   5.978  0.4011  0.1084 -0.4367
   62OSM    H5G 4892   6.416   5.888   5.996 -0.1465 -0.2613  0.3983
   62OSM    C6F 4893   6.534   5.830   5.835 -0.0729  0.1076  0.8256
   62OSM    H6F 4894   6.486   5.731   5.820  0.8718 -0.0908 -1.1135
   62OSM    H6G 4895   6.642   5.813   5.816 -0.1015  1.4646 -0.7931
   62OSM    C7F 4896   6.494   5.927   5.715 -0.2901 -0.0896 -0.2551
   62OSM    H7F 4897   6.560   6.016   5.718 -1.7098  1.0088 -0.5307
   62OSM    H7G 4898   6.391   5.968   5.721  0.0993  1.1718 -1.5598
   62OSM    C8F 4899   6.503   5.852   5.579  0.9662 -0.1817  0.8817
   62OSM    H8F 4900   6.441   5.759   5.578  2.5246 -1.2546  0.0699
   62OSM    H8G 4901   6.603   5.809   5.559  1.4167  1.6147 -1.0403
   62OSM    C9F 4902   6.473   5.949   5.463 -0.2607 -0.0814 -0.2943
   62OSM    H9F 4903   6.515   6.049   5.483 -0.9913  0.9045 -3.1828
   62OSM   C10F 4904   6.407   5.931   5.344 -0.3420 -0.1034  0.2730
   62OSM   H10F 4905   6.395   6.020   5.281  1.5000  0.0477  0.1014
   62OSM   C11F 4906   6.353   5.800   5.303  0.1827  0.6565  0.2929
   62OSM   H11F 4907   6.245   5.820   5.290  0.2160  0.6232 -0.0370
   62OSM   H11G 4908   6.369   5.717   5.375  1.3114  0.6358  0.0388
   62OSM   C12F 4909   6.409   5.746   5.171  0.0863 -0.2694  0.0765
   62OSM   H12F 4910   6.373   5.642   5.160  1.8729 -0.9674  0.5687
   62OSM   H12G 4911   6.520   5.745   5.173  0.1337  0.2472 -1.3189
   62OSM   C13F 4912   6.372   5.826   5.040 -0.3677 -0.2934  0.4139
   62OSM   H13F 4913   6.399   5.932   5.062 -0.9402 -0.2633  0.9792
   62OSM   H13G 4914   6.262   5.823   5.028 -0.2371  0.9169 -1.5402
   62OSM   C14F 4915   6.446   5.765   4.911 -0.0888 -0.1765  0.3238
   62OSM   H14F 4916   6.402   5.667   4.881  3.3710 -1.6125 -0.5756
   62OSM   H14G 4917   6.554   5.751   4.930 -0.3038 -0.7915  1.1467
   62OSM   C15F 4918   6.434   5.854   4.792  0.5855  0.3043  0.1253
   62OSM   H15F 4919   6.498   5.943   4.804  0.3173  0.3664  1.1956
   62OSM   H15G 4920   6.331   5.896   4.788  0.7498  0.8653  1.4076
   62OSM   C16F 4921   6.471   5.784   4.659  0.2713  0.6282 -0.0866
   62OSM   H16F 4922   6.391   5.721   4.614 -0.4701  0.9279  0.7843
   62OSM   H16G 4923   6.566   5.727   4.670  1.6061  2.8647  0.6423
   62OSM   C17F 4924   6.510   5.883   4.537  0.4369  0.6492 -0.2620
   62OSM   H17F 4925   6.521   5.810   4.454  0.2718  0.4653 -0.1239
   62OSM   H17G 4926   6.604   5.938   4.559  0.2249  1.7656 -1.9213
   62OSM   C18F 4927   6.408   5.996   4.510  0.3283  0.3430  1.0412
   62OSM   H18F 4928   6.427   6.045   4.412  0.7259  1.1996  1.5432
   62OSM   H18G 4929   6.409   6.081   4.581  1.3300 -0.4095  1.9657
   62OSM   H18H 4930   6.306   5.952   4.513  0.1544  0.6392 -0.0365
   63OSM      N 4931   3.927   6.062   7.201 -0.2110  0.6118 -0.3476
   63OSM    C15 4932   3.898   5.922   7.248 -0.2134 -0.3046  0.4333
   63OSM   H15A 4933   3.943   5.898   7.344 -1.2358 -3.5628  0.2249
   63OSM   H15B 4934   3.948   5.849   7.188 -0.5060 -0.7985  0.7812
   63OSM   H15C 4935   3.793   5.898   7.252 -0.1741 -0.6586 -0.4466
   63OSM    C14 4936   3.847   6.153   7.287  0.0506 -0.6012 -0.3079
   63OSM   H14A 4937   3.741   6.133   7.284 -0.2913  1.1336 -1.6996
   63OSM   H14B 4938   3.864   6.259   7.273 -0.8932 -0.2821  0.8186
   63OSM   H14C 4939   3.872   6.151   7.392  0.6492  1.2851 -0.3706
   63OSM    C13 4940   4.070   6.104   7.204 -0.2488  0.0227  0.2540
   63OSM   H13A 4941   4.088   6.210   7.204 -3.6811  0.8325 -3.2804
   63OSM   H13B 4942   4.105   6.066   7.109 -0.9688 -1.8834  0.7070
   63OSM   H13C 4943   4.139   6.060   7.275  1.9421  0.8366 -1.2551
   63OSM    C12 4944   3.878   6.085   7.055  0.6678 -0.0619  0.3951
   63OSM   H12A 4945   3.872   6.190   7.034 -0.4510  0.0199  1.0091
   63OSM   H12B 4946   3.774   6.055   7.055  0.3260  1.0272  1.5755
   63OSM    C11 4947   3.951   6.009   6.939 -0.3761  0.6505 -0.0666
   63OSM   H11A 4948   3.889   6.037   6.851 -1.3345  0.4006  0.5236
   63OSM   H11B 4949   3.935   5.900   6.949 -1.5550  0.7941 -0.2967
   63OSM      P 4950   4.142   6.165   6.841  0.1471 -0.1559  0.2523
   63OSM    O13 4951   4.132   6.285   6.926 -0.4337  0.0326  0.1475
   63OSM    O14 4952   4.275   6.132   6.790 -0.1011 -0.2782  0.9705
   63OSM    O11 4953   4.038   6.185   6.726 -0.2389 -0.5984  0.3909
   63OSM    O12 4954   4.093   6.036   6.926  0.0931 -0.4234  0.3135
   63OSM    C1S 4955   4.080   6.203   6.589 -0.3517  0.2848  0.6253
   63OSM    H1S 4956   4.139   6.115   6.556 -0.9139 -0.8389  2.4374
   63OSM    H1T 4957   4.140   6.294   6.568 -0.3756 -0.1994 -1.9291
   63OSM     NF 4958   3.975   6.231   6.356 -0.6484 -0.9385  0.5772
   63OSM    HNF 4959   3.956   6.313   6.303  2.2610 -0.9409 -0.6565
   63OSM    C2S 4960   3.951   6.225   6.501  0.1098  0.2668 -0.3131
   63OSM    H2S 4961   3.903   6.125   6.501  0.6360 -0.0335  1.7064
   63OSM    C3S 4962   3.843   6.324   6.572  0.7724  0.0236 -0.2458
   63OSM    H3S 4963   3.903   6.417   6.575  0.8168 -0.0143  0.1545
   63OSM     O3 4964   3.808   6.296   6.707  0.5704  0.2535  0.4006
   63OSM    HO3 4965   3.868   6.226   6.733  0.2524 -0.0403  0.3468
   63OSM    C4S 4966   3.725   6.341   6.482 -0.1022 -0.8634 -0.6031
   63OSM    H4S 4967   3.755   6.415   6.406  3.3667 -0.1912  1.1927
   63OSM    C5S 4968   3.592   6.300   6.491  0.2425  0.1010  0.3976
   63OSM    H5S 4969   3.560   6.249   6.582  1.8108 -0.3629  0.7180
   63OSM    C6S 4970   3.482   6.334   6.396  0.3721  0.0966  0.5568
   63OSM    H6S 4971   3.413   6.404   6.449  1.7541  4.3918 -2.7171
   63OSM    H6T 4972   3.440   6.234   6.376  1.4383 -0.6202  1.7308
   63OSM    C7S 4973   3.522   6.407   6.270 -0.5623 -0.4511 -0.3128
   63OSM    H7S 4974   3.599   6.356   6.208 -1.0261 -0.7558 -0.6488
   63OSM    H7T 4975   3.551   6.509   6.304 -1.7691  0.4596 -1.8465
   63OSM    C8S 4976   3.395   6.433   6.179 -0.7791 -0.1112 -0.0526
   63OSM    H8S 4977   3.308   6.446   6.247 -1.4564  0.6181 -1.0340
   63OSM    H8T 4978   3.365   6.338   6.131 -1.2193  0.1412 -0.2791
   63OSM    C9S 4979   3.402   6.553   6.088  0.2181 -0.1226  0.0962
   63OSM    H9S 4980   3.449   6.641   6.137 -1.3343  1.1735 -0.6804
   63OSM    H9T 4981   3.299   6.581   6.061  0.9034 -0.6336 -3.4685
   63OSM   C10S 4982   3.473   6.523   5.956  0.5057 -0.2645 -0.2673
   63OSM   H10S 4983   3.565   6.469   5.989 -0.0987  0.6685  3.3939
   63OSM   H10T 4984   3.503   6.619   5.908  1.6954  0.0825  1.1000
   63OSM   C11S 4985   3.386   6.445   5.862 -0.4122 -0.1582 -0.0575
   63OSM   H11S 4986   3.290   6.493   5.831  0.9820  1.9464 -1.3976
   63OSM   H11T 4987   3.363   6.343   5.899  1.5815 -0.9916 -1.0105
   63OSM   C12S 4988   3.457   6.411   5.730 -0.4138 -0.1035  0.2310
   63OSM   H12S 4989   3.428   6.316   5.682  1.5847 -0.5113 -0.2738
   63OSM   H12T 4990   3.568   6.413   5.741 -0.3528  0.8998 -0.3888
   63OSM   C13S 4991   3.425   6.523   5.623 -0.3699 -0.4911  0.1253
   63OSM   H13S 4992   3.503   6.598   5.642  0.8222 -1.1726 -1.8235
   63OSM   H13T 4993   3.321   6.559   5.637 -1.4545 -2.8872 -1.0876
   63OSM   C14S 4994   3.438   6.478   5.477 -0.1630  0.5539  0.1370
   63OSM   H14S 4995   3.370   6.392   5.459 -0.2858  0.8161 -0.6603
   63OSM   H14T 4996   3.540   6.443   5.450 -0.0123  0.7782  0.4017
   63OSM   C15S 4997   3.398   6.580   5.367  0.3192 -0.1977 -0.3129
   63OSM   H15S 4998   3.301   6.628   5.393 -0.1629  0.6916 -3.3003
   63OSM   H15T 4999   3.386   6.530   5.268 -1.6879  0.8300 -0.6449
   63OSM   C16S 5000   3.481   6.705   5.353  0.0418  0.1935  0.0221
   63OSM   H16S 5001   3.495   6.757   5.451  2.2392 -3.4932  1.9069
   63OSM   H16T 5002   3.432   6.758   5.269 -0.1607 -0.7036 -0.4278
   63OSM   C17S 5003   3.619   6.667   5.305  0.4106 -0.3991  0.3367
   63OSM   H17S 5004   3.656   6.589   5.374 -1.8193 -2.4844 -0.6882
   63OSM   H17T 5005   3.680   6.760   5.310  2.0709 -1.3536 -0.8314
   63OSM   C18S 5006   3.625   6.608   5.160  0.4758 -0.4510 -0.4685
   63OSM   H18S 5007   3.580   6.677   5.086  2.8641  1.1718 -0.4941
   63OSM   H18T 5008   3.565   6.516   5.146  0.0732 -0.2432 -0.1235
   63OSM   H18U 5009   3.731   6.583   5.139  1.3649  1.6676  1.0978
   63OSM    C1F 5010   4.035   6.142   6.282  0.7881  0.3832  0.4040
   63OSM     OF 5011   4.043   6.029   6.331 -0.4755  0.5305  0.7545
   63OSM    C2F 5012   4.088   6.179   6.152  0.4141 -0.2945  0.4458
   63OSM    H2F 5013   4.167   6.253   6.177 -0.3298  0.1349  1.6293
   63OSM    H2G 5014   4.006   6.239   6.107  0.2082 -0.7591  0.1950
   63OSM    C3F 5015   4.119   6.060   6.078 -0.5252  1.0521 -0.2576
   63OSM    H3F 5016   4.042   5.980   6.071  2.5164 -2.0707 -0.8170
   63OSM    H3G 5017   4.206   6.008   6.124 -0.4477 -0.1935 -1.7282
   63OSM    C4F 5018   4.168   6.096   5.934  1.3195  0.3289  0.2231
   63OSM    H4F 5019   4.256   6.162   5.949  2.3695 -0.2496 -2.8357
   63OSM    H4G 5020   4.084   6.148   5.882  1.9892  1.5480  0.3364
   63OSM    C5F 5021   4.206   5.967   5.865  0.0041  0.4285  0.1751
   63OSM    H5F 5022   4.138   5.886   5.901  0.1938  1.0023  1.9594
   63OSM    H5G 5023   4.305   5.940   5.908  0.6404  0.6823 -1.1046
   63OSM    C6F 5024   4.228   5.980   5.713  0.1823 -0.1285  0.2221
   63OSM    H6F 5025   4.298   6.064   5.692 -2.5827  2.6162  1.2179
   63OSM    H6G 5026   4.134   6.018   5.666 -0.8728 -1.0475  1.5250
   63OSM    C7F 5027   4.260   5.849   5.642  0.4703 -0.1207 -0.6135
   63OSM    H7F 5028   4.175   5.780   5.664  2.1260 -1.8442  0.6382
   63OSM    H7G 5029   4.341   5.795   5.695  1.3198  0.4170 -1.3436
   63OSM    C8F 5030   4.298   5.845   5.493  0.2019 -0.1279 -0.6678
   63OSM    H8F 5031   4.354   5.750   5.479  1.0139  0.0508  1.1277
   63OSM    H8G 5032   4.363   5.933   5.476 -1.2795  1.1164 -0.1265
   63OSM    C9F 5033   4.172   5.854   5.409 -0.1675  0.3597  0.2380
   63OSM    H9F 5034   4.083   5.845   5.473 -1.8636  2.2476 -1.7147
   63OSM   C10F 5035   4.152   5.899   5.280 -0.9520  0.7043 -0.1402
   63OSM   H10F 5036   4.058   5.890   5.224  0.6706 -1.9094 -2.7352
   63OSM   C11F 5037   4.269   5.940   5.188  0.0179  0.5818 -0.3988
   63OSM   H11F 5038   4.363   5.925   5.245  0.9457 -0.4409 -2.0952
   63OSM   H11G 5039   4.257   6.048   5.166 -1.9318  0.6595  0.8290
   63OSM   C12F 5040   4.275   5.858   5.055 -1.1404  0.0095 -0.5028
   63OSM   H12F 5041   4.281   5.749   5.075  0.3891  0.2766  0.6425
   63OSM   H12G 5042   4.371   5.886   5.006 -0.9910 -1.4830 -1.1356
   63OSM   C13F 5043   4.168   5.890   4.954 -0.2823  0.1508 -0.5900
   63OSM   H13F 5044   4.181   5.993   4.916  1.6735  0.1738  0.0627
   63OSM   H13G 5045   4.069   5.883   5.004 -0.9284 -0.3293 -1.8841
   63OSM   C14F 5046   4.170   5.787   4.839  0.3702  0.1517 -0.8846
   63OSM   H14F 5047   4.158   5.681   4.870  2.6543 -0.3806 -1.5950
   63OSM   H14G 5048   4.258   5.816   4.779  0.9966  2.0570  0.8444
   63OSM   C15F 5049   4.043   5.816   4.752  0.1263  0.2185  0.1925
   63OSM   H15F 5050   4.029   5.926   4.749  0.2341  0.2054 -1.9703
   63OSM   H15G 5051   3.951   5.778   4.803 -0.2446  0.4430 -0.3037
   63OSM   C16F 5052   4.043   5.745   4.615 -0.0248 -0.4570 -0.2107
   63OSM   H16F 5053   4.140   5.768   4.565  1.0977 -2.5253  0.8694
   63OSM   H16G 5054   3.956   5.774   4.553 -0.8309 -0.6155  0.8271
   63OSM   C17F 5055   4.032   5.593   4.625  0.1283 -0.8579  0.0612
   63OSM   H17F 5056   3.945   5.560   4.687  0.4735 -0.1408  0.9553
   63OSM   H17G 5057   4.128   5.562   4.671  0.1718  0.7468  1.1304
   63OSM   C18F 5058   4.027   5.524   4.490 -0.4235  0.2171  0.3353
   63OSM   H18F 5059   4.051   5.416   4.496  1.4791  0.3972 -2.1870
   63OSM   H18G 5060   4.119   5.555   4.436 -1.1470 -0.6686 -1.4932
   63OSM   H18H 5061   3.939   5.547   4.425  1.8918 -0.2918 -3.2840
   64OSM      N 5062   0.412   1.219   6.832  0.4672 -0.4634  0.3565
   64OSM    C15 5063   0.275   1.155   6.810 -0.0429 -0.3844  0.1033
   64OSM   H15A 5064   0.283   1.092   6.723  0.8035  1.5372 -1.2851
   64OSM   H15B 5065   0.199   1.229   6.789  0.0666 -0.5074 -0.7732
   64OSM   H15C 5066   0.250   1.095   6.897  1.5688  0.0682  0.9186
   64OSM    C14 5067   0.450   1.282   6.694  0.6421  0.1779  0.9882
   64OSM   H14A 5068   0.368   1.342   6.658  0.5313  0.0110  0.9619
   64OSM   H14B 5069   0.470   1.202   6.624  1.0114 -0.3453  1.6755
   64OSM   H14C 5070   0.539   1.342   6.705 -0.6499  2.0560  1.7055
   64OSM    C13 5071   0.381   1.330   6.927 -0.4495  0.3154  0.3594
   64OSM   H13A 5072   0.341   1.283   7.016  0.6901 -1.5146 -0.0510
   64OSM   H13B 5073   0.316   1.405   6.885 -0.5989 -0.2421 -0.4080
   64OSM   H13C 5074   0.468   1.386   6.960 -0.7423 -0.3443  2.4287
   64OSM    C12 5075   0.515   1.123   6.890  0.4831  0.0344 -0.1532
   64OSM   H12A 5076   0.538   1.057   6.808 -1.9480 -0.7501 -0.3061
   64OSM   H12B 5077   0.462   1.052   6.952 -1.9349  1.5387 -0.3527
   64OSM    C11 5078   0.643   1.175   6.946 -0.4785 -0.4318  0.0484
   64OSM   H11A 5079   0.693   1.090   6.995  0.8152 -0.1328 -0.7000
   64OSM   H11B 5080   0.617   1.241   7.031  0.9076 -0.3984  0.4733
   64OSM      P 5081   0.831   1.161   6.766  0.0367 -0.1186  0.4616
   64OSM    O13 5082   0.943   1.104   6.848  0.4391  0.2520 -0.4009
   64OSM    O14 5083   0.751   1.058   6.692 -0.5230  0.2034  0.0160
   64OSM    O11 5084   0.877   1.268   6.657  0.3492 -0.0710  0.0997
   64OSM    O12 5085   0.729   1.244   6.850  0.0513 -0.5982 -1.4601
   64OSM    C1S 5086   1.004   1.262   6.598  0.8578  0.4209 -0.5473
   64OSM    H1S 5087   1.069   1.205   6.667 -1.4421 -0.8077  0.7260
   64OSM    H1T 5088   1.041   1.367   6.586 -0.8633  1.0023 -1.0420
   64OSM     NF 5089   1.139   1.156   6.416 -0.0810 -0.4281  0.1898
   64OSM    HNF 5090   1.186   1.221   6.357  0.7956  0.6760  2.0216
   64OSM    C2S 5091   1.005   1.194   6.455 -0.1012 -0.1208  0.0234
   64OSM    H2S 5092   0.953   1.096   6.461 -1.4897  0.5068 -1.1923
   64OSM    C3S 5093   0.924   1.283   6.360 -0.3241 -0.4223 -0.6913
   64OSM    H3S 5094   0.978   1.380   6.357  1.4119 -1.2262  1.3316
   64OSM     O3 5095   0.789   1.310   6.384  0.9851  0.2669 -0.7768
   64OSM    HO3 5096   0.784   1.340   6.475 -2.5827  3.1247 -1.6847
   64OSM    C4S 5097   0.928   1.221   6.223 -0.5153  0.0775  0.2144
   64OSM    H4S 5098   0.879   1.123   6.213 -1.1242  0.4360 -0.3304
   64OSM    C5S 5099   0.996   1.272   6.118  0.1066  0.5259 -0.5064
   64OSM    H5S 5100   1.061   1.360   6.132  2.4364 -1.2077  0.1666
   64OSM    C6S 5101   1.000   1.214   5.980 -0.4027  0.5990  0.1469
   64OSM    H6S 5102   1.105   1.185   5.962 -1.0442 -0.4433 -2.4613
   64OSM    H6T 5103   0.986   1.299   5.910  2.8045  0.0294 -1.3233
   64OSM    C7S 5104   0.902   1.105   5.952  0.4596 -0.3951  0.9896
   64OSM    H7S 5105   0.800   1.131   5.987  0.3714 -1.9721  1.9970
   64OSM    H7T 5106   0.935   1.017   6.012 -1.9186 -2.3960 -0.4367
   64OSM    C8S 5107   0.899   1.066   5.796  0.3013 -0.1210 -0.2792
   64OSM    H8S 5108   1.006   1.062   5.765  0.6741  1.9304  0.5973
   64OSM    H8T 5109   0.853   1.154   5.747  0.8462 -0.7829 -2.0367
   64OSM    C9S 5110   0.819   0.941   5.757  0.0438 -0.5118  0.4312
   64OSM    H9S 5111   0.833   0.870   5.841  0.7201 -0.4698  0.3581
   64OSM    H9T 5112   0.873   0.910   5.665  1.3793  0.1252  0.9606
   64OSM   C10S 5113   0.674   0.987   5.734  0.4027 -0.5586 -0.4130
   64OSM   H10S 5114   0.671   1.047   5.640 -1.0760 -0.7900 -0.5363
   64OSM   H10T 5115   0.637   1.055   5.815  2.2217  0.4837 -0.4080
   64OSM   C11S 5116   0.562   0.884   5.719 -0.4306  1.1789 -0.0031
   64OSM   H11S 5117   0.530   0.845   5.818 -1.3931  0.3581 -0.6184
   64OSM   H11T 5118   0.603   0.801   5.657 -1.0384  1.5311 -0.8846
   64OSM   C12S 5119   0.439   0.950   5.654  0.3118 -0.6451  0.0019
   64OSM   H12S 5120   0.467   1.048   5.610 -0.1547 -0.9359 -0.9860
   64OSM   H12T 5121   0.363   0.990   5.724 -0.0383 -0.8438 -0.2561
   64OSM   C13S 5122   0.367   0.866   5.552 -0.6809 -0.6286  0.7388
   64OSM   H13S 5123   0.270   0.916   5.531 -0.9704 -2.1579 -2.2273
   64OSM   H13T 5124   0.344   0.763   5.588 -1.9308 -0.5261  0.2882
   64OSM   C14S 5125   0.443   0.856   5.418 -0.3823 -0.0891  0.3308
   64OSM   H14S 5126   0.534   0.794   5.438 -1.8265 -2.8432 -1.0099
   64OSM   H14T 5127   0.476   0.957   5.387  1.5045 -0.1666  1.9175
   64OSM   C15S 5128   0.367   0.788   5.299  0.2812 -0.0484 -0.1727
   64OSM   H15S 5129   0.351   0.686   5.338 -0.4263 -0.3948 -1.3158
   64OSM   H15T 5130   0.438   0.780   5.213 -0.7335  0.7596 -1.1238
   64OSM   C16S 5131   0.237   0.862   5.255 -0.2851  0.7450  0.3502
   64OSM   H16S 5132   0.265   0.950   5.195 -0.5328 -1.0105 -2.5395
   64OSM   H16T 5133   0.176   0.899   5.340  1.4987  3.4003  0.5713
   64OSM   C17S 5134   0.153   0.765   5.163 -0.2570 -0.2993 -0.0279
   64OSM   H17S 5135   0.047   0.798   5.160 -0.0086  0.5675  0.4059
   64OSM   H17T 5136   0.156   0.670   5.221  2.4362  0.7434  1.7641
   64OSM   C18S 5137   0.211   0.744   5.023  0.6271  0.2346 -0.5087
   64OSM   H18S 5138   0.142   0.681   4.962 -2.7347  0.3812  2.8073
   64OSM   H18T 5139   0.309   0.696   5.042  0.2022  0.4384  2.6511
   64OSM   H18U 5140   0.232   0.843   4.976  0.2423  0.2193 -0.7212
   64OSM    C1F 5141   1.203   1.058   6.475  0.5256 -0.3108  0.2157
   64OSM     OF 5142   1.145   0.983   6.557 -0.0368  0.2846  0.7956
   64OSM    C2F 5143   1.351   1.037   6.440 -0.5432 -0.2978 -0.2163
   64OSM    H2F 5144   1.376   0.935   6.478 -0.1656 -0.2340 -0.2886
   64OSM    H2G 5145   1.411   1.118   6.485 -0.0574 -1.9395  2.2841
   64OSM    C3F 5146   1.365   1.028   6.284  0.1070  0.5790  0.1777
   64OSM    H3F 5147   1.323   1.121   6.240 -0.9533  0.5463  1.0678
   64OSM    H3G 5148   1.290   0.948   6.266 -0.6443  1.3723 -0.3042
   64OSM    C4F 5149   1.498   0.995   6.220  0.4064 -0.0749  0.3232
   64OSM    H4F 5150   1.540   0.903   6.267  1.5547 -0.5621 -1.5738
   64OSM    H4G 5151   1.576   1.071   6.238 -0.7035  1.2147 -0.1757
   64OSM    C5F 5152   1.486   0.980   6.067  0.2474 -0.2466  0.7543
   64OSM    H5F 5153   1.442   1.067   6.013 -1.3731 -0.6448  1.3807
   64OSM    H5G 5154   1.421   0.894   6.043  1.0436 -1.0076  1.2824
   64OSM    C6F 5155   1.623   0.942   6.011 -0.0743  0.1043 -0.2367
   64OSM    H6F 5156   1.675   0.878   6.086 -0.3241  1.3938  1.0882
   64OSM    H6G 5157   1.682   1.035   6.004 -0.9790  0.6258 -1.1082
   64OSM    C7F 5158   1.631   0.865   5.874 -0.1117 -0.1012  0.1603
   64OSM    H7F 5159   1.557   0.782   5.877 -1.7889  1.3167 -0.1318
   64OSM    H7G 5160   1.737   0.841   5.851  0.2187  0.2016  1.3273
   64OSM    C8F 5161   1.577   0.952   5.755  0.1809  0.2249 -0.1383
   64OSM    H8F 5162   1.484   1.002   5.788 -0.0895 -0.7012  0.5451
   64OSM    H8G 5163   1.541   0.880   5.677  2.1434  1.6380 -2.5226
   64OSM    C9F 5164   1.679   1.049   5.700 -0.0136 -1.0123 -0.7723
   64OSM    H9F 5165   1.724   1.119   5.772  1.7320  0.1678 -2.8874
   64OSM   C10F 5166   1.697   1.074   5.572 -0.4199 -0.8372  0.0668
   64OSM   H10F 5167   1.781   1.143   5.553 -1.5815  0.6788  0.2398
   64OSM   C11F 5168   1.638   1.019   5.442 -0.1545  0.3057 -0.5959
   64OSM   H11F 5169   1.545   0.961   5.462  0.1233 -0.2083 -0.7614
   64OSM   H11G 5170   1.709   0.955   5.386  1.8969  0.4343  1.6794
   64OSM   C12F 5171   1.594   1.121   5.336  0.2460 -0.3833 -0.0079
   64OSM   H12F 5172   1.658   1.212   5.339  1.2221 -1.0788  1.4037
   64OSM   H12G 5173   1.487   1.147   5.352  0.1330 -0.5051 -0.5399
   64OSM   C13F 5174   1.609   1.067   5.193 -0.1398 -0.1747  0.5607
   64OSM   H13F 5175   1.563   0.968   5.211  1.2190 -0.7158  1.1756
   64OSM   H13G 5176   1.716   1.052   5.168 -0.3577  0.2424 -0.7164
   64OSM   C14F 5177   1.549   1.145   5.079 -0.2522 -0.0601  0.3650
   64OSM   H14F 5178   1.574   1.253   5.067 -1.4021  0.2820  0.9376
   64OSM   H14G 5179   1.443   1.161   5.109 -0.3134 -0.1568  0.2018
   64OSM   C15F 5180   1.527   1.068   4.948  0.0256  1.1127 -1.0177
   64OSM   H15F 5181   1.441   1.107   4.891 -0.2716 -0.4786 -1.7363
   64OSM   H15G 5182   1.502   0.965   4.981  2.6506  0.6746 -0.0985
   64OSM   C16F 5183   1.650   1.054   4.866 -0.3175  0.1535  0.4985
   64OSM   H16F 5184   1.736   1.043   4.936 -0.9485 -0.3681  1.1968
   64OSM   H16G 5185   1.674   1.148   4.811  0.7409 -0.0823  0.5373
   64OSM   C17F 5186   1.657   0.939   4.760 -0.3974 -0.5504  0.1636
   64OSM   H17F 5187   1.604   0.973   4.668  1.1135 -1.3389 -1.0423
   64OSM   H17G 5188   1.612   0.852   4.811  1.1893 -0.2074  2.3171
   64OSM   C18F 5189   1.800   0.914   4.707 -0.3132  0.1102  1.3429
   64OSM   H18F 5190   1.802   0.843   4.621  0.2383 -0.7795  2.0657
   64OSM   H18G 5191   1.878   0.885   4.781 -1.4929 -0.1505  2.5431
   64OSM   H18H 5192   1.828   1.013   4.667 -1.6342  0.9211  2.3342
   65OSM      N 5193   4.595   4.807   6.458 -0.0787 -0.4620  0.2468
   65OSM    C15 5194   4.603   4.942   6.535  0.0548  0.1787  0.3825
   65OSM   H15A 5195   4.553   5.015   6.473  0.9490 -0.4090 -1.0730
   65OSM   H15B 5196   4.705   4.977   6.538  0.8310 -1.6780 -1.7412
   65OSM   H15C 5197   4.570   4.935   6.638  0.1257 -1.3100  0.3198
   65OSM    C14 5198   4.665   4.704   6.539  0.2707 -0.4965 -0.5732
   65OSM   H14A 5199   4.768   4.731   6.556  0.0130 -0.9524  2.1210
   65OSM   H14B 5200   4.673   4.612   6.483  0.4301 -2.5119  2.5044
   65OSM   H14C 5201   4.608   4.703   6.630 -0.3384  1.8290 -0.8638
   65OSM    C13 5202   4.443   4.773   6.465 -0.3855 -0.8111  0.5384
   65OSM   H13A 5203   4.428   4.669   6.438 -0.1749 -0.5934 -0.4772
   65OSM   H13B 5204   4.386   4.833   6.396  1.1745 -0.1862 -0.2646
   65OSM   H13C 5205   4.410   4.799   6.564  0.4411 -0.3723  0.7026
   65OSM    C12 5206   4.640   4.820   6.314  0.5115 -0.3486  0.7283
   65OSM   H12A 5207   4.569   4.883   6.263 -2.0570 -0.5155  3.7777
   65OSM   H12B 5208   4.613   4.727   6.265 -1.4472  0.1974  0.6952
   65OSM    C11 5209   4.785   4.859   6.275 -0.2305  0.4623 -0.6874
   65OSM   H11A 5210   4.825   4.949   6.327 -1.2696 -0.0093  0.9989
   65OSM   H11B 5211   4.786   4.876   6.165 -0.9184  1.1072 -0.6051
   65OSM      P 5212   5.023   4.738   6.316 -0.3620 -0.0310  0.0086
   65OSM    O13 5213   5.075   4.846   6.403 -0.2458 -0.0266 -0.2828
   65OSM    O14 5214   5.057   4.601   6.364  0.4960 -0.3287 -0.2414
   65OSM    O11 5215   5.071   4.757   6.171 -0.0411  0.3613 -0.0569
   65OSM    O12 5216   4.865   4.745   6.317 -0.7772  0.0900  0.2349
   65OSM    C1S 5217   5.112   4.886   6.135 -0.1397  0.4996  0.2468
   65OSM    H1S 5218   5.211   4.906   6.180 -0.4017  1.8587  0.2482
   65OSM    H1T 5219   5.039   4.964   6.165  0.9470  1.3642  0.6751
   65OSM     NF 5220   5.209   5.008   5.938  0.2511 -0.2587 -0.1846
   65OSM    HNF 5221   5.142   5.074   5.905 -0.0309 -0.7694 -0.6487
   65OSM    C2S 5222   5.137   4.888   5.978 -0.1792  0.7276  0.5157
   65OSM    H2S 5223   5.210   4.812   5.943 -1.2806  1.1984 -3.2651
   65OSM    C3S 5224   4.999   4.870   5.906 -0.8999  0.5115  0.7953
   65OSM    H3S 5225   4.947   4.968   5.917 -0.4866  0.9123 -0.5952
   65OSM     O3 5226   4.913   4.771   5.958  0.6813  0.6010 -0.0234
   65OSM    HO3 5227   4.949   4.746   6.043  1.1010 -0.0854 -0.4004
   65OSM    C4S 5228   5.019   4.842   5.755 -0.4486 -0.1049 -0.6342
   65OSM    H4S 5229   5.038   4.936   5.702 -0.7469  1.0014  1.1584
   65OSM    C5S 5230   5.026   4.719   5.700 -0.1543  0.4731 -0.1519
   65OSM    H5S 5231   5.020   4.625   5.757 -1.4965 -0.5773 -1.8974
   65OSM    C6S 5232   5.054   4.693   5.556  0.1262 -0.9500  0.3140
   65OSM    H6S 5233   5.042   4.584   5.540 -1.8360 -0.8979  1.1231
   65OSM    H6T 5234   5.155   4.732   5.534 -0.4058 -0.3036 -1.0430
   65OSM    C7S 5235   4.962   4.762   5.460  0.4726 -0.2732 -0.2259
   65OSM    H7S 5236   4.987   4.869   5.477  3.0374 -1.0497  1.4740
   65OSM    H7T 5237   4.858   4.731   5.483 -0.5293  2.1772 -1.1508
   65OSM    C8S 5238   4.982   4.727   5.313 -0.0127  0.2096  0.6298
   65OSM    H8S 5239   4.990   4.616   5.306 -1.3491  0.1039  0.5519
   65OSM    H8T 5240   5.067   4.777   5.263  0.1695 -0.2580  0.4632
   65OSM    C9S 5241   4.857   4.760   5.228  0.0018 -0.4893  0.3119
   65OSM    H9S 5242   4.841   4.868   5.248 -1.0731 -0.6772  0.5466
   65OSM    H9T 5243   4.762   4.719   5.271 -1.1886  1.8256  0.0601
   65OSM   C10S 5244   4.867   4.739   5.081 -0.2080 -0.9975 -0.2027
   65OSM   H10S 5245   4.871   4.631   5.058 -1.0225 -1.4132  1.4579
   65OSM   H10T 5246   4.956   4.789   5.035 -0.0583 -2.0879 -1.1212
   65OSM   C11S 5247   4.750   4.797   5.003 -0.7695  0.5692 -0.4326
   65OSM   H11S 5248   4.734   4.906   5.017 -0.5157  0.8567 -2.1670
   65OSM   H11T 5249   4.656   4.752   5.041  1.1535 -2.5425  0.9921
   65OSM   C12S 5250   4.775   4.770   4.852  0.9607 -0.3136  0.3821
   65OSM   H12S 5251   4.877   4.797   4.818  0.0709  1.2033 -1.2227
   65OSM   H12T 5252   4.706   4.844   4.807  1.6844 -0.1642 -0.4986
   65OSM   C13S 5253   4.733   4.638   4.798 -0.3154  0.6032 -0.1887
   65OSM   H13S 5254   4.774   4.556   4.861 -1.2723 -0.1481 -0.5313
   65OSM   H13T 5255   4.774   4.636   4.695 -0.0997  0.1555 -0.0965
   65OSM   C14S 5256   4.575   4.639   4.776 -0.3668 -0.5565 -0.5820
   65OSM   H14S 5257   4.543   4.724   4.712  0.8969  0.2883 -0.1316
   65OSM   H14T 5258   4.522   4.650   4.873 -0.4527 -2.0357 -0.4288
   65OSM   C15S 5259   4.526   4.519   4.697 -0.6417 -0.7355 -0.0944
   65OSM   H15S 5260   4.510   4.425   4.755 -2.0855 -0.6905 -0.3761
   65OSM   H15T 5261   4.596   4.493   4.615  0.2270  0.0786  0.3706
   65OSM   C16S 5262   4.400   4.559   4.615 -0.9835 -0.2855  0.2814
   65OSM   H16S 5263   4.427   4.645   4.550  0.5352 -1.2701 -0.4588
   65OSM   H16T 5264   4.318   4.595   4.680 -1.8885  0.8554 -1.4038
   65OSM   C17S 5265   4.359   4.453   4.513 -0.5711  0.7050 -0.6346
   65OSM   H17S 5266   4.339   4.354   4.560 -0.4107  1.0529  0.1900
   65OSM   H17T 5267   4.451   4.443   4.452  0.5774  1.2842  0.9622
   65OSM   C18S 5268   4.253   4.506   4.414 -0.5118  0.2739  0.0605
   65OSM   H18S 5269   4.221   4.412   4.364  2.2277  0.0581 -1.4937
   65OSM   H18T 5270   4.308   4.565   4.337 -1.4379 -2.3072 -2.8023
   65OSM   H18U 5271   4.181   4.557   4.481  0.4100 -2.3679  3.2735
   65OSM    C1F 5272   5.337   5.033   5.971  1.2504 -0.0239 -0.2825
   65OSM     OF 5273   5.401   4.963   6.051 -0.2130  0.4856 -0.0541
   65OSM    C2F 5274   5.393   5.172   5.944 -0.7094 -0.2926 -0.3422
   65OSM    H2F 5275   5.481   5.188   6.010  0.4994 -0.5613 -1.8582
   65OSM    H2G 5276   5.305   5.236   5.968 -0.6547 -0.1813 -0.4348
   65OSM    C3F 5277   5.417   5.207   5.790  0.0298 -0.5541  0.1947
   65OSM    H3F 5278   5.350   5.157   5.717  1.1615 -1.3450 -0.3393
   65OSM    H3G 5279   5.524   5.178   5.777  0.0507 -0.9888  1.2882
   65OSM    C4F 5280   5.412   5.361   5.773  0.2984  0.1331  0.4146
   65OSM    H4F 5281   5.433   5.417   5.867  0.9426 -1.6940  1.4081
   65OSM    H4G 5282   5.308   5.381   5.739  0.4635  3.2700  1.3673
   65OSM    C5F 5283   5.516   5.409   5.681  0.2644 -0.1041  0.2836
   65OSM    H5F 5284   5.620   5.385   5.713  0.0795 -1.1919  0.0998
   65OSM    H5G 5285   5.512   5.520   5.681 -0.6533 -0.1198 -0.6312
   65OSM    C6F 5286   5.504   5.370   5.541 -0.0367  0.1975  0.0102
   65OSM    H6F 5287   5.422   5.435   5.503 -1.3785 -1.4561 -0.0205
   65OSM    H6G 5288   5.469   5.267   5.520 -0.0364 -0.2476  2.0380
   65OSM    C7F 5289   5.621   5.417   5.451  0.6859 -0.7435 -1.1628
   65OSM    H7F 5290   5.716   5.378   5.492 -0.6071 -1.8457  0.9466
   65OSM    H7G 5291   5.628   5.528   5.461 -0.0665 -0.5069 -2.8334
   65OSM    C8F 5292   5.602   5.399   5.304  0.1556 -0.4083 -0.1137
   65OSM    H8F 5293   5.649   5.482   5.247  0.5622 -0.8956 -0.5041
   65OSM    H8G 5294   5.502   5.436   5.273  1.0217  1.1327 -1.2378
   65OSM    C9F 5295   5.631   5.262   5.257 -0.1728 -0.1518 -0.1683
   65OSM    H9F 5296   5.637   5.193   5.343  1.3055  1.4972  1.1271
   65OSM   C10F 5297   5.628   5.211   5.133 -0.6230  0.3463  0.3086
   65OSM   H10F 5298   5.653   5.105   5.115  1.3964  0.9604 -0.8679
   65OSM   C11F 5299   5.607   5.300   5.014 -0.2611 -0.1945 -0.3175
   65OSM   H11F 5300   5.707   5.330   4.977  0.7967 -2.3845  0.5549
   65OSM   H11G 5301   5.551   5.395   5.029 -1.0082 -0.6973  0.1295
   65OSM   C12F 5302   5.531   5.208   4.905  0.4302 -0.2170 -0.6687
   65OSM   H12F 5303   5.477   5.270   4.830  0.2611 -1.0013 -1.2143
   65OSM   H12G 5304   5.457   5.144   4.959  2.3393 -0.5839  1.6589
   65OSM   C13F 5305   5.629   5.113   4.835  0.7979 -0.9566 -0.0818
   65OSM   H13F 5306   5.697   5.053   4.900  0.2236  0.5524  1.9871
   65OSM   H13G 5307   5.693   5.174   4.767  0.5600  0.9285  1.3074
   65OSM   C14F 5308   5.557   5.012   4.750  0.6810 -0.2802 -0.2182
   65OSM   H14F 5309   5.513   5.071   4.667 -3.2344 -1.2801  0.8873
   65OSM   H14G 5310   5.465   4.970   4.798  0.4061  0.6060  0.0596
   65OSM   C15F 5311   5.652   4.908   4.683  0.0364 -0.6449 -0.5323
   65OSM   H15F 5312   5.701   4.852   4.766 -0.7413  2.3620  2.2003
   65OSM   H15G 5313   5.729   4.965   4.627  0.4594 -1.0895 -0.4111
   65OSM   C16F 5314   5.590   4.801   4.595 -0.4417 -0.0665  0.1533
   65OSM   H16F 5315   5.667   4.764   4.524  1.8058 -1.0038  2.8890
   65OSM   H16G 5316   5.508   4.839   4.530 -1.3854 -3.0880 -0.5528
   65OSM   C17F 5317   5.536   4.667   4.662  0.2704  0.6309 -0.8048
   65OSM   H17F 5318   5.470   4.609   4.594 -0.3072 -0.2010  0.4286
   65OSM   H17G 5319   5.480   4.694   4.754 -0.5434  2.1127 -1.7010
   65OSM   C18F 5320   5.642   4.561   4.709  0.3255  0.0615 -1.0156
   65OSM   H18F 5321   5.698   4.509   4.629  0.2823  0.9223 -1.6141
   65OSM   H18G 5322   5.580   4.486   4.763  0.9412  1.1747  1.4008
   65OSM   H18H 5323   5.719   4.596   4.780  0.8615 -1.3996 -0.8563
   66OSM      N 5324   2.271   0.710   6.636  0.6242  0.1108  0.2151
   66OSM    C15 5325   2.321   0.647   6.507  0.2012 -0.1219 -0.0563
   66OSM   H15A 5326   2.238   0.622   6.442 -1.7116  3.1179  0.8690
   66OSM   H15B 5327   2.387   0.564   6.522  1.5394  0.4851 -2.1429
   66OSM   H15C 5328   2.369   0.725   6.449 -1.0537  1.2721  0.6749
   66OSM    C14 5329   2.180   0.823   6.603  0.2720 -0.0537  0.7873
   66OSM   H14A 5330   2.100   0.786   6.541  0.5156 -1.0922  1.0714
   66OSM   H14B 5331   2.229   0.893   6.537  0.1388 -2.9488 -2.6734
   66OSM   H14C 5332   2.137   0.870   6.691 -1.7591 -0.2231 -0.0728
   66OSM    C13 5333   2.208   0.600   6.708  0.3259 -0.0830 -0.3962
   66OSM   H13A 5334   2.192   0.621   6.813 -2.7305  0.5824 -0.8852
   66OSM   H13B 5335   2.262   0.507   6.702 -2.6360 -2.0048  0.3791
   66OSM   H13C 5336   2.115   0.580   6.657  0.8195 -0.5010 -1.1501
   66OSM    C12 5337   2.383   0.768   6.722  0.5183  0.6531 -0.1041
   66OSM   H12A 5338   2.350   0.837   6.798  0.8809 -1.7730  2.3989
   66OSM   H12B 5339   2.439   0.829   6.653  0.3185  0.1464 -0.7220
   66OSM    C11 5340   2.497   0.674   6.782  1.2323 -0.8988 -0.1852
   66OSM   H11A 5341   2.458   0.598   6.853 -0.1538 -0.5547 -0.5633
   66OSM   H11B 5342   2.565   0.743   6.837 -2.1659  1.1062  1.8661
   66OSM      P 5343   2.696   0.530   6.700 -0.1262 -0.2880 -0.0166
   66OSM    O13 5344   2.805   0.605   6.637 -1.1435 -0.3796  0.4385
   66OSM    O14 5345   2.704   0.506   6.847  0.1326  0.0209 -0.2774
   66OSM    O11 5346   2.678   0.400   6.619 -0.3346 -0.2813 -0.0410
   66OSM    O12 5347   2.566   0.613   6.671 -0.5978 -0.6688 -0.4601
   66OSM    C1S 5348   2.629   0.403   6.490  0.2921 -0.1057  0.5625
   66OSM    H1S 5349   2.569   0.491   6.461 -0.6083 -0.6154  0.8378
   66OSM    H1T 5350   2.575   0.308   6.468 -1.4473  0.4056  2.4019
   66OSM     NF 5351   2.679   0.403   6.256 -0.2157 -0.1413 -0.4410
   66OSM    HNF 5352   2.668   0.316   6.208  1.4956 -0.0831 -1.0092
   66OSM    C2S 5353   2.739   0.393   6.382 -0.2053  0.4273  0.0868
   66OSM    H2S 5354   2.806   0.481   6.393  0.7323 -0.3828  1.2031
   66OSM    C3S 5355   2.831   0.266   6.401 -0.3026  0.0692 -0.5846
   66OSM    H3S 5356   2.765   0.184   6.365  0.7486 -1.4259  0.6935
   66OSM     O3 5357   2.841   0.228   6.543  0.2226  0.3056  0.0463
   66OSM    HO3 5358   2.767   0.270   6.587 -0.7421  0.8723 -2.0065
   66OSM    C4S 5359   2.963   0.266   6.333 -0.0568 -0.1851 -0.1886
   66OSM    H4S 5360   3.030   0.353   6.348  2.2945 -1.5570 -1.9884
   66OSM    C5S 5361   2.999   0.166   6.254  0.4762 -0.5238  0.4438
   66OSM    H5S 5362   2.929   0.083   6.240  0.0700 -0.0464 -0.3876
   66OSM    C6S 5363   3.121   0.181   6.167  1.0162 -0.3084 -0.1592
   66OSM    H6S 5364   3.188   0.094   6.186  0.1686 -0.9193  0.1078
   66OSM    H6T 5365   3.171   0.279   6.179 -0.9452  1.1245 -2.7187
   66OSM    C7S 5366   3.080   0.179   6.016 -0.6670 -0.3381  0.0196
   66OSM    H7S 5367   3.039   0.278   5.984 -0.3883 -0.5448 -1.0283
   66OSM    H7T 5368   3.011   0.098   5.985 -0.3498 -0.6842  0.2140
   66OSM    C8S 5369   3.212   0.172   5.941  0.3266 -0.4059  0.0567
   66OSM    H8S 5370   3.273   0.082   5.965  0.0492 -0.9057 -1.0605
   66OSM    H8T 5371   3.268   0.262   5.976  1.1015 -0.7894 -0.1641
   66OSM    C9S 5372   3.207   0.172   5.787  0.4293  0.0959  0.1536
   66OSM    H9S 5373   3.119   0.232   5.754 -1.6518 -2.4059  0.8283
   66OSM    H9T 5374   3.180   0.069   5.755 -0.7364  0.1075  1.0411
   66OSM   C10S 5375   3.333   0.223   5.726  0.1216  0.0469 -0.2498
   66OSM   H10S 5376   3.419   0.165   5.767 -0.1659  0.7648  1.4481
   66OSM   H10T 5377   3.344   0.327   5.761  0.7585 -0.5990  1.5616
   66OSM   C11S 5378   3.316   0.204   5.572 -0.1704 -0.3526  0.3699
   66OSM   H11S 5379   3.214   0.242   5.549  0.5778  0.4008 -2.0003
   66OSM   H11T 5380   3.314   0.096   5.546  0.6529 -0.3398  0.2158
   66OSM   C12S 5381   3.422   0.273   5.491  0.0393 -0.3006  0.3702
   66OSM   H12S 5382   3.528   0.252   5.516  1.1606  2.4962 -1.4654
   66OSM   H12T 5383   3.412   0.383   5.505 -0.3676 -0.0964 -1.2450
   66OSM   C13S 5384   3.406   0.248   5.339  0.3277  0.0401 -0.7542
   66OSM   H13S 5385   3.397   0.141   5.313 -1.9870  0.5646 -2.4755
   66OSM   H13T 5386   3.493   0.293   5.286  0.8387  0.7513  0.6345
   66OSM   C14S 5387   3.280   0.320   5.285  0.7205 -0.1426  1.1120
   66OSM   H14S 5388   3.298   0.429   5.296  0.2667  0.2015 -1.0222
   66OSM   H14T 5389   3.188   0.284   5.336  0.5053  0.0437  0.8563
   66OSM   C15S 5390   3.246   0.292   5.132  0.1973  0.1576  0.2296
   66OSM   H15S 5391   3.311   0.365   5.078  0.6915 -0.2873  0.2195
   66OSM   H15T 5392   3.142   0.326   5.109  0.7179  1.1838 -0.7363
   66OSM   C16S 5393   3.265   0.147   5.085  0.3485  0.6402  0.5274
   66OSM   H16S 5394   3.222   0.075   5.157  0.8912  2.5124  2.8700
   66OSM   H16T 5395   3.373   0.122   5.079 -0.5877 -3.7739 -1.7540
   66OSM   C17S 5396   3.202   0.119   4.954 -0.6101 -0.0851 -0.5303
   66OSM   H17S 5397   3.219   0.202   4.882 -2.7137  1.7030  0.9245
   66OSM   H17T 5398   3.093   0.131   4.973 -0.1751  2.9819  0.5793
   66OSM   C18S 5399   3.248  -0.017   4.889 -0.2130 -1.0055 -0.2431
   66OSM   H18S 5400   3.215  -0.015   4.783  0.3871  1.3034 -0.4527
   66OSM   H18T 5401   3.209  -0.105   4.943  1.6631 -2.0267 -0.4649
   66OSM   H18U 5402   3.359  -0.009   4.897 -0.4234  2.0521  1.3936
   66OSM    C1F 5403   2.629   0.511   6.195 -0.2277  0.3544  0.4134
   66OSM     OF 5404   2.620   0.617   6.257 -0.4515 -0.0639  0.3808
   66OSM    C2F 5405   2.592   0.494   6.052  0.7302  0.1054  0.4503
   66OSM    H2F 5406   2.484   0.466   6.051  0.6004  0.5709  1.0018
   66OSM    H2G 5407   2.647   0.412   6.002  0.3019  1.0728 -1.7081
   66OSM    C3F 5408   2.600   0.623   5.970 -0.1111 -0.1671  0.4424
   66OSM    H3F 5409   2.705   0.660   5.976 -0.1069 -0.2875  1.0989
   66OSM    H3G 5410   2.537   0.706   6.009 -1.2377 -1.1094  0.6715
   66OSM    C4F 5411   2.567   0.583   5.824 -0.9527 -0.5670  0.2836
   66OSM    H4F 5412   2.464   0.543   5.833 -0.6689 -1.1392  1.1267
   66OSM    H4G 5413   2.633   0.498   5.797 -1.4368 -1.1711  0.9494
   66OSM    C5F 5414   2.588   0.685   5.707 -0.4885  0.0231  0.3290
   66OSM    H5F 5415   2.694   0.716   5.718 -0.0571 -0.7802 -1.1957
   66OSM    H5G 5416   2.524   0.775   5.718  0.7596  0.8441  1.0263
   66OSM    C6F 5417   2.570   0.610   5.578 -0.1463 -0.5973 -0.2073
   66OSM    H6F 5418   2.466   0.572   5.568 -0.4774  0.6074 -1.8581
   66OSM    H6G 5419   2.634   0.520   5.565 -1.0561 -1.2122 -0.5052
   66OSM    C7F 5420   2.594   0.720   5.467  0.2701  0.6083 -0.1808
   66OSM    H7F 5421   2.687   0.778   5.482 -0.0277  1.0063  0.1547
   66OSM    H7G 5422   2.518   0.801   5.470 -0.4501 -0.0648 -0.0883
   66OSM    C8F 5423   2.606   0.672   5.317  0.4473 -0.0127  0.0529
   66OSM    H8F 5424   2.659   0.574   5.319  1.0050  0.2913  0.3780
   66OSM    H8G 5425   2.680   0.734   5.264  0.1273 -0.9002 -1.4806
   66OSM    C9F 5426   2.471   0.655   5.258 -0.1476  0.0346 -0.4671
   66OSM    H9F 5427   2.406   0.580   5.306  0.2669  0.2746  0.4877
   66OSM   C10F 5428   2.423   0.734   5.159 -0.3463 -0.7330 -1.0219
   66OSM   H10F 5429   2.318   0.723   5.131 -0.8705  1.3995 -0.1060
   66OSM   C11F 5430   2.491   0.853   5.091 -0.2147 -0.0356  0.0753
   66OSM   H11F 5431   2.599   0.824   5.088 -0.8719 -2.7045 -0.9124
   66OSM   H11G 5432   2.467   0.941   5.154 -1.7535 -0.0745 -0.4185
   66OSM   C12F 5433   2.437   0.866   4.952  0.0402 -0.3488  0.7901
   66OSM   H12F 5434   2.336   0.911   4.960  1.0020  2.6063 -1.4766
   66OSM   H12G 5435   2.437   0.767   4.901  1.2131 -0.1865  0.4406
   66OSM   C13F 5436   2.530   0.953   4.859 -0.2533  0.6200 -0.7780
   66OSM   H13F 5437   2.482   0.952   4.759 -1.9518 -1.4554 -0.0200
   66OSM   H13G 5438   2.628   0.902   4.849  0.0653  1.4303 -1.9054
   66OSM   C14F 5439   2.544   1.094   4.918  0.1500 -0.0326  0.0149
   66OSM   H14F 5440   2.623   1.105   4.995  0.3749 -2.2786  0.1823
   66OSM   H14G 5441   2.448   1.130   4.962 -0.5372 -1.4634 -0.2348
   66OSM   C15F 5442   2.568   1.190   4.803 -0.8909  0.1600  0.0105
   66OSM   H15F 5443   2.495   1.178   4.720 -1.0893  2.4198 -0.1814
   66OSM   H15G 5444   2.675   1.167   4.781 -0.3128 -0.1653  2.8069
   66OSM   C16F 5445   2.560   1.334   4.851 -0.0963 -0.3319  0.1606
   66OSM   H16F 5446   2.631   1.366   4.931 -0.2179  1.4616 -0.3956
   66OSM   H16G 5447   2.461   1.331   4.902  0.5468  2.5779  1.8430
   66OSM   C17F 5448   2.567   1.450   4.750  0.6040 -0.1669  1.5591
   66OSM   H17F 5449   2.651   1.436   4.679  0.5181  1.1550  1.1886
   66OSM   H17G 5450   2.578   1.546   4.804 -1.1119 -0.4409  2.4680
   66OSM   C18F 5451   2.439   1.471   4.676  0.7266  0.6621 -0.8770
   66OSM   H18F 5452   2.445   1.559   4.609  2.4441  1.6882  0.5563
   66OSM   H18G 5453   2.358   1.495   4.748 -0.3608 -1.4179 -1.3023
   66OSM   H18H 5454   2.415   1.380   4.616  0.4625 -2.3701  3.3420
   67OSM      N 5455   2.457   3.302   6.323 -0.0583  0.0196 -0.2923
   67OSM    C15 5456   2.544   3.241   6.434  0.4841  0.1012 -0.2143
   67OSM   H15A 5457   2.550   3.322   6.505  0.8152  0.4999 -0.6834
   67OSM   H15B 5458   2.643   3.241   6.390  0.0306  0.2742 -1.2508
   67OSM   H15C 5459   2.508   3.145   6.468 -1.1463 -0.4731 -3.2723
   67OSM    C14 5460   2.418   3.200   6.221  0.5697  0.0357  0.2077
   67OSM   H14A 5461   2.500   3.181   6.154 -1.3158 -0.8499 -1.9897
   67OSM   H14B 5462   2.337   3.231   6.156  0.4886  0.6636  0.6011
   67OSM   H14C 5463   2.382   3.115   6.277  0.4287 -0.4486 -0.6083
   67OSM    C13 5464   2.332   3.353   6.387  0.4063  0.2704 -0.4729
   67OSM   H13A 5465   2.264   3.273   6.412  0.9133 -0.9777 -2.7178
   67OSM   H13B 5466   2.285   3.422   6.318  1.3615  1.1100 -0.3003
   67OSM   H13C 5467   2.344   3.406   6.480 -1.1955  1.6332 -0.9896
   67OSM    C12 5468   2.531   3.422   6.272  0.0215  1.1108  0.1301
   67OSM   H12A 5469   2.539   3.499   6.347  0.7871  0.5631  0.6211
   67OSM   H12B 5470   2.455   3.467   6.209 -0.4180 -0.2781 -0.3845
   67OSM    C11 5471   2.666   3.403   6.195  0.4873 -0.5290 -0.2916
   67OSM   H11A 5472   2.691   3.494   6.136  1.0995 -0.7250 -0.3378
   67OSM   H11B 5473   2.635   3.319   6.129 -1.9088 -1.3765  1.7470
   67OSM      P 5474   2.825   3.461   6.398 -0.4355 -0.2611 -0.0405
   67OSM    O13 5475   2.707   3.514   6.471 -0.0909 -0.1519  0.4414
   67OSM    O14 5476   2.913   3.381   6.480 -0.1343  0.4570  0.1408
   67OSM    O11 5477   2.901   3.579   6.320 -0.7609 -0.7291  0.0450
   67OSM    O12 5478   2.772   3.367   6.279 -0.0294  0.5061  0.2408
   67OSM    C1S 5479   3.029   3.555   6.261 -0.4232  0.0101 -0.3048
   67OSM    H1S 5480   3.087   3.467   6.297 -1.3510 -0.3209  0.3984
   67OSM    H1T 5481   3.097   3.642   6.280 -1.4989  0.4387  1.8999
   67OSM     NF 5482   3.136   3.482   6.037  0.4245 -0.2121 -0.8620
   67OSM    HNF 5483   3.201   3.548   6.000  1.5901 -1.1057 -0.4578
   67OSM    C2S 5484   3.016   3.536   6.104  0.0816 -0.2041 -0.1731
   67OSM    H2S 5485   2.932   3.470   6.073 -0.9949  0.5861  0.9822
   67OSM    C3S 5486   2.972   3.673   6.041  0.3773  0.5832 -0.4453
   67OSM    H3S 5487   3.041   3.751   6.078 -0.1713  1.2780 -0.8761
   67OSM     O3 5488   2.843   3.719   6.085  0.7000 -0.4176  0.0979
   67OSM    HO3 5489   2.817   3.656   6.152 -1.0216 -1.9624 -1.8594
   67OSM    C4S 5490   2.972   3.674   5.892 -0.6922 -0.2655 -0.0263
   67OSM    H4S 5491   3.070   3.706   5.852 -0.1203  1.6985  2.6441
   67OSM    C5S 5492   2.879   3.641   5.803  0.2145  0.1154  0.1129
   67OSM    H5S 5493   2.781   3.609   5.843  0.1541 -0.2358 -0.3002
   67OSM    C6S 5494   2.884   3.632   5.652 -0.0791 -0.2599  0.2019
   67OSM    H6S 5495   2.821   3.545   5.620 -3.1774  1.1360  2.0705
   67OSM    H6T 5496   2.986   3.612   5.612 -0.3733  2.0508 -1.9404
   67OSM    C7S 5497   2.836   3.766   5.584 -0.3690 -0.3867 -0.2563
   67OSM    H7S 5498   2.900   3.855   5.602  0.2784 -0.9730  0.3864
   67OSM    H7T 5499   2.735   3.791   5.624 -0.5514 -0.7657 -0.4754
   67OSM    C8S 5500   2.842   3.750   5.428 -0.3955  0.0121  0.4778
   67OSM    H8S 5501   2.785   3.659   5.399  1.5413 -1.3199  0.6682
   67OSM    H8T 5502   2.949   3.743   5.401 -0.1292  1.7787  0.9870
   67OSM    C9S 5503   2.787   3.876   5.360 -0.0719  0.6665 -0.2529
   67OSM    H9S 5504   2.863   3.956   5.377  1.8486 -0.9508 -0.8677
   67OSM    H9T 5505   2.698   3.906   5.420 -0.8596 -2.1634  0.1132
   67OSM   C10S 5506   2.761   3.854   5.213  0.4540  0.2724 -0.7218
   67OSM   H10S 5507   2.692   3.767   5.204  1.3250 -0.7125  1.5817
   67OSM   H10T 5508   2.860   3.828   5.169  0.5702 -1.9146  0.6731
   67OSM   C11S 5509   2.685   3.973   5.141  0.1986 -0.1356 -0.1032
   67OSM   H11S 5510   2.756   4.057   5.124 -1.0245  0.8460 -0.5279
   67OSM   H11T 5511   2.596   4.004   5.200  0.4703 -1.3913  1.0193
   67OSM   C12S 5512   2.632   3.922   5.005  0.2891 -0.4224  0.1822
   67OSM   H12S 5513   2.572   3.835   5.037 -0.8021  0.6001  0.9894
   67OSM   H12T 5514   2.723   3.877   4.960 -1.1944 -1.2964 -2.1354
   67OSM   C13S 5515   2.553   4.015   4.918  0.3992  0.1557  0.2953
   67OSM   H13S 5516   2.610   4.111   4.912 -0.4818  0.6231 -1.1910
   67OSM   H13T 5517   2.454   4.026   4.967 -0.5842 -4.1848 -0.3646
   67OSM   C14S 5518   2.537   3.948   4.779 -0.2576 -0.0473 -0.7288
   67OSM   H14S 5519   2.513   3.844   4.810  0.0517  0.8090  2.8235
   67OSM   H14T 5520   2.636   3.949   4.728 -0.9104  1.5482 -2.0477
   67OSM   C15S 5521   2.423   3.997   4.691 -0.0091  0.6548  0.4935
   67OSM   H15S 5522   2.328   3.961   4.735 -1.4391  0.8526 -2.2206
   67OSM   H15T 5523   2.422   3.936   4.599  0.8997  1.3194  0.0293
   67OSM   C16S 5524   2.426   4.143   4.669  0.8218  0.2914 -0.0531
   67OSM   H16S 5525   2.482   4.164   4.576  0.5053 -4.5388 -1.5784
   67OSM   H16T 5526   2.483   4.192   4.751  0.8831  1.6628 -0.8807
   67OSM   C17S 5527   2.292   4.218   4.655  0.5859  0.1842  0.1307
   67OSM   H17S 5528   2.317   4.325   4.639  1.4266 -0.1606 -1.0230
   67OSM   H17T 5529   2.244   4.213   4.755 -1.7081  2.1986 -0.7646
   67OSM   C18S 5530   2.193   4.159   4.545 -0.2725 -0.3518 -0.0935
   67OSM   H18S 5531   2.234   4.141   4.444  2.2184  1.2377  0.5448
   67OSM   H18T 5532   2.121   4.242   4.530  0.1492 -0.1618 -1.1684
   67OSM   H18U 5533   2.151   4.064   4.586 -0.4477 -0.2412 -0.0165
   67OSM    C1F 5534   3.186   3.357   6.046 -0.2490 -0.5883 -0.7008
   67OSM     OF 5535   3.125   3.277   6.116 -0.6448  0.6933  0.4088
   67OSM    C2F 5536   3.316   3.331   5.987 -0.8778 -0.9969  0.2660
   67OSM    H2F 5537   3.389   3.328   6.070 -0.7731  1.0326  0.2986
   67OSM    H2G 5538   3.335   3.421   5.924  0.5716 -2.3497 -1.3420
   67OSM    C3F 5539   3.322   3.209   5.897 -0.3288  0.0571  0.3925
   67OSM    H3F 5540   3.285   3.120   5.953 -1.3216  1.3555  1.8796
   67OSM    H3G 5541   3.428   3.212   5.864 -0.1363  1.5924  1.0536
   67OSM    C4F 5542   3.244   3.212   5.763  0.0590  0.5279  0.4032
   67OSM    H4F 5543   3.246   3.315   5.721  0.8780 -0.3375 -1.8183
   67OSM    H4G 5544   3.137   3.183   5.779  0.0681  0.4672  0.3536
   67OSM    C5F 5545   3.306   3.123   5.647 -0.2484 -0.4350  0.3848
   67OSM    H5F 5546   3.288   3.021   5.687 -1.3443 -0.7291 -0.8082
   67OSM    H5G 5547   3.415   3.144   5.655  0.2086 -2.3403 -0.1545
   67OSM    C6F 5548   3.247   3.150   5.509  0.4761 -0.7891  0.0011
   67OSM    H6F 5549   3.250   3.258   5.481  1.3837 -1.3853 -2.4005
   67OSM    H6G 5550   3.139   3.122   5.508  0.7863 -2.0731  0.5957
   67OSM    C7F 5551   3.317   3.064   5.405 -0.0252  0.6311  0.1624
   67OSM    H7F 5552   3.272   2.963   5.407 -0.1835  0.6553 -1.1095
   67OSM    H7G 5553   3.425   3.045   5.424  0.2968 -0.7668 -2.5138
   67OSM    C8F 5554   3.294   3.107   5.259  1.0376  0.1239  0.0311
   67OSM    H8F 5555   3.366   3.050   5.196  0.8780  1.6379 -1.5908
   67OSM    H8G 5556   3.327   3.212   5.245  0.6001 -0.0186 -2.5913
   67OSM    C9F 5557   3.155   3.097   5.197  0.0897 -0.1298  0.7041
   67OSM    H9F 5558   3.090   3.180   5.227 -1.8926 -0.2567 -2.7297
   67OSM   C10F 5559   3.095   3.007   5.115  0.1630  0.2087 -0.2371
   67OSM   H10F 5560   2.992   3.005   5.078 -0.3487 -4.2576  0.8019
   67OSM   C11F 5561   3.168   2.891   5.053 -0.0272 -0.3186  0.7136
   67OSM   H11F 5562   3.122   2.791   5.070 -2.2766  0.7333  1.0811
   67OSM   H11G 5563   3.270   2.878   5.097  0.5970  0.6309 -0.4028
   67OSM   C12F 5564   3.183   2.897   4.896  0.3117 -0.2214  0.1393
   67OSM   H12F 5565   3.086   2.907   4.842  0.3558  0.9441  0.2534
   67OSM   H12G 5566   3.216   2.795   4.866 -1.2347 -0.4850 -0.7771
   67OSM   C13F 5567   3.271   3.015   4.839  0.1810 -0.4145  0.0551
   67OSM   H13F 5568   3.371   3.016   4.886  0.7873  0.1226 -1.1988
   67OSM   H13G 5569   3.220   3.105   4.881  1.1069  0.0011  0.3106
   67OSM   C14F 5570   3.275   3.025   4.691 -0.0698 -0.4712  0.9249
   67OSM   H14F 5571   3.339   3.113   4.669 -0.7980  0.6876  3.1572
   67OSM   H14G 5572   3.176   3.030   4.640  0.8263 -0.0123 -0.8766
   67OSM   C15F 5573   3.329   2.891   4.635  0.8358  0.0164 -0.0946
   67OSM   H15F 5574   3.252   2.812   4.649 -0.1866  1.3975  3.1035
   67OSM   H15G 5575   3.424   2.861   4.684  0.9435  0.9197  0.2711
   67OSM   C16F 5576   3.358   2.897   4.481 -1.1837  0.2254 -0.3177
   67OSM   H16F 5577   3.447   2.962   4.464  0.6708 -1.9006  0.7265
   67OSM   H16G 5578   3.279   2.950   4.424  0.4074  0.8968 -2.0244
   67OSM   C17F 5579   3.402   2.765   4.434  0.5920  0.1462 -0.2713
   67OSM   H17F 5580   3.321   2.692   4.451 -0.1260  1.0327  0.2169
   67OSM   H17G 5581   3.478   2.725   4.504 -2.6136  0.9516  4.0671
   67OSM   C18F 5582   3.439   2.751   4.286  0.1756 -0.3757  0.3535
   67OSM   H18F 5583   3.346   2.741   4.226 -1.0879 -1.9798  2.4302
   67OSM   H18G 5584   3.496   2.657   4.270 -1.2389 -0.8423 -2.6662
   67OSM   H18H 5585   3.493   2.844   4.259  0.5278  0.0002  2.2239
   68OSM      N 5586   1.135   5.927   7.231 -0.6369 -0.0801  0.5106
   68OSM    C15 5587   1.243   5.842   7.292 -0.0353 -0.4140  0.3879
   68OSM   H15A 5588   1.269   5.762   7.224 -0.8620 -1.0307  0.7799
   68OSM   H15B 5589   1.203   5.797   7.382 -1.3446  0.4095  0.2406
   68OSM   H15C 5590   1.329   5.899   7.325 -0.2112 -0.6928  1.3744
   68OSM    C14 5591   1.034   5.831   7.165  0.2256 -0.0965 -0.6799
   68OSM   H14A 5592   1.061   5.784   7.071 -2.2740 -1.3093 -0.8750
   68OSM   H14B 5593   0.945   5.884   7.135  0.0004 -0.9317 -1.5432
   68OSM   H14C 5594   1.001   5.762   7.242 -0.5803 -0.2587 -1.1633
   68OSM    C13 5595   1.063   5.998   7.332  0.0644 -0.2110 -0.6721
   68OSM   H13A 5596   1.003   6.066   7.274 -1.6499 -0.5396  0.6409
   68OSM   H13B 5597   1.122   6.050   7.407 -0.5341  0.1084 -0.4197
   68OSM   H13C 5598   1.002   5.928   7.387  1.4392  0.5318  2.0203
   68OSM    C12 5599   1.192   6.026   7.126 -0.0113 -0.2185 -0.5632
   68OSM   H12A 5600   1.262   5.979   7.058 -0.5172  0.2235 -1.4120
   68OSM   H12B 5601   1.250   6.101   7.179  1.0215 -0.0079 -1.9221
   68OSM    C11 5602   1.088   6.103   7.046 -0.5036  0.1138 -0.3096
   68OSM   H11A 5603   1.031   6.021   6.997  1.0198 -0.8378 -0.5650
   68OSM   H11B 5604   1.149   6.154   6.969  1.4564  0.3626  1.3171
   68OSM      P 5605   1.025   6.351   7.113 -0.2777  0.2304  0.3663
   68OSM    O13 5606   0.910   6.424   7.169  0.0539 -0.0759 -0.3427
   68OSM    O14 5607   1.152   6.384   7.174  0.0553 -0.5238 -0.0288
   68OSM    O11 5608   1.034   6.374   6.962  0.3151 -0.0178 -0.2099
   68OSM    O12 5609   1.007   6.197   7.123 -0.2894  0.7755  0.3164
   68OSM    C1S 5610   1.052   6.500   6.898 -0.2571 -0.4110  0.2033
   68OSM    H1S 5611   1.157   6.534   6.909 -0.9338  1.0090  2.9966
   68OSM    H1T 5612   0.987   6.579   6.941  0.3852  0.6981 -0.7857
   68OSM     NF 5613   1.023   6.610   6.676  0.1752 -0.1039 -0.5142
   68OSM    HNF 5614   0.946   6.672   6.660 -0.9832 -0.4375  2.9066
   68OSM    C2S 5615   0.998   6.486   6.748 -0.3876 -0.5933 -0.8082
   68OSM    H2S 5616   1.050   6.408   6.690  0.5693  1.9350 -3.6025
   68OSM    C3S 5617   0.849   6.436   6.752  1.3848  0.2733 -1.0243
   68OSM    H3S 5618   0.792   6.518   6.801 -0.4019 -1.2632 -0.4009
   68OSM     O3 5619   0.822   6.321   6.827  0.0677 -0.0532  0.2671
   68OSM    HO3 5620   0.902   6.322   6.882  0.7395 -2.1240 -0.5683
   68OSM    C4S 5621   0.786   6.429   6.618  0.0570 -0.0200  0.2096
   68OSM    H4S 5622   0.729   6.519   6.590 -0.6285 -0.4499  0.2156
   68OSM    C5S 5623   0.803   6.338   6.525  0.2163 -0.3543  0.5485
   68OSM    H5S 5624   0.866   6.252   6.550  0.6554 -0.4614 -0.8565
   68OSM    C6S 5625   0.740   6.340   6.383 -0.4289  0.1034 -0.6671
   68OSM    H6S 5626   0.668   6.424   6.369  0.3613  0.5484 -2.2132
   68OSM    H6T 5627   0.663   6.259   6.388 -2.4231  1.9291 -0.0995
   68OSM    C7S 5628   0.838   6.309   6.276 -0.6548  0.1982  0.0658
   68OSM    H7S 5629   0.875   6.205   6.288 -2.0664 -0.3261  0.1133
   68OSM    H7T 5630   0.914   6.388   6.290 -2.1224  1.6461  0.2206
   68OSM    C8S 5631   0.777   6.326   6.138  0.4046 -0.0024 -0.5016
   68OSM    H8S 5632   0.735   6.429   6.139 -2.3941 -0.9317  3.6139
   68OSM    H8T 5633   0.690   6.259   6.119 -1.2385  1.4717  1.3751
   68OSM    C9S 5634   0.871   6.294   6.024  1.0131 -0.2048  0.3113
   68OSM    H9S 5635   0.919   6.194   6.027  1.1091 -0.2157 -1.0277
   68OSM    H9T 5636   0.951   6.371   6.029 -0.1093  1.0239 -0.0123
   68OSM   C10S 5637   0.797   6.316   5.893 -0.3453 -0.1733  0.4635
   68OSM   H10S 5638   0.742   6.413   5.893 -0.9258 -0.4905  1.6247
   68OSM   H10T 5639   0.721   6.235   5.883 -1.6548  0.6203  3.1270
   68OSM   C11S 5640   0.888   6.320   5.767 -0.1587 -0.4307 -0.3376
   68OSM   H11S 5641   0.947   6.226   5.762  0.0935 -0.5167  2.4147
   68OSM   H11T 5642   0.969   6.394   5.786  1.4262 -2.4674  1.3760
   68OSM   C12S 5643   0.826   6.342   5.629  1.0368 -0.0450 -0.0432
   68OSM   H12S 5644   0.758   6.430   5.625 -2.5168 -2.6007 -2.8674
   68OSM   H12T 5645   0.766   6.249   5.615  1.0431  0.1907 -1.8112
   68OSM   C13S 5646   0.927   6.345   5.513  0.1502  0.2211 -0.4798
   68OSM   H13S 5647   0.978   6.246   5.517  0.2040  0.2730  1.2083
   68OSM   H13T 5648   1.003   6.421   5.542 -0.9952  1.9074 -1.7279
   68OSM   C14S 5649   0.846   6.379   5.386 -0.7081 -0.3782  0.4140
   68OSM   H14S 5650   0.836   6.488   5.366 -2.6690 -0.5564  0.1484
   68OSM   H14T 5651   0.740   6.349   5.401 -0.3651 -2.4407 -0.7989
   68OSM   C15S 5652   0.909   6.324   5.259  0.0546 -0.1492 -0.5649
   68OSM   H15S 5653   0.888   6.215   5.263 -3.3287  0.4288  1.3072
   68OSM   H15T 5654   1.016   6.351   5.263  0.3250 -0.7617 -2.3366
   68OSM   C16S 5655   0.840   6.378   5.139  0.1803  0.4733 -0.3087
   68OSM   H16S 5656   0.864   6.486   5.129  0.7835  0.4313  0.5175
   68OSM   H16T 5657   0.731   6.360   5.138  0.2719 -0.2544  0.5650
   68OSM   C17S 5658   0.893   6.319   5.007  0.2439 -0.6290 -0.2572
   68OSM   H17S 5659   0.860   6.213   5.005 -0.7818 -0.3088 -0.8278
   68OSM   H17T 5660   1.004   6.320   5.000  0.3177  2.2967  0.0506
   68OSM   C18S 5661   0.832   6.401   4.892  0.6509  0.1906  0.4407
   68OSM   H18S 5662   0.855   6.509   4.886  0.7603  0.1629  0.3559
   68OSM   H18T 5663   0.721   6.397   4.905  0.8351 -0.4004  1.9871
   68OSM   H18U 5664   0.860   6.353   4.796  0.1262 -0.6062  0.6743
   68OSM    C1F 5665   1.141   6.648   6.637 -0.4168 -0.1103  0.0909
   68OSM     OF 5666   1.235   6.573   6.655 -0.2314  0.0192 -0.3811
   68OSM    C2F 5667   1.159   6.778   6.585 -0.1870  0.3289  0.3101
   68OSM    H2F 5668   1.245   6.823   6.640  2.0447 -2.0071 -1.0688
   68OSM    H2G 5669   1.068   6.841   6.599 -0.7139 -0.5056  0.7905
   68OSM    C3F 5670   1.202   6.779   6.438 -0.4236 -0.4509 -0.0879
   68OSM    H3F 5671   1.304   6.735   6.442 -0.5209 -0.6149  1.6867
   68OSM    H3G 5672   1.211   6.882   6.398 -1.4816 -0.4353 -0.3088
   68OSM    C4F 5673   1.107   6.698   6.356  0.6446 -0.2316  0.6372
   68OSM    H4F 5674   1.009   6.696   6.409 -1.9334  1.3224 -3.5290
   68OSM    H4G 5675   1.146   6.594   6.353 -0.5806 -0.7138  0.8869
   68OSM    C5F 5676   1.082   6.768   6.218 -0.1085 -0.4321  0.0061
   68OSM    H5F 5677   1.078   6.879   6.208  1.2130 -0.5676 -3.0115
   68OSM    H5G 5678   0.981   6.735   6.183  0.1461 -1.6557  0.4010
   68OSM    C6F 5679   1.172   6.708   6.114 -0.2024 -0.6724  0.4594
   68OSM    H6F 5680   1.140   6.603   6.134 -0.1857 -1.2718 -2.3499
   68OSM    H6G 5681   1.274   6.729   6.153 -0.8843  1.2826  1.3046
   68OSM    C7F 5682   1.141   6.773   5.980  0.0733  0.1938  0.0842
   68OSM    H7F 5683   1.225   6.838   5.946  1.2723  0.0214  2.4686
   68OSM    H7G 5684   1.064   6.847   6.007 -0.0165  0.3935 -0.7174
   68OSM    C8F 5685   1.088   6.673   5.881 -0.2202  0.1671 -0.7106
   68OSM    H8F 5686   1.031   6.725   5.801  0.2061 -0.4811 -1.4414
   68OSM    H8G 5687   1.020   6.596   5.924 -1.3376  2.6938  2.4566
   68OSM    C9F 5688   1.211   6.616   5.810  0.4556  0.7934  0.0739
   68OSM    H9F 5689   1.268   6.538   5.862  1.8948  2.1322  0.6199
   68OSM   C10F 5690   1.268   6.664   5.700 -0.1904 -0.7127 -0.3440
   68OSM   H10F 5691   1.357   6.610   5.666 -0.4611 -0.0834 -2.1835
   68OSM   C11F 5692   1.221   6.793   5.630  0.7642 -0.0679  0.8084
   68OSM   H11F 5693   1.314   6.848   5.604  1.6164 -2.1134 -0.7539
   68OSM   H11G 5694   1.160   6.852   5.701 -0.1517  0.6697 -0.5450
   68OSM   C12F 5695   1.134   6.774   5.499  0.4978 -0.0476  0.4195
   68OSM   H12F 5696   1.094   6.874   5.470 -1.5160 -0.8323  0.3319
   68OSM   H12G 5697   1.055   6.701   5.528 -0.5361  0.9449  0.2071
   68OSM   C13F 5698   1.208   6.721   5.378 -0.1737  0.1602 -0.6260
   68OSM   H13F 5699   1.244   6.621   5.411  1.1999  1.2247  1.3012
   68OSM   H13G 5700   1.289   6.785   5.338  1.2065 -2.9026 -3.0842
   68OSM   C14F 5701   1.118   6.681   5.262  0.0400  0.5297  0.1722
   68OSM   H14F 5702   1.018   6.651   5.302 -0.8364  1.7468 -0.9913
   68OSM   H14G 5703   1.142   6.583   5.216 -0.1435  0.7211 -0.3407
   68OSM   C15F 5704   1.103   6.799   5.162  0.0733 -0.0807 -0.5771
   68OSM   H15F 5705   1.206   6.809   5.122  0.6777 -2.2592  0.2328
   68OSM   H15G 5706   1.087   6.895   5.216  0.9819  0.5487 -1.3970
   68OSM   C16F 5707   0.996   6.775   5.047  0.1074 -0.3941  0.3186
   68OSM   H16F 5708   0.890   6.762   5.076 -0.6983  1.0648 -1.7533
   68OSM   H16G 5709   1.037   6.693   4.984 -3.2754 -1.5186 -0.6074
   68OSM   C17F 5710   0.999   6.890   4.954 -0.3789  0.3293 -0.1880
   68OSM   H17F 5711   1.100   6.913   4.915  0.3249 -1.0179  0.7648
   68OSM   H17G 5712   0.961   6.980   5.008  0.1644 -0.0625  0.8622
   68OSM   C18F 5713   0.906   6.863   4.829 -0.5730  0.1897  0.3360
   68OSM   H18F 5714   0.897   6.943   4.753 -1.7916  0.3475  0.6241
   68OSM   H18G 5715   0.805   6.854   4.875  0.8353 -0.1192  3.6961
   68OSM   H18H 5716   0.932   6.769   4.775 -0.2960  0.5204 -0.1190
   69OSM      N 5717   1.490   6.270   6.767 -0.4020  0.1349 -0.1060
   69OSM    C15 5718   1.548   6.289   6.899 -0.3887 -0.0366 -0.4158
   69OSM   H15A 5719   1.520   6.376   6.957 -0.0218 -2.1144  3.1900
   69OSM   H15B 5720   1.656   6.296   6.890 -0.3681 -0.0130 -0.1662
   69OSM   H15C 5721   1.525   6.208   6.968  0.5681  0.4407  0.4928
   69OSM    C14 5722   1.508   6.132   6.713 -0.1314 -0.6495 -0.4404
   69OSM   H14A 5723   1.508   6.069   6.801  2.1402 -0.1941 -0.0492
   69OSM   H14B 5724   1.607   6.120   6.672  0.3881 -2.8008  1.2809
   69OSM   H14C 5725   1.429   6.098   6.648 -1.2155 -1.7473  1.3689
   69OSM    C13 5726   1.339   6.294   6.770 -0.1346 -0.5880 -0.9205
   69OSM   H13A 5727   1.298   6.280   6.671  0.5012 -1.3082 -1.0954
   69OSM   H13B 5728   1.337   6.400   6.793  1.0838 -0.9283  1.0141
   69OSM   H13C 5729   1.287   6.242   6.849 -0.6673 -1.4472 -1.8179
   69OSM    C12 5730   1.550   6.361   6.671  0.7177 -0.6648  0.9417
   69OSM   H12A 5731   1.531   6.463   6.699  1.2359 -0.1868 -0.3730
   69OSM   H12B 5732   1.501   6.355   6.574  1.1016 -0.4722  0.7362
   69OSM    C11 5733   1.702   6.338   6.636  0.0255 -0.4109 -0.1268
   69OSM   H11A 5734   1.733   6.422   6.569  2.6214 -0.2258  1.1817
   69OSM   H11B 5735   1.704   6.248   6.571  2.5761  0.6961 -1.7189
   69OSM      P 5736   1.856   6.468   6.803 -0.0680 -0.1886  0.2045
   69OSM    O13 5737   1.775   6.591   6.781  0.1558  0.4675  0.0959
   69OSM    O14 5738   1.920   6.451   6.934 -0.8317 -0.0466  0.4103
   69OSM    O11 5739   1.970   6.483   6.694  0.2069 -0.0546  0.7762
   69OSM    O12 5740   1.784   6.335   6.754 -0.9899 -0.0617 -0.0426
   69OSM    C1S 5741   2.053   6.371   6.658 -0.3524  0.2496 -0.3428
   69OSM    H1S 5742   2.026   6.276   6.709  0.4929  0.1117 -0.1463
   69OSM    H1T 5743   2.153   6.389   6.702 -0.3660  1.1008 -0.6453
   69OSM     NF 5744   2.139   6.219   6.481  0.1300 -0.5880 -0.3626
   69OSM    HNF 5745   2.239   6.227   6.487 -0.0211  1.4385  0.5146
   69OSM    C2S 5746   2.066   6.339   6.509 -0.3851 -0.1063  0.1054
   69OSM    H2S 5747   1.967   6.342   6.458 -1.1703  0.5245  1.6036
   69OSM    C3S 5748   2.147   6.456   6.452  0.0159  0.2330 -0.0885
   69OSM    H3S 5749   2.256   6.450   6.475 -0.0871 -0.0494  0.3303
   69OSM     O3 5750   2.105   6.586   6.492 -0.2318 -1.5178 -0.5052
   69OSM    HO3 5751   2.039   6.564   6.559  0.7797 -1.7807  0.4305
   69OSM    C4S 5752   2.137   6.462   6.300 -0.0180  0.4658  0.2197
   69OSM    H4S 5753   2.040   6.492   6.257  0.5674  0.1315 -1.4049
   69OSM    C5S 5754   2.224   6.400   6.217  0.3871 -0.9224  0.2866
   69OSM    H5S 5755   2.316   6.354   6.257  0.8324  1.1521  1.8231
   69OSM    C6S 5756   2.213   6.391   6.064  0.6163  0.6177 -0.1438
   69OSM    H6S 5757   2.184   6.288   6.035  0.4142  0.3440  0.9695
   69OSM    H6T 5758   2.314   6.408   6.020  0.6852 -0.3175 -0.3570
   69OSM    C7S 5759   2.112   6.483   5.996  0.3972 -0.3683  0.0549
   69OSM    H7S 5760   2.137   6.588   6.022  0.9618 -0.3296 -0.6142
   69OSM    H7T 5761   2.013   6.479   6.046  0.0724  2.2207 -0.2154
   69OSM    C8S 5762   2.100   6.471   5.840 -0.1030 -0.5314  0.5691
   69OSM    H8S 5763   2.182   6.527   5.792 -0.6637  0.3449  0.6168
   69OSM    H8T 5764   2.014   6.523   5.793  0.5301  0.0044 -0.0040
   69OSM    C9S 5765   2.085   6.332   5.771 -0.4549 -0.1877  0.3449
   69OSM    H9S 5766   1.999   6.273   5.809  2.8025 -4.3191  2.1489
   69OSM    H9T 5767   2.163   6.256   5.796 -0.2381  0.4184  1.5657
   69OSM   C10S 5768   2.104   6.328   5.611  0.0571 -0.0258 -0.1636
   69OSM   H10S 5769   2.077   6.234   5.558  0.6541 -0.6504  0.6101
   69OSM   H10T 5770   2.214   6.338   5.604  0.1599 -1.3067 -0.7444
   69OSM   C11S 5771   2.045   6.450   5.532  0.5071 -0.4897 -0.3630
   69OSM   H11S 5772   2.076   6.545   5.581  0.3033 -0.4124 -0.3818
   69OSM   H11T 5773   1.934   6.443   5.532  0.5496 -1.3326 -1.0524
   69OSM   C12S 5774   2.094   6.468   5.389 -0.3722 -0.0291  0.7457
   69OSM   H12S 5775   2.203   6.482   5.401 -0.3773 -0.0410  0.8095
   69OSM   H12T 5776   2.040   6.552   5.341 -1.7942 -1.1716  0.2711
   69OSM   C13S 5777   2.073   6.333   5.306 -0.0278 -0.5795 -0.2932
   69OSM   H13S 5778   1.963   6.324   5.295 -0.6737  2.2749  2.2454
   69OSM   H13T 5779   2.115   6.247   5.361 -2.0088  0.4642  3.1679
   69OSM   C14S 5780   2.120   6.344   5.158  0.1709 -0.0533 -0.0822
   69OSM   H14S 5781   2.085   6.257   5.098 -1.3243  0.0830  0.5621
   69OSM   H14T 5782   2.231   6.343   5.156  0.1864  0.8323 -0.5289
   69OSM   C15S 5783   2.059   6.470   5.089  0.8691  0.3634 -0.3365
   69OSM   H15S 5784   2.114   6.560   5.126 -0.2174  1.3591 -1.0739
   69OSM   H15T 5785   1.953   6.476   5.119  0.9810 -0.1294  0.1805
   69OSM   C16S 5786   2.078   6.456   4.938 -0.1711  0.3013 -0.6564
   69OSM   H16S 5787   2.031   6.359   4.908 -0.0338  0.1415 -0.3542
   69OSM   H16T 5788   2.186   6.453   4.914 -0.2433  1.6819 -1.2480
   69OSM   C17S 5789   2.016   6.568   4.858 -0.4103 -0.2016  0.3148
   69OSM   H17S 5790   2.065   6.663   4.889 -2.0331  0.3178  1.3909
   69OSM   H17T 5791   1.913   6.567   4.899  0.8898 -0.6806  3.9077
   69OSM   C18S 5792   2.019   6.541   4.707  0.1837  0.1233 -0.1956
   69OSM   H18S 5793   1.989   6.634   4.655  0.5776  0.0720 -0.5145
   69OSM   H18T 5794   1.963   6.449   4.680  0.3808  0.0989 -0.5279
   69OSM   H18U 5795   2.118   6.531   4.659  0.3425 -0.3791  0.2268
   69OSM    C1F 5796   2.081   6.098   6.491 -0.2648 -0.1171  0.4447
   69OSM     OF 5797   1.957   6.093   6.497 -0.1008 -0.3878 -1.0562
   69OSM    C2F 5798   2.168   5.982   6.503  0.4862  0.4676 -0.0216
   69OSM    H2F 5799   2.122   5.906   6.570  4.1619 -0.3604  1.8579
   69OSM    H2G 5800   2.259   6.009   6.562 -0.1940  1.7987  0.4509
   69OSM    C3F 5801   2.208   5.923   6.366  0.4012  0.2638 -0.0589
   69OSM    H3F 5802   2.306   5.872   6.376 -1.0178 -2.3413  1.9313
   69OSM    H3G 5803   2.211   6.000   6.286 -1.2025  0.6688  0.2205
   69OSM    C4F 5804   2.116   5.795   6.334 -0.4443 -0.3024 -0.7025
   69OSM    H4F 5805   2.013   5.834   6.326  0.7446  3.6875  0.8768
   69OSM    H4G 5806   2.131   5.715   6.409  0.5693 -0.3785 -0.9615
   69OSM    C5F 5807   2.157   5.734   6.197  0.4711 -0.1051  0.1918
   69OSM    H5F 5808   2.095   5.643   6.189 -1.2646  0.6790  3.1378
   69OSM    H5G 5809   2.263   5.705   6.215  0.2688 -0.3060  1.0893
   69OSM    C6F 5810   2.139   5.828   6.081  0.2091  0.4207  0.5257
   69OSM    H6F 5811   2.208   5.914   6.093  1.7473 -0.4511 -1.5066
   69OSM    H6G 5812   2.033   5.862   6.081 -1.4033 -3.9409  2.2888
   69OSM    C7F 5813   2.163   5.758   5.944  0.1319  0.4302  0.1554
   69OSM    H7F 5814   2.101   5.669   5.924  2.4337 -1.1199 -0.5114
   69OSM    H7G 5815   2.269   5.727   5.957 -0.3945 -2.9082 -2.3862
   69OSM    C8F 5816   2.169   5.854   5.820  0.7947  0.1779  0.9695
   69OSM    H8F 5817   2.273   5.886   5.796  0.6829  0.2405  0.5661
   69OSM    H8G 5818   2.109   5.946   5.836  0.5145  0.4193 -1.1856
   69OSM    C9F 5819   2.119   5.770   5.698  0.2565  0.6382 -0.4015
   69OSM    H9F 5820   2.071   5.676   5.729 -0.4092  1.6317  1.8298
   69OSM   C10F 5821   2.107   5.823   5.574 -0.0069  0.7668 -0.5278
   69OSM   H10F 5822   2.052   5.761   5.503  2.2630 -2.1622  0.0973
   69OSM   C11F 5823   2.156   5.955   5.529  0.9142 -0.0586 -0.0722
   69OSM   H11F 5824   2.216   6.012   5.604  0.5698 -0.5888  0.6253
   69OSM   H11G 5825   2.071   6.026   5.518  0.7182 -0.3412 -0.4166
   69OSM   C12F 5826   2.221   5.952   5.392 -0.2474 -0.0691 -0.5015
   69OSM   H12F 5827   2.308   5.883   5.403  1.2269  1.3878 -2.4463
   69OSM   H12G 5828   2.275   6.048   5.377  0.6442 -0.4598  0.0820
   69OSM   C13F 5829   2.120   5.928   5.274  0.0451  1.2445 -0.5383
   69OSM   H13F 5830   2.029   5.990   5.294 -0.3883  0.4870 -0.1320
   69OSM   H13G 5831   2.096   5.821   5.286  0.2779  1.0651 -1.5645
   69OSM   C14F 5832   2.184   5.971   5.137  0.7581 -1.5238 -0.2528
   69OSM   H14F 5833   2.248   5.895   5.086  2.3466 -0.3090 -0.1445
   69OSM   H14G 5834   2.239   6.066   5.150 -1.2393  0.0003 -2.0638
   69OSM   C15F 5835   2.061   5.995   5.038  0.5976  0.1051  0.6465
   69OSM   H15F 5836   1.976   6.051   5.082  1.0936  0.9684  0.5272
   69OSM   H15G 5837   2.030   5.890   5.020  1.7592 -0.2629  0.6907
   69OSM   C16F 5838   2.109   6.054   4.907  0.7594 -0.0452  0.5749
   69OSM   H16F 5839   2.189   5.991   4.863 -0.1043  1.2788 -3.3711
   69OSM   H16G 5840   2.160   6.152   4.924 -0.6843  0.5935  1.3907
   69OSM   C17F 5841   2.003   6.068   4.797 -0.4426 -0.1335 -0.0345
   69OSM   H17F 5842   2.062   6.100   4.708  2.0609  0.9526  1.8989
   69OSM   H17G 5843   1.925   6.141   4.826 -1.0144 -0.1530 -1.4402
   69OSM   C18F 5844   1.945   5.929   4.761  0.0654  0.6408 -0.1843
   69OSM   H18F 5845   1.895   5.892   4.854  1.1182 -2.4337 -0.7292
   69OSM   H18G 5846   2.024   5.856   4.734 -1.6734 -1.5533  0.3415
   69OSM   H18H 5847   1.873   5.927   4.677 -1.3877 -0.4152  1.0122
   70OSM      N 5848   6.013   6.346   6.455  0.0370  0.3221  1.0981
   70OSM    C15 5849   6.031   6.271   6.585  0.3964 -0.6929 -0.0112
   70OSM   H15A 5850   6.113   6.204   6.565  1.1142 -0.1534  0.9938
   70OSM   H15B 5851   5.944   6.210   6.605 -0.8342  1.3183  1.1861
   70OSM   H15C 5852   6.053   6.335   6.670 -1.0267 -0.7615  0.4290
   70OSM    C14 5853   6.005   6.250   6.341  0.0969  0.2222  0.1402
   70OSM   H14A 5854   5.987   6.310   6.253  2.0495  2.1424  0.9596
   70OSM   H14B 5855   5.920   6.184   6.346 -2.3241  2.9485 -1.4571
   70OSM   H14C 5856   6.097   6.196   6.322 -0.2814  0.0101 -1.2182
   70OSM    C13 5857   5.890   6.421   6.453  0.0968  0.2746  0.0543
   70OSM   H13A 5858   5.886   6.506   6.520  0.0211 -0.0487  0.4661
   70OSM   H13B 5859   5.803   6.361   6.473  0.0667 -0.0184 -0.9351
   70OSM   H13C 5860   5.866   6.465   6.357 -1.6605  0.5845  0.5985
   70OSM    C12 5861   6.124   6.448   6.426  0.4578  0.3385 -0.1096
   70OSM   H12A 5862   6.131   6.523   6.503 -0.6626  0.8321 -0.4691
   70OSM   H12B 5863   6.087   6.493   6.335 -1.6586  1.1897  1.0931
   70OSM    C11 5864   6.268   6.390   6.424 -0.2149  0.4057 -0.6388
   70OSM   H11A 5865   6.335   6.473   6.394  2.2112 -0.1703  2.5813
   70OSM   H11B 5866   6.265   6.320   6.338 -0.5460  0.2033 -0.4632
   70OSM      P 5867   6.372   6.186   6.543 -0.2537 -0.0422  0.3229
   70OSM    O13 5868   6.427   6.144   6.674  0.0854 -0.3370 -0.3915
   70OSM    O14 5869   6.265   6.101   6.489  0.2066  0.4297  0.1819
   70OSM    O11 5870   6.487   6.182   6.435 -0.0881 -0.5750  0.5587
   70OSM    O12 5871   6.326   6.337   6.548  0.8955  0.3922  0.3196
   70OSM    C1S 5872   6.597   6.277   6.427 -0.9363 -0.7821 -0.1373
   70OSM    H1S 5873   6.666   6.248   6.510  0.0570  0.6713 -0.4117
   70OSM    H1T 5874   6.568   6.382   6.447 -3.2851 -1.4073 -0.0296
   70OSM     NF 5875   6.792   6.364   6.304  0.6765 -0.0821  0.4397
   70OSM    HNF 5876   6.788   6.459   6.273  0.2184  1.2228  4.0547
   70OSM    C2S 5877   6.675   6.283   6.296 -0.4132  0.0720  0.1586
   70OSM    H2S 5878   6.716   6.181   6.282  1.4202  0.7444  0.3060
   70OSM    C3S 5879   6.570   6.319   6.185  0.3468 -0.4905 -0.1562
   70OSM    H3S 5880   6.512   6.406   6.221 -0.7217 -0.9451 -0.7360
   70OSM     O3 5881   6.462   6.227   6.170 -0.0054 -0.3454  0.0830
   70OSM    HO3 5882   6.462   6.183   6.254  2.1110  1.8961  1.3852
   70OSM    C4S 5883   6.626   6.330   6.047 -0.4421  0.6827  0.2416
   70OSM    H4S 5884   6.690   6.247   6.014  3.1914  3.6144 -0.7816
   70OSM    C5S 5885   6.602   6.434   5.971 -0.5065 -0.2438 -0.3873
   70OSM    H5S 5886   6.543   6.523   5.999 -0.8803 -0.0046 -1.8767
   70OSM    C6S 5887   6.659   6.456   5.826  0.1974  0.2795 -0.1021
   70OSM    H6S 5888   6.739   6.533   5.823  0.6918 -0.2360 -0.3086
   70OSM    H6T 5889   6.578   6.489   5.759  1.2715 -0.4023 -1.7907
   70OSM    C7S 5890   6.720   6.339   5.750  0.2369 -0.5738 -0.0434
   70OSM    H7S 5891   6.642   6.259   5.749  1.9195 -2.3470  1.1765
   70OSM    H7T 5892   6.810   6.288   5.791  0.1782  0.8766  2.0089
   70OSM    C8S 5893   6.750   6.381   5.605 -0.3474 -0.0292 -0.6835
   70OSM    H8S 5894   6.851   6.425   5.620  0.1319 -0.5089 -2.2539
   70OSM    H8T 5895   6.675   6.453   5.567 -0.9173 -0.3987 -0.2866
   70OSM    C9S 5896   6.764   6.266   5.504 -0.4445  0.1058 -0.1962
   70OSM    H9S 5897   6.671   6.206   5.519  0.7806 -1.7208  0.5028
   70OSM    H9T 5898   6.843   6.199   5.544  0.9501  0.7185 -1.8161
   70OSM   C10S 5899   6.805   6.310   5.359  0.1945  0.2612 -0.0814
   70OSM   H10S 5900   6.816   6.214   5.304 -0.8143  0.4509 -0.6475
   70OSM   H10T 5901   6.905   6.358   5.355  0.9246 -1.1845  0.0548
   70OSM   C11S 5902   6.703   6.403   5.286  0.3425 -0.1228 -0.5487
   70OSM   H11S 5903   6.693   6.496   5.347 -0.5470 -1.1823  1.0199
   70OSM   H11T 5904   6.608   6.345   5.288  1.1942 -1.5619  0.9938
   70OSM   C12S 5905   6.745   6.428   5.141  0.2501 -0.4433  0.1494
   70OSM   H12S 5906   6.778   6.349   5.071  0.1968  0.3195 -0.7643
   70OSM   H12T 5907   6.835   6.493   5.153 -0.0547 -0.0855  0.5281
   70OSM   C13S 5908   6.633   6.513   5.067 -0.2518  0.2731 -0.6250
   70OSM   H13S 5909   6.606   6.606   5.122  0.4264  0.2411 -0.2292
   70OSM   H13T 5910   6.536   6.459   5.068  1.0521 -2.2178  0.9391
   70OSM   C14S 5911   6.667   6.556   4.925 -0.3187  0.1394  0.2102
   70OSM   H14S 5912   6.581   6.600   4.870  0.2142 -1.7055 -2.2810
   70OSM   H14T 5913   6.695   6.471   4.859  0.9800  0.5819  0.1737
   70OSM   C15S 5914   6.802   6.636   4.906  0.7052 -0.1272 -0.3589
   70OSM   H15S 5915   6.893   6.599   4.957  0.9082  0.6186 -0.1656
   70OSM   H15T 5916   6.788   6.728   4.967  0.4683 -0.5439  0.2358
   70OSM   C16S 5917   6.828   6.677   4.766 -0.1754  0.0969 -0.1159
   70OSM   H16S 5918   6.797   6.597   4.696  1.2194 -0.6204  0.0429
   70OSM   H16T 5919   6.939   6.689   4.757 -0.1387 -0.2193 -0.1098
   70OSM   C17S 5920   6.767   6.815   4.740 -0.0130  0.3291 -0.0721
   70OSM   H17S 5921   6.803   6.883   4.820  0.8444  0.2148 -0.3451
   70OSM   H17T 5922   6.657   6.813   4.754 -0.1786  0.1783 -1.2639
   70OSM   C18S 5923   6.811   6.885   4.607  0.4098  0.7828 -0.2061
   70OSM   H18S 5924   6.752   6.978   4.590 -0.0562  0.4353 -0.5080
   70OSM   H18T 5925   6.812   6.811   4.525  1.5620 -0.2858  0.7315
   70OSM   H18U 5926   6.910   6.928   4.631  0.3182  0.6082  0.5088
   70OSM    C1F 5927   6.900   6.322   6.378  0.2996 -0.4991  0.7991
   70OSM     OF 5928   6.898   6.218   6.435  0.2361  0.4646 -0.2920
   70OSM    C2F 5929   7.018   6.425   6.402  0.3060 -0.2896 -0.0865
   70OSM    H2F 5930   7.045   6.435   6.509 -0.0430 -0.6411  0.0344
   70OSM    H2G 5931   6.990   6.526   6.364 -1.6184 -1.8925 -3.3933
   70OSM    C3F 5932   7.148   6.374   6.340 -0.3881 -0.2118  0.4440
   70OSM    H3F 5933   7.146   6.264   6.324 -1.8402  0.1394 -2.4762
   70OSM    H3G 5934   7.227   6.403   6.413 -0.3839  2.0318 -0.3618
   70OSM    C4F 5935   7.191   6.430   6.206  0.3922 -0.0084  0.1339
   70OSM    H4F 5936   7.299   6.409   6.193  0.7288  0.7596  1.4512
   70OSM    H4G 5937   7.181   6.540   6.199 -3.0436  0.0701  2.9297
   70OSM    C5F 5938   7.120   6.370   6.084  0.6575 -0.9694 -0.7118
   70OSM    H5F 5939   7.023   6.421   6.073  1.3883  1.3965  2.3560
   70OSM    H5G 5940   7.107   6.261   6.104  1.0186 -1.1471 -1.3932
   70OSM    C6F 5941   7.201   6.379   5.959  0.5583 -0.1167 -0.4359
   70OSM    H6F 5942   7.278   6.299   5.963  0.9129  0.1278 -1.8207
   70OSM    H6G 5943   7.254   6.477   5.958 -1.3782  0.9862 -0.7708
   70OSM    C7F 5944   7.110   6.363   5.836 -0.1701 -0.2919  0.4132
   70OSM    H7F 5945   7.026   6.435   5.850 -0.2218 -0.7913  3.1585
   70OSM    H7G 5946   7.066   6.261   5.831 -1.1997  0.0422  1.9609
   70OSM    C8F 5947   7.174   6.397   5.700 -0.1913 -0.5486  0.3289
   70OSM    H8F 5948   7.210   6.503   5.701  2.9687 -1.5077 -0.2017
   70OSM    H8G 5949   7.092   6.395   5.626  0.6896  0.5896 -0.7165
   70OSM    C9F 5950   7.289   6.303   5.662  0.2554 -0.6541 -0.0505
   70OSM    H9F 5951   7.342   6.265   5.750  1.4616  1.8469  0.3707
   70OSM   C10F 5952   7.300   6.249   5.538  0.1770 -0.1324  0.3057
   70OSM   H10F 5953   7.386   6.184   5.515 -0.7650 -1.2067 -0.2784
   70OSM   C11F 5954   7.210   6.286   5.420  0.2718 -0.5654 -0.5661
   70OSM   H11F 5955   7.208   6.397   5.412 -1.6343 -0.4426  0.8302
   70OSM   H11G 5956   7.109   6.249   5.449  1.1091 -0.4855  2.9247
   70OSM   C12F 5957   7.257   6.228   5.290 -0.1927 -0.2285 -0.7711
   70OSM   H12F 5958   7.228   6.121   5.297  0.6162 -0.3453  1.4221
   70OSM   H12G 5959   7.367   6.236   5.274  0.1313 -1.1108  0.8623
   70OSM   C13F 5960   7.178   6.287   5.171  0.3224 -0.0271  0.0860
   70OSM   H13F 5961   7.190   6.397   5.181  0.6990  0.1838 -2.1264
   70OSM   H13G 5962   7.073   6.254   5.189  0.6050  0.9567  5.0660
   70OSM   C14F 5963   7.214   6.224   5.039 -0.0980 -0.6715 -0.1191
   70OSM   H14F 5964   7.181   6.118   5.041 -0.6648 -0.5200 -0.8797
   70OSM   H14G 5965   7.323   6.229   5.015 -0.3403  1.7494 -0.9515
   70OSM   C15F 5966   7.138   6.299   4.926  0.5140  0.3774 -0.0648
   70OSM   H15F 5967   7.178   6.402   4.924  1.8727 -0.1068  0.8368
   70OSM   H15G 5968   7.033   6.311   4.960  0.4006  0.2713 -0.3698
   70OSM   C16F 5969   7.146   6.233   4.789  0.0120 -0.0820 -0.3576
   70OSM   H16F 5970   7.066   6.157   4.790 -0.7899  0.7166  1.7514
   70OSM   H16G 5971   7.246   6.185   4.797 -0.6911 -1.5270  0.0924
   70OSM   C17F 5972   7.151   6.325   4.660 -0.0244  0.2421  0.7511
   70OSM   H17F 5973   7.179   6.261   4.573 -0.1587  1.0539  0.1050
   70OSM   H17G 5974   7.232   6.400   4.661 -0.0528  0.3715 -1.4524
   70OSM   C18F 5975   7.020   6.398   4.637  0.2851 -0.1404  0.1470
   70OSM   H18F 5976   6.998   6.460   4.727 -1.3276 -1.0339  0.3898
   70OSM   H18G 5977   6.933   6.335   4.609  0.6265 -0.0752 -1.1397
   70OSM   H18H 5978   7.030   6.457   4.543  0.4981 -1.5376 -0.7367
   71OSM      N 5979   5.448   1.257   6.608 -0.0799 -0.5060 -0.3448
   71OSM    C15 5980   5.418   1.350   6.726  0.3262 -0.2012 -0.5505
   71OSM   H15A 5981   5.473   1.313   6.812  0.6689 -0.8615 -1.0422
   71OSM   H15B 5982   5.314   1.362   6.754  0.8872  0.1559  1.5792
   71OSM   H15C 5983   5.444   1.450   6.697  0.0313 -0.2591 -1.0170
   71OSM    C14 5984   5.380   1.126   6.648  1.0886 -0.1871  0.6005
   71OSM   H14A 5985   5.399   1.047   6.578  1.7270 -0.0876  0.6491
   71OSM   H14B 5986   5.275   1.152   6.650  1.4951  1.5635  2.2882
   71OSM   H14C 5987   5.404   1.103   6.751 -1.2590 -1.1119  0.9960
   71OSM    C13 5988   5.380   1.310   6.478 -0.4293  0.2648 -0.4932
   71OSM   H13A 5989   5.273   1.300   6.487 -0.2109 -1.6426  0.4428
   71OSM   H13B 5990   5.402   1.247   6.393  1.6670 -0.0172  0.1983
   71OSM   H13C 5991   5.401   1.415   6.459  0.0503  0.4840  1.0866
   71OSM    C12 5992   5.599   1.234   6.594 -0.1482  0.2941  0.1936
   71OSM   H12A 5993   5.641   1.218   6.693 -1.6624 -0.0400  0.8185
   71OSM   H12B 5994   5.645   1.321   6.549 -0.8133 -0.5074 -2.1893
   71OSM    C11 5995   5.649   1.116   6.504 -0.1413 -0.2352 -0.3837
   71OSM   H11A 5996   5.757   1.127   6.481  0.0678  0.7141  0.9381
   71OSM   H11B 5997   5.589   1.121   6.411 -0.7400  1.1915  0.0531
   71OSM      P 5998   5.696   0.941   6.699  0.3375 -0.3907  0.3728
   71OSM    O13 5999   5.741   1.058   6.771 -0.1567 -0.2825 -0.1195
   71OSM    O14 6000   5.622   0.838   6.775  0.3009  0.2917 -0.7894
   71OSM    O11 6001   5.830   0.873   6.637 -0.5905 -0.0813 -0.2913
   71OSM    O12 6002   5.617   0.997   6.575 -0.5028  0.4820  0.3762
   71OSM    C1S 6003   5.816   0.745   6.565 -0.4859 -0.3228 -0.7310
   71OSM    H1S 6004   5.749   0.677   6.622 -0.5004 -0.6016 -1.0762
   71OSM    H1T 6005   5.916   0.696   6.571 -0.2696  0.2297  0.3049
   71OSM     NF 6006   5.763   0.610   6.375  0.1825  0.1238  0.0708
   71OSM    HNF 6007   5.839   0.564   6.330 -0.9599 -1.2684 -0.5019
   71OSM    C2S 6008   5.784   0.745   6.420 -0.4345  0.1956 -0.0362
   71OSM    H2S 6009   5.692   0.802   6.394 -1.0548 -1.3626 -1.5108
   71OSM    C3S 6010   5.899   0.825   6.350 -0.2272 -0.1390 -0.2196
   71OSM    H3S 6011   5.993   0.766   6.364 -0.9304 -0.8811  1.7225
   71OSM     O3 6012   5.933   0.949   6.410 -0.5324  0.2408  0.4487
   71OSM    HO3 6013   5.903   0.952   6.501 -1.0169  1.9936  0.2772
   71OSM    C4S 6014   5.877   0.834   6.201 -0.0405  0.0544  0.3418
   71OSM    H4S 6015   5.932   0.756   6.147 -1.1441  0.4023 -1.3740
   71OSM    C5S 6016   5.822   0.938   6.132  0.5179 -0.4959 -1.0156
   71OSM    H5S 6017   5.786   1.026   6.188  0.4586  0.3180 -2.2921
   71OSM    C6S 6018   5.805   0.956   5.984  0.0686 -0.3366  0.2728
   71OSM    H6S 6019   5.847   1.052   5.947 -2.7664  0.7711 -0.3622
   71OSM    H6T 6020   5.697   0.978   5.967 -0.0896 -2.3283 -1.7474
   71OSM    C7S 6021   5.829   0.836   5.886  0.0149  0.5786  0.3341
   71OSM    H7S 6022   5.785   0.738   5.915  0.9087 -0.4750 -1.6816
   71OSM    H7T 6023   5.939   0.825   5.881  0.0610  0.6027  1.1795
   71OSM    C8S 6024   5.767   0.864   5.747  0.1465  0.1820  0.1113
   71OSM    H8S 6025   5.672   0.922   5.747  0.3110  0.4765 -1.1396
   71OSM    H8T 6026   5.740   0.772   5.692  1.1335  0.2247 -0.4611
   71OSM    C9S 6027   5.870   0.923   5.655 -0.1306  0.2128  0.2400
   71OSM    H9S 6028   5.956   0.853   5.662  0.4633  1.0898  2.8407
   71OSM    H9T 6029   5.913   1.021   5.687  3.6483 -0.9760 -0.7077
   71OSM   C10S 6030   5.822   0.944   5.515 -0.1251  0.2614  0.1092
   71OSM   H10S 6031   5.727   1.002   5.528 -0.9848 -1.3517  1.4270
   71OSM   H10T 6032   5.800   0.846   5.468  2.5391 -1.6980  2.6335
   71OSM   C11S 6033   5.916   1.036   5.427 -0.6719  0.1686 -0.8463
   71OSM   H11S 6034   6.014   0.983   5.435 -1.2740 -0.8620 -0.1282
   71OSM   H11T 6035   5.938   1.138   5.465 -0.1562 -0.4571  0.6071
   71OSM   C12S 6036   5.867   1.055   5.288 -0.5248  0.1321  0.4995
   71OSM   H12S 6037   5.851   0.960   5.234  1.7330  0.1282 -0.2605
   71OSM   H12T 6038   5.940   1.099   5.217 -1.3158 -0.1290 -0.4912
   71OSM   C13S 6039   5.736   1.115   5.267 -0.2140 -0.6846  0.6577
   71OSM   H13S 6040   5.724   1.209   5.325  0.2992  0.2567 -0.7249
   71OSM   H13T 6041   5.663   1.049   5.319 -1.9641  0.0683 -0.7495
   71OSM   C14S 6042   5.680   1.135   5.126  0.7969  0.3263 -0.0113
   71OSM   H14S 6043   5.738   1.197   5.054 -1.7954  0.6749 -1.9622
   71OSM   H14T 6044   5.590   1.197   5.147 -0.7714 -1.7684 -0.1326
   71OSM   C15S 6045   5.623   1.013   5.051 -1.0175 -0.1720  0.1477
   71OSM   H15S 6046   5.517   0.998   5.082 -0.6270 -1.6064  0.8776
   71OSM   H15T 6047   5.692   0.928   5.071  0.6031  1.5345  2.3592
   71OSM   C16S 6048   5.627   1.054   4.909  0.2439 -1.2095 -0.4968
   71OSM   H16S 6049   5.731   1.074   4.877  0.6879  1.4645  2.1699
   71OSM   H16T 6050   5.573   1.151   4.908  0.9266 -0.8245 -0.5765
   71OSM   C17S 6051   5.570   0.942   4.817 -0.3207  0.5350 -0.2191
   71OSM   H17S 6052   5.461   0.925   4.806 -0.1703  0.0238 -1.0285
   71OSM   H17T 6053   5.598   0.838   4.845 -1.5108  0.2883  0.1244
   71OSM   C18S 6054   5.626   0.976   4.675 -1.0305  0.0001 -0.2650
   71OSM   H18S 6055   5.586   1.073   4.638  0.2007  0.9212  0.6946
   71OSM   H18T 6056   5.594   0.893   4.610  1.7791  0.6573 -2.7384
   71OSM   H18U 6057   5.737   0.975   4.668 -0.8853 -0.3697  1.5509
   71OSM    C1F 6058   5.653   0.544   6.394 -0.0940  0.2641  0.0927
   71OSM     OF 6059   5.554   0.592   6.451 -0.2260  0.4502 -0.3466
   71OSM    C2F 6060   5.657   0.398   6.350  0.0431 -0.7276  0.2333
   71OSM    H2F 6061   5.632   0.335   6.439  3.1313 -0.5403  1.3476
   71OSM    H2G 6062   5.761   0.371   6.323  0.2709  0.4856 -0.1309
   71OSM    C3F 6063   5.552   0.367   6.235  0.4247 -0.6873 -0.2944
   71OSM    H3F 6064   5.447   0.372   6.272  1.0211  0.3494  1.4312
   71OSM    H3G 6065   5.573   0.267   6.193 -2.0251 -0.9422 -1.0395
   71OSM    C4F 6066   5.572   0.466   6.118  0.2213  0.2984  0.2479
   71OSM    H4F 6067   5.682   0.481   6.102  0.0117  0.2043 -1.4928
   71OSM    H4G 6068   5.513   0.558   6.137 -1.6195 -0.1442 -2.6826
   71OSM    C5F 6069   5.516   0.414   5.986  0.1821  0.1979 -0.2409
   71OSM    H5F 6070   5.409   0.428   6.012  0.1232 -2.0831  1.0424
   71OSM    H5G 6071   5.536   0.305   5.977  1.3192  0.4191 -0.4903
   71OSM    C6F 6072   5.564   0.498   5.871  0.5009  0.3010 -0.4389
   71OSM    H6F 6073   5.675   0.507   5.871  0.4646  0.7953 -0.6716
   71OSM    H6G 6074   5.517   0.599   5.874  2.3444  1.2366 -1.4875
   71OSM    C7F 6075   5.540   0.417   5.740  0.4471  0.5051  0.4770
   71OSM    H7F 6076   5.436   0.384   5.721  1.2170 -2.6461  1.2553
   71OSM    H7G 6077   5.589   0.317   5.746  1.0801  0.7945  0.2610
   71OSM    C8F 6078   5.604   0.472   5.615  0.1852  0.5483  0.3148
   71OSM    H8F 6079   5.697   0.515   5.657  1.0543 -1.6275  0.7521
   71OSM    H8G 6080   5.534   0.553   5.584 -1.5842 -0.4090  1.6337
   71OSM    C9F 6081   5.645   0.375   5.506 -0.0903  1.1633  0.8027
   71OSM    H9F 6082   5.720   0.297   5.528  1.3931  2.3831  0.2973
   71OSM   C10F 6083   5.586   0.366   5.387 -0.2388 -0.2614  0.3792
   71OSM   H10F 6084   5.634   0.303   5.311  1.1312  0.6562  0.4418
   71OSM   C11F 6085   5.468   0.450   5.331 -0.3510  0.0888 -0.8823
   71OSM   H11F 6086   5.434   0.526   5.405  0.1005  0.3574 -0.9532
   71OSM   H11G 6087   5.380   0.387   5.307  0.9961 -1.6442 -1.4579
   71OSM   C12F 6088   5.481   0.518   5.200  0.2225 -0.6458 -0.0197
   71OSM   H12F 6089   5.558   0.598   5.206 -0.1808 -0.0124 -2.4122
   71OSM   H12G 6090   5.387   0.574   5.182  0.4661 -1.0344 -3.1474
   71OSM   C13F 6091   5.515   0.441   5.075  0.5018 -0.0988  0.0855
   71OSM   H13F 6092   5.428   0.386   5.034  2.4791 -2.5562 -1.0513
   71OSM   H13G 6093   5.597   0.367   5.088 -0.6602 -1.8231 -1.8619
   71OSM   C14F 6094   5.565   0.535   4.966 -1.1810  0.4473 -0.2288
   71OSM   H14F 6095   5.655   0.584   5.009 -1.3836 -1.6093  2.7944
   71OSM   H14G 6096   5.481   0.602   4.938  0.6888  2.6720 -0.8277
   71OSM   C15F 6097   5.608   0.458   4.841 -1.0133  0.3004  0.6550
   71OSM   H15F 6098   5.529   0.402   4.787  0.4922  1.1647 -2.6968
   71OSM   H15G 6099   5.689   0.393   4.880 -0.9593  0.0532  0.1325
   71OSM   C16F 6100   5.655   0.558   4.742 -0.3940 -0.2314 -0.1035
   71OSM   H16F 6101   5.736   0.628   4.771 -0.4202  0.1396 -0.8957
   71OSM   H16G 6102   5.574   0.628   4.711 -1.1604 -0.6185  0.9522
   71OSM   C17F 6103   5.720   0.497   4.613 -0.4492 -0.3293  0.5284
   71OSM   H17F 6104   5.652   0.414   4.584  0.2403 -0.9237  0.6007
   71OSM   H17G 6105   5.818   0.451   4.637 -0.8523 -0.8869  1.1760
   71OSM   C18F 6106   5.736   0.611   4.508 -0.1532  1.1704  0.0158
   71OSM   H18F 6107   5.786   0.703   4.545  0.4751  0.5641  0.6995
   71OSM   H18G 6108   5.627   0.629   4.489 -0.4494  1.2161  1.6120
   71OSM   H18H 6109   5.790   0.584   4.415  2.1926  0.7074  1.4258
   72OSM      N 6110   0.150   6.521   6.990 -0.5763  0.4292 -0.0388
   72OSM    C15 6111   0.098   6.660   7.013  0.2738  0.0160  0.0235
   72OSM   H15A 6112   0.085   6.716   6.921 -1.2087  2.2185  1.4710
   72OSM   H15B 6113   0.155   6.724   7.078  1.2248 -0.9270  0.1535
   72OSM   H15C 6114  -0.001   6.660   7.056  0.1075 -0.8745 -0.3406
   72OSM    C14 6115   0.296   6.528   6.953 -0.5763 -0.3632  0.4035
   72OSM   H14A 6116   0.357   6.574   7.029 -1.4351 -0.3536  1.1118
   72OSM   H14B 6117   0.306   6.584   6.861 -0.3898 -0.9307  0.0766
   72OSM   H14C 6118   0.347   6.433   6.947 -0.3079 -0.2060  0.1424
   72OSM    C13 6119   0.143   6.434   7.113 -0.1019  1.3198 -0.6038
   72OSM   H13A 6120   0.198   6.479   7.194 -0.3585 -0.7685  0.8045
   72OSM   H13B 6121   0.171   6.331   7.095 -0.4411  1.4213 -1.8501
   72OSM   H13C 6122   0.045   6.423   7.156 -0.3718 -0.0868 -1.4966
   72OSM    C12 6123   0.070   6.448   6.885  0.4513 -0.4505  0.3931
   72OSM   H12A 6124  -0.032   6.449   6.922 -0.3896  1.5152 -1.7180
   72OSM   H12B 6125   0.094   6.343   6.892 -1.2495 -0.7693  2.4298
   72OSM    C11 6126   0.058   6.512   6.742 -0.3598  1.2122 -0.1831
   72OSM   H11A 6127   0.003   6.444   6.674 -0.4151  1.0945 -0.0229
   72OSM   H11B 6128   0.164   6.521   6.711 -0.1205  0.6532  0.4560
   72OSM      P 6129  -0.158   6.659   6.753 -0.0430 -0.1553 -0.1315
   72OSM    O13 6130  -0.209   6.547   6.841 -0.6267 -0.1402 -0.8525
   72OSM    O14 6131  -0.194   6.793   6.798 -0.4723  0.0086  0.1357
   72OSM    O11 6132  -0.210   6.642   6.609 -0.0720  0.1329 -0.5212
   72OSM    O12 6133  -0.001   6.647   6.746 -0.5059  0.2112  0.7902
   72OSM    C1S 6134  -0.146   6.704   6.500  0.2442 -0.2943 -0.8562
   72OSM    H1S 6135  -0.058   6.640   6.476 -1.8192 -3.9480  0.4773
   72OSM    H1T 6136  -0.103   6.804   6.521 -1.9349  0.2811  1.2981
   72OSM     NF 6137  -0.166   6.790   6.272 -0.2407  0.0789  1.1603
   72OSM    HNF 6138  -0.188   6.887   6.266 -1.2309 -0.1792  0.3611
   72OSM    C2S 6139  -0.239   6.727   6.380  0.3577 -0.3827 -0.0765
   72OSM    H2S 6140  -0.259   6.624   6.343  0.6502 -0.7232  0.6978
   72OSM    C3S 6141  -0.380   6.783   6.428  0.0504 -0.8169  1.1193
   72OSM    H3S 6142  -0.367   6.875   6.488 -0.4520  0.9716 -1.3444
   72OSM     O3 6143  -0.453   6.697   6.511 -0.4015 -0.1851 -0.8243
   72OSM    HO3 6144  -0.389   6.638   6.551  1.4230  1.2275 -1.5086
   72OSM    C4S 6145  -0.460   6.802   6.305 -0.1015 -0.4683 -0.7864
   72OSM    H4S 6146  -0.490   6.709   6.254  0.6113 -0.6156 -0.9534
   72OSM    C5S 6147  -0.514   6.921   6.258 -0.1124  0.1918  0.4698
   72OSM    H5S 6148  -0.488   7.009   6.318  1.7254  0.8209 -1.1358
   72OSM    C6S 6149  -0.608   6.925   6.133 -0.1028 -0.2965 -0.5939
   72OSM    H6S 6150  -0.596   6.832   6.074 -0.1193 -1.2863  0.9287
   72OSM    H6T 6151  -0.596   7.016   6.070  1.3211  0.6648  0.9851
   72OSM    C7S 6152  -0.761   6.924   6.168 -0.4546  0.5856 -1.4297
   72OSM    H7S 6153  -0.791   7.008   6.233 -0.0081 -0.6911  0.5052
   72OSM    H7T 6154  -0.786   6.836   6.230 -2.2088  0.8197 -1.7627
   72OSM    C8S 6155  -0.854   6.928   6.049 -0.4078  0.1106  0.1010
   72OSM    H8S 6156  -0.849   7.023   5.993 -0.9783 -1.1179 -2.1594
   72OSM    H8T 6157  -0.962   6.924   6.074 -1.4958 -0.8695 -3.9841
   72OSM    C9S 6158  -0.829   6.809   5.953  0.9786  0.9929 -0.2558
   72OSM    H9S 6159  -0.889   6.719   5.979  1.6450  0.1371 -1.5991
   72OSM    H9T 6160  -0.728   6.764   5.960  0.2190 -1.3130 -2.4376
   72OSM   C10S 6161  -0.863   6.839   5.808  0.5336 -0.2681 -0.3293
   72OSM   H10S 6162  -0.780   6.909   5.786 -0.0134  0.8104  0.8803
   72OSM   H10T 6163  -0.961   6.887   5.789  0.2852 -0.4916  0.3230
   72OSM   C11S 6164  -0.859   6.709   5.729 -0.2004  0.6863 -0.0944
   72OSM   H11S 6165  -0.928   6.637   5.778  0.4544  0.9445  1.2682
   72OSM   H11T 6166  -0.764   6.656   5.753 -2.9446 -4.2058  1.5146
   72OSM   C12S 6167  -0.867   6.718   5.572 -0.3160  0.2179  0.1881
   72OSM   H12S 6168  -0.883   6.612   5.543  1.4499 -0.2941  0.9168
   72OSM   H12T 6169  -0.774   6.747   5.519  0.4514 -3.3384 -0.7035
   72OSM   C13S 6170  -0.986   6.802   5.513 -0.3718  0.1459  0.1523
   72OSM   H13S 6171  -0.978   6.911   5.530  2.1200  0.0542 -0.1227
   72OSM   H13T 6172  -1.061   6.751   5.578  2.1738 -1.1634  2.2685
   72OSM   C14S 6173  -1.022   6.781   5.360 -0.6250 -0.0052  0.5533
   72OSM   H14S 6174  -1.127   6.815   5.351 -1.0585 -0.9744  1.6342
   72OSM   H14T 6175  -1.018   6.673   5.337  1.4584  0.1911 -0.2171
   72OSM   C15S 6176  -0.931   6.860   5.262 -0.1565 -0.5991 -0.4187
   72OSM   H15S 6177  -0.833   6.809   5.271 -0.3302 -0.9607 -0.5493
   72OSM   H15T 6178  -0.923   6.965   5.297 -0.3552 -1.0678  1.1200
   72OSM   C16S 6179  -0.996   6.843   5.120  0.6131  0.0814  0.0417
   72OSM   H16S 6180  -1.082   6.913   5.111  0.7464  0.3450  0.7687
   72OSM   H16T 6181  -1.038   6.741   5.115 -1.6471  0.9212  0.7841
   72OSM   C17S 6182  -0.899   6.876   5.005 -0.1107  0.2100  0.4663
   72OSM   H17S 6183  -0.823   6.796   4.995  1.2497  1.6835 -2.1452
   72OSM   H17T 6184  -0.843   6.967   5.036 -1.2575  0.2159  2.6973
   72OSM   C18S 6185  -0.965   6.889   4.863 -0.2877 -0.7814 -0.5763
   72OSM   H18S 6186  -1.040   6.970   4.879  0.0691 -0.4234 -0.7032
   72OSM   H18T 6187  -1.015   6.791   4.847 -0.2562 -0.9815  0.4801
   72OSM   H18U 6188  -0.885   6.916   4.791  0.1103  2.5626  0.9066
   72OSM    C1F 6189  -0.065   6.737   6.209 -0.2113 -0.9861 -0.5271
   72OSM     OF 6190  -0.033   6.620   6.224 -0.0777  0.5011 -0.8019
   72OSM    C2F 6191   0.008   6.830   6.118 -0.3191 -0.0124 -0.2679
   72OSM    H2F 6192   0.069   6.901   6.178  0.2877  1.1518 -2.1521
   72OSM    H2G 6193  -0.057   6.893   6.053  2.8027  2.5744 -1.1671
   72OSM    C3F 6194   0.106   6.745   6.031 -0.4018  0.5698 -0.9513
   72OSM    H3F 6195   0.047   6.656   5.998 -0.1605 -0.2714  0.7738
   72OSM    H3G 6196   0.198   6.713   6.084  0.4992  1.7630 -1.7414
   72OSM    C4F 6197   0.160   6.833   5.917  0.3136  0.6889 -0.1934
   72OSM    H4F 6198   0.210   6.916   5.970 -1.1130 -0.2885  2.8898
   72OSM    H4G 6199   0.077   6.869   5.852  0.0736 -2.1886 -1.6375
   72OSM    C5F 6200   0.256   6.744   5.836  0.2655  0.2761  0.3514
   72OSM    H5F 6201   0.209   6.644   5.825 -0.6205  0.8442 -1.4776
   72OSM    H5G 6202   0.352   6.742   5.891  0.5100  0.2624 -0.0753
   72OSM    C6F 6203   0.283   6.795   5.692 -0.2853 -0.6587 -0.0331
   72OSM    H6F 6204   0.383   6.751   5.670  0.2709  1.1941 -1.4510
   72OSM    H6G 6205   0.288   6.906   5.679 -0.1154 -0.5424  0.9109
   72OSM    C7F 6206   0.182   6.736   5.592 -0.5149  0.1913  0.8576
   72OSM    H7F 6207   0.089   6.798   5.584 -0.1396  0.7953  1.1022
   72OSM    H7G 6208   0.154   6.632   5.620 -1.8428  0.2907  0.0180
   72OSM    C8F 6209   0.243   6.748   5.454 -0.3538 -0.1917 -0.4742
   72OSM    H8F 6210   0.335   6.686   5.446  1.2367  2.1312 -0.8342
   72OSM    H8G 6211   0.287   6.849   5.441 -0.7575  0.2485  1.3318
   72OSM    C9F 6212   0.139   6.708   5.350 -0.6396 -0.4322  0.1840
   72OSM    H9F 6213   0.084   6.616   5.374  0.4923 -1.2483 -0.2427
   72OSM   C10F 6214   0.114   6.785   5.236 -0.8154  0.6589  0.3023
   72OSM   H10F 6215   0.037   6.753   5.164  0.5142 -2.0382 -0.0396
   72OSM   C11F 6216   0.192   6.910   5.193  0.4449  0.5882  0.0737
   72OSM   H11F 6217   0.276   6.883   5.124 -0.2253  1.1067 -0.9738
   72OSM   H11G 6218   0.224   6.967   5.283 -0.6990  2.5720 -0.7217
   72OSM   C12F 6219   0.090   7.003   5.115 -0.7418 -0.4735  0.4461
   72OSM   H12F 6220  -0.001   7.034   5.171  0.2956  1.1164  1.3364
   72OSM   H12G 6221   0.063   6.952   5.020  1.0467  2.6737 -1.9666
   72OSM   C13F 6222   0.158   7.123   5.048 -0.6109  0.2994  0.3311
   72OSM   H13F 6223   0.206   7.196   5.117  0.3534  1.1824 -1.2164
   72OSM   H13G 6224   0.080   7.182   4.994  0.3033  0.2037 -1.1355
   72OSM   C14F 6225   0.259   7.076   4.951  0.1133 -0.3050 -0.1686
   72OSM   H14F 6226   0.211   6.993   4.894 -1.0198  0.4486 -0.3586
   72OSM   H14G 6227   0.345   7.037   5.009 -0.0731 -0.1078  0.2463
   72OSM   C15F 6228   0.306   7.181   4.855  0.1915  0.4877  0.6784
   72OSM   H15F 6229   0.382   7.132   4.790 -1.7226 -0.6532 -0.7843
   72OSM   H15G 6230   0.357   7.264   4.908 -1.0388 -0.2146  3.1263
   72OSM   C16F 6231   0.199   7.230   4.751 -0.5336 -0.5687 -0.8266
   72OSM   H16F 6232   0.119   7.283   4.807  0.7448  1.3786 -0.7067
   72OSM   H16G 6233   0.155   7.136   4.713  0.6697 -1.3339 -0.3672
   72OSM   C17F 6234   0.266   7.318   4.643 -0.0588  0.3028  0.5679
   72OSM   H17F 6235   0.202   7.335   4.554  1.7772 -0.1821 -0.9168
   72OSM   H17G 6236   0.344   7.253   4.598  0.3631  1.3528 -0.2843
   72OSM   C18F 6237   0.329   7.450   4.694  0.3388 -0.1453 -0.0004
   72OSM   H18F 6238   0.372   7.512   4.613  0.7293 -0.2290  0.1407
   72OSM   H18G 6239   0.412   7.429   4.765 -1.3761 -0.7324  1.9542
   72OSM   H18H 6240   0.258   7.504   4.760  2.7022  0.0495  2.5647
   73OSM      N 6241   4.395   3.807   6.703  0.2006  0.1143 -0.3850
   73OSM    C15 6242   4.518   3.718   6.717  0.8980  0.2323 -0.0738
   73OSM   H15A 6243   4.594   3.728   6.641  2.0183 -0.4863  0.9118
   73OSM   H15B 6244   4.478   3.618   6.714 -0.5953  0.8201 -0.9273
   73OSM   H15C 6245   4.574   3.734   6.808 -0.3957  1.7446  0.5088
   73OSM    C14 6246   4.300   3.763   6.806  0.0639  0.3415  0.0554
   73OSM   H14A 6247   4.197   3.776   6.774  0.2720 -0.5070 -1.0350
   73OSM   H14B 6248   4.321   3.808   6.901 -1.0097 -0.9834  0.9550
   73OSM   H14C 6249   4.313   3.656   6.817 -0.0000 -0.0367 -2.6358
   73OSM    C13 6250   4.440   3.942   6.746 -0.5761  0.5254  0.8589
   73OSM   H13A 6251   4.534   3.968   6.700  0.5889 -2.3886  1.3489
   73OSM   H13B 6252   4.445   3.952   6.854  1.5600  5.0311  0.5663
   73OSM   H13C 6253   4.360   4.008   6.719 -0.9072 -0.2990 -0.2425
   73OSM    C12 6254   4.338   3.800   6.560 -0.2054 -1.2264 -0.0570
   73OSM   H12A 6255   4.412   3.826   6.485 -2.5860  2.1414 -1.5054
   73OSM   H12B 6256   4.264   3.879   6.556 -0.2058 -1.0408  2.3056
   73OSM    C11 6257   4.257   3.681   6.521  0.1388  0.4385  0.1342
   73OSM   H11A 6258   4.225   3.694   6.415  0.6506 -1.3174 -0.2733
   73OSM   H11B 6259   4.164   3.672   6.581  0.7319 -3.0024  0.7640
   73OSM      P 6260   4.419   3.487   6.433 -0.0397  0.5006  0.1966
   73OSM    O13 6261   4.539   3.439   6.509  0.6298  0.2391  0.1161
   73OSM    O14 6262   4.340   3.389   6.360  0.0169  0.7129 -0.1460
   73OSM    O11 6263   4.470   3.609   6.340  0.3717  0.6690 -0.4054
   73OSM    O12 6264   4.330   3.559   6.539  0.1940  0.2879 -0.6674
   73OSM    C1S 6265   4.577   3.591   6.249 -0.2412  0.5040 -0.2953
   73OSM    H1S 6266   4.563   3.503   6.183 -0.0929  0.6520 -0.5234
   73OSM    H1T 6267   4.669   3.571   6.308 -1.0259 -0.2370  0.7372
   73OSM     NF 6268   4.676   3.678   6.034  0.1298  0.6269  0.4605
   73OSM    HNF 6269   4.767   3.717   6.037  0.8970 -0.9107 -1.2331
   73OSM    C2S 6270   4.593   3.708   6.147  0.4443 -0.1434  0.5057
   73OSM    H2S 6271   4.487   3.727   6.122  0.7658  0.4254 -0.5069
   73OSM    C3S 6272   4.637   3.835   6.226 -0.4900  0.2354 -0.1940
   73OSM    H3S 6273   4.742   3.815   6.257 -0.1000 -1.1339 -2.1914
   73OSM     O3 6274   4.555   3.863   6.338 -0.5678 -0.1859 -0.2222
   73OSM    HO3 6275   4.513   3.778   6.352  2.6808 -1.8180  0.8007
   73OSM    C4S 6276   4.632   3.952   6.136 -0.4133 -0.0697  0.0551
   73OSM    H4S 6277   4.537   4.007   6.144 -0.9182 -0.7585 -0.9366
   73OSM    C5S 6278   4.723   4.012   6.061 -0.1700  0.1566 -0.7897
   73OSM    H5S 6279   4.827   3.985   6.086 -0.5324  0.2293  0.9261
   73OSM    C6S 6280   4.705   4.134   5.972  0.5172 -0.6459  0.3929
   73OSM    H6S 6281   4.719   4.100   5.867  1.5449  0.1454  0.2631
   73OSM    H6T 6282   4.792   4.199   5.995 -1.0443  2.3626 -1.5672
   73OSM    C7S 6283   4.571   4.201   6.000  0.1149 -0.3125  0.2729
   73OSM    H7S 6284   4.573   4.235   6.106  1.3180  2.8674 -0.6528
   73OSM    H7T 6285   4.487   4.130   5.983  0.1456  0.0653 -1.5950
   73OSM    C8S 6286   4.533   4.319   5.907  0.3402  0.8149 -0.1730
   73OSM    H8S 6287   4.594   4.405   5.942  1.8369 -0.3008  0.0637
   73OSM    H8T 6288   4.427   4.348   5.926  0.0156 -0.5273  0.2005
   73OSM    C9S 6289   4.559   4.291   5.751  0.3275  1.0177  0.2138
   73OSM    H9S 6290   4.556   4.180   5.742  0.4703  1.0556 -0.4054
   73OSM    H9T 6291   4.657   4.328   5.712  0.7153 -0.7240 -0.6165
   73OSM   C10S 6292   4.455   4.348   5.662  0.3363 -0.3891 -0.3331
   73OSM   H10S 6293   4.352   4.351   5.702  0.4756 -1.8712  0.1987
   73OSM   H10T 6294   4.461   4.294   5.565 -0.9183 -0.3622 -0.4323
   73OSM   C11S 6295   4.472   4.498   5.632 -0.3646 -0.2666  0.3712
   73OSM   H11S 6296   4.571   4.513   5.582  0.3592 -0.4735  1.6885
   73OSM   H11T 6297   4.481   4.532   5.738 -0.1748 -2.6975  1.1979
   73OSM   C12S 6298   4.360   4.570   5.552  0.1306 -0.1717 -0.5498
   73OSM   H12S 6299   4.397   4.675   5.543 -0.5541 -0.0604 -2.7536
   73OSM   H12T 6300   4.271   4.572   5.620  0.4001 -1.7270 -0.1280
   73OSM   C13S 6301   4.330   4.511   5.417  0.1673  0.2993  1.0918
   73OSM   H13S 6302   4.236   4.554   5.378  1.9735  1.2455 -2.7266
   73OSM   H13T 6303   4.329   4.402   5.437  0.2094 -0.3087 -1.8496
   73OSM   C14S 6304   4.443   4.542   5.306  0.3722  0.0125  0.1212
   73OSM   H14S 6305   4.539   4.519   5.356  0.7013 -2.0791 -1.3448
   73OSM   H14T 6306   4.439   4.652   5.287 -3.3843  0.1389  0.9105
   73OSM   C15S 6307   4.426   4.460   5.179 -1.0725  0.1049 -0.7121
   73OSM   H15S 6308   4.411   4.353   5.204 -2.0169  0.2513 -0.6075
   73OSM   H15T 6309   4.520   4.472   5.121 -0.7398 -0.1725 -0.2408
   73OSM   C16S 6310   4.295   4.499   5.104 -0.0237  0.8611 -0.1928
   73OSM   H16S 6311   4.307   4.599   5.058  1.2606  1.4678  1.3702
   73OSM   H16T 6312   4.211   4.511   5.177 -1.5539  1.8229 -2.0076
   73OSM   C17S 6313   4.260   4.406   4.984 -0.1867  0.3876  0.6099
   73OSM   H17S 6314   4.251   4.301   5.018  2.6387 -0.1685 -0.1154
   73OSM   H17T 6315   4.347   4.415   4.916 -0.3499 -1.8135  0.0317
   73OSM   C18S 6316   4.129   4.456   4.910 -0.5099 -0.4872 -0.4840
   73OSM   H18S 6317   4.142   4.557   4.867 -1.5438  0.6936  1.8432
   73OSM   H18T 6318   4.053   4.448   4.990  1.1647  1.8474  1.4470
   73OSM   H18U 6319   4.109   4.386   4.825  1.3742  0.5678 -1.8644
   73OSM    C1F 6320   4.639   3.591   5.941  0.3095  0.3801 -0.1288
   73OSM     OF 6321   4.538   3.517   5.947 -0.1830  0.6790 -0.1691
   73OSM    C2F 6322   4.748   3.565   5.842 -1.1295 -0.3519 -0.5961
   73OSM    H2F 6323   4.783   3.462   5.866 -1.1203 -0.2730 -0.2691
   73OSM    H2G 6324   4.829   3.637   5.864 -0.2894 -1.6768  0.9024
   73OSM    C3F 6325   4.692   3.574   5.698  0.0237  0.6122  0.5741
   73OSM    H3F 6326   4.596   3.517   5.695 -0.3193  1.2271 -0.6663
   73OSM    H3G 6327   4.753   3.510   5.631 -2.3928 -1.1501 -0.0792
   73OSM    C4F 6328   4.671   3.716   5.648  0.1891 -0.8298 -0.1990
   73OSM    H4F 6329   4.759   3.766   5.602 -1.0124  0.1704 -1.5129
   73OSM    H4G 6330   4.627   3.778   5.729  1.3388  0.3438 -0.4162
   73OSM    C5F 6331   4.557   3.717   5.538 -0.2119 -0.1390  0.6569
   73OSM    H5F 6332   4.470   3.665   5.585 -1.1683  0.3165 -0.5601
   73OSM    H5G 6333   4.580   3.662   5.444 -2.1011  0.6449 -0.3286
   73OSM    C6F 6334   4.523   3.858   5.491  0.5150 -0.6492  0.2574
   73OSM    H6F 6335   4.600   3.930   5.455 -2.5320  3.3203  1.1071
   73OSM    H6G 6336   4.487   3.909   5.582 -1.1235 -0.8870 -0.2267
   73OSM    C7F 6337   4.410   3.860   5.390 -0.3420  0.0067 -0.0313
   73OSM    H7F 6338   4.324   3.813   5.443 -0.1933  1.4898  1.6099
   73OSM    H7G 6339   4.448   3.804   5.301 -1.2630  0.7630 -0.9128
   73OSM    C8F 6340   4.365   4.007   5.343 -0.1467  0.5912 -0.5511
   73OSM    H8F 6341   4.458   4.053   5.306 -0.3239 -0.2822 -2.1688
   73OSM    H8G 6342   4.348   4.064   5.437 -0.2329  2.3203 -1.5821
   73OSM    C9F 6343   4.246   4.020   5.251 -1.0508  0.1529  0.2068
   73OSM    H9F 6344   4.147   4.021   5.298 -1.6956  0.7048 -1.1267
   73OSM   C10F 6345   4.244   4.050   5.120  0.1391 -0.1435 -0.9754
   73OSM   H10F 6346   4.149   4.060   5.067 -0.3013 -0.2273 -0.2089
   73OSM   C11F 6347   4.364   4.055   5.033  0.0612  0.3764  0.1398
   73OSM   H11F 6348   4.442   3.997   5.085  0.3020  0.9658  0.4495
   73OSM   H11G 6349   4.390   4.163   5.026 -1.1499  0.6743  0.0310
   73OSM   C12F 6350   4.347   3.992   4.890 -0.3555 -0.3188 -1.1738
   73OSM   H12F 6351   4.298   3.893   4.906  1.6883 -1.1430  0.3814
   73OSM   H12G 6352   4.448   3.975   4.847  1.7767 -0.1259  3.1849
   73OSM   C13F 6353   4.264   4.068   4.780 -0.0957 -0.4102 -0.2620
   73OSM   H13F 6354   4.310   4.163   4.744 -1.4650 -0.4233 -2.2494
   73OSM   H13G 6355   4.174   4.104   4.835  0.3905  1.0574 -0.3831
   73OSM   C14F 6356   4.209   3.974   4.672 -0.2912  0.1461 -0.3317
   73OSM   H14F 6357   4.122   3.920   4.715 -0.4065  1.4519  1.1295
   73OSM   H14G 6358   4.288   3.900   4.646 -0.8521 -1.7566  2.9004
   73OSM   C15F 6359   4.154   4.056   4.548  0.0258 -0.5793  0.2427
   73OSM   H15F 6360   4.094   3.994   4.476  1.2020  0.5151 -1.7617
   73OSM   H15G 6361   4.239   4.103   4.495  0.1804  0.2713  1.2306
   73OSM   C16F 6362   4.050   4.161   4.591  0.1269 -0.3473 -0.4856
   73OSM   H16F 6363   4.094   4.256   4.629  2.4734 -1.3524 -0.5217
   73OSM   H16G 6364   3.975   4.121   4.661 -1.1467 -0.3301 -1.8047
   73OSM   C17F 6365   3.957   4.192   4.472  0.0679  0.5073  0.4434
   73OSM   H17F 6366   3.914   4.096   4.437 -0.9820  1.5062 -1.1098
   73OSM   H17G 6367   4.009   4.233   4.383 -0.1266 -2.1092 -0.9969
   73OSM   C18F 6368   3.837   4.278   4.513  0.3042  0.6654  0.2913
   73OSM   H18F 6369   3.781   4.322   4.428 -1.8877  1.2949  1.9430
   73OSM   H18G 6370   3.859   4.354   4.592 -0.1799  1.1349 -0.0159
   73OSM   H18H 6371   3.763   4.208   4.557  2.0430 -1.4106  0.0612
   74OSM      N 6372   2.941   3.860   6.585  0.2307 -0.1472  0.2564
   74OSM    C15 6373   3.033   3.789   6.491 -0.0528  0.4010  0.0405
   74OSM   H15A 6374   3.107   3.860   6.456 -1.8912  1.1727 -2.5430
   74OSM   H15B 6375   2.986   3.756   6.400 -0.1731  0.6280  0.0192
   74OSM   H15C 6376   3.091   3.710   6.536  1.1015  1.0509 -0.2341
   74OSM    C14 6377   2.827   3.766   6.615 -0.0281  0.2693 -0.2581
   74OSM   H14A 6378   2.744   3.819   6.660  0.1471 -1.1585  1.9213
   74OSM   H14B 6379   2.867   3.701   6.691  1.7171  2.1065  0.5137
   74OSM   H14C 6380   2.782   3.715   6.532 -3.8566  3.5577 -0.5026
   74OSM    C13 6381   3.023   3.878   6.717  0.1835  0.3424 -0.3405
   74OSM   H13A 6382   3.118   3.925   6.698  0.4636 -1.4654 -4.1832
   74OSM   H13B 6383   3.040   3.781   6.760 -2.1154  1.1711  2.8879
   74OSM   H13C 6384   2.963   3.932   6.789 -1.6729 -1.7695 -0.2166
   74OSM    C12 6385   2.892   3.992   6.529 -0.2597 -0.3984  0.0097
   74OSM   H12A 6386   2.851   3.971   6.431  0.4442 -0.8226 -0.2019
   74OSM   H12B 6387   2.981   4.051   6.513 -0.4800 -0.4689 -1.6176
   74OSM    C11 6388   2.798   4.077   6.619 -0.2874  0.6376  0.5626
   74OSM   H11A 6389   2.781   4.175   6.569 -0.2287 -0.1743 -1.1127
   74OSM   H11B 6390   2.853   4.100   6.713  1.6736 -1.5200  0.0397
   74OSM      P 6391   2.570   3.998   6.521 -0.3496  0.1031  0.0130
   74OSM    O13 6392   2.526   3.856   6.526  0.6179 -0.3377 -0.5441
   74OSM    O14 6393   2.466   4.096   6.535 -0.2710 -0.0758  0.0520
   74OSM    O11 6394   2.655   4.024   6.395 -0.4767  0.4089  0.1424
   74OSM    O12 6395   2.672   4.012   6.646  0.4243  0.0311  0.2848
   74OSM    C1S 6396   2.667   3.921   6.294  0.5541 -0.4233 -0.4159
   74OSM    H1S 6397   2.589   3.843   6.304  2.6428 -2.5161  0.3364
   74OSM    H1T 6398   2.756   3.856   6.309  0.2350 -0.6639  0.5258
   74OSM     NF 6399   2.616   3.883   6.065  0.1319 -0.1026  0.0349
   74OSM    HNF 6400   2.696   3.830   6.037  1.5483  1.8325  0.1648
   74OSM    C2S 6401   2.662   3.987   6.160  0.2321  0.2408  0.5930
   74OSM    H2S 6402   2.585   4.067   6.167 -0.9590 -0.8033 -0.2163
   74OSM    C3S 6403   2.797   4.061   6.126 -0.5209 -0.0132  0.3223
   74OSM    H3S 6404   2.882   3.990   6.120  0.0420  0.7411 -0.9520
   74OSM     O3 6405   2.835   4.154   6.230  0.1521  0.4853 -0.0718
   74OSM    HO3 6406   2.773   4.122   6.296  1.0217 -0.9619  0.0948
   74OSM    C4S 6407   2.778   4.121   5.982 -0.0983  0.4264  0.1166
   74OSM    H4S 6408   2.808   4.057   5.898  2.2680 -0.5987  1.6243
   74OSM    C5S 6409   2.746   4.247   5.949  0.1024  0.7879 -0.0540
   74OSM    H5S 6410   2.731   4.318   6.032  1.2330  1.0812 -0.0874
   74OSM    C6S 6411   2.721   4.306   5.810  0.1090  0.2729 -0.5631
   74OSM    H6S 6412   2.784   4.394   5.785 -0.7733  0.7228 -1.2789
   74OSM    H6T 6413   2.617   4.347   5.807  0.9940  2.6317 -1.2060
   74OSM    C7S 6414   2.735   4.208   5.688 -0.7371 -0.2517 -0.0359
   74OSM    H7S 6415   2.673   4.118   5.706  2.5041 -2.1859  2.6554
   74OSM    H7T 6416   2.838   4.167   5.692 -1.0379 -0.9167  2.7659
   74OSM    C8S 6417   2.685   4.268   5.559  0.2728 -0.4201  0.0664
   74OSM    H8S 6418   2.583   4.313   5.561 -0.3076 -1.6886  0.2045
   74OSM    H8T 6419   2.683   4.187   5.483  2.8467 -1.1825  0.7212
   74OSM    C9S 6420   2.785   4.366   5.503  0.7610 -0.0415  0.3723
   74OSM    H9S 6421   2.885   4.319   5.513  1.2476  0.9152  0.1068
   74OSM    H9T 6422   2.796   4.462   5.557  1.3334  0.6371 -0.9152
   74OSM   C10S 6423   2.755   4.379   5.355  0.3314  0.1815 -0.8856
   74OSM   H10S 6424   2.653   4.418   5.338 -0.0165 -1.2616 -2.3605
   74OSM   H10T 6425   2.758   4.277   5.312  0.1020  0.3720 -1.3535
   74OSM   C11S 6426   2.868   4.453   5.280  0.2118 -0.0085 -0.4540
   74OSM   H11S 6427   2.968   4.428   5.321 -0.5336 -1.3207  0.6543
   74OSM   H11T 6428   2.853   4.561   5.300 -1.7421 -0.2291 -0.5187
   74OSM   C12S 6429   2.876   4.406   5.132  0.8087 -0.1276 -0.0046
   74OSM   H12S 6430   2.934   4.313   5.115 -0.0455 -0.9407  1.3991
   74OSM   H12T 6431   2.940   4.477   5.075 -0.3448  0.7126 -0.2803
   74OSM   C13S 6432   2.749   4.413   5.052 -0.5802  0.2857  0.2151
   74OSM   H13S 6433   2.687   4.499   5.085 -0.5436 -0.1736  1.5205
   74OSM   H13T 6434   2.700   4.318   5.080  1.7782 -0.8525  0.7396
   74OSM   C14S 6435   2.765   4.440   4.903  0.3698  0.3195  0.2526
   74OSM   H14S 6436   2.827   4.366   4.847 -1.4885 -0.4921 -0.8169
   74OSM   H14T 6437   2.813   4.539   4.885  1.9202 -0.7672 -2.2006
   74OSM   C15S 6438   2.624   4.435   4.832  0.4264  0.3109  0.1143
   74OSM   H15S 6439   2.552   4.480   4.903 -0.3295  1.4356 -1.3264
   74OSM   H15T 6440   2.602   4.326   4.824 -1.4019  0.5338  1.4447
   74OSM   C16S 6441   2.627   4.504   4.700  0.2264  0.3252  0.1115
   74OSM   H16S 6442   2.688   4.596   4.716  3.0869 -1.7253  1.9269
   74OSM   H16T 6443   2.529   4.534   4.657  0.8816  1.1916 -0.8686
   74OSM   C17S 6444   2.704   4.420   4.594  0.9858  0.0694 -0.1718
   74OSM   H17S 6445   2.640   4.341   4.549 -1.5885  3.7426 -3.7396
   74OSM   H17T 6446   2.797   4.369   4.624  1.7337  2.0653  1.0793
   74OSM   C18S 6447   2.742   4.504   4.478  0.0105 -0.3442  0.2180
   74OSM   H18S 6448   2.823   4.575   4.508  0.3955 -0.7490  0.1475
   74OSM   H18T 6449   2.666   4.564   4.424 -0.2955 -1.3014 -0.4174
   74OSM   H18U 6450   2.780   4.432   4.403  2.4639 -0.9265  1.8590
   74OSM    C1F 6451   2.490   3.824   6.064 -0.5302  0.4853 -0.0665
   74OSM     OF 6452   2.392   3.883   6.108 -0.6860  0.4574 -0.2691
   74OSM    C2F 6453   2.486   3.694   6.000  0.2274  0.6547  1.1614
   74OSM    H2F 6454   2.457   3.609   6.065 -1.2654 -0.3431 -0.6779
   74OSM    H2G 6455   2.588   3.664   5.969 -0.2136 -0.4045  0.6649
   74OSM    C3F 6456   2.391   3.698   5.871 -0.3321 -0.6685 -0.8080
   74OSM    H3F 6457   2.375   3.802   5.834 -1.6307 -0.8639 -0.8323
   74OSM    H3G 6458   2.289   3.666   5.900 -1.1126  1.0468 -1.5153
   74OSM    C4F 6459   2.429   3.611   5.749  0.3539 -0.3655  0.3698
   74OSM    H4F 6460   2.405   3.503   5.761  0.1653 -0.1130  2.8037
   74OSM    H4G 6461   2.537   3.615   5.723  0.3694  0.3855  0.5317
   74OSM    C5F 6462   2.344   3.654   5.624 -0.8979  0.1260 -0.1802
   74OSM    H5F 6463   2.338   3.763   5.604  0.0442  0.4928  1.4012
   74OSM    H5G 6464   2.237   3.649   5.654 -1.4401  1.6097 -1.7146
   74OSM    C6F 6465   2.389   3.596   5.490  0.0146  0.0873 -0.2266
   74OSM    H6F 6466   2.375   3.488   5.511 -1.9211  0.1883 -0.7926
   74OSM    H6G 6467   2.492   3.616   5.452  0.3323 -0.8067  0.1436
   74OSM    C7F 6468   2.292   3.614   5.378 -0.4083  0.3419 -0.2619
   74OSM    H7F 6469   2.190   3.592   5.416 -0.8581 -0.1157 -1.6768
   74OSM    H7G 6470   2.317   3.543   5.297  0.1063  1.8267 -1.4617
   74OSM    C8F 6471   2.293   3.757   5.322  0.2742  0.0855  0.8376
   74OSM    H8F 6472   2.384   3.777   5.261  1.4760 -3.3797  1.2904
   74OSM    H8G 6473   2.295   3.823   5.411  3.3034  1.2545  0.0363
   74OSM    C9F 6474   2.177   3.778   5.230  0.1524  0.5595  0.1854
   74OSM    H9F 6475   2.079   3.791   5.278 -0.0028  0.3811 -0.0790
   74OSM   C10F 6476   2.179   3.795   5.097 -0.2431  0.5476  0.6083
   74OSM   H10F 6477   2.080   3.804   5.050  0.9990 -2.3278 -3.0522
   74OSM   C11F 6478   2.299   3.774   5.002 -0.0692  0.1144  0.3171
   74OSM   H11F 6479   2.390   3.749   5.062  0.0507  0.8621  0.4595
   74OSM   H11G 6480   2.319   3.859   4.933  0.9625  0.7855  1.3767
   74OSM   C12F 6481   2.262   3.653   4.911 -0.1443 -0.7558 -0.1601
   74OSM   H12F 6482   2.237   3.563   4.973 -0.5600 -1.7523 -1.7226
   74OSM   H12G 6483   2.352   3.637   4.848 -0.5326 -2.8405 -0.2730
   74OSM   C13F 6484   2.153   3.679   4.810 -0.3315  0.3794 -0.3674
   74OSM   H13F 6485   2.176   3.773   4.756  1.9583  0.0206 -0.1259
   74OSM   H13G 6486   2.053   3.700   4.854 -0.1099  0.5129  0.0777
   74OSM   C14F 6487   2.152   3.572   4.699 -0.5015  0.2230 -0.9721
   74OSM   H14F 6488   2.144   3.467   4.735  0.4854  0.1512 -0.9312
   74OSM   H14G 6489   2.244   3.583   4.637 -0.1971 -2.2035 -1.0422
   74OSM   C15F 6490   2.041   3.616   4.603 -0.0530  0.1970 -0.6726
   74OSM   H15F 6491   1.952   3.594   4.666  1.7150 -2.7130  1.0323
   74OSM   H15G 6492   2.027   3.538   4.525  1.8106  1.4054 -2.3146
   74OSM   C16F 6493   2.057   3.752   4.538  0.0775 -0.2983  0.1117
   74OSM   H16F 6494   2.163   3.765   4.506  0.3764  0.1002  1.2001
   74OSM   H16G 6495   2.033   3.838   4.605 -0.4002  0.3203 -0.8214
   74OSM   C17F 6496   1.978   3.791   4.409 -0.2000 -0.9393 -0.2462
   74OSM   H17F 6497   1.978   3.902   4.405  1.4846 -0.9091 -0.2876
   74OSM   H17G 6498   1.872   3.760   4.411 -1.1449  1.9803 -1.1251
   74OSM   C18F 6499   2.044   3.758   4.276 -0.2579 -0.2248  0.0338
   74OSM   H18F 6500   2.054   3.649   4.264 -0.3921 -0.2699  0.3090
   74OSM   H18G 6501   2.142   3.810   4.264 -0.5662  0.5773  0.8905
   74OSM   H18H 6502   1.973   3.788   4.196 -1.9791  1.4495  2.0514
   75OSM      N 6503   1.256   4.030   6.924 -0.6855 -0.0607  0.6941
   75OSM    C15 6504   1.293   3.892   6.873 -0.8332 -0.0822  0.4439
   75OSM   H15A 6505   1.210   3.831   6.843  0.9465 -2.7359  0.5290
   75OSM   H15B 6506   1.353   3.842   6.949  0.2626 -0.6380 -0.7441
   75OSM   H15C 6507   1.365   3.901   6.793 -0.6044  0.9501  0.7573
   75OSM    C14 6508   1.367   4.102   6.977 -0.0741 -0.4691 -0.0440
   75OSM   H14A 6509   1.418   4.054   7.059  1.2579  0.9606  0.0287
   75OSM   H14B 6510   1.330   4.200   7.006  3.1063  2.1507 -3.7552
   75OSM   H14C 6511   1.443   4.128   6.905 -1.0432  1.4745 -0.4393
   75OSM    C13 6512   1.191   4.102   6.810 -0.1261  0.7069 -0.3027
   75OSM   H13A 6513   1.114   4.036   6.774  0.6153 -0.6009  0.4326
   75OSM   H13B 6514   1.261   4.110   6.728  1.1902  1.4477  0.8406
   75OSM   H13C 6515   1.143   4.193   6.842 -2.0063  0.0022 -0.9908
   75OSM    C12 6516   1.155   4.011   7.031  0.6305  0.0170  0.1844
   75OSM   H12A 6517   1.191   3.960   7.119 -1.7644 -1.0243  0.6542
   75OSM   H12B 6518   1.095   3.935   6.982 -0.7916  2.1877 -1.6442
   75OSM    C11 6519   1.064   4.129   7.071 -0.3990 -0.4639 -0.1865
   75OSM   H11A 6520   1.145   4.198   7.103  0.0758 -0.8292 -0.5892
   75OSM   H11B 6521   1.004   4.101   7.160 -0.2441 -2.0194 -0.5487
   75OSM      P 6522   0.845   4.136   6.935 -0.0878  0.0313  0.0620
   75OSM    O13 6523   0.847   3.990   6.913  0.6490  0.3030  0.0092
   75OSM    O14 6524   0.758   4.197   7.043 -0.2253  0.8530  0.3824
   75OSM    O11 6525   0.808   4.199   6.797  0.4610  0.6370 -0.0232
   75OSM    O12 6526   0.985   4.184   6.963  0.4169 -0.4437 -0.2532
   75OSM    C1S 6527   0.875   4.160   6.673 -0.6396 -0.0738  0.0818
   75OSM    H1S 6528   0.966   4.102   6.699 -0.9736 -0.4051  0.5327
   75OSM    H1T 6529   0.925   4.245   6.622  0.4472 -1.6877 -1.6833
   75OSM     NF 6530   0.884   4.063   6.450 -0.2894 -0.4681 -0.3511
   75OSM    HNF 6531   0.864   4.131   6.381 -1.2717 -1.3572 -0.9742
   75OSM    C2S 6532   0.799   4.074   6.575  0.0568 -0.3296  0.2397
   75OSM    H2S 6533   0.783   3.969   6.608  1.9230 -1.0330 -0.9118
   75OSM    C3S 6534   0.660   4.142   6.554  0.4393 -0.9340  0.1005
   75OSM    H3S 6535   0.678   4.249   6.530 -0.8571 -0.5881  0.5843
   75OSM     O3 6536   0.576   4.138   6.664  0.2584  0.1206  0.1256
   75OSM    HO3 6537   0.624   4.084   6.727  3.5112  1.5869 -0.9150
   75OSM    C4S 6538   0.584   4.079   6.443 -0.6832  0.2318 -0.3298
   75OSM    H4S 6539   0.543   3.979   6.462 -0.7518  0.6907  2.2277
   75OSM    C5S 6540   0.548   4.146   6.331 -0.8277 -0.1407 -0.1608
   75OSM    H5S 6541   0.586   4.249   6.324  0.2882 -0.3485  2.0167
   75OSM    C6S 6542   0.457   4.087   6.235  0.4647 -0.4083 -0.2371
   75OSM    H6S 6543   0.355   4.122   6.262  0.2490 -1.2156  0.0323
   75OSM    H6T 6544   0.452   3.977   6.225  1.2529 -0.4769  0.0115
   75OSM    C7S 6545   0.483   4.127   6.087  0.0607  0.4019 -0.4755
   75OSM    H7S 6546   0.584   4.090   6.062 -0.1652 -2.8222  2.6077
   75OSM    H7T 6547   0.475   4.238   6.083  1.0791  0.5423  0.5940
   75OSM    C8S 6548   0.392   4.050   5.991 -0.1071 -0.1757 -0.8387
   75OSM    H8S 6549   0.286   4.056   6.021  0.8735 -1.1108  3.4244
   75OSM    H8T 6550   0.426   3.945   5.984 -1.3945 -0.7680  1.0973
   75OSM    C9S 6551   0.393   4.113   5.852 -0.2660 -0.0499  0.0709
   75OSM    H9S 6552   0.498   4.092   5.824 -0.4020 -0.4666 -0.1523
   75OSM    H9T 6553   0.376   4.223   5.851 -1.8275 -0.2582  0.8442
   75OSM   C10S 6554   0.291   4.050   5.758  0.0283  0.2620 -1.0573
   75OSM   H10S 6555   0.190   4.079   5.792  0.9816  1.4031  0.9594
   75OSM   H10T 6556   0.285   3.941   5.782  0.1059  0.0062 -2.1290
   75OSM   C11S 6557   0.308   4.066   5.605  0.6801  0.3540  0.1130
   75OSM   H11S 6558   0.331   4.174   5.591  1.0311 -0.0082 -2.4797
   75OSM   H11T 6559   0.210   4.039   5.562 -1.5961  0.3369  4.7209
   75OSM   C12S 6560   0.410   3.980   5.531 -0.7629 -0.2473 -0.3504
   75OSM   H12S 6561   0.372   3.877   5.550 -1.2486 -0.0992 -0.4916
   75OSM   H12T 6562   0.503   4.001   5.588 -1.9289  2.5965  0.6867
   75OSM   C13S 6563   0.414   4.016   5.381  0.3975  0.3519 -0.4799
   75OSM   H13S 6564   0.467   4.110   5.354 -0.8223  1.0049 -0.7167
   75OSM   H13T 6565   0.306   4.027   5.357  0.1995 -2.1492 -0.9544
   75OSM   C14S 6566   0.483   3.913   5.291  0.2237 -0.4470  0.6752
   75OSM   H14S 6567   0.462   3.950   5.188  0.2241  0.0332  0.8418
   75OSM   H14T 6568   0.451   3.808   5.306  2.3933 -1.0815  1.1833
   75OSM   C15S 6569   0.635   3.914   5.299 -1.4175  0.5601 -0.5137
   75OSM   H15S 6570   0.670   3.861   5.390 -1.7945 -0.3460 -0.8863
   75OSM   H15T 6571   0.685   4.012   5.308  1.4211 -0.8775  0.5755
   75OSM   C16S 6572   0.690   3.848   5.173 -0.3204  0.1236  0.5084
   75OSM   H16S 6573   0.650   3.895   5.081  1.0592 -0.0860 -0.2209
   75OSM   H16T 6574   0.658   3.742   5.183 -2.0951  0.5495 -0.1723
   75OSM   C17S 6575   0.841   3.849   5.157 -0.0156  0.8013 -0.6742
   75OSM   H17S 6576   0.889   3.949   5.148  4.2383 -0.9300  0.3678
   75OSM   H17T 6577   0.865   3.811   5.056 -3.0715  0.0371 -1.2180
   75OSM   C18S 6578   0.912   3.776   5.279 -0.0193  0.1051  0.8450
   75OSM   H18S 6579   0.904   3.831   5.375 -1.0207  0.8192  0.3682
   75OSM   H18T 6580   1.021   3.758   5.265 -0.1710 -0.3312  0.1302
   75OSM   H18U 6581   0.876   3.671   5.289 -0.7138  0.3580  1.0808
   75OSM    C1F 6582   1.001   3.990   6.446 -0.2848  0.2828  0.7845
   75OSM     OF 6583   1.047   3.918   6.534 -0.8859 -0.1463  0.4834
   75OSM    C2F 6584   1.084   3.995   6.323 -0.1746 -0.2045  0.4735
   75OSM    H2F 6585   1.117   3.892   6.296  0.8259  0.2093  0.0792
   75OSM    H2G 6586   1.182   4.045   6.339 -0.2184  0.5931 -1.4227
   75OSM    C3F 6587   1.022   4.070   6.203 -0.1710 -0.3551  0.2767
   75OSM    H3F 6588   1.107   4.118   6.151 -1.5644  1.5618 -0.3339
   75OSM    H3G 6589   0.982   4.169   6.233  0.3537 -0.0120 -0.1401
   75OSM    C4F 6590   0.939   3.985   6.110  0.9150  0.4560  0.6718
   75OSM    H4F 6591   0.848   3.948   6.162 -1.3349  2.2534 -1.7236
   75OSM    H4G 6592   1.006   3.901   6.084 -0.2219 -0.1597 -0.3712
   75OSM    C5F 6593   0.892   4.070   5.988  0.5610  0.1355  0.1193
   75OSM    H5F 6594   0.850   4.167   6.020 -1.2872  0.2074 -2.2131
   75OSM    H5G 6595   0.808   4.017   5.938  0.5936 -0.3499  0.5715
   75OSM    C6F 6596   1.000   4.100   5.886  0.1350  0.4937  0.1130
   75OSM    H6F 6597   1.035   4.006   5.839  0.9787  0.3829  0.9247
   75OSM    H6G 6598   1.089   4.143   5.936  0.4050 -1.0104  1.0094
   75OSM    C7F 6599   0.954   4.191   5.774 -0.3930 -0.5310  0.4150
   75OSM    H7F 6600   1.047   4.219   5.720  0.3556 -0.9271  1.4759
   75OSM    H7G 6601   0.918   4.284   5.823  1.0858  1.4452 -2.0196
   75OSM    C8F 6602   0.847   4.128   5.689 -0.0267  0.8427  0.7318
   75OSM    H8F 6603   0.785   4.066   5.756  0.5228 -3.5232 -2.3813
   75OSM    H8G 6604   0.884   4.048   5.622 -1.1018 -0.1170  1.2556
   75OSM    C9F 6605   0.761   4.226   5.611  0.3178 -0.1393 -0.2083
   75OSM    H9F 6606   0.673   4.274   5.657  1.0934  2.2319 -1.0674
   75OSM   C10F 6607   0.788   4.267   5.484  0.5374  0.1951  0.4730
   75OSM   H10F 6608   0.715   4.319   5.421  0.7355 -1.3940 -1.1813
   75OSM   C11F 6609   0.912   4.220   5.416  0.6316 -0.3060  0.2528
   75OSM   H11F 6610   0.911   4.109   5.403 -2.8840 -0.6019  2.1023
   75OSM   H11G 6611   0.998   4.258   5.474 -1.3516 -1.0567  3.9400
   75OSM   C12F 6612   0.912   4.296   5.280  0.0076  0.0971 -0.5202
   75OSM   H12F 6613   0.924   4.403   5.306  0.8126 -0.0215 -0.3813
   75OSM   H12G 6614   0.815   4.281   5.228 -1.8236 -1.7624  3.0426
   75OSM   C13F 6615   1.027   4.266   5.186 -0.5780  0.1450 -0.1822
   75OSM   H13F 6616   1.030   4.161   5.149  0.3793 -0.1519  0.6860
   75OSM   H13G 6617   1.123   4.275   5.241 -0.2971  1.2595 -0.8235
   75OSM   C14F 6618   1.025   4.366   5.077 -0.0864 -0.2229 -0.1285
   75OSM   H14F 6619   1.056   4.462   5.124 -0.7613  0.3001 -0.7318
   75OSM   H14G 6620   0.925   4.374   5.030  1.1531 -1.0463 -3.1437
   75OSM   C15F 6621   1.115   4.324   4.962 -0.7678  0.8966 -0.6508
   75OSM   H15F 6622   1.067   4.234   4.917 -0.6437 -0.4594  1.7405
   75OSM   H15G 6623   1.213   4.285   4.998 -1.3962 -1.8233 -1.6168
   75OSM   C16F 6624   1.140   4.442   4.869  0.0467 -0.6651  0.7240
   75OSM   H16F 6625   1.189   4.414   4.773 -0.2434 -1.3449  0.7736
   75OSM   H16G 6626   1.216   4.505   4.921 -0.2360  1.5192 -1.3410
   75OSM   C17F 6627   1.012   4.511   4.814  0.1051  0.3109  0.3988
   75OSM   H17F 6628   1.057   4.600   4.764  1.6256 -1.4716 -1.6251
   75OSM   H17G 6629   0.956   4.539   4.905 -0.2609  0.0803  0.2495
   75OSM   C18F 6630   0.916   4.421   4.724 -0.5898 -0.1629 -0.3871
   75OSM   H18F 6631   0.887   4.328   4.777  1.5413 -0.3530  0.5554
   75OSM   H18G 6632   0.962   4.393   4.626  1.0876 -0.1130  0.3548
   75OSM   H18H 6633   0.827   4.487   4.711 -0.7077  0.2394  2.0237
   76OSM      N 6634   2.437   4.752   6.397  0.2360 -0.2181  0.2319
   76OSM    C15 6635   2.538   4.684   6.478 -0.1760  0.1724  0.2857
   76OSM   H15A 6636   2.527   4.577   6.488  1.5545 -0.4710 -3.2296
   76OSM   H15B 6637   2.549   4.724   6.578 -1.7148 -1.3522  1.1137
   76OSM   H15C 6638   2.630   4.685   6.421 -1.2728  0.6984 -1.5543
   76OSM    C14 6639   2.411   4.655   6.273 -0.2334  0.0103 -0.1833
   76OSM   H14A 6640   2.393   4.559   6.317 -0.9477  1.2594  2.4537
   76OSM   H14B 6641   2.494   4.661   6.204 -0.5250  2.3838 -0.4419
   76OSM   H14C 6642   2.324   4.691   6.220 -0.8715  0.9008  1.3874
   76OSM    C13 6643   2.311   4.753   6.471  0.5336  0.7627 -0.3077
   76OSM   H13A 6644   2.342   4.791   6.567  1.5214  0.1761 -0.3903
   76OSM   H13B 6645   2.281   4.653   6.498 -0.5051  1.2757  0.5177
   76OSM   H13C 6646   2.229   4.809   6.428  0.9794  1.8248  0.1818
   76OSM    C12 6647   2.480   4.885   6.359 -0.0874  0.0885  0.8779
   76OSM   H12A 6648   2.409   4.926   6.289  0.8500 -1.5146 -1.1330
   76OSM   H12B 6649   2.570   4.879   6.300  0.9440  0.9591  2.2987
   76OSM    C11 6650   2.505   4.975   6.479 -0.3904 -0.3524  0.0169
   76OSM   H11A 6651   2.412   4.980   6.539 -1.0384 -1.1314 -0.8966
   76OSM   H11B 6652   2.516   5.074   6.430  4.9734 -1.1508 -1.0888
   76OSM      P 6653   2.762   4.979   6.525 -0.2515 -0.0630 -0.0348
   76OSM    O13 6654   2.800   5.105   6.591 -0.4636  0.0770  0.1393
   76OSM    O14 6655   2.843   4.862   6.574  0.2990 -0.1598  0.1608
   76OSM    O11 6656   2.755   4.993   6.361 -0.2967 -0.1424  0.5642
   76OSM    O12 6657   2.615   4.947   6.566  0.0770  0.0889  0.5171
   76OSM    C1S 6658   2.821   4.890   6.283 -0.6675 -0.2204 -0.8936
   76OSM    H1S 6659   2.757   4.800   6.275  1.3381 -1.6497 -1.9304
   76OSM    H1T 6660   2.912   4.847   6.330 -1.2262 -0.5271 -0.0714
   76OSM     NF 6661   2.915   4.832   6.066 -0.4526 -0.6088 -0.0588
   76OSM    HNF 6662   3.014   4.831   6.074 -0.2828  4.6018  2.4615
   76OSM    C2S 6663   2.854   4.942   6.149 -0.9973 -0.1368  0.4819
   76OSM    H2S 6664   2.759   4.982   6.108  0.3942  3.3444  0.3604
   76OSM    C3S 6665   2.956   5.064   6.159 -0.1274  0.0424  0.8886
   76OSM    H3S 6666   3.049   5.034   6.210  0.7977 -0.9466 -1.2934
   76OSM     O3 6667   2.903   5.169   6.238  0.6913 -0.2179 -0.1285
   76OSM    HO3 6668   2.829   5.132   6.286 -0.1929 -0.1931 -1.4174
   76OSM    C4S 6669   2.982   5.119   6.025 -0.0902 -0.0945  0.2163
   76OSM    H4S 6670   2.906   5.190   5.990  1.4177  1.1325 -0.7283
   76OSM    C5S 6671   3.101   5.101   5.963 -1.3300 -0.2420  0.5379
   76OSM    H5S 6672   3.172   5.035   6.014 -0.6536 -0.5972 -0.8202
   76OSM    C6S 6673   3.139   5.151   5.824 -0.2234 -0.2721  0.2893
   76OSM    H6S 6674   3.238   5.200   5.826  0.9037 -2.3847 -0.6285
   76OSM    H6T 6675   3.061   5.221   5.789  0.5598  0.5861  0.2400
   76OSM    C7S 6676   3.157   5.041   5.721 -0.2602  0.1623  0.8230
   76OSM    H7S 6677   3.073   4.969   5.730 -0.2458 -0.0197 -0.3406
   76OSM    H7T 6678   3.245   4.984   5.756 -0.5307 -0.9034 -0.1693
   76OSM    C8S 6679   3.203   5.097   5.581 -0.3490 -0.2935 -0.1052
   76OSM    H8S 6680   3.249   5.015   5.521 -0.3553 -0.8828  0.6824
   76OSM    H8T 6681   3.290   5.167   5.580 -1.6150  1.3633 -1.9892
   76OSM    C9S 6682   3.090   5.155   5.494  0.0964  0.0443 -0.2482
   76OSM    H9S 6683   3.041   5.242   5.542  2.8266  2.2429 -1.1538
   76OSM    H9T 6684   3.019   5.072   5.474 -1.8044  1.5133  0.1370
   76OSM   C10S 6685   3.152   5.205   5.363 -0.1275 -0.5528  0.0739
   76OSM   H10S 6686   3.226   5.133   5.323  2.1338  2.2134 -0.9954
   76OSM   H10T 6687   3.218   5.286   5.400 -1.1918  0.8705 -1.0176
   76OSM   C11S 6688   3.056   5.241   5.254 -0.4315 -0.1353  1.1566
   76OSM   H11S 6689   2.996   5.334   5.264 -0.0147  0.5548 -1.8459
   76OSM   H11T 6690   2.988   5.156   5.233 -0.2574  0.2143 -1.0478
   76OSM   C12S 6691   3.127   5.261   5.120 -0.3097 -0.1148 -0.5484
   76OSM   H12S 6692   3.189   5.175   5.088  2.1284  2.2597 -2.7575
   76OSM   H12T 6693   3.189   5.353   5.127  1.7094 -1.4865  0.4428
   76OSM   C13S 6694   3.027   5.279   5.004 -0.0922  0.1970  0.2885
   76OSM   H13S 6695   3.002   5.387   5.015 -1.4325  0.0394 -0.8488
   76OSM   H13T 6696   2.943   5.209   5.020 -1.2206  1.3174 -0.5385
   76OSM   C14S 6697   3.087   5.260   4.862  0.0062 -0.2519  0.0867
   76OSM   H14S 6698   3.115   5.153   4.868 -1.1203 -0.9375 -3.8393
   76OSM   H14T 6699   3.177   5.316   4.828  0.9510 -2.1938 -0.7332
   76OSM   C15S 6700   2.980   5.277   4.747  0.1640 -0.0951 -0.0739
   76OSM   H15S 6701   2.880   5.253   4.788  0.3180  0.4030  0.6021
   76OSM   H15T 6702   2.998   5.209   4.661 -2.4375 -1.6548  0.5103
   76OSM   C16S 6703   2.980   5.426   4.695  0.6758  0.3924 -0.7159
   76OSM   H16S 6704   3.084   5.465   4.708 -0.5901  3.0862  3.5019
   76OSM   H16T 6705   2.927   5.486   4.772  1.4529  1.4162 -0.9543
   76OSM   C17S 6706   2.907   5.460   4.563  0.7941 -0.5554 -0.0381
   76OSM   H17S 6707   2.891   5.569   4.552 -3.1679 -0.8217  1.3992
   76OSM   H17T 6708   2.803   5.431   4.590  0.3784  2.8180  2.7517
   76OSM   C18S 6709   2.954   5.412   4.426 -0.7031 -0.9968  0.6518
   76OSM   H18S 6710   2.881   5.435   4.345 -1.0210  0.6548  1.3756
   76OSM   H18T 6711   2.949   5.301   4.425 -2.2732 -0.9412  0.9312
   76OSM   H18U 6712   3.054   5.449   4.395 -0.4775  0.0439  2.4760
   76OSM    C1F 6713   2.838   4.741   6.011  0.0094 -0.0607  0.9138
   76OSM     OF 6714   2.717   4.747   6.021 -0.0915  0.0058 -0.0980
   76OSM    C2F 6715   2.902   4.630   5.935  0.0403  0.4580 -0.2683
   76OSM    H2F 6716   2.821   4.561   5.902 -0.9272  1.9424 -1.1072
   76OSM    H2G 6717   2.963   4.571   6.007 -2.1184  1.0573  2.2007
   76OSM    C3F 6718   2.981   4.685   5.812 -0.3854 -0.2792 -0.8158
   76OSM    H3F 6719   3.061   4.754   5.846 -0.1498 -0.7420 -0.3969
   76OSM    H3G 6720   2.905   4.739   5.753 -0.3153  1.3470  0.5231
   76OSM    C4F 6721   3.059   4.584   5.728  0.4341 -0.7996 -0.2878
   76OSM    H4F 6722   2.993   4.502   5.689  1.0089 -0.4050 -2.2017
   76OSM    H4G 6723   3.130   4.534   5.797  0.4416 -1.7268 -0.9397
   76OSM    C5F 6724   3.124   4.649   5.607  0.5272 -0.6138  0.2533
   76OSM    H5F 6725   3.192   4.582   5.549  0.5205 -1.2578  0.9676
   76OSM    H5G 6726   3.189   4.731   5.644 -0.7099  0.7165 -0.4482
   76OSM    C6F 6727   3.030   4.723   5.509 -0.3545  0.6330 -0.3920
   76OSM    H6F 6728   2.996   4.822   5.547 -0.9025  0.5734 -0.7212
   76OSM    H6G 6729   2.944   4.655   5.489 -0.5978 -0.0478  2.4905
   76OSM    C7F 6730   3.102   4.754   5.376 -0.8557 -0.0986  0.2245
   76OSM    H7F 6731   3.154   4.671   5.325  0.1271 -1.1277  2.7228
   76OSM    H7G 6732   3.188   4.815   5.411 -1.0008  1.5747 -2.0989
   76OSM    C8F 6733   3.019   4.827   5.264  0.1101 -0.5318  0.0110
   76OSM    H8F 6734   2.958   4.912   5.299  0.8821 -0.5699  1.5502
   76OSM    H8G 6735   2.940   4.757   5.229  0.2350 -2.0412  2.4955
   76OSM    C9F 6736   3.118   4.870   5.160  0.4810  0.0375 -0.0715
   76OSM    H9F 6737   3.186   4.947   5.199 -2.0569  1.5472  1.7135
   76OSM   C10F 6738   3.114   4.852   5.027  0.8168 -0.5944  0.5044
   76OSM   H10F 6739   3.203   4.896   4.979  1.6277  0.4588  2.8260
   76OSM   C11F 6740   3.021   4.767   4.943 -0.1019 -0.0330 -0.4521
   76OSM   H11F 6741   2.950   4.707   5.004  2.3600 -1.0602  1.5704
   76OSM   H11G 6742   3.073   4.684   4.891 -0.8248 -1.8040  1.5305
   76OSM   C12F 6743   2.950   4.856   4.837  0.2465 -0.1065 -0.0468
   76OSM   H12F 6744   2.918   4.953   4.880 -1.1231 -0.7758  0.5242
   76OSM   H12G 6745   2.868   4.793   4.796  0.8872 -0.0129 -1.5703
   76OSM   C13F 6746   3.031   4.897   4.719  0.2629  1.0905  0.5789
   76OSM   H13F 6747   3.106   4.821   4.689 -0.5460  0.8438 -0.9105
   76OSM   H13G 6748   3.092   4.988   4.738  3.5828 -1.2577  2.1889
   76OSM   C14F 6749   2.953   4.920   4.587 -0.1056  0.4268  0.4566
   76OSM   H14F 6750   2.865   4.987   4.592 -0.8917 -0.3103 -1.9365
   76OSM   H14G 6751   2.917   4.819   4.559 -0.4288  1.0762 -1.6376
   76OSM   C15F 6752   3.051   4.973   4.481  1.3524  0.4464  0.4723
   76OSM   H15F 6753   3.140   4.908   4.497 -0.7390 -2.6520  0.4165
   76OSM   H15G 6754   3.073   5.081   4.493  0.1492  0.7070  0.3942
   76OSM   C16F 6755   2.979   4.944   4.348 -0.0936 -0.1324  0.2444
   76OSM   H16F 6756   2.885   5.002   4.332  0.3606  0.6456  0.3074
   76OSM   H16G 6757   2.946   4.839   4.358 -0.2696 -0.2577 -1.3753
   76OSM   C17F 6758   3.076   4.973   4.224  0.2990  0.2373 -0.2241
   76OSM   H17F 6759   3.026   4.918   4.141 -0.8797 -2.0680  1.8813
   76OSM   H17G 6760   3.180   4.938   4.241  0.5072  0.9918  0.0912
   76OSM   C18F 6761   3.091   5.122   4.175  0.0091 -0.7941  0.4848
   76OSM   H18F 6762   3.134   5.124   4.073  1.5563  0.4845  1.1141
   76OSM   H18G 6763   3.155   5.180   4.246  0.2362  1.2149 -1.2655
   76OSM   H18H 6764   2.987   5.161   4.176 -0.3764 -1.7806  2.1444
   77OSM      N 6765   0.219   2.823   7.107  0.0708  0.5512  0.4567
   77OSM    C15 6766   0.294   2.939   7.172 -0.2082  0.3497 -0.5048
   77OSM   H15A 6767   0.265   3.028   7.117 -0.2935  0.6240 -0.0262
   77OSM   H15B 6768   0.399   2.917   7.162 -0.5112 -1.6755  0.4378
   77OSM   H15C 6769   0.262   2.955   7.274  2.3810  1.2670  0.2388
   77OSM    C14 6770   0.214   2.705   7.197  0.3612  0.2485  0.3092
   77OSM   H14A 6771   0.313   2.682   7.233  1.0903 -0.5657 -2.0230
   77OSM   H14B 6772   0.186   2.613   7.147  3.9836 -1.2884  0.8059
   77OSM   H14C 6773   0.142   2.724   7.275 -0.1220 -2.0056  0.4801
   77OSM    C13 6774   0.079   2.861   7.089 -0.3051 -0.0824 -0.7195
   77OSM   H13A 6775   0.067   2.958   7.043  1.0751  0.9406  0.9341
   77OSM   H13B 6776   0.032   2.861   7.186  1.0601 -0.3329 -0.0247
   77OSM   H13C 6777   0.023   2.794   7.027  0.2204 -0.5000 -0.7500
   77OSM    C12 6778   0.280   2.783   6.972 -0.4360  0.0856 -0.1684
   77OSM   H12A 6779   0.376   2.741   6.997 -0.4928 -0.1922 -0.4037
   77OSM   H12B 6780   0.302   2.868   6.909  0.8616 -1.4307 -1.8593
   77OSM    C11 6781   0.207   2.683   6.889 -0.6914  0.3228  0.0011
   77OSM   H11A 6782   0.253   2.673   6.789 -1.6531 -0.9579 -0.3435
   77OSM   H11B 6783   0.104   2.717   6.866 -0.8024 -0.3512 -0.5187
   77OSM      P 6784   0.319   2.446   6.983  0.0599 -0.0335  0.0329
   77OSM    O13 6785   0.435   2.525   7.028 -0.1724  0.2166  0.2014
   77OSM    O14 6786   0.248   2.353   7.075  0.1605 -0.1220 -0.0831
   77OSM    O11 6787   0.342   2.375   6.839 -0.4025 -0.4074 -0.4504
   77OSM    O12 6788   0.203   2.556   6.951  0.2405 -0.3377  0.4949
   77OSM    C1S 6789   0.219   2.336   6.768 -0.7530  0.1558  0.3026
   77OSM    H1S 6790   0.164   2.424   6.729 -1.5020  0.3748  1.8109
   77OSM    H1T 6791   0.152   2.274   6.831  0.5855 -1.8322 -0.1242
   77OSM     NF 6792   0.134   2.209   6.585 -0.1144 -0.0455  0.0888
   77OSM    HNF 6793   0.103   2.116   6.600  0.8256 -0.2419  0.9002
   77OSM    C2S 6794   0.253   2.252   6.648 -0.1034 -0.4293 -0.6591
   77OSM    H2S 6795   0.315   2.310   6.576  1.4076  1.2412  1.8456
   77OSM    C3S 6796   0.360   2.133   6.682 -0.3163  0.0894 -0.3197
   77OSM    H3S 6797   0.309   2.066   6.755 -0.0312  0.5772  0.3423
   77OSM     O3 6798   0.476   2.171   6.756 -0.2452  0.0572 -0.3456
   77OSM    HO3 6799   0.447   2.253   6.796  0.1259  0.3870 -0.7427
   77OSM    C4S 6800   0.384   2.062   6.546  0.8056 -0.3622  0.2461
   77OSM    H4S 6801   0.295   2.004   6.515  0.7185  0.6859 -1.6192
   77OSM    C5S 6802   0.479   2.083   6.446  0.7309  0.1298  0.0835
   77OSM    H5S 6803   0.569   2.144   6.465  1.7049 -0.5080 -2.0977
   77OSM    C6S 6804   0.475   2.001   6.321  0.0536 -0.1678  0.3210
   77OSM    H6S 6805   0.398   2.057   6.262  1.6374  0.9892 -0.7249
   77OSM    H6T 6806   0.440   1.895   6.325  3.6576 -1.6999 -2.7929
   77OSM    C7S 6807   0.606   2.004   6.239  0.2718 -0.6592 -0.1260
   77OSM    H7S 6808   0.677   1.922   6.264 -0.1367 -0.9639  0.0501
   77OSM    H7T 6809   0.657   2.102   6.244  0.8998 -1.0204  0.7760
   77OSM    C8S 6810   0.584   1.979   6.085  0.0602  0.8784 -0.6053
   77OSM    H8S 6811   0.482   2.012   6.056 -1.2608 -3.4754 -1.5557
   77OSM    H8T 6812   0.569   1.872   6.059 -2.6772  1.4112 -1.5370
   77OSM    C9S 6813   0.697   2.028   5.994  0.1855  0.4213  0.5418
   77OSM    H9S 6814   0.789   1.972   6.019 -1.2835 -3.0002 -1.0922
   77OSM    H9T 6815   0.712   2.137   6.013  2.2821  0.3729 -0.5830
   77OSM   C10S 6816   0.663   2.008   5.844  0.1400  0.1128 -0.3543
   77OSM   H10S 6817   0.582   2.084   5.832  1.8917  2.1533  0.1461
   77OSM   H10T 6818   0.615   1.908   5.841 -0.4830  0.2992  1.8201
   77OSM   C11S 6819   0.778   2.028   5.746  0.3885 -0.4084 -0.1587
   77OSM   H11S 6820   0.854   1.949   5.765  0.1684 -0.4084  0.7638
   77OSM   H11T 6821   0.833   2.121   5.772 -0.0759 -0.0806 -0.3350
   77OSM   C12S 6822   0.740   2.048   5.600  0.2937  0.4664 -0.0747
   77OSM   H12S 6823   0.828   2.069   5.536 -1.3126  0.4355 -2.3942
   77OSM   H12T 6824   0.671   2.136   5.594 -1.4823 -0.7024  1.8052
   77OSM   C13S 6825   0.673   1.926   5.535 -0.4852 -0.2123  0.1875
   77OSM   H13S 6826   0.572   1.915   5.579 -0.7748  1.3839 -0.0029
   77OSM   H13T 6827   0.740   1.838   5.546  1.1839  1.1869  1.8930
   77OSM   C14S 6828   0.663   1.947   5.379 -0.0953 -0.5298  0.0820
   77OSM   H14S 6829   0.767   1.932   5.343 -0.3741 -2.9799  0.0832
   77OSM   H14T 6830   0.625   2.050   5.368 -1.6273 -1.0197  0.5499
   77OSM   C15S 6831   0.560   1.854   5.318 -0.7349  0.2817  0.3042
   77OSM   H15S 6832   0.481   1.826   5.391  0.4779 -1.0158  1.1813
   77OSM   H15T 6833   0.616   1.758   5.316 -0.2527  0.1702  5.2059
   77OSM   C16S 6834   0.489   1.912   5.188 -0.9654  0.2883  0.1709
   77OSM   H16S 6835   0.456   2.014   5.217 -0.1102  0.6767 -0.2050
   77OSM   H16T 6836   0.396   1.860   5.158 -1.2563  1.8167 -1.7440
   77OSM   C17S 6837   0.580   1.916   5.065 -0.7072  0.4404  0.1569
   77OSM   H17S 6838   0.621   1.816   5.043  3.5299  2.1755 -0.9035
   77OSM   H17T 6839   0.657   1.995   5.080  1.5098 -1.6791  0.4248
   77OSM   C18S 6840   0.500   1.961   4.941  0.5002 -0.5735  0.4559
   77OSM   H18S 6841   0.528   1.906   4.849 -2.0925 -1.3175  0.0258
   77OSM   H18T 6842   0.502   2.069   4.914 -0.3076 -0.3862  1.1067
   77OSM   H18U 6843   0.394   1.935   4.960  1.3777 -2.8038  2.8270
   77OSM    C1F 6844   0.059   2.272   6.504  0.0422 -0.5179 -0.1135
   77OSM     OF 6845   0.093   2.386   6.471  0.7481  0.8401  0.4394
   77OSM    C2F 6846  -0.058   2.200   6.440 -0.0816  0.3349 -0.3405
   77OSM    H2F 6847  -0.143   2.196   6.511 -0.4582  3.0639 -0.5527
   77OSM    H2G 6848  -0.034   2.097   6.407 -0.6549  0.0891 -0.0046
   77OSM    C3F 6849  -0.107   2.284   6.316 -1.1123  0.1139 -0.1890
   77OSM    H3F 6850  -0.026   2.299   6.242 -1.6274  0.8371 -0.6227
   77OSM    H3G 6851  -0.152   2.379   6.352 -1.0255  0.6528 -1.4609
   77OSM    C4F 6852  -0.212   2.206   6.232  0.1919 -0.6422 -0.6979
   77OSM    H4F 6853  -0.302   2.179   6.291 -0.2497  0.6427 -0.7466
   77OSM    H4G 6854  -0.171   2.113   6.186 -1.4676 -1.0383 -1.4576
   77OSM    C5F 6855  -0.261   2.290   6.111 -0.3584 -0.8972 -0.4270
   77OSM    H5F 6856  -0.169   2.330   6.063  0.0075  0.7083  1.5099
   77OSM    H5G 6857  -0.298   2.382   6.159  0.0637 -1.1183  0.3447
   77OSM    C6F 6858  -0.360   2.232   6.009  0.2579 -1.3106  0.0466
   77OSM    H6F 6859  -0.451   2.194   6.062 -1.9202  0.1276 -2.4050
   77OSM    H6G 6860  -0.310   2.155   5.948  2.8320  1.5867 -1.8105
   77OSM    C7F 6861  -0.406   2.342   5.906  0.0701 -0.0750 -0.1317
   77OSM    H7F 6862  -0.316   2.374   5.850  0.2121 -0.4694 -0.1323
   77OSM    H7G 6863  -0.436   2.435   5.960  1.7183  1.2448 -1.3822
   77OSM    C8F 6864  -0.517   2.301   5.806  0.2776  0.2164 -0.7821
   77OSM    H8F 6865  -0.559   2.383   5.745  1.0122  0.5826 -0.8043
   77OSM    H8G 6866  -0.601   2.269   5.872 -0.0354  0.1640 -1.2075
   77OSM    C9F 6867  -0.489   2.187   5.712 -0.0955 -0.4981 -1.1297
   77OSM    H9F 6868  -0.540   2.096   5.746 -0.8758  0.4962  0.4621
   77OSM   C10F 6869  -0.414   2.186   5.603 -0.3027  0.2633  0.4263
   77OSM   H10F 6870  -0.405   2.094   5.544 -0.2683  0.7066 -0.2727
   77OSM   C11F 6871  -0.343   2.307   5.544 -0.4732  0.5388 -0.7455
   77OSM   H11F 6872  -0.233   2.297   5.548 -0.3454  1.9383  0.1524
   77OSM   H11G 6873  -0.363   2.393   5.611 -1.1240 -1.0640  1.2043
   77OSM   C12F 6874  -0.392   2.350   5.402 -0.4563 -0.3952  0.2241
   77OSM   H12F 6875  -0.373   2.458   5.390  1.3995 -0.8158 -1.0842
   77OSM   H12G 6876  -0.500   2.326   5.391 -0.2951 -1.5016  0.8948
   77OSM   C13F 6877  -0.306   2.296   5.288  0.1634 -0.2016  0.7354
   77OSM   H13F 6878  -0.319   2.186   5.295  1.2040 -0.4731 -1.0118
   77OSM   H13G 6879  -0.197   2.304   5.307  0.0447  2.0522  0.7918
   77OSM   C14F 6880  -0.348   2.340   5.147  0.4719  0.2062  0.3692
   77OSM   H14F 6881  -0.320   2.447   5.138 -0.1566  0.3970  0.6254
   77OSM   H14G 6882  -0.458   2.334   5.137  0.6942 -0.0335 -3.1605
   77OSM   C15F 6883  -0.286   2.253   5.042 -0.3021 -0.2477 -0.3952
   77OSM   H15F 6884  -0.331   2.152   5.051  0.5998 -0.7948 -1.7066
   77OSM   H15G 6885  -0.177   2.243   5.061 -0.2255  2.0266  0.6282
   77OSM   C16F 6886  -0.304   2.311   4.905  0.5048  0.2607 -0.3744
   77OSM   H16F 6887  -0.239   2.245   4.844  0.2487  0.0675 -0.4389
   77OSM   H16G 6888  -0.264   2.414   4.906  1.7106 -0.1839  0.2958
   77OSM   C17F 6889  -0.453   2.305   4.862  0.1184 -0.0770  0.3449
   77OSM   H17F 6890  -0.514   2.384   4.910 -0.4760  1.6703 -2.9438
   77OSM   H17G 6891  -0.497   2.209   4.895  0.7323 -0.2658  0.6164
   77OSM   C18F 6892  -0.467   2.322   4.714 -0.4337 -0.1356  1.1786
   77OSM   H18F 6893  -0.400   2.405   4.683 -1.2732 -0.3855 -1.5764
   77OSM   H18G 6894  -0.570   2.346   4.681 -0.5066 -1.9069  0.0255
   77OSM   H18H 6895  -0.429   2.233   4.660  1.2389 -0.6247  3.0063
   78OSM      N 6896   5.411   3.986   6.881 -0.7106  0.4959 -0.3211
   78OSM    C15 6897   5.268   3.950   6.867  0.1267 -0.5157  0.1952
   78OSM   H15A 6898   5.219   3.916   6.957  0.4145  0.2474  0.6440
   78OSM   H15B 6899   5.251   3.870   6.795 -1.6542  0.4847 -0.5798
   78OSM   H15C 6900   5.213   4.033   6.825  1.0322  0.2763  0.5293
   78OSM    C14 6901   5.412   4.082   6.990  0.0651 -0.5667 -0.2728
   78OSM   H14A 6902   5.346   4.162   6.960 -0.4745 -0.5428  0.9297
   78OSM   H14B 6903   5.510   4.125   7.002  0.0458 -0.3577 -0.8318
   78OSM   H14C 6904   5.393   4.044   7.089 -0.0489  0.2818  0.0353
   78OSM    C13 6905   5.500   3.872   6.924  0.0643 -0.0651 -0.3442
   78OSM   H13A 6906   5.459   3.824   7.012  2.4904  3.7751  3.2603
   78OSM   H13B 6907   5.600   3.904   6.948  0.0421 -0.1703 -0.1100
   78OSM   H13C 6908   5.498   3.794   6.849  1.3498 -0.9613  0.5056
   78OSM    C12 6909   5.449   4.045   6.742 -0.6143 -0.5558  0.4094
   78OSM   H12A 6910   5.554   4.067   6.750  0.3241 -4.3623  0.9052
   78OSM   H12B 6911   5.397   4.137   6.723  1.9261  0.7453 -0.7065
   78OSM    C11 6912   5.430   3.960   6.610 -0.2790  0.4859 -0.0535
   78OSM   H11A 6913   5.450   4.022   6.520  1.8903 -0.0389  0.0175
   78OSM   H11B 6914   5.322   3.933   6.608  0.3232 -2.4830  1.8142
   78OSM      P 6915   5.469   3.706   6.563 -0.1032  0.0637  0.1948
   78OSM    O13 6916   5.584   3.638   6.503 -0.2906  0.1753  0.6120
   78OSM    O14 6917   5.394   3.639   6.673  0.1452 -0.1631 -0.5713
   78OSM    O11 6918   5.362   3.750   6.452  0.8488  0.5410 -0.5974
   78OSM    O12 6919   5.519   3.851   6.616  0.1442 -0.0055  0.4032
   78OSM    C1S 6920   5.407   3.802   6.325  0.1807  0.0062 -0.0875
   78OSM    H1S 6921   5.515   3.829   6.335  0.1730 -0.4075  1.3840
   78OSM    H1T 6922   5.348   3.891   6.295 -0.4377  0.0866  1.3228
   78OSM     NF 6923   5.470   3.751   6.094 -0.5079  0.1683 -0.2839
   78OSM    HNF 6924   5.405   3.793   6.030 -1.4980  0.2675  0.7535
   78OSM    C2S 6925   5.409   3.690   6.215 -0.1885 -0.1246  0.1293
   78OSM    H2S 6926   5.481   3.614   6.253  1.5514  0.6389 -1.4543
   78OSM    C3S 6927   5.273   3.624   6.191 -0.6314 -0.0360  0.8095
   78OSM    H3S 6928   5.203   3.707   6.167 -0.5298  0.1488  1.1439
   78OSM     O3 6929   5.217   3.580   6.312 -0.0051 -0.2369  0.2113
   78OSM    HO3 6930   5.257   3.633   6.381 -2.7135  2.2426  0.0696
   78OSM    C4S 6931   5.276   3.525   6.091  0.8145  0.4247  0.3657
   78OSM    H4S 6932   5.368   3.465   6.088  2.8045  3.2688  0.6458
   78OSM    C5S 6933   5.181   3.510   6.000  0.5588  0.7532 -0.4304
   78OSM    H5S 6934   5.106   3.591   5.999 -0.9889 -0.6205 -1.6433
   78OSM    C6S 6935   5.190   3.424   5.877 -0.0010  0.1083 -0.3969
   78OSM    H6S 6936   5.123   3.336   5.863  1.9056 -1.1086 -2.5927
   78OSM    H6T 6937   5.291   3.376   5.873 -1.0267 -2.5049  1.7578
   78OSM    C7S 6938   5.159   3.520   5.751 -0.1161  0.2421 -0.8254
   78OSM    H7S 6939   5.210   3.616   5.771  1.9269 -1.4335  3.3259
   78OSM    H7T 6940   5.051   3.548   5.751 -0.2528 -0.1779  0.5550
   78OSM    C8S 6941   5.209   3.450   5.624  0.4900 -0.0813  0.3272
   78OSM    H8S 6942   5.144   3.362   5.603  0.3854  0.5658 -2.5518
   78OSM    H8T 6943   5.316   3.419   5.625  0.3728 -0.9779 -2.8338
   78OSM    C9S 6944   5.189   3.530   5.498 -0.3461 -0.9224 -0.8449
   78OSM    H9S 6945   5.223   3.478   5.406 -2.2876 -1.0256 -1.5517
   78OSM    H9T 6946   5.248   3.624   5.505  0.1286 -1.0924 -2.3794
   78OSM   C10S 6947   5.038   3.560   5.472  0.4184 -0.0755 -0.3198
   78OSM   H10S 6948   4.995   3.640   5.537  0.8943 -1.5276  1.8902
   78OSM   H10T 6949   4.977   3.472   5.500  1.4449  0.5022  4.7777
   78OSM   C11S 6950   5.017   3.598   5.323 -0.2292 -0.1339  0.3001
   78OSM   H11S 6951   5.053   3.514   5.261  1.7564  0.5895  0.3814
   78OSM   H11T 6952   5.080   3.688   5.303  0.6596 -1.0667 -1.2764
   78OSM   C12S 6953   4.877   3.630   5.287 -0.4003  0.6071 -0.2754
   78OSM   H12S 6954   4.849   3.727   5.334  1.3387  1.3720 -0.7324
   78OSM   H12T 6955   4.802   3.558   5.325 -2.6376  2.6822 -0.5047
   78OSM   C13S 6956   4.868   3.631   5.135 -0.1207  0.0805 -0.1313
   78OSM   H13S 6957   4.912   3.538   5.094  2.2436  0.6431  0.9641
   78OSM   H13T 6958   4.930   3.714   5.096 -2.7029  1.3145 -1.9244
   78OSM   C14S 6959   4.728   3.663   5.079 -0.1970  0.7073 -0.0143
   78OSM   H14S 6960   4.699   3.767   5.105 -0.0064 -0.2908  5.3362
   78OSM   H14T 6961   4.651   3.595   5.122  0.1706 -0.9400 -1.8479
   78OSM   C15S 6962   4.718   3.635   4.926 -0.2628  0.0424  0.1914
   78OSM   H15S 6963   4.777   3.543   4.905 -0.9835 -0.2260 -0.7396
   78OSM   H15T 6964   4.780   3.711   4.874 -0.1672 -2.4176 -3.7324
   78OSM   C16S 6965   4.576   3.643   4.878 -0.2298 -0.3999  0.7628
   78OSM   H16S 6966   4.552   3.750   4.865 -1.9074 -0.8163  0.0242
   78OSM   H16T 6967   4.503   3.601   4.951 -0.6546  1.6574  1.5720
   78OSM   C17S 6968   4.566   3.575   4.743  0.1052  0.5501 -0.9654
   78OSM   H17S 6969   4.588   3.467   4.741  1.1338  0.6714  1.4012
   78OSM   H17T 6970   4.637   3.638   4.685  1.4757  0.8234  0.9356
   78OSM   C18S 6971   4.429   3.585   4.682  0.3651 -0.3741  0.1125
   78OSM   H18S 6972   4.398   3.691   4.667 -1.3364 -1.1347 -2.3292
   78OSM   H18T 6973   4.358   3.522   4.739  1.5865 -1.5508  0.3930
   78OSM   H18U 6974   4.427   3.541   4.580  1.5283  1.3119 -0.6894
   78OSM    C1F 6975   5.602   3.779   6.087  0.1856 -0.3045  0.4029
   78OSM     OF 6976   5.680   3.734   6.176  0.0374  0.1377 -0.1035
   78OSM    C2F 6977   5.650   3.870   5.979  0.7469  0.5389  0.0774
   78OSM    H2F 6978   5.732   3.933   6.020  0.1935  0.1681  1.8376
   78OSM    H2G 6979   5.572   3.935   5.933  0.2702 -0.7309 -0.9744
   78OSM    C3F 6980   5.700   3.773   5.867 -0.3919 -0.1858 -0.5269
   78OSM    H3F 6981   5.766   3.704   5.923  1.1174  1.9956  0.5548
   78OSM    H3G 6982   5.750   3.838   5.791  1.0539  1.6557  1.8603
   78OSM    C4F 6983   5.596   3.690   5.797  0.3046  0.4222 -0.3383
   78OSM    H4F 6984   5.516   3.762   5.769  1.2524  1.6868  0.1307
   78OSM    H4G 6985   5.547   3.613   5.860  1.8485 -0.7698 -0.5382
   78OSM    C5F 6986   5.663   3.622   5.680 -0.1445  0.3711  0.4620
   78OSM    H5F 6987   5.731   3.540   5.712  0.5013  1.4197  1.8924
   78OSM    H5G 6988   5.724   3.696   5.623 -1.5439  0.8035 -0.5352
   78OSM    C6F 6989   5.570   3.557   5.575  0.5058 -1.2432  0.0669
   78OSM    H6F 6990   5.505   3.637   5.534  2.1246 -0.6663 -1.4630
   78OSM    H6G 6991   5.507   3.487   5.635  0.0140 -1.1218 -0.2952
   78OSM    C7F 6992   5.636   3.481   5.457 -0.3878 -0.0964 -0.3800
   78OSM    H7F 6993   5.702   3.399   5.492 -0.3894 -0.4394 -1.1556
   78OSM    H7G 6994   5.685   3.554   5.389  1.6759  0.7700  1.9133
   78OSM    C8F 6995   5.528   3.407   5.389 -0.2493  0.7010  0.0943
   78OSM    H8F 6996   5.441   3.474   5.372 -1.3003 -0.6523  0.0030
   78OSM    H8G 6997   5.500   3.324   5.457  0.6546  0.5242  0.2657
   78OSM    C9F 6998   5.569   3.345   5.254  0.2949 -0.7925 -0.7808
   78OSM    H9F 6999   5.622   3.250   5.274 -1.8932 -2.1404 -1.0592
   78OSM   C10F 7000   5.532   3.388   5.130 -0.3920  0.5154  0.1916
   78OSM   H10F 7001   5.562   3.328   5.043 -1.7806 -0.1682  0.1633
   78OSM   C11F 7002   5.455   3.512   5.107  0.2818  0.1019  0.4041
   78OSM   H11F 7003   5.507   3.573   5.030 -0.0253  0.3985  0.4277
   78OSM   H11G 7004   5.437   3.580   5.192  0.8358  0.6288  0.1040
   78OSM   C12F 7005   5.312   3.481   5.053 -0.0338  0.4578 -0.1937
   78OSM   H12F 7006   5.249   3.454   5.141 -1.7398  2.5717 -0.7003
   78OSM   H12G 7007   5.310   3.399   4.978 -1.6931 -0.1886  0.5062
   78OSM   C13F 7008   5.265   3.602   4.980  0.4981 -0.6072 -0.0015
   78OSM   H13F 7009   5.355   3.632   4.921  0.8596 -1.6888 -0.0389
   78OSM   H13G 7010   5.227   3.670   5.058 -2.3800  0.4346 -2.1538
   78OSM   C14F 7011   5.146   3.578   4.880  0.4667  0.0698 -0.0507
   78OSM   H14F 7012   5.067   3.528   4.939  1.5653 -1.2282  0.3911
   78OSM   H14G 7013   5.178   3.505   4.802  3.0406 -1.1323  1.9553
   78OSM   C15F 7014   5.100   3.715   4.829  0.4364 -0.0869  0.4233
   78OSM   H15F 7015   5.094   3.790   4.911  1.2446 -1.1699  1.5240
   78OSM   H15G 7016   4.998   3.705   4.787  0.1096 -1.3820  1.4554
   78OSM   C16F 7017   5.195   3.747   4.711 -0.0447  0.5819 -0.2525
   78OSM   H16F 7018   5.196   3.657   4.646  1.1588 -1.6186  2.5877
   78OSM   H16G 7019   5.299   3.757   4.750  0.6884  2.2013 -2.4557
   78OSM   C17F 7020   5.167   3.879   4.628 -0.4562 -0.6393 -0.4090
   78OSM   H17F 7021   5.262   3.891   4.571  0.3859  0.2511  1.1067
   78OSM   H17G 7022   5.167   3.967   4.697  0.0138 -1.3063  0.4659
   78OSM   C18F 7023   5.042   3.872   4.542  0.2054 -0.0156 -0.0008
   78OSM   H18F 7024   5.017   3.977   4.517  1.2311  0.2538  0.0663
   78OSM   H18G 7025   4.957   3.828   4.599 -1.7949  1.7729 -1.4385
   78OSM   H18H 7026   5.054   3.819   4.445 -2.0698  1.4977 -1.2058
   79OSM      N 7027   3.756   0.260   1.753 -0.2977 -0.0528 -0.1622
   79OSM    C15 7028   3.640   0.251   1.664  0.2064 -0.2178  0.3860
   79OSM   H15A 7029   3.606   0.352   1.644  0.8748 -0.3510 -1.7298
   79OSM   H15B 7030   3.552   0.194   1.693 -2.3495  3.2694  0.1280
   79OSM   H15C 7031   3.663   0.214   1.565  1.0710  1.8035 -0.2231
   79OSM    C14 7032   3.778   0.118   1.805 -0.6505  0.0752  0.1761
   79OSM   H14A 7033   3.802   0.052   1.723 -0.9490  2.0141 -1.5725
   79OSM   H14B 7034   3.701   0.077   1.868 -0.4526  0.6807  0.8311
   79OSM   H14C 7035   3.868   0.112   1.865  0.3426 -1.6027 -1.4112
   79OSM    C13 7036   3.875   0.298   1.674 -0.5986 -0.0425  0.0845
   79OSM   H13A 7037   3.877   0.232   1.589 -1.8066 -0.0653  0.0660
   79OSM   H13B 7038   3.963   0.290   1.737 -1.1238 -1.6264  0.6542
   79OSM   H13C 7039   3.875   0.400   1.638  1.2918  0.2907  0.9169
   79OSM    C12 7040   3.723   0.360   1.864  0.5680  0.7696  0.2952
   79OSM   H12A 7041   3.792   0.358   1.947 -0.6657 -0.4036  1.3221
   79OSM   H12B 7042   3.624   0.328   1.891  0.2807  0.5386 -0.9601
   79OSM    C11 7043   3.723   0.506   1.823  0.0357  0.5839  0.4079
   79OSM   H11A 7044   3.827   0.534   1.797  0.1374 -0.6541 -0.6178
   79OSM   H11B 7045   3.686   0.566   1.909  0.5333  2.1859 -0.4467
   79OSM      P 7046   3.592   0.673   1.672  0.1339 -0.3223  0.5567
   79OSM    O13 7047   3.701   0.762   1.616  0.4777 -0.3070  0.4980
   79OSM    O14 7048   3.465   0.671   1.601  0.3438 -0.3600 -0.1354
   79OSM    O11 7049   3.564   0.733   1.819 -1.0863 -0.6238  0.3023
   79OSM    O12 7050   3.643   0.534   1.707  0.4960  0.2352 -0.3081
   79OSM    C1S 7051   3.430   0.706   1.878 -0.3940 -0.3194 -0.3391
   79OSM    H1S 7052   3.422   0.598   1.906 -0.2415 -0.0913  0.6005
   79OSM    H1T 7053   3.354   0.705   1.797  0.1368  1.6446 -0.9021
   79OSM     NF 7054   3.262   0.750   2.057 -0.0879 -0.8656 -0.6426
   79OSM    HNF 7055   3.173   0.790   2.038 -0.9798 -2.3309  0.2145
   79OSM    C2S 7056   3.384   0.805   1.988  0.5139  0.5511 -0.8497
   79OSM    H2S 7057   3.460   0.802   2.068 -0.6051 -2.0764  0.2098
   79OSM    C3S 7058   3.374   0.949   1.927  0.3201  0.2287 -0.3222
   79OSM    H3S 7059   3.292   0.943   1.853 -0.7770  1.2006  0.7550
   79OSM     O3 7060   3.487   1.011   1.861  0.3000 -0.1310  0.4495
   79OSM    HO3 7061   3.545   0.936   1.852 -0.6251 -1.1269  2.3434
   79OSM    C4S 7062   3.329   1.051   2.032 -0.1330  0.1013 -1.6325
   79OSM    H4S 7063   3.393   1.074   2.119 -0.1410  1.5260 -1.9731
   79OSM    C5S 7064   3.211   1.118   2.020 -0.3342 -0.4342  0.4773
   79OSM    H5S 7065   3.145   1.085   1.939 -0.8984  0.8479  0.3928
   79OSM    C6S 7066   3.166   1.230   2.106  0.6843  0.1539 -0.5540
   79OSM    H6S 7067   3.056   1.219   2.119  0.8645 -2.1929 -0.4456
   79OSM    H6T 7068   3.197   1.324   2.056 -0.7055  1.4653  0.9126
   79OSM    C7S 7069   3.223   1.242   2.249 -0.0988  0.0358  0.3202
   79OSM    H7S 7070   3.187   1.333   2.302 -0.6772  0.3468 -0.5971
   79OSM    H7T 7071   3.333   1.259   2.242 -0.0724  0.4669  1.5092
   79OSM    C8S 7072   3.184   1.117   2.336 -0.1862 -0.4438  0.3403
   79OSM    H8S 7073   3.225   1.025   2.288 -2.2594  0.3184 -3.2539
   79OSM    H8T 7074   3.074   1.104   2.332 -0.1437 -0.8101  0.3281
   79OSM    C9S 7075   3.247   1.127   2.470  0.2791 -0.1197  0.1215
   79OSM    H9S 7076   3.192   1.059   2.539  1.9723 -1.4017  0.2596
   79OSM    H9T 7077   3.236   1.229   2.512 -0.1835 -0.7679  1.6515
   79OSM   C10S 7078   3.396   1.078   2.477 -0.2147  0.5028  0.2507
   79OSM   H10S 7079   3.470   1.128   2.410 -0.7304 -0.5661 -1.1368
   79OSM   H10T 7080   3.409   0.976   2.437 -1.0574  0.2974  0.4932
   79OSM   C11S 7081   3.441   1.064   2.618 -0.7814  0.2791 -0.6531
   79OSM   H11S 7082   3.519   0.988   2.635 -1.7848 -0.5651  0.2661
   79OSM   H11T 7083   3.355   1.037   2.683 -0.8999 -2.0872 -1.7128
   79OSM   C12S 7084   3.489   1.195   2.676  0.2315 -0.1026  0.0514
   79OSM   H12S 7085   3.402   1.264   2.683  0.2527 -0.0133 -0.5223
   79OSM   H12T 7086   3.566   1.242   2.612  0.4121  2.0217  1.7271
   79OSM   C13S 7087   3.534   1.197   2.823 -0.4354 -0.4941 -0.6555
   79OSM   H13S 7088   3.636   1.154   2.819 -0.0249  0.2899  0.9133
   79OSM   H13T 7089   3.479   1.123   2.885 -0.5132  0.5788  0.5756
   79OSM   C14S 7090   3.539   1.333   2.888  0.4562 -0.5997 -0.4217
   79OSM   H14S 7091   3.440   1.378   2.912  1.8821  0.9578  3.3997
   79OSM   H14T 7092   3.571   1.406   2.810 -1.5205  0.7254 -0.0657
   79OSM   C15S 7093   3.633   1.348   3.014  0.4477  0.3145 -0.0640
   79OSM   H15S 7094   3.602   1.449   3.049  2.0252  0.7434  0.1548
   79OSM   H15T 7095   3.740   1.356   2.986  0.6096 -1.0906  0.1147
   79OSM   C16S 7096   3.624   1.247   3.135 -0.4483  0.1949  0.3490
   79OSM   H16S 7097   3.651   1.145   3.099 -2.0334 -0.6029  1.3414
   79OSM   H16T 7098   3.517   1.234   3.161 -0.3974  0.4086  0.6611
   79OSM   C17S 7099   3.692   1.288   3.267 -0.3557 -0.8948  0.3497
   79OSM   H17S 7100   3.790   1.337   3.251 -0.2887 -1.7875 -2.4230
   79OSM   H17T 7101   3.719   1.203   3.334 -0.6655 -0.4348  1.0718
   79OSM   C18S 7102   3.612   1.382   3.357  0.4792  0.0041  0.6344
   79OSM   H18S 7103   3.521   1.330   3.394  0.3967 -0.2474  0.0998
   79OSM   H18T 7104   3.575   1.474   3.306  1.1139 -1.3762 -2.6087
   79OSM   H18U 7105   3.661   1.424   3.447  0.5413  1.6110 -0.1207
   79OSM    C1F 7106   3.277   0.653   2.152 -0.5730 -0.2485  0.1549
   79OSM     OF 7107   3.383   0.613   2.189 -0.2377  0.8090  0.4821
   79OSM    C2F 7108   3.149   0.593   2.201  1.0414  0.4159  0.1963
   79OSM    H2F 7109   3.166   0.488   2.234  1.0363  0.0914 -0.7801
   79OSM    H2G 7110   3.066   0.596   2.128  1.1100 -3.1772 -0.2063
   79OSM    C3F 7111   3.102   0.671   2.321 -0.0991  0.6838  0.1646
   79OSM    H3F 7112   3.011   0.625   2.364 -1.7379  1.7617 -1.9957
   79OSM    H3G 7113   3.071   0.774   2.294  0.1894  0.0409 -2.8851
   79OSM    C4F 7114   3.201   0.676   2.447 -0.2356 -0.1980  0.3109
   79OSM    H4F 7115   3.296   0.719   2.409 -0.3276 -0.5238 -0.3002
   79OSM    H4G 7116   3.212   0.570   2.479 -1.9235 -0.4814  0.0740
   79OSM    C5F 7117   3.136   0.738   2.568  0.4156 -0.1573 -0.3478
   79OSM    H5F 7118   3.049   0.679   2.603  0.6961  0.1403  0.9016
   79OSM    H5G 7119   3.108   0.845   2.551  1.5820  0.5053  1.6534
   79OSM    C6F 7120   3.225   0.719   2.692  0.5245 -0.8501  0.0693
   79OSM    H6F 7121   3.328   0.753   2.667  0.4384 -0.7856 -0.2069
   79OSM    H6G 7122   3.232   0.610   2.713 -1.0983 -0.7512  1.2327
   79OSM    C7F 7123   3.174   0.800   2.809 -0.6129  0.6542  0.6617
   79OSM    H7F 7124   3.097   0.737   2.858 -1.4519  0.9683 -0.2164
   79OSM    H7G 7125   3.140   0.903   2.784  2.1818  2.0155  2.0269
   79OSM    C8F 7126   3.283   0.815   2.906  0.7636 -0.4567 -0.6468
   79OSM    H8F 7127   3.359   0.882   2.862  1.1469 -0.4254  0.0445
   79OSM    H8G 7128   3.333   0.717   2.927 -0.1594 -1.2534 -2.0104
   79OSM    C9F 7129   3.245   0.873   3.043 -0.0714  0.4149 -0.0681
   79OSM    H9F 7130   3.179   0.961   3.038  0.0449  0.4520 -1.2037
   79OSM   C10F 7131   3.309   0.849   3.160 -0.2959  0.2393 -0.9396
   79OSM   H10F 7132   3.281   0.904   3.251 -1.9998 -1.9563 -0.0526
   79OSM   C11F 7133   3.422   0.748   3.180  0.0127  0.7459  0.6689
   79OSM   H11F 7134   3.513   0.804   3.213 -0.1534  1.3034  0.1968
   79OSM   H11G 7135   3.455   0.687   3.094 -1.9594 -2.7499  2.1996
   79OSM   C12F 7136   3.390   0.635   3.286  0.0731 -0.4642  0.6573
   79OSM   H12F 7137   3.474   0.563   3.290  2.1021  1.6936 -0.6121
   79OSM   H12G 7138   3.307   0.573   3.246 -0.5852  1.5486 -1.3246
   79OSM   C13F 7139   3.357   0.700   3.426 -1.1982 -0.1176  0.2133
   79OSM   H13F 7140   3.255   0.742   3.422 -0.9751  0.3174 -1.2648
   79OSM   H13G 7141   3.427   0.783   3.449  0.6516 -1.2574 -0.9999
   79OSM   C14F 7142   3.373   0.599   3.540 -0.4555  0.4253  0.4353
   79OSM   H14F 7143   3.482   0.585   3.559 -0.6883  0.2944  1.7817
   79OSM   H14G 7144   3.338   0.499   3.505 -0.2219  0.5173 -0.0648
   79OSM   C15F 7145   3.294   0.639   3.668  0.5901  0.1023  0.7156
   79OSM   H15F 7146   3.185   0.648   3.649  0.3335 -1.7254  1.1671
   79OSM   H15G 7147   3.327   0.739   3.705 -0.6406  1.0980 -0.7482
   79OSM   C16F 7148   3.337   0.530   3.768  0.4114 -0.0587 -0.1713
   79OSM   H16F 7149   3.448   0.528   3.762  0.4995  0.6959  0.9787
   79OSM   H16G 7150   3.291   0.439   3.723  2.4470 -0.9964 -0.4533
   79OSM   C17F 7151   3.278   0.542   3.904 -0.0402  0.9844  0.3682
   79OSM   H17F 7152   3.305   0.454   3.966  2.3804  2.0780  0.9947
   79OSM   H17G 7153   3.168   0.545   3.889  0.1407 -0.1038 -1.6829
   79OSM   C18F 7154   3.330   0.653   3.994  0.3707  0.4951 -0.1178
   79OSM   H18F 7155   3.437   0.668   4.018  0.8926  0.0824 -1.9901
   79OSM   H18G 7156   3.276   0.639   4.090  0.3112 -3.7600 -0.5740
   79OSM   H18H 7157   3.290   0.746   3.949 -4.0200 -1.8755 -1.7102
   80OSM      N 7158   0.757   1.440   2.119  0.2891 -0.7619  0.1046
   80OSM    C15 7159   0.868   1.498   2.044 -0.5618 -0.1351  0.0623
   80OSM   H15A 7160   0.899   1.588   2.095  0.3062  1.1190 -2.5433
   80OSM   H15B 7161   0.855   1.523   1.940  2.5623 -3.4295 -1.3456
   80OSM   H15C 7162   0.958   1.440   2.060 -0.4725 -0.0327 -0.0649
   80OSM    C14 7163   0.628   1.512   2.101 -0.2805 -0.3028  0.3955
   80OSM   H14A 7164   0.608   1.514   1.995  2.3856  1.0483 -0.1647
   80OSM   H14B 7165   0.637   1.616   2.129 -0.3288  0.2022 -1.3396
   80OSM   H14C 7166   0.545   1.467   2.153 -0.9011 -0.7437 -0.9297
   80OSM    C13 7167   0.744   1.292   2.081 -0.2448  0.3596  0.2787
   80OSM   H13A 7168   0.754   1.274   1.975 -1.3053 -0.3749  0.2762
   80OSM   H13B 7169   0.652   1.253   2.123 -1.0659  1.7265 -0.1635
   80OSM   H13C 7170   0.830   1.239   2.119  1.8920  2.5381 -1.2067
   80OSM    C12 7171   0.779   1.434   2.275  0.6109 -0.7468  0.7265
   80OSM   H12A 7172   0.873   1.383   2.288  0.3669 -1.5371 -0.4907
   80OSM   H12B 7173   0.691   1.382   2.312 -1.1909 -1.2898 -3.7192
   80OSM    C11 7174   0.792   1.562   2.347 -0.3710 -0.3035 -0.2114
   80OSM   H11A 7175   0.809   1.545   2.456 -2.2325 -0.3230  0.0993
   80OSM   H11B 7176   0.707   1.632   2.335 -0.2638  0.1490  1.4365
   80OSM      P 7177   1.046   1.627   2.327  0.2982  0.3578  0.5492
   80OSM    O13 7178   1.087   1.481   2.326 -0.0939 -0.1189 -0.8095
   80OSM    O14 7179   1.123   1.726   2.251 -0.6272 -0.3647 -0.3467
   80OSM    O11 7180   1.045   1.668   2.478 -0.0677 -0.4241 -0.5334
   80OSM    O12 7181   0.895   1.639   2.287  0.1380  0.0944 -0.3014
   80OSM    C1S 7182   0.978   1.786   2.525  0.4904  0.1101  0.1825
   80OSM    H1S 7183   0.877   1.793   2.480 -0.9872  1.0359  3.3557
   80OSM    H1T 7184   1.040   1.870   2.486  1.6338 -0.4285  0.7966
   80OSM     NF 7185   0.891   1.900   2.725 -0.3791  0.1367 -0.0190
   80OSM    HNF 7186   0.940   1.983   2.749 -2.7605  1.7392 -0.3736
   80OSM    C2S 7187   0.981   1.796   2.679 -0.0560 -0.0920  0.1865
   80OSM    H2S 7188   0.943   1.697   2.712  1.2413 -0.0257  2.0288
   80OSM    C3S 7189   1.121   1.800   2.737  0.3524 -0.2596 -0.5183
   80OSM    H3S 7190   1.160   1.893   2.690 -1.5128  0.0447 -1.5635
   80OSM     O3 7191   1.199   1.692   2.711 -0.2946  0.5737  0.2577
   80OSM    HO3 7192   1.151   1.659   2.635  0.4017  2.3572 -1.0406
   80OSM    C4S 7193   1.121   1.817   2.885 -0.1011 -0.4711 -0.2726
   80OSM    H4S 7194   1.041   1.764   2.937 -1.7246  1.4632 -0.6759
   80OSM    C5S 7195   1.222   1.880   2.951  0.1606 -0.1373 -0.5677
   80OSM    H5S 7196   1.294   1.936   2.889  0.2784  2.7769  1.9967
   80OSM    C6S 7197   1.235   1.907   3.101  0.5448  0.5661  0.2316
   80OSM    H6S 7198   1.226   2.017   3.116  0.7050  0.7325 -0.8078
   80OSM    H6T 7199   1.335   1.877   3.138 -1.3335 -1.5786  4.2189
   80OSM    C7S 7200   1.134   1.831   3.193 -0.5386  0.1506 -0.4274
   80OSM    H7S 7201   1.151   1.722   3.184  0.1883  0.0325  1.6865
   80OSM    H7T 7202   1.030   1.861   3.168 -1.1537 -1.4285  0.1092
   80OSM    C8S 7203   1.157   1.871   3.343  0.1008  0.1279  0.0391
   80OSM    H8S 7204   1.186   1.978   3.360 -1.4727  0.6292 -0.2776
   80OSM    H8T 7205   1.241   1.816   3.390 -0.5597 -1.0378 -0.1308
   80OSM    C9S 7206   1.031   1.844   3.430 -0.5282 -0.3694  0.1952
   80OSM    H9S 7207   0.995   1.739   3.433 -2.9335  0.2971 -1.9845
   80OSM    H9T 7208   0.939   1.901   3.408 -0.9347 -1.5815 -1.4223
   80OSM   C10S 7209   1.070   1.880   3.583  0.0261 -0.3194  0.6193
   80OSM   H10S 7210   1.085   1.988   3.601 -2.5394  0.0003  1.1216
   80OSM   H10T 7211   1.170   1.835   3.604  0.8768  1.7253  1.2051
   80OSM   C11S 7212   0.966   1.841   3.682  0.3074  0.2766 -0.6007
   80OSM   H11S 7213   0.906   1.754   3.650  0.0845 -0.2545  1.1672
   80OSM   H11T 7214   0.892   1.923   3.673  1.5346  1.3826 -1.0737
   80OSM   C12S 7215   1.026   1.819   3.818  0.6070 -0.0093  0.6446
   80OSM   H12S 7216   1.082   1.912   3.842 -2.1127  1.5729  1.3976
   80OSM   H12T 7217   1.098   1.735   3.815 -2.5735 -2.9665  0.2140
   80OSM   C13S 7218   0.922   1.789   3.928  0.1797 -0.4517 -0.6316
   80OSM   H13S 7219   0.870   1.691   3.925 -0.5393 -0.0663 -0.8676
   80OSM   H13T 7220   0.836   1.860   3.922 -0.9628 -1.8947 -2.4401
   80OSM   C14S 7221   1.002   1.795   4.059  0.5205 -0.2301  0.3572
   80OSM   H14S 7222   1.088   1.727   4.040  2.5418  2.1669  0.5762
   80OSM   H14T 7223   0.929   1.755   4.133 -1.3769  0.3959 -1.1015
   80OSM   C15S 7224   1.035   1.937   4.103 -0.3414  0.5798  0.1807
   80OSM   H15S 7225   0.945   2.001   4.111  0.1903  1.7357 -2.1568
   80OSM   H15T 7226   1.091   1.982   4.018 -0.9217  0.4371 -0.2866
   80OSM   C16S 7227   1.134   1.960   4.217  0.0758 -0.5517 -0.0103
   80OSM   H16S 7228   1.174   2.063   4.204 -0.1739 -0.3384  0.8082
   80OSM   H16T 7229   1.223   1.895   4.209 -0.6517 -1.3734 -2.0205
   80OSM   C17S 7230   1.070   1.959   4.354 -0.0586 -0.1562  0.9199
   80OSM   H17S 7231   1.015   1.864   4.371  1.4592 -1.0047  1.3388
   80OSM   H17T 7232   0.989   2.034   4.355  1.1423  1.1795  1.2580
   80OSM   C18S 7233   1.169   1.973   4.468 -0.4295 -0.6272 -0.9103
   80OSM   H18S 7234   1.253   1.901   4.470  0.7733  0.7353  1.0883
   80OSM   H18T 7235   1.118   1.951   4.565 -2.3425  0.8914 -1.4913
   80OSM   H18U 7236   1.212   2.074   4.482  0.4895 -1.0817 -0.3897
   80OSM    C1F 7237   0.759   1.902   2.711  0.5554  0.6848 -0.5418
   80OSM     OF 7238   0.700   1.809   2.667 -0.2872  0.4275 -0.3583
   80OSM    C2F 7239   0.685   2.028   2.751  0.8611 -0.7439 -0.2693
   80OSM    H2F 7240   0.620   2.063   2.669  0.0229 -3.9239 -1.0973
   80OSM    H2G 7241   0.753   2.111   2.781  0.7017 -0.5560 -0.4270
   80OSM    C3F 7242   0.582   1.994   2.868 -0.0314 -0.3983 -0.3241
   80OSM    H3F 7243   0.518   1.909   2.838  0.0369  0.0759 -1.8788
   80OSM    H3G 7244   0.520   2.086   2.877 -0.4224 -0.8500  3.2327
   80OSM    C4F 7245   0.652   1.962   3.005  0.2791  0.2271 -0.4817
   80OSM    H4F 7246   0.722   2.044   3.034  1.8818 -1.5554  1.0299
   80OSM    H4G 7247   0.707   1.866   2.993 -1.7589 -1.0419 -0.1357
   80OSM    C5F 7248   0.560   1.935   3.122 -0.0538  1.0458  0.2453
   80OSM    H5F 7249   0.497   1.850   3.089  1.2438 -0.0689  0.5308
   80OSM    H5G 7250   0.502   2.024   3.155  0.8479  0.6360  3.2665
   80OSM    C6F 7251   0.631   1.884   3.249 -0.4035  0.3067  0.2763
   80OSM    H6F 7252   0.675   1.971   3.301 -0.6492  0.4589  0.2296
   80OSM    H6G 7253   0.724   1.828   3.221 -0.1652 -0.0006  1.6091
   80OSM    C7F 7254   0.547   1.806   3.342  0.5129  0.0776 -0.0202
   80OSM    H7F 7255   0.610   1.778   3.429 -0.4134 -0.5463  0.4765
   80OSM    H7G 7256   0.524   1.706   3.300 -1.3236 -0.1545  1.3884
   80OSM    C8F 7257   0.419   1.885   3.386 -0.4860  0.4254  0.3698
   80OSM    H8F 7258   0.357   1.823   3.454  0.4138 -0.8263  0.0723
   80OSM    H8G 7259   0.350   1.904   3.301  0.7437  1.4334 -0.4422
   80OSM    C9F 7260   0.452   2.024   3.439  0.2191 -0.0861 -0.3851
   80OSM    H9F 7261   0.459   2.103   3.363 -2.4081  0.2416 -0.3648
   80OSM   C10F 7262   0.454   2.054   3.571 -1.0309  0.1576  0.5239
   80OSM   H10F 7263   0.479   2.159   3.595  2.3426 -0.2248 -0.7506
   80OSM   C11F 7264   0.427   1.957   3.681 -0.1098  0.0208  0.7347
   80OSM   H11F 7265   0.354   1.882   3.644  1.8249 -0.2489 -3.1341
   80OSM   H11G 7266   0.384   2.008   3.769 -2.6897  0.3953 -0.6560
   80OSM   C12F 7267   0.552   1.868   3.713 -0.1120  0.0773  0.7059
   80OSM   H12F 7268   0.638   1.929   3.748 -1.0535  1.0281  1.4079
   80OSM   H12G 7269   0.583   1.815   3.620 -0.5072  0.6522  0.2442
   80OSM   C13F 7270   0.526   1.768   3.829  0.2618 -0.0043 -0.5010
   80OSM   H13F 7271   0.626   1.721   3.837  0.2063  0.1765  2.1947
   80OSM   H13G 7272   0.459   1.682   3.811  0.1181  0.1302 -0.6156
   80OSM   C14F 7273   0.484   1.836   3.963  0.3441 -0.0453  0.3403
   80OSM   H14F 7274   0.374   1.856   3.960  0.6355  1.9543  1.2375
   80OSM   H14G 7275   0.516   1.940   3.985 -0.6719  0.6770 -1.3834
   80OSM   C15F 7276   0.513   1.745   4.080  0.2362  0.0496  0.2772
   80OSM   H15F 7277   0.621   1.729   4.100 -0.1886 -2.2309  0.9614
   80OSM   H15G 7278   0.468   1.646   4.060  0.1213  0.5676 -2.2443
   80OSM   C16F 7279   0.468   1.802   4.219  0.1661  0.4096 -0.3297
   80OSM   H16F 7280   0.361   1.831   4.211  0.0761  0.1640 -0.0587
   80OSM   H16G 7281   0.526   1.895   4.237  1.3124 -0.3550  0.1019
   80OSM   C17F 7282   0.494   1.696   4.324  0.5799  0.3351  0.3313
   80OSM   H17F 7283   0.603   1.695   4.343  0.5686  2.5231  0.7271
   80OSM   H17G 7284   0.471   1.600   4.271 -0.5218  0.4258  0.6272
   80OSM   C18F 7285   0.424   1.706   4.465 -0.3129 -0.8517  0.0505
   80OSM   H18F 7286   0.317   1.688   4.444 -0.3896 -0.7223  0.3317
   80OSM   H18G 7287   0.436   1.812   4.497 -0.2879 -0.4972 -1.0912
   80OSM   H18H 7288   0.483   1.634   4.525  1.7987  1.0190  0.3639
   81OSM      N 7289   2.926   0.021   1.905  0.0670 -0.6223  0.4488
   81OSM    C15 7290   3.073   0.003   1.901 -0.0960 -0.1581  0.0991
   81OSM   H15A 7291   3.116   0.082   1.841 -0.4726 -0.1254 -0.1295
   81OSM   H15B 7292   3.094  -0.091   1.852  1.6616 -0.0849  0.6611
   81OSM   H15C 7293   3.114   0.002   2.001  0.5181 -0.4649 -0.1509
   81OSM    C14 7294   2.866  -0.105   1.969 -0.1812 -0.9395  0.0838
   81OSM   H14A 7295   2.891  -0.195   1.916  1.9920  0.2566 -1.0522
   81OSM   H14B 7296   2.758  -0.101   1.967 -0.1973  1.1412  1.5324
   81OSM   H14C 7297   2.901  -0.111   2.071 -1.8913 -2.2014  0.6504
   81OSM    C13 7298   2.899   0.140   1.986 -0.0684  0.0387  0.1741
   81OSM   H13A 7299   2.791   0.144   1.990 -0.1435  0.0615 -1.3566
   81OSM   H13B 7300   2.944   0.233   1.954 -1.7755  0.7194 -0.3730
   81OSM   H13C 7301   2.919   0.118   2.090  0.5590 -0.8380 -0.1180
   81OSM    C12 7302   2.870   0.041   1.763  0.1634 -0.0679  0.0392
   81OSM   H12A 7303   2.898  -0.048   1.710  1.3029 -1.1217  2.2711
   81OSM   H12B 7304   2.915   0.122   1.708  0.1532  1.1090  1.6928
   81OSM    C11 7305   2.715   0.053   1.752  0.7361  0.6590  0.4184
   81OSM   H11A 7306   2.685  -0.054   1.746  0.7976  0.6409  0.4275
   81OSM   H11B 7307   2.701   0.081   1.645  1.9304  0.1043  0.1061
   81OSM      P 7308   2.497   0.085   1.893 -0.1394 -0.1404 -0.3142
   81OSM    O13 7309   2.427   0.211   1.937 -0.1956  0.0943  0.8520
   81OSM    O14 7310   2.438   0.003   1.785 -0.6342 -0.0839 -0.2652
   81OSM    O11 7311   2.529  -0.003   2.030 -0.6839 -0.1633  0.2065
   81OSM    O12 7312   2.638   0.137   1.841 -0.7149 -0.2715 -0.6016
   81OSM    C1S 7313   2.578   0.067   2.141 -0.0350 -0.0623 -0.3717
   81OSM    H1S 7314   2.605   0.173   2.125  0.6949 -0.1125  0.4471
   81OSM    H1T 7315   2.671   0.016   2.173 -0.1571 -0.6289 -0.8911
   81OSM     NF 7316   2.542   0.146   2.369  0.0203 -0.1995  0.3103
   81OSM    HNF 7317   2.565   0.084   2.443 -3.0793 -0.8080  0.8938
   81OSM    C2S 7318   2.480   0.067   2.260 -0.2273 -0.1808 -0.5085
   81OSM    H2S 7319   2.387   0.117   2.226 -0.7260  0.5506  1.7413
   81OSM    C3S 7320   2.438  -0.069   2.315 -0.8383 -0.4434 -0.1476
   81OSM    H3S 7321   2.516  -0.104   2.386 -1.0250 -0.6560 -0.0457
   81OSM     O3 7322   2.421  -0.165   2.215  0.3461  0.1915  0.2641
   81OSM    HO3 7323   2.435  -0.126   2.128  1.0213 -2.8654 -1.1299
   81OSM    C4S 7324   2.322  -0.043   2.405  0.0584 -0.5898 -0.0923
   81OSM    H4S 7325   2.226  -0.017   2.358 -0.1507  0.8199  1.0580
   81OSM    C5S 7326   2.313  -0.053   2.543 -0.7251 -0.2627  0.4233
   81OSM    H5S 7327   2.407  -0.079   2.593 -0.0835 -1.5359 -1.3493
   81OSM    C6S 7328   2.194  -0.020   2.631  0.0435 -0.1559  0.1565
   81OSM    H6S 7329   2.116   0.026   2.568  2.5616  3.2620 -0.7385
   81OSM    H6T 7330   2.227   0.049   2.711  0.1926  0.6148 -0.5557
   81OSM    C7S 7331   2.124  -0.147   2.681  0.4573  0.2453 -0.0238
   81OSM    H7S 7332   2.114  -0.230   2.608  0.7148  1.1759 -1.1319
   81OSM    H7T 7333   2.031  -0.120   2.736  1.2017 -2.7771  3.1012
   81OSM    C8S 7334   2.196  -0.210   2.802  0.3342 -0.2431  0.1886
   81OSM    H8S 7335   2.306  -0.212   2.786 -0.0297  0.8761 -3.1386
   81OSM    H8T 7336   2.152  -0.312   2.810  0.4201 -0.3238 -0.3534
   81OSM    C9S 7337   2.162  -0.137   2.933 -0.1990  0.4116  0.1642
   81OSM    H9S 7338   2.052  -0.150   2.944  0.2691 -3.7228  1.6631
   81OSM    H9T 7339   2.186  -0.029   2.927  0.4049  0.4693  2.5131
   81OSM   C10S 7340   2.232  -0.194   3.062 -0.5318  0.4744  0.4228
   81OSM   H10S 7341   2.343  -0.179   3.065 -0.8356  3.0605  1.3332
   81OSM   H10T 7342   2.207  -0.302   3.054  1.7383 -0.0823  0.1132
   81OSM   C11S 7343   2.177  -0.138   3.187 -0.5305 -0.4480 -0.2926
   81OSM   H11S 7344   2.067  -0.127   3.181 -0.3337  0.8008 -2.4589
   81OSM   H11T 7345   2.208  -0.033   3.208 -2.1158 -0.4601  2.6957
   81OSM   C12S 7346   2.219  -0.232   3.306  0.8218 -0.1391 -0.7002
   81OSM   H12S 7347   2.329  -0.237   3.294  1.1228  1.0993  1.0789
   81OSM   H12T 7348   2.175  -0.331   3.283  0.1119 -0.9211  3.2993
   81OSM   C13S 7349   2.178  -0.193   3.447  0.8775  0.3712 -0.3592
   81OSM   H13S 7350   2.069  -0.212   3.462  0.7047  1.1826 -0.5784
   81OSM   H13T 7351   2.192  -0.084   3.456 -2.0761  0.7944  0.1764
   81OSM   C14S 7352   2.264  -0.262   3.556  0.0135  0.4276 -0.4595
   81OSM   H14S 7353   2.373  -0.263   3.536  0.4254  0.1856  1.6054
   81OSM   H14T 7354   2.234  -0.369   3.550  1.3065  0.0378 -0.3575
   81OSM   C15S 7355   2.221  -0.222   3.697  0.0533  0.0430 -0.2158
   81OSM   H15S 7356   2.265  -0.282   3.779 -0.6461  1.5450  1.3156
   81OSM   H15T 7357   2.111  -0.230   3.707 -0.0159  0.7769 -0.3344
   81OSM   C16S 7358   2.269  -0.074   3.726 -0.4504  0.0303 -0.5855
   81OSM   H16S 7359   2.177  -0.011   3.728 -0.5048 -0.0513 -0.4766
   81OSM   H16T 7360   2.342  -0.053   3.646 -1.5181 -0.6562 -1.7918
   81OSM   C17S 7361   2.356  -0.065   3.856 -0.1174  0.7026 -0.1510
   81OSM   H17S 7362   2.421   0.024   3.843  0.7636 -0.0902 -1.3504
   81OSM   H17T 7363   2.425  -0.150   3.873  0.2506  0.9043 -0.6000
   81OSM   C18S 7364   2.270  -0.050   3.986 -0.3649 -0.4008 -0.2207
   81OSM   H18S 7365   2.204   0.038   3.973 -3.2459 -2.0717  1.9008
   81OSM   H18T 7366   2.337  -0.033   4.073  1.0000  2.2702 -1.6831
   81OSM   H18U 7367   2.196  -0.130   4.009  0.4255 -0.7864  1.0764
   81OSM    C1F 7368   2.574   0.277   2.378  0.1891  0.4721  0.1689
   81OSM     OF 7369   2.562   0.348   2.282  0.5230 -0.0052 -0.0281
   81OSM    C2F 7370   2.638   0.324   2.510 -0.0433  0.3650 -0.1814
   81OSM    H2F 7371   2.744   0.293   2.513 -0.2088 -0.7062 -3.0206
   81OSM    H2G 7372   2.592   0.277   2.600 -0.3281 -0.6561 -0.8383
   81OSM    C3F 7373   2.618   0.473   2.536  0.1494  1.1111  0.3510
   81OSM    H3F 7374   2.510   0.493   2.523 -0.1008 -0.8868 -1.0231
   81OSM    H3G 7375   2.679   0.535   2.467  1.5418  0.2209  0.7318
   81OSM    C4F 7376   2.660   0.512   2.681 -0.2820  0.6827  0.2485
   81OSM    H4F 7377   2.587   0.466   2.751 -1.7275  0.7930 -1.1415
   81OSM    H4G 7378   2.658   0.621   2.703  1.0459  0.7458  0.1322
   81OSM    C5F 7379   2.804   0.475   2.729  0.1178 -1.3153 -0.1784
   81OSM    H5F 7380   2.875   0.509   2.651  0.6827 -0.0065  0.8580
   81OSM    H5G 7381   2.813   0.366   2.748 -2.0359 -1.3051  1.2570
   81OSM    C6F 7382   2.844   0.542   2.860 -0.3227  0.1725 -0.2060
   81OSM    H6F 7383   2.822   0.650   2.847 -1.2028  0.1288  0.7305
   81OSM    H6G 7384   2.953   0.529   2.877 -0.4507 -1.9323 -0.7062
   81OSM    C7F 7385   2.764   0.498   2.992  0.0100  0.2359  0.0709
   81OSM    H7F 7386   2.803   0.398   3.023 -2.8919 -0.7348  0.9005
   81OSM    H7G 7387   2.659   0.473   2.969  0.5474 -0.8319 -1.3417
   81OSM    C8F 7388   2.774   0.598   3.109  0.0473 -0.1768  0.1267
   81OSM    H8F 7389   2.707   0.573   3.194  0.4268 -2.4181 -0.1594
   81OSM    H8G 7390   2.748   0.698   3.069  2.5718 -0.1693 -1.7476
   81OSM    C9F 7391   2.920   0.596   3.160  0.2889 -0.0062  0.4172
   81OSM    H9F 7392   2.985   0.579   3.072 -0.1572 -1.9530  0.4239
   81OSM   C10F 7393   2.981   0.607   3.274  0.0623 -0.2089 -0.6209
   81OSM   H10F 7394   3.089   0.594   3.263  0.4399  3.4073 -2.4738
   81OSM   C11F 7395   2.915   0.628   3.404  0.3236  0.1583  0.4041
   81OSM   H11F 7396   2.805   0.638   3.392 -0.1116 -1.8579  2.0027
   81OSM   H11G 7397   2.947   0.725   3.447 -1.1394  1.1912 -0.7567
   81OSM   C12F 7398   2.943   0.519   3.513 -0.0851 -0.4869  0.7887
   81OSM   H12F 7399   3.054   0.524   3.524 -0.0715  2.3977  0.1403
   81OSM   H12G 7400   2.916   0.417   3.480  2.5766 -0.7846 -0.8321
   81OSM   C13F 7401   2.871   0.555   3.634  0.4492  0.4440  0.1298
   81OSM   H13F 7402   2.761   0.552   3.620  0.6153  0.6755 -1.4021
   81OSM   H13G 7403   2.898   0.659   3.663 -1.6428  0.6489  1.5773
   81OSM   C14F 7404   2.909   0.482   3.764 -0.3350  0.5422 -0.5150
   81OSM   H14F 7405   3.013   0.444   3.757 -0.1300 -0.2818  4.0475
   81OSM   H14G 7406   2.851   0.387   3.756  1.4729 -0.5138 -1.7979
   81OSM   C15F 7407   2.887   0.559   3.888  0.8745  0.5063 -0.3580
   81OSM   H15F 7408   2.782   0.587   3.906  1.2323  0.0946  3.0634
   81OSM   H15G 7409   2.936   0.657   3.909 -2.5252  1.5699  4.0890
   81OSM   C16F 7410   2.923   0.469   4.014 -0.1418 -0.1378 -0.2541
   81OSM   H16F 7411   3.031   0.442   4.010 -0.2426 -2.0473  4.2696
   81OSM   H16G 7412   2.868   0.373   4.013 -0.3359 -0.0723  1.2707
   81OSM   C17F 7413   2.882   0.549   4.141 -0.3354 -0.0273  0.3363
   81OSM   H17F 7414   2.773   0.567   4.131 -0.5653 -1.4532  0.1134
   81OSM   H17G 7415   2.923   0.653   4.134  1.1274 -0.6636 -1.4474
   81OSM   C18F 7416   2.924   0.471   4.268  0.3612  0.4591  0.3597
   81OSM   H18F 7417   3.033   0.489   4.284  0.4731  0.3381 -0.2227
   81OSM   H18G 7418   2.903   0.362   4.265  1.9179  0.0630  1.9250
   81OSM   H18H 7419   2.870   0.514   4.354  0.4484  0.4267  0.4313
   82OSM      N 7420   1.864   0.452   1.803 -0.5005  0.1576 -0.2435
   82OSM    C15 7421   1.877   0.323   1.879  0.2625 -0.5955 -0.0329
   82OSM   H15A 7422   1.819   0.251   1.822  0.6238  0.2542 -1.5485
   82OSM   H15B 7423   1.830   0.332   1.975 -0.6236  0.6301 -0.5527
   82OSM   H15C 7424   1.978   0.293   1.902 -0.1474 -1.8250  0.2244
   82OSM    C14 7425   1.914   0.440   1.662 -0.4940 -0.6484  0.2476
   82OSM   H14A 7426   1.899   0.533   1.609  2.2149 -0.3607 -0.1683
   82OSM   H14B 7427   1.869   0.356   1.611  1.8627 -1.1528 -1.1201
   82OSM   H14C 7428   2.020   0.425   1.668  0.0847  2.8922  1.1125
   82OSM    C13 7429   1.718   0.482   1.783 -0.3371 -0.1269 -0.3178
   82OSM   H13A 7430   1.677   0.502   1.881  0.9365 -0.6777  0.3493
   82OSM   H13B 7431   1.669   0.393   1.744  1.3403 -0.4479 -1.8156
   82OSM   H13C 7432   1.701   0.562   1.713  0.0666 -1.4695 -2.0202
   82OSM    C12 7433   1.939   0.555   1.879 -0.2742 -0.3192  0.1002
   82OSM   H12A 7434   1.927   0.647   1.824 -0.9416 -1.3191 -1.4783
   82OSM   H12B 7435   2.044   0.537   1.892 -0.2438  0.0156  0.3436
   82OSM    C11 7436   1.891   0.582   2.023  0.6607  0.3139  0.4584
   82OSM   H11A 7437   1.783   0.608   2.023  0.1242 -1.5894  2.2839
   82OSM   H11B 7438   1.943   0.670   2.066 -1.7582  1.3169  1.5087
   82OSM      P 7439   2.045   0.425   2.163 -0.0515 -0.7025  0.1649
   82OSM    O13 7440   2.029   0.291   2.219 -0.7408 -0.1445  0.1348
   82OSM    O14 7441   2.148   0.439   2.057 -0.0445 -0.1185 -0.2252
   82OSM    O11 7442   2.075   0.518   2.285 -0.9276 -0.4841  1.0666
   82OSM    O12 7443   1.903   0.470   2.111  0.1333 -0.6012 -0.4704
   82OSM    C1S 7444   1.988   0.505   2.399 -0.0044 -0.6264 -0.0177
   82OSM    H1S 7445   1.896   0.445   2.380 -0.2529  0.0726 -1.0680
   82OSM    H1T 7446   1.965   0.607   2.437 -2.1377 -0.8441 -0.5904
   82OSM     NF 7447   1.983   0.429   2.632 -0.0378 -0.0188 -0.5654
   82OSM    HNF 7448   1.982   0.508   2.692 -1.7194 -0.2413 -0.2684
   82OSM    C2S 7449   2.073   0.443   2.519  0.0746  0.7289  0.3946
   82OSM    H2S 7450   2.110   0.346   2.479 -1.8808  0.0863  0.0158
   82OSM    C3S 7451   2.198   0.529   2.552  0.5917  0.4153  0.4663
   82OSM    H3S 7452   2.176   0.635   2.575 -0.7831 -0.0750  1.5585
   82OSM     O3 7453   2.288   0.530   2.440  0.2230 -0.3423 -0.0740
   82OSM    HO3 7454   2.226   0.502   2.371  0.4311 -0.7667 -0.0916
   82OSM    C4S 7455   2.272   0.473   2.659 -0.7898 -0.0953  0.2875
   82OSM    H4S 7456   2.327   0.381   2.633  0.2801  1.2872 -2.7841
   82OSM    C5S 7457   2.261   0.506   2.788 -0.4083 -0.1636  0.3930
   82OSM    H5S 7458   2.191   0.586   2.816  0.4824  0.6009  0.5151
   82OSM    C6S 7459   2.320   0.430   2.900  1.0965  0.3832 -0.2617
   82OSM    H6S 7460   2.396   0.487   2.957 -0.1347 -0.6240  2.5498
   82OSM    H6T 7461   2.387   0.348   2.866  0.2667 -0.0806 -0.8353
   82OSM    C7S 7462   2.217   0.376   2.996  0.2152  0.1446  0.0082
   82OSM    H7S 7463   2.156   0.301   2.941  0.2743 -0.9381  1.3410
   82OSM    H7T 7464   2.157   0.459   3.038 -1.9891  0.0627 -2.7240
   82OSM    C8S 7465   2.281   0.297   3.113 -0.8736 -0.4335  0.1505
   82OSM    H8S 7466   2.376   0.243   3.093  1.5323  3.5822 -0.3290
   82OSM    H8T 7467   2.199   0.235   3.158  0.1306 -1.6540  0.3651
   82OSM    C9S 7468   2.335   0.399   3.221  0.3954  0.3846 -0.5886
   82OSM    H9S 7469   2.253   0.463   3.260  0.9919  0.1733  1.0826
   82OSM    H9T 7470   2.408   0.474   3.184  0.4924  0.9350  0.6703
   82OSM   C10S 7471   2.387   0.318   3.348 -1.0668  1.0498  0.5893
   82OSM   H10S 7472   2.478   0.263   3.317 -2.5729 -2.0495  1.2368
   82OSM   H10T 7473   2.313   0.236   3.365  0.7833 -1.6149 -2.9781
   82OSM   C11S 7474   2.403   0.390   3.488  0.4039 -0.3468  0.1531
   82OSM   H11S 7475   2.439   0.495   3.485  2.6360 -1.0106  1.2807
   82OSM   H11T 7476   2.479   0.328   3.539  1.1603 -0.4842 -1.0990
   82OSM   C12S 7477   2.274   0.396   3.571 -0.4231  0.4669 -0.0699
   82OSM   H12S 7478   2.237   0.292   3.581  2.7664 -0.6555  1.1104
   82OSM   H12T 7479   2.201   0.465   3.523  0.4661  1.0859 -0.5566
   82OSM   C13S 7480   2.290   0.458   3.710  0.3132  0.2075 -0.8034
   82OSM   H13S 7481   2.188   0.495   3.733 -1.2505 -3.0988 -1.8241
   82OSM   H13T 7482   2.372   0.532   3.703  1.0242 -0.7316 -3.6452
   82OSM   C14S 7483   2.316   0.338   3.813 -0.3735  0.1309 -0.9336
   82OSM   H14S 7484   2.392   0.274   3.762 -0.2439 -0.2945 -0.2228
   82OSM   H14T 7485   2.237   0.265   3.838  2.1669 -2.2118  0.8482
   82OSM   C15S 7486   2.373   0.370   3.945  0.1041  0.7045  0.2417
   82OSM   H15S 7487   2.468   0.422   3.925 -0.0898  0.7995 -0.4546
   82OSM   H15T 7488   2.393   0.273   3.996  3.0902  0.1539 -1.7549
   82OSM   C16S 7489   2.283   0.458   4.027  0.2478 -0.1789  0.3676
   82OSM   H16S 7490   2.182   0.421   4.002  0.0301 -1.0869  2.3616
   82OSM   H16T 7491   2.280   0.564   3.995 -0.1965 -0.3856 -0.2840
   82OSM   C17S 7492   2.304   0.432   4.177 -0.0752  0.5435  0.2076
   82OSM   H17S 7493   2.280   0.324   4.190 -0.4869  0.7303  1.1228
   82OSM   H17T 7494   2.220   0.482   4.229 -0.4791 -2.3118  2.6074
   82OSM   C18S 7495   2.437   0.484   4.231 -0.7296  0.2431  0.4806
   82OSM   H18S 7496   2.465   0.587   4.199 -1.3507  0.5840  1.0155
   82OSM   H18T 7497   2.514   0.423   4.179  1.1979  2.6584  0.2810
   82OSM   H18U 7498   2.465   0.472   4.337  3.5232 -0.3022 -0.5163
   82OSM    C1F 7499   1.903   0.323   2.652  1.0357  0.0928 -0.4552
   82OSM     OF 7500   1.881   0.242   2.566  0.1307  0.0790 -0.0704
   82OSM    C2F 7501   1.820   0.316   2.784  0.1883 -0.5375  0.1791
   82OSM    H2F 7502   1.724   0.370   2.773  0.6184  0.6957  1.9847
   82OSM    H2G 7503   1.883   0.369   2.858  1.6812  0.5464 -1.7652
   82OSM    C3F 7504   1.800   0.182   2.856  0.4344  1.1487 -0.3756
   82OSM    H3F 7505   1.883   0.109   2.848 -0.3851  0.1227  0.2701
   82OSM    H3G 7506   1.711   0.132   2.812  1.6471  0.1627 -1.8424
   82OSM    C4F 7507   1.757   0.202   2.999 -0.1108 -0.2077 -0.2176
   82OSM    H4F 7508   1.702   0.297   3.015  0.2967 -0.1231  0.7298
   82OSM    H4G 7509   1.852   0.210   3.057 -0.8160 -0.6384  1.0490
   82OSM    C5F 7510   1.685   0.087   3.058 -0.9459 -0.2082 -0.0372
   82OSM    H5F 7511   1.734  -0.004   3.015  1.4846 -0.1866  2.4272
   82OSM    H5G 7512   1.577   0.091   3.032 -1.2835 -2.5649  0.7345
   82OSM    C6F 7513   1.698   0.087   3.217  0.4921  1.1204 -0.0305
   82OSM    H6F 7514   1.619   0.159   3.246  0.8941  2.3091 -1.6783
   82OSM    H6G 7515   1.800   0.118   3.247  1.7422 -3.3137  0.9724
   82OSM    C7F 7516   1.660  -0.045   3.287 -0.6061  0.6217  0.3761
   82OSM    H7F 7517   1.563  -0.082   3.246 -0.6631  0.6344  0.5011
   82OSM    H7G 7518   1.630  -0.013   3.389 -1.7823  1.4398 -0.2020
   82OSM    C8F 7519   1.784  -0.135   3.289 -0.4784  0.6121 -0.1985
   82OSM    H8F 7520   1.857  -0.088   3.358  1.2003 -1.2859 -0.5751
   82OSM    H8G 7521   1.815  -0.133   3.182  0.1338  0.8676 -0.0190
   82OSM    C9F 7522   1.749  -0.273   3.344  0.2968 -0.2645  0.3448
   82OSM    H9F 7523   1.752  -0.351   3.267 -0.5664  0.9978 -1.0268
   82OSM   C10F 7524   1.696  -0.308   3.465 -1.0808 -0.1182 -0.3610
   82OSM   H10F 7525   1.663  -0.412   3.472  0.6359 -0.5915  1.8666
   82OSM   C11F 7526   1.661  -0.217   3.583  0.1393 -0.2326  0.5870
   82OSM   H11F 7527   1.552  -0.201   3.592 -0.2005 -2.1943  0.4603
   82OSM   H11G 7528   1.704  -0.115   3.582 -3.7653  1.6065  2.1258
   82OSM   C12F 7529   1.676  -0.277   3.720  0.6376  0.7472 -0.4470
   82OSM   H12F 7530   1.784  -0.298   3.731  0.2913 -0.2169  1.6525
   82OSM   H12G 7531   1.622  -0.373   3.733 -0.2508  1.4915  1.9515
   82OSM   C13F 7532   1.645  -0.190   3.846  0.3210  0.1903  0.5352
   82OSM   H13F 7533   1.541  -0.153   3.838  0.2880 -0.1169 -0.5211
   82OSM   H13G 7534   1.722  -0.110   3.853 -1.8782  2.5941 -1.0932
   82OSM   C14F 7535   1.655  -0.272   3.975  0.2932  0.0160  0.1362
   82OSM   H14F 7536   1.757  -0.317   3.981  0.4453  0.3773  0.3186
   82OSM   H14G 7537   1.588  -0.360   3.971 -0.1279  0.3561 -0.5131
   82OSM   C15F 7538   1.622  -0.196   4.100  0.0305  0.1774 -0.6850
   82OSM   H15F 7539   1.517  -0.164   4.112 -0.3141 -1.1511 -0.0147
   82OSM   H15G 7540   1.692  -0.109   4.096  3.8859 -2.5792  0.5602
   82OSM   C16F 7541   1.657  -0.271   4.233 -0.3787  0.1916 -0.4557
   82OSM   H16F 7542   1.758  -0.317   4.232 -1.5118 -2.5015  0.1696
   82OSM   H16G 7543   1.581  -0.344   4.269 -1.0823  0.3231 -1.6289
   82OSM   C17F 7544   1.655  -0.161   4.336  0.0822 -0.4557  0.2244
   82OSM   H17F 7545   1.553  -0.116   4.345  0.3853  0.5733 -1.1789
   82OSM   H17G 7546   1.725  -0.078   4.315 -0.6328 -0.1069 -0.8948
   82OSM   C18F 7547   1.696  -0.210   4.476  0.4653 -0.1755  0.1848
   82OSM   H18F 7548   1.629  -0.294   4.504  0.1595 -0.4069 -1.1309
   82OSM   H18G 7549   1.683  -0.132   4.554  1.3612  3.1698 -2.7134
   82OSM   H18H 7550   1.798  -0.254   4.481 -0.1001 -1.6773 -0.7103
   83OSM      N 7551   4.895   0.649   1.993 -0.0513  0.3571  0.3922
   83OSM    C15 7552   4.799   0.631   1.877  0.5884 -0.3525  0.3841
   83OSM   H15A 7553   4.853   0.668   1.790 -0.0057  1.3534  0.6967
   83OSM   H15B 7554   4.723   0.707   1.888  2.8165  1.6917  3.0290
   83OSM   H15C 7555   4.763   0.531   1.860  0.0380  0.1318 -1.6496
   83OSM    C14 7556   4.960   0.783   1.983  0.9880 -0.3362 -0.6861
   83OSM   H14A 7557   5.036   0.804   2.056 -1.4794  0.9680  1.6890
   83OSM   H14B 7558   4.887   0.863   1.986  0.6885 -0.6510  0.8234
   83OSM   H14C 7559   5.002   0.784   1.883 -0.3060 -0.2651 -1.2565
   83OSM    C13 7560   4.815   0.636   2.120 -0.0557 -0.0708  0.1531
   83OSM   H13A 7561   4.772   0.538   2.119  2.1503 -1.1587  1.8350
   83OSM   H13B 7562   4.737   0.710   2.128  0.5746  1.0799 -2.8767
   83OSM   H13C 7563   4.875   0.645   2.210 -1.4491 -0.1413  1.1199
   83OSM    C12 7564   5.006   0.550   1.984 -0.4559  0.5375  0.3280
   83OSM   H12A 7565   4.963   0.453   2.003 -1.9425  1.4460  1.9461
   83OSM   H12B 7566   5.067   0.574   2.070 -0.7302  0.6910  0.4807
   83OSM    C11 7567   5.105   0.547   1.865 -0.2039  0.1432 -0.0283
   83OSM   H11A 7568   5.051   0.522   1.772 -0.0987  0.1095 -0.0809
   83OSM   H11B 7569   5.182   0.469   1.885 -1.7212 -1.2927  0.4453
   83OSM      P 7570   5.230   0.724   1.708  0.2165 -0.1225 -0.4149
   83OSM    O13 7571   5.341   0.633   1.658 -0.3617 -0.5251 -0.2086
   83OSM    O14 7572   5.118   0.745   1.618 -0.0768  0.2862 -0.3043
   83OSM    O11 7573   5.301   0.866   1.733  0.1444 -0.2006 -0.0326
   83OSM    O12 7574   5.173   0.677   1.842 -0.3993  0.4143 -0.0097
   83OSM    C1S 7575   5.264   0.953   1.843 -0.1045  0.5269  0.1802
   83OSM    H1S 7576   5.153   0.949   1.855 -0.1014  2.0161  0.9829
   83OSM    H1T 7577   5.285   1.057   1.810  0.0800  0.5283  0.3000
   83OSM     NF 7578   5.325   1.053   2.059  0.2678 -0.1223  0.0321
   83OSM    HNF 7579   5.398   1.119   2.078 -1.3990  1.7344  0.2542
   83OSM    C2S 7580   5.346   0.936   1.977 -0.0850  0.5157 -0.0069
   83OSM    H2S 7581   5.288   0.853   2.022 -3.1588  0.5885 -3.4121
   83OSM    C3S 7582   5.500   0.890   1.966 -0.1767 -0.7855  0.4374
   83OSM    H3S 7583   5.554   0.962   1.902 -2.6665  0.3880 -0.4614
   83OSM     O3 7584   5.516   0.764   1.904 -0.0130 -0.3890  0.1671
   83OSM    HO3 7585   5.442   0.758   1.843  0.8300 -1.1807 -0.8250
   83OSM    C4S 7586   5.562   0.896   2.104  0.2426  0.3958 -0.1076
   83OSM    H4S 7587   5.626   0.984   2.122  0.0083  0.3360  1.1037
   83OSM    C5S 7588   5.547   0.813   2.209  0.3306 -0.8288 -0.7996
   83OSM    H5S 7589   5.482   0.724   2.211 -0.1990 -0.4557  2.0627
   83OSM    C6S 7590   5.616   0.841   2.343 -0.3067  0.4721  0.0454
   83OSM    H6S 7591   5.672   0.937   2.334  0.4115  0.0113 -0.5554
   83OSM    H6T 7592   5.698   0.767   2.352 -0.2285  0.5748  0.1858
   83OSM    C7S 7593   5.532   0.832   2.467  0.3512  0.1432 -0.1384
   83OSM    H7S 7594   5.482   0.733   2.466 -0.8124  0.7129 -0.3057
   83OSM    H7T 7595   5.451   0.908   2.460  2.0102  2.5214  3.3839
   83OSM    C8S 7596   5.609   0.859   2.595  0.0012  0.0028  0.3954
   83OSM    H8S 7597   5.676   0.946   2.577 -2.0848  1.5133 -0.4717
   83OSM    H8T 7598   5.665   0.769   2.628  1.5800  0.5794 -0.5754
   83OSM    C9S 7599   5.520   0.901   2.712  0.4134  0.1410  0.7616
   83OSM    H9S 7600   5.471   0.809   2.750  0.3693  0.3681  1.2597
   83OSM    H9T 7601   5.445   0.976   2.680 -2.5649 -2.0017  2.2519
   83OSM   C10S 7602   5.605   0.953   2.830  1.2130 -0.0987 -0.0713
   83OSM   H10S 7603   5.688   1.009   2.781  1.1206 -0.8411 -1.1081
   83OSM   H10T 7604   5.650   0.864   2.879  1.9125  0.1784 -0.1864
   83OSM   C11S 7605   5.535   1.019   2.949  0.7556  0.1782  1.2694
   83OSM   H11S 7606   5.442   0.970   2.983  0.2277  0.9494  0.9655
   83OSM   H11T 7607   5.504   1.118   2.909  0.1733 -0.0762  1.0833
   83OSM   C12S 7608   5.630   1.032   3.065  0.4737 -0.1330  0.1151
   83OSM   H12S 7609   5.732   1.066   3.037  0.3913 -0.2118 -0.2892
   83OSM   H12T 7610   5.652   0.931   3.107 -0.1748 -0.8243 -1.1705
   83OSM   C13S 7611   5.581   1.129   3.178  0.8565  0.1698  0.4029
   83OSM   H13S 7612   5.473   1.103   3.189 -0.3429  1.0857 -5.7425
   83OSM   H13T 7613   5.577   1.234   3.142 -0.9406 -0.1553 -0.4592
   83OSM   C14S 7614   5.660   1.123   3.309 -0.5039  0.3314  0.3454
   83OSM   H14S 7615   5.766   1.145   3.285  0.1726  0.4612  3.1254
   83OSM   H14T 7616   5.658   1.022   3.355 -3.5587  0.4205  0.6540
   83OSM   C15S 7617   5.625   1.226   3.411 -0.5332 -0.4692 -0.0374
   83OSM   H15S 7618   5.707   1.216   3.486  0.5440 -0.3858 -1.1828
   83OSM   H15T 7619   5.523   1.219   3.455 -1.9806  1.6071 -2.7526
   83OSM   C16S 7620   5.652   1.371   3.357  0.7791  0.5270 -0.2499
   83OSM   H16S 7621   5.554   1.407   3.319  1.0707  1.7120  0.1029
   83OSM   H16T 7622   5.727   1.380   3.276  0.4144  1.0062 -0.5362
   83OSM   C17S 7623   5.698   1.455   3.475 -0.2711 -0.5385 -0.9270
   83OSM   H17S 7624   5.685   1.561   3.444 -1.2929  0.0519  1.2887
   83OSM   H17T 7625   5.804   1.438   3.503 -0.2837 -0.6880 -0.9682
   83OSM   C18S 7626   5.605   1.435   3.598 -0.0007  0.0137  0.3495
   83OSM   H18S 7627   5.501   1.436   3.557  0.5479 -2.8849 -1.3949
   83OSM   H18T 7628   5.617   1.514   3.676 -0.0828  0.6095 -0.2339
   83OSM   H18U 7629   5.625   1.345   3.659 -0.9208 -0.7691 -0.4790
   83OSM    C1F 7630   5.210   1.078   2.126  0.6269  0.3763  0.2034
   83OSM     OF 7631   5.113   1.001   2.122 -0.5569 -0.4068 -0.0150
   83OSM    C2F 7632   5.212   1.205   2.210 -0.9132 -0.7682  0.5308
   83OSM    H2F 7633   5.218   1.293   2.142 -0.8876 -1.6701 -0.6730
   83OSM    H2G 7634   5.292   1.200   2.287  1.4438  0.2783 -1.7103
   83OSM    C3F 7635   5.076   1.218   2.291 -0.1099  0.0529  0.1085
   83OSM    H3F 7636   5.062   1.125   2.350 -0.1581  2.0673  3.4837
   83OSM    H3G 7637   4.991   1.225   2.220 -0.3064 -2.1402  0.0644
   83OSM    C4F 7638   5.057   1.331   2.397 -0.1787 -0.3706  0.0859
   83OSM    H4F 7639   5.064   1.425   2.339 -2.7801 -0.2761 -0.1976
   83OSM    H4G 7640   5.146   1.321   2.462 -0.8916  0.2416  1.1840
   83OSM    C5F 7641   4.920   1.325   2.474 -0.0004 -0.7073  0.3086
   83OSM    H5F 7642   4.900   1.220   2.502  1.8913 -0.5939  2.3671
   83OSM    H5G 7643   4.845   1.349   2.396 -2.8580 -0.8178  2.8244
   83OSM    C6F 7644   4.910   1.437   2.576 -0.1078  0.8095 -0.0767
   83OSM    H6F 7645   4.803   1.448   2.601 -0.2903 -1.7729  0.4766
   83OSM    H6G 7646   4.944   1.533   2.532 -0.8458 -0.9152 -4.9875
   83OSM    C7F 7647   4.998   1.407   2.698 -0.3676 -0.1883  0.3178
   83OSM    H7F 7648   5.101   1.373   2.674 -0.6570 -1.6731  1.0749
   83OSM    H7G 7649   4.959   1.319   2.754  1.1609 -1.2495 -0.2154
   83OSM    C8F 7650   5.010   1.534   2.796 -0.0978 -0.1949  0.4573
   83OSM    H8F 7651   4.917   1.538   2.856 -0.2931 -0.5861  0.1875
   83OSM    H8G 7652   5.018   1.620   2.726 -1.7674 -0.3618  0.0313
   83OSM    C9F 7653   5.132   1.523   2.884 -0.0802  0.5840  0.0042
   83OSM    H9F 7654   5.203   1.440   2.872  3.9894  3.3973  2.0603
   83OSM   C10F 7655   5.162   1.607   2.981  0.5432 -0.0581 -0.1527
   83OSM   H10F 7656   5.256   1.585   3.034  0.7116 -1.0076 -0.8286
   83OSM   C11F 7657   5.088   1.729   3.021 -0.5226 -0.3199 -0.7399
   83OSM   H11F 7658   5.012   1.764   2.948 -0.0741  0.8544 -0.6692
   83OSM   H11G 7659   5.159   1.815   3.016 -1.0834  0.2399  0.5620
   83OSM   C12F 7660   5.038   1.709   3.161 -0.5443 -0.0994  0.1205
   83OSM   H12F 7661   5.117   1.699   3.239  0.2686  1.5443 -0.4388
   83OSM   H12G 7662   4.986   1.611   3.168 -1.3568  0.3644  0.7762
   83OSM   C13F 7663   4.939   1.826   3.189  0.3967  0.4449 -0.6122
   83OSM   H13F 7664   4.848   1.805   3.130  0.7006 -0.9706 -0.6079
   83OSM   H13G 7665   4.989   1.918   3.152 -1.8341  1.1598 -2.0374
   83OSM   C14F 7666   4.894   1.830   3.337  0.4630  0.6748 -0.2294
   83OSM   H14F 7667   4.847   1.732   3.361 -0.4054  1.5773  1.9810
   83OSM   H14G 7668   4.812   1.902   3.358  0.1287 -0.1004  1.2233
   83OSM   C15F 7669   5.007   1.862   3.438 -0.1525  0.3287 -0.1857
   83OSM   H15F 7670   5.069   1.950   3.409 -0.3679  1.2016  1.8608
   83OSM   H15G 7671   5.075   1.774   3.433 -1.2573 -0.4921 -1.3595
   83OSM   C16F 7672   4.967   1.885   3.585 -0.4295  0.1545  0.3812
   83OSM   H16F 7673   5.055   1.875   3.652  0.0818 -2.7558 -0.6045
   83OSM   H16G 7674   4.899   1.803   3.616 -2.2197  0.8783 -1.4178
   83OSM   C17F 7675   4.895   2.022   3.608 -0.1577  0.3942 -0.0321
   83OSM   H17F 7676   4.792   2.020   3.568 -0.2381 -0.4842  0.1864
   83OSM   H17G 7677   4.943   2.103   3.550  0.3074  1.7661  2.1351
   83OSM   C18F 7678   4.904   2.066   3.757 -0.3880 -0.4040 -0.2792
   83OSM   H18F 7679   4.867   1.977   3.812 -4.5553  0.5920 -1.1259
   83OSM   H18G 7680   4.851   2.163   3.774 -0.7955 -0.6817  0.0614
   83OSM   H18H 7681   5.012   2.086   3.772 -0.5648 -0.0740  0.6176
   84OSM      N 7682   2.902   2.306   1.961 -0.4068 -0.8495  1.0276
   84OSM    C15 7683   2.851   2.266   2.093 -0.0924 -1.1670 -0.1130
   84OSM   H15A 7684   2.920   2.213   2.157 -0.3508  0.5431  1.6710
   84OSM   H15B 7685   2.775   2.193   2.070 -1.2370  1.0494 -4.5601
   84OSM   H15C 7686   2.813   2.346   2.155  0.9863 -0.8387  0.1528
   84OSM    C14 7687   2.982   2.432   1.976 -0.0334  0.5414  0.3618
   84OSM   H14A 7688   3.044   2.419   2.063 -0.4370  2.3645  0.9564
   84OSM   H14B 7689   2.910   2.509   1.998 -0.5503 -0.2040  1.3801
   84OSM   H14C 7690   3.052   2.445   1.894  0.1168  1.8152  0.6715
   84OSM    C13 7691   2.987   2.204   1.894  0.4968  0.1563 -0.2455
   84OSM   H13A 7692   3.019   2.234   1.796  1.7898  1.2438  0.4761
   84OSM   H13B 7693   2.950   2.102   1.898  3.1809 -0.8495  1.2299
   84OSM   H13C 7694   3.075   2.191   1.956 -1.0163 -3.1702  1.4764
   84OSM    C12 7695   2.786   2.348   1.866 -0.2795 -0.3344 -0.1596
   84OSM   H12A 7696   2.830   2.380   1.773 -0.3548  0.5864  0.1112
   84OSM   H12B 7697   2.744   2.441   1.904 -0.1258  0.3002 -1.4953
   84OSM    C11 7698   2.666   2.254   1.834 -0.7610  0.7545 -0.5608
   84OSM   H11A 7699   2.703   2.171   1.770 -0.5342  0.9787 -0.7212
   84OSM   H11B 7700   2.601   2.303   1.758 -1.9430  1.9322  1.1358
   84OSM      P 7701   2.497   2.308   2.028 -0.3868  0.1544  0.0302
   84OSM    O13 7702   2.566   2.440   2.046  0.2346 -0.0744 -0.5228
   84OSM    O14 7703   2.364   2.317   1.967  0.4369  0.3154 -0.1594
   84OSM    O11 7704   2.471   2.246   2.174  0.5445  0.2926  0.3747
   84OSM    O12 7705   2.596   2.206   1.953  0.4231 -0.2102 -0.2463
   84OSM    C1S 7706   2.494   2.109   2.190  0.4444 -0.8703 -0.4104
   84OSM    H1S 7707   2.599   2.086   2.162  0.7087  0.1753 -0.3244
   84OSM    H1T 7708   2.422   2.046   2.133 -1.4075  1.3782 -0.7053
   84OSM     NF 7709   2.544   1.949   2.382  0.0794  0.2049 -0.0704
   84OSM    HNF 7710   2.489   1.868   2.396  0.4345 -0.1967 -0.9034
   84OSM    C2S 7711   2.479   2.074   2.341 -0.1749 -0.0830 -0.4296
   84OSM    H2S 7712   2.528   2.159   2.394  1.5545 -0.1050 -1.8979
   84OSM    C3S 7713   2.332   2.085   2.390  0.1677 -0.3000  0.2695
   84OSM    H3S 7714   2.276   1.999   2.347  0.5994 -0.1548 -0.6068
   84OSM     O3 7715   2.260   2.196   2.339 -0.1328 -0.3761 -0.2709
   84OSM    HO3 7716   2.319   2.235   2.274 -1.2910 -0.5639 -1.4825
   84OSM    C4S 7717   2.313   2.074   2.534 -0.0274 -0.4283 -0.4400
   84OSM    H4S 7718   2.393   2.123   2.591 -1.1807 -0.7015  1.4859
   84OSM    C5S 7719   2.226   1.997   2.599  0.3308  0.3963 -0.2555
   84OSM    H5S 7720   2.155   1.932   2.546 -1.1138  0.1758  1.8244
   84OSM    C6S 7721   2.228   1.982   2.749  0.3191  0.4503 -0.4644
   84OSM    H6S 7722   2.237   1.873   2.769  3.0176  0.9861  2.0108
   84OSM    H6T 7723   2.129   2.013   2.788  0.3464 -0.8308  0.7195
   84OSM    C7S 7724   2.333   2.064   2.833  0.2046  0.1523 -0.0764
   84OSM    H7S 7725   2.300   2.170   2.823  1.0408  0.3900 -0.3771
   84OSM    H7T 7726   2.430   2.045   2.783 -0.3418 -0.8015 -0.8082
   84OSM    C8S 7727   2.333   2.028   2.983 -0.0478  0.5435 -0.0907
   84OSM    H8S 7728   2.417   2.074   3.041  0.3864  0.8966 -0.9849
   84OSM    H8T 7729   2.353   1.920   2.994 -1.3713  0.2613 -0.3355
   84OSM    C9S 7730   2.199   2.063   3.056 -0.0284 -0.3256  0.0232
   84OSM    H9S 7731   2.112   2.001   3.024  0.1126  0.3222 -1.7588
   84OSM    H9T 7732   2.171   2.170   3.039 -2.1291 -0.9107 -0.4995
   84OSM   C10S 7733   2.221   2.060   3.210  0.5089  0.4443  0.7220
   84OSM   H10S 7734   2.279   2.147   3.247  2.1729 -0.2295 -0.2148
   84OSM   H10T 7735   2.279   1.967   3.226  0.1012 -0.2171 -1.3403
   84OSM   C11S 7736   2.094   2.042   3.289 -0.2347  0.1912  0.4102
   84OSM   H11S 7737   2.036   1.958   3.245  0.6481  1.2720 -3.1641
   84OSM   H11T 7738   2.028   2.132   3.287 -0.3861  0.0883  0.6672
   84OSM   C12S 7739   2.118   2.006   3.437  0.1289  0.3299  0.5954
   84OSM   H12S 7740   2.180   2.087   3.479  2.2443 -0.2477 -1.2380
   84OSM   H12T 7741   2.172   1.910   3.424 -1.2301 -0.2772 -0.8681
   84OSM   C13S 7742   1.997   1.971   3.527  0.0184 -0.7975  0.5098
   84OSM   H13S 7743   1.933   1.897   3.475 -0.4256  0.2525 -0.4933
   84OSM   H13T 7744   1.936   2.065   3.531  0.4345 -0.5527  1.1387
   84OSM   C14S 7745   2.036   1.935   3.676 -0.6374 -0.0844  0.5510
   84OSM   H14S 7746   2.098   2.015   3.723  0.9167 -0.5527 -0.6373
   84OSM   H14T 7747   2.098   1.843   3.668 -1.3400 -0.6558  1.4677
   84OSM   C15S 7748   1.904   1.901   3.748 -0.0136 -0.1079  0.1026
   84OSM   H15S 7749   1.839   1.825   3.700  2.1353 -1.8864 -0.1696
   84OSM   H15T 7750   1.851   1.997   3.765 -0.8559 -0.5703  0.1237
   84OSM   C16S 7751   1.936   1.846   3.886  0.4043 -0.1584 -0.1613
   84OSM   H16S 7752   2.016   1.770   3.885  0.9883  0.3925  1.4877
   84OSM   H16T 7753   1.843   1.794   3.917  0.1875  0.8138  0.9049
   84OSM   C17S 7754   1.956   1.952   3.998 -0.6540 -0.2068  0.0450
   84OSM   H17S 7755   1.878   2.031   3.996 -0.8968 -0.4430  0.0509
   84OSM   H17T 7756   2.053   2.003   3.981 -1.3918  0.9118 -0.9692
   84OSM   C18S 7757   1.950   1.892   4.135  0.4452  0.0149  0.6333
   84OSM   H18S 7758   1.947   1.970   4.215 -1.5296  1.3823 -0.6979
   84OSM   H18T 7759   2.043   1.833   4.148  0.2166 -0.8791 -1.5017
   84OSM   H18U 7760   1.860   1.829   4.155  1.5442 -2.0461 -0.5673
   84OSM    C1F 7761   2.675   1.941   2.405 -0.0001 -0.1034  0.3220
   84OSM     OF 7762   2.746   2.036   2.384  0.0854  0.2683 -0.2171
   84OSM    C2F 7763   2.727   1.805   2.458  0.2736 -0.1476  0.5947
   84OSM    H2F 7764   2.836   1.803   2.433 -0.1578 -0.0303 -1.4893
   84OSM    H2G 7765   2.681   1.718   2.406  0.1725 -0.0676  0.5504
   84OSM    C3F 7766   2.729   1.780   2.610 -0.0709  0.1713 -0.5795
   84OSM    H3F 7767   2.771   1.680   2.634 -0.5653 -0.2797 -1.5230
   84OSM    H3G 7768   2.623   1.791   2.643 -0.2858 -1.0478 -0.8218
   84OSM    C4F 7769   2.822   1.869   2.689 -0.2494 -0.6817  0.3999
   84OSM    H4F 7770   2.796   1.975   2.665  0.5792 -0.8470 -1.3380
   84OSM    H4G 7771   2.926   1.853   2.653  0.5403  0.6549  1.9234
   84OSM    C5F 7772   2.796   1.849   2.835 -0.0555  0.4513 -0.5304
   84OSM    H5F 7773   2.799   1.741   2.860  1.0377  1.1566  3.0473
   84OSM    H5G 7774   2.697   1.891   2.863  0.5899  1.8816 -0.2915
   84OSM    C6F 7775   2.897   1.929   2.931 -0.4333 -0.0178  0.0834
   84OSM    H6F 7776   2.874   2.038   2.935 -2.8596 -0.4946  3.0715
   84OSM    H6G 7777   2.999   1.924   2.888 -0.6543  2.0898 -0.8340
   84OSM    C7F 7778   2.903   1.877   3.075 -0.0223  0.2409 -0.3365
   84OSM    H7F 7779   2.956   1.945   3.146 -0.1058 -1.0645  1.0252
   84OSM    H7G 7780   2.976   1.794   3.064 -0.0769  0.3491 -1.6274
   84OSM    C8F 7781   2.777   1.827   3.144 -0.5391 -0.7922  0.3367
   84OSM    H8F 7782   2.788   1.785   3.246 -1.3125  1.9464  1.6436
   84OSM    H8G 7783   2.725   1.747   3.087  1.0736 -1.8686  0.3293
   84OSM    C9F 7784   2.673   1.939   3.151  0.0030 -0.0367 -0.2469
   84OSM    H9F 7785   2.622   1.961   3.056 -0.0480  1.5106  0.1263
   84OSM   C10F 7786   2.638   2.012   3.257 -0.1540 -0.0396  0.1419
   84OSM   H10F 7787   2.558   2.088   3.262 -0.9702 -0.9299  0.8165
   84OSM   C11F 7788   2.705   1.989   3.400  0.4772 -0.3840 -0.0152
   84OSM   H11F 7789   2.749   2.082   3.442  0.7080 -1.2739  1.7763
   84OSM   H11G 7790   2.796   1.927   3.389  1.9065  1.7244 -0.6132
   84OSM   C12F 7791   2.607   1.932   3.505  0.1095  0.1234  0.5162
   84OSM   H12F 7792   2.670   1.911   3.594  0.2930  0.4731  0.4702
   84OSM   H12G 7793   2.571   1.832   3.472  2.5168 -1.2109  1.6559
   84OSM   C13F 7794   2.487   2.027   3.543 -0.5785  0.4348 -0.1063
   84OSM   H13F 7795   2.433   2.044   3.448 -1.5276  1.9563  0.6511
   84OSM   H13G 7796   2.523   2.128   3.574  2.4346 -0.7141  0.4889
   84OSM   C14F 7797   2.396   1.966   3.650  0.3708  0.3669  0.5799
   84OSM   H14F 7798   2.376   1.863   3.614 -2.0106  0.9796 -0.0235
   84OSM   H14G 7799   2.306   2.031   3.653 -0.3425 -0.5519 -0.2322
   84OSM   C15F 7800   2.469   1.961   3.789  0.4315 -0.5155 -0.7108
   84OSM   H15F 7801   2.482   2.071   3.803 -2.5787 -0.2468  0.8772
   84OSM   H15G 7802   2.563   1.903   3.787 -0.4355 -2.0884  1.1517
   84OSM   C16F 7803   2.378   1.923   3.908 -0.2704  0.0017 -0.1323
   84OSM   H16F 7804   2.348   1.816   3.901  0.0572 -0.0331 -1.2640
   84OSM   H16G 7805   2.288   1.988   3.907  0.3421  0.9660  1.8946
   84OSM   C17F 7806   2.452   1.945   4.039 -0.0099  0.2493 -0.4128
   84OSM   H17F 7807   2.466   2.056   4.038 -1.3994  0.4666  0.8563
   84OSM   H17G 7808   2.555   1.905   4.033  0.8041  1.9576  1.0857
   84OSM   C18F 7809   2.369   1.893   4.163 -0.7721 -0.2312  0.2863
   84OSM   H18F 7810   2.384   1.783   4.175  2.0405 -0.0868 -1.0851
   84OSM   H18G 7811   2.260   1.907   4.151 -1.0498 -2.1369  0.2443
   84OSM   H18H 7812   2.406   1.941   4.257 -1.1256  0.1907  0.2149
   85OSM      N 7813   5.614   1.493   1.591  0.5081  0.6567  0.0486
   85OSM    C15 7814   5.625   1.636   1.562 -0.0565 -0.3413  0.5555
   85OSM   H15A 7815   5.623   1.646   1.454 -2.2387  1.3493  0.6874
   85OSM   H15B 7816   5.721   1.674   1.593  0.0436 -0.0073 -0.1389
   85OSM   H15C 7817   5.542   1.689   1.605  0.1307  1.3691 -1.0740
   85OSM    C14 7818   5.491   1.448   1.514  0.2076 -0.0725  0.3374
   85OSM   H14A 7819   5.402   1.501   1.547 -0.7711 -0.7778 -1.0536
   85OSM   H14B 7820   5.474   1.342   1.525  0.2768 -0.3432 -1.7347
   85OSM   H14C 7821   5.507   1.465   1.408  1.4633 -0.1971  0.4919
   85OSM    C13 7822   5.741   1.417   1.535  0.4346 -0.4956 -0.9945
   85OSM   H13A 7823   5.783   1.472   1.452  0.5892  2.4078  0.8884
   85OSM   H13B 7824   5.723   1.314   1.505  0.3281 -0.8012  0.0825
   85OSM   H13C 7825   5.813   1.407   1.615  2.0131  2.5531 -1.8775
   85OSM    C12 7826   5.600   1.465   1.741  0.5310  0.6137 -0.7291
   85OSM   H12A 7827   5.513   1.519   1.774 -1.1473 -1.1039 -2.1386
   85OSM   H12B 7828   5.690   1.499   1.791  1.0291 -1.0084 -0.4605
   85OSM    C11 7829   5.593   1.320   1.785  0.1432  0.9662  0.9620
   85OSM   H11A 7830   5.518   1.282   1.712 -0.0826  1.1617  1.0935
   85OSM   H11B 7831   5.548   1.322   1.886  0.1440 -0.1486  0.9933
   85OSM      P 7832   5.824   1.240   1.880  0.1133 -0.1782 -0.0677
   85OSM    O13 7833   5.846   1.099   1.903  0.3128  0.3649 -0.6504
   85OSM    O14 7834   5.939   1.319   1.835  0.0128 -0.2882 -0.0756
   85OSM    O11 7835   5.763   1.299   2.011  0.1010  0.0893 -0.8708
   85OSM    O12 7836   5.718   1.252   1.764  0.0096  0.3648  0.0287
   85OSM    C1S 7837   5.831   1.349   2.126  0.0952 -0.1359 -0.3077
   85OSM    H1S 7838   5.894   1.433   2.091 -0.2583  0.0364 -0.5345
   85OSM    H1T 7839   5.897   1.274   2.176  0.4509  0.3722 -0.0045
   85OSM     NF 7840   5.792   1.443   2.346  0.3366  0.1392 -0.4125
   85OSM    HNF 7841   5.815   1.382   2.422  1.0000 -2.0159 -2.2315
   85OSM    C2S 7842   5.725   1.387   2.232  0.4873  0.7338 -0.2428
   85OSM    H2S 7843   5.659   1.464   2.187  2.0670  1.8011 -0.8396
   85OSM    C3S 7844   5.639   1.264   2.274 -0.8596 -0.9249  0.1961
   85OSM    H3S 7845   5.706   1.181   2.305 -0.4638 -0.4227  0.6960
   85OSM     O3 7846   5.564   1.207   2.166  0.0015  0.1668  0.3011
   85OSM    HO3 7847   5.594   1.246   2.084 -4.0946  0.0628 -1.5184
   85OSM    C4S 7848   5.545   1.297   2.389  0.1208  0.0882 -0.3764
   85OSM    H4S 7849   5.497   1.395   2.384  2.5710  1.5717  2.0995
   85OSM    C5S 7850   5.537   1.239   2.513 -0.1181 -0.5493 -0.0769
   85OSM    H5S 7851   5.616   1.170   2.547 -0.4278 -0.7597  0.2179
   85OSM    C6S 7852   5.446   1.286   2.621  0.0499 -0.5737  0.1036
   85OSM    H6S 7853   5.396   1.196   2.663 -1.4263  0.6002  0.9778
   85OSM    H6T 7854   5.368   1.347   2.570  1.4130  1.8972  0.8422
   85OSM    C7S 7855   5.515   1.365   2.732 -0.1816 -0.8520  0.7705
   85OSM    H7S 7856   5.583   1.297   2.788  1.2784  0.0742  0.1575
   85OSM    H7T 7857   5.437   1.404   2.801 -0.7109 -0.1972 -0.1750
   85OSM    C8S 7858   5.593   1.488   2.687 -0.6273  0.1374  0.1904
   85OSM    H8S 7859   5.535   1.564   2.632  0.5173 -0.5296 -2.0756
   85OSM    H8T 7860   5.666   1.454   2.610  0.0252 -2.1778  1.7041
   85OSM    C9S 7861   5.662   1.545   2.808 -0.3050 -0.3149 -0.1275
   85OSM    H9S 7862   5.750   1.597   2.764 -0.4143  2.1860  2.3699
   85OSM    H9T 7863   5.690   1.468   2.883 -1.6284 -0.2836  0.4107
   85OSM   C10S 7864   5.587   1.652   2.882 -0.1827  0.2068 -0.0745
   85OSM   H10S 7865   5.479   1.632   2.866 -0.8471  2.8160  0.6642
   85OSM   H10T 7866   5.599   1.752   2.834 -2.9316  0.0687 -1.2642
   85OSM   C11S 7867   5.609   1.655   3.040  0.0217 -0.3428 -0.1418
   85OSM   H11S 7868   5.715   1.681   3.056 -0.3640  1.6606 -0.6188
   85OSM   H11T 7869   5.569   1.559   3.079  1.0025 -1.4689 -1.8050
   85OSM   C12S 7870   5.525   1.770   3.109 -0.1534  1.0775  0.2478
   85OSM   H12S 7871   5.421   1.739   3.086  1.0561 -0.4830 -4.1090
   85OSM   H12T 7872   5.543   1.874   3.073 -0.3231  1.0009 -0.0594
   85OSM   C13S 7873   5.539   1.747   3.258 -0.0973 -0.3052 -0.3657
   85OSM   H13S 7874   5.642   1.754   3.298  0.0761  0.8967 -0.9969
   85OSM   H13T 7875   5.518   1.642   3.289  1.2870 -0.0957  1.4052
   85OSM   C14S 7876   5.456   1.832   3.351 -0.5711  0.9626  0.7026
   85OSM   H14S 7877   5.349   1.816   3.327 -0.5382 -2.3376  2.1970
   85OSM   H14T 7878   5.492   1.936   3.333 -0.9741  1.1155  0.7627
   85OSM   C15S 7879   5.461   1.790   3.500 -0.6805 -0.0713  0.6988
   85OSM   H15S 7880   5.568   1.806   3.525 -0.4584  1.1850 -0.8684
   85OSM   H15T 7881   5.432   1.687   3.532  1.2241 -0.3898  1.5504
   85OSM   C16S 7882   5.377   1.889   3.582  0.9901 -0.6806  0.1985
   85OSM   H16S 7883   5.270   1.860   3.578  0.7752 -0.5764  3.1574
   85OSM   H16T 7884   5.393   1.987   3.532 -0.8363 -0.5488 -0.2096
   85OSM   C17S 7885   5.407   1.891   3.730  0.2294  0.7818  0.2810
   85OSM   H17S 7886   5.500   1.951   3.740  0.7984  0.2832 -1.5284
   85OSM   H17T 7887   5.423   1.790   3.773 -4.4149  0.4636  1.8007
   85OSM   C18S 7888   5.299   1.958   3.812  0.1420 -0.2895  0.3984
   85OSM   H18S 7889   5.322   1.980   3.918 -0.0189  1.2317  0.1340
   85OSM   H18T 7890   5.206   1.898   3.829 -0.3538  0.7844  1.6566
   85OSM   H18U 7891   5.267   2.047   3.754 -0.8915 -1.7586 -1.4257
   85OSM    C1F 7892   5.849   1.561   2.338  0.3461 -0.0345 -0.1616
   85OSM     OF 7893   5.854   1.626   2.230  0.7723 -0.6078 -0.1822
   85OSM    C2F 7894   5.924   1.609   2.459 -0.2944  0.0471 -0.1823
   85OSM    H2F 7895   5.994   1.530   2.495 -1.2808 -1.2711 -1.0563
   85OSM    H2G 7896   5.854   1.634   2.542 -0.2315 -1.2328  0.2846
   85OSM    C3F 7897   6.016   1.730   2.431 -0.3394  0.2026  0.1613
   85OSM    H3F 7898   5.957   1.813   2.385  1.7234  1.3483 -0.5637
   85OSM    H3G 7899   6.108   1.691   2.381  0.4318  0.9199  0.9801
   85OSM    C4F 7900   6.092   1.794   2.554 -0.0902 -0.6584  0.3625
   85OSM    H4F 7901   6.128   1.891   2.513  0.3037 -0.3105  1.4944
   85OSM    H4G 7902   6.177   1.737   2.597  0.7230  0.2610  0.0140
   85OSM    C5F 7903   6.000   1.852   2.664 -0.6122 -0.9648 -0.4116
   85OSM    H5F 7904   5.951   1.769   2.719 -2.0970  0.5213  0.6130
   85OSM    H5G 7905   5.925   1.910   2.604  0.3139 -1.6389 -2.3193
   85OSM    C6F 7906   6.075   1.947   2.764  0.0370 -1.0620 -0.4883
   85OSM    H6F 7907   6.160   1.994   2.711  1.2643 -0.7286  1.6374
   85OSM    H6G 7908   6.116   1.876   2.840 -1.6447 -1.4194  0.1425
   85OSM    C7F 7909   5.974   2.045   2.821  0.6232  0.0330  0.7810
   85OSM    H7F 7910   5.920   2.085   2.732 -0.2150 -1.5569  0.5399
   85OSM    H7G 7911   6.028   2.127   2.873  2.0077  0.0293 -0.5517
   85OSM    C8F 7912   5.882   1.976   2.918  0.7504  0.0886 -0.5191
   85OSM    H8F 7913   5.935   1.937   3.008 -0.5637 -1.1353 -0.2342
   85OSM    H8G 7914   5.837   1.885   2.874  0.6248 -0.0901 -0.0373
   85OSM    C9F 7915   5.768   2.059   2.968  0.3726  0.3161 -0.3198
   85OSM    H9F 7916   5.669   2.053   2.919  0.3579 -0.8780 -0.1820
   85OSM   C10F 7917   5.763   2.138   3.079 -1.0286  0.6039  0.2068
   85OSM   H10F 7918   5.668   2.182   3.110 -0.2460  1.7054  1.1138
   85OSM   C11F 7919   5.884   2.156   3.173 -0.1520 -0.4509 -0.4199
   85OSM   H11F 7920   5.892   2.266   3.186 -1.8735 -0.5154  1.9684
   85OSM   H11G 7921   5.979   2.119   3.128  0.2612  1.6139 -1.3827
   85OSM   C12F 7922   5.869   2.087   3.311 -0.1306 -0.3828  0.2845
   85OSM   H12F 7923   5.963   2.099   3.369 -0.2576 -0.6552  0.5472
   85OSM   H12G 7924   5.872   1.980   3.284  0.0225  0.0156 -1.4417
   85OSM   C13F 7925   5.734   2.139   3.394 -0.1004  0.3726 -0.2193
   85OSM   H13F 7926   5.644   2.121   3.332 -0.4183 -1.0583  0.6037
   85OSM   H13G 7927   5.753   2.246   3.417 -1.6807  0.9925 -1.6166
   85OSM   C14F 7928   5.732   2.067   3.534  0.9199  0.4612  0.5065
   85OSM   H14F 7929   5.743   1.959   3.512 -0.3739  0.7381 -1.9246
   85OSM   H14G 7930   5.627   2.077   3.571  0.0785 -0.5130 -1.4419
   85OSM   C15F 7931   5.839   2.117   3.632 -0.1720 -0.1368  0.3094
   85OSM   H15F 7932   5.837   2.228   3.640  2.7426 -0.1232  2.3489
   85OSM   H15G 7933   5.941   2.090   3.600  0.5339  1.5159  1.0329
   85OSM   C16F 7934   5.805   2.070   3.771 -1.3026  0.3359 -0.1243
   85OSM   H16F 7935   5.801   1.959   3.779 -0.3331  0.3501  0.8017
   85OSM   H16G 7936   5.697   2.093   3.783 -1.0130  1.8044 -0.2364
   85OSM   C17F 7937   5.890   2.118   3.884 -0.4855  0.0787 -0.1332
   85OSM   H17F 7938   5.877   2.227   3.898  0.2188  0.0578  0.7325
   85OSM   H17G 7939   5.999   2.101   3.875 -0.1785  1.2345  1.1502
   85OSM   C18F 7940   5.852   2.050   4.017 -0.0568  0.3225  0.3792
   85OSM   H18F 7941   5.912   2.090   4.101  1.6193 -1.1320 -0.0544
   85OSM   H18G 7942   5.742   2.059   4.025 -0.3481 -0.8807 -1.6155
   85OSM   H18H 7943   5.876   1.941   4.013 -0.5426  0.2441 -0.9052
   86OSM      N 7944   0.386   3.802   1.938  0.2154  0.7845 -0.6485
   86OSM    C15 7945   0.374   3.717   1.815 -0.8598 -0.2568 -0.0628
   86OSM   H15A 7946   0.467   3.711   1.760 -0.9139 -0.6776 -0.1125
   86OSM   H15B 7947   0.295   3.746   1.747 -0.0234  1.6170 -0.2988
   86OSM   H15C 7948   0.343   3.616   1.837 -0.1693 -1.0313 -2.3585
   86OSM    C14 7949   0.256   3.814   2.001 -0.3329  0.7037 -0.2552
   86OSM   H14A 7950   0.266   3.859   2.099 -0.4334  1.7413 -0.7094
   86OSM   H14B 7951   0.221   3.713   2.016 -2.0892  1.5793  2.1272
   86OSM   H14C 7952   0.197   3.872   1.931 -1.7138  1.4181  1.4206
   86OSM    C13 7953   0.484   3.732   2.022  0.2382 -0.3808 -0.0065
   86OSM   H13A 7954   0.482   3.624   2.030  1.8813 -0.3475  1.6672
   86OSM   H13B 7955   0.501   3.780   2.117 -1.2543 -0.6777  0.4439
   86OSM   H13C 7956   0.577   3.742   1.969 -0.1593  0.8097 -0.4930
   86OSM    C12 7957   0.434   3.950   1.901  0.2922  0.5502  0.3109
   86OSM   H12A 7958   0.348   3.991   1.851  0.3950  2.5790  1.6597
   86OSM   H12B 7959   0.515   3.948   1.829  0.7537  2.5194  0.7069
   86OSM    C11 7960   0.473   4.047   2.020  0.0448  0.6515  0.2267
   86OSM   H11A 7961   0.503   4.145   1.976 -0.6599  1.9271  2.4530
   86OSM   H11B 7962   0.567   4.010   2.067 -1.3090  0.5111  2.9900
   86OSM      P 7963   0.257   4.168   2.102 -0.1688 -0.0520  0.2353
   86OSM    O13 7964   0.295   4.291   2.175  0.2886  0.6962  0.1108
   86OSM    O14 7965   0.217   4.181   1.960  0.0991 -0.6663  0.6375
   86OSM    O11 7966   0.143   4.102   2.177  0.0928 -0.1220  0.1061
   86OSM    O12 7967   0.368   4.060   2.111  0.3658  0.0086 -0.3211
   86OSM    C1S 7968   0.150   4.021   2.293 -0.5252  0.4696  0.0709
   86OSM    H1S 7969   0.247   3.966   2.303 -0.1943  1.1274  0.5558
   86OSM    H1T 7970   0.076   3.939   2.281 -0.3931  0.5862 -1.8454
   86OSM     NF 7971   0.170   4.028   2.550  0.0066 -0.0413  0.1409
   86OSM    HNF 7972   0.098   3.987   2.607 -2.8105  2.7019 -1.1623
   86OSM    C2S 7973   0.132   4.099   2.425 -0.3703 -0.2197 -0.3483
   86OSM    H2S 7974   0.200   4.186   2.410  0.5963 -0.6841  1.0926
   86OSM    C3S 7975  -0.019   4.148   2.437  0.2693 -0.1455  0.1535
   86OSM    H3S 7976  -0.071   4.060   2.481  0.3308 -0.6795 -0.7979
   86OSM     O3 7977  -0.077   4.184   2.313  0.2047  0.5192 -0.3393
   86OSM    HO3 7978  -0.007   4.174   2.249  1.2634 -0.5614  0.9300
   86OSM    C4S 7979  -0.036   4.264   2.536  1.0313 -0.3415 -0.0767
   86OSM    H4S 7980  -0.067   4.222   2.633  0.7862 -1.2226 -0.5258
   86OSM    C5S 7981  -0.032   4.402   2.515  0.7416  0.0371 -0.2368
   86OSM    H5S 7982  -0.019   4.440   2.413  0.0137  0.4398 -0.1877
   86OSM    C6S 7983  -0.070   4.503   2.615  0.2186 -0.8625  0.3983
   86OSM    H6S 7984  -0.180   4.514   2.626  0.3164  0.4606  0.2302
   86OSM    H6T 7985  -0.042   4.606   2.583  0.3763 -0.0724  2.8400
   86OSM    C7S 7986  -0.024   4.483   2.757 -0.7685  0.4512  0.2950
   86OSM    H7S 7987   0.086   4.469   2.761 -1.0958 -2.2463  1.6664
   86OSM    H7T 7988  -0.066   4.389   2.798  3.1169 -2.1002 -1.0527
   86OSM    C8S 7989  -0.057   4.604   2.851 -0.0807 -0.3257  0.2584
   86OSM    H8S 7990  -0.164   4.631   2.838  0.3185  0.7670 -1.0293
   86OSM    H8T 7991  -0.003   4.695   2.816 -1.0635 -0.3602 -1.4503
   86OSM    C9S 7992  -0.018   4.586   2.999 -0.5431  0.3365 -0.1844
   86OSM    H9S 7993   0.087   4.555   3.013 -0.1968  1.7331  0.4724
   86OSM    H9T 7994  -0.070   4.512   3.064  1.1216 -0.1758  0.6109
   86OSM   C10S 7995  -0.038   4.717   3.078 -0.3090 -0.1707  0.4221
   86OSM   H10S 7996  -0.146   4.742   3.075 -0.1331  0.9487  2.1232
   86OSM   H10T 7997   0.020   4.795   3.026  0.8758  0.0580  2.0101
   86OSM   C11S 7998   0.007   4.711   3.221 -0.7014 -0.1196  0.5456
   86OSM   H11S 7999   0.118   4.713   3.232 -0.7166 -0.7243  0.8394
   86OSM   H11T 8000  -0.028   4.616   3.268  1.4018 -0.3345  1.7853
   86OSM   C12S 8001  -0.047   4.832   3.296  0.5002 -0.5104  0.3171
   86OSM   H12S 8002  -0.158   4.827   3.292  0.3140  0.7239  2.3959
   86OSM   H12T 8003  -0.023   4.926   3.242 -2.1263  0.9009  1.4176
   86OSM   C13S 8004   0.003   4.829   3.440  0.2245 -0.4714 -0.5196
   86OSM   H13S 8005   0.107   4.867   3.450 -1.0469  2.7377  2.8860
   86OSM   H13T 8006   0.018   4.724   3.471 -0.6602 -0.8433 -1.2974
   86OSM   C14S 8007  -0.088   4.908   3.527 -0.0157 -0.0563 -0.0470
   86OSM   H14S 8008  -0.177   4.841   3.525  0.2229 -0.4429  1.3307
   86OSM   H14T 8009  -0.107   5.005   3.476 -1.5114 -0.7100 -0.8001
   86OSM   C15S 8010  -0.062   4.943   3.674  0.2598  0.0654  1.0837
   86OSM   H15S 8011  -0.153   4.984   3.723  0.1290  2.0618 -0.6871
   86OSM   H15T 8012   0.009   5.028   3.678  0.3311  0.1669 -1.0505
   86OSM   C16S 8013   0.004   4.828   3.757  0.0376 -0.1026  0.0532
   86OSM   H16S 8014   0.075   4.780   3.687 -0.3085  1.1501 -1.1894
   86OSM   H16T 8015  -0.072   4.757   3.796 -0.6323  0.8044  0.4609
   86OSM   C17S 8016   0.092   4.887   3.866 -0.2929 -0.2707 -0.8632
   86OSM   H17S 8017   0.171   4.943   3.811 -0.2008  1.8693  1.2679
   86OSM   H17T 8018   0.146   4.805   3.917  0.8131  1.5307  1.0508
   86OSM   C18S 8019   0.021   4.975   3.965  0.2204 -0.1797 -0.2699
   86OSM   H18S 8020   0.005   5.082   3.939 -1.9845 -0.1829  0.8301
   86OSM   H18T 8021   0.079   4.965   4.059 -0.2360 -1.2836 -0.0878
   86OSM   H18U 8022  -0.080   4.937   3.993  0.1174  0.4041  0.1644
   86OSM    C1F 8023   0.294   4.008   2.587  0.2547 -0.3498 -0.0413
   86OSM     OF 8024   0.382   4.033   2.505 -0.0813 -0.5205 -0.6183
   86OSM    C2F 8025   0.314   3.944   2.721  0.0923 -0.2418 -0.7956
   86OSM    H2F 8026   0.249   3.854   2.714 -1.5651  0.7425  0.9362
   86OSM    H2G 8027   0.289   4.014   2.804  1.6285  0.6273 -1.0286
   86OSM    C3F 8028   0.460   3.900   2.743  0.4279 -0.3472  0.5567
   86OSM    H3F 8029   0.531   3.983   2.720 -2.0351  1.8247  0.3552
   86OSM    H3G 8030   0.490   3.806   2.691 -1.3602 -1.6457  1.7445
   86OSM    C4F 8031   0.482   3.872   2.890 -0.7522  0.0314  0.2241
   86OSM    H4F 8032   0.434   3.942   2.961  1.3347  0.0138  1.7709
   86OSM    H4G 8033   0.592   3.878   2.905 -0.6896 -0.3476 -0.0855
   86OSM    C5F 8034   0.427   3.730   2.918 -0.5415 -0.1292 -0.1692
   86OSM    H5F 8035   0.484   3.652   2.863  1.5568  1.2852 -0.1002
   86OSM    H5G 8036   0.319   3.717   2.894 -0.0562 -1.3016 -1.9462
   86OSM    C6F 8037   0.431   3.697   3.068 -0.2692 -0.5924  0.0708
   86OSM    H6F 8038   0.358   3.613   3.071 -1.9173  0.5474 -3.2257
   86OSM    H6G 8039   0.400   3.775   3.141 -0.8318  0.2977 -1.0786
   86OSM    C7F 8040   0.557   3.627   3.123 -0.4894  0.0884  0.5542
   86OSM    H7F 8041   0.637   3.702   3.107 -2.1943  1.8118 -0.3051
   86OSM    H7G 8042   0.560   3.539   3.056 -2.1620  0.4243 -0.0159
   86OSM    C8F 8043   0.561   3.587   3.270  0.0381  0.5014 -0.3074
   86OSM    H8F 8044   0.574   3.681   3.328 -0.1700 -0.3206  1.1422
   86OSM    H8G 8045   0.656   3.530   3.277 -1.1725 -1.5559  0.5241
   86OSM    C9F 8046   0.438   3.509   3.307 -1.3066 -0.8721 -0.4912
   86OSM    H9F 8047   0.443   3.415   3.250  0.6918 -0.6425 -0.7961
   86OSM   C10F 8048   0.335   3.548   3.378  0.5411 -0.2124  0.2200
   86OSM   H10F 8049   0.269   3.461   3.398  2.0727 -1.1957  1.2912
   86OSM   C11F 8050   0.329   3.665   3.469 -0.4520 -0.7086 -0.7757
   86OSM   H11F 8051   0.220   3.672   3.491 -0.3167 -2.3854  0.6505
   86OSM   H11G 8052   0.375   3.751   3.417  1.1515 -0.6643  0.6339
   86OSM   C12F 8053   0.396   3.640   3.601 -0.4522 -0.0202 -0.3635
   86OSM   H12F 8054   0.407   3.734   3.659 -0.8812 -0.7107  0.8725
   86OSM   H12G 8055   0.502   3.616   3.577  0.6517  1.3656  2.6528
   86OSM   C13F 8056   0.326   3.528   3.685  0.0833 -0.0130  0.3629
   86OSM   H13F 8057   0.348   3.427   3.643 -1.6134  0.5048 -1.9550
   86OSM   H13G 8058   0.216   3.540   3.679 -0.0670 -1.1703  0.4922
   86OSM   C14F 8059   0.369   3.527   3.831  0.6701 -0.9903 -0.6925
   86OSM   H14F 8060   0.479   3.524   3.847  0.5341  1.2769  1.1649
   86OSM   H14G 8061   0.321   3.443   3.886  1.0017 -0.4650  0.4231
   86OSM   C15F 8062   0.327   3.654   3.911 -0.8893  0.1247  0.5420
   86OSM   H15F 8063   0.221   3.683   3.898 -1.1819 -0.7413  0.8827
   86OSM   H15G 8064   0.388   3.740   3.876 -0.2044 -0.3852  0.4664
   86OSM   C16F 8065   0.330   3.628   4.066 -1.0017 -0.2188  0.0220
   86OSM   H16F 8066   0.260   3.543   4.078 -3.8714  1.7438 -1.6287
   86OSM   H16G 8067   0.280   3.716   4.111  0.7960  1.7358 -1.6039
   86OSM   C17F 8068   0.468   3.591   4.126 -1.2065 -1.0684  0.1560
   86OSM   H17F 8069   0.525   3.683   4.152 -0.8506 -1.2273 -0.0577
   86OSM   H17G 8070   0.524   3.537   4.047  0.4254 -0.4236  0.8349
   86OSM   C18F 8071   0.444   3.487   4.236  0.9809  0.3535 -0.3672
   86OSM   H18F 8072   0.352   3.523   4.288  2.3643  2.1405  0.9811
   86OSM   H18G 8073   0.526   3.474   4.310 -1.0104 -0.0418  1.8933
   86OSM   H18H 8074   0.428   3.383   4.199  0.4434 -0.3459  1.6849
   87OSM      N 8075   4.792   1.541   1.804  0.3415 -0.3404 -0.1604
   87OSM    C15 8076   4.664   1.495   1.745 -0.2902 -0.1624  0.1249
   87OSM   H15A 8077   4.670   1.459   1.643  1.1603 -0.5595  0.3360
   87OSM   H15B 8078   4.592   1.575   1.735  0.2214  0.1106 -1.8334
   87OSM   H15C 8079   4.613   1.426   1.810 -0.1572  0.6638  1.1165
   87OSM    C14 8080   4.901   1.450   1.752 -0.1008 -0.1081 -0.1915
   87OSM   H14A 8081   4.994   1.472   1.803  0.4400 -1.9305 -0.3031
   87OSM   H14B 8082   4.911   1.478   1.648 -2.1382 -1.0073 -0.6680
   87OSM   H14C 8083   4.875   1.345   1.754 -0.7753  0.0593  1.4577
   87OSM    C13 8084   4.817   1.680   1.757 -0.3041 -0.4522 -0.2596
   87OSM   H13A 8085   4.726   1.739   1.758 -0.0956 -0.1308  0.7876
   87OSM   H13B 8086   4.869   1.690   1.663  1.0951  1.9144  0.6695
   87OSM   H13C 8087   4.883   1.732   1.825 -0.4150  0.0147 -0.5013
   87OSM    C12 8088   4.776   1.546   1.952  0.5472 -0.5529 -0.6250
   87OSM   H12A 8089   4.702   1.615   1.990  2.0168  1.1773 -0.8022
   87OSM   H12B 8090   4.866   1.592   1.991 -0.9214  1.1020  1.0262
   87OSM    C11 8091   4.752   1.420   2.030 -0.0898  0.3440 -0.0396
   87OSM   H11A 8092   4.750   1.444   2.138  0.6225  2.6320 -0.4873
   87OSM   H11B 8093   4.823   1.337   2.011 -0.9320 -0.3371 -0.3069
   87OSM      P 8094   4.490   1.406   2.053 -0.1279  0.4581  0.2398
   87OSM    O13 8095   4.461   1.547   2.025 -0.2226  0.2528  0.6170
   87OSM    O14 8096   4.386   1.307   2.010  0.6653 -0.1123  0.3470
   87OSM    O11 8097   4.493   1.388   2.213 -1.1465 -0.2472 -0.0473
   87OSM    O12 8098   4.622   1.358   1.998 -0.2892 -0.0417  0.4472
   87OSM    C1S 8099   4.479   1.244   2.250 -0.3076  0.5429 -0.1666
   87OSM    H1S 8100   4.565   1.190   2.207 -0.9222  0.3241 -1.1647
   87OSM    H1T 8101   4.391   1.190   2.208  1.4870 -2.7710  0.0759
   87OSM     NF 8102   4.493   1.092   2.448  0.2238 -0.6775  0.0552
   87OSM    HNF 8103   4.407   1.047   2.473  0.4712 -0.7232  0.8355
   87OSM    C2S 8104   4.477   1.229   2.407  0.0443  0.1416  0.7606
   87OSM    H2S 8105   4.555   1.298   2.444  1.1651  0.5407 -2.0849
   87OSM    C3S 8106   4.353   1.293   2.462  0.5145 -0.3460 -0.0669
   87OSM    H3S 8107   4.265   1.233   2.429  0.6205 -0.8226  0.5092
   87OSM     O3 8108   4.328   1.424   2.420 -0.1740  0.3941 -0.1255
   87OSM    HO3 8109   4.386   1.431   2.343  0.6370 -0.7325  0.3369
   87OSM    C4S 8110   4.363   1.284   2.612 -0.2706 -0.3145 -0.0788
   87OSM    H4S 8111   4.317   1.192   2.650 -1.5695  0.9794  1.6771
   87OSM    C5S 8112   4.398   1.379   2.707  0.1528 -0.1051 -0.3650
   87OSM    H5S 8113   4.417   1.482   2.672  1.4257 -0.0611  0.4069
   87OSM    C6S 8114   4.385   1.358   2.852  0.1481  0.0675 -0.1339
   87OSM    H6S 8115   4.485   1.365   2.901  1.0473 -1.5177 -1.6210
   87OSM    H6T 8116   4.330   1.268   2.887  0.4757  0.1301  0.5552
   87OSM    C7S 8117   4.301   1.483   2.906  0.3289  0.2244  0.9878
   87OSM    H7S 8118   4.201   1.498   2.858  0.3432 -2.8603 -0.2578
   87OSM    H7T 8119   4.368   1.571   2.894  1.4426 -0.4928  1.8459
   87OSM    C8S 8120   4.269   1.453   3.053 -0.3237  0.3380 -0.3248
   87OSM    H8S 8121   4.235   1.551   3.091  1.3341  0.4035  1.1441
   87OSM    H8T 8122   4.364   1.423   3.102  0.1187 -1.9067 -2.3060
   87OSM    C9S 8123   4.164   1.353   3.086 -0.5452 -0.4591 -0.5669
   87OSM    H9S 8124   4.182   1.244   3.070 -1.2877 -1.0209  1.9396
   87OSM    H9T 8125   4.078   1.382   3.022  0.3574 -0.9006 -2.0303
   87OSM   C10S 8126   4.122   1.376   3.230 -0.2288 -0.3858 -0.1128
   87OSM   H10S 8127   4.015   1.353   3.253 -0.9591  2.6372 -0.0740
   87OSM   H10T 8128   4.134   1.482   3.257 -0.3912 -0.9452  2.3522
   87OSM   C11S 8129   4.203   1.286   3.324 -0.1043  0.1886  0.7797
   87OSM   H11S 8130   4.309   1.280   3.290  0.1510  1.2970  1.3479
   87OSM   H11T 8131   4.160   1.184   3.316  0.2536  0.0680  0.2533
   87OSM   C12S 8132   4.191   1.343   3.462 -0.1087 -0.7829 -0.1220
   87OSM   H12S 8133   4.083   1.344   3.486 -0.4021  0.9843 -1.3240
   87OSM   H12T 8134   4.228   1.448   3.469  1.3310 -1.3566  1.5593
   87OSM   C13S 8135   4.275   1.266   3.558 -1.0529  0.1171  0.2176
   87OSM   H13S 8136   4.379   1.260   3.521  0.0472  2.6233  2.5774
   87OSM   H13T 8137   4.242   1.159   3.557  1.4654 -0.8559 -4.2734
   87OSM   C14S 8138   4.277   1.329   3.700 -0.1145 -0.0261  0.5735
   87OSM   H14S 8139   4.322   1.430   3.689 -1.0146  0.2702 -0.6624
   87OSM   H14T 8140   4.172   1.347   3.731 -0.5248  0.4928 -1.0337
   87OSM   C15S 8141   4.334   1.243   3.812  0.4008  0.7322  0.3547
   87OSM   H15S 8142   4.439   1.207   3.804  0.1253 -0.5550  2.0074
   87OSM   H15T 8143   4.275   1.149   3.809  0.4122  0.7429 -1.1808
   87OSM   C16S 8144   4.319   1.323   3.942  0.5720  0.3566 -0.9870
   87OSM   H16S 8145   4.219   1.369   3.954  0.1413  0.0287 -2.9495
   87OSM   H16T 8146   4.385   1.412   3.944  0.5836  0.4005  2.7704
   87OSM   C17S 8147   4.357   1.242   4.068 -0.2418 -0.1975 -0.2322
   87OSM   H17S 8148   4.306   1.145   4.050  0.5288 -0.5902 -0.3275
   87OSM   H17T 8149   4.321   1.293   4.160 -2.0752 -0.3784 -0.7918
   87OSM   C18S 8150   4.506   1.221   4.064 -0.7200 -0.1481 -0.2457
   87OSM   H18S 8151   4.528   1.128   4.006 -1.8392 -1.2926  1.0863
   87OSM   H18T 8152   4.541   1.199   4.167 -0.3090 -3.5723 -1.0055
   87OSM   H18U 8153   4.565   1.305   4.022 -0.1085 -0.1266  0.6493
   87OSM    C1F 8154   4.610   1.034   2.436  0.8490  0.0065  0.2844
   87OSM     OF 8155   4.702   1.092   2.372  0.4951  0.0773  0.1112
   87OSM    C2F 8156   4.628   0.905   2.493  0.5440  0.6152 -0.1840
   87OSM    H2F 8157   4.727   0.867   2.460  0.4929 -1.5465  1.8533
   87OSM    H2G 8158   4.546   0.843   2.452  0.5779 -0.3694  1.1569
   87OSM    C3F 8159   4.614   0.896   2.649 -0.1161  0.2860  0.3052
   87OSM    H3F 8160   4.674   0.806   2.673  1.0157  1.6162  2.7997
   87OSM    H3G 8161   4.512   0.868   2.685 -0.2705 -1.4744 -1.2994
   87OSM    C4F 8162   4.664   1.017   2.728  0.0308 -0.0452  0.4793
   87OSM    H4F 8163   4.586   1.095   2.734 -1.1279 -1.1031 -0.2127
   87OSM    H4G 8164   4.747   1.060   2.669 -1.0677 -1.8027 -2.5690
   87OSM    C5F 8165   4.705   0.980   2.870 -0.3896  0.0680  0.8758
   87OSM    H5F 8166   4.796   0.918   2.865  0.0229  0.7589 -0.8436
   87OSM    H5G 8167   4.627   0.919   2.921  1.5849 -2.0773  1.4627
   87OSM    C6F 8168   4.730   1.106   2.950  0.3407 -0.1993  1.0077
   87OSM    H6F 8169   4.645   1.177   2.943  0.5768 -0.0334 -0.4628
   87OSM    H6G 8170   4.826   1.147   2.912  0.9310 -1.8978  0.5587
   87OSM    C7F 8171   4.760   1.080   3.107  0.3039 -0.2113  0.2222
   87OSM    H7F 8172   4.856   1.025   3.114  1.3196  1.3215 -0.8946
   87OSM    H7G 8173   4.680   1.017   3.150 -0.4490  1.9517  2.1930
   87OSM    C8F 8174   4.785   1.214   3.174 -0.5530  0.0627 -0.3208
   87OSM    H8F 8175   4.836   1.284   3.105  0.9783  1.3043  1.9418
   87OSM    H8G 8176   4.847   1.192   3.263 -1.0106  4.2123  1.2170
   87OSM    C9F 8177   4.657   1.274   3.217  0.4524 -0.3541  0.3230
   87OSM    H9F 8178   4.597   1.308   3.132 -0.2107 -1.8076  0.1863
   87OSM   C10F 8179   4.613   1.300   3.345  0.1491 -0.4231 -0.6511
   87OSM   H10F 8180   4.510   1.337   3.361 -1.1727 -2.6541 -3.1231
   87OSM   C11F 8181   4.680   1.257   3.471  0.4599 -0.6151  0.2999
   87OSM   H11F 8182   4.789   1.239   3.456  0.9002  1.4321  0.6494
   87OSM   H11G 8183   4.638   1.157   3.492 -2.2061  0.1645 -0.8548
   87OSM   C12F 8184   4.675   1.348   3.590 -0.0511  0.4864  0.6312
   87OSM   H12F 8185   4.730   1.294   3.671 -0.6686  0.9803  1.3924
   87OSM   H12G 8186   4.568   1.355   3.618 -0.1610  1.0235  0.1067
   87OSM   C13F 8187   4.741   1.487   3.575  0.1538  0.1330 -0.2677
   87OSM   H13F 8188   4.697   1.525   3.480 -1.4893  1.6637  1.0459
   87OSM   H13G 8189   4.852   1.483   3.568  0.1819  0.9827 -0.4291
   87OSM   C14F 8190   4.688   1.578   3.691 -0.2849 -0.1415 -0.5118
   87OSM   H14F 8191   4.579   1.555   3.702 -0.2503 -0.0596  0.0275
   87OSM   H14G 8192   4.683   1.685   3.664 -0.2987  0.4931  1.7618
   87OSM   C15F 8193   4.755   1.555   3.825 -0.6118  0.8513 -0.3710
   87OSM   H15F 8194   4.858   1.517   3.804 -0.7330  0.9259 -1.1221
   87OSM   H15G 8195   4.706   1.477   3.886 -0.5207  1.8016  0.9432
   87OSM   C16F 8196   4.753   1.675   3.918 -0.0443  0.5161 -0.0897
   87OSM   H16F 8197   4.788   1.771   3.873  0.6393  1.7266  2.8207
   87OSM   H16G 8198   4.804   1.659   4.015 -0.9199 -2.1820 -0.0068
   87OSM   C17F 8199   4.608   1.707   3.962 -0.1140 -0.6411 -0.8226
   87OSM   H17F 8200   4.567   1.615   4.010 -0.3501 -0.6500 -1.0378
   87OSM   H17G 8201   4.551   1.727   3.869 -0.8538 -1.8431 -0.6508
   87OSM   C18F 8202   4.597   1.818   4.062 -0.6443 -0.2537  0.6029
   87OSM   H18F 8203   4.669   1.795   4.143 -1.4371  1.6689  1.9295
   87OSM   H18G 8204   4.499   1.832   4.114  0.3935  1.5460  2.1859
   87OSM   H18H 8205   4.634   1.914   4.021  0.7473 -0.0716  2.1644
   88OSM      N 8206   3.808   5.861   2.006 -0.4613  0.1205 -0.0922
   88OSM    C15 8207   3.769   5.775   1.884  0.0082  0.1747  0.0512
   88OSM   H15A 8208   3.750   5.838   1.798  0.9967 -2.2624 -2.0636
   88OSM   H15B 8209   3.685   5.710   1.902 -0.6300  0.2784 -2.3003
   88OSM   H15C 8210   3.852   5.716   1.850 -1.0220 -0.5873 -1.2358
   88OSM    C14 8211   3.855   5.764   2.117 -0.2267  0.3750  0.5065
   88OSM   H14A 8212   3.923   5.695   2.070  0.0130 -0.7857  2.4410
   88OSM   H14B 8213   3.771   5.700   2.142  0.6036 -1.0383 -0.2490
   88OSM   H14C 8214   3.899   5.818   2.199  0.4453 -1.0734  1.1339
   88OSM    C13 8215   3.929   5.955   1.977  0.0740 -0.2055  0.4149
   88OSM   H13A 8216   3.915   6.022   1.894  2.8543 -0.2617 -0.1833
   88OSM   H13B 8217   4.010   5.888   1.955  0.2837  0.5807 -1.3445
   88OSM   H13C 8218   3.946   6.020   2.062 -0.1690  1.3273 -0.6689
   88OSM    C12 8219   3.688   5.939   2.058 -1.0630  0.5768  0.5342
   88OSM   H12A 8220   3.606   5.873   2.083 -0.0130  0.5098  4.4712
   88OSM   H12B 8221   3.662   6.003   1.975  2.8987  1.8837  0.0804
   88OSM    C11 8222   3.712   6.037   2.169 -0.2361 -0.0572  0.5749
   88OSM   H11A 8223   3.765   5.991   2.255 -0.8350 -0.7297  0.5940
   88OSM   H11B 8224   3.613   6.076   2.204 -0.5312 -1.4879  1.4244
   88OSM      P 8225   3.864   6.238   2.213 -0.1891  0.1669  0.2461
   88OSM    O13 8226   3.949   6.142   2.285 -0.7114 -0.5419  0.7820
   88OSM    O14 8227   3.930   6.353   2.145  0.9573 -0.2305 -0.2751
   88OSM    O11 8228   3.758   6.294   2.307 -0.5735 -0.2904  0.3208
   88OSM    O12 8229   3.782   6.154   2.110 -0.1477  0.2169  0.1997
   88OSM    C1S 8230   3.787   6.356   2.433 -0.2289 -0.1711 -0.5139
   88OSM    H1S 8231   3.824   6.460   2.419  1.0904 -0.1840  2.1294
   88OSM    H1T 8232   3.879   6.303   2.469  1.7418  2.5562 -1.2368
   88OSM     NF 8233   3.723   6.425   2.662 -0.2269 -0.1066  0.2514
   88OSM    HNF 8234   3.752   6.366   2.737  1.4262 -0.4852 -0.6303
   88OSM    C2S 8235   3.682   6.350   2.548 -0.1350 -0.1886 -0.0417
   88OSM    H2S 8236   3.586   6.392   2.513  0.1202  0.7088  0.2883
   88OSM    C3S 8237   3.643   6.204   2.578  0.4934 -0.3693 -0.3640
   88OSM    H3S 8238   3.723   6.156   2.639 -0.2367 -2.2464 -0.8115
   88OSM     O3 8239   3.629   6.121   2.463  0.7054  0.0922 -0.2028
   88OSM    HO3 8240   3.666   6.177   2.394 -0.1966  1.1874  0.1742
   88OSM    C4S 8241   3.513   6.204   2.656 -0.0813 -0.0755  0.1320
   88OSM    H4S 8242   3.513   6.226   2.764 -2.0350 -1.7103  0.5417
   88OSM    C5S 8243   3.387   6.183   2.611 -0.2706  0.4329 -0.5362
   88OSM    H5S 8244   3.378   6.142   2.510  0.8212 -1.1569 -0.0258
   88OSM    C6S 8245   3.261   6.183   2.688  0.4077  0.0286 -0.0042
   88OSM    H6S 8246   3.183   6.161   2.612  1.9049  1.6996 -2.1401
   88OSM    H6T 8247   3.242   6.284   2.729  0.7598  0.0196  0.1884
   88OSM    C7S 8248   3.256   6.071   2.790  0.3198  0.8637 -0.0260
   88OSM    H7S 8249   3.285   5.979   2.735  2.1435  0.7541  1.0259
   88OSM    H7T 8250   3.150   6.060   2.818  0.5229 -3.7529 -0.2612
   88OSM    C8S 8251   3.328   6.100   2.918 -0.5174 -0.5397  0.6077
   88OSM    H8S 8252   3.319   6.209   2.934 -0.0082 -0.6924  2.0976
   88OSM    H8T 8253   3.436   6.093   2.893 -0.7153 -0.7753 -0.1974
   88OSM    C9S 8254   3.294   6.023   3.042 -0.0250  0.1829  0.2888
   88OSM    H9S 8255   3.296   5.916   3.012 -1.3978 -0.5668  2.6669
   88OSM    H9T 8256   3.194   6.054   3.078 -0.5232  0.9945 -1.6413
   88OSM   C10S 8257   3.400   6.051   3.148 -0.2739  0.0194 -0.0357
   88OSM   H10S 8258   3.427   6.158   3.153 -1.0434  0.1834  1.0638
   88OSM   H10T 8259   3.492   5.997   3.118 -1.7149 -0.9368 -3.1997
   88OSM   C11S 8260   3.355   6.007   3.292  0.4556  0.5189 -0.1507
   88OSM   H11S 8261   3.337   5.898   3.286 -2.6018  0.8778  0.5494
   88OSM   H11T 8262   3.262   6.060   3.322 -1.6185 -2.6167 -0.5927
   88OSM   C12S 8263   3.452   6.039   3.405  1.0568 -0.0083  1.0413
   88OSM   H12S 8264   3.455   6.149   3.423  0.1273 -0.3239  3.4137
   88OSM   H12T 8265   3.557   6.013   3.377  0.8388  0.4656 -0.2969
   88OSM   C13S 8266   3.412   5.972   3.539 -0.7369  0.2298 -0.2241
   88OSM   H13S 8267   3.391   5.863   3.537 -0.2037  0.1172  0.1444
   88OSM   H13T 8268   3.318   6.021   3.573 -0.9576  0.7941 -1.5905
   88OSM   C14S 8269   3.509   5.993   3.652 -0.6168  0.2936  0.2047
   88OSM   H14S 8270   3.540   6.097   3.675 -2.7155  0.4578  2.7648
   88OSM   H14T 8271   3.603   5.935   3.637 -0.6343 -0.0728  1.4119
   88OSM   C15S 8272   3.442   5.941   3.785  0.5530 -0.0209  0.2836
   88OSM   H15S 8273   3.432   5.831   3.794  2.9236 -0.3066  0.0603
   88OSM   H15T 8274   3.356   6.009   3.804  0.5913  0.9913 -2.6635
   88OSM   C16S 8275   3.525   5.981   3.911 -0.1053 -0.4358  0.0860
   88OSM   H16S 8276   3.514   6.092   3.906 -3.0574 -0.4657  2.8211
   88OSM   H16T 8277   3.632   5.957   3.894 -0.4409 -1.6942 -0.3539
   88OSM   C17S 8278   3.454   5.947   4.045  1.5499  0.0190 -0.0772
   88OSM   H17S 8279   3.515   6.009   4.114  1.4423  0.6812 -0.5605
   88OSM   H17T 8280   3.466   5.838   4.063 -0.9740 -0.3748 -0.4722
   88OSM   C18S 8281   3.304   5.976   4.048  0.8222 -0.4791 -1.1759
   88OSM   H18S 8282   3.276   6.074   4.002 -1.1211 -0.3034  0.2648
   88OSM   H18T 8283   3.290   5.991   4.158 -0.9597 -2.6170 -1.0466
   88OSM   H18U 8284   3.240   5.898   4.003 -0.2442 -0.5333  0.3371
   88OSM    C1F 8285   3.723   6.557   2.655 -1.1424  0.4986 -0.0117
   88OSM     OF 8286   3.685   6.623   2.559  0.2895  0.1234  0.1272
   88OSM    C2F 8287   3.787   6.623   2.771 -0.2935  0.0514 -0.1284
   88OSM    H2F 8288   3.885   6.665   2.739 -0.2784  0.9669  1.0237
   88OSM    H2G 8289   3.816   6.539   2.838 -0.7699  0.6832  0.8982
   88OSM    C3F 8290   3.704   6.729   2.854  0.4456 -0.7086  0.2711
   88OSM    H3F 8291   3.771   6.747   2.942  2.7882  0.6335 -1.6772
   88OSM    H3G 8292   3.604   6.687   2.878 -1.3156  2.1240 -1.6745
   88OSM    C4F 8293   3.672   6.862   2.788  0.6664  0.4051 -0.0672
   88OSM    H4F 8294   3.587   6.830   2.724  2.5034 -1.2691 -1.7907
   88OSM    H4G 8295   3.752   6.899   2.721  1.0908 -0.8269 -0.2706
   88OSM    C5F 8296   3.635   6.970   2.895  0.1284  0.2491 -0.0417
   88OSM    H5F 8297   3.584   7.046   2.832 -0.9520 -0.4789 -0.0650
   88OSM    H5G 8298   3.728   7.011   2.941 -1.2592  1.9093  1.4341
   88OSM    C6F 8299   3.548   6.910   3.008  0.0411  0.5031  0.3739
   88OSM    H6F 8300   3.596   6.816   3.044  0.4698 -0.9634 -3.5331
   88OSM    H6G 8301   3.450   6.878   2.967 -1.0459  2.4926  1.3036
   88OSM    C7F 8302   3.534   6.998   3.134 -0.2241  0.1278  0.2720
   88OSM    H7F 8303   3.439   7.051   3.112 -0.3827 -0.8617 -1.5606
   88OSM    H7G 8304   3.618   7.070   3.136 -1.7210  1.9334  0.9575
   88OSM    C8F 8305   3.529   6.934   3.276  0.5162 -0.3443 -0.1979
   88OSM    H8F 8306   3.444   6.863   3.271  1.6403 -1.7847  0.2433
   88OSM    H8G 8307   3.504   7.001   3.361 -0.2853  0.8609 -1.3584
   88OSM    C9F 8308   3.652   6.847   3.310  0.1271 -0.1064  0.4566
   88OSM    H9F 8309   3.701   6.802   3.223 -2.1146 -1.8575  0.0257
   88OSM   C10F 8310   3.691   6.803   3.433  0.8902 -0.5071  0.8528
   88OSM   H10F 8311   3.767   6.724   3.444 -1.9272 -3.3002  1.9244
   88OSM   C11F 8312   3.632   6.856   3.563  0.2240 -0.4388 -0.3914
   88OSM   H11F 8313   3.521   6.854   3.560  0.0502  2.4344  0.8222
   88OSM   H11G 8314   3.660   6.963   3.576  1.9979 -1.0031  0.7068
   88OSM   C12F 8315   3.692   6.767   3.676 -0.2086 -0.3351 -0.6471
   88OSM   H12F 8316   3.800   6.791   3.688  0.2820 -2.7537  0.4065
   88OSM   H12G 8317   3.686   6.658   3.658 -0.8985 -1.0109  2.9216
   88OSM   C13F 8318   3.615   6.794   3.808 -0.4720 -0.1272  0.2650
   88OSM   H13F 8319   3.506   6.778   3.790 -1.3592  3.2809  1.7326
   88OSM   H13G 8320   3.639   6.892   3.854 -1.4920  0.4772 -0.4577
   88OSM   C14F 8321   3.659   6.698   3.918  1.3102  0.1095 -0.2258
   88OSM   H14F 8322   3.766   6.719   3.938  0.8686  1.7000  0.6324
   88OSM   H14G 8323   3.643   6.590   3.895 -3.9681  1.1462 -2.9603
   88OSM   C15F 8324   3.594   6.734   4.054  0.0580 -0.1002 -0.6026
   88OSM   H15F 8325   3.486   6.744   4.030  0.1254  0.1819 -0.7935
   88OSM   H15G 8326   3.628   6.836   4.081  0.2341 -0.4448  0.5624
   88OSM   C16F 8327   3.626   6.638   4.170 -0.0142  0.0313 -0.8721
   88OSM   H16F 8328   3.562   6.549   4.151  0.6723 -0.7521  0.3591
   88OSM   H16G 8329   3.594   6.682   4.267  2.0283 -2.5743  1.1182
   88OSM   C17F 8330   3.765   6.582   4.178 -0.4661  0.0299  0.7079
   88OSM   H17F 8331   3.841   6.662   4.189 -0.1248 -0.2132  0.1580
   88OSM   H17G 8332   3.795   6.528   4.085 -1.6604  1.4797 -0.5780
   88OSM   C18F 8333   3.779   6.487   4.299 -0.0346  0.2822 -0.4546
   88OSM   H18F 8334   3.744   6.534   4.394 -1.0177 -1.1802 -0.0546
   88OSM   H18G 8335   3.876   6.439   4.324 -0.1770  0.9715  1.6436
   88OSM   H18H 8336   3.703   6.406   4.290 -2.1077  1.8321  1.8052
   89OSM      N 8337   5.365   2.902   1.918  0.4982  0.6277  0.0978
   89OSM    C15 8338   5.432   2.771   1.899 -0.6225 -0.2406 -0.6206
   89OSM   H15A 8339   5.539   2.783   1.912 -0.8750  0.0359  1.7198
   89OSM   H15B 8340   5.409   2.717   1.809 -2.4365 -2.1885  0.9074
   89OSM   H15C 8341   5.404   2.709   1.983 -1.4316  0.9332  0.0199
   89OSM    C14 8342   5.415   2.994   1.820  0.4192 -0.2597  0.3183
   89OSM   H14A 8343   5.376   3.094   1.835  0.0845 -0.4147  0.4868
   89OSM   H14B 8344   5.391   2.974   1.717 -0.9983  2.2016  0.1073
   89OSM   H14C 8345   5.523   2.998   1.811  0.4312 -1.0446  0.0944
   89OSM    C13 8346   5.219   2.874   1.898 -0.2161  0.6358  0.5103
   89OSM   H13A 8347   5.183   2.785   1.949 -0.0706 -0.1492 -0.7084
   89OSM   H13B 8348   5.197   2.863   1.793  0.1720  0.3617  0.4558
   89OSM   H13C 8349   5.164   2.952   1.948 -0.7358 -0.2019  1.2896
   89OSM    C12 8350   5.386   2.950   2.065  0.6668  0.0626 -0.1684
   89OSM   H12A 8351   5.356   3.053   2.073  1.7596  0.2566  2.3175
   89OSM   H12B 8352   5.491   2.961   2.088  0.2297  1.6276  1.2486
   89OSM    C11 8353   5.315   2.873   2.184  0.5902 -0.5978  0.4783
   89OSM   H11A 8354   5.205   2.872   2.165 -0.0817  2.1830  3.3341
   89OSM   H11B 8355   5.324   2.943   2.270 -0.7478  1.5430 -1.0030
   89OSM      P 8356   5.507   2.725   2.273  0.1257 -0.0028  0.0460
   89OSM    O13 8357   5.561   2.588   2.261 -0.4232 -0.1550  0.0567
   89OSM    O14 8358   5.604   2.824   2.232 -0.9597 -0.3114  0.8581
   89OSM    O11 8359   5.482   2.751   2.427  0.0172  0.4054  0.1148
   89OSM    O12 8360   5.368   2.745   2.201 -0.9684 -0.1222 -0.1400
   89OSM    C1S 8361   5.357   2.735   2.496 -0.7938 -0.1428  0.5482
   89OSM    H1S 8362   5.318   2.632   2.479 -1.7818  0.0141  1.6493
   89OSM    H1T 8363   5.281   2.807   2.457  1.5804  2.3278  0.1868
   89OSM     NF 8364   5.236   2.732   2.713 -0.0506 -0.5403 -0.7489
   89OSM    HNF 8365   5.156   2.790   2.729 -0.9540 -1.6957 -0.9337
   89OSM    C2S 8366   5.367   2.769   2.648  0.1878 -0.0669  1.0328
   89OSM    H2S 8367   5.453   2.706   2.678  0.1502 -1.4247 -1.4643
   89OSM    C3S 8368   5.399   2.916   2.664 -0.1917 -0.7863 -0.9190
   89OSM    H3S 8369   5.309   2.978   2.644  1.2272  1.5404 -0.4909
   89OSM     O3 8370   5.502   2.963   2.582 -0.0545  0.0187 -0.0826
   89OSM    HO3 8371   5.497   2.903   2.507 -1.2420  0.7675 -0.6224
   89OSM    C4S 8372   5.421   2.938   2.816 -0.2939  0.5557 -0.0758
   89OSM    H4S 8373   5.323   2.932   2.866 -1.6895  0.3124 -2.6589
   89OSM    C5S 8374   5.539   2.960   2.880 -0.6430 -0.2769 -0.1065
   89OSM    H5S 8375   5.635   2.952   2.826 -0.8824 -0.8671 -0.4512
   89OSM    C6S 8376   5.549   2.980   3.035  0.3506 -0.4336  0.7929
   89OSM    H6S 8377   5.627   3.058   3.047 -1.6515  1.7553  0.3425
   89OSM    H6T 8378   5.595   2.889   3.079 -0.8046 -0.9378  1.0099
   89OSM    C7S 8379   5.425   3.008   3.127  0.3851 -0.0903 -0.0698
   89OSM    H7S 8380   5.365   2.916   3.113  1.1090 -0.3267 -1.9865
   89OSM    H7T 8381   5.367   3.096   3.093 -0.5293 -0.3418  0.7921
   89OSM    C8S 8382   5.473   3.038   3.267  0.4722  0.0771  0.6338
   89OSM    H8S 8383   5.526   3.135   3.282 -2.5458  2.1710 -1.1009
   89OSM    H8T 8384   5.550   2.961   3.290  2.1108  1.1043 -1.1598
   89OSM    C9S 8385   5.352   3.026   3.358 -0.4501  0.5809  0.8512
   89OSM    H9S 8386   5.306   2.928   3.331 -0.1234  0.4758  0.6699
   89OSM    H9T 8387   5.276   3.102   3.331 -0.9400  0.0713  0.7595
   89OSM   C10S 8388   5.391   3.035   3.506 -0.1808 -0.0385  0.6475
   89OSM   H10S 8389   5.442   3.131   3.532  0.0813 -0.2752  1.0207
   89OSM   H10T 8390   5.463   2.953   3.525 -0.3326 -0.2065  0.4889
   89OSM   C11S 8391   5.279   3.031   3.611  0.3748  0.5915 -0.3725
   89OSM   H11S 8392   5.196   2.973   3.565  0.3256  0.8956 -0.6739
   89OSM   H11T 8393   5.233   3.128   3.641 -2.9559 -2.1025  4.7779
   89OSM   C12S 8394   5.333   2.962   3.738  0.1929  0.2341 -0.9756
   89OSM   H12S 8395   5.431   3.012   3.753 -0.5758  0.9453  2.6475
   89OSM   H12T 8396   5.358   2.853   3.735 -0.0983 -0.0260  2.3521
   89OSM   C13S 8397   5.244   2.978   3.862  0.2727 -0.3105 -0.2784
   89OSM   H13S 8398   5.209   3.083   3.850 -1.3935 -1.0514 -2.4402
   89OSM   H13T 8399   5.304   2.954   3.953 -2.6119 -0.1152  1.8263
   89OSM   C14S 8400   5.130   2.877   3.879 -0.6147 -0.3609  0.0056
   89OSM   H14S 8401   5.174   2.775   3.889  0.7830  0.3434  1.3456
   89OSM   H14T 8402   5.080   2.871   3.780 -0.0617  0.7277 -0.3558
   89OSM   C15S 8403   5.043   2.905   3.999 -0.4257  0.0549  0.3319
   89OSM   H15S 8404   5.108   2.894   4.089  0.1173 -0.4673 -0.1083
   89OSM   H15T 8405   4.965   2.831   4.025 -0.0082  0.3373  2.5455
   89OSM   C16S 8406   4.990   3.048   4.020 -0.0763  0.3207  0.1178
   89OSM   H16S 8407   4.943   3.073   3.923  3.4519 -0.3549 -1.9409
   89OSM   H16T 8408   5.076   3.115   4.042 -1.3980  1.3189  2.6865
   89OSM   C17S 8409   4.882   3.049   4.131 -0.0505  0.0487  0.0415
   89OSM   H17S 8410   4.821   2.957   4.138  0.8550 -0.4390  2.9616
   89OSM   H17T 8411   4.813   3.130   4.099  0.4705  0.5146  0.0741
   89OSM   C18S 8412   4.932   3.080   4.273  0.2077 -0.3356  0.1480
   89OSM   H18S 8413   4.860   3.081   4.358  0.7757 -1.5539  0.6703
   89OSM   H18T 8414   4.973   3.183   4.270 -0.0664 -0.2464 -1.3533
   89OSM   H18U 8415   5.020   3.014   4.291 -0.6648 -1.6184 -0.1334
   89OSM    C1F 8416   5.226   2.601   2.747  0.9780  0.1626  0.2063
   89OSM     OF 8417   5.299   2.517   2.699  0.0541  0.3637  0.2523
   89OSM    C2F 8418   5.110   2.564   2.833 -0.2294 -0.2506  0.3961
   89OSM    H2F 8419   5.096   2.457   2.806 -0.5689  0.0047 -0.5013
   89OSM    H2G 8420   5.023   2.632   2.817  0.2833  0.3446  0.0791
   89OSM    C3F 8421   5.166   2.592   2.974  0.5195 -1.3500  0.6560
   89OSM    H3F 8422   5.200   2.697   2.990 -0.9379 -0.5937 -0.8323
   89OSM    H3G 8423   5.245   2.518   2.998  1.8112 -0.7824 -1.5744
   89OSM    C4F 8424   5.068   2.575   3.093 -0.7600 -0.2471  0.3327
   89OSM    H4F 8425   5.115   2.630   3.178  1.4600  0.3375 -1.1740
   89OSM    H4G 8426   5.074   2.468   3.120 -0.4626  0.2221  2.2781
   89OSM    C5F 8427   4.917   2.610   3.076  0.3660  0.6132  0.3399
   89OSM    H5F 8428   4.879   2.541   2.998 -1.1895  2.1129 -0.2802
   89OSM    H5G 8429   4.914   2.707   3.022 -0.5255 -0.5310 -1.8016
   89OSM    C6F 8430   4.837   2.605   3.208 -0.5822  0.1588  0.0204
   89OSM    H6F 8431   4.838   2.507   3.259  1.0045  0.3820  0.4820
   89OSM    H6G 8432   4.731   2.615   3.177 -0.6538 -2.8598 -1.0167
   89OSM    C7F 8433   4.880   2.718   3.297  0.5900 -0.1591 -0.3219
   89OSM    H7F 8434   4.893   2.811   3.237  1.1503 -1.1827 -1.8493
   89OSM    H7G 8435   4.981   2.697   3.336  0.7747 -0.2091 -0.8228
   89OSM    C8F 8436   4.797   2.732   3.427  0.0461  0.3997 -0.0933
   89OSM    H8F 8437   4.867   2.776   3.501 -1.0708 -1.0389  1.8820
   89OSM    H8G 8438   4.773   2.630   3.462 -0.7013  0.6960  0.2785
   89OSM    C9F 8439   4.666   2.811   3.412  0.0078 -0.2119  0.4316
   89OSM    H9F 8440   4.591   2.763   3.348 -1.3450 -0.7409  2.3223
   89OSM   C10F 8441   4.629   2.921   3.473 -0.0469  0.5570 -0.2229
   89OSM   H10F 8442   4.531   2.964   3.448 -0.3475  1.1778  1.8545
   89OSM   C11F 8443   4.715   2.973   3.585 -0.3927  0.0720 -0.3281
   89OSM   H11F 8444   4.701   3.081   3.605  1.5359  0.1862  0.6416
   89OSM   H11G 8445   4.823   2.974   3.560 -0.5779  1.6102 -1.1657
   89OSM   C12F 8446   4.687   2.899   3.716 -0.1946  0.6831 -0.3357
   89OSM   H12F 8447   4.748   2.932   3.803 -0.6024  0.3901  0.0635
   89OSM   H12G 8448   4.704   2.790   3.704  0.8851  0.7241  0.6524
   89OSM   C13F 8449   4.547   2.912   3.757 -0.7454 -0.0375 -0.4235
   89OSM   H13F 8450   4.476   2.860   3.689  0.4646  0.8185 -2.4086
   89OSM   H13G 8451   4.525   3.020   3.749  0.2703  0.0952 -1.7488
   89OSM   C14F 8452   4.535   2.868   3.906 -0.4942 -0.0988 -0.1645
   89OSM   H14F 8453   4.594   2.933   3.974  0.1437  1.2045 -1.8794
   89OSM   H14G 8454   4.587   2.770   3.908  0.3588  0.2760 -2.0258
   89OSM   C15F 8455   4.396   2.871   3.958  0.7305  0.2346 -0.6068
   89OSM   H15F 8456   4.332   2.824   3.881 -1.0714 -0.3134  1.1338
   89OSM   H15G 8457   4.364   2.977   3.948 -0.6199 -0.3449 -3.0266
   89OSM   C16F 8458   4.380   2.821   4.095 -0.1568  0.5677  0.1842
   89OSM   H16F 8459   4.425   2.879   4.177 -0.6833  1.5349 -0.1980
   89OSM   H16G 8460   4.409   2.714   4.101 -0.4597  0.5168  0.8092
   89OSM   C17F 8461   4.235   2.828   4.141 -0.0818 -0.6539 -1.1691
   89OSM   H17F 8462   4.173   2.742   4.109  1.2468 -2.7545  1.4576
   89OSM   H17G 8463   4.197   2.923   4.099 -1.0068  0.0962  1.1655
   89OSM   C18F 8464   4.216   2.837   4.296  1.1955  0.1788 -0.6351
   89OSM   H18F 8465   4.188   2.734   4.327 -1.6870  1.0966  0.0938
   89OSM   H18G 8466   4.132   2.906   4.320  0.8214  1.1383 -4.0984
   89OSM   H18H 8467   4.295   2.888   4.357 -1.0594 -0.1834  2.8708
   90OSM      N 8468   3.641   3.689   2.068 -0.2312 -0.0961  0.3387
   90OSM    C15 8469   3.643   3.553   2.016  0.4899  0.3492  0.2657
   90OSM   H15A 8470   3.600   3.481   2.085  1.5275 -0.7861 -0.2339
   90OSM   H15B 8471   3.744   3.522   1.997 -0.1726 -2.5003  0.8934
   90OSM   H15C 8472   3.592   3.555   1.921 -2.3253 -1.6444  1.5713
   90OSM    C14 8473   3.721   3.693   2.203  0.4865  0.0086  0.7275
   90OSM   H14A 8474   3.725   3.800   2.217 -4.0135  0.2860  1.4739
   90OSM   H14B 8475   3.815   3.645   2.180  1.6768  2.7395 -0.6051
   90OSM   H14C 8476   3.665   3.647   2.282  0.5548 -2.1735 -0.4213
   90OSM    C13 8477   3.704   3.780   1.975 -0.4634  0.3547 -0.6788
   90OSM   H13A 8478   3.709   3.876   2.024  1.1110 -0.3436  0.6188
   90OSM   H13B 8479   3.654   3.798   1.881 -0.3970 -1.2931 -1.0519
   90OSM   H13C 8480   3.806   3.757   1.949 -0.4474  2.1452 -2.4849
   90OSM    C12 8481   3.505   3.736   2.105  0.0620  0.5207 -0.1555
   90OSM   H12A 8482   3.464   3.660   2.170  0.7539 -1.1212 -1.5653
   90OSM   H12B 8483   3.448   3.732   2.014 -1.9763 -2.3145  1.1304
   90OSM    C11 8484   3.480   3.879   2.168 -0.1854 -0.1578  0.6733
   90OSM   H11A 8485   3.485   3.875   2.279  1.5538  0.7540  0.6564
   90OSM   H11B 8486   3.371   3.894   2.151 -0.2824  0.7581  1.9295
   90OSM      P 8487   3.511   4.111   2.044 -0.0256 -0.0660 -0.4627
   90OSM    O13 8488   3.596   4.153   1.932  0.3347  0.1238  0.3422
   90OSM    O14 8489   3.366   4.102   2.005 -0.3118  0.4387 -0.2052
   90OSM    O11 8490   3.534   4.213   2.165 -0.4702 -0.1594 -0.2754
   90OSM    O12 8491   3.571   3.981   2.111 -0.4810  0.7955 -0.0448
   90OSM    C1S 8492   3.482   4.184   2.294  0.2621 -0.1706  0.0146
   90OSM    H1S 8493   3.560   4.126   2.348  1.1215  1.1824  0.2687
   90OSM    H1T 8494   3.395   4.117   2.275  1.8182 -2.3383  0.0730
   90OSM     NF 8495   3.424   4.274   2.509  0.3230 -0.1571  0.3892
   90OSM    HNF 8496   3.330   4.273   2.543 -0.8671 -0.2523 -2.5279
   90OSM    C2S 8497   3.445   4.306   2.369  0.5995  0.4957  0.8524
   90OSM    H2S 8498   3.538   4.363   2.346  1.8794 -1.7709  0.0852
   90OSM    C3S 8499   3.328   4.384   2.307 -0.2263 -0.0184 -0.0395
   90OSM    H3S 8500   3.237   4.321   2.323 -0.8980  0.9488  0.0194
   90OSM     O3 8501   3.339   4.414   2.167 -0.8312  0.2297  0.1384
   90OSM    HO3 8502   3.421   4.370   2.145  0.0885  2.2763 -0.7627
   90OSM    C4S 8503   3.332   4.517   2.382 -0.1138  0.8561  0.7647
   90OSM    H4S 8504   3.419   4.580   2.361 -0.6302  2.7717  3.7360
   90OSM    C5S 8505   3.243   4.562   2.469  0.0604  0.3335 -0.2262
   90OSM    H5S 8506   3.148   4.508   2.484  0.1845 -0.7546 -2.9211
   90OSM    C6S 8507   3.246   4.698   2.546  0.6207  0.0300 -0.5793
   90OSM    H6S 8508   3.147   4.749   2.544  0.1865 -0.7650 -0.1083
   90OSM    H6T 8509   3.319   4.762   2.492 -0.3343  1.3086 -0.4162
   90OSM    C7S 8510   3.290   4.673   2.688  0.2696  0.9164 -0.2646
   90OSM    H7S 8511   3.240   4.581   2.723  0.5417 -0.7020 -3.6696
   90OSM    H7T 8512   3.252   4.753   2.754 -2.1429 -0.7351  0.4826
   90OSM    C8S 8513   3.446   4.651   2.688  0.0593  0.2363 -0.7129
   90OSM    H8S 8514   3.503   4.747   2.681 -0.0685  0.3351 -0.4171
   90OSM    H8T 8515   3.468   4.600   2.592  0.0816  0.8851 -1.0628
   90OSM    C9S 8516   3.481   4.565   2.806 -0.4184  0.0064  0.2825
   90OSM    H9S 8517   3.573   4.505   2.789 -0.6576  0.2453 -2.1488
   90OSM    H9T 8518   3.408   4.485   2.828  0.2648 -0.6966  0.0326
   90OSM   C10S 8519   3.509   4.645   2.934  0.3648  0.3184  0.5415
   90OSM   H10S 8520   3.443   4.733   2.951  0.3734  0.3700  0.3036
   90OSM   H10T 8521   3.612   4.685   2.933  0.5757 -0.2207  0.7328
   90OSM   C11S 8522   3.507   4.552   3.056  0.2649 -0.4127 -1.1029
   90OSM   H11S 8523   3.593   4.482   3.054 -0.2103 -1.0229 -0.5266
   90OSM   H11T 8524   3.412   4.494   3.056 -0.2601  0.1830  2.7033
   90OSM   C12S 8525   3.499   4.643   3.176  0.3761 -0.0868  0.4232
   90OSM   H12S 8526   3.412   4.712   3.173 -0.4316 -1.0925 -1.6664
   90OSM   H12T 8527   3.596   4.699   3.182  3.0580 -4.0284 -1.6022
   90OSM   C13S 8528   3.513   4.555   3.306  0.2363 -1.0553 -1.0934
   90OSM   H13S 8529   3.609   4.500   3.292  1.7074  0.7848  1.1309
   90OSM   H13T 8530   3.428   4.483   3.306  0.7693 -1.7463  1.0561
   90OSM   C14S 8531   3.500   4.623   3.442  0.3614 -0.0178  0.0122
   90OSM   H14S 8532   3.407   4.683   3.434  0.4344 -0.0843 -1.7231
   90OSM   H14T 8533   3.582   4.696   3.459  0.2804  0.3108 -0.9242
   90OSM   C15S 8534   3.490   4.531   3.562 -0.0511 -0.2246 -1.1381
   90OSM   H15S 8535   3.575   4.459   3.562 -0.7518 -1.0588 -1.3349
   90OSM   H15T 8536   3.396   4.472   3.561 -0.5886  0.5955 -0.4802
   90OSM   C16S 8537   3.496   4.615   3.696  0.1779  0.4992  0.1510
   90OSM   H16S 8538   3.420   4.693   3.717 -0.5788  0.2350 -1.4497
   90OSM   H16T 8539   3.590   4.674   3.689  0.4195  0.0173 -0.8612
   90OSM   C17S 8540   3.498   4.533   3.828  0.5378  0.4072 -0.6264
   90OSM   H17S 8541   3.557   4.597   3.896  0.1059  0.6143 -0.4477
   90OSM   H17T 8542   3.564   4.444   3.815 -0.6585 -0.8232  1.2854
   90OSM   C18S 8543   3.366   4.485   3.889  0.4406 -0.2159  0.6736
   90OSM   H18S 8544   3.307   4.407   3.836 -3.0174  1.5668  1.6684
   90OSM   H18T 8545   3.305   4.576   3.901  2.2178  1.7172 -3.1649
   90OSM   H18U 8546   3.380   4.437   3.988 -0.2086  1.2944  1.5167
   90OSM    C1F 8547   3.529   4.243   2.579 -0.3025 -0.7199 -0.1044
   90OSM     OF 8548   3.641   4.256   2.534  0.1268  0.2809  0.0572
   90OSM    C2F 8549   3.505   4.204   2.723 -0.4131 -0.2384  0.1115
   90OSM    H2F 8550   3.398   4.176   2.729 -0.5228  0.1211 -0.0696
   90OSM    H2G 8551   3.509   4.295   2.788 -0.3409 -2.0615  2.8189
   90OSM    C3F 8552   3.602   4.100   2.785 -0.1657  0.4848 -0.0912
   90OSM    H3F 8553   3.708   4.133   2.782  0.2463 -0.7595  0.2746
   90OSM    H3G 8554   3.605   4.003   2.731 -2.5476  1.4006 -2.0907
   90OSM    C4F 8555   3.557   4.069   2.928 -1.0357  0.1378 -0.1168
   90OSM    H4F 8556   3.454   4.029   2.919 -1.6027  0.7270  2.9363
   90OSM    H4G 8557   3.560   4.159   2.992  1.1162  0.4642 -0.5923
   90OSM    C5F 8558   3.638   3.956   2.991  0.2712 -1.1236  0.1361
   90OSM    H5F 8559   3.642   3.884   2.907 -0.2679 -2.2455  1.0424
   90OSM    H5G 8560   3.593   3.927   3.088  2.6078 -2.0115  1.0390
   90OSM    C6F 8561   3.774   3.997   3.038 -0.7799  0.8288 -1.3327
   90OSM    H6F 8562   3.752   4.083   3.104 -1.1877 -1.1791  1.3338
   90OSM    H6G 8563   3.837   4.038   2.956  1.1781 -0.4476 -0.5268
   90OSM    C7F 8564   3.863   3.896   3.113  0.2603  0.4000 -0.3269
   90OSM    H7F 8565   3.943   3.950   3.166  1.9944 -0.4758 -1.9178
   90OSM    H7G 8566   3.928   3.846   3.038 -0.3499 -0.8154 -0.0852
   90OSM    C8F 8567   3.806   3.795   3.209  0.0565  0.3034 -0.3131
   90OSM    H8F 8568   3.758   3.843   3.297 -2.0719 -0.1778 -1.1531
   90OSM    H8G 8569   3.894   3.743   3.253 -0.6322 -1.9419 -1.4186
   90OSM    C9F 8570   3.723   3.681   3.153 -0.7953 -0.0497 -0.2654
   90OSM    H9F 8571   3.773   3.643   3.063  0.4836 -0.6939  0.6924
   90OSM   C10F 8572   3.617   3.618   3.202  0.6767  0.1554 -0.1432
   90OSM   H10F 8573   3.577   3.532   3.146  0.6829 -0.8482  1.3518
   90OSM   C11F 8574   3.544   3.647   3.334 -0.2116 -0.3107  0.1924
   90OSM   H11F 8575   3.463   3.571   3.329  0.6670 -1.2364 -0.5330
   90OSM   H11G 8576   3.488   3.742   3.336 -1.9974 -1.2296 -2.0867
   90OSM   C12F 8577   3.627   3.611   3.458  0.2091 -0.3782 -0.2931
   90OSM   H12F 8578   3.703   3.691   3.472  0.1628 -0.3559 -0.1673
   90OSM   H12G 8579   3.682   3.515   3.453  0.1286 -0.5598  1.6081
   90OSM   C13F 8580   3.550   3.616   3.590 -0.4698  0.6487 -1.0197
   90OSM   H13F 8581   3.519   3.722   3.597 -2.3938  0.0282  1.0214
   90OSM   H13G 8582   3.617   3.600   3.677 -0.9779  0.8105 -0.5897
   90OSM   C14F 8583   3.434   3.511   3.604 -0.2080 -0.0192 -0.0243
   90OSM   H14F 8584   3.474   3.408   3.589  0.9783  0.4764 -0.3630
   90OSM   H14G 8585   3.358   3.523   3.523 -0.8814  0.3110  0.6416
   90OSM   C15F 8586   3.349   3.533   3.735  0.1561  0.4401 -0.0145
   90OSM   H15F 8587   3.323   3.640   3.730  0.2662  0.4130 -1.6987
   90OSM   H15G 8588   3.403   3.512   3.830  0.7458  0.2845 -0.3783
   90OSM   C16F 8589   3.210   3.464   3.726 -0.6677  0.2340  0.7748
   90OSM   H16F 8590   3.245   3.359   3.729  0.3713  0.5741  0.7045
   90OSM   H16G 8591   3.167   3.484   3.625  0.8632  1.1504  0.2703
   90OSM   C17F 8592   3.109   3.503   3.846 -0.4966  0.4210  0.9862
   90OSM   H17F 8593   3.017   3.441   3.844 -0.6448  0.5816  2.0865
   90OSM   H17G 8594   3.066   3.604   3.827  0.7688  0.6921 -0.6396
   90OSM   C18F 8595   3.161   3.484   3.988  0.5754  0.3581 -0.8359
   90OSM   H18F 8596   3.250   3.547   4.011 -0.2930  0.9805  1.0222
   90OSM   H18G 8597   3.185   3.379   4.015 -2.0384 -0.9721 -3.2347
   90OSM   H18H 8598   3.079   3.501   4.061  0.6147 -3.2621  0.2636
   91OSM      N 8599   0.100   2.517   1.999 -0.1902 -0.0688  0.4636
   91OSM    C15 8600  -0.025   2.445   2.021 -0.4969  0.2524 -0.0459
   91OSM   H15A 8601  -0.076   2.502   2.097 -2.0034 -0.1717 -0.7148
   91OSM   H15B 8602   0.003   2.346   2.052  1.5153  0.0221 -2.3219
   91OSM   H15C 8603  -0.094   2.436   1.939  2.4472  0.9332 -2.7987
   91OSM    C14 8604   0.175   2.440   1.887  0.2391  0.3861 -0.2346
   91OSM   H14A 8605   0.101   2.415   1.812 -0.3820  1.3322  0.0364
   91OSM   H14B 8606   0.208   2.346   1.928 -0.9653  1.0379  2.4764
   91OSM   H14C 8607   0.240   2.515   1.844 -1.8663  1.2910 -2.0936
   91OSM    C13 8608   0.068   2.657   1.951  0.1130 -0.1281  0.0428
   91OSM   H13A 8609  -0.007   2.661   1.873  0.0795 -0.8012  0.0352
   91OSM   H13B 8610   0.151   2.715   1.912 -1.1294  1.0961 -0.9001
   91OSM   H13C 8611   0.025   2.718   2.028 -0.5099  1.2527 -1.3398
   91OSM    C12 8612   0.188   2.514   2.122 -0.1924 -0.7680 -0.2161
   91OSM   H12A 8613   0.218   2.413   2.146 -0.7289 -1.0686 -0.7900
   91OSM   H12B 8614   0.115   2.539   2.198 -1.9352 -0.7794 -1.8355
   91OSM    C11 8615   0.318   2.604   2.130 -0.0878  0.2619 -0.1910
   91OSM   H11A 8616   0.384   2.564   2.050 -1.7999  0.4800 -1.7637
   91OSM   H11B 8617   0.368   2.578   2.226  0.0753 -0.6249 -0.5151
   91OSM      P 8618   0.237   2.826   2.237 -0.4234  0.1526 -0.4204
   91OSM    O13 8619   0.345   2.923   2.274  0.9287  0.1944 -0.5024
   91OSM    O14 8620   0.102   2.884   2.207 -0.2218 -0.8611 -0.0471
   91OSM    O11 8621   0.232   2.723   2.358 -0.1609 -0.0418  0.3470
   91OSM    O12 8622   0.282   2.741   2.108 -0.3476  0.9682 -0.0676
   91OSM    C1S 8623   0.160   2.764   2.476  0.4876  0.3201 -0.6193
   91OSM    H1S 8624   0.052   2.769   2.450  0.1407  1.3750  0.8928
   91OSM    H1T 8625   0.178   2.869   2.508 -0.7114  1.0647 -2.2458
   91OSM     NF 8626   0.080   2.705   2.699  0.2769  0.0495  0.3165
   91OSM    HNF 8627   0.113   2.778   2.759  2.0523 -1.3158  1.1067
   91OSM    C2S 8628   0.182   2.663   2.602  0.7128  0.0980  0.0434
   91OSM    H2S 8629   0.159   2.562   2.562  2.1477 -0.8438  1.4582
   91OSM    C3S 8630   0.332   2.677   2.639  0.9442 -0.6713 -0.1749
   91OSM    H3S 8631   0.348   2.785   2.655 -0.2943  0.0552 -3.1931
   91OSM     O3 8632   0.425   2.640   2.541 -0.6494  0.3234  0.0304
   91OSM    HO3 8633   0.372   2.616   2.465 -2.3009  0.4498  1.0957
   91OSM    C4S 8634   0.347   2.611   2.779 -0.3302 -0.1540 -0.2353
   91OSM    H4S 8635   0.310   2.668   2.866  0.1141  0.0727 -0.1885
   91OSM    C5S 8636   0.405   2.493   2.797 -0.0754  0.6229  0.3229
   91OSM    H5S 8637   0.444   2.433   2.714 -0.0951 -0.5797  1.1507
   91OSM    C6S 8638   0.424   2.431   2.933 -1.1124 -0.3597 -1.0352
   91OSM    H6S 8639   0.534   2.423   2.948 -0.8871  2.9779 -0.2986
   91OSM    H6T 8640   0.377   2.330   2.941  0.0468 -0.8189  0.4180
   91OSM    C7S 8641   0.370   2.509   3.056 -0.4829  0.7165 -0.1821
   91OSM    H7S 8642   0.263   2.531   3.040 -1.1803 -0.3060  2.5348
   91OSM    H7T 8643   0.423   2.607   3.059  1.9196 -0.5038 -0.3573
   91OSM    C8S 8644   0.391   2.437   3.191 -0.5045  0.2196 -0.3906
   91OSM    H8S 8645   0.491   2.390   3.199 -0.2786  0.9256  1.4521
   91OSM    H8T 8646   0.318   2.353   3.194  0.9424 -1.0734  2.7272
   91OSM    C9S 8647   0.345   2.513   3.318 -0.7001 -0.5721 -0.4383
   91OSM    H9S 8648   0.238   2.542   3.309 -0.9679 -1.8085 -1.7227
   91OSM    H9T 8649   0.391   2.611   3.342  1.3257 -1.8854  1.4402
   91OSM   C10S 8650   0.360   2.424   3.446  0.0101 -0.2688  0.4330
   91OSM   H10S 8651   0.464   2.383   3.444 -0.5154 -1.6854  0.6535
   91OSM   H10T 8652   0.307   2.327   3.438  5.2167 -3.4306 -1.7397
   91OSM   C11S 8653   0.328   2.514   3.568  0.1229 -0.4595  0.0602
   91OSM   H11S 8654   0.227   2.558   3.551  1.1003  1.4525 -1.1057
   91OSM   H11T 8655   0.407   2.591   3.568  1.0076 -1.2255  3.1502
   91OSM   C12S 8656   0.345   2.426   3.695 -0.2637 -0.5627  0.2951
   91OSM   H12S 8657   0.451   2.414   3.726 -0.0714  0.4473  0.0550
   91OSM   H12T 8658   0.290   2.332   3.670  0.7736 -0.9554 -0.5736
   91OSM   C13S 8659   0.274   2.480   3.827  0.0916 -0.8681 -0.1131
   91OSM   H13S 8660   0.163   2.479   3.822  0.1446 -0.0488 -2.4695
   91OSM   H13T 8661   0.276   2.591   3.830 -1.7582 -0.7679 -1.1153
   91OSM   C14S 8662   0.318   2.408   3.957  0.4179 -0.0528 -0.0886
   91OSM   H14S 8663   0.296   2.488   4.031  1.0250  0.9503 -0.9695
   91OSM   H14T 8664   0.427   2.388   3.960  0.4306  0.0015 -0.1874
   91OSM   C15S 8665   0.238   2.289   3.999  0.0942 -0.0427 -0.0572
   91OSM   H15S 8666   0.269   2.197   3.945 -0.5829  0.1551 -0.8068
   91OSM   H15T 8667   0.132   2.315   3.975 -0.1254 -2.0190 -1.4589
   91OSM   C16S 8668   0.258   2.262   4.150  0.3804  0.3097 -0.0058
   91OSM   H16S 8669   0.240   2.352   4.213  0.1949  0.2211  0.0707
   91OSM   H16T 8670   0.361   2.222   4.162  1.0408  2.4438  2.2689
   91OSM   C17S 8671   0.150   2.154   4.185 -0.3966 -0.6187 -0.4354
   91OSM   H17S 8672   0.165   2.069   4.116  0.7119 -2.2850  1.7345
   91OSM   H17T 8673   0.059   2.215   4.167 -0.0996  0.4192  1.2793
   91OSM   C18S 8674   0.168   2.103   4.328 -0.5364 -0.6432 -0.4855
   91OSM   H18S 8675   0.139   2.179   4.405  0.5144  0.7134 -1.3799
   91OSM   H18T 8676   0.271   2.069   4.347 -1.0144 -2.4915 -1.0434
   91OSM   H18U 8677   0.110   2.010   4.347  4.1757 -3.9202 -0.4213
   91OSM    C1F 8678  -0.049   2.690   2.677  0.2187 -0.1277  0.0396
   91OSM     OF 8679  -0.081   2.597   2.600 -0.2335 -0.5726  0.1782
   91OSM    C2F 8680  -0.150   2.785   2.741  0.3511 -0.0627 -0.1073
   91OSM    H2F 8681  -0.222   2.797   2.657 -0.6903 -1.2052  0.5816
   91OSM    H2G 8682  -0.108   2.883   2.771  1.2339 -0.6189  0.5147
   91OSM    C3F 8683  -0.233   2.712   2.849  0.0350  0.1727 -0.4002
   91OSM    H3F 8684  -0.290   2.622   2.818 -1.3407  0.0475  2.2877
   91OSM    H3G 8685  -0.313   2.776   2.891 -0.5181  0.8444 -2.3433
   91OSM    C4F 8686  -0.156   2.689   2.977 -0.3775 -0.7945  0.5845
   91OSM    H4F 8687  -0.099   2.782   2.998  0.5440 -1.1657 -0.2187
   91OSM    H4G 8688  -0.073   2.618   2.957 -0.7228 -0.9750 -0.2223
   91OSM    C5F 8689  -0.232   2.645   3.102 -0.2434  0.9456 -0.5835
   91OSM    H5F 8690  -0.298   2.555   3.094  0.0900  0.7014 -0.5793
   91OSM    H5G 8691  -0.293   2.725   3.149 -1.3685 -0.4926  0.4977
   91OSM    C6F 8692  -0.122   2.608   3.208  0.5126 -0.0440  0.2492
   91OSM    H6F 8693  -0.086   2.709   3.239 -1.3169  0.6724  0.1582
   91OSM    H6G 8694  -0.030   2.559   3.169  0.3915  0.0514 -0.1659
   91OSM    C7F 8695  -0.196   2.538   3.327  0.3533  0.5028 -0.3428
   91OSM    H7F 8696  -0.232   2.440   3.290 -0.9119  1.9109 -3.1909
   91OSM    H7G 8697  -0.278   2.600   3.369  0.4679  0.0434  0.5729
   91OSM    C8F 8698  -0.108   2.496   3.442  0.2188 -0.1892  0.1955
   91OSM    H8F 8699  -0.007   2.481   3.397 -1.2664  0.0681 -3.5410
   91OSM    H8G 8700  -0.145   2.403   3.491  0.0353  0.5004  1.4196
   91OSM    C9F 8701  -0.103   2.598   3.547  0.0490  0.3964 -0.3656
   91OSM    H9F 8702  -0.003   2.643   3.559  0.2736  0.1830 -1.3156
   91OSM   C10F 8703  -0.187   2.616   3.648 -0.0349  0.3822 -0.4731
   91OSM   H10F 8704  -0.160   2.687   3.728  0.5964  1.1326 -1.3227
   91OSM   C11F 8705  -0.316   2.539   3.677  0.1709  0.5461 -0.0751
   91OSM   H11F 8706  -0.359   2.480   3.594  0.9172  0.4951 -0.4339
   91OSM   H11G 8707  -0.406   2.599   3.701  0.7061  1.5121 -0.4360
   91OSM   C12F 8708  -0.305   2.450   3.806  0.8448 -0.1325 -0.0846
   91OSM   H12F 8709  -0.210   2.396   3.789  0.3299 -2.7010  4.0253
   91OSM   H12G 8710  -0.389   2.377   3.801  0.0988  0.7648 -2.2493
   91OSM   C13F 8711  -0.303   2.537   3.929  0.5026  0.2989 -0.9260
   91OSM   H13F 8712  -0.404   2.577   3.950  0.8561  0.0690  1.4598
   91OSM   H13G 8713  -0.237   2.627   3.929  1.8065 -0.4038  3.2462
   91OSM   C14F 8714  -0.261   2.451   4.045  0.4035  0.4525 -0.5306
   91OSM   H14F 8715  -0.165   2.402   4.022  0.9707  1.5285 -0.5266
   91OSM   H14G 8716  -0.345   2.380   4.062 -0.7924  2.1448  0.9562
   91OSM   C15F 8717  -0.241   2.524   4.180 -1.1131 -0.1249 -0.1576
   91OSM   H15F 8718  -0.331   2.571   4.224 -0.7954  0.2895  0.0626
   91OSM   H15G 8719  -0.181   2.614   4.152 -1.0395 -0.6127 -1.5996
   91OSM   C16F 8720  -0.176   2.427   4.277  0.4847  0.1854  0.2698
   91OSM   H16F 8721  -0.139   2.486   4.364  0.4455  0.8644 -0.1656
   91OSM   H16G 8722  -0.081   2.394   4.230  1.3129  3.1920 -0.4208
   91OSM   C17F 8723  -0.270   2.317   4.339  0.7710  0.9813  0.2706
   91OSM   H17F 8724  -0.286   2.247   4.254 -0.3356  0.7328  0.6671
   91OSM   H17G 8725  -0.368   2.350   4.380  0.9196 -0.1581  1.6141
   91OSM   C18F 8726  -0.211   2.234   4.457  0.2776 -0.8261 -1.1480
   91OSM   H18F 8727  -0.285   2.158   4.489 -0.2599  0.8345  1.9785
   91OSM   H18G 8728  -0.200   2.300   4.546 -0.4263 -2.2653  0.0424
   91OSM   H18H 8729  -0.115   2.179   4.445 -0.9184 -2.8182 -1.9326
   92OSM      N 8730   3.109   5.434   1.646  0.3084  0.1464 -0.2873
   92OSM    C15 8731   2.977   5.351   1.648 -0.1404 -0.0751 -0.2394
   92OSM   H15A 8732   2.905   5.408   1.592 -1.4433  0.2900  1.6919
   92OSM   H15B 8733   2.950   5.354   1.753  1.8862  0.0867  0.3282
   92OSM   H15C 8734   2.996   5.253   1.607 -0.8843 -1.2105  1.9721
   92OSM    C14 8735   3.204   5.359   1.736 -0.1097  0.1535 -0.4315
   92OSM   H14A 8736   3.228   5.265   1.687 -0.3395 -0.2549  0.2223
   92OSM   H14B 8737   3.163   5.337   1.833  0.6208  2.2295  0.3892
   92OSM   H14C 8738   3.294   5.417   1.742  1.5128 -2.1394 -1.1103
   92OSM    C13 8739   3.163   5.422   1.509 -0.3614  0.3692  0.1534
   92OSM   H13A 8740   3.088   5.459   1.440  1.3312  0.5351 -1.6718
   92OSM   H13B 8741   3.177   5.321   1.474  2.0843  1.0355 -1.0460
   92OSM   H13C 8742   3.250   5.484   1.495  0.1734 -0.5570 -0.7637
   92OSM    C12 8743   3.081   5.575   1.684  0.1719 -0.2165  0.1296
   92OSM   H12A 8744   3.045   5.577   1.785  2.2604  3.3902  0.9961
   92OSM   H12B 8745   3.005   5.609   1.615  0.4941  0.1370 -0.0548
   92OSM    C11 8746   3.199   5.669   1.677 -0.0774 -0.2797  0.3299
   92OSM   H11A 8747   3.164   5.775   1.680 -0.1875 -0.3150  0.2457
   92OSM   H11B 8748   3.257   5.654   1.584 -0.4426  1.4643 -0.2165
   92OSM      P 8749   3.418   5.721   1.805 -0.1582  0.5092  0.4671
   92OSM    O13 8750   3.491   5.714   1.674  0.4662  0.1166 -0.3376
   92OSM    O14 8751   3.403   5.852   1.870 -0.1139 -0.1221 -0.1534
   92OSM    O11 8752   3.489   5.624   1.912  0.3502  0.5309 -0.0632
   92OSM    O12 8753   3.281   5.645   1.796 -0.3043  0.2894 -0.2908
   92OSM    C1S 8754   3.437   5.629   2.048  0.0172 -0.2106 -0.0375
   92OSM    H1S 8755   3.330   5.659   2.050  0.0614 -0.1045  1.0455
   92OSM    H1T 8756   3.504   5.697   2.105  1.3384 -1.9447  0.5629
   92OSM     NF 8757   3.402   5.526   2.267 -0.3704 -0.9672  0.1257
   92OSM    HNF 8758   3.463   5.531   2.345  0.2632 -0.6043 -0.3803
   92OSM    C2S 8759   3.454   5.496   2.131 -0.4852  0.2750 -0.2104
   92OSM    H2S 8760   3.400   5.412   2.080  0.3484  0.3466 -1.2409
   92OSM    C3S 8761   3.602   5.442   2.137 -0.1059 -0.3362 -0.5233
   92OSM    H3S 8762   3.651   5.519   2.201  0.9764 -0.2220 -1.4560
   92OSM     O3 8763   3.676   5.462   2.015  0.2948  0.0264  0.1131
   92OSM    HO3 8764   3.619   5.521   1.965  1.9011  1.8104  0.2839
   92OSM    C4S 8765   3.621   5.313   2.215  0.4979  0.2773  0.6121
   92OSM    H4S 8766   3.557   5.232   2.178  0.4010  0.6276  0.0145
   92OSM    C5S 8767   3.698   5.288   2.320 -0.0734 -0.2928 -0.4475
   92OSM    H5S 8768   3.753   5.375   2.359 -1.0965 -0.2410  0.9239
   92OSM    C6S 8769   3.714   5.169   2.402  0.4045  0.2737 -0.1163
   92OSM    H6S 8770   3.822   5.148   2.420  0.0755 -3.6184 -1.6112
   92OSM    H6T 8771   3.681   5.078   2.347 -0.4155  0.5127 -0.0250
   92OSM    C7S 8772   3.647   5.164   2.539 -0.2544  0.3476 -0.0647
   92OSM    H7S 8773   3.536   5.165   2.536 -0.2799  1.4413  0.7142
   92OSM    H7T 8774   3.691   5.250   2.594  2.7144 -0.1083 -1.5029
   92OSM    C8S 8775   3.690   5.038   2.619 -0.3361 -0.1726 -0.3670
   92OSM    H8S 8776   3.801   5.038   2.620 -0.2220  1.5128 -2.7889
   92OSM    H8T 8777   3.661   4.940   2.574  2.5461 -1.6472  0.7400
   92OSM    C9S 8778   3.650   5.044   2.768  0.1055 -0.1000 -0.2713
   92OSM    H9S 8779   3.549   5.003   2.788 -0.3639  1.1480  0.0516
   92OSM    H9T 8780   3.651   5.151   2.800 -0.1762 -0.4683  1.0051
   92OSM   C10S 8781   3.754   4.964   2.848 -0.2917  0.0160  0.1201
   92OSM   H10S 8782   3.859   4.993   2.830 -0.4336  0.9389  0.7002
   92OSM   H10T 8783   3.741   4.854   2.837  0.5737 -0.0313 -0.5193
   92OSM   C11S 8784   3.726   5.003   2.996  0.0543 -0.1506 -1.1908
   92OSM   H11S 8785   3.616   4.994   3.008  0.3527 -1.8991  1.0006
   92OSM   H11T 8786   3.756   5.110   2.996 -1.8162  0.4060 -1.2518
   92OSM   C12S 8787   3.801   4.929   3.104  0.2960 -0.2746 -0.0687
   92OSM   H12S 8788   3.910   4.947   3.096  0.2859 -0.3668 -0.4382
   92OSM   H12T 8789   3.778   4.821   3.100 -0.6353 -0.0776 -0.2738
   92OSM   C13S 8790   3.763   4.971   3.243 -0.1287 -0.5287 -0.6726
   92OSM   H13S 8791   3.653   4.974   3.259  0.0245 -1.4338  0.7402
   92OSM   H13T 8792   3.789   5.078   3.255 -0.6220 -0.3656 -1.0334
   92OSM   C14S 8793   3.836   4.880   3.352  0.2868  0.0124  0.4023
   92OSM   H14S 8794   3.946   4.892   3.337  0.0985 -0.1018 -1.2470
   92OSM   H14T 8795   3.814   4.773   3.332 -2.9654  0.8148 -0.9074
   92OSM   C15S 8796   3.785   4.910   3.494  0.7608  0.2502  0.8314
   92OSM   H15S 8797   3.684   4.865   3.501  0.4688  0.0485 -2.8126
   92OSM   H15T 8798   3.786   5.021   3.496  0.3828  0.2808 -0.1626
   92OSM   C16S 8799   3.871   4.851   3.605  0.7383 -0.4893  0.2568
   92OSM   H16S 8800   3.972   4.890   3.582  1.3552 -2.4684 -0.6234
   92OSM   H16T 8801   3.879   4.741   3.603  2.0981 -0.4792  2.5532
   92OSM   C17S 8802   3.835   4.885   3.751  0.5580 -0.2316  0.1748
   92OSM   H17S 8803   3.828   4.790   3.808 -1.8190 -1.6239 -2.2192
   92OSM   H17T 8804   3.734   4.931   3.741  0.3558 -0.5568  0.6594
   92OSM   C18S 8805   3.926   4.987   3.821  0.9134 -0.0456 -0.3096
   92OSM   H18S 8806   3.880   5.033   3.912 -2.1131 -1.1185 -1.1749
   92OSM   H18T 8807   3.947   5.072   3.753 -0.2335  0.0037 -0.6205
   92OSM   H18U 8808   4.028   4.945   3.831 -0.0875 -2.2593  1.2978
   92OSM    C1F 8809   3.279   5.554   2.290 -0.1692 -0.2228 -0.4000
   92OSM     OF 8810   3.191   5.529   2.214  0.0200  0.1155  0.1251
   92OSM    C2F 8811   3.249   5.629   2.418 -0.5508  0.1507 -0.1604
   92OSM    H2F 8812   3.264   5.736   2.392 -1.8316  0.2917 -0.3830
   92OSM    H2G 8813   3.308   5.607   2.510 -0.9531  0.3760  0.1572
   92OSM    C3F 8814   3.108   5.623   2.461  0.0819  0.4711 -0.8959
   92OSM    H3F 8815   3.077   5.516   2.465  1.0847  0.2074  0.8066
   92OSM    H3G 8816   3.048   5.672   2.381 -1.8680 -0.8253 -0.3186
   92OSM    C4F 8817   3.082   5.682   2.598  0.3286 -0.5148  0.1660
   92OSM    H4F 8818   2.972   5.694   2.612  0.6027  0.5886  1.6472
   92OSM    H4G 8819   3.124   5.782   2.624  1.4615 -1.7345  3.5387
   92OSM    C5F 8820   3.127   5.593   2.722 -0.0825 -0.2190  0.3091
   92OSM    H5F 8821   3.235   5.567   2.720  0.1316  0.6719 -0.2537
   92OSM    H5G 8822   3.075   5.495   2.716 -2.8107  1.1970 -0.9293
   92OSM    C6F 8823   3.088   5.656   2.856  0.0130  0.5600 -0.0494
   92OSM    H6F 8824   2.977   5.658   2.857 -0.0514  1.5583 -2.3245
   92OSM    H6G 8825   3.121   5.762   2.869 -1.6556  0.9266  1.7036
   92OSM    C7F 8826   3.146   5.570   2.969  0.3614  0.1095 -0.0633
   92OSM    H7F 8827   3.257   5.561   2.964  0.5285  2.1523 -0.9335
   92OSM    H7G 8828   3.101   5.469   2.973  0.0757  0.2138 -0.5432
   92OSM    C8F 8829   3.111   5.628   3.106 -0.0820  0.2259  0.0969
   92OSM    H8F 8830   3.003   5.606   3.119 -0.6620  0.5935 -3.2405
   92OSM    H8G 8831   3.131   5.737   3.103 -2.0364  0.6513  0.9912
   92OSM    C9F 8832   3.194   5.564   3.215 -0.4453  0.9982 -0.5989
   92OSM    H9F 8833   3.285   5.510   3.185 -1.1406 -0.0716 -0.8562
   92OSM   C10F 8834   3.162   5.555   3.348 -0.8873 -0.9531 -0.2342
   92OSM   H10F 8835   3.228   5.500   3.416  0.8559  1.1273 -0.1240
   92OSM   C11F 8836   3.036   5.597   3.419  0.3465  0.2068  0.4191
   92OSM   H11F 8837   2.993   5.511   3.475 -1.1363  0.6487 -0.0111
   92OSM   H11G 8838   2.966   5.641   3.346 -1.5019 -0.2594  1.8352
   92OSM   C12F 8839   3.070   5.711   3.508  0.0422 -0.0963  0.3259
   92OSM   H12F 8840   2.984   5.733   3.574  0.6028 -0.0192  1.0399
   92OSM   H12G 8841   3.081   5.806   3.452  0.9450 -0.4536 -0.1255
   92OSM   C13F 8842   3.192   5.694   3.598 -0.4629  0.1934 -0.1652
   92OSM   H13F 8843   3.220   5.792   3.641 -1.3472  0.9336 -1.2156
   92OSM   H13G 8844   3.271   5.648   3.535  0.4001  2.4707 -0.8251
   92OSM   C14F 8845   3.153   5.612   3.718 -0.6218  0.3580 -0.7442
   92OSM   H14F 8846   3.161   5.513   3.670  3.7486  0.0124  0.2708
   92OSM   H14G 8847   3.054   5.651   3.751 -0.6266  0.0541 -0.3972
   92OSM   C15F 8848   3.243   5.617   3.836  0.0045 -0.0681 -0.0584
   92OSM   H15F 8849   3.190   5.559   3.915  0.9826 -1.0217 -0.0786
   92OSM   H15G 8850   3.257   5.720   3.875  0.0081  0.4419 -1.3762
   92OSM   C16F 8851   3.376   5.546   3.812 -0.2804  0.0242  0.0571
   92OSM   H16F 8852   3.430   5.588   3.725 -0.1530  0.2151  0.2277
   92OSM   H16G 8853   3.353   5.440   3.788 -2.6934  0.3744  0.5265
   92OSM   C17F 8854   3.476   5.559   3.929  0.4298  0.0998  0.4203
   92OSM   H17F 8855   3.434   5.527   4.027  0.9224 -1.9358  0.0012
   92OSM   H17G 8856   3.519   5.662   3.929  1.8488 -0.4279 -1.7064
   92OSM   C18F 8857   3.596   5.470   3.921  0.2460  0.2290  0.2211
   92OSM   H18F 8858   3.655   5.499   3.831 -0.3076 -0.4466 -0.3792
   92OSM   H18G 8859   3.567   5.363   3.913  0.3005  0.1437  1.0925
   92OSM   H18H 8860   3.663   5.493   4.006 -0.2606  0.1349  0.6509
   93OSM      N 8861   2.388   4.870   2.014  0.8244  0.9492  1.2745
   93OSM    C15 8862   2.487   4.973   1.978 -0.2394 -0.9627  0.2928
   93OSM   H15A 8863   2.588   4.947   2.009 -0.1906 -1.0997  0.0251
   93OSM   H15B 8864   2.454   5.058   2.036 -0.8411 -0.8225 -0.2507
   93OSM   H15C 8865   2.487   5.002   1.874 -4.7877 -1.2319  0.0262
   93OSM    C14 8866   2.428   4.739   1.962 -0.6876  0.1268 -0.1900
   93OSM   H14A 8867   2.520   4.701   2.005  0.2440  0.8378 -1.5114
   93OSM   H14B 8868   2.453   4.745   1.857  0.0928 -1.5860 -0.1365
   93OSM   H14C 8869   2.356   4.659   1.972  0.4126 -0.6781  1.9085
   93OSM    C13 8870   2.371   4.856   2.162  0.0879 -0.0401 -0.9444
   93OSM   H13A 8871   2.301   4.783   2.201  0.2541  0.5692  0.5721
   93OSM   H13B 8872   2.320   4.944   2.198 -0.3837 -1.0965  1.1326
   93OSM   H13C 8873   2.461   4.851   2.222 -0.9057  2.5831  0.9376
   93OSM    C12 8874   2.260   4.904   1.950 -0.3550 -0.3599 -0.3716
   93OSM   H12A 8875   2.188   4.825   1.964  1.9207 -2.4389  0.3909
   93OSM   H12B 8876   2.287   4.909   1.845  0.6452  0.5710 -0.0782
   93OSM    C11 8877   2.208   5.044   2.006 -0.3720 -0.2113 -1.0201
   93OSM   H11A 8878   2.230   5.046   2.115  0.3484  0.7001 -1.1671
   93OSM   H11B 8879   2.098   5.055   1.997 -0.2989  1.0648 -0.6030
   93OSM      P 8880   2.293   5.287   2.008 -0.1070 -0.0338  0.4432
   93OSM    O13 8881   2.363   5.389   1.924 -0.4897 -0.6121 -0.2247
   93OSM    O14 8882   2.167   5.332   2.066 -0.3908  0.3046 -0.4237
   93OSM    O11 8883   2.396   5.249   2.115 -0.7758 -0.4010 -0.3439
   93OSM    O12 8884   2.275   5.149   1.934 -0.1478  0.0332  0.2113
   93OSM    C1S 8885   2.509   5.318   2.155  0.3202  0.4866 -0.5078
   93OSM    H1S 8886   2.525   5.411   2.096 -0.2687  0.2326 -1.0930
   93OSM    H1T 8887   2.600   5.260   2.130 -0.2762 -0.6395 -0.1320
   93OSM     NF 8888   2.626   5.421   2.342 -0.0282 -0.0278  0.0154
   93OSM    HNF 8889   2.713   5.377   2.363  0.4853  0.3417 -1.2481
   93OSM    C2S 8890   2.508   5.346   2.314  0.7480  0.8235  0.3983
   93OSM    H2S 8891   2.420   5.405   2.347  0.1596 -0.8896  2.0686
   93OSM    C3S 8892   2.511   5.205   2.383  0.5825  0.4510 -0.2011
   93OSM    H3S 8893   2.588   5.145   2.330  1.5493  0.5812  1.0056
   93OSM     O3 8894   2.387   5.132   2.371 -0.4684 -0.7171 -0.3416
   93OSM    HO3 8895   2.337   5.189   2.312 -1.6267  0.0686  1.3000
   93OSM    C4S 8896   2.535   5.212   2.533 -0.1613 -0.1100  0.4642
   93OSM    H4S 8897   2.470   5.286   2.582  1.2763  2.0846 -0.7544
   93OSM    C5S 8898   2.631   5.151   2.597 -0.2117 -0.3646  0.0577
   93OSM    H5S 8899   2.705   5.091   2.542 -0.8988 -0.7053 -0.5032
   93OSM    C6S 8900   2.657   5.162   2.751 -0.1563  0.4975  0.6437
   93OSM    H6S 8901   2.674   5.068   2.807  0.0338  0.8170  1.1230
   93OSM    H6T 8902   2.573   5.204   2.810  0.5752  2.8882  0.1096
   93OSM    C7S 8903   2.774   5.259   2.785 -0.0142  0.0541  0.4218
   93OSM    H7S 8904   2.743   5.365   2.769  2.8157  0.9992  0.6343
   93OSM    H7T 8905   2.856   5.230   2.715 -1.5294 -0.6169 -1.1468
   93OSM    C8S 8906   2.822   5.245   2.930 -0.1739  0.1293 -0.3304
   93OSM    H8S 8907   2.891   5.328   2.957  1.8653 -0.4107 -3.3398
   93OSM    H8T 8908   2.881   5.151   2.944  0.5792  0.3785 -1.6059
   93OSM    C9S 8909   2.707   5.240   3.031  0.2168 -0.4059  0.1697
   93OSM    H9S 8910   2.655   5.142   3.022  0.7553 -0.8203  1.4216
   93OSM    H9T 8911   2.623   5.311   3.015 -1.5981 -2.6052 -0.7476
   93OSM   C10S 8912   2.761   5.262   3.173 -0.8644  0.6379 -0.3954
   93OSM   H10S 8913   2.679   5.285   3.244  0.4584 -2.4933  2.4310
   93OSM   H10T 8914   2.825   5.352   3.186 -1.5101  1.4065 -2.1620
   93OSM   C11S 8915   2.840   5.145   3.235 -0.1902 -0.5315 -0.3865
   93OSM   H11S 8916   2.915   5.099   3.167 -1.0075 -0.3461 -1.4371
   93OSM   H11T 8917   2.778   5.060   3.271 -1.5521 -0.5518 -2.6120
   93OSM   C12S 8918   2.916   5.200   3.361 -1.0669 -0.4622  0.0126
   93OSM   H12S 8919   2.972   5.294   3.345 -0.3150 -0.5979  1.6776
   93OSM   H12T 8920   2.995   5.133   3.398  0.2883  1.3996  0.6254
   93OSM   C13S 8921   2.825   5.221   3.476 -0.5492  0.9093  0.3564
   93OSM   H13S 8922   2.758   5.132   3.485 -0.1453  0.3861 -1.3973
   93OSM   H13T 8923   2.766   5.313   3.455 -2.9096 -0.6572 -0.3193
   93OSM   C14S 8924   2.909   5.243   3.603  0.2677 -0.5054  0.0923
   93OSM   H14S 8925   2.980   5.326   3.583  0.0948 -0.8765 -2.3587
   93OSM   H14T 8926   2.960   5.149   3.633 -0.9533 -0.5938  2.0481
   93OSM   C15S 8927   2.827   5.286   3.729  0.0745 -0.5683  0.8561
   93OSM   H15S 8928   2.754   5.203   3.741 -1.0285  0.2988  0.3629
   93OSM   H15T 8929   2.764   5.373   3.702 -2.4478 -1.7282  2.5480
   93OSM   C16S 8930   2.912   5.323   3.862  0.0194 -0.2113  0.0680
   93OSM   H16S 8931   2.983   5.398   3.822 -1.5306  1.5352  0.4864
   93OSM   H16T 8932   2.970   5.232   3.888 -2.4636 -1.4429  1.7480
   93OSM   C17S 8933   2.837   5.377   3.981  0.5044 -0.1216  0.2329
   93OSM   H17S 8934   2.912   5.434   4.040  1.1003 -1.6515  1.0080
   93OSM   H17T 8935   2.812   5.288   4.042  0.5164 -0.1337  0.2204
   93OSM   C18S 8936   2.718   5.473   3.953  0.8574 -0.8781 -0.1936
   93OSM   H18S 8937   2.760   5.548   3.882  0.9037 -1.0887 -0.3908
   93OSM   H18T 8938   2.625   5.427   3.913 -0.3725 -0.9349  2.5136
   93OSM   H18U 8939   2.695   5.538   4.040  0.5703 -2.4421  0.9405
   93OSM    C1F 8940   2.628   5.548   2.307 -0.3457 -0.1034  0.8547
   93OSM     OF 8941   2.526   5.599   2.261 -0.2973 -0.0721  0.2905
   93OSM    C2F 8942   2.755   5.624   2.328  0.5698  0.3045  0.4186
   93OSM    H2F 8943   2.796   5.636   2.225  1.6442 -3.6984  0.1794
   93OSM    H2G 8944   2.833   5.565   2.380  0.0481  0.6366  1.5943
   93OSM    C3F 8945   2.741   5.760   2.391 -0.3080 -0.2239 -0.1857
   93OSM    H3F 8946   2.676   5.830   2.334  1.2587  2.1328  0.7557
   93OSM    H3G 8947   2.844   5.802   2.382  1.3727 -4.1255 -1.2476
   93OSM    C4F 8948   2.690   5.753   2.535  0.6940  0.2953  0.0182
   93OSM    H4F 8949   2.746   5.680   2.597  0.3502  0.5623  0.6585
   93OSM    H4G 8950   2.588   5.708   2.527  1.0813 -0.6032 -0.0028
   93OSM    C5F 8951   2.684   5.899   2.594  0.0702 -0.2293  0.1794
   93OSM    H5F 8952   2.590   5.907   2.651  1.5165 -0.8953  2.8295
   93OSM    H5G 8953   2.690   5.979   2.518  1.2897 -0.8010 -0.3701
   93OSM    C6F 8954   2.798   5.928   2.687 -0.3426  0.5108  0.2894
   93OSM    H6F 8955   2.876   5.969   2.619 -1.5000 -0.2954 -1.5957
   93OSM    H6G 8956   2.835   5.836   2.737 -2.6840 -0.1115  0.9999
   93OSM    C7F 8957   2.762   6.027   2.796 -0.1604 -0.7159 -0.0791
   93OSM    H7F 8958   2.681   5.988   2.861  0.4519 -1.1434  0.4355
   93OSM    H7G 8959   2.733   6.111   2.729  0.2982 -1.2629 -0.9791
   93OSM    C8F 8960   2.880   6.080   2.886  0.6446 -0.2897  0.1201
   93OSM    H8F 8961   2.839   6.175   2.927  3.1901  0.2239  1.6858
   93OSM    H8G 8962   2.964   6.121   2.825  0.9638  1.1819  1.4782
   93OSM    C9F 8963   2.941   5.994   2.995  0.2119 -0.0018 -0.3572
   93OSM    H9F 8964   3.020   5.921   2.972  0.8605  0.8131 -0.7499
   93OSM   C10F 8965   2.907   6.013   3.127 -0.1977  0.1091  0.2525
   93OSM   H10F 8966   2.981   5.971   3.197  0.6785  1.1599 -0.0173
   93OSM   C11F 8967   2.806   6.106   3.178  0.3774  0.3188  0.2151
   93OSM   H11F 8968   2.707   6.097   3.129  0.6051 -2.7868  0.0829
   93OSM   H11G 8969   2.837   6.211   3.164 -0.2437  0.5277  0.3938
   93OSM   C12F 8970   2.777   6.093   3.331 -0.2451  0.3730  1.3768
   93OSM   H12F 8971   2.752   5.988   3.354  3.3408 -1.0493 -0.3673
   93OSM   H12G 8972   2.692   6.158   3.361 -1.5025 -1.3638  1.7113
   93OSM   C13F 8973   2.898   6.134   3.422  0.1219  0.6063  0.8502
   93OSM   H13F 8974   2.880   6.239   3.455 -3.3487  1.0555 -1.8574
   93OSM   H13G 8975   2.996   6.131   3.370 -1.4766  1.8119 -2.5558
   93OSM   C14F 8976   2.902   6.048   3.553  0.3547 -0.3924 -0.1443
   93OSM   H14F 8977   2.913   5.939   3.533  0.6898 -0.8692  2.2647
   93OSM   H14G 8978   2.800   6.058   3.595  0.4328  3.4486 -0.5153
   93OSM   C15F 8979   3.008   6.089   3.660  0.4554  0.2196  0.1604
   93OSM   H15F 8980   2.971   6.192   3.681  1.4226  1.2343 -2.5933
   93OSM   H15G 8981   3.109   6.095   3.614 -0.9053 -1.9869 -3.5147
   93OSM   C16F 8982   3.000   6.006   3.788 -0.5577 -0.0766 -0.5383
   93OSM   H16F 8983   3.102   5.974   3.818 -1.3010 -2.0027  0.1406
   93OSM   H16G 8984   2.938   5.913   3.785  0.6051 -0.9640  1.1210
   93OSM   C17F 8985   2.935   6.074   3.910 -0.5127 -0.1855  1.0066
   93OSM   H17F 8986   2.832   6.105   3.882 -1.3488 -4.0351 -0.8542
   93OSM   H17G 8987   2.995   6.160   3.946  0.7904 -0.0817 -1.1931
   93OSM   C18F 8988   2.914   5.977   4.026  0.2289 -0.1745 -0.0003
   93OSM   H18F 8989   3.006   5.967   4.087  0.9887  0.2198 -1.0436
   93OSM   H18G 8990   2.837   6.013   4.098  0.5245 -2.3004  1.4302
   93OSM   H18H 8991   2.877   5.874   4.011  1.2430 -0.2554 -2.5003
   94OSM      N 8992   5.068   4.741   1.833  0.2604  0.5516 -0.8568
   94OSM    C15 8993   5.199   4.661   1.842 -0.2095 -0.2819  0.3711
   94OSM   H15A 8994   5.221   4.611   1.749  2.2333  0.7661  0.3276
   94OSM   H15B 8995   5.206   4.593   1.925  2.0225 -1.1851 -0.4785
   94OSM   H15C 8996   5.281   4.730   1.854 -1.4391  1.2066  0.5970
   94OSM    C14 8997   5.094   4.866   1.760 -0.5477  0.6242  0.5691
   94OSM   H14A 8998   5.020   4.944   1.769  0.3940  1.8394 -1.3276
   94OSM   H14B 8999   5.117   4.847   1.656  1.4278 -1.4027  1.2992
   94OSM   H14C 9000   5.188   4.908   1.791  0.4945 -1.3048  0.1934
   94OSM    C13 9001   4.958   4.666   1.762 -0.6594  0.2761 -0.0274
   94OSM   H13A 9002   4.987   4.658   1.658  0.3935 -0.3860  0.3127
   94OSM   H13B 9003   4.865   4.721   1.772 -0.4244  0.3411  2.2753
   94OSM   H13C 9004   4.945   4.571   1.811  0.9005  0.5761  1.0093
   94OSM    C12 9005   5.031   4.762   1.977 -0.5158 -0.4393 -0.9204
   94OSM   H12A 9006   5.104   4.823   2.028  0.4898 -1.1923 -1.4166
   94OSM   H12B 9007   5.027   4.675   2.041  0.6193  1.1611  1.4733
   94OSM    C11 9008   4.902   4.842   2.000 -0.7586  0.0977  0.5327
   94OSM   H11A 9009   4.910   4.943   1.955 -0.0720 -0.1721  0.0189
   94OSM   H11B 9010   4.887   4.865   2.108  0.5000  0.4364  0.6501
   94OSM      P 9011   4.651   4.854   1.925 -0.1396  0.1655  0.2862
   94OSM    O13 9012   4.651   4.978   2.002 -0.5072 -0.0656 -0.4048
   94OSM    O14 9013   4.629   4.872   1.777 -0.6541 -0.0004  0.0018
   94OSM    O11 9014   4.550   4.745   1.990 -0.4511 -0.2660  0.4394
   94OSM    O12 9015   4.789   4.775   1.944 -0.0211  0.3617  0.0090
   94OSM    C1S 9016   4.547   4.713   2.124  0.5669 -0.5643 -1.0655
   94OSM    H1S 9017   4.649   4.708   2.169  0.9407  0.1444 -1.8075
   94OSM    H1T 9018   4.512   4.608   2.128 -2.1263  0.2840  1.4199
   94OSM     NF 9019   4.461   4.764   2.347  0.4095 -0.0404 -0.0319
   94OSM    HNF 9020   4.403   4.690   2.380 -1.3561  0.6268 -1.4180
   94OSM    C2S 9021   4.448   4.801   2.206 -0.4382  0.1132 -0.3492
   94OSM    H2S 9022   4.480   4.906   2.193 -0.1825  0.3023  1.4634
   94OSM    C3S 9023   4.302   4.804   2.147 -0.6107 -0.3296 -0.0672
   94OSM    H3S 9024   4.267   4.699   2.138 -0.5823 -0.2778 -0.8042
   94OSM     O3 9025   4.300   4.844   2.013 -0.1015 -0.1022  0.5940
   94OSM    HO3 9026   4.391   4.825   1.988  0.3218  1.2359  1.0803
   94OSM    C4S 9027   4.213   4.901   2.216  0.0871 -0.2180 -0.1724
   94OSM    H4S 9028   4.224   5.005   2.182 -1.5649 -0.3869 -1.3787
   94OSM    C5S 9029   4.121   4.871   2.303 -0.2236  0.7556 -0.5257
   94OSM    H5S 9030   4.114   4.768   2.341 -0.4429  0.7751 -0.5106
   94OSM    C6S 9031   4.038   4.961   2.382 -0.2907  0.4222  0.1309
   94OSM    H6S 9032   3.950   4.908   2.423 -0.0236  0.5947  0.9505
   94OSM    H6T 9033   3.998   5.041   2.317 -1.3125  1.3276  1.8067
   94OSM    C7S 9034   4.114   5.017   2.500  0.2966  0.3176  0.3870
   94OSM    H7S 9035   4.049   5.091   2.551  0.8277  1.4107 -0.4938
   94OSM    H7T 9036   4.205   5.069   2.464  0.2710  1.5192  1.9509
   94OSM    C8S 9037   4.151   4.911   2.604 -0.2522  0.2388 -0.4550
   94OSM    H8S 9038   4.183   4.817   2.555  1.0454  0.5177 -0.1719
   94OSM    H8T 9039   4.062   4.887   2.666  1.6543 -2.1666  1.5667
   94OSM    C9S 9040   4.267   4.961   2.692 -0.4712 -0.8051  0.6855
   94OSM    H9S 9041   4.253   5.059   2.743  2.6765 -0.0808  0.3751
   94OSM    H9T 9042   4.341   4.983   2.613 -1.3008  0.9004  0.3510
   94OSM   C10S 9043   4.303   4.853   2.800 -0.3218  0.4855  0.4261
   94OSM   H10S 9044   4.413   4.848   2.812 -0.1372 -2.3639 -1.5675
   94OSM   H10T 9045   4.273   4.754   2.759 -0.8929  0.4721  0.8686
   94OSM   C11S 9046   4.241   4.880   2.933 -0.1501  0.0127 -0.1879
   94OSM   H11S 9047   4.130   4.881   2.929 -0.2351 -1.2937  1.1181
   94OSM   H11T 9048   4.286   4.976   2.967  0.5676 -0.4434  0.1833
   94OSM   C12S 9049   4.265   4.766   3.034  0.0128 -0.6724  0.2330
   94OSM   H12S 9050   4.370   4.736   3.053 -0.5860 -1.0053  3.5662
   94OSM   H12T 9051   4.215   4.674   2.997  0.2636 -1.2232  1.2353
   94OSM   C13S 9052   4.210   4.797   3.174 -0.4337  0.1603 -0.0339
   94OSM   H13S 9053   4.105   4.761   3.169 -0.3674 -0.1311  0.5368
   94OSM   H13T 9054   4.203   4.906   3.195  0.7574  0.0112  1.3473
   94OSM   C14S 9055   4.278   4.734   3.297 -0.1211  0.1255 -0.5074
   94OSM   H14S 9056   4.383   4.769   3.292 -0.3587  0.7946 -0.8955
   94OSM   H14T 9057   4.267   4.624   3.287 -0.2867  0.1922 -1.1285
   94OSM   C15S 9058   4.213   4.777   3.438 -0.2373  0.3466 -0.9121
   94OSM   H15S 9059   4.107   4.744   3.446 -0.2928  0.9896  2.3758
   94OSM   H15T 9060   4.224   4.886   3.454 -0.2401  0.2071  0.1042
   94OSM   C16S 9061   4.285   4.714   3.562  1.2331  0.3746 -0.6575
   94OSM   H16S 9062   4.386   4.753   3.586  1.0982  0.5497 -0.3695
   94OSM   H16T 9063   4.293   4.604   3.552 -1.2873 -0.0419  1.0074
   94OSM   C17S 9064   4.207   4.748   3.687  0.2323  0.8796  0.1676
   94OSM   H17S 9065   4.099   4.726   3.674  0.0412  1.3892  0.8415
   94OSM   H17T 9066   4.234   4.852   3.717  3.4506  0.3451 -0.4980
   94OSM   C18S 9067   4.245   4.661   3.804  0.0909 -0.7436 -0.4566
   94OSM   H18S 9068   4.239   4.731   3.890 -2.3866  0.1278 -1.2567
   94OSM   H18T 9069   4.350   4.626   3.799  0.7230  0.7504  1.3132
   94OSM   H18U 9070   4.168   4.581   3.809 -0.2536 -0.4089 -0.3734
   94OSM    C1F 9071   4.572   4.791   2.416  0.0625 -0.3600 -0.8078
   94OSM     OF 9072   4.654   4.862   2.363  0.0142 -0.2640 -0.5568
   94OSM    C2F 9073   4.585   4.737   2.560 -0.5817 -0.2571  1.1246
   94OSM    H2F 9074   4.549   4.634   2.578  0.4480 -0.7852  0.3349
   94OSM    H2G 9075   4.533   4.804   2.632  1.7900  1.3990  1.4413
   94OSM    C3F 9076   4.732   4.744   2.615 -0.4717  0.4609 -0.3231
   94OSM    H3F 9077   4.786   4.835   2.581 -0.1984  0.4401  0.0495
   94OSM    H3G 9078   4.787   4.655   2.578  1.1787  1.4869 -0.4576
   94OSM    C4F 9079   4.742   4.747   2.770  0.5849 -0.4840  0.1357
   94OSM    H4F 9080   4.684   4.839   2.793  0.0101 -0.8950  0.3420
   94OSM    H4G 9081   4.844   4.764   2.812  0.9561 -0.2773 -0.8090
   94OSM    C5F 9082   4.669   4.629   2.830 -1.0320  0.7492 -0.6125
   94OSM    H5F 9083   4.717   4.530   2.812 -2.3409 -0.0875  0.3597
   94OSM    H5G 9084   4.564   4.622   2.797 -0.5453 -0.7579 -1.9639
   94OSM    C6F 9085   4.668   4.627   2.989 -0.1121  0.2006  0.1162
   94OSM    H6F 9086   4.597   4.709   3.013  0.2723  1.0535 -1.5287
   94OSM    H6G 9087   4.767   4.652   3.033 -0.6308  0.7119  1.0311
   94OSM    C7F 9088   4.600   4.503   3.050  0.1172 -0.1713  0.6378
   94OSM    H7F 9089   4.666   4.418   3.020  3.0577  2.1839 -0.0804
   94OSM    H7G 9090   4.498   4.485   3.009  0.6712 -0.0672 -0.8736
   94OSM    C8F 9091   4.584   4.492   3.200 -0.0403  0.0192  0.5262
   94OSM    H8F 9092   4.538   4.391   3.209 -2.4468  1.0808  1.0371
   94OSM    H8G 9093   4.512   4.566   3.242  2.4833  2.4420  0.8731
   94OSM    C9F 9094   4.702   4.511   3.288 -0.9463  0.4220  0.0806
   94OSM    H9F 9095   4.753   4.608   3.275 -1.3117  1.2113  3.5551
   94OSM   C10F 9096   4.748   4.429   3.387 -0.0703 -0.6138  0.5651
   94OSM   H10F 9097   4.841   4.464   3.435  0.3819  0.8611 -1.2589
   94OSM   C11F 9098   4.686   4.293   3.421  0.1008  0.4934 -0.1289
   94OSM   H11F 9099   4.769   4.220   3.414  0.8814  1.3150  0.3378
   94OSM   H11G 9100   4.607   4.263   3.349  0.4316  2.5841 -1.4544
   94OSM   C12F 9101   4.624   4.291   3.555  0.4736  0.0070  0.4476
   94OSM   H12F 9102   4.698   4.325   3.630  2.1128 -1.0097 -0.6491
   94OSM   H12G 9103   4.598   4.184   3.574  1.4911 -0.3008  0.2073
   94OSM   C13F 9104   4.499   4.380   3.567  0.0607 -0.4442 -0.5823
   94OSM   H13F 9105   4.427   4.348   3.488 -1.8546 -0.9150  1.2489
   94OSM   H13G 9106   4.532   4.484   3.547  0.2808  0.2838  2.8900
   94OSM   C14F 9107   4.436   4.369   3.710 -0.2973 -0.4707 -0.0119
   94OSM   H14F 9108   4.403   4.263   3.715 -1.3571 -0.1064  2.2443
   94OSM   H14G 9109   4.338   4.423   3.710 -0.4332 -0.6230 -2.4731
   94OSM   C15F 9110   4.513   4.413   3.832 -0.4616  0.2890  0.3011
   94OSM   H15F 9111   4.523   4.522   3.819  1.2596  0.1367  0.0841
   94OSM   H15G 9112   4.610   4.360   3.821  0.1618  1.5568 -0.5518
   94OSM   C16F 9113   4.443   4.371   3.966 -0.4769  0.3484  0.2458
   94OSM   H16F 9114   4.423   4.262   3.955 -0.0386  0.3832 -1.0619
   94OSM   H16G 9115   4.344   4.422   3.961 -2.1117 -2.6820 -0.9615
   94OSM   C17F 9116   4.517   4.402   4.097 -0.2014  0.7293 -0.3299
   94OSM   H17F 9117   4.618   4.356   4.091 -0.3395  0.0313  1.8411
   94OSM   H17G 9118   4.477   4.350   4.187  1.1808 -0.5334 -0.4126
   94OSM   C18F 9119   4.539   4.548   4.134  0.1589 -0.3316 -0.4117
   94OSM   H18F 9120   4.630   4.549   4.197  0.6751 -1.9915 -1.0822
   94OSM   H18G 9121   4.456   4.583   4.199 -1.0198 -0.1691 -1.9553
   94OSM   H18H 9122   4.542   4.619   4.049 -1.3226  0.0627 -0.1628
   95OSM      N 9123   5.931   0.675   1.932 -0.7698  0.4627 -0.4828
   95OSM    C15 9124   6.079   0.720   1.907  0.1194 -0.6351 -0.3873
   95OSM   H15A 9125   6.153   0.651   1.945 -0.1426 -0.4697  0.4621
   95OSM   H15B 9126   6.090   0.816   1.956  1.7775  0.0586 -2.0406
   95OSM   H15C 9127   6.103   0.735   1.803  2.6430  0.7844  0.3343
   95OSM    C14 9128   5.844   0.786   1.881 -0.2468  0.2657  0.3302
   95OSM   H14A 9129   5.860   0.873   1.944 -0.8943  0.6873 -0.0780
   95OSM   H14B 9130   5.742   0.752   1.878  0.3347 -1.5179 -1.4144
   95OSM   H14C 9131   5.872   0.821   1.782 -2.1774  0.6365 -0.1245
   95OSM    C13 9132   5.920   0.548   1.850  0.6643 -1.0138 -0.2056
   95OSM   H13A 9133   5.944   0.572   1.748 -0.0490 -0.4816 -0.2569
   95OSM   H13B 9134   5.824   0.498   1.845  0.0115  0.2433 -0.5734
   95OSM   H13C 9135   5.995   0.478   1.883  0.8825 -0.0539  1.4920
   95OSM    C12 9136   5.911   0.653   2.078  0.4118  0.6766 -0.1532
   95OSM   H12A 9137   5.931   0.745   2.130 -0.0799  1.3198 -1.0736
   95OSM   H12B 9138   5.986   0.582   2.110 -0.7647 -0.7433 -0.4509
   95OSM    C11 9139   5.775   0.579   2.126  0.2528 -0.7272 -0.1642
   95OSM   H11A 9140   5.690   0.627   2.072 -0.3789  0.7357  1.9882
   95OSM   H11B 9141   5.766   0.592   2.236 -3.6876  1.2713 -0.5263
   95OSM      P 9142   5.878   0.332   2.153  0.6389 -0.0687 -0.2876
   95OSM    O13 9143   5.851   0.194   2.113  0.3490 -0.0640  0.5010
   95OSM    O14 9144   6.020   0.375   2.141 -0.1996 -0.2983  0.0723
   95OSM    O11 9145   5.831   0.360   2.302  0.1367 -0.3483  0.7336
   95OSM    O12 9146   5.781   0.442   2.082 -0.4979  0.2546 -0.4277
   95OSM    C1S 9147   5.694   0.344   2.337 -0.6928 -0.0766  0.0843
   95OSM    H1S 9148   5.654   0.250   2.293  0.3457  0.4107 -1.9885
   95OSM    H1T 9149   5.631   0.424   2.293  0.1939  0.7423  0.2643
   95OSM     NF 9150   5.551   0.279   2.530 -0.2024  0.3919 -0.5594
   95OSM    HNF 9151   5.467   0.324   2.559 -1.1135 -1.6761  0.1148
   95OSM    C2S 9152   5.673   0.349   2.490  1.0392  0.4540 -0.5824
   95OSM    H2S 9153   5.760   0.301   2.540 -0.2807 -0.9776  0.4000
   95OSM    C3S 9154   5.684   0.496   2.530  0.3865  0.1779 -0.2324
   95OSM    H3S 9155   5.625   0.569   2.471 -0.7035 -0.1523  0.4031
   95OSM     O3 9156   5.811   0.555   2.502 -0.0499 -0.2625 -0.8092
   95OSM    HO3 9157   5.855   0.492   2.444  0.2346  0.4427 -1.3782
   95OSM    C4S 9158   5.630   0.515   2.674  0.7039 -0.0947  1.3125
   95OSM    H4S 9159   5.523   0.540   2.670  0.0196 -2.8350 -1.2667
   95OSM    C5S 9160   5.705   0.508   2.791  0.4385 -0.0660  0.4885
   95OSM    H5S 9161   5.813   0.485   2.792  0.3230 -0.7017  2.1958
   95OSM    C6S 9162   5.650   0.531   2.935  0.6043 -0.0329  0.0354
   95OSM    H6S 9163   5.682   0.634   2.963  1.1089 -0.0923 -0.3079
   95OSM    H6T 9164   5.695   0.457   3.004 -0.8155 -1.7385 -0.7994
   95OSM    C7S 9165   5.496   0.514   2.947 -0.2325  0.3294 -0.7163
   95OSM    H7S 9166   5.465   0.413   2.914 -0.5164 -0.4723  1.8269
   95OSM    H7T 9167   5.452   0.594   2.882 -1.4561 -0.9592 -1.5400
   95OSM    C8S 9168   5.453   0.527   3.095  0.5665  0.5160 -0.1220
   95OSM    H8S 9169   5.510   0.459   3.161 -1.8675 -0.1044  1.4596
   95OSM    H8T 9170   5.348   0.492   3.105  0.3513  1.4662  1.1775
   95OSM    C9S 9171   5.463   0.659   3.158  0.1709  0.2238  0.4782
   95OSM    H9S 9172   5.389   0.723   3.105  1.1636  0.5015 -0.5931
   95OSM    H9T 9173   5.562   0.707   3.145 -1.5206  3.3734 -2.6269
   95OSM   C10S 9174   5.423   0.649   3.304  0.0369 -0.2739  0.6282
   95OSM   H10S 9175   5.476   0.561   3.348 -1.2083 -0.3329  2.0961
   95OSM   H10T 9176   5.312   0.653   3.305  0.0523  2.7903  0.2344
   95OSM   C11S 9177   5.478   0.771   3.376 -0.2223  0.2048  0.4310
   95OSM   H11S 9178   5.465   0.859   3.310  0.0910  0.2835  0.4725
   95OSM   H11T 9179   5.589   0.762   3.374  0.0221  2.5220 -1.9908
   95OSM   C12S 9180   5.406   0.790   3.506  0.1834  0.1391  0.5040
   95OSM   H12S 9181   5.423   0.714   3.586  1.6741  1.0302  1.0797
   95OSM   H12T 9182   5.297   0.778   3.491 -0.0960  0.2907  2.2601
   95OSM   C13S 9183   5.417   0.933   3.557  0.2032 -0.1024  0.4006
   95OSM   H13S 9184   5.347   1.001   3.503  0.8973 -0.9922 -1.7107
   95OSM   H13T 9185   5.518   0.978   3.549  0.4231 -0.6607  0.0058
   95OSM   C14S 9186   5.392   0.938   3.707 -0.2723  0.0433 -0.0722
   95OSM   H14S 9187   5.455   0.864   3.760 -1.7011 -0.8063  0.4882
   95OSM   H14T 9188   5.286   0.908   3.723  0.0130 -1.4071 -0.7619
   95OSM   C15S 9189   5.426   1.078   3.766  0.3827 -0.0775 -0.2502
   95OSM   H15S 9190   5.348   1.154   3.742 -0.5798 -0.8107  0.4871
   95OSM   H15T 9191   5.523   1.113   3.724 -0.5769  0.5872 -2.0298
   95OSM   C16S 9192   5.416   1.089   3.921 -0.3591 -0.2896  0.8324
   95OSM   H16S 9193   5.472   1.003   3.963  0.3640  0.2198  0.9244
   95OSM   H16T 9194   5.312   1.088   3.961 -0.4236  1.1980  0.7484
   95OSM   C17S 9195   5.486   1.215   3.975 -0.2120  0.3839 -0.2261
   95OSM   H17S 9196   5.441   1.305   3.928 -0.7627  0.0906 -0.2711
   95OSM   H17T 9197   5.592   1.200   3.948 -0.4704  1.0508 -1.7071
   95OSM   C18S 9198   5.479   1.211   4.126 -0.0502 -0.4221 -0.5198
   95OSM   H18S 9199   5.374   1.222   4.162  0.6869  2.4333  1.0692
   95OSM   H18T 9200   5.555   1.278   4.170 -0.2501 -0.6614  0.2098
   95OSM   H18U 9201   5.499   1.105   4.152 -3.3635 -0.7422  1.3420
   95OSM    C1F 9202   5.549   0.151   2.547  0.0906  0.3007  0.0830
   95OSM     OF 9203   5.638   0.072   2.511 -0.3232 -0.4128  0.3322
   95OSM    C2F 9204   5.417   0.096   2.598  0.7746  0.3598 -1.0183
   95OSM    H2F 9205   5.341   0.107   2.518 -0.5060  2.5009  0.3822
   95OSM    H2G 9206   5.374   0.170   2.668 -1.7442  1.7803 -3.8408
   95OSM    C3F 9207   5.433  -0.052   2.645  0.2689 -0.4339 -0.6729
   95OSM    H3F 9208   5.462  -0.116   2.559  1.0285  0.9428 -1.4735
   95OSM    H3G 9209   5.327  -0.075   2.670  0.5204 -1.5233 -0.5560
   95OSM    C4F 9210   5.534  -0.070   2.762  0.1568 -0.1832 -0.0591
   95OSM    H4F 9211   5.637  -0.042   2.733  0.5514 -0.2981  1.2066
   95OSM    H4G 9212   5.534  -0.181   2.776  0.0578 -0.7393 -3.4846
   95OSM    C5F 9213   5.496  -0.012   2.901  0.2321  0.6040 -0.7589
   95OSM    H5F 9214   5.487  -0.099   2.969 -1.7856 -0.6449 -2.5234
   95OSM    H5G 9215   5.395   0.029   2.879 -0.8834 -0.3950  2.0463
   95OSM    C6F 9216   5.583   0.097   2.954 -0.0193 -0.3664  0.7285
   95OSM    H6F 9217   5.583   0.183   2.884  1.4290 -1.1453 -0.2595
   95OSM    H6G 9218   5.682   0.051   2.975 -0.1079 -0.5909  0.6556
   95OSM    C7F 9219   5.528   0.155   3.091  0.0417 -0.1974  0.0567
   95OSM    H7F 9220   5.426   0.195   3.076  0.5021  1.1294  0.3215
   95OSM    H7G 9221   5.590   0.243   3.119  2.0679 -1.2276 -0.9639
   95OSM    C8F 9222   5.547   0.056   3.206  0.2230 -0.2163  0.6929
   95OSM    H8F 9223   5.519  -0.045   3.169 -1.3361 -0.0430  1.3170
   95OSM    H8G 9224   5.462   0.077   3.274 -0.9966  0.1702 -0.8995
   95OSM    C9F 9225   5.680   0.053   3.272 -0.2440  0.3199  0.5718
   95OSM    H9F 9226   5.769   0.038   3.209 -0.8703  1.5934 -0.6684
   95OSM   C10F 9227   5.701   0.064   3.401  0.1956  0.4067 -0.4129
   95OSM   H10F 9228   5.806   0.067   3.434 -0.4342  0.0405  1.8155
   95OSM   C11F 9229   5.607   0.083   3.513 -0.7063 -0.2788 -0.4955
   95OSM   H11F 9230   5.593  -0.011   3.570  1.6651  0.3013  1.1892
   95OSM   H11G 9231   5.514   0.110   3.460 -0.2297 -0.3181 -1.3699
   95OSM   C12F 9232   5.644   0.198   3.614 -0.0009  0.6139  0.2004
   95OSM   H12F 9233   5.651   0.296   3.563  1.1097 -0.1253 -1.1242
   95OSM   H12G 9234   5.742   0.181   3.663  1.0966  2.2320 -1.2911
   95OSM   C13F 9235   5.529   0.203   3.713  0.2045  0.3350 -0.0967
   95OSM   H13F 9236   5.543   0.135   3.799 -0.9563  0.5727  0.3047
   95OSM   H13G 9237   5.436   0.171   3.660  2.1725 -2.7137 -2.0215
   95OSM   C14F 9238   5.515   0.346   3.770  0.5832 -0.2904 -0.9192
   95OSM   H14F 9239   5.416   0.348   3.821 -0.4859 -2.0581 -2.7463
   95OSM   H14G 9240   5.503   0.414   3.682 -1.4292 -0.4157 -0.8023
   95OSM   C15F 9241   5.627   0.395   3.868 -0.0563 -0.2943  0.4956
   95OSM   H15F 9242   5.624   0.502   3.899  1.6922  0.0583 -0.4389
   95OSM   H15G 9243   5.727   0.373   3.826 -1.0662 -1.1385 -1.6188
   95OSM   C16F 9244   5.597   0.325   3.999 -0.8847 -0.3333 -0.0018
   95OSM   H16F 9245   5.566   0.219   4.004 -1.8328 -0.1412 -1.3374
   95OSM   H16G 9246   5.532   0.389   4.062  0.4226  1.5581 -0.4738
   95OSM   C17F 9247   5.734   0.317   4.089  0.2234 -0.1505  0.5132
   95OSM   H17F 9248   5.774   0.421   4.097 -1.8759  0.7429  0.2752
   95OSM   H17G 9249   5.794   0.254   4.020 -2.0444 -1.9220  0.0308
   95OSM   C18F 9250   5.716   0.244   4.222 -0.0896 -0.4902  0.2016
   95OSM   H18F 9251   5.810   0.255   4.281  0.1597  2.1747 -0.5811
   95OSM   H18G 9252   5.689   0.138   4.201 -1.7366  0.2697 -1.9117
   95OSM   H18H 9253   5.636   0.287   4.286 -0.9006  1.4146 -1.9452
   96OSM      N 9254   0.538   5.670   2.362 -0.0890  0.1622 -0.1935
   96OSM    C15 9255   0.417   5.740   2.299  0.4053  0.4119 -0.1247
   96OSM   H15A 9256   0.328   5.715   2.355  0.0683  1.4802 -0.1681
   96OSM   H15B 9257   0.416   5.721   2.193  0.1894  1.1865 -0.2654
   96OSM   H15C 9258   0.430   5.847   2.308 -1.4614  0.5609  1.5663
   96OSM    C14 9259   0.552   5.735   2.499 -0.2673 -0.4601 -0.6838
   96OSM   H14A 9260   0.465   5.709   2.558 -0.3323  0.5556 -0.3224
   96OSM   H14B 9261   0.576   5.840   2.493  1.5829 -0.8463 -0.7004
   96OSM   H14C 9262   0.634   5.684   2.548 -0.8028 -2.6852 -1.9615
   96OSM    C13 9263   0.512   5.528   2.370 -0.0526 -0.0091 -0.3884
   96OSM   H13A 9264   0.497   5.476   2.276 -1.6915  1.0592 -0.7575
   96OSM   H13B 9265   0.421   5.505   2.423 -0.1125 -1.9909 -1.2559
   96OSM   H13C 9266   0.586   5.471   2.425  0.4214  0.2710 -0.7249
   96OSM    C12 9267   0.666   5.698   2.278  0.8965  0.0576  0.0425
   96OSM   H12A 9268   0.671   5.615   2.208  1.0577  0.7739 -0.8085
   96OSM   H12B 9269   0.747   5.696   2.350  0.6681 -0.1993  0.2969
   96OSM    C11 9270   0.680   5.836   2.197 -0.5599  0.3897 -0.2112
   96OSM   H11A 9271   0.607   5.841   2.114 -2.0319  0.8472  1.0519
   96OSM   H11B 9272   0.778   5.824   2.147  0.1401 -0.2840  1.2411
   96OSM      P 9273   0.668   6.081   2.218  0.0179 -0.1125 -0.2195
   96OSM    O13 9274   0.804   6.087   2.160 -0.4608 -0.2804 -0.0572
   96OSM    O14 9275   0.558   6.106   2.127  0.6670 -0.0713  0.6679
   96OSM    O11 9276   0.668   6.187   2.329 -0.1482  0.0234  0.3878
   96OSM    O12 9277   0.658   5.944   2.288  0.8070  0.2776  0.1519
   96OSM    C1S 9278   0.584   6.201   2.436 -0.4526  0.3287 -0.4970
   96OSM    H1S 9279   0.542   6.106   2.474 -0.8516  0.7201  0.0545
   96OSM    H1T 9280   0.497   6.257   2.394 -0.0280 -0.2577 -2.2662
   96OSM     NF 9281   0.593   6.228   2.691  0.2334 -0.4559  0.3510
   96OSM    HNF 9282   0.523   6.283   2.736  2.6071  0.8402  2.7842
   96OSM    C2S 9283   0.649   6.273   2.559 -0.2457 -0.2079  0.1134
   96OSM    H2S 9284   0.754   6.237   2.555 -0.5156 -0.9188 -1.6156
   96OSM    C3S 9285   0.657   6.426   2.536  0.1934  0.4355  0.2454
   96OSM    H3S 9286   0.553   6.465   2.546  0.5960  1.4595  0.5002
   96OSM     O3 9287   0.704   6.445   2.398  0.2171  0.0583  0.0954
   96OSM    HO3 9288   0.694   6.354   2.369  1.3666 -0.5520  1.4551
   96OSM    C4S 9289   0.747   6.498   2.631  0.0819 -0.1715  0.1112
   96OSM    H4S 9290   0.855   6.484   2.614  0.3231  1.3319  0.2222
   96OSM    C5S 9291   0.715   6.583   2.733 -0.7587  0.0183 -0.1145
   96OSM    H5S 9292   0.613   6.612   2.764 -0.7961  0.3438 -0.5372
   96OSM    C6S 9293   0.816   6.640   2.822 -0.3102 -0.1432  0.1140
   96OSM    H6S 9294   0.825   6.749   2.802 -1.2659  0.3502  2.1355
   96OSM    H6T 9295   0.919   6.603   2.803  0.3302 -0.5353  3.7080
   96OSM    C7S 9296   0.773   6.611   2.968 -0.0555 -0.0998  0.2409
   96OSM    H7S 9297   0.755   6.501   2.979 -0.1979 -0.1869 -0.7172
   96OSM    H7T 9298   0.678   6.662   2.994 -0.0139  0.2195 -0.2235
   96OSM    C8S 9299   0.874   6.654   3.082  0.0894 -0.0853  0.4454
   96OSM    H8S 9300   0.906   6.760   3.082  1.4436 -0.4676  0.2253
   96OSM    H8T 9301   0.965   6.599   3.050 -1.2730 -3.0376  1.2419
   96OSM    C9S 9302   0.849   6.604   3.227  0.6740  0.4537 -0.8547
   96OSM    H9S 9303   0.948   6.595   3.276 -0.9538 -1.4392  2.4373
   96OSM    H9T 9304   0.794   6.508   3.216  0.6334  0.6274 -2.5418
   96OSM   C10S 9305   0.773   6.709   3.313 -0.0099  0.1100  0.1727
   96OSM   H10S 9306   0.684   6.739   3.253  1.8278  1.3154 -2.1301
   96OSM   H10T 9307   0.828   6.804   3.331 -1.8559  1.9266 -2.8467
   96OSM   C11S 9308   0.745   6.649   3.451  0.0979 -0.5458  0.5588
   96OSM   H11S 9309   0.839   6.596   3.479 -0.3597 -0.6660  1.9288
   96OSM   H11T 9310   0.680   6.561   3.430 -0.1969  0.4381 -3.2583
   96OSM   C12S 9311   0.700   6.740   3.561  0.6422 -0.2717 -0.0424
   96OSM   H12S 9312   0.620   6.804   3.519  0.9234 -1.5217 -2.6385
   96OSM   H12T 9313   0.782   6.807   3.596  2.0111 -1.3851 -1.0258
   96OSM   C13S 9314   0.656   6.665   3.692  0.3020 -0.5278  0.5340
   96OSM   H13S 9315   0.726   6.581   3.707  3.1189  1.6049  0.1318
   96OSM   H13T 9316   0.554   6.621   3.683  1.6313 -3.9347  0.8103
   96OSM   C14S 9317   0.663   6.764   3.812 -0.4548  0.1881  0.2894
   96OSM   H14S 9318   0.587   6.840   3.785 -1.0899 -0.7548 -0.6945
   96OSM   H14T 9319   0.766   6.806   3.811 -0.2283 -0.0748  3.0539
   96OSM   C15S 9320   0.651   6.695   3.948  0.1758 -0.1660 -0.4091
   96OSM   H15S 9321   0.693   6.592   3.944  1.0368  0.1918 -0.9326
   96OSM   H15T 9322   0.543   6.690   3.974 -0.5958  0.2491 -3.1902
   96OSM   C16S 9323   0.728   6.779   4.055  0.4026  0.4445  0.9307
   96OSM   H16S 9324   0.824   6.800   4.003  0.8922 -3.7392 -0.1906
   96OSM   H16T 9325   0.737   6.706   4.138 -0.0035 -1.6726 -0.8097
   96OSM   C17S 9326   0.668   6.917   4.075 -0.9578 -0.5011  0.3698
   96OSM   H17S 9327   0.560   6.923   4.102 -1.7520  3.7145 -2.7109
   96OSM   H17T 9328   0.671   6.964   3.975 -0.7328 -2.5381 -0.6371
   96OSM   C18S 9329   0.726   7.006   4.184  0.1401 -0.3459  0.1610
   96OSM   H18S 9330   0.837   7.009   4.198 -0.0284 -0.5631  1.7375
   96OSM   H18T 9331   0.679   6.972   4.278 -0.6725  0.3994  0.0336
   96OSM   H18U 9332   0.698   7.113   4.172 -0.3213 -0.5113 -0.2740
   96OSM    C1F 9333   0.598   6.097   2.725 -0.3034  0.0091 -0.2536
   96OSM     OF 9334   0.665   6.022   2.658 -0.3371  0.2265  0.5255
   96OSM    C2F 9335   0.518   6.043   2.840  0.3289 -0.2180 -0.0703
   96OSM    H2F 9336   0.438   5.976   2.800  0.9461 -0.4182 -0.9980
   96OSM    H2G 9337   0.478   6.133   2.891  0.5992  1.2334 -2.3184
   96OSM    C3F 9338   0.600   5.964   2.934  0.4273  1.0087 -1.4787
   96OSM    H3F 9339   0.652   5.884   2.877 -0.2639 -0.2512 -0.4060
   96OSM    H3G 9340   0.520   5.920   2.999 -2.4725  0.3080 -5.1685
   96OSM    C4F 9341   0.690   6.042   3.031  0.1855  0.0058  0.2556
   96OSM    H4F 9342   0.746   6.111   2.964  1.5918  0.9193  2.2934
   96OSM    H4G 9343   0.765   5.977   3.081 -1.6476 -1.3402  1.3463
   96OSM    C5F 9344   0.631   6.105   3.151 -0.4221  0.1189  0.3849
   96OSM    H5F 9345   0.587   6.027   3.216 -1.1743 -0.7413 -1.0922
   96OSM    H5G 9346   0.545   6.166   3.115 -0.5277 -0.0354  0.3733
   96OSM    C6F 9347   0.733   6.191   3.226 -0.2760 -0.4118 -0.0040
   96OSM    H6F 9348   0.797   6.245   3.153  0.7232 -1.4163  0.0943
   96OSM    H6G 9349   0.798   6.126   3.289 -0.5615 -0.3909  0.3131
   96OSM    C7F 9350   0.674   6.295   3.327  0.8896 -0.1003 -0.4415
   96OSM    H7F 9351   0.631   6.377   3.265  0.6616  0.6147  0.6327
   96OSM    H7G 9352   0.767   6.328   3.378  0.1261  0.7534  0.4223
   96OSM    C8F 9353   0.575   6.236   3.427  0.0674  0.4702 -0.5519
   96OSM    H8F 9354   0.497   6.174   3.378 -0.5620  1.2441 -0.5528
   96OSM    H8G 9355   0.530   6.314   3.493  0.0695 -0.5794  0.7442
   96OSM    C9F 9356   0.655   6.141   3.515  0.7448 -0.9266  0.4868
   96OSM    H9F 9357   0.687   6.049   3.463 -1.6996 -0.4808 -2.0728
   96OSM   C10F 9358   0.673   6.143   3.651  0.2131  0.5062  1.2111
   96OSM   H10F 9359   0.733   6.071   3.708  3.0289  2.0463  0.3804
   96OSM   C11F 9360   0.609   6.255   3.732  0.0449 -0.3404 -0.0279
   96OSM   H11F 9361   0.626   6.356   3.688  0.5716 -0.1352  0.6385
   96OSM   H11G 9362   0.673   6.254   3.823 -1.1083  1.7231  0.8736
   96OSM   C12F 9363   0.461   6.240   3.776  0.6581 -0.3755 -0.6942
   96OSM   H12F 9364   0.451   6.143   3.828 -2.2742  1.1808  1.9669
   96OSM   H12G 9365   0.406   6.234   3.679  1.4956  0.8700 -1.2841
   96OSM   C13F 9366   0.412   6.349   3.879 -0.0695 -0.5637 -0.8526
   96OSM   H13F 9367   0.410   6.447   3.826  0.2121  0.9870  1.8249
   96OSM   H13G 9368   0.494   6.364   3.953 -0.6961  0.5756 -0.3617
   96OSM   C14F 9369   0.287   6.312   3.942 -0.4859  0.0986 -0.6868
   96OSM   H14F 9370   0.301   6.214   3.992  2.1206  1.2723  1.1258
   96OSM   H14G 9371   0.212   6.310   3.860 -0.0259  1.1373 -1.1462
   96OSM   C15F 9372   0.250   6.428   4.040  0.1478 -0.5663  0.0409
   96OSM   H15F 9373   0.252   6.525   3.985 -2.9725 -1.4280 -1.8661
   96OSM   H15G 9374   0.330   6.430   4.117  1.0437 -3.4049 -0.6771
   96OSM   C16F 9375   0.114   6.405   4.101  0.5166 -0.2909 -0.5384
   96OSM   H16F 9376   0.115   6.296   4.119 -0.1642 -0.1831  0.1669
   96OSM   H16G 9377   0.030   6.421   4.031 -1.9112 -2.5667  1.6636
   96OSM   C17F 9378   0.083   6.487   4.238 -0.4546  1.1721 -0.1764
   96OSM   H17F 9379   0.069   6.593   4.208 -1.3680  0.4327 -2.6358
   96OSM   H17G 9380   0.169   6.494   4.307  0.8200  2.8993 -1.8382
   96OSM   C18F 9381  -0.038   6.429   4.304  0.0725  0.3050  0.0724
   96OSM   H18F 9382  -0.100   6.392   4.220  1.7444 -2.5094 -0.0572
   96OSM   H18G 9383  -0.097   6.498   4.368  2.5057  1.3683  1.2881
   96OSM   H18H 9384  -0.019   6.342   4.371 -0.6546  2.3372  3.1343
   97OSM      N 9385   5.700   2.088   1.803 -0.3548  0.4657  0.1521
   97OSM    C15 9386   5.698   1.972   1.707 -0.0768 -0.2630 -0.0101
   97OSM   H15A 9387   5.797   1.942   1.676  1.0807  0.7517  2.4358
   97OSM   H15B 9388   5.639   1.998   1.621 -2.1077  1.0270  1.6838
   97OSM   H15C 9389   5.644   1.888   1.747 -2.0905  1.1216  0.2954
   97OSM    C14 9390   5.774   2.051   1.925 -0.0573 -0.9737  0.0187
   97OSM   H14A 9391   5.875   2.030   1.894  0.4284  0.4030  0.6096
   97OSM   H14B 9392   5.727   1.973   1.983 -1.3903 -1.9934 -2.2937
   97OSM   H14C 9393   5.790   2.142   1.981 -1.4716 -0.0414 -1.0228
   97OSM    C13 9394   5.767   2.212   1.751 -0.7781 -0.0456 -0.6691
   97OSM   H13A 9395   5.751   2.303   1.806 -1.4057  0.4488 -1.6377
   97OSM   H13B 9396   5.721   2.228   1.654 -0.3245 -2.1610 -1.2996
   97OSM   H13C 9397   5.873   2.209   1.733 -0.4927 -0.9661  1.0087
   97OSM    C12 9398   5.559   2.130   1.835  0.3650  0.3225 -0.1309
   97OSM   H12A 9399   5.517   2.165   1.742 -0.8183 -0.9616 -0.1056
   97OSM   H12B 9400   5.551   2.225   1.887 -0.7945  0.5828 -0.7424
   97OSM    C11 9401   5.472   2.039   1.916  0.2863  0.2760  0.4851
   97OSM   H11A 9402   5.376   2.091   1.938 -0.7665 -1.3782 -0.0552
   97OSM   H11B 9403   5.529   2.029   2.011  0.3111  0.7959  0.5283
   97OSM      P 9404   5.416   1.794   1.928 -0.4105  0.2079  0.3050
   97OSM    O13 9405   5.391   1.685   1.830 -0.4612 -0.4060 -0.2013
   97OSM    O14 9406   5.520   1.766   2.027 -0.0370  0.5632  0.4618
   97OSM    O11 9407   5.284   1.826   2.004 -0.0437 -0.0102 -0.1030
   97OSM    O12 9408   5.444   1.923   1.844  0.0810  0.3277  0.0048
   97OSM    C1S 9409   5.280   1.876   2.140  0.1775 -1.0236 -0.8025
   97OSM    H1S 9410   5.345   1.966   2.134 -2.0762  0.6661 -1.3805
   97OSM    H1T 9411   5.311   1.799   2.214 -1.5370  1.1440  2.4414
   97OSM     NF 9412   5.126   1.972   2.303  0.2533  0.1005 -0.8796
   97OSM    HNF 9413   5.093   1.927   2.385  1.6454  0.5323 -0.0398
   97OSM    C2S 9414   5.130   1.901   2.181  0.3711  0.4071 -0.2053
   97OSM    H2S 9415   5.086   1.968   2.103 -0.5828  2.4323  1.9319
   97OSM    C3S 9416   5.054   1.769   2.176  0.0742 -0.0591  0.9832
   97OSM    H3S 9417   5.113   1.691   2.229  2.2615  0.3218 -0.7359
   97OSM     O3 9418   5.029   1.717   2.044  0.1776 -0.2115 -0.3198
   97OSM    HO3 9419   5.086   1.773   1.990 -0.1454  2.1156  1.6120
   97OSM    C4S 9420   4.911   1.783   2.230 -0.3285 -0.2700  0.3826
   97OSM    H4S 9421   4.849   1.858   2.177  0.6396  0.4237  0.2033
   97OSM    C5S 9422   4.869   1.698   2.318 -0.1963 -0.6800  0.7891
   97OSM    H5S 9423   4.948   1.634   2.361 -0.9059 -0.8145  1.9291
   97OSM    C6S 9424   4.732   1.697   2.369  0.1432 -0.1313 -0.2265
   97OSM    H6S 9425   4.687   1.596   2.376  1.3080 -0.6768 -0.3547
   97OSM    H6T 9426   4.660   1.750   2.302 -1.3972 -0.9089  0.7563
   97OSM    C7S 9427   4.721   1.773   2.505 -0.1687  0.1450 -0.1713
   97OSM    H7S 9428   4.734   1.883   2.494  0.9710 -0.0234 -0.6849
   97OSM    H7T 9429   4.798   1.732   2.574  0.9598  3.2241  0.5883
   97OSM    C8S 9430   4.581   1.773   2.572  0.4502  0.3043  0.0310
   97OSM    H8S 9431   4.541   1.671   2.593 -1.3156  0.8304 -0.6749
   97OSM    H8T 9432   4.498   1.821   2.516  1.0780  1.4200  0.0264
   97OSM    C9S 9433   4.590   1.839   2.714 -0.3980  0.3115 -0.0482
   97OSM    H9S 9434   4.486   1.867   2.742 -0.3288  1.2157 -0.6735
   97OSM    H9T 9435   4.663   1.922   2.703  4.2101 -3.5106 -1.6600
   97OSM   C10S 9436   4.647   1.751   2.818 -0.3985 -0.0445  0.1567
   97OSM   H10S 9437   4.742   1.700   2.792 -0.6360 -0.8461  0.8298
   97OSM   H10T 9438   4.578   1.667   2.836 -2.6224  1.5594 -0.4842
   97OSM   C11S 9439   4.669   1.825   2.953  0.0667  0.6984  0.2241
   97OSM   H11S 9440   4.762   1.885   2.943  0.9501 -0.5043  0.9868
   97OSM   H11T 9441   4.669   1.739   3.024 -0.3841 -1.0451 -1.8049
   97OSM   C12S 9442   4.547   1.899   3.000 -0.1034  0.2793  0.0285
   97OSM   H12S 9443   4.455   1.856   2.954 -1.0950  0.7530  1.5064
   97OSM   H12T 9444   4.562   2.000   2.956  0.7183  0.9972  1.8625
   97OSM   C13S 9445   4.525   1.898   3.155 -0.4256  0.0473 -0.0064
   97OSM   H13S 9446   4.468   1.988   3.187 -2.1911 -0.6542 -1.0198
   97OSM   H13T 9447   4.628   1.909   3.195  0.0672 -3.9083  0.2295
   97OSM   C14S 9448   4.452   1.776   3.220 -0.5647 -0.2460  0.3627
   97OSM   H14S 9449   4.490   1.685   3.170 -0.6380  0.3290 -0.7567
   97OSM   H14T 9450   4.343   1.786   3.203 -0.3614  0.9672 -0.3556
   97OSM   C15S 9451   4.484   1.770   3.366  0.2588 -0.1224 -0.8203
   97OSM   H15S 9452   4.592   1.763   3.389  0.7445  3.0180 -1.6929
   97OSM   H15T 9453   4.428   1.683   3.407 -1.9528  1.5734 -0.0578
   97OSM   C16S 9454   4.424   1.887   3.450 -0.3993 -0.3134  0.4599
   97OSM   H16S 9455   4.314   1.877   3.445 -0.5166  1.3439 -1.9677
   97OSM   H16T 9456   4.451   1.980   3.396 -1.1452 -1.0240 -1.1803
   97OSM   C17S 9457   4.486   1.892   3.594 -0.5513  0.0323 -0.0751
   97OSM   H17S 9458   4.593   1.863   3.591 -0.6549 -0.3264 -0.3381
   97OSM   H17T 9459   4.447   1.804   3.649  1.7524 -0.2385  1.2771
   97OSM   C18S 9460   4.465   2.024   3.677  0.1569 -0.2713 -0.0816
   97OSM   H18S 9461   4.541   2.104   3.663 -0.5236  1.1387  3.4606
   97OSM   H18T 9462   4.467   1.993   3.783  0.2851  0.4005  0.1160
   97OSM   H18U 9463   4.368   2.072   3.651  0.2236  0.6295  1.2612
   97OSM    C1F 9464   5.153   2.103   2.303  0.6549  0.3165 -0.2996
   97OSM     OF 9465   5.188   2.153   2.199 -0.2645  0.3384 -0.4766
   97OSM    C2F 9466   5.139   2.176   2.433  0.2638  0.0244 -0.1260
   97OSM    H2F 9467   5.083   2.267   2.404  1.3293  0.6056 -0.4141
   97OSM    H2G 9468   5.240   2.200   2.472  1.1161  0.2784 -2.3232
   97OSM    C3F 9469   5.047   2.109   2.536 -0.3461  0.2344 -0.3608
   97OSM    H3F 9470   5.087   2.009   2.563 -0.7086  0.0122 -0.6366
   97OSM    H3G 9471   4.948   2.090   2.489 -0.5597 -0.4032  0.3201
   97OSM    C4F 9472   5.011   2.199   2.665  0.1150 -0.6928  0.3772
   97OSM    H4F 9473   4.988   2.304   2.637 -1.7365 -0.3733  2.8420
   97OSM    H4G 9474   5.109   2.211   2.715 -0.0201  0.9416  0.3017
   97OSM    C5F 9475   4.919   2.126   2.761  0.4068  0.6577  0.1488
   97OSM    H5F 9476   4.944   2.020   2.783  0.6367  0.4326 -1.1286
   97OSM    H5G 9477   4.819   2.128   2.713  1.0923 -0.1359 -1.3633
   97OSM    C6F 9478   4.912   2.214   2.888  0.5351 -0.4623 -0.1635
   97OSM    H6F 9479   4.849   2.301   2.860 -0.1273 -0.9512 -0.2387
   97OSM    H6G 9480   5.013   2.248   2.919  0.2433 -0.9388  1.3914
   97OSM    C7F 9481   4.834   2.154   3.013  0.5593 -0.5288 -0.0409
   97OSM    H7F 9482   4.894   2.071   3.058 -0.6097 -0.3654  1.9551
   97OSM    H7G 9483   4.738   2.111   2.979  1.2357  0.6771 -4.0142
   97OSM    C8F 9484   4.817   2.261   3.125  0.8495  0.6688  0.0634
   97OSM    H8F 9485   4.759   2.347   3.084 -2.3720 -0.5908  1.7008
   97OSM    H8G 9486   4.915   2.307   3.153  1.2278 -0.5174  0.7866
   97OSM    C9F 9487   4.763   2.195   3.254  0.6220 -0.3721  0.5416
   97OSM    H9F 9488   4.836   2.137   3.311  1.6270  0.7003  0.3745
   97OSM   C10F 9489   4.637   2.193   3.299  0.2192 -0.5939  1.0694
   97OSM   H10F 9490   4.608   2.150   3.396 -0.4818 -0.2145  1.0360
   97OSM   C11F 9491   4.524   2.269   3.227  0.1427 -0.7147 -0.2076
   97OSM   H11F 9492   4.463   2.195   3.171  2.1874 -0.5016 -2.9258
   97OSM   H11G 9493   4.567   2.347   3.162 -1.2484  3.0744  3.0117
   97OSM   C12F 9494   4.434   2.338   3.330  0.0263 -0.4001 -0.0542
   97OSM   H12F 9495   4.400   2.266   3.408  0.5950 -2.9509 -1.9988
   97OSM   H12G 9496   4.348   2.367   3.267  0.1215 -1.2686 -0.6123
   97OSM   C13F 9497   4.506   2.464   3.386  0.3830  0.1227 -0.1980
   97OSM   H13F 9498   4.514   2.539   3.305  0.1073  0.3063 -0.0584
   97OSM   H13G 9499   4.607   2.430   3.418 -0.0776 -0.6757  0.4715
   97OSM   C14F 9500   4.428   2.517   3.515 -0.6468 -0.3839  0.1005
   97OSM   H14F 9501   4.323   2.542   3.490 -0.8064  1.3863  2.2462
   97OSM   H14G 9502   4.488   2.606   3.543  1.0200 -1.4677  0.1681
   97OSM   C15F 9503   4.429   2.429   3.644  0.6745 -0.2231 -0.1401
   97OSM   H15F 9504   4.534   2.392   3.654  0.1950 -2.0366 -1.2888
   97OSM   H15G 9505   4.365   2.342   3.617 -1.8424  1.2610  0.7876
   97OSM   C16F 9506   4.387   2.504   3.769  0.2498 -0.1619  0.5586
   97OSM   H16F 9507   4.311   2.573   3.728 -1.5903 -4.2115 -3.7023
   97OSM   H16G 9508   4.478   2.554   3.808  0.7383 -1.0839  0.6323
   97OSM   C17F 9509   4.312   2.402   3.866 -0.2414  0.7888  0.9280
   97OSM   H17F 9510   4.249   2.341   3.798  0.3371 -0.1431  1.2064
   97OSM   H17G 9511   4.258   2.466   3.939  0.5560 -0.1764  2.4240
   97OSM   C18F 9512   4.400   2.316   3.951  0.7813 -0.2052  0.8601
   97OSM   H18F 9513   4.345   2.238   4.007 -0.0617 -1.3564 -1.4436
   97OSM   H18G 9514   4.459   2.372   4.027  1.3051  0.8293 -0.2797
   97OSM   H18H 9515   4.460   2.262   3.874 -0.5963  0.0149 -0.4091
   98OSM      N 9516   0.171   3.261   2.341 -0.5737  0.4212 -0.1375
   98OSM    C15 9517   0.052   3.203   2.256 -0.1003 -0.2409  0.3317
   98OSM   H15A 9518   0.048   3.253   2.160  0.1611  1.0955  0.9936
   98OSM   H15B 9519  -0.041   3.224   2.305  1.1419  3.3852  1.4749
   98OSM   H15C 9520   0.063   3.096   2.243  0.2718 -0.1158 -0.4941
   98OSM    C14 9521   0.170   3.180   2.469  0.7755  0.3484  0.2780
   98OSM   H14A 9522   0.076   3.188   2.520  0.4823  0.9897 -0.3389
   98OSM   H14B 9523   0.256   3.213   2.525  1.8082 -1.1121 -0.3746
   98OSM   H14C 9524   0.187   3.077   2.441 -2.4302 -0.3667  0.5974
   98OSM    C13 9525   0.293   3.230   2.271 -0.2584  0.7202  0.4048
   98OSM   H13A 9526   0.288   3.257   2.166 -2.9595  1.1597  0.5812
   98OSM   H13B 9527   0.305   3.123   2.279  0.4028  0.5942 -1.6111
   98OSM   H13C 9528   0.383   3.270   2.314  0.0684  0.9007 -0.4185
   98OSM    C12 9529   0.145   3.410   2.362  0.1241  0.5614 -0.0700
   98OSM   H12A 9530   0.220   3.449   2.429 -0.9934  0.4269  1.3087
   98OSM   H12B 9531   0.063   3.410   2.433  1.7031 -0.8523  1.8626
   98OSM    C11 9532   0.117   3.499   2.240  0.1233 -0.7220 -0.3964
   98OSM   H11A 9533   0.205   3.484   2.174  1.8723  0.3490  1.5725
   98OSM   H11B 9534   0.124   3.608   2.259 -1.5412 -0.7266  0.3443
   98OSM      P 9535  -0.144   3.509   2.223 -0.1557 -0.5000  0.0000
   98OSM    O13 9536  -0.218   3.582   2.114  0.3529 -0.3560 -0.5450
   98OSM    O14 9537  -0.202   3.388   2.292  0.0109 -0.1552 -0.5267
   98OSM    O11 9538  -0.113   3.613   2.328  0.0394 -0.3564  0.4776
   98OSM    O12 9539  -0.000   3.479   2.164  0.1297  0.4433 -0.7554
   98OSM    C1S 9540  -0.204   3.673   2.419  0.5705 -0.4165  0.0262
   98OSM    H1S 9541  -0.310   3.652   2.394  0.8215 -1.8310  0.0819
   98OSM    H1T 9542  -0.197   3.784   2.413  0.0042 -0.3921 -0.2304
   98OSM     NF 9543  -0.304   3.679   2.644  0.3875  0.1542 -0.2986
   98OSM    HNF 9544  -0.278   3.763   2.691 -0.7875  1.3628 -1.6889
   98OSM    C2S 9545  -0.193   3.636   2.562  0.2233  0.4919 -0.6651
   98OSM    H2S 9546  -0.198   3.525   2.563 -2.9197  0.5323 -1.5809
   98OSM    C3S 9547  -0.063   3.692   2.625 -0.2775  0.8064 -0.2196
   98OSM    H3S 9548  -0.083   3.801   2.633  0.6402  1.0105 -0.6633
   98OSM     O3 9549   0.043   3.687   2.531 -0.4000  0.1263  0.4365
   98OSM    HO3 9550  -0.006   3.667   2.451 -0.2580 -0.2851  0.4500
   98OSM    C4S 9551  -0.030   3.618   2.750 -1.0279  0.1201 -0.4718
   98OSM    H4S 9552  -0.071   3.669   2.838  0.1017  0.7814 -0.3071
   98OSM    C5S 9553   0.035   3.503   2.769  0.2831 -0.3747  0.1067
   98OSM    H5S 9554   0.060   3.457   2.672  2.2642  1.1475 -0.1715
   98OSM    C6S 9555   0.055   3.439   2.905  0.5201 -0.1657 -0.1731
   98OSM    H6S 9556   0.164   3.422   2.908  0.6266  0.6123  1.0263
   98OSM    H6T 9557   0.002   3.341   2.897  2.4488 -1.2607 -0.0311
   98OSM    C7S 9558   0.010   3.507   3.043  0.2196 -0.4128  0.8411
   98OSM    H7S 9559  -0.095   3.543   3.039 -0.8118 -3.0051  2.1242
   98OSM    H7T 9560   0.077   3.595   3.060 -0.5756  0.1790  0.9478
   98OSM    C8S 9561   0.014   3.417   3.167  0.0262  0.3286 -0.4684
   98OSM    H8S 9562   0.118   3.389   3.194  0.1088  0.8415 -0.2407
   98OSM    H8T 9563  -0.051   3.327   3.163 -0.7485  0.7302  1.7431
   98OSM    C9S 9564  -0.050   3.494   3.280 -0.1956  0.4128  0.2559
   98OSM    H9S 9565  -0.155   3.511   3.247  0.3239 -1.8251 -3.0819
   98OSM    H9T 9566  -0.001   3.594   3.287  0.7436  0.0444 -0.8202
   98OSM   C10S 9567  -0.047   3.421   3.416  0.4132 -0.1351 -0.0463
   98OSM   H10S 9568   0.049   3.365   3.424  0.3864 -0.1676  0.0436
   98OSM   H10T 9569  -0.133   3.352   3.416 -0.4769  0.8691 -2.3131
   98OSM   C11S 9570  -0.062   3.520   3.530  0.1341 -0.4041 -0.5559
   98OSM   H11S 9571  -0.164   3.561   3.517 -0.0516 -1.3799 -2.4072
   98OSM   H11T 9572   0.017   3.598   3.525  0.4076 -0.4192  2.0102
   98OSM   C12S 9573  -0.048   3.462   3.674  0.6052 -0.2034 -0.2302
   98OSM   H12S 9574   0.052   3.414   3.668  1.0226  0.6083  0.1328
   98OSM   H12T 9575  -0.116   3.375   3.681  1.3358 -0.7182  0.5891
   98OSM   C13S 9576  -0.070   3.564   3.787 -0.3805 -0.1615 -0.3519
   98OSM   H13S 9577  -0.178   3.585   3.792 -0.3350 -0.1974  1.6851
   98OSM   H13T 9578  -0.006   3.646   3.748  2.0679 -1.4155  0.7928
   98OSM   C14S 9579  -0.015   3.528   3.923  0.2130  0.6813  0.4186
   98OSM   H14S 9580   0.013   3.621   3.978  1.9120  1.2648 -1.3240
   98OSM   H14T 9581   0.074   3.464   3.912  0.6339  1.1541  1.0043
   98OSM   C15S 9582  -0.103   3.436   4.014 -0.6547  0.4081 -0.0058
   98OSM   H15S 9583  -0.116   3.344   3.953 -2.1988  0.3723  0.3336
   98OSM   H15T 9584  -0.206   3.476   4.020 -0.9907 -0.4516 -0.0043
   98OSM   C16S 9585  -0.048   3.419   4.158  0.0573  0.8200 -0.5807
   98OSM   H16S 9586   0.053   3.375   4.147 -0.6380 -0.9952 -0.0375
   98OSM   H16T 9587  -0.113   3.348   4.214 -0.2144  0.3309 -1.4902
   98OSM   C17S 9588  -0.028   3.544   4.247 -0.1264  0.3518 -0.2430
   98OSM   H17S 9589   0.060   3.579   4.188 -0.5141 -0.0052 -1.0411
   98OSM   H17T 9590   0.012   3.505   4.343  0.0736 -1.3210 -0.9679
   98OSM   C18S 9591  -0.141   3.640   4.265 -0.2431  0.2394  0.0075
   98OSM   H18S 9592  -0.211   3.651   4.179  0.6496 -0.4978 -0.8396
   98OSM   H18T 9593  -0.200   3.614   4.355 -1.0860 -1.0100 -0.8564
   98OSM   H18U 9594  -0.093   3.739   4.274 -0.0172  0.1281  0.0191
   98OSM    C1F 9595  -0.425   3.631   2.645  0.3731  0.3948 -0.2574
   98OSM     OF 9596  -0.470   3.552   2.561  0.7264 -0.3419 -0.0147
   98OSM    C2F 9597  -0.523   3.695   2.739  0.0611 -0.3679 -0.5606
   98OSM    H2F 9598  -0.612   3.712   2.675  0.0442  1.2296 -0.1572
   98OSM    H2G 9599  -0.490   3.794   2.776  1.8081 -1.2027  0.2616
   98OSM    C3F 9600  -0.579   3.603   2.853  0.6518  0.0659 -0.8774
   98OSM    H3F 9601  -0.488   3.549   2.889  0.3826  0.1312 -0.0881
   98OSM    H3G 9602  -0.652   3.538   2.802  0.6343  0.6625 -1.6332
   98OSM    C4F 9603  -0.644   3.680   2.973  0.3121  0.1964  0.6320
   98OSM    H4F 9604  -0.701   3.603   3.029  0.4943 -2.6827 -2.7572
   98OSM    H4G 9605  -0.720   3.757   2.947  0.4202  0.4089  0.9438
   98OSM    C5F 9606  -0.548   3.744   3.067  0.6227  0.4852 -0.1928
   98OSM    H5F 9607  -0.609   3.805   3.138 -0.2613  0.1962 -0.6875
   98OSM    H5G 9608  -0.469   3.805   3.018 -0.0720  0.0263 -1.9703
   98OSM    C6F 9609  -0.486   3.643   3.162  0.2944  0.2463  0.0103
   98OSM    H6F 9610  -0.456   3.558   3.097 -2.2762 -0.0674 -0.9078
   98OSM    H6G 9611  -0.573   3.601   3.217  1.2025 -0.1435  1.1968
   98OSM    C7F 9612  -0.385   3.699   3.264  0.6047 -0.0417  0.3408
   98OSM    H7F 9613  -0.315   3.765   3.207 -1.9314  1.7962 -0.8289
   98OSM    H7G 9614  -0.334   3.611   3.309  0.9856  0.8287  1.6683
   98OSM    C8F 9615  -0.431   3.789   3.379  0.2165  0.2300  0.0016
   98OSM    H8F 9616  -0.475   3.880   3.333 -0.6473  0.1348  0.6148
   98OSM    H8G 9617  -0.341   3.816   3.438 -0.3275  0.2509  0.8422
   98OSM    C9F 9618  -0.528   3.716   3.465 -0.6957  0.7658 -0.4254
   98OSM    H9F 9619  -0.611   3.671   3.408 -1.0189  0.7972  0.0238
   98OSM   C10F 9620  -0.526   3.693   3.598 -0.1725  0.1301  0.1291
   98OSM   H10F 9621  -0.611   3.639   3.642 -0.7070  2.9657  2.9236
   98OSM   C11F 9622  -0.418   3.729   3.695 -0.1435 -0.1862  0.4828
   98OSM   H11F 9623  -0.316   3.722   3.651 -0.8456 -2.1534 -0.9506
   98OSM   H11G 9624  -0.418   3.651   3.775  1.4045 -1.5629 -0.7860
   98OSM   C12F 9625  -0.434   3.863   3.765 -0.3912  0.3413 -0.1663
   98OSM   H12F 9626  -0.463   3.953   3.707 -1.8978 -0.4098 -0.6538
   98OSM   H12G 9627  -0.334   3.879   3.809 -0.4141 -1.7394  0.7551
   98OSM   C13F 9628  -0.538   3.868   3.877  0.4232 -0.0286  0.3263
   98OSM   H13F 9629  -0.631   3.835   3.827  0.0707  1.0399  0.2480
   98OSM   H13G 9630  -0.542   3.977   3.898  2.4308  0.2357 -0.5097
   98OSM   C14F 9631  -0.497   3.776   3.997  0.3936 -0.1847 -0.2353
   98OSM   H14F 9632  -0.390   3.791   4.022  0.2948 -0.7165  0.5367
   98OSM   H14G 9633  -0.502   3.668   3.974 -0.0086 -0.2716  0.2412
   98OSM   C15F 9634  -0.578   3.805   4.125  0.4671  0.4845  0.5704
   98OSM   H15F 9635  -0.673   3.751   4.103  0.0235  1.5019 -0.0752
   98OSM   H15G 9636  -0.610   3.910   4.144  0.1835  0.4851  0.1094
   98OSM   C16F 9637  -0.514   3.747   4.255  0.1953 -0.0701  0.2666
   98OSM   H16F 9638  -0.409   3.779   4.271  0.1624  0.8888 -1.1898
   98OSM   H16G 9639  -0.506   3.636   4.251  0.3092 -0.0305 -1.0362
   98OSM   C17F 9640  -0.598   3.774   4.376 -0.1696 -0.4868  0.2232
   98OSM   H17F 9641  -0.705   3.767   4.348 -0.2547 -2.0389  0.8689
   98OSM   H17G 9642  -0.589   3.879   4.411  0.3889 -0.3788 -0.2262
   98OSM   C18F 9643  -0.577   3.673   4.491 -0.3312 -0.1620 -0.2903
   98OSM   H18F 9644  -0.471   3.644   4.507 -0.2072 -0.5519 -1.6267
   98OSM   H18G 9645  -0.625   3.576   4.468  2.4496 -1.7509  0.1228
   98OSM   H18H 9646  -0.625   3.712   4.583 -1.4230 -0.2884 -0.7992
   99OSM      N 9647   4.488   6.235   1.966  0.4059 -0.4618  0.0634
   99OSM    C15 9648   4.608   6.218   1.878 -0.4310 -0.0719  0.4506
   99OSM   H15A 9649   4.680   6.150   1.921  0.5395  0.8669  0.3525
   99OSM   H15B 9650   4.660   6.311   1.859  0.4497 -0.7116 -0.3453
   99OSM   H15C 9651   4.566   6.191   1.783 -4.3946  2.3765  1.2704
   99OSM    C14 9652   4.531   6.311   2.091 -0.8278  0.6039  0.1987
   99OSM   H14A 9653   4.452   6.310   2.164 -1.8294  0.7214 -0.8621
   99OSM   H14B 9654   4.579   6.404   2.063 -1.5744  0.7062 -0.8055
   99OSM   H14C 9655   4.610   6.248   2.130 -0.9079  0.5509  0.2734
   99OSM    C13 9656   4.383   6.318   1.892 -0.5958  0.3016 -0.5671
   99OSM   H13A 9657   4.414   6.420   1.872  0.7994 -0.1344 -0.7138
   99OSM   H13B 9658   4.292   6.326   1.949 -0.7640  0.6584 -0.8759
   99OSM   H13C 9659   4.355   6.264   1.803 -2.1236 -1.1255  0.7203
   99OSM    C12 9660   4.421   6.107   2.009  0.3843  0.1244  0.0717
   99OSM   H12A 9661   4.417   6.041   1.923  0.0365 -1.9614  1.6195
   99OSM   H12B 9662   4.322   6.133   2.041  0.8052  1.9842 -0.0275
   99OSM    C11 9663   4.496   6.032   2.123 -0.1257  0.1072  0.2719
   99OSM   H11A 9664   4.433   5.943   2.144  2.2762 -1.3778  1.8102
   99OSM   H11B 9665   4.479   6.095   2.212 -4.2815  0.7818 -0.8206
   99OSM      P 9666   4.674   5.858   2.068  0.2008  0.5114  0.3303
   99OSM    O13 9667   4.588   5.812   1.956 -0.0487  0.4734 -0.5761
   99OSM    O14 9668   4.818   5.855   2.043 -0.4492 -0.1845  0.2964
   99OSM    O11 9669   4.627   5.779   2.199 -0.6001 -0.4097  0.1434
   99OSM    O12 9670   4.634   6.007   2.097 -0.5361  0.0710  0.1373
   99OSM    C1S 9671   4.654   5.827   2.334  0.5303  0.1348 -0.4490
   99OSM    H1S 9672   4.583   5.910   2.355  2.6507  1.6675  1.1466
   99OSM    H1T 9673   4.761   5.857   2.348  0.9055 -1.3676  0.0755
   99OSM     NF 9674   4.603   5.753   2.558 -0.0213  0.5056 -0.0038
   99OSM    HNF 9675   4.674   5.727   2.623 -0.1490  2.0895  0.8463
   99OSM    C2S 9676   4.621   5.702   2.427 -0.2418  0.0484  0.2358
   99OSM    H2S 9677   4.521   5.669   2.390  0.9100 -1.2329 -1.9944
   99OSM    C3S 9678   4.721   5.587   2.397  0.3202  0.7204 -0.2350
   99OSM    H3S 9679   4.814   5.625   2.445 -0.5878 -0.5011  2.6773
   99OSM     O3 9680   4.754   5.550   2.264 -0.1238  0.1411  0.0092
   99OSM    HO3 9681   4.716   5.624   2.215 -1.9002 -0.2502  0.7004
   99OSM    C4S 9682   4.681   5.468   2.476  0.0456 -0.4990 -0.4266
   99OSM    H4S 9683   4.720   5.484   2.578 -2.7217  3.2283  0.2546
   99OSM    C5S 9684   4.614   5.353   2.444  1.1742  0.2966 -0.3851
   99OSM    H5S 9685   4.563   5.342   2.347 -0.6566 -2.2606  0.7416
   99OSM    C6S 9686   4.583   5.246   2.542 -1.0180 -0.3502 -0.5978
   99OSM    H6S 9687   4.600   5.147   2.495  1.7057 -1.3733  2.1979
   99OSM    H6T 9688   4.474   5.254   2.560 -0.9636 -0.0744 -0.3914
   99OSM    C7S 9689   4.652   5.243   2.679  0.4765  0.6797  0.0690
   99OSM    H7S 9690   4.669   5.348   2.713  0.8688  0.8522 -0.6457
   99OSM    H7T 9691   4.753   5.199   2.662 -0.7559 -2.7148  0.7221
   99OSM    C8S 9692   4.583   5.142   2.780  0.3107 -0.3574  0.2171
   99OSM    H8S 9693   4.587   5.037   2.744  0.6363  0.3283 -1.8834
   99OSM    H8T 9694   4.484   5.191   2.794  0.1752 -0.9453  1.5154
   99OSM    C9S 9695   4.652   5.153   2.913  0.5119 -0.1550 -0.4022
   99OSM    H9S 9696   4.664   5.260   2.940  2.6572 -0.6229  0.7611
   99OSM    H9T 9697   4.757   5.118   2.902  0.7837  0.1981  0.9555
   99OSM   C10S 9698   4.594   5.059   3.023  0.3201 -0.5781 -0.7643
   99OSM   H10S 9699   4.595   4.956   2.982  1.7774 -0.5175 -0.9318
   99OSM   H10T 9700   4.493   5.082   3.064 -0.3740  0.0571 -2.7315
   99OSM   C11S 9701   4.681   5.054   3.145  0.4418  0.1498 -0.6853
   99OSM   H11S 9702   4.681   5.150   3.201  4.3715  0.4043 -0.8608
   99OSM   H11T 9703   4.788   5.031   3.131  0.4109 -1.1390  0.8950
   99OSM   C12S 9704   4.638   4.939   3.239 -0.0859  0.0232  0.1490
   99OSM   H12S 9705   4.609   4.850   3.180  0.1662  1.5868 -2.5276
   99OSM   H12T 9706   4.543   4.974   3.284 -0.3112 -0.8920  0.4068
   99OSM   C13S 9707   4.741   4.917   3.349  0.2374 -0.0170 -0.5648
   99OSM   H13S 9708   4.761   5.018   3.392 -2.4750  0.4402 -0.2189
   99OSM   H13T 9709   4.824   4.858   3.305 -0.0189 -1.5484  0.9070
   99OSM   C14S 9710   4.686   4.831   3.465 -0.1873 -0.5633 -0.1629
   99OSM   H14S 9711   4.649   4.735   3.420 -2.2589  0.1130 -0.0339
   99OSM   H14T 9712   4.589   4.876   3.495 -0.9307 -0.8268 -2.0250
   99OSM   C15S 9713   4.780   4.808   3.584  0.1561 -0.1061 -0.3959
   99OSM   H15S 9714   4.830   4.905   3.604  2.0585 -1.0169 -0.5635
   99OSM   H15T 9715   4.864   4.739   3.561 -0.0851 -0.2676 -0.8098
   99OSM   C16S 9716   4.707   4.764   3.709 -0.2895  0.8084  0.0236
   99OSM   H16S 9717   4.787   4.736   3.782  0.8719  1.8167 -0.8189
   99OSM   H16T 9718   4.643   4.678   3.683  0.0270  1.1248 -1.9346
   99OSM   C17S 9719   4.615   4.873   3.769 -0.2629 -0.1913 -0.5549
   99OSM   H17S 9720   4.516   4.867   3.719  0.1768  1.4378 -1.6948
   99OSM   H17T 9721   4.667   4.970   3.754  2.4737 -0.6157  4.2215
   99OSM   C18S 9722   4.613   4.868   3.919 -0.5570  0.1531  0.1312
   99OSM   H18S 9723   4.549   4.780   3.941  3.4409 -3.3827 -0.9797
   99OSM   H18T 9724   4.558   4.957   3.956 -2.3234 -1.3941  1.4450
   99OSM   H18U 9725   4.717   4.850   3.956  0.6276  1.4296 -2.3612
   99OSM    C1F 9726   4.508   5.830   2.595  0.1452  0.6578 -0.1947
   99OSM     OF 9727   4.405   5.845   2.524  0.4800  0.4449 -0.1629
   99OSM    C2F 9728   4.528   5.881   2.735 -0.4514 -0.6049 -0.3386
   99OSM    H2F 9729   4.599   5.966   2.725 -0.2949 -0.8137 -1.1117
   99OSM    H2G 9730   4.587   5.806   2.791  2.1928  0.3258 -1.6912
   99OSM    C3F 9731   4.402   5.929   2.807 -0.3744  0.1994  0.3043
   99OSM    H3F 9732   4.327   5.847   2.817  1.1773 -0.9777  3.5658
   99OSM    H3G 9733   4.361   6.018   2.755  0.2248  1.6152  2.1851
   99OSM    C4F 9734   4.442   5.969   2.950 -0.9113 -0.8801  0.6234
   99OSM    H4F 9735   4.369   6.045   2.986  0.3904 -0.1522  1.8089
   99OSM    H4G 9736   4.544   6.014   2.945  0.0090 -3.0009 -1.7858
   99OSM    C5F 9737   4.452   5.853   3.043  0.3038  0.5761 -0.7914
   99OSM    H5F 9738   4.539   5.791   3.011  0.7772 -0.0884  1.5654
   99OSM    H5G 9739   4.356   5.797   3.048 -0.7973  2.3569 -1.0962
   99OSM    C6F 9740   4.480   5.906   3.191  0.0462 -0.5760  0.1421
   99OSM    H6F 9741   4.402   5.985   3.198  1.6395  0.9989  0.9817
   99OSM    H6G 9742   4.581   5.952   3.178  1.2071 -3.5402 -2.7120
   99OSM    C7F 9743   4.471   5.800   3.295  0.4546  0.4396 -0.3131
   99OSM    H7F 9744   4.512   5.704   3.257  0.3135  0.1803  0.1838
   99OSM    H7G 9745   4.362   5.789   3.312  0.4749 -2.1439 -1.3623
   99OSM    C8F 9746   4.538   5.844   3.431  0.5127  0.3671 -0.3798
   99OSM    H8F 9747   4.632   5.902   3.421  0.2034  1.1210  0.9082
   99OSM    H8G 9748   4.547   5.741   3.473 -0.9593  0.8680  1.2845
   99OSM    C9F 9749   4.443   5.927   3.517  0.2247 -0.0645  0.4379
   99OSM    H9F 9750   4.341   5.888   3.526  0.8478 -2.3456 -1.4270
   99OSM   C10F 9751   4.467   6.054   3.572 -0.4601  1.0207 -0.5103
   99OSM   H10F 9752   4.385   6.112   3.617 -0.3536  0.0856  0.9726
   99OSM   C11F 9753   4.602   6.106   3.597 -0.4199  0.1957  0.7074
   99OSM   H11F 9754   4.595   6.209   3.557 -1.6210  0.0842  0.6012
   99OSM   H11G 9755   4.680   6.058   3.535 -0.7163 -0.0769  0.5428
   99OSM   C12F 9756   4.649   6.106   3.742 -0.3231  0.3504  0.0344
   99OSM   H12F 9757   4.650   6.002   3.781 -0.5781  0.4450  0.2937
   99OSM   H12G 9758   4.564   6.147   3.801 -0.2730  0.9732 -0.3246
   99OSM   C13F 9759   4.785   6.165   3.765 -0.1682  0.1433  0.2236
   99OSM   H13F 9760   4.804   6.272   3.740  2.4399  0.4312  2.8939
   99OSM   H13G 9761   4.850   6.111   3.693 -1.0360 -0.7396  0.0769
   99OSM   C14F 9762   4.816   6.144   3.911  0.3305  0.4414 -0.5946
   99OSM   H14F 9763   4.812   6.035   3.933  0.5900  0.5643  0.1148
   99OSM   H14G 9764   4.743   6.187   3.984  0.5323 -2.5335  1.5356
   99OSM   C15F 9765   4.954   6.189   3.960 -0.3954  0.1026 -0.4663
   99OSM   H15F 9766   4.967   6.299   3.947  1.4946  0.1768  1.4547
   99OSM   H15G 9767   5.030   6.143   3.894 -2.7103 -0.4214 -2.9727
   99OSM   C16F 9768   4.988   6.152   4.105  0.1208 -0.4452  0.3528
   99OSM   H16F 9769   5.005   6.042   4.108 -0.5433 -0.5563  3.6002
   99OSM   H16G 9770   4.903   6.168   4.174 -0.4169 -3.2997  0.4875
   99OSM   C17F 9771   5.115   6.217   4.166 -0.2618 -0.5003  0.3120
   99OSM   H17F 9772   5.119   6.325   4.138 -0.6376 -0.1164  1.6791
   99OSM   H17G 9773   5.208   6.165   4.134 -1.4497 -0.7058 -3.2816
   99OSM   C18F 9774   5.112   6.209   4.319  0.3592  0.1543 -0.2533
   99OSM   H18F 9775   5.041   6.278   4.370  0.9838  0.2289  0.5265
   99OSM   H18G 9776   5.209   6.237   4.366  0.2962 -0.5909  0.3291
   99OSM   H18H 9777   5.104   6.102   4.346  0.8416 -0.3153 -1.8497
  100OSM      N 9778   0.321   4.913   1.740  0.6930 -0.5147  0.8448
  100OSM    C15 9779   0.445   4.840   1.699  0.1865  0.1369  0.4209
  100OSM   H15A 9780   0.424   4.739   1.667  1.1789  0.0873 -0.1091
  100OSM   H15B 9781   0.515   4.834   1.782  1.0930  1.6791 -0.1929
  100OSM   H15C 9782   0.489   4.887   1.612 -0.4913 -1.6935 -0.9716
  100OSM    C14 9783   0.376   5.047   1.767 -0.6386 -0.1592  0.1310
  100OSM   H14A 9784   0.450   5.082   1.697 -0.5771  1.0398  0.7696
  100OSM   H14B 9785   0.426   5.041   1.862 -0.3022 -2.1485 -0.1138
  100OSM   H14C 9786   0.301   5.125   1.770  0.7886  1.2350  1.1327
  100OSM    C13 9787   0.225   4.923   1.622  0.1055  0.2104  0.5865
  100OSM   H13A 9788   0.274   4.987   1.551 -0.9095 -1.1668 -1.4536
  100OSM   H13B 9789   0.125   4.963   1.638 -1.0641 -1.9349 -0.8740
  100OSM   H13C 9790   0.198   4.833   1.570 -1.0804  0.5806  0.5179
  100OSM    C12 9791   0.249   4.864   1.861 -0.4099 -0.0293 -0.7971
  100OSM   H12A 9792   0.186   4.780   1.839  1.6532 -1.6056 -0.9962
  100OSM   H12B 9793   0.189   4.939   1.910 -0.9101 -1.7227  1.3176
  100OSM    C11 9794   0.347   4.802   1.969  0.1819 -1.2112  0.5766
  100OSM   H11A 9795   0.395   4.722   1.908 -1.1563  0.3077 -2.7045
  100OSM   H11B 9796   0.291   4.749   2.049 -1.0303  0.0386  0.5974
  100OSM      P 9797   0.380   5.006   2.123  0.0800  0.6457 -0.3215
  100OSM    O13 9798   0.463   5.125   2.095  0.1901 -0.0586  0.1470
  100OSM    O14 9799   0.236   5.040   2.111  0.0184  0.8538 -0.3216
  100OSM    O11 9800   0.400   4.947   2.262 -0.9252  0.5493  0.6186
  100OSM    O12 9801   0.436   4.897   2.026  0.7985  0.1563  0.2193
  100OSM    C1S 9802   0.530   4.946   2.328 -0.0751 -0.3231  0.2025
  100OSM    H1S 9803   0.547   5.048   2.369 -0.5854 -0.8457  1.8038
  100OSM    H1T 9804   0.607   4.923   2.252 -0.3647  2.5808 -1.0826
  100OSM     NF 9805   0.639   4.876   2.531 -0.0867  0.2985  0.3568
  100OSM    HNF 9806   0.707   4.803   2.539  1.1971  1.1147 -1.9615
  100OSM    C2S 9807   0.522   4.854   2.450 -1.1410  0.1229 -0.3215
  100OSM    H2S 9808   0.433   4.879   2.512 -0.3547  2.6162 -0.0919
  100OSM    C3S 9809   0.521   4.707   2.394 -0.5302  0.0901  0.0912
  100OSM    H3S 9810   0.613   4.702   2.331 -0.0933  1.5491  0.5815
  100OSM     O3 9811   0.413   4.692   2.305  0.1995 -0.2378 -0.0617
  100OSM    HO3 9812   0.390   4.784   2.293 -1.4705 -0.4728  0.9984
  100OSM    C4S 9813   0.517   4.601   2.501  0.0115  0.2435  0.5810
  100OSM    H4S 9814   0.607   4.538   2.491  1.1232  1.8795 -0.3476
  100OSM    C5S 9815   0.411   4.561   2.573 -0.0259 -0.4024  0.4987
  100OSM    H5S 9816   0.314   4.604   2.547  1.3975  1.8029 -1.6226
  100OSM    C6S 9817   0.414   4.429   2.645 -0.3167 -0.2385 -0.4382
  100OSM    H6S 9818   0.499   4.366   2.608 -1.3098 -0.8908 -1.7135
  100OSM    H6T 9819   0.319   4.372   2.633  0.3347 -1.3159 -0.6504
  100OSM    C7S 9820   0.426   4.458   2.799 -0.6024  0.2017 -0.0420
  100OSM    H7S 9821   0.344   4.527   2.828  0.1564  1.5043 -0.9036
  100OSM    H7T 9822   0.521   4.506   2.830 -1.3268  0.2158  2.4251
  100OSM    C8S 9823   0.422   4.329   2.878 -0.2708  0.3116  0.4598
  100OSM    H8S 9824   0.517   4.272   2.881 -0.9191 -0.7745  1.3297
  100OSM    H8T 9825   0.354   4.254   2.832 -0.2118  0.2891  0.4101
  100OSM    C9S 9826   0.375   4.357   3.024 -0.5287  0.0085  0.4826
  100OSM    H9S 9827   0.267   4.381   3.022 -0.5913 -0.2315  0.8951
  100OSM    H9T 9828   0.432   4.442   3.066  2.6398 -2.1387  0.8792
  100OSM   C10S 9829   0.381   4.235   3.123  0.0919 -0.1024  0.1678
  100OSM   H10S 9830   0.319   4.158   3.073 -2.5369  1.6489  0.5864
  100OSM   H10T 9831   0.342   4.267   3.222 -1.5290 -1.1690 -0.0995
  100OSM   C11S 9832   0.523   4.179   3.148  0.8606 -0.7392 -0.4341
  100OSM   H11S 9833   0.572   4.270   3.189 -0.3366 -0.4267  0.3387
  100OSM   H11T 9834   0.587   4.168   3.058  2.1172  1.7229  0.0697
  100OSM   C12S 9835   0.542   4.073   3.251 -0.5475 -0.1344  0.2335
  100OSM   H12S 9836   0.636   4.021   3.224  0.9235  2.2603  0.5244
  100OSM   H12T 9837   0.456   4.002   3.244 -1.6666  0.9863  1.7942
  100OSM   C13S 9838   0.544   4.131   3.393 -0.2458  0.2014  0.1426
  100OSM   H13S 9839   0.449   4.186   3.411  0.4165  1.1875  0.7395
  100OSM   H13T 9840   0.620   4.212   3.392 -1.6730  1.6076  1.1698
  100OSM   C14S 9841   0.583   4.030   3.507 -0.2593 -0.2857 -1.0898
  100OSM   H14S 9842   0.683   3.985   3.491  0.0205 -0.9851  1.9121
  100OSM   H14T 9843   0.510   3.946   3.519 -0.4359  0.2579  2.8682
  100OSM   C15S 9844   0.599   4.098   3.640 -0.5537 -0.7574 -0.0323
  100OSM   H15S 9845   0.501   4.137   3.676  0.4771  0.5492  1.5403
  100OSM   H15T 9846   0.660   4.190   3.625 -0.1923 -1.0966 -0.6468
  100OSM   C16S 9847   0.660   4.019   3.749  0.5828 -0.0299  0.1439
  100OSM   H16S 9848   0.762   3.985   3.722  0.2270 -1.9534  1.0473
  100OSM   H16T 9849   0.603   3.924   3.752  0.9791 -0.2556  1.7345
  100OSM   C17S 9850   0.659   4.091   3.881  0.2558  0.1929  0.1741
  100OSM   H17S 9851   0.563   4.147   3.884  0.4050  0.5448 -1.0807
  100OSM   H17T 9852   0.733   4.173   3.898  2.2799 -1.5729  0.2974
  100OSM   C18S 9853   0.672   3.989   3.993 -0.1512 -0.3865 -0.3849
  100OSM   H18S 9854   0.778   3.956   3.996 -0.6541 -2.0488  0.0976
  100OSM   H18T 9855   0.615   3.898   3.965 -1.5662  0.6608 -1.0134
  100OSM   H18U 9856   0.628   4.022   4.090 -2.1722 -3.3370 -0.1771
  100OSM    C1F 9857   0.651   4.982   2.603  0.1865  1.1265  0.1166
  100OSM     OF 9858   0.553   5.058   2.622  0.0199 -0.1488  0.4652
  100OSM    C2F 9859   0.780   4.997   2.677 -0.5743  0.1405  0.0236
  100OSM    H2F 9860   0.847   5.042   2.600  0.6082  0.0533  0.9816
  100OSM    H2G 9861   0.810   4.897   2.714 -0.9963 -0.4135 -1.0636
  100OSM    C3F 9862   0.769   5.092   2.796  0.3600  0.3184  0.5810
  100OSM    H3F 9863   0.679   5.064   2.855 -0.6031 -0.5159 -1.1833
  100OSM    H3G 9864   0.739   5.192   2.756 -0.5604  0.8627  2.5117
  100OSM    C4F 9865   0.891   5.108   2.887  0.0764  0.0793  0.0601
  100OSM    H4F 9866   0.979   5.154   2.838 -0.2862  1.3214  0.5331
  100OSM    H4G 9867   0.910   5.002   2.918 -1.3314  0.4937  2.6374
  100OSM    C5F 9868   0.856   5.193   3.009  0.2289  0.4899 -0.0503
  100OSM    H5F 9869   0.775   5.139   3.063  0.7756 -0.6744 -0.3552
  100OSM    H5G 9870   0.817   5.291   2.973 -1.3984 -0.3711 -0.7363
  100OSM    C6F 9871   0.974   5.198   3.107 -0.1592  1.0274 -0.2657
  100OSM    H6F 9872   1.064   5.235   3.055  0.0088  1.3307  0.2290
  100OSM    H6G 9873   0.986   5.098   3.155  0.8333  1.0298 -0.4889
  100OSM    C7F 9874   0.944   5.303   3.217 -0.1560  0.6001 -0.1554
  100OSM    H7F 9875   0.847   5.266   3.256 -0.1198 -1.3402 -1.7775
  100OSM    H7G 9876   0.942   5.406   3.176  0.5160  0.4658 -0.5367
  100OSM    C8F 9877   1.056   5.303   3.328 -0.5223 -0.0289  0.3061
  100OSM    H8F 9878   1.052   5.401   3.381 -0.9184  0.4424 -0.5710
  100OSM    H8G 9879   1.157   5.282   3.288 -1.9133  0.6787 -4.0728
  100OSM    C9F 9880   1.039   5.190   3.427 -0.2730  0.0417  0.3335
  100OSM    H9F 9881   1.098   5.099   3.406 -0.4421  0.5274 -2.7217
  100OSM   C10F 9882   0.951   5.185   3.527 -0.1018 -0.3971 -0.9441
  100OSM   H10F 9883   0.967   5.099   3.593 -1.0654  0.2817  0.2140
  100OSM   C11F 9884   0.864   5.300   3.576 -0.1132  0.3294  0.1565
  100OSM   H11F 9885   0.760   5.279   3.543  1.1958 -4.6998 -1.5729
  100OSM   H11G 9886   0.906   5.399   3.545 -1.0414  0.5768 -0.3451
  100OSM   C12F 9887   0.878   5.303   3.731  0.2219 -0.3995 -0.3683
  100OSM   H12F 9888   0.985   5.315   3.759  0.1673  1.0498 -0.6650
  100OSM   H12G 9889   0.835   5.209   3.772 -3.2710  1.0305 -0.3725
  100OSM   C13F 9890   0.806   5.428   3.790 -0.7298  0.2633  0.2604
  100OSM   H13F 9891   0.695   5.425   3.782 -0.6001 -0.6254 -1.8703
  100OSM   H13G 9892   0.840   5.521   3.738 -0.8346 -1.0349 -2.3013
  100OSM   C14F 9893   0.849   5.439   3.934 -0.2319 -0.1980 -0.4188
  100OSM   H14F 9894   0.878   5.335   3.962 -0.3671 -0.3126 -0.6954
  100OSM   H14G 9895   0.758   5.475   3.987 -0.9317 -1.1537 -0.9219
  100OSM   C15F 9896   0.957   5.538   3.957 -0.0173 -0.1059  0.3551
  100OSM   H15F 9897   0.946   5.642   3.920 -0.6656  0.4287  1.9790
  100OSM   H15G 9898   1.047   5.502   3.902  0.1614  0.3154  0.3658
  100OSM   C16F 9899   0.997   5.542   4.106  0.8117 -0.5195  0.2056
  100OSM   H16F 9900   0.992   5.445   4.161  5.0417 -0.6159  0.7751
  100OSM   H16G 9901   0.920   5.605   4.155  0.2023 -0.6784 -0.5181
  100OSM   C17F 9902   1.143   5.587   4.120  0.1456 -0.2341  0.1737
  100OSM   H17F 9903   1.160   5.679   4.060 -1.7135 -0.6297 -1.0590
  100OSM   H17G 9904   1.214   5.509   4.084  1.0552 -0.1309  1.6561
  100OSM   C18F 9905   1.182   5.614   4.267 -0.1657  0.8674 -0.0900
  100OSM   H18F 9906   1.098   5.670   4.313 -1.4516 -0.8123 -0.3081
  100OSM   H18G 9907   1.271   5.680   4.274  1.7513 -1.5847  0.4706
  100OSM   H18H 9908   1.197   5.517   4.320 -0.8365  0.3996 -0.7463
  101SLPC     N 9909   2.193   6.675   6.973 -0.3672  0.1974 -0.2419
  101SLPC   C13 9910   2.079   6.748   7.030  0.6835  0.6190  0.0378
  101SLPC  H13A 9911   2.101   6.762   7.134 -2.2724 -1.4526  1.0847
  101SLPC  H13B 9912   2.070   6.850   6.996 -1.0765  1.4525  2.7194
  101SLPC  H13C 9913   1.988   6.691   7.024  0.1492  1.3559  0.8927
  101SLPC   C14 9914   2.188   6.533   7.029  0.2794  0.0202 -0.1584
  101SLPC  H14A 9915   2.178   6.531   7.136 -2.0135  0.9711 -0.2979
  101SLPC  H14B 9916   2.093   6.488   7.002  0.8357 -0.4428 -1.3991
  101SLPC  H14C 9917   2.275   6.475   7.002  0.3877 -0.0826  0.4031
  101SLPC   C15 9918   2.317   6.751   7.024 -0.2262 -0.1186  0.3188
  101SLPC  H15A 9919   2.324   6.754   7.132 -0.8099  0.2188  0.3558
  101SLPC  H15B 9920   2.405   6.709   6.979 -1.3388 -2.0482 -0.1705
  101SLPC  H15C 9921   2.304   6.858   7.008 -2.9395 -0.0124  2.4336
  101SLPC   C12 9922   2.191   6.678   6.823 -0.0754 -0.6142 -0.5147
  101SLPC  H12A 9923   2.198   6.781   6.791  0.9024 -0.0201  1.4504
  101SLPC  H12B 9924   2.102   6.644   6.773  0.3175  1.1643 -2.5901
  101SLPC   C11 9925   2.315   6.613   6.757  0.0290 -0.6172 -0.2884
  101SLPC  H11A 9926   2.297   6.589   6.651 -0.0755  1.5278 -0.8038
  101SLPC  H11B 9927   2.334   6.513   6.802  0.5861 -0.5912 -0.4599
  101SLPC     P 9928   2.457   6.817   6.664  0.1035  0.5031 -0.3997
  101SLPC   O13 9929   2.328   6.878   6.615  0.1826  0.5049  0.1387
  101SLPC   O14 9930   2.553   6.905   6.733  0.9170 -0.5775  0.3934
  101SLPC   O12 9931   2.429   6.695   6.769 -1.0778  0.0740 -0.2077
  101SLPC   O11 9932   2.537   6.750   6.550 -0.1897  0.3331  0.3354
  101SLPC    C1 9933   2.491   6.632   6.481  0.5072  0.2660  0.7827
  101SLPC    HA 9934   2.510   6.544   6.546 -1.8373  0.7638  2.2537
  101SLPC    HB 9935   2.384   6.635   6.451  0.8076 -0.6709 -0.4302
  101SLPC    C2 9936   2.546   6.614   6.338 -0.1255  0.0946 -0.6382
  101SLPC    HS 9937   2.487   6.530   6.295  0.5516 -0.4325 -0.5546
  101SLPC   O21 9938   2.684   6.585   6.342 -0.8191 -0.4224  0.2887
  101SLPC   C21 9939   2.723   6.462   6.341  0.4022 -0.0524  0.3540
  101SLPC   O22 9940   2.642   6.364   6.346  0.2212 -0.2386  0.3983
  101SLPC   C22 9941   2.882   6.444   6.338  0.4646  0.2655  0.0019
  101SLPC   H2R 9942   2.934   6.541   6.353  0.9927  0.2752 -1.7122
  101SLPC   H2S 9943   2.897   6.377   6.426 -2.5305  1.2135  1.3825
  101SLPC    C3 9944   2.522   6.746   6.255 -0.7444 -0.4071 -0.2521
  101SLPC    HX 9945   2.559   6.826   6.323 -1.7589 -0.7948  0.7973
  101SLPC    HY 9946   2.415   6.774   6.254 -1.1013 -1.7241 -1.2653
  101SLPC   O31 9947   2.570   6.747   6.115 -0.5651  0.0923 -0.3623
  101SLPC   C31 9948   2.614   6.859   6.067 -0.0386 -0.1623 -0.4740
  101SLPC   O32 9949   2.599   6.969   6.124 -0.3374 -0.1561  0.1204
  101SLPC   C32 9950   2.682   6.841   5.935  0.3190  0.0635  0.2672
  101SLPC   H2X 9951   2.607   6.786   5.874 -0.6188  0.8062  0.7398
  101SLPC   H2Y 9952   2.766   6.768   5.942  1.4575  1.0255 -2.2587
  101SLPC   C23 9953   2.931   6.387   6.207 -0.3025  0.1502  0.1559
  101SLPC   H3R 9954   2.875   6.294   6.184 -0.6129 -0.7862  4.0363
  101SLPC   H3S 9955   3.036   6.358   6.227  0.2745  2.4956  0.8759
  101SLPC   C24 9956   2.924   6.494   6.090  0.4566  0.9730 -0.3931
  101SLPC   H4R 9957   2.976   6.582   6.132 -0.7371  0.7987  1.5989
  101SLPC   H4S 9958   2.815   6.513   6.078 -0.1511 -0.5897  1.8463
  101SLPC   C25 9959   2.982   6.435   5.955  0.4172  0.3941 -0.1138
  101SLPC   H5R 9960   2.929   6.338   5.940 -1.5245  1.5752 -1.2075
  101SLPC   H5S 9961   3.091   6.418   5.969  0.3872  0.0179 -0.3145
  101SLPC   C26 9962   2.943   6.527   5.839 -0.1375  0.3730 -0.2642
  101SLPC   H6R 9963   2.987   6.623   5.874 -1.0847  0.2150  1.4141
  101SLPC   H6S 9964   2.837   6.543   5.812  0.7932  2.1492 -3.4735
  101SLPC   C27 9965   3.007   6.480   5.710  0.1941  0.4170 -0.6296
  101SLPC   H7R 9966   2.957   6.391   5.666 -0.4729  0.1806  0.5391
  101SLPC   H7S 9967   3.110   6.445   5.735  0.6530  1.8588 -0.4126
  101SLPC   C28 9968   3.004   6.593   5.609 -0.1880  1.3799 -0.4186
  101SLPC   H8R 9969   3.082   6.563   5.535 -0.0574  0.5687  0.0392
  101SLPC   H8S 9970   3.043   6.687   5.655 -2.9264  2.1919  0.4308
  101SLPC   C29 9971   2.866   6.621   5.550 -0.3738  0.1367  0.2047
  101SLPC   H9R 9972   2.794   6.668   5.618  1.4459  1.3731  1.3837
  101SLPC  C210 9973   2.830   6.592   5.418 -0.8931  0.8002  0.0581
  101SLPC  H10R 9974   2.731   6.631   5.392 -2.4516 -2.0636  1.2362
  101SLPC  C211 9975   2.912   6.523   5.314 -0.0899 -0.4151  0.0879
  101SLPC  H11R 9976   2.857   6.443   5.260  0.2845  0.8364 -2.2808
  101SLPC  H11S 9977   2.993   6.468   5.367 -0.5646 -0.0634  1.2030
  101SLPC  C212 9978   2.978   6.628   5.229 -0.0694 -0.2548 -0.9648
  101SLPC  H12R 9979   3.058   6.688   5.274  0.7069 -0.9390 -1.4190
  101SLPC  C213 9980   2.945   6.653   5.099 -0.0573 -0.0577  0.1207
  101SLPC  H13R 9981   2.996   6.741   5.056 -1.7801  0.4213 -1.0602
  101SLPC  C214 9982   2.837   6.582   5.018  0.2231 -0.3340 -0.8209
  101SLPC  H14R 9983   2.769   6.531   5.089  0.3025  0.4997 -0.1324
  101SLPC  H14S 9984   2.883   6.502   4.956 -1.1138 -1.3397 -0.5514
  101SLPC  C215 9985   2.766   6.671   4.917  0.6668  0.6330  0.3039
  101SLPC  H15R 9986   2.732   6.755   4.981  3.2446  1.2351  1.0237
  101SLPC  H15S 9987   2.684   6.610   4.874  3.2450 -0.9897 -2.7323
  101SLPC  C216 9988   2.853   6.717   4.795  0.2081 -0.1592  0.6336
  101SLPC  H16R 9989   2.942   6.775   4.827  1.3294  0.0483 -2.5306
  101SLPC  H16S 9990   2.804   6.804   4.745  0.0069 -0.6868 -0.1016
  101SLPC  C217 9991   2.884   6.595   4.696  0.5031  0.0013 -0.6578
  101SLPC  H17R 9992   2.786   6.562   4.657  0.5649 -2.0642  0.7647
  101SLPC  H17S 9993   2.929   6.509   4.751 -2.6995 -0.5533  1.4128
  101SLPC  C218 9994   2.990   6.639   4.604  0.0986 -0.3749  0.6394
  101SLPC  H18R 9995   3.032   6.555   4.545  0.8730  0.5960 -0.2256
  101SLPC  H18S 9996   3.072   6.697   4.650  0.0002  0.0863  0.2400
  101SLPC  H18T 9997   2.944   6.706   4.529 -3.4881 -1.6192  1.5254
  101SLPC   C33 9998   2.739   6.973   5.869 -0.1592  0.2536 -0.2968
  101SLPC   H3X 9999   2.811   7.020   5.939 -0.7824  0.0230  0.5127
  101SLPC   H3Y10000   2.650   7.038   5.858 -0.2134  0.1992 -0.1801
  101SLPC   C3410001   2.803   6.946   5.735 -0.2223 -0.4525  0.0368
  101SLPC   H4X10002   2.728   6.891   5.674 -0.8032 -0.7190  0.9669
  101SLPC   H4Y10003   2.893   6.884   5.755  1.0654  0.5110 -2.3564
  101SLPC   C3510004   2.844   7.075   5.659  0.2684 -0.0379 -0.1340
  101SLPC   H5X10005   2.922   7.126   5.719  1.9550  0.1741 -2.3952
  101SLPC   H5Y10006   2.767   7.151   5.631  0.0680 -0.4350 -0.6633
  101SLPC   C3610007   2.922   7.046   5.530 -0.1317 -0.5404 -0.1938
  101SLPC   H6X10008   3.007   6.978   5.551  1.1003 -0.2427 -3.4961
  101SLPC   H6Y10009   2.975   7.140   5.501 -0.9332  0.7626  2.2910
  101SLPC   C3710010   2.835   6.993   5.413  0.3537 -0.0240  0.5807
  101SLPC   H7X10011   2.740   7.050   5.405  0.1088 -0.2616  1.5977
  101SLPC   H7Y10012   2.804   6.888   5.434  2.7040 -0.4752  2.2580
  101SLPC   C3810013   2.906   7.016   5.276 -0.0117 -0.8813 -0.1547
  101SLPC   H8X10014   2.990   6.945   5.258  0.3421 -0.2997 -0.8342
  101SLPC   H8Y10015   2.955   7.116   5.276 -0.7325 -0.4708  2.3962
  101SLPC   C3910016   2.800   7.006   5.166  0.1719 -0.0614 -0.0404
  101SLPC   H9X10017   2.721   6.931   5.188 -1.0564  1.7342  2.1485
  101SLPC   H9Y10018   2.863   6.973   5.080 -0.5573  0.3649 -0.7471
  101SLPC  C31010019   2.737   7.140   5.142  0.2460  0.4271 -0.5726
  101SLPC  H10X10020   2.815   7.219   5.144 -1.4645  2.2024 -0.2152
  101SLPC  H10Y10021   2.667   7.176   5.221  0.1883  1.0561 -0.8982
  101SLPC  C31110022   2.677   7.136   4.997 -0.1276 -0.0933  0.4080
  101SLPC  H11X10023   2.590   7.067   4.991  1.5986 -2.3966  0.3632
  101SLPC  H11Y10024   2.750   7.071   4.944 -1.4509 -2.4710  1.3851
  101SLPC  C31210025   2.659   7.275   4.938  0.4152  0.2162  0.4309
  101SLPC  H12X10026   2.738   7.346   4.972  0.6304 -0.2499  0.9162
  101SLPC  H12Y10027   2.570   7.325   4.983  0.9959  0.9356  0.8073
  101SLPC  C31310028   2.657   7.271   4.780 -0.4513  0.1239 -0.1564
  101SLPC  H13X10029   2.555   7.233   4.757 -1.2352  1.9515  0.1464
  101SLPC  H13Y10030   2.749   7.212   4.758  0.9533  2.3205 -0.4249
  101SLPC  C31410031   2.654   7.401   4.716  0.1864  0.0942 -0.0229
  101SLPC  H14X10032   2.754   7.449   4.726  0.0779  0.5601 -1.0335
  101SLPC  H14Y10033   2.581   7.461   4.774  0.0563 -1.2683  1.2651
  101SLPC  C31510034   2.627   7.390   4.560  0.7486  0.8628  0.4895
  101SLPC  H15X10035   2.522   7.359   4.546  0.9016  0.6319 -0.1699
  101SLPC  H15Y10036   2.703   7.318   4.522  1.0323  0.7478  1.2395
  101SLPC  C31610037   2.647   7.519   4.486 -0.5890 -0.1591  0.9053
  101SLPC  H16X10038   2.648   7.497   4.377 -1.3879  0.2729  0.8020
  101SLPC  H16Y10039   2.747   7.558   4.515 -0.7402 -1.0319  2.7560
  101SLPC  C31710040   2.542   7.630   4.516  0.2779  0.1888 -0.5202
  101SLPC  H17X10041   2.535   7.629   4.627  0.8532  0.5966 -0.4725
  101SLPC  H17Y10042   2.453   7.586   4.467  1.3499 -1.8907 -0.7518
  101SLPC  C31810043   2.574   7.772   4.462  0.5653 -0.1359 -0.7440
  101SLPC  H18X10044   2.562   7.790   4.353  0.6077  1.5253 -0.5139
  101SLPC  H18Y10045   2.676   7.808   4.487  0.7789 -2.4375  2.2615
  101SLPC  H18Z10046   2.507   7.845   4.515  0.7290  0.5601 -1.4774
  102SLPC     N10047   2.374   1.295   6.961 -0.1118  0.9840  0.5869
  102SLPC   C1310048   2.423   1.156   6.918  0.4256 -0.9283  0.6663
  102SLPC  H13A10049   2.509   1.151   6.852  0.2401  1.5492  0.1344
  102SLPC  H13B10050   2.450   1.100   7.007  0.3063 -1.0372  0.6340
  102SLPC  H13C10051   2.340   1.105   6.872  2.9976 -2.4827 -2.6628
  102SLPC   C1410052   2.474   1.367   7.045 -0.0830 -0.3458  0.2901
  102SLPC  H14A10053   2.573   1.375   7.002 -0.7250 -0.4394 -1.2867
  102SLPC  H14B10054   2.455   1.474   7.043  1.5413 -0.0261 -0.9135
  102SLPC  H14C10055   2.475   1.326   7.144  0.0890 -2.1755 -0.4413
  102SLPC   C1510056   2.248   1.274   7.039  0.4576 -0.1710  0.9138
  102SLPC  H15A10057   2.205   1.369   7.069  0.8149  0.7823 -1.3942
  102SLPC  H15B10058   2.181   1.211   6.982  1.4612 -1.2323  0.8849
  102SLPC  H15C10059   2.270   1.223   7.132  1.5288  1.3621  1.5449
  102SLPC   C1210060   2.344   1.368   6.832 -0.3459 -0.5043  0.1372
  102SLPC  H12A10061   2.358   1.473   6.854 -0.1859 -0.2181 -1.2812
  102SLPC  H12B10062   2.241   1.348   6.806 -1.1273  1.8628  1.1174
  102SLPC   C1110063   2.436   1.346   6.715 -0.0736  0.1724  0.6596
  102SLPC  H11A10064   2.399   1.406   6.628  1.7054 -2.0991 -1.8315
  102SLPC  H11B10065   2.420   1.241   6.683 -0.0141  0.6622 -1.1128
  102SLPC     P10066   2.700   1.300   6.686  0.1415  0.0670 -0.3089
  102SLPC   O1310067   2.823   1.385   6.709  0.6708 -0.0673 -0.2100
  102SLPC   O1410068   2.708   1.162   6.738  1.0193 -0.7033  0.1525
  102SLPC   O1210069   2.573   1.371   6.748 -0.3866  0.9150  0.3377
  102SLPC   O1110070   2.676   1.290   6.529 -0.3049  0.1898 -0.4501
  102SLPC    C110071   2.631   1.392   6.445  0.3302 -0.5651  0.2420
  102SLPC    HA10072   2.575   1.468   6.502  2.1024  0.1309  1.1501
  102SLPC    HB10073   2.716   1.453   6.405 -1.3022  1.3044 -0.5517
  102SLPC    C210074   2.539   1.346   6.324 -0.0580 -0.1573 -0.2391
  102SLPC    HS10075   2.437   1.332   6.366 -0.1161  1.5047  0.2605
  102SLPC   O2110076   2.600   1.225   6.275 -0.1243  0.1399 -0.4653
  102SLPC   C2110077   2.520   1.127   6.237  0.4492  0.2923  0.5326
  102SLPC   O2210078   2.397   1.131   6.242 -0.0019  0.0275 -0.5100
  102SLPC   C2210079   2.597   1.009   6.179  0.2291  0.2138  0.4634
  102SLPC   H2R10080   2.684   0.993   6.247  0.9086  0.7325 -0.2741
  102SLPC   H2S10081   2.532   0.920   6.166 -0.3219  0.9890 -2.7783
  102SLPC    C310082   2.536   1.448   6.207  0.0392  0.4211 -0.6368
  102SLPC    HX10083   2.642   1.460   6.178  0.9756 -2.2227  1.3206
  102SLPC    HY10084   2.519   1.553   6.239  0.4262 -0.2732  2.0502
  102SLPC   O3110085   2.456   1.399   6.100 -0.3016  0.3238 -0.4613
  102SLPC   C3110086   2.330   1.405   6.121 -0.1841  0.1129 -0.0090
  102SLPC   O3210087   2.273   1.457   6.213  0.2688  0.0777  0.4354
  102SLPC   C3210088   2.250   1.322   6.010 -0.7321 -0.7006  0.3000
  102SLPC   H2X10089   2.273   1.214   6.026  1.1368 -0.3647  0.1013
  102SLPC   H2Y10090   2.296   1.338   5.910  1.8561  0.7683  1.6542
  102SLPC   C2310091   2.656   1.041   6.039 -0.8521 -0.0832 -0.4692
  102SLPC   H3R10092   2.733   0.968   6.006  0.4752  0.7972  0.5396
  102SLPC   H3S10093   2.706   1.140   6.051  0.5233 -0.9908  2.0158
  102SLPC   C2410094   2.548   1.035   5.933 -0.0949 -0.1562  0.0843
  102SLPC   H4R10095   2.460   1.098   5.958 -1.0467 -0.6976 -1.6874
  102SLPC   H4S10096   2.515   0.929   5.932 -1.6172  0.2847  0.2366
  102SLPC   C2510097   2.602   1.088   5.799  0.0524 -0.5514 -0.5415
  102SLPC   H5R10098   2.687   1.024   5.765 -0.6031 -1.8774  0.2141
  102SLPC   H5S10099   2.629   1.193   5.821 -0.7810 -0.4457  0.0031
  102SLPC   C2610100   2.482   1.084   5.711 -0.2413 -0.4557  0.6943
  102SLPC   H6R10101   2.401   1.133   5.769  2.0134  0.7132  3.0165
  102SLPC   H6S10102   2.447   0.982   5.685  0.9417 -0.5548 -0.6066
  102SLPC   C2710103   2.509   1.148   5.575 -0.7110 -0.7716  0.6837
  102SLPC   H7R10104   2.568   1.078   5.512 -2.0594 -1.0661 -0.2954
  102SLPC   H7S10105   2.567   1.242   5.584  1.4174 -1.9671  0.3353
  102SLPC   C2810106   2.374   1.188   5.502  0.2831  0.0329 -0.1095
  102SLPC   H8R10107   2.329   1.273   5.558 -1.7219 -1.2927  0.4226
  102SLPC   H8S10108   2.307   1.102   5.523  0.9784 -0.2598  1.0606
  102SLPC   C2910109   2.396   1.228   5.357  0.3218  0.3309 -0.2022
  102SLPC   H9R10110   2.470   1.304   5.330 -0.0995  0.2665 -1.6213
  102SLPC  C21010111   2.328   1.179   5.249  0.0359 -0.1156 -0.1570
  102SLPC  H10R10112   2.342   1.207   5.144 -0.9367 -0.8765 -0.5019
  102SLPC  C21110113   2.212   1.077   5.248 -0.1147 -0.2050 -0.1391
  102SLPC  H11R10114   2.199   1.031   5.348 -2.7639 -1.8464 -1.1543
  102SLPC  H11S10115   2.241   1.003   5.171  0.1153  0.2123 -0.4614
  102SLPC  C21210116   2.098   1.166   5.227  0.1852 -0.2858 -0.0595
  102SLPC  H12R10117   2.078   1.243   5.303 -1.0152 -0.5266 -0.1187
  102SLPC  C21310118   2.024   1.165   5.115 -0.8852 -0.4530 -0.4877
  102SLPC  H13R10119   1.950   1.245   5.102 -0.9066 -0.3924  0.0016
  102SLPC  C21410120   2.029   1.057   5.005 -0.2692 -0.1132 -0.3650
  102SLPC  H14R10121   1.931   1.029   4.961 -1.4180  0.4743  1.6882
  102SLPC  H14S10122   2.071   0.963   5.048  0.9909  0.8113  0.4904
  102SLPC  C21510123   2.123   1.099   4.893  0.4145 -0.1543 -0.5886
  102SLPC  H15R10124   2.128   1.015   4.821  1.1983  0.0981 -0.8427
  102SLPC  H15S10125   2.224   1.123   4.933  0.0861  1.2915 -0.5715
  102SLPC  C21610126   2.063   1.217   4.819 -0.3544 -0.1761  0.1926
  102SLPC  H16R10127   2.083   1.316   4.866  1.4852 -1.1179  1.4826
  102SLPC  H16S10128   1.954   1.210   4.800  0.0108 -2.5510 -1.3938
  102SLPC  C21710129   2.146   1.232   4.688  0.3509 -0.3712  0.0559
  102SLPC  H17R10130   2.147   1.131   4.642  1.7117 -0.1263 -0.4857
  102SLPC  H17S10131   2.250   1.258   4.715 -0.0906  1.1248  0.4196
  102SLPC  C21810132   2.079   1.334   4.594  0.0032  0.3119  0.5620
  102SLPC  H18R10133   2.118   1.313   4.492  2.0361 -0.9952  1.5433
  102SLPC  H18S10134   2.109   1.439   4.617  3.3901 -0.5236  0.5415
  102SLPC  H18T10135   1.969   1.320   4.590  0.0742 -1.5337  2.8392
  102SLPC   C3310136   2.103   1.355   6.001  0.0265 -0.0499  0.0146
  102SLPC   H3X10137   2.098   1.448   5.940  0.6316 -0.7595 -1.1616
  102SLPC   H3Y10138   2.053   1.357   6.100 -0.6056 -1.3679 -0.2565
  102SLPC   C3410139   2.037   1.236   5.921  0.0997 -0.6125 -0.2740
  102SLPC   H4X10140   1.929   1.233   5.946 -1.0839  2.8263 -3.8989
  102SLPC   H4Y10141   2.074   1.139   5.962  0.3874 -0.5827 -0.4617
  102SLPC   C3510142   2.051   1.239   5.765  0.6337 -0.0713 -0.3353
  102SLPC   H5X10143   2.000   1.148   5.727 -4.0627  1.0472  2.3836
  102SLPC   H5Y10144   2.157   1.232   5.733  1.4527  1.1879  1.8741
  102SLPC   C3610145   1.974   1.354   5.705  0.2914 -0.0180  0.4615
  102SLPC   H6X10146   1.997   1.457   5.741  1.3925 -0.0125 -0.2028
  102SLPC   H6Y10147   1.865   1.341   5.721  0.2079 -0.8974 -0.6971
  102SLPC   C3710148   1.995   1.355   5.553  0.5593  0.2822 -0.2742
  102SLPC   H7X10149   1.955   1.259   5.514 -0.0595  0.8892 -1.1623
  102SLPC   H7Y10150   2.100   1.359   5.517  0.9997  0.0499  0.9316
  102SLPC   C3810151   1.914   1.471   5.493  0.0103 -0.1333  0.2357
  102SLPC   H8X10152   1.954   1.564   5.540 -1.1753 -0.1345  1.2892
  102SLPC   H8Y10153   1.813   1.451   5.534  0.5948  1.5711  2.6957
  102SLPC   C3910154   1.906   1.462   5.343  0.1177 -0.0247  0.6330
  102SLPC   H9X10155   1.884   1.358   5.314 -0.0068 -0.0492  0.8115
  102SLPC   H9Y10156   2.000   1.500   5.298 -1.5597  1.2092 -2.0744
  102SLPC  C31010157   1.791   1.548   5.289 -0.6564 -0.2440  0.2070
  102SLPC  H10X10158   1.798   1.653   5.323  0.4846  0.2509 -1.4790
  102SLPC  H10Y10159   1.697   1.510   5.336 -0.4075 -0.4767  0.5247
  102SLPC  C31110160   1.758   1.532   5.145 -0.7423 -0.5400  0.2206
  102SLPC  H11X10161   1.678   1.607   5.129 -0.4302 -0.1482  0.4841
  102SLPC  H11Y10162   1.718   1.431   5.120  0.9032 -1.5085  1.2659
  102SLPC  C31210163   1.881   1.566   5.052 -0.1713 -0.0624  0.9100
  102SLPC  H12X10164   1.949   1.479   5.061  0.5228  0.5013  1.2381
  102SLPC  H12Y10165   1.936   1.655   5.091 -1.7272  3.9384 -4.6733
  102SLPC  C31310166   1.836   1.619   4.910 -0.5053  0.7046 -0.5580
  102SLPC  H13X10167   1.922   1.651   4.849  0.7468 -1.5382 -0.0927
  102SLPC  H13Y10168   1.761   1.699   4.929 -1.6055 -0.6587  1.2179
  102SLPC  C31410169   1.779   1.509   4.817 -0.1305 -0.4818  0.1949
  102SLPC  H14X10170   1.724   1.432   4.876  2.5467 -2.1142  0.7362
  102SLPC  H14Y10171   1.857   1.466   4.750 -0.8766  1.2401 -1.8948
  102SLPC  C31510172   1.673   1.569   4.722  0.1151  0.9199 -0.0941
  102SLPC  H15X10173   1.600   1.624   4.786 -1.5879 -1.2517 -0.0337
  102SLPC  H15Y10174   1.615   1.499   4.658  2.6037 -0.6799 -0.6918
  102SLPC  C31610175   1.735   1.664   4.614  0.4206 -0.2449  0.5517
  102SLPC  H16X10176   1.782   1.599   4.537  1.5694  1.5002 -0.2739
  102SLPC  H16Y10177   1.811   1.727   4.664  1.3753  0.0602 -1.2065
  102SLPC  C31710178   1.627   1.749   4.540  0.0840 -0.3267  0.2495
  102SLPC  H17X10179   1.563   1.686   4.475  1.0883 -0.1600 -0.9283
  102SLPC  H17Y10180   1.686   1.818   4.475  1.4869 -0.0597  1.7277
  102SLPC  C31810181   1.534   1.837   4.626  0.4611 -0.0908 -0.0450
  102SLPC  H18X10182   1.590   1.915   4.682  0.9870  0.0312 -0.7382
  102SLPC  H18Y10183   1.477   1.781   4.705 -2.7386  2.1402 -0.5755
  102SLPC  H18Z10184   1.456   1.893   4.572  0.2639  0.4322  0.7594
  103SLPC     N10185   1.358   0.342   6.818 -0.2133  0.1530 -0.1363
  103SLPC   C1310186   1.258   0.271   6.912  0.4974  0.2707 -0.6736
  103SLPC  H13A10187   1.164   0.324   6.922  1.6121  1.9967  1.6782
  103SLPC  H13B10188   1.243   0.172   6.872  0.0739  0.5362 -1.1919
  103SLPC  H13C10189   1.299   0.262   7.011  2.7602  0.3140 -1.5419
  103SLPC   C1410190   1.364   0.484   6.861  0.2990 -0.1589  0.2345
  103SLPC  H14A10191   1.269   0.533   6.847  0.3218 -0.0608  0.4170
  103SLPC  H14B10192   1.401   0.503   6.961  3.4110 -0.4949 -0.7369
  103SLPC  H14C10193   1.444   0.530   6.803  2.1419 -1.5482  1.5562
  103SLPC   C1510194   1.302   0.338   6.682 -0.4197 -0.4877  0.7621
  103SLPC  H15A10195   1.291   0.233   6.658  0.0467 -0.5327  0.7445
  103SLPC  H15B10196   1.200   0.374   6.680  0.8635  3.6409 -0.4925
  103SLPC  H15C10197   1.363   0.380   6.604  0.3308  1.0224  2.1045
  103SLPC   C1210198   1.496   0.290   6.831  0.1085 -0.3776  0.7376
  103SLPC  H12A10199   1.531   0.288   6.933  2.3128 -1.0622  0.0287
  103SLPC  H12B10200   1.567   0.355   6.783  0.6579 -0.4434  1.4479
  103SLPC   C1110201   1.514   0.152   6.776 -0.3477  0.6820 -0.5305
  103SLPC  H11A10202   1.437   0.087   6.821 -0.5307  1.9390  1.0642
  103SLPC  H11B10203   1.605   0.111   6.824 -1.8379 -0.1480  1.7141
  103SLPC     P10204   1.639   0.201   6.550  0.1361 -0.1725  0.3953
  103SLPC   O1310205   1.682   0.333   6.599  0.5251 -0.5590 -0.7815
  103SLPC   O1410206   1.752   0.099   6.541  0.2238 -0.0308  0.4330
  103SLPC   O1210207   1.514   0.149   6.631  0.1519  0.1386 -0.2704
  103SLPC   O1110208   1.584   0.214   6.402 -0.0732 -0.4963 -0.5583
  103SLPC    C110209   1.462   0.146   6.359  0.0664 -0.5904 -0.2294
  103SLPC    HA10210   1.474   0.038   6.383  1.9332 -0.6488 -1.2302
  103SLPC    HB10211   1.372   0.194   6.404  0.5948 -0.6196  0.8907
  103SLPC    C210212   1.442   0.162   6.204  0.8647 -0.6363  0.3967
  103SLPC    HS10213   1.359   0.102   6.161  0.0624  2.2619 -2.5133
  103SLPC   O2110214   1.563   0.130   6.135  0.0168 -0.1709 -0.2245
  103SLPC   C2110215   1.582  -0.004   6.127 -0.1706 -1.0118 -0.3072
  103SLPC   O2210216   1.515  -0.093   6.177 -0.1755  0.6747 -0.1665
  103SLPC   C2210217   1.723  -0.027   6.069  1.2827  0.0966 -0.4435
  103SLPC   H2R10218   1.777   0.070   6.074 -0.4688  1.1831 -1.5501
  103SLPC   H2S10219   1.767  -0.102   6.137  1.3718  0.3771 -0.1902
  103SLPC    C310220   1.391   0.311   6.169 -0.9946  0.2412  0.5647
  103SLPC    HX10221   1.473   0.370   6.214 -0.6217 -0.3580  0.6711
  103SLPC    HY10222   1.310   0.320   6.244  0.7224 -1.8195  2.7971
  103SLPC   O3110223   1.342   0.336   6.033  0.4065 -0.1996 -0.0864
  103SLPC   C3110224   1.449   0.374   5.958 -1.2019 -0.4114  0.0564
  103SLPC   O3210225   1.567   0.368   5.995  0.5708  0.0633 -0.3383
  103SLPC   C3210226   1.399   0.427   5.819 -0.3850 -0.0617 -0.5230
  103SLPC   H2X10227   1.465   0.515   5.811 -0.6421  0.4818  2.1366
  103SLPC   H2Y10228   1.292   0.457   5.826 -0.1011  1.0675 -0.8595
  103SLPC   C2310229   1.714  -0.077   5.922 -0.2787  0.4212  0.7816
  103SLPC   H3R10230   1.624  -0.139   5.902 -0.7926  0.8134  1.8258
  103SLPC   H3S10231   1.804  -0.135   5.891 -1.0183 -1.3070  1.6738
  103SLPC   C2410232   1.721   0.040   5.829  0.1933  0.5438  0.0951
  103SLPC   H4R10233   1.798   0.107   5.872 -1.3356  1.7050  1.1213
  103SLPC   H4S10234   1.625   0.094   5.818 -0.7857 -0.9556  0.9550
  103SLPC   C2510235   1.747  -0.000   5.685 -0.0561 -0.2854  1.1067
  103SLPC   H5R10236   1.665  -0.064   5.646  0.7608 -0.5876 -0.1925
  103SLPC   H5S10237   1.843  -0.056   5.677 -1.1969 -2.0855 -1.0851
  103SLPC   C2610238   1.765   0.115   5.580 -0.7380 -0.1271  1.1515
  103SLPC   H6R10239   1.838   0.192   5.613 -0.8274  1.0966 -1.2119
  103SLPC   H6S10240   1.662   0.157   5.574  0.5972  3.4822  1.1597
  103SLPC   C2710241   1.819   0.067   5.438 -0.4277  0.0843  0.3579
  103SLPC   H7R10242   1.911   0.006   5.444 -0.1279  0.3881 -0.8975
  103SLPC   H7S10243   1.840   0.160   5.381  0.4614 -0.6825 -0.6019
  103SLPC   C2810244   1.702  -0.001   5.363 -0.2574 -0.4433 -0.5886
  103SLPC   H8R10245   1.630   0.078   5.332 -0.3911  0.1681  1.1666
  103SLPC   H8S10246   1.639  -0.058   5.435  0.9305 -0.6730  0.3069
  103SLPC   C2910247   1.736  -0.086   5.243  0.3891  0.6095  0.2845
  103SLPC   H9R10248   1.696  -0.188   5.251 -3.8444  2.1193  0.9880
  103SLPC  C21010249   1.801  -0.050   5.134  0.0546  0.1013  0.8795
  103SLPC  H10R10250   1.829  -0.129   5.063  0.0943  2.0753 -1.4399
  103SLPC  C21110251   1.846   0.091   5.094  0.3921 -0.6875  0.6020
  103SLPC  H11R10252   1.890   0.149   5.179  0.2640 -1.9460  1.5628
  103SLPC  H11S10253   1.751   0.133   5.056 -0.4211 -2.8302  0.1331
  103SLPC  C21210254   1.946   0.084   4.979 -1.1024  0.2128  0.0204
  103SLPC  H12R10255   2.041   0.036   5.005 -2.7213 -1.4805  3.4581
  103SLPC  C21310256   1.947   0.133   4.857  0.1164 -0.5249  0.4620
  103SLPC  H13R10257   2.030   0.118   4.786 -0.2147  1.9052 -0.5238
  103SLPC  C21410258   1.835   0.210   4.792  0.6889 -0.2175  0.2850
  103SLPC  H14R10259   1.859   0.318   4.789  0.4559 -0.1697 -0.0189
  103SLPC  H14S10260   1.742   0.195   4.851 -0.5255 -0.1397 -1.5210
  103SLPC  C21510261   1.814   0.150   4.647 -0.2965  0.7412 -0.9564
  103SLPC  H15R10262   1.715   0.190   4.618 -0.2213  1.5298 -0.1651
  103SLPC  H15S10263   1.814   0.039   4.658  0.2388  0.6884 -1.4233
  103SLPC  C21610264   1.919   0.176   4.546 -0.3015  0.2542  0.1163
  103SLPC  H16R10265   2.021   0.172   4.590 -0.5656  0.1033  0.7248
  103SLPC  H16S10266   1.913   0.278   4.502  0.7347  0.3150  0.0823
  103SLPC  C21710267   1.916   0.069   4.433  0.6006  0.0812 -0.1887
  103SLPC  H17R10268   1.816   0.081   4.386  0.5618 -2.3788 -0.8836
  103SLPC  H17S10269   1.914  -0.034   4.476  2.0503 -0.2702 -0.9062
  103SLPC  C21810270   2.032   0.079   4.339 -0.2962 -0.8853 -0.4739
  103SLPC  H18R10271   2.053  -0.010   4.276  3.6118 -0.6020  0.2351
  103SLPC  H18S10272   2.122   0.106   4.397 -0.0325 -0.8064 -0.9156
  103SLPC  H18T10273   2.014   0.164   4.270 -0.6700 -0.0827  0.5840
  103SLPC   C3310274   1.421   0.319   5.709  0.1415  0.0906 -0.0210
  103SLPC   H3X10275   1.343   0.241   5.723  0.5742 -0.2899  0.2877
  103SLPC   H3Y10276   1.523   0.275   5.702  0.2790  0.2854  0.7010
  103SLPC   C3410277   1.406   0.381   5.565 -0.7662 -0.3394  0.6843
  103SLPC   H4X10278   1.486   0.456   5.547 -0.9240 -0.3976 -0.3207
  103SLPC   H4Y10279   1.310   0.438   5.566 -1.1011 -0.8579 -0.0478
  103SLPC   C3510280   1.413   0.283   5.449 -0.2709 -0.1587  0.4649
  103SLPC   H5X10281   1.346   0.197   5.467  0.7512 -0.4605  3.4746
  103SLPC   H5Y10282   1.514   0.237   5.438  0.8440  2.1537  0.3023
  103SLPC   C3610283   1.396   0.344   5.314  0.8108 -0.6748  0.2821
  103SLPC   H6X10284   1.484   0.408   5.290 -0.5840  0.8812 -0.9473
  103SLPC   H6Y10285   1.305   0.407   5.303  2.5462  1.9770  0.1343
  103SLPC   C3710286   1.400   0.232   5.202 -0.1259 -0.4261 -0.0095
  103SLPC   H7X10287   1.316   0.163   5.225 -0.2729 -0.1795  0.2104
  103SLPC   H7Y10288   1.496   0.177   5.209  0.5563  0.5015 -1.5597
  103SLPC   C3810289   1.396   0.276   5.052  0.5429  0.7770 -0.3827
  103SLPC   H8X10290   1.298   0.317   5.019 -0.1632 -1.5784 -1.4791
  103SLPC   H8Y10291   1.401   0.181   4.993 -0.0209 -0.5675  1.6166
  103SLPC   C3910292   1.500   0.381   5.009  0.1460  0.6443 -0.5427
  103SLPC   H9X10293   1.598   0.340   5.042 -0.6384 -1.0278 -0.1452
  103SLPC   H9Y10294   1.469   0.478   5.053  0.6337 -0.1228  1.6396
  103SLPC  C31010295   1.491   0.397   4.856  0.7225  0.3727  0.4750
  103SLPC  H10X10296   1.385   0.421   4.832 -0.3939 -1.0668  3.4225
  103SLPC  H10Y10297   1.491   0.289   4.828 -0.4582  0.6276 -0.6042
  103SLPC  C31110298   1.591   0.501   4.800 -0.9172  0.8316  0.8270
  103SLPC  H11X10299   1.688   0.462   4.838 -1.3559  1.0702  2.2257
  103SLPC  H11Y10300   1.561   0.605   4.825  0.9321  2.7477 -3.7827
  103SLPC  C31210301   1.588   0.484   4.646 -0.4122 -0.1634  0.4982
  103SLPC  H12X10302   1.480   0.479   4.621 -0.8322  2.3676  1.5103
  103SLPC  H12Y10303   1.631   0.384   4.624  1.1551  1.2238 -3.6624
  103SLPC  C31310304   1.651   0.595   4.560  0.1525  0.0814 -0.2737
  103SLPC  H13X10305   1.752   0.629   4.592  0.5915 -0.3305 -1.2038
  103SLPC  H13Y10306   1.597   0.691   4.577 -0.5075 -0.4495  0.7291
  103SLPC  C31410307   1.644   0.552   4.417  1.0705  0.3598 -0.3367
  103SLPC  H14X10308   1.545   0.548   4.367  1.6736  1.3239 -1.6854
  103SLPC  H14Y10309   1.702   0.458   4.402  2.6756  0.8130  2.3382
  103SLPC  C31510310   1.720   0.652   4.330 -0.2876  0.5507  0.4878
  103SLPC  H15X10311   1.823   0.670   4.367  1.2760 -0.2653 -3.0381
  103SLPC  H15Y10312   1.661   0.746   4.334 -2.3327 -0.6324 -0.4528
  103SLPC  C31610313   1.731   0.612   4.182 -0.2668  0.0747 -0.3211
  103SLPC  H16X10314   1.634   0.630   4.130 -0.1060 -1.6507 -1.3068
  103SLPC  H16Y10315   1.754   0.505   4.165 -0.8428  0.2375 -2.5655
  103SLPC  C31710316   1.827   0.694   4.088  0.4040  0.2969 -0.6343
  103SLPC  H17X10317   1.933   0.693   4.124  0.5996 -0.0232 -1.2124
  103SLPC  H17Y10318   1.798   0.801   4.093  0.2122  0.5380 -4.1976
  103SLPC  C31810319   1.809   0.644   3.944 -0.0236  0.8282  0.0714
  103SLPC  H18X10320   1.862   0.708   3.870  1.7203 -1.2447 -0.5682
  103SLPC  H18Y10321   1.704   0.641   3.909 -0.1863 -1.8718  0.6142
  103SLPC  H18Z10322   1.851   0.542   3.937 -0.3543  0.7506 -0.9655
  104SLPC     N10323   3.159   5.314   6.653 -0.0755  0.0841 -0.1123
  104SLPC   C1310324   3.014   5.316   6.620  0.1568  0.0518  0.1451
  104SLPC  H13A10325   2.983   5.418   6.600 -2.4986 -0.7342 -0.1630
  104SLPC  H13B10326   2.990   5.255   6.535 -0.2332 -0.9744  0.9665
  104SLPC  H13C10327   2.958   5.281   6.706 -0.3291  0.4195 -0.0151
  104SLPC   C1410328   3.195   5.181   6.707  0.0647  0.3518 -0.9436
  104SLPC  H14A10329   3.293   5.196   6.749 -1.0629  1.7755  1.3953
  104SLPC  H14B10330   3.129   5.149   6.787  1.1113  0.7133  0.0964
  104SLPC  H14C10331   3.204   5.106   6.631 -3.4157 -1.7660  0.4643
  104SLPC   C1510332   3.184   5.408   6.764 -0.3947 -0.7868  0.2309
  104SLPC  H15A10333   3.288   5.436   6.777 -0.4285 -0.7129  0.3475
  104SLPC  H15B10334   3.137   5.502   6.738  1.6496  0.2612  0.1351
  104SLPC  H15C10335   3.140   5.378   6.858 -0.1315  1.9967  1.3518
  104SLPC   C1210336   3.254   5.356   6.540 -0.2076 -0.5589 -0.1683
  104SLPC  H12A10337   3.359   5.351   6.565  0.4389  1.5620 -2.0733
  104SLPC  H12B10338   3.248   5.462   6.519 -1.4870 -0.8749 -1.5055
  104SLPC   C1110339   3.242   5.267   6.417 -0.8453 -0.0422  0.1668
  104SLPC  H11A10340   3.286   5.319   6.329 -0.4884 -0.2005  0.2473
  104SLPC  H11B10341   3.138   5.247   6.385 -1.1987 -0.7518  1.6638
  104SLPC     P10342   3.459   5.115   6.443 -0.0568  0.0995  0.0709
  104SLPC   O1310343   3.526   5.219   6.522 -0.4545  0.3034  0.2366
  104SLPC   O1410344   3.480   4.978   6.491  0.3590  0.3511  0.4887
  104SLPC   O1210345   3.303   5.131   6.431 -0.2039 -0.2168  0.1078
  104SLPC   O1110346   3.504   5.117   6.287  0.3062 -0.0244 -0.3962
  104SLPC    C110347   3.409   5.111   6.182 -0.4779 -0.1775  0.1785
  104SLPC    HA10348   3.331   5.035   6.205 -0.8169  0.0735 -0.1204
  104SLPC    HB10349   3.356   5.208   6.169 -0.4114 -0.0170  1.0387
  104SLPC    C210350   3.472   5.077   6.042  0.5602  0.1564  0.2983
  104SLPC    HS10351   3.395   5.060   5.964  1.4734  0.4201 -0.6789
  104SLPC   O2110352   3.568   4.961   6.062  0.2092  0.0716  0.1517
  104SLPC   C2110353   3.533   4.850   6.003 -0.2720 -0.2425  0.1809
  104SLPC   O2210354   3.429   4.837   5.941 -0.0177  0.2067 -0.1445
  104SLPC   C2210355   3.651   4.748   6.008  0.0877  0.7579 -0.1750
  104SLPC   H2R10356   3.696   4.770   6.107 -0.6864 -1.6342  0.7884
  104SLPC   H2S10357   3.601   4.649   6.019  0.4765  0.4977 -0.6757
  104SLPC    C310358   3.548   5.201   6.002  0.3325  0.0473  0.1999
  104SLPC    HX10359   3.610   5.249   6.081 -0.7788 -1.5163  2.1071
  104SLPC    HY10360   3.485   5.284   5.964  2.1662  1.1399 -0.5918
  104SLPC   O3110361   3.648   5.158   5.908  0.0645 -0.4283 -0.1747
  104SLPC   C3110362   3.613   5.168   5.783  0.1375  0.1643 -0.4151
  104SLPC   O3210363   3.502   5.197   5.741 -0.0608  0.3574  0.3444
  104SLPC   C3210364   3.740   5.142   5.697 -0.0278  0.2005 -1.0284
  104SLPC   H2X10365   3.774   5.038   5.715 -1.5038 -0.1767 -0.2024
  104SLPC   H2Y10366   3.814   5.216   5.735  0.5948 -1.2252  0.6770
  104SLPC   C2310367   3.747   4.745   5.892  0.4978  0.1168 -0.0795
  104SLPC   H3R10368   3.812   4.655   5.897  0.1724 -0.0550  3.1807
  104SLPC   H3S10369   3.811   4.835   5.886  4.1528 -2.2937 -0.7913
  104SLPC   C2410370   3.680   4.733   5.761 -0.7244 -0.9126 -0.0277
  104SLPC   H4R10371   3.743   4.763   5.675 -0.5374 -1.5176 -0.1093
  104SLPC   H4S10372   3.593   4.802   5.769  0.9596  1.3073 -0.1766
  104SLPC   C2510373   3.620   4.589   5.738 -0.3775 -0.1969  0.2172
  104SLPC   H5R10374   3.578   4.553   5.835  2.4278  0.3784  1.7436
  104SLPC   H5S10375   3.701   4.517   5.717 -0.3154 -0.5212  1.4606
  104SLPC   C2610376   3.524   4.585   5.621  0.5869  0.5109  0.0066
  104SLPC   H6R10377   3.490   4.688   5.596 -1.5374  0.6334  2.8314
  104SLPC   H6S10378   3.434   4.522   5.638  0.9500 -0.3142 -1.0005
  104SLPC   C2710379   3.603   4.530   5.503 -0.1872  0.5027  1.3284
  104SLPC   H7R10380   3.625   4.422   5.510 -0.6434  0.3815  0.9102
  104SLPC   H7S10381   3.700   4.585   5.494  0.9142 -0.9992  3.2751
  104SLPC   C2810382   3.519   4.563   5.373  0.8302  0.7364  0.0290
  104SLPC   H8R10383   3.575   4.535   5.281  0.2538 -0.7907  0.1091
  104SLPC   H8S10384   3.499   4.672   5.379 -0.6818  0.4398  0.9213
  104SLPC   C2910385   3.384   4.490   5.360 -0.6733  0.3995 -0.5479
  104SLPC   H9R10386   3.339   4.448   5.451 -1.1715 -0.7199 -1.2774
  104SLPC  C21010387   3.308   4.470   5.247 -0.6334  0.2992  0.1934
  104SLPC  H10R10388   3.208   4.426   5.251 -0.4629 -0.2007 -0.7125
  104SLPC  C21110389   3.361   4.494   5.103 -0.2047 -0.2131 -0.2068
  104SLPC  H11R10390   3.427   4.579   5.129 -0.8492 -0.1441  1.2705
  104SLPC  H11S10391   3.281   4.526   5.032 -0.2220 -2.0124 -1.0562
  104SLPC  C21210392   3.449   4.389   5.031 -0.1146 -0.1490  0.1665
  104SLPC  H12R10393   3.515   4.332   5.098  2.0273  2.1881  0.1907
  104SLPC  C21310394   3.455   4.362   4.900  0.1882 -0.6570  0.2493
  104SLPC  H13R10395   3.515   4.278   4.864 -2.2898 -1.7393 -1.6699
  104SLPC  C21410396   3.378   4.433   4.788  0.2743  0.1997 -0.0221
  104SLPC  H14R10397   3.444   4.442   4.699 -0.2292  1.5477 -0.2733
  104SLPC  H14S10398   3.354   4.538   4.812 -1.0731 -0.2093  0.4766
  104SLPC  C21510399   3.244   4.371   4.745  0.0755  0.0620 -0.0798
  104SLPC  H15R10400   3.165   4.406   4.815  1.6258  2.4708  0.5927
  104SLPC  H15S10401   3.256   4.261   4.747 -1.1260 -0.0889  2.5930
  104SLPC  C21610402   3.190   4.411   4.604 -0.3832  0.0942  0.1222
  104SLPC  H16R10403   3.173   4.521   4.605  1.4352  0.4179 -0.6494
  104SLPC  H16S10404   3.083   4.385   4.595 -0.8795  1.5718  1.3014
  104SLPC  C21710405   3.269   4.362   4.489 -0.0493  0.1826 -0.2674
  104SLPC  H17R10406   3.273   4.251   4.498 -1.0108  0.2718  1.7116
  104SLPC  H17S10407   3.373   4.399   4.490 -0.3880  1.2169 -1.1359
  104SLPC  C21810408   3.217   4.408   4.353  0.3139 -0.1348  0.6923
  104SLPC  H18R10409   3.261   4.349   4.269 -2.0482 -1.4458  0.2817
  104SLPC  H18S10410   3.245   4.515   4.347  0.2507 -0.1204  0.6436
  104SLPC  H18T10411   3.107   4.397   4.339  0.3838  0.6719 -0.6450
  104SLPC   C3310412   3.714   5.173   5.548 -0.4018 -0.1982  0.5805
  104SLPC   H3X10413   3.818   5.156   5.515 -0.7164 -4.3526  1.1537
  104SLPC   H3Y10414   3.680   5.278   5.539 -0.6916 -0.3908 -0.7280
  104SLPC   C3410415   3.624   5.072   5.480 -0.3482  0.2533  0.4315
  104SLPC   H4X10416   3.516   5.073   5.505 -1.2678 -1.7093 -2.8926
  104SLPC   H4Y10417   3.646   4.967   5.510 -1.0030 -0.0417 -0.0976
  104SLPC   C3510418   3.640   5.089   5.333  0.4644  0.3956 -0.8937
  104SLPC   H5X10419   3.745   5.063   5.309  1.3576  1.0551  1.9789
  104SLPC   H5Y10420   3.610   5.191   5.301 -0.9933  0.9929  2.0194
  104SLPC   C3610421   3.558   4.976   5.267 -0.3216 -0.7115  0.1130
  104SLPC   H6X10422   3.452   4.988   5.299 -0.3384  2.9503 -0.8290
  104SLPC   H6Y10423   3.591   4.875   5.300 -1.2257 -1.8185 -2.1234
  104SLPC   C3710424   3.574   4.976   5.115  0.4731  0.2694  0.0141
  104SLPC   H7X10425   3.528   4.879   5.085  0.8110  1.0176 -3.3911
  104SLPC   H7Y10426   3.681   4.974   5.085  0.4993  1.0824  0.0188
  104SLPC   C3810427   3.496   5.083   5.040 -0.3226 -0.8544  0.6927
  104SLPC   H8X10428   3.536   5.179   5.080 -1.1730 -0.7312  1.2832
  104SLPC   H8Y10429   3.387   5.074   5.061 -1.0970  4.0247 -0.0329
  104SLPC   C3910430   3.511   5.069   4.887  0.6946 -0.3644  0.1390
  104SLPC   H9X10431   3.476   4.966   4.863 -1.0308  0.2412 -0.1188
  104SLPC   H9Y10432   3.618   5.068   4.858  0.5935 -0.7603 -0.2410
  104SLPC  C31010433   3.439   5.175   4.810  0.6514 -0.9307  0.6359
  104SLPC  H10X10434   3.505   5.265   4.811 -1.4135  0.7220  3.0910
  104SLPC  H10Y10435   3.347   5.207   4.863  0.2010 -0.1612 -0.5566
  104SLPC  C31110436   3.403   5.129   4.665  1.0084 -1.2524 -0.5210
  104SLPC  H11X10437   3.327   5.048   4.673 -0.9804  0.5497 -0.3811
  104SLPC  H11Y10438   3.496   5.091   4.618  1.4378  1.0841 -1.7219
  104SLPC  C31210439   3.358   5.239   4.567  0.1774  0.2303 -0.4852
  104SLPC  H12X10440   3.260   5.277   4.602  0.6631  0.8238  0.2561
  104SLPC  H12Y10441   3.337   5.185   4.472 -1.0356  0.6824 -0.4954
  104SLPC  C31310442   3.456   5.355   4.550 -0.1534 -0.2050  0.3034
  104SLPC  H13X10443   3.558   5.322   4.525  0.0958  1.0450 -0.4218
  104SLPC  H13Y10444   3.449   5.430   4.632 -0.5242  2.3329 -1.9165
  104SLPC  C31410445   3.398   5.433   4.433  0.3157  0.2187  0.0581
  104SLPC  H14X10446   3.287   5.434   4.441  0.3886 -1.7052  2.6091
  104SLPC  H14Y10447   3.413   5.376   4.339 -3.9253 -4.3922  1.7947
  104SLPC  C31510448   3.454   5.583   4.444 -0.6645 -0.5445  0.6046
  104SLPC  H15X10449   3.420   5.619   4.543 -1.5875  1.5024 -0.3883
  104SLPC  H15Y10450   3.407   5.646   4.365  0.2845 -1.6868 -0.9282
  104SLPC  C31610451   3.612   5.600   4.423  0.3647  0.6465  0.0786
  104SLPC  H16X10452   3.634   5.579   4.316 -1.1313  0.2512 -0.1842
  104SLPC  H16Y10453   3.642   5.516   4.488 -1.5216  0.3073  0.5926
  104SLPC  C31710454   3.655   5.736   4.468  0.1040 -0.4156 -0.1291
  104SLPC  H17X10455   3.626   5.816   4.396 -0.2548 -1.3823 -1.0911
  104SLPC  H17Y10456   3.766   5.737   4.460 -0.0103 -1.9179 -3.0983
  104SLPC  C31810457   3.630   5.766   4.615  0.3643  0.7077 -0.1895
  104SLPC  H18X10458   3.520   5.775   4.631  0.1606 -0.2922 -0.9433
  104SLPC  H18Y10459   3.653   5.871   4.643  0.9498  0.1738  1.4720
  104SLPC  H18Z10460   3.688   5.694   4.677  2.4027  0.8158 -1.8623
  105SLPC     N10461   4.978   5.546   6.641 -0.6211  0.1060 -0.0089
  105SLPC   C1310462   5.068   5.469   6.549  0.3020  0.1703  0.6423
  105SLPC  H13A10463   5.152   5.435   6.608  1.1700  2.8105  1.0776
  105SLPC  H13B10464   5.011   5.387   6.508  0.0575  0.4115  0.4938
  105SLPC  H13C10465   5.104   5.533   6.469  1.7222 -0.6835  0.5579
  105SLPC   C1410466   5.054   5.655   6.713  0.1556  0.5997 -0.0487
  105SLPC  H14A10467   5.130   5.607   6.772 -1.5240 -2.7598 -0.3680
  105SLPC  H14B10468   5.092   5.718   6.633  1.1936  0.0268 -0.0193
  105SLPC  H14C10469   5.000   5.719   6.782 -1.8109 -0.7737 -0.2360
  105SLPC   C1510470   4.922   5.448   6.743  0.3633  0.6575 -0.5114
  105SLPC  H15A10471   4.995   5.377   6.778 -0.6966 -1.2046 -1.9057
  105SLPC  H15B10472   4.881   5.508   6.823 -0.6820 -1.8250  0.9019
  105SLPC  H15C10473   4.847   5.387   6.696  0.6611 -1.3298  1.4563
  105SLPC   C1210474   4.871   5.609   6.558  0.5759  0.0690  0.4565
  105SLPC  H12A10475   4.913   5.696   6.510 -0.5594  1.2634  1.5445
  105SLPC  H12B10476   4.798   5.648   6.627 -1.5629 -0.5407 -1.3281
  105SLPC   C1110477   4.800   5.528   6.447  0.0931  0.1140 -0.6543
  105SLPC  H11A10478   4.885   5.481   6.394  2.0577 -2.3925  4.0284
  105SLPC  H11B10479   4.730   5.585   6.382  1.8384  0.5264 -2.2472
  105SLPC     P10480   4.710   5.283   6.464  0.5143 -0.0803  0.0235
  105SLPC   O1310481   4.814   5.190   6.509  0.9188 -0.1635  0.0668
  105SLPC   O1410482   4.567   5.249   6.498  0.0724 -0.9520 -0.4330
  105SLPC   O1210483   4.735   5.429   6.524 -0.4716  0.0834  0.2174
  105SLPC   O1110484   4.721   5.298   6.313  0.2870 -0.4715 -0.3473
  105SLPC    C110485   4.657   5.215   6.218  0.3571 -0.5060 -0.3269
  105SLPC    HA10486   4.689   5.110   6.237  2.0621  0.0857  0.2612
  105SLPC    HB10487   4.547   5.226   6.232  0.3855 -0.7348  0.0963
  105SLPC    C210488   4.701   5.261   6.071  1.1483  0.8828 -0.4293
  105SLPC    HS10489   4.637   5.346   6.039  0.0692  0.1376 -0.3123
  105SLPC   O2110490   4.702   5.140   5.991  0.2403  0.0399 -0.0824
  105SLPC   C2110491   4.583   5.086   5.970 -0.3331 -0.8544 -0.4830
  105SLPC   O2210492   4.479   5.117   6.023  0.2770  0.5653  0.0222
  105SLPC   C2210493   4.605   4.984   5.857  0.0112 -0.1157  0.3046
  105SLPC   H2R10494   4.667   4.899   5.894  0.7203 -0.4445 -1.5203
  105SLPC   H2S10495   4.510   4.936   5.824  1.0686 -0.8857 -1.7855
  105SLPC    C310496   4.844   5.325   6.071 -0.0464 -0.0838 -0.6349
  105SLPC    HX10497   4.921   5.262   6.120  0.1096  0.6436  0.0663
  105SLPC    HY10498   4.840   5.417   6.133  0.8110 -0.4074 -0.0876
  105SLPC   O3110499   4.882   5.377   5.939 -0.1282  0.3557  0.4581
  105SLPC   C3110500   4.977   5.317   5.875  1.1150  0.0266 -0.4232
  105SLPC   O3210501   5.034   5.213   5.908 -0.4089  0.2458 -0.1020
  105SLPC   C3210502   5.004   5.385   5.734  0.1109  0.1726 -0.1992
  105SLPC   H2X10503   5.091   5.453   5.744  0.1647  0.1623 -0.5989
  105SLPC   H2Y10504   4.910   5.439   5.708 -1.7226 -2.6063  0.2126
  105SLPC   C2310505   4.670   5.047   5.725  0.0251  0.5245 -0.8541
  105SLPC   H3R10506   4.778   5.025   5.743  0.1955  0.7678 -1.5548
  105SLPC   H3S10507   4.638   5.154   5.720 -0.6575  0.4305  0.8937
  105SLPC   C2410508   4.619   4.967   5.601 -0.1603 -0.1990 -0.3559
  105SLPC   H4R10509   4.577   4.866   5.621  0.5860 -0.2826  0.9146
  105SLPC   H4S10510   4.708   4.955   5.536 -0.0648 -0.9134 -0.0975
  105SLPC   C2510511   4.506   5.037   5.533  0.2096 -0.3770  0.0145
  105SLPC   H5R10512   4.532   5.142   5.507 -1.1813 -0.2763 -1.1440
  105SLPC   H5S10513   4.420   5.051   5.601  0.7345 -0.8760  0.7916
  105SLPC   C2610514   4.468   4.974   5.403  0.5222  0.5842 -0.6139
  105SLPC   H6R10515   4.460   4.864   5.415 -4.4616  0.7754 -0.0346
  105SLPC   H6S10516   4.540   5.000   5.323 -1.3205  3.5360 -1.4794
  105SLPC   C2710517   4.347   5.033   5.331  0.1566 -0.0876  0.1694
  105SLPC   H7R10518   4.372   5.133   5.291  1.2283 -0.8693 -1.1950
  105SLPC   H7S10519   4.270   5.048   5.410 -0.6523  3.9705 -1.1517
  105SLPC   C2810520   4.303   4.951   5.208 -0.0635 -0.1809 -0.0394
  105SLPC   H8R10521   4.203   4.993   5.184  0.0282 -0.8654 -1.7440
  105SLPC   H8S10522   4.266   4.851   5.241 -3.6796  0.9226 -0.3476
  105SLPC   C2910523   4.401   4.954   5.092 -0.3433  0.9275 -0.1245
  105SLPC   H9R10524   4.507   4.957   5.124 -0.6802 -0.5817  1.2747
  105SLPC  C21010525   4.365   4.985   4.967 -0.0595 -0.5063  0.0437
  105SLPC  H10R10526   4.436   4.999   4.884  0.2362  1.8359  0.6067
  105SLPC  C21110527   4.222   4.999   4.909  0.7101 -0.1442 -0.2990
  105SLPC  H11R10528   4.194   5.097   4.865 -2.2505 -1.8158 -2.5246
  105SLPC  H11S10529   4.143   4.971   4.982 -0.8988 -2.8780 -2.8458
  105SLPC  C21210530   4.201   4.909   4.794  0.2427  0.0900 -0.1131
  105SLPC  H12R10531   4.128   4.828   4.808  0.4276  0.1347  1.2547
  105SLPC  C21310532   4.251   4.935   4.675 -0.0177 -0.4283 -0.4677
  105SLPC  H13R10533   4.231   4.854   4.603 -0.9844 -1.5087  0.9591
  105SLPC  C21410534   4.344   5.051   4.633  0.6896  0.4825  0.4865
  105SLPC  H14R10535   4.451   5.021   4.631  0.5220 -0.2115  1.4013
  105SLPC  H14S10536   4.328   5.135   4.704  0.5308 -0.0658  1.1087
  105SLPC  C21510537   4.301   5.103   4.496  0.0196 -0.4956 -0.3480
  105SLPC  H15R10538   4.352   5.201   4.483  0.3225 -0.3513  1.5835
  105SLPC  H15S10539   4.192   5.121   4.507  0.4563  1.1934  2.1163
  105SLPC  C21610540   4.337   5.021   4.374 -0.1941  0.2645 -0.0788
  105SLPC  H16R10541   4.311   4.913   4.383  1.9031 -0.1805  1.1727
  105SLPC  H16S10542   4.447   5.015   4.363 -0.2823 -0.7913 -0.5760
  105SLPC  C21710543   4.269   5.073   4.246 -0.2480 -1.2834  0.0367
  105SLPC  H17R10544   4.306   5.175   4.220  0.3484 -0.8777  2.2602
  105SLPC  H17S10545   4.163   5.100   4.265  0.3682  0.5189  1.2819
  105SLPC  C21810546   4.288   5.000   4.110 -1.0138 -0.7360 -0.0152
  105SLPC  H18R10547   4.250   5.061   4.025 -1.6455  1.0094  1.4635
  105SLPC  H18S10548   4.242   4.899   4.103  1.1620 -1.6830 -1.9910
  105SLPC  H18T10549   4.396   4.974   4.112 -0.8204  0.0473 -0.1532
  105SLPC   C3310550   5.028   5.271   5.638  0.1190  0.6870  0.6474
  105SLPC   H3X10551   4.933   5.215   5.629 -0.0171  1.1890 -1.5438
  105SLPC   H3Y10552   5.113   5.209   5.673  0.5206 -0.5049 -2.1819
  105SLPC   C3410553   5.053   5.330   5.495  0.1560  0.5302  0.5359
  105SLPC   H4X10554   5.157   5.370   5.494  0.8892 -1.1218  2.6232
  105SLPC   H4Y10555   4.973   5.404   5.477 -0.4056  0.2438  1.7570
  105SLPC   C3510556   5.042   5.219   5.393 -0.8269  0.5476  0.5905
  105SLPC   H5X10557   4.951   5.158   5.413 -1.3292  1.2579  0.5372
  105SLPC   H5Y10558   5.131   5.155   5.411 -0.5296  1.0606  0.9466
  105SLPC   C3610559   5.046   5.263   5.248 -0.6245 -0.0501  0.3886
  105SLPC   H6X10560   5.123   5.338   5.221  0.2429 -0.5329  1.4626
  105SLPC   H6Y10561   4.948   5.304   5.215 -0.5224 -0.3663 -0.3277
  105SLPC   C3710562   5.068   5.142   5.160 -0.6199 -0.2993 -0.5072
  105SLPC   H7X10563   5.011   5.157   5.066 -1.1064 -0.3260 -0.2236
  105SLPC   H7Y10564   5.034   5.051   5.215  2.3240  0.3484  2.7254
  105SLPC   C3810565   5.212   5.111   5.117 -0.0003  0.1188  0.7680
  105SLPC   H8X10566   5.290   5.104   5.195  3.2370 -0.3539 -2.2871
  105SLPC   H8Y10567   5.245   5.200   5.059  4.2255 -1.6902  0.0517
  105SLPC   C3910568   5.225   4.974   5.039 -0.4882 -0.5900  0.2893
  105SLPC   H9X10569   5.182   4.893   5.101  1.6767 -2.2121 -0.2211
  105SLPC   H9Y10570   5.329   4.945   5.014 -0.6367 -4.2106  3.0570
  105SLPC  C31010571   5.152   4.977   4.909  0.2030 -0.2224  0.2119
  105SLPC  H10X10572   5.197   5.056   4.845 -0.3194 -0.4062 -0.3824
  105SLPC  H10Y10573   5.045   5.002   4.926  0.3273  0.4327  0.0670
  105SLPC  C31110574   5.174   4.849   4.818  0.2982 -0.3250  0.2404
  105SLPC  H11X10575   5.109   4.773   4.867 -0.9580  1.9265  2.2843
  105SLPC  H11Y10576   5.279   4.817   4.832  0.6732  1.1760  1.0029
  105SLPC  C31210577   5.131   4.868   4.671 -0.0448  0.4814  0.3144
  105SLPC  H12X10578   5.201   4.937   4.619 -0.7801  0.6178 -0.5055
  105SLPC  H12Y10579   5.034   4.922   4.671  0.2500  1.1565  2.9532
  105SLPC  C31310580   5.111   4.740   4.596  0.5189 -0.6893  0.3487
  105SLPC  H13X10581   5.055   4.672   4.663  1.1389 -2.2212 -0.6478
  105SLPC  H13Y10582   5.207   4.692   4.568  0.0041 -0.2998 -2.4439
  105SLPC  C31410583   5.024   4.759   4.465 -0.5292 -0.4621  0.4535
  105SLPC  H14X10584   5.081   4.816   4.388  0.4254  1.6245  2.5707
  105SLPC  H14Y10585   4.926   4.804   4.488 -1.4329 -3.1690  2.3438
  105SLPC  C31510586   4.985   4.623   4.395 -0.0630  0.1808  0.1824
  105SLPC  H15X10587   4.912   4.575   4.463  1.3648  0.2155  1.7930
  105SLPC  H15Y10588   5.070   4.552   4.395 -0.4267 -0.2938  1.9938
  105SLPC  C31610589   4.948   4.645   4.246  0.7646 -0.5145 -0.4798
  105SLPC  H16X10590   5.040   4.682   4.195  0.4553  0.5800 -0.2557
  105SLPC  H16Y10591   4.870   4.722   4.234  1.1252 -0.1912 -0.7553
  105SLPC  C31710592   4.914   4.515   4.170  0.2988  0.1360 -0.0091
  105SLPC  H17X10593   5.000   4.450   4.194  1.1203  1.6050  1.2121
  105SLPC  H17Y10594   4.825   4.470   4.218 -0.2510 -0.0687 -1.1768
  105SLPC  C31810595   4.886   4.544   4.021 -0.2306  0.9265 -0.2858
  105SLPC  H18X10596   4.854   4.447   3.978  1.9310 -0.2212  0.5485
  105SLPC  H18Y10597   4.974   4.578   3.963 -0.5963 -1.3150 -2.2960
  105SLPC  H18Z10598   4.803   4.618   4.011  0.6971  1.9327 -0.7314
  106SLPC     N10599   0.827   5.240   6.695  0.1089  0.2981  0.0432
  106SLPC   C1310600   0.894   5.318   6.586 -0.3909  0.4536  0.0407
  106SLPC  H13A10601   0.978   5.266   6.542 -0.5399  0.8472 -0.7276
  106SLPC  H13B10602   0.819   5.345   6.512 -0.5440  1.1999  0.4560
  106SLPC  H13C10603   0.937   5.410   6.624 -1.4597  0.9977  0.0007
  106SLPC   C1410604   0.770   5.112   6.625 -1.1097  0.2487  0.0847
  106SLPC  H14A10605   0.730   5.058   6.710  2.4604  0.8167  2.3613
  106SLPC  H14B10606   0.697   5.133   6.548  0.4283  2.7160 -0.8170
  106SLPC  H14C10607   0.853   5.061   6.578 -1.8759  0.4670 -1.5568
  106SLPC   C1510608   0.714   5.325   6.736  0.3122 -0.3023 -0.0634
  106SLPC  H15A10609   0.654   5.346   6.648  3.5611  2.2726 -1.8991
  106SLPC  H15B10610   0.646   5.276   6.804  0.1804 -1.4204 -0.9568
  106SLPC  H15C10611   0.756   5.412   6.785  0.6509 -0.7261  0.4040
  106SLPC   C1210612   0.926   5.213   6.813 -0.3111 -0.1026 -0.1581
  106SLPC  H12A10613   1.010   5.153   6.781  1.3570  2.4190 -0.8040
  106SLPC  H12B10614   0.867   5.158   6.885 -0.8811  0.2644 -0.3429
  106SLPC   C1110615   0.994   5.337   6.881 -0.5773  0.6126  0.1406
  106SLPC  H11A10616   1.040   5.297   6.974  0.9753  0.6040 -0.5945
  106SLPC  H11B10617   0.914   5.403   6.921 -0.1757 -0.3844  2.7841
  106SLPC     P10618   1.226   5.340   6.778 -0.1483 -0.5835 -0.3446
  106SLPC   O1310619   1.310   5.402   6.882  0.0218  0.2093 -0.3911
  106SLPC   O1410620   1.225   5.193   6.765  0.7455 -0.1800  0.3388
  106SLPC   O1210621   1.080   5.402   6.797  0.6593 -0.4084  0.0988
  106SLPC   O1110622   1.274   5.399   6.642 -0.1706  0.2155 -0.0223
  106SLPC    C110623   1.268   5.538   6.615  0.0952 -0.4066 -0.5158
  106SLPC    HA10624   1.163   5.575   6.616 -0.4660 -1.8762  1.5427
  106SLPC    HB10625   1.321   5.596   6.693 -1.3271  0.9187 -0.4742
  106SLPC    C210626   1.314   5.579   6.473 -0.9490  0.0082  0.2270
  106SLPC    HS10627   1.248   5.530   6.398 -1.0333  2.2158 -1.2507
  106SLPC   O2110628   1.452   5.546   6.457 -0.4558  0.7359  0.4037
  106SLPC   C2110629   1.473   5.426   6.393 -0.3931 -0.7294 -0.0594
  106SLPC   O2210630   1.383   5.357   6.339 -0.1858  0.2231 -0.8194
  106SLPC   C2210631   1.626   5.405   6.375 -0.2568  0.3298 -0.6874
  106SLPC   H2R10632   1.674   5.447   6.466  2.5693 -1.8986 -1.0303
  106SLPC   H2S10633   1.649   5.298   6.391 -0.0504  0.8025  3.0591
  106SLPC    C310634   1.300   5.729   6.444 -0.5552  0.4275 -0.2608
  106SLPC    HX10635   1.383   5.782   6.495  0.5448 -0.5412 -1.0066
  106SLPC    HY10636   1.210   5.776   6.490 -2.1829  0.2994 -3.1104
  106SLPC   O3110637   1.287   5.750   6.303 -0.1472 -0.1884  0.1187
  106SLPC   C3110638   1.260   5.862   6.243  0.2935 -0.3021  0.2438
  106SLPC   O3210639   1.226   5.972   6.290 -0.2682  0.4651 -0.2773
  106SLPC   C3210640   1.274   5.825   6.096  0.0995  0.7408  0.7834
  106SLPC   H2X10641   1.252   5.718   6.077 -1.5536  1.2954 -0.6921
  106SLPC   H2Y10642   1.372   5.851   6.050 -0.1800 -1.4207 -1.2297
  106SLPC   C2310643   1.693   5.461   6.249  0.1378 -0.3454 -0.2182
  106SLPC   H3R10644   1.645   5.423   6.157 -0.4574 -2.6218  0.9543
  106SLPC   H3S10645   1.800   5.433   6.242  0.4780  1.1915 -1.8043
  106SLPC   C2410646   1.704   5.618   6.249  0.3406  0.0330  1.0125
  106SLPC   H4R10647   1.767   5.654   6.333  0.5554  3.4251 -0.4313
  106SLPC   H4S10648   1.604   5.663   6.268 -0.0598  0.1021 -1.0146
  106SLPC   C2510649   1.762   5.668   6.117  0.3001 -0.8046  0.1539
  106SLPC   H5R10650   1.848   5.610   6.077 -0.7355  0.2114 -4.0387
  106SLPC   H5S10651   1.795   5.768   6.151  0.6367 -0.9602  0.2861
  106SLPC   C2610652   1.661   5.657   6.000 -0.0871  0.4250  0.5870
  106SLPC   H6R10653   1.567   5.708   6.030 -0.4992 -0.0329  0.0847
  106SLPC   H6S10654   1.630   5.551   5.985  1.6033  0.1094 -1.1211
  106SLPC   C2710655   1.694   5.723   5.865  0.6156 -0.0406 -0.0031
  106SLPC   H7R10656   1.792   5.696   5.822  0.4473  0.7225 -0.9100
  106SLPC   H7S10657   1.699   5.828   5.900 -1.2825 -0.5294  1.9872
  106SLPC   C2810658   1.584   5.722   5.759 -0.6269  0.6425  0.5200
  106SLPC   H8R10659   1.586   5.827   5.723 -1.0590  0.7147  0.6965
  106SLPC   H8S10660   1.482   5.700   5.796 -0.9739 -0.9738 -1.2357
  106SLPC   C2910661   1.626   5.617   5.657 -0.2174 -0.2533 -0.0525
  106SLPC   H9R10662   1.628   5.516   5.700 -1.3199 -0.8581 -1.3310
  106SLPC  C21010663   1.673   5.643   5.533 -0.2905 -0.3281  0.8412
  106SLPC  H10R10664   1.708   5.568   5.460 -0.0171  2.3595 -1.9959
  106SLPC  C21110665   1.673   5.782   5.465  0.3173 -0.0854  0.2390
  106SLPC  H11R10666   1.760   5.782   5.396 -0.9940 -0.4421 -1.4982
  106SLPC  H11S10667   1.692   5.863   5.538  3.1751 -0.2784 -0.1681
  106SLPC  C21210668   1.547   5.802   5.389  0.4509  0.5688  0.1033
  106SLPC  H12R10669   1.456   5.805   5.451 -0.2362  0.5732 -0.8864
  106SLPC  C21310670   1.547   5.803   5.252  0.0881  0.3203 -0.1669
  106SLPC  H13R10671   1.455   5.829   5.198 -1.2942  1.2962  2.4714
  106SLPC  C21410672   1.665   5.798   5.159  0.2369  0.2444  0.0486
  106SLPC  H14R10673   1.697   5.693   5.145 -0.8958 -0.5154  2.5918
  106SLPC  H14S10674   1.755   5.852   5.194  1.4684 -0.9058 -1.2064
  106SLPC  C21510675   1.628   5.871   5.027 -0.3031 -0.3928 -0.1347
  106SLPC  H15R10676   1.714   5.889   4.959 -1.4988 -1.9277 -2.1912
  106SLPC  H15S10677   1.596   5.975   5.051 -0.4580 -0.2894 -0.7487
  106SLPC  C21610678   1.519   5.806   4.940  0.0748  0.0252  0.1115
  106SLPC  H16R10679   1.503   5.853   4.841 -0.7729  1.8906  1.0733
  106SLPC  H16S10680   1.418   5.806   4.987  0.4901 -0.1020  1.0146
  106SLPC  C21710681   1.553   5.656   4.898 -0.4297  0.1232  0.4127
  106SLPC  H17R10682   1.468   5.628   4.832 -0.6593  0.9555  0.3452
  106SLPC  H17S10683   1.559   5.598   4.992 -1.1783  0.0587  0.4250
  106SLPC  C21810684   1.683   5.645   4.827  0.5414 -0.5997  1.9555
  106SLPC  H18R10685   1.775   5.667   4.885  1.6453  0.5177 -0.0976
  106SLPC  H18S10686   1.688   5.711   4.738  0.7005 -0.9307  1.7172
  106SLPC  H18T10687   1.690   5.539   4.792  2.7976 -0.2153  1.0764
  106SLPC   C3310688   1.156   5.900   6.025  0.2234 -0.3659 -0.1333
  106SLPC   H3X10689   1.158   6.008   6.051  0.8057 -1.0337  2.9394
  106SLPC   H3Y10690   1.059   5.861   6.062 -0.0803 -0.5361 -1.0834
  106SLPC   C3410691   1.155   5.877   5.873  0.2905  0.5552  0.2734
  106SLPC   H4X10692   1.061   5.918   5.832  0.9256 -0.1364 -2.0121
  106SLPC   H4Y10693   1.148   5.767   5.862  0.6139  0.2900  2.2316
  106SLPC   C3510694   1.272   5.954   5.800 -0.0781 -0.5308  0.0952
  106SLPC   H5X10695   1.364   5.925   5.856  0.7548 -0.2144 -1.0818
  106SLPC   H5Y10696   1.264   6.062   5.825  1.8838  0.2843 -2.3992
  106SLPC   C3610697   1.295   5.923   5.655  0.0423 -0.3879  0.3098
  106SLPC   H6X10698   1.313   5.816   5.633 -0.3988 -0.5178  0.5728
  106SLPC   H6Y10699   1.388   5.978   5.629  0.9553 -2.0963 -0.1752
  106SLPC   C3710700   1.184   5.976   5.561  0.0868  0.4400  0.5361
  106SLPC   H7X10701   1.172   6.084   5.581  0.2153  0.4825  0.3830
  106SLPC   H7Y10702   1.089   5.923   5.584 -1.5419  2.6729 -0.7390
  106SLPC   C3810703   1.228   5.949   5.419  0.0426 -0.2757  0.2534
  106SLPC   H8X10704   1.253   5.841   5.412 -1.6354 -0.6032 -3.6361
  106SLPC   H8Y10705   1.329   5.992   5.404 -0.1707  0.2236  0.2243
  106SLPC   C3910706   1.142   5.981   5.298 -0.4349 -0.0990  0.4224
  106SLPC   H9X10707   1.091   6.079   5.313 -0.1526 -0.3597  4.0764
  106SLPC   H9Y10708   1.059   5.906   5.303 -0.4296 -0.0741  1.0968
  106SLPC  C31010709   1.218   5.964   5.166 -0.4519 -0.2044  0.2525
  106SLPC  H10X10710   1.253   5.859   5.152 -1.0809 -0.3991  0.0876
  106SLPC  H10Y10711   1.304   6.035   5.163 -0.6036 -0.0531 -1.7095
  106SLPC  C31110712   1.126   5.997   5.044  0.1639  0.1004 -0.2651
  106SLPC  H11X10713   1.126   6.106   5.027  3.0543  0.3775  0.9517
  106SLPC  H11Y10714   1.026   5.955   5.071  0.1250  0.7796  0.6651
  106SLPC  C31210715   1.172   5.941   4.909 -0.4142  0.4702  0.2120
  106SLPC  H12X10716   1.209   5.839   4.931 -0.5829  0.1361 -1.0134
  106SLPC  H12Y10717   1.262   6.000   4.882  1.5820 -0.6253  3.7387
  106SLPC  C31310718   1.071   5.933   4.790 -0.7889 -0.1508 -0.4230
  106SLPC  H13X10719   0.969   5.918   4.830 -1.3827  1.4963 -1.2115
  106SLPC  H13Y10720   1.103   5.837   4.743  0.2024 -1.5747  2.8957
  106SLPC  C31410721   1.075   6.061   4.706 -0.8119 -0.3723  1.0231
  106SLPC  H14X10722   1.181   6.065   4.674 -1.6145 -1.2497 -2.0321
  106SLPC  H14Y10723   1.061   6.156   4.761  1.0617 -0.3597  1.5563
  106SLPC  C31510724   0.960   6.033   4.595  0.1141  0.5237  0.2129
  106SLPC  H15X10725   0.969   5.925   4.571  0.8065  0.1355  2.0366
  106SLPC  H15Y10726   0.978   6.100   4.508  0.9133 -0.5519 -0.4768
  106SLPC  C31610727   0.816   6.053   4.641 -0.0062 -0.2762  0.0676
  106SLPC  H16X10728   0.813   6.150   4.694 -1.8822 -0.5206  0.4755
  106SLPC  H16Y10729   0.798   5.982   4.725 -0.6622  1.3535  1.3617
  106SLPC  C31710730   0.712   6.038   4.528  0.3218  0.5866 -0.2980
  106SLPC  H17X10731   0.732   5.943   4.475  0.1791 -0.3192  1.2158
  106SLPC  H17Y10732   0.730   6.121   4.457 -1.5667  2.1908  0.9640
  106SLPC  C31810733   0.576   6.050   4.593 -0.3308  0.4959  0.3595
  106SLPC  H18X10734   0.547   6.149   4.632 -1.2111 -0.2185  1.5854
  106SLPC  H18Y10735   0.562   5.975   4.674  0.8711 -0.5912 -0.3823
  106SLPC  H18Z10736   0.495   6.039   4.518  0.8222  2.3128 -1.2459
  107SLPC     N10737   3.552   2.088   1.809 -0.3090  0.6902  0.2811
  107SLPC   C1310738   3.597   1.941   1.830 -0.3257 -0.0207 -0.3798
  107SLPC  H13A10739   3.560   1.879   1.750  0.2331 -1.9564  0.7703
  107SLPC  H13B10740   3.705   1.932   1.827 -0.2249  1.2227 -1.8500
  107SLPC  H13C10741   3.554   1.902   1.921 -1.2230 -1.0627 -1.2317
  107SLPC   C1410742   3.401   2.099   1.805 -0.0757 -0.2921 -0.0936
  107SLPC  H14A10743   3.365   2.200   1.794 -0.4102 -0.4535 -0.5185
  107SLPC  H14B10744   3.368   2.055   1.712  0.7171 -1.7627  0.2980
  107SLPC  H14C10745   3.359   2.046   1.889 -2.8515  0.2837 -1.0068
  107SLPC   C1510746   3.614   2.133   1.676  0.2397  0.7019  0.2041
  107SLPC  H15A10747   3.721   2.118   1.674  0.4869  2.2687 -1.5138
  107SLPC  H15B10748   3.572   2.081   1.591  0.5442 -0.6715  0.8834
  107SLPC  H15C10749   3.608   2.240   1.658 -1.0559  0.5357 -0.5370
  107SLPC   C1210750   3.600   2.172   1.920 -0.3944 -0.6018  0.2467
  107SLPC  H12A10751   3.531   2.174   2.003  0.2700 -3.3306  0.9914
  107SLPC  H12B10752   3.596   2.273   1.882  0.2088 -1.1940 -1.4898
  107SLPC   C1110753   3.746   2.157   1.972  0.6487  0.4364  0.8114
  107SLPC  H11A10754   3.751   2.068   2.038 -2.6012  0.8779  1.8025
  107SLPC  H11B10755   3.770   2.241   2.041  0.6509  0.4678  0.7724
  107SLPC     P10756   3.965   2.070   1.859  0.3391 -0.0340  0.1209
  107SLPC   O1310757   3.929   1.936   1.798 -0.0910 -0.1881 -0.5407
  107SLPC   O1410758   4.077   2.144   1.791 -0.5600  0.0883 -0.9293
  107SLPC   O1210759   3.837   2.157   1.862  0.5725 -0.6947 -0.0985
  107SLPC   O1110760   4.006   2.050   2.011  0.4044 -0.1516 -0.2007
  107SLPC    C110761   4.114   1.961   2.029 -0.1508  0.5461  0.0220
  107SLPC    HA10762   4.093   1.856   1.999  0.6624 -1.0750  4.4374
  107SLPC    HB10763   4.205   2.006   1.984 -0.7947 -0.7630 -2.8268
  107SLPC    C210764   4.131   1.942   2.188  0.4249 -0.3983  0.5275
  107SLPC    HS10765   4.048   1.883   2.232  0.1216  0.3041  0.9008
  107SLPC   O2110766   4.155   2.075   2.246 -0.0544  0.1782  0.0932
  107SLPC   C2110767   4.065   2.109   2.338 -0.0239  0.1259 -0.3330
  107SLPC   O2210768   3.965   2.046   2.365 -0.4454  0.2058 -0.1920
  107SLPC   C2210769   4.106   2.235   2.412 -0.4334 -0.6171 -0.4340
  107SLPC   H2R10770   4.217   2.233   2.405 -0.2295 -1.2808  2.1594
  107SLPC   H2S10771   4.064   2.325   2.362  1.5626  0.1128 -0.9067
  107SLPC    C310772   4.249   1.850   2.219 -0.2179  0.7302 -0.8885
  107SLPC    HX10773   4.344   1.886   2.174  0.8811 -1.5331 -0.5323
  107SLPC    HY10774   4.236   1.759   2.156 -0.7990  0.3503 -0.2324
  107SLPC   O3110775   4.265   1.818   2.359 -0.5225 -0.0348 -0.1015
  107SLPC   C3110776   4.173   1.736   2.409  0.1428  0.5909 -0.4730
  107SLPC   O3210777   4.082   1.687   2.348  0.0702  0.1581  0.8164
  107SLPC   C3210778   4.198   1.705   2.554  0.3942  0.1079 -0.2243
  107SLPC   H2X10779   4.307   1.702   2.574  0.3869  0.1016 -0.1875
  107SLPC   H2Y10780   4.156   1.603   2.571 -0.3692  0.2881 -0.9071
  107SLPC   C2310781   4.059   2.224   2.558 -0.5121  0.0710 -0.0049
  107SLPC   H3R10782   4.111   2.309   2.607 -0.8377 -0.4713  1.3129
  107SLPC   H3S10783   4.092   2.126   2.599  0.3945  0.7833  1.0202
  107SLPC   C2410784   3.914   2.254   2.587  0.3119 -0.3994  0.6113
  107SLPC   H4R10785   3.847   2.174   2.548 -1.9579  1.4368  0.5674
  107SLPC   H4S10786   3.877   2.352   2.550  1.4629 -0.5290 -0.9996
  107SLPC   C2510787   3.892   2.246   2.746 -0.1149 -0.2255  0.2060
  107SLPC   H5R10788   3.918   2.347   2.783 -0.1418  0.0071 -0.4130
  107SLPC   H5S10789   3.946   2.158   2.788  1.1493 -0.1832 -1.2637
  107SLPC   C2610790   3.738   2.256   2.777  0.5968  0.6147  0.3219
  107SLPC   H6R10791   3.691   2.157   2.761 -0.7433  1.1889  0.6239
  107SLPC   H6S10792   3.694   2.330   2.707  1.6635 -0.1877 -1.2723
  107SLPC   C2710793   3.724   2.290   2.928  0.1239 -0.0340  1.1919
  107SLPC   H7R10794   3.772   2.390   2.936 -1.0062  0.5315  1.0973
  107SLPC   H7S10795   3.791   2.225   2.988  1.3358 -0.6406 -0.7141
  107SLPC   C2810796   3.587   2.292   2.989 -0.2164 -0.1774 -0.0825
  107SLPC   H8R10797   3.514   2.326   2.913 -4.5315 -0.0919  3.6247
  107SLPC   H8S10798   3.601   2.366   3.071  2.0370  1.3659 -1.7447
  107SLPC   C2910799   3.538   2.162   3.031  0.2307  0.5254 -0.4730
  107SLPC   H9R10800   3.526   2.088   2.951 -1.4243 -1.4068  1.4459
  107SLPC  C21010801   3.519   2.119   3.161  0.2084  0.9959 -0.3438
  107SLPC  H10R10802   3.483   2.016   3.176 -1.2274  1.4698 -0.3992
  107SLPC  C21110803   3.516   2.191   3.290  0.6972  0.4577  0.3886
  107SLPC  H11R10804   3.436   2.165   3.361 -0.3862  2.0041 -0.2022
  107SLPC  H11S10805   3.497   2.297   3.263  0.7820  0.7099  1.2912
  107SLPC  C21210806   3.655   2.186   3.355 -0.5854  0.5893  0.2198
  107SLPC  H12R10807   3.745   2.201   3.294  2.5785 -0.1036  4.2666
  107SLPC  C21310808   3.694   2.157   3.482  0.1997  0.0060  0.0975
  107SLPC  H13R10809   3.801   2.134   3.493  0.4845  1.2537  0.1676
  107SLPC  C21410810   3.608   2.113   3.597 -0.4223 -0.3757  0.5936
  107SLPC  H14R10811   3.501   2.134   3.574  0.4459  1.8771 -1.8477
  107SLPC  H14S10812   3.625   2.180   3.683  1.3298  0.7530 -0.5770
  107SLPC  C21510813   3.623   1.958   3.625 -0.5041  0.9028  0.3714
  107SLPC  H15R10814   3.732   1.938   3.628 -0.3472  1.8241  2.4926
  107SLPC  H15S10815   3.564   1.904   3.548  0.2974 -0.5285  0.7212
  107SLPC  C21610816   3.572   1.928   3.765  0.4958 -0.0938  0.0986
  107SLPC  H16R10817   3.619   2.002   3.834  1.0581 -0.2694 -0.0906
  107SLPC  H16S10818   3.607   1.829   3.802  2.4617 -0.2926 -2.0286
  107SLPC  C21710819   3.419   1.939   3.791 -0.1320  0.2901  0.3510
  107SLPC  H17R10820   3.361   1.901   3.705  1.3396 -1.1516 -0.0615
  107SLPC  H17S10821   3.405   2.048   3.805  0.5853  0.8131 -2.4188
  107SLPC  C21810822   3.379   1.870   3.919 -0.4833 -0.6832  1.0202
  107SLPC  H18R10823   3.413   1.924   4.010  1.0397 -0.3473  0.2942
  107SLPC  H18S10824   3.416   1.766   3.930  0.3620 -0.4360  0.6736
  107SLPC  H18T10825   3.269   1.860   3.913 -0.4422 -0.3157 -1.0558
  107SLPC   C3310826   4.131   1.813   2.649  0.2206  0.6886  0.1094
  107SLPC   H3X10827   4.020   1.805   2.646  0.2761  0.1518 -1.4843
  107SLPC   H3Y10828   4.179   1.907   2.611  1.4993  0.4858  1.1558
  107SLPC   C3410829   4.180   1.807   2.786  0.8705 -0.8632 -0.3030
  107SLPC   H4X10830   4.291   1.797   2.787  0.9400 -0.1706 -0.3478
  107SLPC   H4Y10831   4.132   1.722   2.839 -0.8800  0.1305 -0.2106
  107SLPC   C3510832   4.135   1.933   2.861 -0.4169  0.1066 -0.4792
  107SLPC   H5X10833   4.026   1.950   2.852 -0.1343  2.7545  0.1367
  107SLPC   H5Y10834   4.180   2.027   2.822  1.2235 -0.7415 -0.7410
  107SLPC   C3610835   4.156   1.933   3.009  0.1045 -0.5265  0.2520
  107SLPC   H6X10836   4.264   1.920   3.031  0.0707 -2.8469 -0.6793
  107SLPC   H6Y10837   4.116   1.844   3.062  2.9246 -0.4165  2.8338
  107SLPC   C3710838   4.109   2.057   3.084  0.1948  0.5997  0.1314
  107SLPC   H7X10839   4.018   2.102   3.039 -1.1812 -0.6051  1.5933
  107SLPC   H7Y10840   4.193   2.129   3.071 -0.5815  1.3932 -0.5959
  107SLPC   C3810841   4.085   2.028   3.239 -0.6181 -0.3870 -0.9426
  107SLPC   H8X10842   4.170   1.975   3.286 -0.1555  0.7326 -0.4757
  107SLPC   H8Y10843   3.995   1.963   3.244 -0.3758 -0.7745 -1.5859
  107SLPC   C3910844   4.048   2.147   3.327  0.3274 -0.2402  0.2239
  107SLPC   H9X10845   3.942   2.173   3.303  1.0395  0.5792 -2.3651
  107SLPC   H9Y10846   4.107   2.236   3.298 -0.7295  0.3256 -0.2505
  107SLPC  C31010847   4.065   2.133   3.481 -0.1348 -0.0614  0.3909
  107SLPC  H10X10848   4.170   2.102   3.500  0.5365  0.0022 -2.6773
  107SLPC  H10Y10849   4.014   2.041   3.514  2.0775 -1.0260  1.3757
  107SLPC  C31110850   4.012   2.258   3.552 -0.5075 -0.0568  0.1466
  107SLPC  H11X10851   3.918   2.302   3.511 -0.3059  1.7079  1.4758
  107SLPC  H11Y10852   4.086   2.338   3.532 -0.4652 -0.6584 -2.4744
  107SLPC  C31210853   3.995   2.221   3.703  0.2562 -0.2869 -0.0310
  107SLPC  H12X10854   4.098   2.198   3.736  1.2400  1.6213 -1.5658
  107SLPC  H12Y10855   3.930   2.132   3.717 -0.8199  0.4322 -0.3416
  107SLPC  C31310856   3.944   2.345   3.774  0.1868  0.0062 -0.3543
  107SLPC  H13X10857   3.851   2.378   3.722  0.3655 -2.4667 -2.4541
  107SLPC  H13Y10858   4.018   2.426   3.759  1.6788 -1.3979 -0.9019
  107SLPC  C31410859   3.923   2.322   3.922 -0.0273 -0.6559 -0.3289
  107SLPC  H14X10860   4.008   2.256   3.951  1.3330  0.6991 -1.0979
  107SLPC  H14Y10861   3.825   2.273   3.933 -0.7161 -0.0655 -3.1622
  107SLPC  C31510862   3.917   2.446   4.020 -0.7107 -0.2388 -0.0183
  107SLPC  H15X10863   4.013   2.501   4.019 -0.6894 -0.2263  1.0711
  107SLPC  H15Y10864   3.897   2.406   4.122  1.9755  0.8183  1.0035
  107SLPC  C31610865   3.800   2.534   3.989  0.5023 -0.6694 -0.2605
  107SLPC  H16X10866   3.706   2.482   4.020  1.4012 -1.9903  0.3325
  107SLPC  H16Y10867   3.801   2.570   3.884  1.1640  0.9169  0.2560
  107SLPC  C31710868   3.812   2.669   4.070  0.4767  0.0979  0.6037
  107SLPC  H17X10869   3.917   2.704   4.071  0.7750 -0.6401 -1.1284
  107SLPC  H17Y10870   3.790   2.651   4.177  0.9650 -0.3375  0.6305
  107SLPC  C31810871   3.718   2.788   4.028  0.0867  1.1673  0.1669
  107SLPC  H18X10872   3.612   2.755   4.035  1.2176 -2.7849  1.5857
  107SLPC  H18Y10873   3.738   2.815   3.923 -0.6636 -0.2607 -0.3788
  107SLPC  H18Z10874   3.720   2.875   4.098 -3.5227  2.4644 -1.1152
  108SLPC     N10875   2.212   3.209   2.007  0.1524 -0.8342 -1.2455
  108SLPC   C1310876   2.344   3.240   1.950 -1.0182 -0.3159 -0.4353
  108SLPC  H13A10877   2.338   3.304   1.864 -1.2263 -0.4400 -0.5129
  108SLPC  H13B10878   2.410   3.279   2.026 -1.7452 -1.5542  0.9060
  108SLPC  H13C10879   2.394   3.152   1.913  2.0810  0.5665  1.2882
  108SLPC   C1410880   2.151   3.114   1.914 -0.4308  0.3662 -0.8759
  108SLPC  H14A10881   2.048   3.097   1.944 -0.6678  0.5476 -1.5874
  108SLPC  H14B10882   2.160   3.150   1.813  2.2917 -0.1956 -0.8988
  108SLPC  H14C10883   2.206   3.021   1.912 -2.9939 -1.2895  0.1195
  108SLPC   C1510884   2.121   3.333   2.019 -0.5790 -0.2756  0.0864
  108SLPC  H15A10885   2.033   3.310   2.077  0.1616 -0.7343  1.0550
  108SLPC  H15B10886   2.169   3.421   2.061  0.3841 -0.7737  0.0504
  108SLPC  H15C10887   2.086   3.365   1.922 -1.9388  0.6612  0.8467
  108SLPC   C1210888   2.229   3.144   2.147 -0.0202  0.0461 -0.5065
  108SLPC  H12A10889   2.252   3.040   2.131 -1.2251 -0.0624 -1.7451
  108SLPC  H12B10890   2.134   3.139   2.197  0.8125  0.7748  1.2483
  108SLPC   C1110891   2.311   3.206   2.259  1.2773 -0.9056  0.3096
  108SLPC  H11A10892   2.420   3.207   2.233  1.6991 -0.2778  2.0105
  108SLPC  H11B10893   2.299   3.140   2.348  0.9994 -0.9763  0.2198
  108SLPC     P10894   2.139   3.372   2.376 -0.1233  0.4483  0.2187
  108SLPC   O1310895   2.131   3.519   2.369 -0.1721  0.6132 -0.3547
  108SLPC   O1410896   2.021   3.289   2.344  0.0230 -0.4987  0.7714
  108SLPC   O1210897   2.265   3.345   2.275  0.1523 -0.0828 -0.7396
  108SLPC   O1110898   2.191   3.327   2.523 -0.0550  0.4112  0.0166
  108SLPC    C110899   2.320   3.375   2.559 -0.4593 -0.4180  0.3989
  108SLPC    HA10900   2.381   3.286   2.584  0.4906  0.9072  3.1734
  108SLPC    HB10901   2.376   3.428   2.479  0.3288  0.0999  1.2806
  108SLPC    C210902   2.314   3.475   2.679  0.6410  0.4168 -1.0544
  108SLPC    HS10903   2.415   3.520   2.691  1.0291  0.4782 -3.9582
  108SLPC   O2110904   2.272   3.403   2.800  0.0287  0.1723  0.1674
  108SLPC   C2110905   2.368   3.327   2.852 -0.2159  0.0745 -0.4809
  108SLPC   O2210906   2.482   3.302   2.809  0.3358  0.0610  0.4502
  108SLPC   C2210907   2.319   3.266   2.990  0.0236  0.6696  0.5164
  108SLPC   H2R10908   2.291   3.355   3.050  3.8847  2.2368  0.2671
  108SLPC   H2S10909   2.228   3.206   2.969  0.2636  0.4735  0.0199
  108SLPC    C310910   2.215   3.592   2.665  0.2887 -0.1530 -0.6884
  108SLPC    HX10911   2.120   3.547   2.631  1.2413 -1.7228 -1.4068
  108SLPC    HY10912   2.243   3.644   2.571 -1.0427 -2.2250 -2.3133
  108SLPC   O3110913   2.198   3.676   2.781 -0.1044 -0.3508 -0.0954
  108SLPC   C3110914   2.104   3.640   2.870  0.6435 -0.8477 -0.1945
  108SLPC   O3210915   2.023   3.554   2.859  0.0602  0.4802 -0.7066
  108SLPC   C3210916   2.121   3.718   3.001  0.4932  0.1330 -0.0407
  108SLPC   H2X10917   2.143   3.637   3.074  1.2885  0.4132  0.0434
  108SLPC   H2Y10918   2.023   3.762   3.029  0.6254 -0.6923  1.8665
  108SLPC   C2310919   2.435   3.184   3.055  0.0512  0.1370 -0.4495
  108SLPC   H3R10920   2.476   3.107   2.987 -0.6982  1.0677 -2.0191
  108SLPC   H3S10921   2.390   3.137   3.145 -0.6134  1.8746  0.1715
  108SLPC   C2410922   2.558   3.269   3.109 -0.2538  0.1356  0.4092
  108SLPC   H4R10923   2.613   3.299   3.017  1.1701 -2.3032  0.4001
  108SLPC   H4S10924   2.611   3.196   3.173  1.3364  0.8168 -0.0932
  108SLPC   C2510925   2.531   3.387   3.203 -0.1142 -0.3426  0.0875
  108SLPC   H5R10926   2.449   3.357   3.272 -0.2901 -1.4315 -0.5772
  108SLPC   H5S10927   2.501   3.474   3.140  1.6456  0.0993 -0.1858
  108SLPC   C2610928   2.662   3.423   3.274  0.4219  0.2503  0.1254
  108SLPC   H6R10929   2.751   3.429   3.208 -0.7364 -2.4146 -1.8723
  108SLPC   H6S10930   2.682   3.342   3.347  1.1646 -2.1985 -2.6114
  108SLPC   C2710931   2.639   3.557   3.342  0.3802  0.8409  0.0072
  108SLPC   H7R10932   2.530   3.572   3.356 -0.3003  0.3248 -3.6329
  108SLPC   H7S10933   2.662   3.646   3.279 -2.7409  0.1823 -2.3199
  108SLPC   C2810934   2.699   3.553   3.490  0.3679  0.2898 -0.0577
  108SLPC   H8R10935   2.674   3.455   3.534 -1.6745  0.8166  0.0485
  108SLPC   H8S10936   2.642   3.634   3.540 -1.1817 -1.2096  0.6662
  108SLPC   C2910937   2.849   3.580   3.483  0.1744 -0.1365  0.7111
  108SLPC   H9R10938   2.909   3.493   3.453 -0.1061 -0.0188 -0.2101
  108SLPC  C21010939   2.914   3.701   3.488  0.6569 -0.1079 -0.2350
  108SLPC  H10R10940   3.023   3.709   3.480  0.7562 -0.4733  0.6915
  108SLPC  C21110941   2.845   3.837   3.503 -0.0579  0.0783  0.4129
  108SLPC  H11R10942   2.828   3.848   3.613 -1.0762  0.3985  0.2313
  108SLPC  H11S10943   2.737   3.844   3.476 -0.2519  0.8098  1.3311
  108SLPC  C21210944   2.911   3.944   3.431  0.0735  0.6352  0.4277
  108SLPC  H12R10945   2.878   3.966   3.329  3.5916 -0.3366 -1.0404
  108SLPC  C21310946   3.019   4.018   3.476  0.0645  0.0795 -0.3593
  108SLPC  H13R10947   3.064   4.084   3.400 -1.1198 -1.7940 -2.8266
  108SLPC  C21410948   3.092   3.984   3.606 -0.4859 -0.7556  0.7883
  108SLPC  H14R10949   3.075   3.880   3.643 -0.3035 -2.5991 -3.6271
  108SLPC  H14S10950   3.070   4.054   3.689  0.8220 -0.0662  0.5805
  108SLPC  C21510951   3.246   3.997   3.589 -0.1512 -0.4314  0.5466
  108SLPC  H15R10952   3.289   3.928   3.513 -0.0869  0.6706 -0.4466
  108SLPC  H15S10953   3.302   3.973   3.682  1.9361  0.8873 -0.3037
  108SLPC  C21610954   3.302   4.140   3.566  0.0342  0.7718  0.1747
  108SLPC  H16R10955   3.283   4.207   3.653  0.6487  0.8229  0.2719
  108SLPC  H16S10956   3.243   4.190   3.487  0.6378 -1.7985 -2.0684
  108SLPC  C21710957   3.451   4.134   3.532 -0.8836  0.1231  0.2105
  108SLPC  H17R10958   3.502   4.058   3.594 -0.8315  1.9468  2.5597
  108SLPC  H17S10959   3.496   4.233   3.554  1.1582 -0.1011 -2.4953
  108SLPC  C21810960   3.473   4.116   3.375  0.8366 -0.2722 -0.9972
  108SLPC  H18R10961   3.413   4.037   3.324 -0.8909  1.3165 -1.5428
  108SLPC  H18S10962   3.579   4.085   3.363  0.7685 -0.0421 -2.2623
  108SLPC  H18T10963   3.447   4.213   3.327  2.3068  0.6750  0.0530
  108SLPC   C3310964   2.216   3.840   3.008  0.5147  0.9218  0.1215
  108SLPC   H3X10965   2.178   3.931   2.955  1.5324  3.1951  3.0098
  108SLPC   H3Y10966   2.314   3.819   2.961  1.2999 -0.6779  2.3576
  108SLPC   C3410967   2.251   3.884   3.150 -1.0021 -0.1438 -0.4988
  108SLPC   H4X10968   2.153   3.887   3.204 -1.8968 -0.0258 -2.0691
  108SLPC   H4Y10969   2.304   3.982   3.148 -0.9489 -0.1741 -3.1462
  108SLPC   C3510970   2.341   3.787   3.225 -0.2187 -0.0109 -0.7263
  108SLPC   H5X10971   2.429   3.766   3.161  1.2534  1.4165  0.7465
  108SLPC   H5Y10972   2.276   3.698   3.240  0.4595 -0.1345  2.2686
  108SLPC   C3610973   2.385   3.824   3.370  0.1712 -0.0968  0.0521
  108SLPC   H6X10974   2.442   3.743   3.420  0.2876 -1.0566 -1.5625
  108SLPC   H6Y10975   2.287   3.844   3.417 -0.6784  1.0347 -2.0478
  108SLPC   C3710976   2.467   3.955   3.384  0.5967 -0.3931 -0.5897
  108SLPC   H7X10977   2.427   4.046   3.335  0.7451 -0.6360 -1.1822
  108SLPC   H7Y10978   2.568   3.945   3.339  0.8548  0.6565 -0.2555
  108SLPC   C3810979   2.490   3.987   3.531 -0.5619 -0.4457  0.3491
  108SLPC   H8X10980   2.554   3.909   3.577 -1.7214 -0.8347  1.3489
  108SLPC   H8Y10981   2.392   3.980   3.582 -0.8079  1.6338  0.2810
  108SLPC   C3910982   2.554   4.121   3.554 -0.0204  0.0258 -0.7664
  108SLPC   H9X10983   2.473   4.197   3.544  0.0495  0.0742 -0.9584
  108SLPC   H9Y10984   2.621   4.133   3.466  1.5673 -3.8202 -0.2788
  108SLPC  C31010985   2.629   4.127   3.681 -0.1984 -0.1203  0.1462
  108SLPC  H10X10986   2.702   4.043   3.684 -0.7097 -0.6314 -1.1647
  108SLPC  H10Y10987   2.557   4.131   3.766 -2.4722  0.0007 -1.7023
  108SLPC  C31110988   2.691   4.267   3.691 -0.4132 -0.7055  0.5819
  108SLPC  H11X10989   2.611   4.344   3.679 -0.4867 -0.8254  0.2878
  108SLPC  H11Y10990   2.759   4.281   3.605 -0.4497 -3.7360 -0.0585
  108SLPC  C31210991   2.759   4.286   3.826 -0.6159 -0.0573 -0.5634
  108SLPC  H12X10992   2.703   4.246   3.913 -1.1622  3.0972  0.6487
  108SLPC  H12Y10993   2.763   4.396   3.841 -3.1035 -0.0795  0.7243
  108SLPC  C31310994   2.902   4.226   3.832 -0.0077 -0.2424  0.4045
  108SLPC  H13X10995   2.963   4.271   3.750 -1.4369  0.2151 -0.4324
  108SLPC  H13Y10996   2.899   4.116   3.823  0.2173 -0.1487 -1.2141
  108SLPC  C31410997   2.983   4.252   3.959  0.1451 -0.1777  0.8096
  108SLPC  H14X10998   3.021   4.356   3.951  2.5553 -1.1093 -0.8882
  108SLPC  H14Y10999   3.080   4.202   3.975 -0.1607 -1.0179  0.0632
  108SLPC  C31511000   2.905   4.230   4.094 -0.0046 -0.3936 -0.1356
  108SLPC  H15X11001   2.808   4.283   4.098 -0.3663 -0.8103 -2.1037
  108SLPC  H15Y11002   2.977   4.270   4.169 -0.1793  0.8932 -0.6363
  108SLPC  C31611003   2.878   4.074   4.117  0.1579  0.1143 -0.1870
  108SLPC  H16X11004   2.971   4.019   4.142 -0.0303 -0.4261 -0.6543
  108SLPC  H16Y11005   2.844   4.034   4.019 -0.3567  0.4967 -0.1679
  108SLPC  C31711006   2.770   4.049   4.217  0.3660 -0.3199  0.2209
  108SLPC  H17X11007   2.796   3.949   4.258  0.9337  0.1175  0.9434
  108SLPC  H17Y11008   2.670   4.038   4.170  0.3614 -0.5362  0.2779
  108SLPC  C31811009   2.768   4.144   4.335  0.4132 -0.8092  0.3368
  108SLPC  H18X11010   2.738   4.246   4.304 -1.4049 -0.5433  2.7265
  108SLPC  H18Y11011   2.867   4.144   4.386  0.9802  1.2178 -0.6833
  108SLPC  H18Z11012   2.696   4.119   4.416  0.2114 -1.1510  0.0593
  109SLPC     N11013   1.112   0.928   2.312 -0.1492  0.0167 -0.2246
  109SLPC   C1311014   1.030   1.030   2.238  0.5619 -0.4709 -0.1419
  109SLPC  H13A11015   0.933   1.001   2.201  0.6060  0.7665 -1.3245
  109SLPC  H13B11016   1.009   1.103   2.315  1.1397 -0.3691 -0.0788
  109SLPC  H13C11017   1.079   1.072   2.152 -0.5747  0.0488 -0.5585
  109SLPC   C1411018   1.121   0.801   2.229 -0.8003  0.3042  0.0887
  109SLPC  H14A11019   1.175   0.720   2.277 -1.9656 -1.2245 -1.0910
  109SLPC  H14B11020   1.024   0.765   2.199 -2.0344 -0.2276  4.1789
  109SLPC  H14C11021   1.178   0.836   2.144  0.0172  0.1949  0.5760
  109SLPC   C1511022   1.033   0.894   2.438 -0.0776 -0.0775  0.5299
  109SLPC  H15A11023   1.086   0.819   2.494 -0.5732 -0.3855  0.5905
  109SLPC  H15B11024   1.013   0.987   2.490  2.3055  0.2361  0.9901
  109SLPC  H15C11025   0.939   0.857   2.400  1.4196 -1.1114 -2.5015
  109SLPC   C1211026   1.244   0.991   2.355 -0.7007  0.6618 -0.0835
  109SLPC  H12A11027   1.222   1.083   2.407  2.4530  1.3445  0.2598
  109SLPC  H12B11028   1.293   1.025   2.265 -0.6961 -0.1706 -0.4022
  109SLPC   C1111029   1.352   0.909   2.436 -0.0044  0.5116  0.0047
  109SLPC  H11A11030   1.313   0.810   2.470  1.0086  0.3049  0.6172
  109SLPC  H11B11031   1.400   0.973   2.514  2.7102  0.0455 -1.1819
  109SLPC     P11032   1.494   0.770   2.262  0.2622  0.1686  0.2876
  109SLPC   O1311033   1.399   0.661   2.274  0.5038  0.4331 -0.2174
  109SLPC   O1411034   1.499   0.834   2.125  0.3134  0.1271  0.0540
  109SLPC   O1211035   1.464   0.888   2.357 -0.4280  0.0172  0.0691
  109SLPC   O1111036   1.641   0.723   2.301 -0.1756 -0.1652 -0.2767
  109SLPC    C111037   1.733   0.806   2.377  0.9093  1.1257 -0.0787
  109SLPC    HA11038   1.836   0.797   2.337 -0.1118  1.8465 -3.1931
  109SLPC    HB11039   1.726   0.915   2.354  1.9561  1.1082 -0.5559
  109SLPC    C211040   1.734   0.778   2.532  0.3121  0.0837  0.3960
  109SLPC    HS11041   1.779   0.677   2.531  1.4074  0.5206 -2.5544
  109SLPC   O2111042   1.603   0.785   2.585 -0.6084  0.5137 -0.5029
  109SLPC   C2111043   1.585   0.720   2.699  0.6878 -0.3493 -0.6623
  109SLPC   O2211044   1.657   0.640   2.753  0.1997 -0.4332  0.1336
  109SLPC   C2211045   1.446   0.763   2.758  0.1984 -0.3153  0.4512
  109SLPC   H2R11046   1.428   0.858   2.704 -1.3696 -1.7098 -1.6105
  109SLPC   H2S11047   1.377   0.682   2.728  0.7036 -1.0594  1.2341
  109SLPC    C311048   1.843   0.861   2.605  0.1372  0.0562  0.6942
  109SLPC    HX11049   1.817   0.965   2.576  1.3833  0.2465  0.1836
  109SLPC    HY11050   1.940   0.824   2.564  1.0147  1.2228  1.6481
  109SLPC   O3111051   1.840   0.859   2.750 -0.4020  0.1791  0.5053
  109SLPC   C3111052   1.911   0.769   2.823 -0.0759 -0.9103  0.8234
  109SLPC   O3211053   2.004   0.708   2.774 -0.4333  0.1224 -0.7054
  109SLPC   C3211054   1.851   0.758   2.961 -0.3487 -0.6954 -0.7100
  109SLPC   H2X11055   1.754   0.703   2.966 -0.6529 -0.0880  0.5775
  109SLPC   H2Y11056   1.837   0.860   3.001  0.9165 -1.6291  2.4558
  109SLPC   C2311057   1.441   0.774   2.916  0.6709 -0.8076 -0.6460
  109SLPC   H3R11058   1.340   0.819   2.931  1.2098  0.4498 -0.7226
  109SLPC   H3S11059   1.520   0.843   2.951 -1.2425  1.1659  0.0406
  109SLPC   C2411060   1.467   0.636   2.984  0.0856 -0.0509  0.9759
  109SLPC   H4R11061   1.572   0.603   2.964  1.0961  1.9489  2.5381
  109SLPC   H4S11062   1.404   0.562   2.931  1.8569 -0.0246 -1.3543
  109SLPC   C2511063   1.434   0.628   3.131 -0.2649  0.0874 -0.0177
  109SLPC   H5R11064   1.333   0.671   3.147  0.8074  2.4512  0.8755
  109SLPC   H5S11065   1.494   0.694   3.197 -0.5610 -0.4870  0.8408
  109SLPC   C2611066   1.450   0.489   3.198 -0.6071 -0.1467 -0.4089
  109SLPC   H6R11067   1.557   0.459   3.195 -1.5088 -3.6865 -2.8330
  109SLPC   H6S11068   1.393   0.406   3.152  0.3867 -0.4262 -1.1535
  109SLPC   C2711069   1.424   0.478   3.352  0.9065 -0.6359  0.0669
  109SLPC   H7R11070   1.321   0.516   3.368  1.0621  0.5273 -1.4924
  109SLPC   H7S11071   1.497   0.545   3.403 -0.6596  0.7197  0.5865
  109SLPC   C2811072   1.437   0.331   3.397 -0.5179 -0.2129  0.2576
  109SLPC   H8R11073   1.545   0.314   3.379  0.0796  3.5977 -0.4781
  109SLPC   H8S11074   1.387   0.263   3.325 -1.0258  1.1771 -0.7400
  109SLPC   C2911075   1.392   0.319   3.540  0.3099  0.1433 -0.2637
  109SLPC   H9R11076   1.395   0.411   3.599 -0.5256 -0.1211  0.1957
  109SLPC  C21011077   1.345   0.207   3.601  0.4057 -0.2079 -0.0835
  109SLPC  H10R11078   1.324   0.222   3.708 -1.0633  1.0600 -0.5182
  109SLPC  C21111079   1.327   0.068   3.534 -0.4373 -0.3893 -0.0939
  109SLPC  H11R11080   1.385  -0.010   3.589 -2.6203 -0.7238  1.8799
  109SLPC  H11S11081   1.363   0.078   3.429  0.4848 -1.1936  0.1268
  109SLPC  C21211082   1.187   0.012   3.526 -0.4556 -0.2164  0.3604
  109SLPC  H12R11083   1.135  -0.006   3.621  0.1415  1.4901  1.0425
  109SLPC  C21311084   1.122  -0.008   3.411  0.4559  0.0595 -0.5743
  109SLPC  H13R11085   1.026  -0.063   3.414 -0.6785  1.9569 -0.6157
  109SLPC  C21411086   1.161   0.017   3.267 -0.7762  0.1444  0.0766
  109SLPC  H14R11087   1.212   0.115   3.272 -0.5510  0.0178  0.2730
  109SLPC  H14S11088   1.072   0.022   3.201 -0.3944 -0.5378 -0.5127
  109SLPC  C21511089   1.256  -0.082   3.209 -0.0213  0.1764 -0.1853
  109SLPC  H15R11090   1.200  -0.172   3.177  1.8590 -0.3755 -2.0875
  109SLPC  H15S11091   1.341  -0.110   3.275 -2.0815 -1.0228  2.1462
  109SLPC  C21611092   1.320  -0.024   3.079 -0.0779 -0.0384  0.0932
  109SLPC  H16R11093   1.403  -0.091   3.047  1.0832  0.2452  2.3307
  109SLPC  H16S11094   1.360   0.079   3.082 -0.8345  0.3081 -1.0771
  109SLPC  C21711095   1.214  -0.014   2.966 -0.3956  0.3043 -0.2324
  109SLPC  H17R11096   1.174   0.089   2.970  3.3469  1.9028  0.2855
  109SLPC  H17S11097   1.135  -0.091   2.976 -0.7396  0.1789 -3.0377
  109SLPC  C21811098   1.286  -0.035   2.833  0.2876  0.1792 -0.4631
  109SLPC  H18R11099   1.228   0.003   2.747 -0.5920  0.8795  0.4099
  109SLPC  H18S11100   1.298  -0.143   2.810  1.3464  0.1821  0.0213
  109SLPC  H18T11101   1.385   0.015   2.830  0.2220  0.4326  0.7856
  109SLPC   C3311102   1.945   0.701   3.068 -0.3273  0.1593  0.5695
  109SLPC   H3X11103   2.024   0.774   3.095 -2.7328  2.4065  2.0990
  109SLPC   H3Y11104   1.990   0.608   3.027 -2.7545 -0.2908 -1.3524
  109SLPC   C3411105   1.874   0.670   3.201  0.1691 -0.1760  0.2867
  109SLPC   H4X11106   1.800   0.588   3.193  0.0594 -0.3480  2.3934
  109SLPC   H4Y11107   1.804   0.747   3.240  0.6447 -0.5801  2.0353
  109SLPC   C3511108   1.971   0.623   3.307  0.1137  0.1522 -0.8002
  109SLPC   H5X11109   2.043   0.706   3.321  0.1618  0.6911 -3.6586
  109SLPC   H5Y11110   2.031   0.540   3.264 -0.9996 -2.2306  1.8793
  109SLPC   C3611111   1.892   0.587   3.431 -0.3172 -0.8280 -0.7298
  109SLPC   H6X11112   1.785   0.602   3.409 -0.1032  0.6488 -0.8730
  109SLPC   H6Y11113   1.933   0.644   3.517  0.8722 -1.5663 -0.7727
  109SLPC   C3711114   1.900   0.433   3.481  0.1862  0.0373 -0.5267
  109SLPC   H7X11115   2.008   0.407   3.485  0.3230 -0.0717  5.6763
  109SLPC   H7Y11116   1.827   0.368   3.428 -2.0819  0.9387  1.3240
  109SLPC   C3811117   1.868   0.416   3.633 -0.0860  0.2296 -0.4223
  109SLPC   H8X11118   1.759   0.433   3.645 -0.1944 -1.9159  2.8796
  109SLPC   H8Y11119   1.912   0.500   3.691 -0.1267  0.6520 -0.9961
  109SLPC   C3911120   1.903   0.273   3.682  0.1671  0.4791 -0.6929
  109SLPC   H9X11121   2.009   0.256   3.655 -0.0080  1.9012 -2.4778
  109SLPC   H9Y11122   1.841   0.200   3.626 -1.8710  0.4096  1.4968
  109SLPC  C31011123   1.871   0.244   3.825  0.4322  0.6208 -0.4689
  109SLPC  H10X11124   1.917   0.317   3.896  0.8862  0.5042 -0.6413
  109SLPC  H10Y11125   1.915   0.147   3.855 -1.9094 -1.0664 -2.0956
  109SLPC  C31111126   1.719   0.242   3.847 -0.1871  0.1153 -0.5700
  109SLPC  H11X11127   1.664   0.180   3.773 -0.6189 -0.6800  0.3954
  109SLPC  H11Y11128   1.686   0.347   3.830  0.0194  1.3090  4.6329
  109SLPC  C31211129   1.680   0.204   3.989  1.1355 -0.2666  0.5489
  109SLPC  H12X11130   1.749   0.242   4.068 -0.3033  2.3986  0.6516
  109SLPC  H12Y11131   1.679   0.093   3.986  0.1003 -0.2431 -1.0801
  109SLPC  C31311132   1.542   0.253   4.033  0.5274  0.3969 -0.3239
  109SLPC  H13X11133   1.463   0.206   3.971  0.6315  0.3208 -0.3987
  109SLPC  H13Y11134   1.533   0.363   4.017 -1.9044  0.0264 -2.0648
  109SLPC  C31411135   1.517   0.232   4.185  0.0923  0.3809 -0.1155
  109SLPC  H14X11136   1.611   0.261   4.236  0.6509 -0.8593 -0.3981
  109SLPC  H14Y11137   1.499   0.122   4.185  0.9857  0.2198 -0.7378
  109SLPC  C31511138   1.396   0.302   4.241 -0.1115  0.4505  0.0582
  109SLPC  H15X11139   1.299   0.262   4.205 -0.4205 -1.1284  2.4729
  109SLPC  H15Y11140   1.404   0.407   4.205  1.4122  0.6636  0.9250
  109SLPC  C31611141   1.385   0.301   4.395 -0.4706 -0.2416 -0.0226
  109SLPC  H16X11142   1.327   0.393   4.415 -1.3332 -0.7577 -0.1015
  109SLPC  H16Y11143   1.484   0.329   4.436 -1.2502  0.3289  1.5450
  109SLPC  C31711144   1.311   0.178   4.451 -0.2858 -0.4562  0.3234
  109SLPC  H17X11145   1.344   0.095   4.385  1.1983 -0.3405  0.8833
  109SLPC  H17Y11146   1.201   0.193   4.441 -0.1921 -0.3853 -0.7604
  109SLPC  C31811147   1.348   0.164   4.598  0.4258 -0.4729 -0.2663
  109SLPC  H18X11148   1.314   0.252   4.656  1.2454  1.2339 -2.2299
  109SLPC  H18Y11149   1.457   0.162   4.618 -0.0693 -0.9733  2.8382
  109SLPC  H18Z11150   1.297   0.074   4.640 -0.0721 -0.5154 -0.9500
  110SLPC     N11151   6.121   2.884   1.854  1.1040  0.5341  0.1797
  110SLPC   C1311152   6.066   2.802   1.737  0.2326  0.5525  0.3493
  110SLPC  H13A11153   5.959   2.809   1.732  0.0282 -1.9685 -3.9280
  110SLPC  H13B11154   6.105   2.831   1.640  0.2224 -0.8289 -0.0894
  110SLPC  H13C11155   6.086   2.697   1.747  0.0425  0.2659 -1.7963
  110SLPC   C1411156   6.087   3.025   1.816  1.1790 -0.0882  0.2388
  110SLPC  H14A11157   6.163   3.064   1.750  2.6299 -1.0592  1.2977
  110SLPC  H14B11158   5.990   3.027   1.768  1.7996 -0.3630 -1.0781
  110SLPC  H14C11159   6.095   3.094   1.898  1.6618 -1.4294  1.3583
  110SLPC   C1511160   6.269   2.874   1.859 -0.9259  0.8374 -0.2663
  110SLPC  H15A11161   6.312   2.890   1.761  2.4036 -0.2125  0.8896
  110SLPC  H15B11162   6.313   2.948   1.924  1.5128 -2.5888  2.3628
  110SLPC  H15C11163   6.300   2.782   1.906  0.5186  2.1910  1.5716
  110SLPC   C1211164   6.059   2.845   1.988 -0.9019 -0.9448  0.4938
  110SLPC  H12A11165   5.952   2.840   1.972 -0.5680 -1.2926 -1.9506
  110SLPC  H12B11166   6.079   2.919   2.064 -0.9146 -4.0947  3.8536
  110SLPC   C1111167   6.099   2.712   2.053 -0.0642  0.3620 -0.2791
  110SLPC  H11A11168   6.048   2.707   2.151 -0.5679  2.6581 -0.3590
  110SLPC  H11B11169   6.204   2.735   2.083  0.1490 -1.3057  0.3541
  110SLPC     P11170   5.961   2.503   1.963  0.1693 -0.2304  0.1801
  110SLPC   O1311171   5.835   2.580   1.953  0.4911  0.1890 -0.5843
  110SLPC   O1411172   5.978   2.410   1.852 -0.0564  0.1098  0.2793
  110SLPC   O1211173   6.091   2.595   1.980  0.2718  0.1260  0.9282
  110SLPC   O1111174   5.934   2.417   2.096 -0.3708  0.1378  0.5674
  110SLPC    C111175   6.036   2.359   2.172  0.4619 -0.0917  0.3203
  110SLPC    HA11176   6.133   2.364   2.118  1.5112 -0.4639  2.0850
  110SLPC    HB11177   6.054   2.427   2.258  3.2698 -0.3754  0.0436
  110SLPC    C211178   6.020   2.213   2.225  0.6465 -0.0906 -0.3900
  110SLPC    HS11179   6.032   2.147   2.136  2.9181  0.4313 -0.5346
  110SLPC   O2111180   5.895   2.194   2.291 -0.1500  0.2663 -0.6362
  110SLPC   C2111181   5.830   2.085   2.277  0.3417 -0.1890  0.2200
  110SLPC   O2211182   5.862   1.990   2.207 -0.5085  0.3656  0.3051
  110SLPC   C2211183   5.700   2.086   2.359 -0.3565 -0.4570  0.0647
  110SLPC   H2R11184   5.716   2.151   2.447 -0.4974 -2.1438  1.3920
  110SLPC   H2S11185   5.622   2.120   2.288 -0.1585 -0.7366 -0.2907
  110SLPC    C311186   6.137   2.185   2.332 -0.4155  0.8222 -0.4309
  110SLPC    HX11187   6.228   2.202   2.272  0.2081  0.0781  0.2752
  110SLPC    HY11188   6.126   2.077   2.356  1.9098  0.4609 -0.7327
  110SLPC   O3111189   6.120   2.266   2.452 -0.4298 -0.3633  1.5176
  110SLPC   C3111190   6.212   2.238   2.548  0.4999  0.5219 -0.5683
  110SLPC   O3211191   6.286   2.142   2.541 -0.6728 -0.6253  0.1834
  110SLPC   C3211192   6.210   2.355   2.653  0.1741  0.5228  0.6912
  110SLPC   H2X11193   6.102   2.369   2.675 -0.2321  1.1156 -1.4973
  110SLPC   H2Y11194   6.239   2.446   2.597  2.7407 -0.9178 -0.5031
  110SLPC   C2311195   5.655   1.947   2.412 -0.9440  0.0985  0.1279
  110SLPC   H3R11196   5.750   1.897   2.439  0.4879  3.2271  1.2632
  110SLPC   H3S11197   5.592   1.890   2.339 -0.9739 -0.1019  0.3093
  110SLPC   C2411198   5.598   1.953   2.558 -0.2408 -0.1636 -0.3518
  110SLPC   H4R11199   5.643   2.035   2.618  1.7740 -1.2577 -0.2782
  110SLPC   H4S11200   5.636   1.864   2.612  3.9783  0.6298 -1.6476
  110SLPC   C2511201   5.442   1.977   2.559 -0.1680  0.0101 -0.2835
  110SLPC   H5R11202   5.409   1.899   2.488  1.3866 -1.2508  0.3059
  110SLPC   H5S11203   5.427   2.077   2.513  1.0725  0.6275  0.5622
  110SLPC   C2611204   5.383   1.973   2.703 -0.5787  0.2373 -0.5497
  110SLPC   H6R11205   5.426   1.891   2.764  1.0388  1.9146  0.6766
  110SLPC   H6S11206   5.275   1.951   2.693 -0.2211 -0.9866 -2.1973
  110SLPC   C2711207   5.404   2.113   2.765  0.8721  0.0404 -0.1901
  110SLPC   H7R11208   5.359   2.192   2.701 -0.7298 -0.4216  0.3230
  110SLPC   H7S11209   5.510   2.133   2.791  0.9894 -1.4702  0.5666
  110SLPC   C2811210   5.330   2.124   2.904  0.2345 -0.1411 -1.0356
  110SLPC   H8R11211   5.379   2.048   2.967 -0.3199  1.3171  1.2677
  110SLPC   H8S11212   5.220   2.106   2.897 -0.1415  2.0724 -1.8589
  110SLPC   C2911213   5.345   2.259   2.967  0.2457  0.6058  0.6634
  110SLPC   H9R11214   5.355   2.344   2.898  0.8127 -1.0719 -1.4187
  110SLPC  C21011215   5.343   2.291   3.101 -0.6203  0.1173  0.3114
  110SLPC  H10R11216   5.345   2.399   3.122  0.0944  0.5384 -1.6614
  110SLPC  C21111217   5.337   2.202   3.224  0.3013  0.0818  0.3005
  110SLPC  H11R11218   5.418   2.225   3.296 -0.2915  0.1499  0.9565
  110SLPC  H11S11219   5.337   2.094   3.198 -0.0117 -0.0187  0.7177
  110SLPC  C21211220   5.201   2.221   3.292  0.8662  0.0789  0.0681
  110SLPC  H12R11221   5.122   2.222   3.215  1.7326  1.3472 -0.8498
  110SLPC  C21311222   5.178   2.248   3.419 -0.0845  0.2858  0.3313
  110SLPC  H13R11223   5.077   2.231   3.458 -0.4248  0.3541 -0.5100
  110SLPC  C21411224   5.280   2.266   3.525 -0.2424 -0.0051 -0.3183
  110SLPC  H14R11225   5.387   2.257   3.498  0.5440 -2.2470  2.8949
  110SLPC  H14S11226   5.264   2.189   3.603 -2.8581  0.3253 -0.4303
  110SLPC  C21511227   5.270   2.398   3.597 -0.1053 -0.0037 -0.3279
  110SLPC  H15R11228   5.281   2.481   3.524  0.7797  0.5261  0.3833
  110SLPC  H15S11229   5.341   2.414   3.681 -1.1805 -0.6358  0.7337
  110SLPC  C21611230   5.132   2.416   3.671 -0.7601  0.0125 -0.5424
  110SLPC  H16R11231   5.130   2.341   3.754  1.0192 -0.0175 -0.4907
  110SLPC  H16S11232   5.047   2.399   3.602 -1.3215 -1.8817  0.5222
  110SLPC  C21711233   5.101   2.554   3.724 -0.9087  0.5623  0.6969
  110SLPC  H17R11234   5.113   2.630   3.644  2.4843 -1.8290 -1.3243
  110SLPC  H17S11235   5.173   2.576   3.806 -0.7649 -0.4642  0.8662
  110SLPC  C21811236   4.962   2.560   3.778 -0.4069  1.0524  0.0878
  110SLPC  H18R11237   4.884   2.524   3.708 -2.2585  0.5759  2.2694
  110SLPC  H18S11238   4.934   2.662   3.812  0.6966  0.4437  3.1498
  110SLPC  H18T11239   4.957   2.495   3.868  3.1936 -0.1883 -0.4335
  110SLPC   C3311240   6.291   2.331   2.782  0.0535  0.3032 -0.1061
  110SLPC   H3X11241   6.394   2.306   2.749 -0.7324 -2.0059 -0.9864
  110SLPC   H3Y11242   6.262   2.238   2.835  0.7460  2.0189  3.6304
  110SLPC   C3411243   6.290   2.454   2.871  0.5461  0.1228  0.0366
  110SLPC   H4X11244   6.330   2.549   2.829  2.3165 -0.8932 -0.6846
  110SLPC   H4Y11245   6.373   2.432   2.942  0.2649  0.5728  0.5124
  110SLPC   C3511246   6.162   2.486   2.953  0.0741  0.2455  0.3763
  110SLPC   H5X11247   6.136   2.400   3.019 -1.1297  1.2092  1.1891
  110SLPC   H5Y11248   6.083   2.495   2.875  2.0598  0.2844 -1.7481
  110SLPC   C3611249   6.180   2.610   3.040  0.0928 -0.1488 -0.2329
  110SLPC   H6X11250   6.201   2.689   2.964 -2.0112  1.1306  0.3990
  110SLPC   H6Y11251   6.265   2.604   3.110 -0.4179 -1.7462  0.2839
  110SLPC   C3711252   6.047   2.628   3.112  0.3563  0.0817 -0.8154
  110SLPC   H7X11253   5.966   2.594   3.044 -0.9298  2.5333 -0.6008
  110SLPC   H7Y11254   6.035   2.737   3.127  0.6670 -0.2104  2.1692
  110SLPC   C3811255   6.027   2.555   3.243 -0.3244  0.0419  0.7283
  110SLPC   H8X11256   6.072   2.456   3.222 -1.2803 -0.9971  3.2563
  110SLPC   H8Y11257   5.919   2.532   3.258 -0.7692 -0.0445 -2.0798
  110SLPC   C3911258   6.094   2.609   3.373 -0.4688  0.4700 -0.8565
  110SLPC   H9X11259   6.048   2.708   3.387 -0.3414  0.3140  0.7731
  110SLPC   H9Y11260   6.204   2.610   3.356 -0.1629 -0.6234  0.7655
  110SLPC  C31011261   6.065   2.534   3.500  0.0656 -0.0094 -1.0181
  110SLPC  H10X11262   6.128   2.443   3.516 -1.9711 -1.1358  1.3902
  110SLPC  H10Y11263   5.960   2.498   3.497 -0.1549  0.0435  2.3376
  110SLPC  C31111264   6.076   2.618   3.632  0.6223  0.4221  0.0464
  110SLPC  H11X11265   6.018   2.712   3.622  0.4456  0.3724  0.5883
  110SLPC  H11Y11266   6.183   2.647   3.628  1.0581 -1.1891 -0.8646
  110SLPC  C31211267   6.044   2.541   3.756  0.6921 -0.1172 -0.2862
  110SLPC  H12X11268   6.108   2.451   3.770 -1.1488 -1.5256 -0.5307
  110SLPC  H12Y11269   5.940   2.503   3.753 -0.8723  3.7037 -0.7028
  110SLPC  C31311270   6.052   2.645   3.873  0.0036  0.0556  0.2693
  110SLPC  H13X11271   5.957   2.701   3.882 -0.7357 -1.2158  0.6669
  110SLPC  H13Y11272   6.137   2.714   3.853  0.8148 -1.0034 -0.0612
  110SLPC  C31411273   6.076   2.562   4.001 -0.5537  1.0864  1.1885
  110SLPC  H14X11274   6.147   2.480   3.979 -0.2351  2.0514 -1.8755
  110SLPC  H14Y11275   5.985   2.511   4.040  0.7698 -1.5301  1.0455
  110SLPC  C31511276   6.149   2.637   4.110  0.3698 -0.8018 -0.2988
  110SLPC  H15X11277   6.228   2.702   4.068  2.2199 -1.7107  1.6106
  110SLPC  H15Y11278   6.190   2.552   4.168  0.1977 -2.3107 -2.2813
  110SLPC  C31611279   6.070   2.738   4.193  0.5015 -0.3722  0.4228
  110SLPC  H16X11280   6.008   2.790   4.117 -0.8567 -1.4513  0.7467
  110SLPC  H16Y11281   6.125   2.813   4.252 -0.3731 -0.9709  2.0620
  110SLPC  C31711282   5.955   2.673   4.276  0.1217  0.0583  0.4663
  110SLPC  H17X11283   6.014   2.601   4.337 -1.2950 -1.0477  0.5871
  110SLPC  H17Y11284   5.881   2.613   4.219 -1.6751  2.9988 -0.4836
  110SLPC  C31811285   5.876   2.772   4.360 -0.5806 -0.6857  0.1702
  110SLPC  H18X11286   5.784   2.737   4.413  0.3265  1.0931  3.1667
  110SLPC  H18Y11287   5.845   2.849   4.286 -1.0500 -2.0870 -1.1347
  110SLPC  H18Z11288   5.942   2.821   4.435 -0.6830  1.8341 -1.2931
  111SLPC     N11289   1.536   6.255   2.027 -0.6069  0.8578 -0.6679
  111SLPC   C1311290   1.544   6.108   2.030  0.5921  0.4030 -0.0846
  111SLPC  H13A11291   1.641   6.082   1.990  1.2174  3.6338 -0.9218
  111SLPC  H13B11292   1.526   6.077   2.132  0.2397 -0.8666 -0.5113
  111SLPC  H13C11293   1.460   6.064   1.978 -1.9463  4.5779  0.0807
  111SLPC   C1411294   1.396   6.286   2.042 -0.1170 -0.2812 -0.2765
  111SLPC  H14A11295   1.338   6.246   1.960  0.3300 -3.2434  0.7436
  111SLPC  H14B11296   1.355   6.273   2.141  1.1289  1.3842  0.5046
  111SLPC  H14C11297   1.376   6.391   2.026 -1.4298 -0.5706 -0.6366
  111SLPC   C1511298   1.588   6.316   1.901  0.2897 -0.0566  0.1201
  111SLPC  H15A11299   1.593   6.424   1.906 -0.7461 -0.0573  1.9577
  111SLPC  H15B11300   1.691   6.289   1.883  1.2699  3.3648 -0.0119
  111SLPC  H15C11301   1.534   6.269   1.819  1.2900 -0.8097 -0.1213
  111SLPC   C1211302   1.614   6.315   2.142 -0.0848  0.1830  0.3077
  111SLPC  H12A11303   1.561   6.298   2.234  1.4759 -0.5322  1.1234
  111SLPC  H12B11304   1.610   6.423   2.132 -1.6594  0.1045 -0.1674
  111SLPC   C1111305   1.766   6.281   2.159  0.2389  0.5246  1.2169
  111SLPC  H11A11306   1.788   6.173   2.146  1.2891  0.9871 -1.7689
  111SLPC  H11B11307   1.803   6.309   2.260  0.0105 -3.2907  2.4964
  111SLPC     P11308   1.850   6.513   2.079 -0.6064 -0.3302  0.4602
  111SLPC   O1311309   1.935   6.574   1.971  0.2988  0.7917 -0.4686
  111SLPC   O1411310   1.721   6.578   2.107 -0.2714 -0.0429 -0.2840
  111SLPC   O1211311   1.841   6.353   2.063 -0.2913  0.5192 -0.2969
  111SLPC   O1111312   1.939   6.522   2.210 -0.2966 -0.2036  0.0734
  111SLPC    C111313   2.073   6.465   2.214  0.2668 -0.0429 -0.9093
  111SLPC    HA11314   2.109   6.430   2.115 -1.4265 -0.5829 -1.3769
  111SLPC    HB11315   2.145   6.545   2.242  1.2227  0.4688 -4.3291
  111SLPC    C211316   2.078   6.353   2.315 -0.2749  0.7102 -0.1694
  111SLPC    HS11317   2.045   6.258   2.269  0.8094  0.8907 -1.3912
  111SLPC   O2111318   2.003   6.384   2.434 -0.2278 -0.1237 -0.0231
  111SLPC   C2111319   1.962   6.279   2.503 -0.5054 -0.3518 -0.4025
  111SLPC   O2211320   1.963   6.162   2.463 -0.3277  0.3526  0.2678
  111SLPC   C2211321   1.919   6.320   2.643 -0.0981 -0.6719  0.4122
  111SLPC   H2R11322   1.985   6.399   2.685 -2.3488  0.3867  2.1545
  111SLPC   H2S11323   1.818   6.365   2.643  0.3247  0.3252 -1.0479
  111SLPC    C311324   2.226   6.330   2.353  0.2823  0.5486 -0.5487
  111SLPC    HX11325   2.277   6.426   2.372  0.4006  0.2174  0.9269
  111SLPC    HY11326   2.281   6.294   2.263 -0.2046  0.4539 -0.8111
  111SLPC   O3111327   2.240   6.226   2.452  0.3429 -0.3262 -0.0677
  111SLPC   C3111328   2.331   6.246   2.543 -0.4243  0.4911  0.6167
  111SLPC   O3211329   2.423   6.333   2.529  0.6916  0.2114 -0.0474
  111SLPC   C3211330   2.317   6.149   2.656  0.4095  0.0465  0.1031
  111SLPC   H2X11331   2.392   6.067   2.655  1.0746  0.6487 -0.0637
  111SLPC   H2Y11332   2.216   6.103   2.644  0.8107 -0.8206  0.0003
  111SLPC   C2311333   1.935   6.206   2.750  0.1310  0.4933 -0.5339
  111SLPC   H3R11334   2.033   6.159   2.728  0.4657  1.1229 -0.3923
  111SLPC   H3S11335   1.851   6.133   2.754 -1.3633  2.1987  1.2619
  111SLPC   C2411336   1.927   6.262   2.896 -0.1960 -0.5401 -0.2184
  111SLPC   H4R11337   1.846   6.338   2.894  0.3039 -0.0066 -2.5798
  111SLPC   H4S11338   2.017   6.324   2.917  0.1674 -0.1176 -2.6965
  111SLPC   C2511339   1.915   6.169   3.009  0.0414 -0.4317 -0.0754
  111SLPC   H5R11340   1.983   6.083   2.995  0.8396  0.1693  0.0784
  111SLPC   H5S11341   1.816   6.119   3.017 -0.1107 -0.1736 -0.3269
  111SLPC   C2611342   1.965   6.239   3.141  0.8084 -0.0139 -0.0368
  111SLPC   H6R11343   1.883   6.311   3.163  0.2273 -0.5168 -0.5432
  111SLPC   H6S11344   2.058   6.289   3.108  0.2489 -0.0884 -1.8640
  111SLPC   C2711345   1.979   6.146   3.255 -0.9047 -0.5372 -0.1094
  111SLPC   H7R11346   2.053   6.068   3.226  0.7137  0.8767  0.0766
  111SLPC   H7S11347   1.877   6.104   3.271 -1.5530  1.6513  2.2023
  111SLPC   C2811348   2.034   6.214   3.387 -0.3589  0.3465  0.6769
  111SLPC   H8R11349   1.962   6.297   3.408  0.9210  1.3874  1.0749
  111SLPC   H8S11350   2.126   6.262   3.349 -1.1293 -0.2122 -2.1164
  111SLPC   C2911351   2.062   6.125   3.504 -0.4631  0.5932 -0.1414
  111SLPC   H9R11352   2.123   6.037   3.480  0.6772  0.0575  3.9669
  111SLPC  C21011353   2.001   6.126   3.622  0.0467 -0.2242 -0.0746
  111SLPC  H10R11354   2.036   6.048   3.692  2.6190 -0.4171 -1.4703
  111SLPC  C21111355   1.894   6.214   3.668  0.4575 -0.7255 -0.5841
  111SLPC  H11R11356   1.803   6.160   3.637  1.1614 -2.1513 -0.2407
  111SLPC  H11S11357   1.893   6.313   3.617  1.9807  0.3707  1.3419
  111SLPC  C21211358   1.887   6.244   3.818 -0.0173  0.1374 -0.3507
  111SLPC  H12R11359   1.784   6.252   3.855  0.5418 -1.0991  1.6395
  111SLPC  C21311360   1.990   6.245   3.910  0.7409 -0.1414  0.0872
  111SLPC  H13R11361   1.968   6.246   4.018  0.4794 -4.0428  0.2211
  111SLPC  C21411362   2.141   6.247   3.877 -0.0938 -0.5425 -0.2398
  111SLPC  H14R11363   2.162   6.313   3.790  0.7839  1.7095  1.5836
  111SLPC  H14S11364   2.177   6.143   3.862  2.5233  0.5202 -2.0078
  111SLPC  C21511365   2.208   6.305   4.001 -0.4565 -0.5540  0.3927
  111SLPC  H15R11366   2.143   6.384   4.044  0.6141  0.8486 -0.5100
  111SLPC  H15S11367   2.303   6.348   3.966 -1.7244  1.3051 -0.9030
  111SLPC  C21611368   2.233   6.204   4.113  0.1796 -0.8409 -0.7999
  111SLPC  H16R11369   2.307   6.133   4.071 -0.6398 -1.4218 -1.2839
  111SLPC  H16S11370   2.143   6.141   4.129 -0.6003 -0.6010 -3.6313
  111SLPC  C21711371   2.289   6.263   4.238 -0.2968  0.3456  0.5793
  111SLPC  H17R11372   2.371   6.330   4.203  0.2982 -1.9059 -2.8172
  111SLPC  H17S11373   2.335   6.181   4.297 -0.9658  0.4099  1.1957
  111SLPC  C21811374   2.185   6.338   4.319 -0.1697  0.2951  0.2018
  111SLPC  H18R11375   2.231   6.359   4.417  1.5610 -1.7728 -0.0815
  111SLPC  H18S11376   2.103   6.266   4.337  1.7179 -1.8165  0.8492
  111SLPC  H18T11377   2.148   6.432   4.272 -1.0218 -0.3675 -0.5007
  111SLPC   C3311378   2.312   6.221   2.791 -1.0784 -0.1864 -0.0520
  111SLPC   H3X11379   2.259   6.149   2.857  2.1588 -2.4201  0.2953
  111SLPC   H3Y11380   2.253   6.314   2.772 -0.9621 -0.5397 -2.5355
  111SLPC   C3411381   2.453   6.257   2.844 -0.8090 -0.2715  0.7636
  111SLPC   H4X11382   2.498   6.337   2.783 -0.9107 -0.6083  0.2427
  111SLPC   H4Y11383   2.516   6.166   2.848  0.4683  0.4920 -0.9590
  111SLPC   C3511384   2.447   6.312   2.987 -0.6641  0.6424 -0.7254
  111SLPC   H5X11385   2.375   6.396   2.987 -0.5097  0.9255  2.4812
  111SLPC   H5Y11386   2.549   6.348   3.012 -0.1514  0.2972 -2.2453
  111SLPC   C3611387   2.407   6.207   3.094 -0.3371  0.4392  0.0126
  111SLPC   H6X11388   2.487   6.130   3.088  1.6963  2.4074  0.5603
  111SLPC   H6Y11389   2.312   6.156   3.067 -0.7131  2.2767 -2.4626
  111SLPC   C3711390   2.415   6.252   3.245 -0.3521 -0.5377  0.4072
  111SLPC   H7X11391   2.336   6.328   3.261  0.2288  0.2284 -0.2574
  111SLPC   H7Y11392   2.512   6.297   3.275 -0.5663 -1.0023  1.8928
  111SLPC   C3811393   2.396   6.130   3.342 -0.4437  0.4475  0.4195
  111SLPC   H8X11394   2.488   6.068   3.339 -0.3555  0.5056  1.5447
  111SLPC   H8Y11395   2.307   6.071   3.310 -0.2725  1.5026 -2.2140
  111SLPC   C3911396   2.383   6.168   3.493  0.2925  0.4164  0.2874
  111SLPC   H9X11397   2.354   6.079   3.552 -1.5540  1.1744  0.5658
  111SLPC   H9Y11398   2.305   6.244   3.515 -0.1146 -0.0303  0.3932
  111SLPC  C31011399   2.516   6.219   3.559 -0.4300 -0.4604 -0.1548
  111SLPC  H10X11400   2.556   6.307   3.503  0.3392 -1.2654 -0.9168
  111SLPC  H10Y11401   2.590   6.138   3.541  2.0271  1.3458  1.2475
  111SLPC  C31111402   2.504   6.240   3.707 -0.2213  0.0477 -0.0992
  111SLPC  H11X11403   2.464   6.152   3.761 -0.9007 -0.2756 -1.1040
  111SLPC  H11Y11404   2.433   6.326   3.712 -0.2309  0.0184  0.3048
  111SLPC  C31211405   2.634   6.289   3.772  0.1167 -0.1054  0.2499
  111SLPC  H12X11406   2.668   6.371   3.706 -0.2059 -0.6593 -0.6175
  111SLPC  H12Y11407   2.712   6.209   3.772  0.3749  0.0709 -2.5200
  111SLPC  C31311408   2.619   6.340   3.914 -0.8017 -0.0744 -1.2349
  111SLPC  H13X11409   2.580   6.263   3.984  0.7256  1.2969  1.2473
  111SLPC  H13Y11410   2.538   6.416   3.915 -1.0133 -0.1776  2.6997
  111SLPC  C31411411   2.747   6.393   3.979 -0.8132  0.1152 -0.2718
  111SLPC  H14X11412   2.776   6.482   3.920 -1.8947 -0.2885 -1.4632
  111SLPC  H14Y11413   2.829   6.318   3.981 -0.9920 -0.1176 -1.3486
  111SLPC  C31511414   2.727   6.435   4.126 -0.5235  0.0849  0.1551
  111SLPC  H15X11415   2.618   6.457   4.132 -0.5564  0.1970 -0.7441
  111SLPC  H15Y11416   2.793   6.523   4.140  1.5369 -1.3678 -0.0977
  111SLPC  C31611417   2.775   6.326   4.221  0.0028  0.2970  0.0315
  111SLPC  H16X11418   2.882   6.313   4.194  0.2327 -1.6045  1.6621
  111SLPC  H16Y11419   2.728   6.233   4.185 -1.3135  1.5121 -1.5574
  111SLPC  C31711420   2.751   6.358   4.370  0.5075 -0.4936  0.0857
  111SLPC  H17X11421   2.647   6.394   4.389  1.6137  3.5620 -0.5654
  111SLPC  H17Y11422   2.818   6.443   4.394  0.4310  0.4910 -2.8922
  111SLPC  C31811423   2.782   6.244   4.465 -0.4441  0.1235 -0.3563
  111SLPC  H18X11424   2.874   6.191   4.434 -0.8571 -0.7999 -0.0325
  111SLPC  H18Y11425   2.700   6.170   4.469  0.3169 -0.6900  1.2161
  111SLPC  H18Z11426   2.803   6.291   4.563 -1.0746 -0.7172  0.1908
  112SLPC     N11427   6.189   3.515   2.269 -0.2641 -0.4346 -0.2515
  112SLPC   C1311428   6.198   3.663   2.290 -0.3625 -0.5246  0.5024
  112SLPC  H13A11429   6.104   3.703   2.326 -1.2677 -1.2872 -0.9359
  112SLPC  H13B11430   6.287   3.685   2.348  2.0430 -2.3586 -2.1965
  112SLPC  H13C11431   6.202   3.710   2.193  0.4979  1.6375  1.5186
  112SLPC   C1411432   6.323   3.452   2.262  0.0481 -0.9387 -0.5424
  112SLPC  H14A11433   6.385   3.505   2.192  1.2369 -1.4365  0.1141
  112SLPC  H14B11434   6.381   3.463   2.353 -0.8278 -0.4755 -0.0268
  112SLPC  H14C11435   6.322   3.345   2.244 -0.3574 -0.8069 -1.3263
  112SLPC   C1511436   6.119   3.486   2.139 -0.2456  0.3596 -0.3751
  112SLPC  H15A11437   6.094   3.382   2.128  1.5389 -0.4675  2.5432
  112SLPC  H15B11438   6.040   3.559   2.125 -0.1862  0.3636 -0.6990
  112SLPC  H15C11439   6.181   3.499   2.052 -1.5816 -0.8701 -1.5658
  112SLPC   C1211440   6.111   3.449   2.380 -0.4129  0.7470 -0.4025
  112SLPC  H12A11441   6.020   3.507   2.386 -2.0119 -1.6768  0.0983
  112SLPC  H12B11442   6.171   3.452   2.469  0.3469 -0.7200 -0.8406
  112SLPC   C1111443   6.051   3.307   2.355  0.4005  1.0330  0.0983
  112SLPC  H11A11444   5.971   3.303   2.277 -0.9091  1.6367  1.3596
  112SLPC  H11B11445   5.996   3.272   2.445  0.6011 -0.4515 -0.3335
  112SLPC     P11446   6.161   3.128   2.199  0.1107  0.1235 -0.1529
  112SLPC   O1311447   6.070   3.171   2.097  0.0448 -0.8378 -0.1254
  112SLPC   O1411448   6.307   3.141   2.164  0.3330 -0.2778  0.4134
  112SLPC   O1211449   6.144   3.209   2.335 -0.6229 -0.3484 -0.2671
  112SLPC   O1111450   6.132   2.979   2.248  0.3907  0.2690  0.3067
  112SLPC    C111451   6.219   2.900   2.338 -0.0154 -0.7639 -0.1021
  112SLPC    HA11452   6.226   2.797   2.297  0.6499 -0.4195 -0.8928
  112SLPC    HB11453   6.319   2.947   2.351 -0.8890  0.7250  1.7675
  112SLPC    C211454   6.154   2.871   2.480  0.5795  0.3358 -0.7113
  112SLPC    HS11455   6.224   2.796   2.522 -0.7312 -1.4344 -1.5600
  112SLPC   O2111456   6.017   2.828   2.469  0.0373  0.2281 -0.3352
  112SLPC   C2111457   6.005   2.702   2.456  0.0262  0.1888  0.5720
  112SLPC   O2211458   6.091   2.617   2.457 -0.3058  0.3497 -0.2023
  112SLPC   C2211459   5.860   2.666   2.426 -0.0747 -0.0192 -0.0563
  112SLPC   H2R11460   5.794   2.738   2.480  0.0428  0.3981 -0.4645
  112SLPC   H2S11461   5.847   2.672   2.316  1.2871 -0.7910 -0.2745
  112SLPC    C311462   6.150   2.994   2.573 -0.2510  0.1475  0.1213
  112SLPC    HX11463   6.077   3.073   2.545 -0.3241  1.3814  3.3238
  112SLPC    HY11464   6.252   3.038   2.572  0.5630 -1.6390  0.7483
  112SLPC   O3111465   6.116   2.963   2.707  0.1934  0.1309  0.4071
  112SLPC   C3111466   5.993   2.978   2.760  0.1274 -0.2496  0.2534
  112SLPC   O3211467   5.897   3.031   2.705  0.6077  0.1895  0.1820
  112SLPC   C3211468   5.983   2.928   2.903 -0.0246 -0.5494  0.1167
  112SLPC   H2X11469   6.078   2.882   2.938 -0.6392 -0.9328  1.3545
  112SLPC   H2Y11470   5.902   2.852   2.906 -1.6735  1.1583  0.2652
  112SLPC   C2311471   5.835   2.520   2.467 -0.4521 -0.5720 -0.6489
  112SLPC   H3R11472   5.896   2.455   2.400  1.0471  0.2324 -0.1349
  112SLPC   H3S11473   5.733   2.502   2.429 -0.7121  1.4569 -1.0441
  112SLPC   C2411474   5.825   2.495   2.617 -0.0436  0.2255 -0.1534
  112SLPC   H4R11475   5.907   2.551   2.667  0.8564  0.8939 -2.2552
  112SLPC   H4S11476   5.845   2.387   2.634  1.0869 -0.1711 -3.3295
  112SLPC   C2511477   5.693   2.535   2.692 -0.1000  0.8508  0.3193
  112SLPC   H5R11478   5.612   2.461   2.674 -0.2544  0.8410  1.0636
  112SLPC   H5S11479   5.660   2.636   2.659 -3.1917 -0.3372 -0.5446
  112SLPC   C2611480   5.719   2.523   2.844 -0.2250 -0.6426 -0.0570
  112SLPC   H6R11481   5.821   2.553   2.876 -0.2789  0.5837 -0.9456
  112SLPC   H6S11482   5.710   2.414   2.863  1.1698 -0.5883  1.1043
  112SLPC   C2711483   5.610   2.593   2.925 -0.8631 -0.5988  0.2690
  112SLPC   H7R11484   5.510   2.567   2.885 -1.6218  0.9964  1.0177
  112SLPC   H7S11485   5.625   2.703   2.914 -0.6842 -0.6698 -0.1995
  112SLPC   C2811486   5.610   2.549   3.077 -0.4802 -0.2427  0.2696
  112SLPC   H8R11487   5.710   2.579   3.115  0.5194 -1.9998 -0.8373
  112SLPC   H8S11488   5.613   2.438   3.077 -2.8704 -0.4180 -2.7675
  112SLPC   C2911489   5.501   2.619   3.162  0.5788 -0.6121 -0.4543
  112SLPC   H9R11490   5.425   2.671   3.101  0.3181 -0.1322  0.2714
  112SLPC  C21011491   5.485   2.602   3.296  0.5791 -0.4214 -0.0247
  112SLPC  H10R11492   5.421   2.674   3.350  0.9690  0.2341 -0.4219
  112SLPC  C21111493   5.569   2.519   3.391  0.1749  0.0074 -0.0253
  112SLPC  H11R11494   5.635   2.449   3.335  0.9078 -0.0018  0.8054
  112SLPC  H11S11495   5.508   2.472   3.471 -0.0324  1.7149  0.8800
  112SLPC  C21211496   5.675   2.613   3.454 -0.2476  0.0989 -0.2573
  112SLPC  H12R11497   5.729   2.687   3.394 -0.5621  1.4899  1.0932
  112SLPC  C21311498   5.709   2.614   3.583 -0.2090  0.4320 -0.0906
  112SLPC  H13R11499   5.803   2.667   3.607  0.6523 -1.3521  0.6662
  112SLPC  C21411500   5.657   2.539   3.699 -0.4416 -0.1929 -0.1823
  112SLPC  H14R11501   5.746   2.504   3.757 -1.7686 -1.6500  1.0617
  112SLPC  H14S11502   5.609   2.444   3.668  0.4942 -0.7123 -0.0821
  112SLPC  C21511503   5.569   2.616   3.793 -0.0831 -0.0786 -0.1783
  112SLPC  H15R11504   5.473   2.662   3.760 -0.5697  1.2983  2.7972
  112SLPC  H15S11505   5.623   2.700   3.843 -2.2977 -0.3577  2.9609
  112SLPC  C21611506   5.513   2.537   3.909 -1.1913  0.4233 -0.6270
  112SLPC  H16R11507   5.465   2.453   3.854  1.0843 -1.2822 -0.1751
  112SLPC  H16S11508   5.432   2.594   3.959  0.3460  0.8532  1.5710
  112SLPC  C21711509   5.618   2.489   4.008 -0.0851 -0.0424  0.1448
  112SLPC  H17R11510   5.598   2.509   4.115  0.3103  0.4220  0.1350
  112SLPC  H17S11511   5.714   2.540   3.989  0.2929 -0.2182  1.4930
  112SLPC  C21811512   5.654   2.333   4.014 -0.4044  0.1099 -0.0448
  112SLPC  H18R11513   5.682   2.288   3.916 -0.4380  1.8938 -0.9129
  112SLPC  H18S11514   5.569   2.269   4.048 -0.2088 -0.9431 -1.4285
  112SLPC  H18T11515   5.740   2.325   4.083 -0.5372  2.6944  0.5056
  112SLPC   C3311516   5.942   3.046   2.996  0.6614  0.0787 -0.2667
  112SLPC   H3X11517   5.846   3.097   2.972 -0.2595 -2.1024 -1.5372
  112SLPC   H3Y11518   6.025   3.119   3.006 -0.3833  1.1940  0.6874
  112SLPC   C3411519   5.913   2.991   3.140 -0.2033  0.3407  0.8925
  112SLPC   H4X11520   6.005   2.945   3.181  0.4333  0.9306  0.1686
  112SLPC   H4Y11521   5.850   2.901   3.129  1.4269 -1.1082  2.7386
  112SLPC   C3511522   5.864   3.085   3.252  0.4523  0.1632 -0.5071
  112SLPC   H5X11523   5.770   3.138   3.227 -1.7124 -2.0921  2.2250
  112SLPC   H5Y11524   5.939   3.166   3.264 -0.1255  0.4462  1.5889
  112SLPC   C3611525   5.834   3.012   3.384 -0.2082 -0.9068 -0.3419
  112SLPC   H6X11526   5.925   2.966   3.429  0.7710  1.9392  0.7724
  112SLPC   H6Y11527   5.750   2.939   3.379 -2.1972  1.2370 -0.0414
  112SLPC   C3711528   5.781   3.119   3.491  0.1247 -0.2508 -0.5230
  112SLPC   H7X11529   5.703   3.189   3.454 -1.0931  1.2942  4.2729
  112SLPC   H7Y11530   5.866   3.186   3.515  1.2482 -1.5008 -0.8762
  112SLPC   C3811531   5.723   3.052   3.625 -0.4061 -0.0744  0.6837
  112SLPC   H8X11532   5.695   2.947   3.601 -0.9747  0.6179 -1.9746
  112SLPC   H8Y11533   5.630   3.105   3.654 -2.0655 -2.2367 -0.3547
  112SLPC   C3911534   5.823   3.051   3.742  0.0036 -0.2458  0.3415
  112SLPC   H9X11535   5.845   3.158   3.761  0.0183  0.0164 -1.0074
  112SLPC   H9Y11536   5.909   2.988   3.713  2.2255  1.1496  3.3873
  112SLPC  C31011537   5.756   2.991   3.873  0.2510  0.2697  0.8440
  112SLPC  H10X11538   5.736   2.885   3.846  1.4196  0.2777 -0.1783
  112SLPC  H10Y11539   5.658   3.038   3.890  0.2602  0.7509 -0.3779
  112SLPC  C31111540   5.854   2.996   3.989 -0.7229  0.5784 -0.3066
  112SLPC  H11X11541   5.961   2.985   3.960  0.3932  3.7322  2.0127
  112SLPC  H11Y11542   5.836   2.915   4.063 -0.8421 -0.0879 -1.0478
  112SLPC  C31211543   5.828   3.130   4.063 -0.4883 -0.0472 -0.7882
  112SLPC  H12X11544   5.723   3.133   4.101 -0.0587  0.2059  0.4319
  112SLPC  H12Y11545   5.837   3.216   3.994  0.8122 -0.1852 -0.8029
  112SLPC  C31311546   5.915   3.159   4.188 -0.2480 -0.1236  0.1749
  112SLPC  H13X11547   6.015   3.198   4.158 -0.4631  0.8980  0.7569
  112SLPC  H13Y11548   5.942   3.059   4.228  0.1702 -0.2577 -0.4299
  112SLPC  C31411549   5.859   3.267   4.289 -0.7455 -0.1166  0.6469
  112SLPC  H14X11550   5.781   3.226   4.357 -1.5828  1.0237  0.4050
  112SLPC  H14Y11551   5.818   3.352   4.230  0.9627 -0.5956 -1.3653
  112SLPC  C31511552   5.971   3.330   4.373 -0.0310  0.8117 -0.3507
  112SLPC  H15X11553   5.916   3.394   4.445  0.6843  0.8124  0.2108
  112SLPC  H15Y11554   6.037   3.398   4.316  0.5241  0.7254  0.1775
  112SLPC  C31611555   6.055   3.227   4.450 -0.0705 -0.7665 -0.4608
  112SLPC  H16X11556   6.112   3.163   4.379  0.6806 -1.6236  0.8495
  112SLPC  H16Y11557   5.987   3.160   4.507  0.1450 -0.6588 -0.0737
  112SLPC  C31711558   6.149   3.303   4.546  0.8889  0.5653 -0.2939
  112SLPC  H17X11559   6.079   3.353   4.616 -0.1294  1.9275 -2.2047
  112SLPC  H17Y11560   6.192   3.389   4.488  0.2189  1.5032  0.5684
  112SLPC  C31811561   6.266   3.228   4.600 -0.0015  0.1770  0.0173
  112SLPC  H18X11562   6.229   3.131   4.641 -0.2688  0.4339  0.3922
  112SLPC  H18Y11563   6.312   3.287   4.681  1.6140  1.6035 -1.8509
  112SLPC  H18Z11564   6.337   3.209   4.517  1.1432  0.8185  0.8319
  113SAPC     N11565   4.361   1.635   6.612  0.6544 -0.0156  0.4506
  113SAPC   C1211566   4.440   1.630   6.475  0.4274 -0.3847 -0.4468
  113SAPC  H12A11567   4.371   1.606   6.395 -1.5215  2.5809  0.1817
  113SAPC  H12B11568   4.510   1.548   6.486 -0.0435 -0.8438 -0.7915
  113SAPC   C1311569   4.303   1.495   6.630 -0.1548 -0.0148  0.6550
  113SAPC  H13A11570   4.227   1.469   6.559 -0.0678  1.5955 -0.0766
  113SAPC  H13B11571   4.377   1.417   6.617  0.0583  0.2178  0.4563
  113SAPC  H13C11572   4.251   1.482   6.724 -0.8658 -1.2164  0.1048
  113SAPC   C1411573   4.456   1.662   6.732 -0.6440  0.2682 -0.2077
  113SAPC  H14A11574   4.459   1.770   6.732  1.2083  0.2661 -1.2677
  113SAPC  H14B11575   4.416   1.620   6.824 -0.9687  1.8801  0.4264
  113SAPC  H14C11576   4.557   1.631   6.710 -0.5802 -0.2209  0.6921
  113SAPC   C1511577   4.245   1.735   6.613  0.3791 -0.3026 -0.1440
  113SAPC  H15A11578   4.276   1.835   6.589 -0.3593  0.1678  0.7966
  113SAPC  H15B11579   4.176   1.711   6.534  1.3231 -0.3665 -0.9640
  113SAPC  H15C11580   4.197   1.733   6.710  0.1390 -0.4767 -0.2673
  113SAPC   C1111581   4.509   1.758   6.426  0.6081  0.6049 -0.5992
  113SAPC  H11A11582   4.428   1.833   6.415  1.1097  0.9524 -2.2978
  113SAPC  H11B11583   4.550   1.748   6.323  0.9727  0.1160 -0.4119
  113SAPC     P11584   4.743   1.726   6.519  0.1492  0.0952 -0.1185
  113SAPC   O1311585   4.805   1.761   6.649  0.2024 -0.7790 -0.1205
  113SAPC   O1411586   4.710   1.585   6.487  0.3929 -0.8758  0.2130
  113SAPC   O1211587   4.609   1.812   6.514  0.2456  0.1453 -0.2305
  113SAPC   O1111588   4.838   1.783   6.409  0.0045  0.1751  0.1502
  113SAPC    C111589   4.858   1.917   6.402 -0.1273  0.5403  0.8563
  113SAPC    HA11590   4.762   1.967   6.426 -1.2902 -1.4048  0.4546
  113SAPC    HB11591   4.935   1.948   6.476 -1.8114 -1.4620  3.6598
  113SAPC    C211592   4.894   1.964   6.257  0.1713  0.4852 -0.4171
  113SAPC    HS11593   4.866   2.071   6.246  2.4346  1.2779  0.6833
  113SAPC   O2111594   4.842   1.882   6.157  0.1706  0.1416 -0.1438
  113SAPC   C2111595   4.711   1.894   6.136 -0.8277 -0.5689 -0.1989
  113SAPC   O2211596   4.642   1.982   6.185  0.1915 -0.5463 -0.2142
  113SAPC   C2211597   4.681   1.791   6.035 -0.5591 -0.4822  0.4892
  113SAPC   H2R11598   4.713   1.694   6.080 -0.0773 -0.6879 -0.2669
  113SAPC   H2S11599   4.571   1.780   6.026 -0.8287  1.8337  0.3527
  113SAPC    C311600   5.044   1.963   6.225 -0.7857 -0.2166 -0.2471
  113SAPC    HX11601   5.075   1.856   6.228  0.8377  0.2608  1.2682
  113SAPC    HY11602   5.091   2.006   6.316 -1.5611 -1.4475  0.7915
  113SAPC   O3111603   5.067   2.028   6.098 -0.1857  0.3994  0.1892
  113SAPC   C3111604   5.093   2.159   6.107 -0.5499  0.6046  0.5223
  113SAPC   O3211605   5.087   2.223   6.211 -0.3747 -0.0713 -0.2286
  113SAPC   C3211606   5.128   2.215   5.969 -0.2615 -0.0916 -0.0933
  113SAPC   H2X11607   5.239   2.221   5.961 -0.1704  1.5459  1.7098
  113SAPC   H2Y11608   5.093   2.320   5.967 -1.9255 -0.5406  1.9017
  113SAPC   C2311609   4.754   1.823   5.901  0.1022 -0.1489  0.2445
  113SAPC   H3R11610   4.863   1.812   5.922  0.1135  1.6047  1.2147
  113SAPC   H3S11611   4.745   1.930   5.873  2.8706  0.1182  0.0458
  113SAPC   C2411612   4.696   1.742   5.782  0.3534 -0.0228 -0.6887
  113SAPC   H4R11613   4.597   1.781   5.751  0.6191  1.8545  0.7099
  113SAPC   H4S11614   4.677   1.635   5.806  1.9773 -0.1955 -0.0430
  113SAPC   C2511615   4.786   1.761   5.664 -0.3122 -0.2644  1.0128
  113SAPC   H5R11616   4.881   1.814   5.677  0.3967 -0.6968 -1.7030
  113SAPC   C2611617   4.760   1.732   5.531 -0.0742 -0.0395 -0.8243
  113SAPC   H6R11618   4.826   1.760   5.448 -0.6935 -0.4681 -1.4765
  113SAPC   C2711619   4.636   1.670   5.479  0.0717  0.4476 -0.2292
  113SAPC   H7R11620   4.604   1.589   5.548 -0.8182 -0.4014 -1.5797
  113SAPC   H7S11621   4.659   1.605   5.392  0.6350 -1.9013  1.5674
  113SAPC   C2811622   4.534   1.772   5.452  1.0096 -0.1581  0.0688
  113SAPC   H8R11623   4.481   1.811   5.540 -1.2681  0.6755 -1.5734
  113SAPC   C2911624   4.488   1.799   5.325 -0.0931  0.1157  0.4858
  113SAPC   H9R11625   4.411   1.876   5.317  0.0210  0.0692 -1.9145
  113SAPC  C21011626   4.537   1.746   5.200 -0.2563  0.4680  1.0009
  113SAPC  H10R11627   4.470   1.782   5.118  1.2622  0.7078 -0.1991
  113SAPC  H10S11628   4.547   1.636   5.191  0.6582  0.6486 -0.7857
  113SAPC  C21111629   4.678   1.795   5.162  0.0649  0.8004 -0.6118
  113SAPC  H11R11630   4.739   1.828   5.248 -2.1304  0.9362  0.9618
  113SAPC  C21211631   4.743   1.793   5.046  1.3235 -0.0348  1.1757
  113SAPC  H12R11632   4.851   1.814   5.049  1.0676  2.5359 -1.9358
  113SAPC  C21311633   4.693   1.728   4.918 -0.1342 -0.6759  0.2173
  113SAPC  H13R11634   4.728   1.793   4.836 -0.2559 -1.1616 -0.2229
  113SAPC  H13S11635   4.583   1.739   4.915 -0.0775  0.7814  1.8261
  113SAPC  C21411636   4.757   1.593   4.893  0.1414  0.5581  0.8372
  113SAPC  H14R11637   4.743   1.519   4.974  1.5375 -0.1058  0.5043
  113SAPC  C21511638   4.830   1.552   4.788  0.8492 -0.4506 -0.1204
  113SAPC  H15R11639   4.859   1.446   4.784  0.4429 -0.6259  1.1051
  113SAPC  C21611640   4.848   1.637   4.667  0.3340  0.2223 -0.1031
  113SAPC  H16R11641   4.938   1.602   4.613  1.7935 -1.1838  2.9804
  113SAPC  H16S11642   4.853   1.746   4.688  2.2840  0.7494 -2.7625
  113SAPC  C21711643   4.730   1.610   4.564 -0.4759 -0.1786  0.5073
  113SAPC  H17R11644   4.753   1.671   4.473  1.0542  0.1993  1.1190
  113SAPC  H17S11645   4.632   1.650   4.597 -1.0585  0.2581 -1.6030
  113SAPC  C21811646   4.705   1.461   4.522 -0.4891 -0.1792  0.3361
  113SAPC  H18R11647   4.683   1.399   4.611  0.6884  2.0555  2.3066
  113SAPC  H18S11648   4.797   1.411   4.484  0.0787 -1.9014  3.5983
  113SAPC  C21911649   4.590   1.463   4.415  0.3273 -0.7435 -0.4523
  113SAPC  H19R11650   4.588   1.363   4.367 -0.6015 -0.4098 -1.1503
  113SAPC  H19S11651   4.593   1.549   4.344 -5.5178 -0.4905 -0.9369
  113SAPC  C22011652   4.451   1.476   4.479  0.4813 -0.3992  0.3810
  113SAPC  H20R11653   4.362   1.450   4.418  0.0379 -0.0832  0.8814
  113SAPC  H20S11654   4.442   1.578   4.522  1.8535 -0.8042  1.7238
  113SAPC  H20T11655   4.449   1.412   4.569  0.4648 -1.6032 -0.4474
  113SAPC   C3311656   5.060   2.135   5.847  0.7778  0.0239 -0.5532
  113SAPC   H3X11657   4.960   2.178   5.829  0.0742 -0.4912  1.8450
  113SAPC   H3Y11658   5.039   2.029   5.875 -0.4904  0.3399 -0.2477
  113SAPC   C3411659   5.132   2.149   5.720 -0.3844  0.2445  0.2773
  113SAPC   H4X11660   5.225   2.087   5.720  0.0519  0.6121 -4.0740
  113SAPC   H4Y11661   5.176   2.251   5.723  0.6590 -0.2053  1.1858
  113SAPC   C3511662   5.051   2.113   5.597 -0.2501 -0.1513  0.2044
  113SAPC   H5X11663   4.964   2.182   5.600  0.6282  0.9869  0.6204
  113SAPC   H5Y11664   5.018   2.008   5.611 -0.9656 -0.0321 -0.5565
  113SAPC   C3611665   5.125   2.115   5.464  0.2962 -0.3855  0.1162
  113SAPC   H6X11666   5.216   2.053   5.480  0.6464  0.4025  1.3864
  113SAPC   H6Y11667   5.152   2.223   5.455  1.0309 -0.3729  1.8459
  113SAPC   C3711668   5.050   2.057   5.346  0.7050  0.3630 -0.0183
  113SAPC   H7X11669   4.946   2.096   5.345  0.3811 -0.4991 -0.9259
  113SAPC   H7Y11670   5.040   1.949   5.366  0.3359  0.6556  1.4786
  113SAPC   C3811671   5.118   2.091   5.212  0.3670  1.3580 -0.2544
  113SAPC   H8X11672   5.222   2.055   5.227 -0.2412  0.6621  3.3542
  113SAPC   H8Y11673   5.108   2.197   5.182 -1.4838  0.5923 -2.5772
  113SAPC   C3911674   5.065   1.998   5.099 -0.2394 -0.5655  0.3633
  113SAPC   H9X11675   5.006   1.907   5.122 -0.5037 -1.3258 -2.8711
  113SAPC   H9Y11676   5.154   1.976   5.036 -1.1390  0.8911 -1.5318
  113SAPC  C31011677   4.984   2.072   4.993 -0.6944 -0.5761  0.4473
  113SAPC  H10X11678   5.035   2.168   4.970  0.2221 -0.7627  1.6058
  113SAPC  H10Y11679   4.879   2.095   5.021 -2.3702  1.5975 -5.9078
  113SAPC  C31111680   4.992   2.016   4.847 -0.0383  0.2041  0.0837
  113SAPC  H11X11681   4.961   1.911   4.830 -1.2528  0.3273  1.3557
  113SAPC  H11Y11682   5.095   2.026   4.805 -0.4919  0.8148 -0.9324
  113SAPC  C31211683   4.906   2.088   4.745 -0.1260 -0.0822  0.8944
  113SAPC  H12X11684   4.931   2.195   4.762  1.1395 -0.1037 -0.6256
  113SAPC  H12Y11685   4.800   2.062   4.764 -0.4813 -1.9161 -2.6830
  113SAPC  C31311686   4.934   2.046   4.599  0.0792 -0.5943  0.2666
  113SAPC  H13X11687   4.945   1.939   4.572  0.0338 -0.0572 -2.0426
  113SAPC  H13Y11688   5.026   2.098   4.565  1.0537 -2.4872 -0.1252
  113SAPC  C31411689   4.835   2.099   4.500  0.5703 -0.1535  0.3647
  113SAPC  H14X11690   4.810   2.205   4.519  0.6255 -0.8554  6.4376
  113SAPC  H14Y11691   4.745   2.034   4.507  1.3828 -1.3359  0.1889
  113SAPC  C31511692   4.876   2.085   4.349 -0.6218  0.5674 -0.5965
  113SAPC  H15X11693   4.969   2.141   4.331  0.6085 -0.6356  1.5377
  113SAPC  H15Y11694   4.802   2.140   4.287 -2.9699 -1.0807  0.5753
  113SAPC  C31611695   4.894   1.936   4.308  0.3021 -0.0320 -0.2614
  113SAPC  H16X11696   4.803   1.878   4.332  1.2060 -1.9347 -1.1804
  113SAPC  H16Y11697   4.973   1.889   4.370 -0.0477 -0.5156 -0.1743
  113SAPC  C31711698   4.932   1.909   4.162 -1.0796 -0.3680  0.3696
  113SAPC  H17X11699   4.867   1.959   4.087 -1.9054 -2.6240 -0.5191
  113SAPC  H17Y11700   4.917   1.800   4.143  1.8508 -0.6084 -1.0161
  113SAPC  C31811701   5.082   1.944   4.139 -0.1753  0.2468  0.8130
  113SAPC  H18X11702   5.089   2.054   4.127  0.7181  0.1755  0.5838
  113SAPC  H18Y11703   5.096   1.908   4.035 -0.7181  4.1419 -0.7489
  113SAPC  H18Z11704   5.150   1.896   4.214  1.6185  2.0718  0.4398
  114SAPC     N11705   1.731   3.187   6.881 -0.7448  0.9781  0.3051
  114SAPC   C1211706   1.758   3.053   6.942  0.2211  0.1573 -0.2021
  114SAPC  H12A11707   1.781   3.066   7.047 -1.4576  0.2808  0.1745
  114SAPC  H12B11708   1.846   3.014   6.894  0.1848  0.1463 -0.2597
  114SAPC   C1311709   1.684   3.178   6.738  0.0875 -0.7602  0.4523
  114SAPC  H13A11710   1.681   3.277   6.696  1.4676 -1.7942 -2.3777
  114SAPC  H13B11711   1.754   3.132   6.670 -1.6756 -1.0341 -1.2931
  114SAPC  H13C11712   1.587   3.129   6.731  0.0912 -1.0331  1.9132
  114SAPC   C1411713   1.615   3.248   6.956  0.5402 -1.3192  0.2352
  114SAPC  H14A11714   1.648   3.284   7.052  0.0188  1.4039 -0.4985
  114SAPC  H14B11715   1.589   3.338   6.901  1.2143 -1.3827 -0.1909
  114SAPC  H14C11716   1.534   3.177   6.962 -0.2640 -0.5223 -0.8142
  114SAPC   C1511717   1.849   3.287   6.891 -0.0057  0.4282  0.1177
  114SAPC  H15A11718   1.822   3.380   6.844  0.7709  0.1053 -0.9842
  114SAPC  H15B11719   1.869   3.302   6.997 -0.7569 -0.1036  0.3456
  114SAPC  H15C11720   1.939   3.256   6.841 -0.2363 -0.0576 -0.0130
  114SAPC   C1111721   1.652   2.937   6.943  0.7434  0.9370  0.1723
  114SAPC  H11A11722   1.559   2.976   6.991 -0.5952 -0.3258 -1.2957
  114SAPC  H11B11723   1.674   2.856   7.016 -1.8530  0.0049  0.0134
  114SAPC     P11724   1.695   2.758   6.753  0.2658 -0.1533 -0.1466
  114SAPC   O1311725   1.841   2.755   6.767 -0.3715  0.0598  0.1525
  114SAPC   O1411726   1.630   2.637   6.812  0.5722 -0.3030  0.2129
  114SAPC   O1211727   1.625   2.886   6.815 -0.3949 -0.6964  0.7858
  114SAPC   O1111728   1.670   2.763   6.593  0.5167  0.0730 -0.1247
  114SAPC    C111729   1.538   2.779   6.543 -0.1502  0.1513  0.4350
  114SAPC    HA11730   1.482   2.684   6.530  0.7127 -0.4813  1.2218
  114SAPC    HB11731   1.477   2.853   6.598  0.4279  0.5241  0.5817
  114SAPC    C211732   1.547   2.846   6.404 -0.0045 -0.3051  0.4979
  114SAPC    HS11733   1.443   2.854   6.365 -0.0610  3.2530  1.0613
  114SAPC   O2111734   1.633   2.768   6.314 -0.3038 -0.1324 -0.3006
  114SAPC   C2111735   1.587   2.656   6.279 -0.2496  0.5568  0.1724
  114SAPC   O2211736   1.480   2.602   6.304  0.6056 -0.1248 -0.0668
  114SAPC   C2211737   1.693   2.577   6.197  0.3849 -0.3465 -0.1523
  114SAPC   H2R11738   1.791   2.586   6.249  0.3295 -4.9505  1.2757
  114SAPC   H2S11739   1.666   2.469   6.201 -2.4920  0.3244  1.3318
  114SAPC    C311740   1.620   2.986   6.422  0.3771  0.5134  0.0790
  114SAPC    HX11741   1.725   2.957   6.448  0.2723  1.2768  1.4209
  114SAPC    HY11742   1.576   3.041   6.507 -2.0344 -1.3733  0.1646
  114SAPC   O3111743   1.624   3.060   6.301  1.0841 -0.1777  0.0146
  114SAPC   C3111744   1.514   3.129   6.274 -0.8417 -0.4204  0.5255
  114SAPC   O3211745   1.412   3.137   6.344  0.1578  0.0226 -0.3851
  114SAPC   C3211746   1.549   3.210   6.151  1.0421 -0.0869 -0.9515
  114SAPC   H2X11747   1.659   3.217   6.144  1.2227  0.8841  1.6145
  114SAPC   H2Y11748   1.506   3.311   6.167 -1.6665 -0.9232 -2.2682
  114SAPC   C2311749   1.701   2.623   6.048 -0.4339 -0.4099  0.1026
  114SAPC   H3R11750   1.796   2.588   6.001  0.5849  1.2325  0.8299
  114SAPC   H3S11751   1.717   2.733   6.045  0.8201 -0.5948 -2.0123
  114SAPC   C2411752   1.568   2.594   5.965 -0.4026  0.4664  0.0068
  114SAPC   H4R11753   1.570   2.672   5.886  2.5845  1.0524  0.5444
  114SAPC   H4S11754   1.478   2.619   6.024  1.6303  1.3986  2.9544
  114SAPC   C2511755   1.556   2.465   5.889  0.1464  0.1007 -0.1426
  114SAPC   H5R11756   1.517   2.379   5.946  0.2003  1.2054  1.6415
  114SAPC   C2611757   1.579   2.433   5.758 -0.6879  0.4869  0.6647
  114SAPC   H6R11758   1.566   2.327   5.730  1.5044  0.1024  0.9137
  114SAPC   C2711759   1.632   2.527   5.650 -0.2495  0.2869  0.4325
  114SAPC   H7R11760   1.744   2.528   5.649 -0.1385  3.9868 -1.4816
  114SAPC   H7S11761   1.608   2.629   5.689 -0.9797  0.0797  0.5385
  114SAPC   C2811762   1.568   2.495   5.516 -0.5906 -1.4323 -0.1782
  114SAPC   H8R11763   1.589   2.393   5.482  3.0973 -0.2062 -2.1189
  114SAPC   C2911764   1.524   2.581   5.427  0.1932 -0.0486  0.2628
  114SAPC   H9R11765   1.471   2.544   5.338  1.0496  0.3643 -0.4464
  114SAPC  C21011766   1.508   2.732   5.445  0.1634 -0.2667  0.5107
  114SAPC  H10R11767   1.553   2.782   5.357  0.6618 -0.7098  0.5023
  114SAPC  H10S11768   1.558   2.782   5.531  0.7479  1.0302 -0.5516
  114SAPC  C21111769   1.365   2.755   5.436 -0.1401 -0.3992  0.0051
  114SAPC  H11R11770   1.314   2.684   5.369  0.4958 -2.4668  1.5848
  114SAPC  C21211771   1.301   2.864   5.485 -0.0971  0.1088  0.9396
  114SAPC  H12R11772   1.192   2.865   5.470 -0.0645  1.7560  0.5569
  114SAPC  C21311773   1.357   2.978   5.568  0.2963 -0.4461 -0.3764
  114SAPC  H13R11774   1.410   3.047   5.498 -0.0206  1.4837  1.1805
  114SAPC  H13S11775   1.435   2.946   5.640  0.2995  0.3805 -0.0012
  114SAPC  C21411776   1.259   3.062   5.643  0.4545 -0.2467  0.3465
  114SAPC  H14R11777   1.270   3.170   5.624  2.0209 -0.4957 -0.3183
  114SAPC  C21511778   1.185   3.018   5.744  0.1588  0.3011  0.1541
  114SAPC  H15R11779   1.121   3.087   5.800  0.7814  0.2105  0.9958
  114SAPC  C21611780   1.157   2.876   5.794 -0.0875  1.1212  0.1991
  114SAPC  H16R11781   1.151   2.795   5.718  3.0105  0.8097  0.1310
  114SAPC  H16S11782   1.065   2.873   5.855  0.2075  0.5652  0.6263
  114SAPC  C21711783   1.270   2.816   5.882 -0.1853 -0.5621  0.0909
  114SAPC  H17R11784   1.367   2.838   5.834 -1.1819  1.6197 -1.0656
  114SAPC  H17S11785   1.263   2.705   5.889 -0.3232 -0.5967 -0.5250
  114SAPC  C21811786   1.261   2.875   6.023 -0.6780  0.5162  0.2298
  114SAPC  H18R11787   1.246   2.985   6.025 -2.8709  0.3048 -1.4376
  114SAPC  H18S11788   1.354   2.856   6.081 -0.1169 -0.9461 -1.0572
  114SAPC  C21911789   1.141   2.813   6.094  0.2551 -0.3468  0.4516
  114SAPC  H19R11790   1.144   2.702   6.091 -1.4459 -0.4345 -2.6108
  114SAPC  H19S11791   1.041   2.837   6.053 -0.4981 -1.0261  1.8435
  114SAPC  C22011792   1.144   2.873   6.234  0.3558  0.3416 -0.6801
  114SAPC  H20R11793   1.050   2.856   6.291  0.6786  1.0738  0.0906
  114SAPC  H20S11794   1.155   2.983   6.224 -0.1645  0.3324 -1.3664
  114SAPC  H20T11795   1.219   2.833   6.306  0.4680 -1.2807 -1.6305
  114SAPC   C3311796   1.487   3.148   6.025  0.5741  0.1757 -0.4477
  114SAPC   H3X11797   1.377   3.157   6.037  0.4940  1.3166 -1.7671
  114SAPC   H3Y11798   1.520   3.043   6.014  1.7920  0.1874  2.2884
  114SAPC   C3411799   1.516   3.234   5.895 -0.2600  0.2492  0.3439
  114SAPC   H4X11800   1.512   3.343   5.913  1.1862  0.5186 -0.7555
  114SAPC   H4Y11801   1.436   3.201   5.826 -0.0072 -1.9072  1.0022
  114SAPC   C3511802   1.646   3.202   5.826 -0.6062  0.2778 -0.2417
  114SAPC   H5X11803   1.666   3.093   5.819  1.3882  0.5160  1.0868
  114SAPC   H5Y11804   1.730   3.243   5.885  0.2907  0.5762 -1.6639
  114SAPC   C3611805   1.648   3.261   5.685 -0.3067  0.3247 -0.1862
  114SAPC   H6X11806   1.660   3.370   5.702  2.0942  0.6702 -3.1120
  114SAPC   H6Y11807   1.550   3.250   5.633 -1.6801 -2.1038  2.6038
  114SAPC   C3711808   1.763   3.212   5.592 -0.0798  0.8552 -0.0368
  114SAPC   H7X11809   1.733   3.107   5.573 -1.2359  1.3835 -1.2960
  114SAPC   H7Y11810   1.866   3.223   5.632  1.1057 -2.9221 -1.5772
  114SAPC   C3811811   1.758   3.265   5.445  0.2691  0.1246  0.0809
  114SAPC   H8X11812   1.850   3.229   5.394 -0.0952 -4.8414  2.3081
  114SAPC   H8Y11813   1.743   3.375   5.451 -0.5013  0.2795 -2.9951
  114SAPC   C3911814   1.639   3.204   5.358  0.4277 -0.3638 -0.0853
  114SAPC   H9X11815   1.546   3.208   5.419  0.2637  0.9448 -0.3806
  114SAPC   H9Y11816   1.651   3.098   5.326 -2.8153 -1.3531  1.4682
  114SAPC  C31011817   1.599   3.282   5.225 -0.3037  0.1869 -0.2740
  114SAPC  H10X11818   1.699   3.302   5.180 -0.3930  1.0459 -0.1095
  114SAPC  H10Y11819   1.551   3.375   5.261 -0.8194 -0.1522 -0.0784
  114SAPC  C31111820   1.492   3.218   5.134  0.8436 -0.0057  0.3129
  114SAPC  H11X11821   1.398   3.183   5.181  1.8979 -2.2398  0.8874
  114SAPC  H11Y11822   1.548   3.133   5.091  1.0583  0.1245  0.3324
  114SAPC  C31211823   1.456   3.324   5.025 -0.7539  0.0019 -0.5733
  114SAPC  H12X11824   1.436   3.424   5.070  0.3634 -1.2017  2.9359
  114SAPC  H12Y11825   1.363   3.291   4.974 -0.5394 -0.2395 -0.8098
  114SAPC  C31311826   1.572   3.341   4.920  0.1688 -0.2293 -0.1242
  114SAPC  H13X11827   1.587   3.246   4.865  0.1555 -1.0965  1.3271
  114SAPC  H13Y11828   1.668   3.379   4.960 -0.6512  2.5583 -0.5736
  114SAPC  C31411829   1.529   3.440   4.811 -0.7201  0.2312  0.1362
  114SAPC  H14X11830   1.526   3.545   4.847 -0.1904  1.1160 -2.1986
  114SAPC  H14Y11831   1.423   3.424   4.779 -0.0576 -1.9586 -1.1657
  114SAPC  C31511832   1.604   3.443   4.675  0.1770  0.8929 -0.6760
  114SAPC  H15X11833   1.622   3.338   4.642  0.2056  1.2942 -1.9700
  114SAPC  H15Y11834   1.699   3.499   4.671  0.0062  1.2512  0.0401
  114SAPC  C31611835   1.508   3.513   4.572  0.2902  0.6837 -0.0177
  114SAPC  H16X11836   1.480   3.615   4.607 -1.2326  1.1006 -2.2681
  114SAPC  H16Y11837   1.416   3.452   4.560 -0.4176  2.2267 -3.5447
  114SAPC  C31711838   1.568   3.537   4.434  0.1722  0.2758  0.6085
  114SAPC  H17X11839   1.586   3.443   4.379 -1.4417  0.2315  0.1224
  114SAPC  H17Y11840   1.669   3.584   4.441  0.6548 -0.5120 -0.8088
  114SAPC  C31811841   1.476   3.620   4.335 -0.2556 -0.2653  0.3727
  114SAPC  H18X11842   1.452   3.717   4.382  0.1385 -0.6280  1.3421
  114SAPC  H18Y11843   1.380   3.566   4.315 -0.6617  0.8417 -0.8085
  114SAPC  H18Z11844   1.529   3.643   4.241  0.2397  0.0125  0.7192
  115SAPC     N11845   0.131   4.086   6.803 -0.0626 -0.5600  0.6330
  115SAPC   C1211846  -0.013   4.049   6.756 -0.0506 -0.2284 -0.0961
  115SAPC  H12A11847  -0.011   3.957   6.700  0.0823 -1.5942  2.0295
  115SAPC  H12B11848  -0.052   4.123   6.688 -2.8657 -1.5456 -0.0694
  115SAPC   C1311849   0.178   4.020   6.924 -0.4440 -0.0409 -0.4758
  115SAPC  H13A11850   0.178   3.913   6.909  1.9205 -0.5376  2.1917
  115SAPC  H13B11851   0.282   4.045   6.942 -0.7075  1.7601 -1.2132
  115SAPC  H13C11852   0.118   4.045   7.010  1.6166  3.6755  0.0827
  115SAPC   C1411853   0.234   4.060   6.694  0.0896  0.6291 -0.4933
  115SAPC  H14A11854   0.329   4.103   6.721  0.2693 -1.1584  2.0099
  115SAPC  H14B11855   0.247   3.953   6.698 -0.3136  0.5534 -1.0759
  115SAPC  H14C11856   0.202   4.098   6.598  0.7279 -0.2631 -1.0702
  115SAPC   C1511857   0.123   4.238   6.821  0.4545  0.0304 -0.5607
  115SAPC  H15A11858   0.220   4.273   6.852  0.1320  1.0197 -0.6402
  115SAPC  H15B11859   0.097   4.296   6.734  0.4121 -0.7403 -1.0645
  115SAPC  H15C11860   0.053   4.255   6.902  1.0865 -1.3607  0.3148
  115SAPC   C1111861  -0.119   4.040   6.863 -1.0546  0.0729 -0.4576
  115SAPC  H11A11862  -0.089   3.956   6.930 -1.9136 -0.0681 -0.2351
  115SAPC  H11B11863  -0.215   4.002   6.822 -0.3194 -1.2198 -1.0378
  115SAPC     P11864  -0.229   4.275   6.885 -0.1418  0.0285  0.3855
  115SAPC   O1311865  -0.368   4.230   6.893 -0.1930  0.3602 -0.4940
  115SAPC   O1411866  -0.190   4.400   6.953  0.1731  0.8459 -0.3837
  115SAPC   O1211867  -0.140   4.160   6.938  0.8623 -0.1328  0.3661
  115SAPC   O1111868  -0.182   4.290   6.735 -0.2055 -0.1828  0.0863
  115SAPC    C111869  -0.287   4.278   6.635  0.6979  0.1513  0.5240
  115SAPC    HA11870  -0.370   4.209   6.660  1.1142 -0.3963  0.4185
  115SAPC    HB11871  -0.339   4.375   6.619 -0.6709 -0.4798  1.0130
  115SAPC    C211872  -0.237   4.221   6.496 -0.0183 -0.7453 -0.3155
  115SAPC    HS11873  -0.174   4.130   6.500  1.1839 -0.0723 -2.0977
  115SAPC   O2111874  -0.166   4.319   6.431  0.2355 -0.0961  0.1501
  115SAPC   C2111875  -0.033   4.307   6.441 -0.1455  0.1983  0.1461
  115SAPC   O2211876   0.024   4.236   6.523 -0.1471  0.0722  0.4443
  115SAPC   C2211877   0.029   4.406   6.345  0.0124  0.3349  0.1452
  115SAPC   H2R11878  -0.008   4.364   6.249  0.2672  0.0604  0.1638
  115SAPC   H2S11879  -0.014   4.504   6.374 -0.5430 -0.0631  0.7030
  115SAPC    C311880  -0.364   4.199   6.413 -0.1643 -0.4391  0.1089
  115SAPC    HX11881  -0.417   4.295   6.392  2.4712  0.7688 -1.5274
  115SAPC    HY11882  -0.424   4.134   6.480 -0.4979  0.4196  0.6730
  115SAPC   O3111883  -0.331   4.131   6.292 -0.3520 -0.4873  0.7586
  115SAPC   C3111884  -0.291   4.202   6.185 -0.3845  0.2548  0.3526
  115SAPC   O3211885  -0.311   4.321   6.173 -0.0381 -0.0404 -0.9137
  115SAPC   C3211886  -0.184   4.128   6.116  0.7968  0.2322  0.3193
  115SAPC   H2X11887  -0.170   4.033   6.173 -0.4698 -1.0798 -1.4617
  115SAPC   H2Y11888  -0.090   4.188   6.118  0.5617  0.6201  2.1497
  115SAPC   C2311889   0.184   4.418   6.358 -0.8793  0.1448 -0.4561
  115SAPC   H3R11890   0.234   4.322   6.387  0.0115 -0.5681 -3.9026
  115SAPC   H3S11891   0.203   4.485   6.444  2.1143  0.2328 -1.0780
  115SAPC   C2411892   0.265   4.481   6.240  0.5382  0.6364 -0.5349
  115SAPC   H4R11893   0.374   4.494   6.257  0.1196  1.5938  1.8772
  115SAPC   H4S11894   0.224   4.581   6.213  1.1112  0.4935 -2.0008
  115SAPC   C2511895   0.246   4.388   6.127 -0.2785  0.4347  0.1307
  115SAPC   H5R11896   0.292   4.290   6.143  1.2062  0.6465 -2.2565
  115SAPC   C2611897   0.209   4.417   5.998  0.0947  0.4120 -0.0787
  115SAPC   H6R11898   0.186   4.340   5.921 -2.7383  1.3527 -0.3032
  115SAPC   C2711899   0.152   4.544   5.942 -0.0871 -0.1423 -0.5408
  115SAPC   H7R11900   0.192   4.569   5.841 -1.5299 -1.1256 -1.3907
  115SAPC   H7S11901   0.189   4.634   5.996 -2.0000 -0.1187  0.8421
  115SAPC   C2811902   0.002   4.556   5.946  0.4996  0.7394 -0.6972
  115SAPC   H8R11903  -0.035   4.596   6.041  2.1360 -0.0857  0.3321
  115SAPC   C2911904  -0.087   4.511   5.853 -0.4451  0.0982  0.4553
  115SAPC   H9R11905  -0.192   4.511   5.885 -0.6643 -0.0276 -0.2586
  115SAPC  C21011906  -0.043   4.438   5.728 -0.1175 -0.5011 -0.6156
  115SAPC  H10R11907  -0.095   4.340   5.720 -1.0297  0.0024 -0.9725
  115SAPC  H10S11908   0.064   4.409   5.728 -0.1583 -0.7444  1.0437
  115SAPC  C21111909  -0.062   4.514   5.603  0.1843 -1.4618  0.0931
  115SAPC  H11R11910  -0.005   4.607   5.592 -0.9596 -0.4023  2.5211
  115SAPC  C21211911  -0.153   4.489   5.500 -0.2368  0.5018 -0.3258
  115SAPC  H12R11912  -0.160   4.559   5.415  2.1726 -0.4361 -1.4026
  115SAPC  C21311913  -0.234   4.360   5.491  0.1291 -0.5455  0.4997
  115SAPC  H13R11914  -0.339   4.378   5.520  0.8939  1.8046  2.1693
  115SAPC  H13S11915  -0.197   4.280   5.558 -0.4835  0.8558  2.6110
  115SAPC  C21411916  -0.212   4.300   5.354 -0.0484  0.1337 -0.5492
  115SAPC  H14R11917  -0.112   4.305   5.308  0.0373 -1.0765 -0.5368
  115SAPC  C21511918  -0.302   4.239   5.279  0.7096 -0.1607  0.5435
  115SAPC  H15R11919  -0.277   4.211   5.176 -1.7831  0.1398 -0.2055
  115SAPC  C21611920  -0.446   4.207   5.323  0.1329 -0.5982 -0.3628
  115SAPC  H16R11921  -0.519   4.281   5.282 -0.3615  0.0314  1.5583
  115SAPC  H16S11922  -0.444   4.220   5.433 -1.4722 -2.3439 -0.0784
  115SAPC  C21711923  -0.500   4.071   5.282  0.1250  0.3400  0.3936
  115SAPC  H17R11924  -0.457   3.989   5.343  0.3700 -0.0007 -0.2191
  115SAPC  H17S11925  -0.463   4.056   5.178 -0.4245  2.5390 -0.1675
  115SAPC  C21811926  -0.653   4.076   5.302  0.1909  0.5142 -0.0211
  115SAPC  H18R11927  -0.695   4.169   5.257 -0.3124  0.2128 -0.1745
  115SAPC  H18S11928  -0.676   4.066   5.410 -0.1206  0.3419 -0.1021
  115SAPC  C21911929  -0.730   3.955   5.230 -0.0277 -0.6775 -0.0982
  115SAPC  H19R11930  -0.841   3.961   5.229 -0.0888 -1.7203 -1.1080
  115SAPC  H19S11931  -0.694   3.880   5.304 -1.2505  0.1956  1.4433
  115SAPC  C22011932  -0.685   3.936   5.084 -0.0048  0.5628  0.5386
  115SAPC  H20R11933  -0.668   4.034   5.034  2.3423 -0.2608 -0.4234
  115SAPC  H20S11934  -0.760   3.884   5.019  0.7993 -0.0976  0.1164
  115SAPC  H20T11935  -0.581   3.896   5.086  0.0449  0.6953  0.5752
  115SAPC   C3311936  -0.229   4.090   5.979 -0.0118  0.3706  0.3660
  115SAPC   H3X11937  -0.292   4.171   5.937 -0.7176 -0.6650 -0.6350
  115SAPC   H3Y11938  -0.303   4.007   5.992  2.0586 -1.3631  1.7483
  115SAPC   C3411939  -0.113   4.063   5.884  0.6439 -0.7766 -0.4095
  115SAPC   H4X11940  -0.045   3.981   5.917  1.3888  0.3857  1.0703
  115SAPC   H4Y11941  -0.042   4.149   5.880 -2.1010  1.5902 -1.6920
  115SAPC   C3511942  -0.156   4.027   5.741  0.0778  0.5215  0.3954
  115SAPC   H5X11943  -0.066   4.016   5.677 -0.8757  0.9908 -1.0845
  115SAPC   H5Y11944  -0.225   4.103   5.698 -2.8797 -1.4721  1.2853
  115SAPC   C3611945  -0.237   3.896   5.719 -0.0866  0.0427 -0.0607
  115SAPC   H6X11946  -0.333   3.895   5.776 -0.4003 -3.0153 -0.4948
  115SAPC   H6Y11947  -0.186   3.812   5.771 -1.3559 -1.9051 -1.8160
  115SAPC   C3711948  -0.273   3.833   5.586  0.3519  0.7242 -0.1415
  115SAPC   H7X11949  -0.351   3.891   5.532 -0.7199 -1.0980 -0.6269
  115SAPC   H7Y11950  -0.324   3.737   5.610 -1.0385  1.5537  0.3617
  115SAPC   C3811951  -0.149   3.810   5.500  0.6382  0.0880  0.1059
  115SAPC   H8X11952  -0.168   3.726   5.429 -0.1093 -0.0648  0.4806
  115SAPC   H8Y11953  -0.057   3.783   5.556 -0.4834 -3.9235  0.3280
  115SAPC   C3911954  -0.114   3.926   5.416  0.5073  0.3425 -0.2017
  115SAPC   H9X11955  -0.075   4.004   5.485  1.5868  2.8523 -3.4366
  115SAPC   H9Y11956  -0.201   3.974   5.369  1.0754  0.7339 -0.8701
  115SAPC  C31011957  -0.014   3.903   5.304  0.0471  0.6325  0.1232
  115SAPC  H10X11958  -0.050   3.826   5.233 -1.6242  1.7294 -0.2701
  115SAPC  H10Y11959   0.079   3.871   5.356  0.7784  0.9589 -0.9386
  115SAPC  C31111960   0.018   4.026   5.219  0.5141 -0.5591 -0.2259
  115SAPC  H11X11961   0.048   4.113   5.282  0.6572  1.1580 -2.5420
  115SAPC  H11Y11962  -0.075   4.058   5.166  1.1893  1.4653 -0.2909
  115SAPC  C31211963   0.128   3.989   5.115 -0.7204 -0.2062 -0.4255
  115SAPC  H12X11964   0.094   3.890   5.079  0.3677 -1.0008  0.6471
  115SAPC  H12Y11965   0.218   3.974   5.179 -1.2988  0.8423  0.6988
  115SAPC  C31311966   0.174   4.103   5.021  0.8472  0.0811  0.6624
  115SAPC  H13X11967   0.161   4.198   5.077 -0.5081 -0.4235  1.2527
  115SAPC  H13Y11968   0.110   4.127   4.933 -0.4905  0.5596  1.7319
  115SAPC  C31411969   0.319   4.099   4.971 -0.0498  0.1309 -0.4097
  115SAPC  H14X11970   0.325   4.000   4.921  0.1107  0.3551 -0.8369
  115SAPC  H14Y11971   0.383   4.104   5.061 -1.6259 -0.2861  0.7743
  115SAPC  C31511972   0.359   4.202   4.870 -0.7490  0.3903  0.3225
  115SAPC  H15X11973   0.400   4.295   4.913 -1.4351  1.7041 -1.7176
  115SAPC  H15Y11974   0.277   4.230   4.801 -0.3359  1.7770  0.3774
  115SAPC  C31611975   0.474   4.153   4.778  0.0166  0.6480 -1.5866
  115SAPC  H16X11976   0.509   4.250   4.737 -0.4941  1.2628 -0.6036
  115SAPC  H16Y11977   0.427   4.095   4.696  0.7986  1.5660 -2.7115
  115SAPC  C31711978   0.587   4.070   4.838  0.7053  0.5817  0.7422
  115SAPC  H17X11979   0.668   4.048   4.765 -0.0609  2.0369 -0.5924
  115SAPC  H17Y11980   0.547   3.970   4.864 -3.4016  1.8094 -0.2012
  115SAPC  C31811981   0.660   4.138   4.953  0.2815  0.9084 -0.0799
  115SAPC  H18X11982   0.753   4.094   4.994  0.3405  0.4009 -0.7291
  115SAPC  H18Y11983   0.587   4.145   5.036  1.7297 -0.4433  1.3631
  115SAPC  H18Z11984   0.674   4.244   4.925 -1.1669  1.5804  1.5515
  116SAPC     N11985   3.493   3.308   6.875  0.2244  0.9361 -0.7208
  116SAPC   C1211986   3.429   3.421   6.798 -0.0162 -0.1844  0.5249
  116SAPC  H12A11987   3.444   3.510   6.858  1.2163  0.1659 -0.2652
  116SAPC  H12B11988   3.322   3.407   6.803  0.3844 -3.9607  3.0254
  116SAPC   C1311989   3.420   3.296   7.010 -0.1378  0.2013  0.3292
  116SAPC  H13A11990   3.316   3.274   6.991  0.4786 -2.6994 -0.0925
  116SAPC  H13B11991   3.453   3.219   7.078  2.4490  0.6701 -0.2896
  116SAPC  H13C11992   3.420   3.394   7.055  0.6888  1.0721 -1.4659
  116SAPC   C1411993   3.456   3.188   6.803  0.5786  0.0294 -0.7965
  116SAPC  H14A11994   3.456   3.097   6.861 -0.1056 -0.2120 -1.1561
  116SAPC  H14B11995   3.359   3.195   6.755  1.0427 -0.0725 -1.7713
  116SAPC  H14C11996   3.523   3.175   6.719 -1.6176  0.1370 -2.6594
  116SAPC   C1511997   3.643   3.325   6.881 -0.0045 -0.2817 -0.0412
  116SAPC  H15A11998   3.693   3.231   6.893  0.2878 -0.5326 -2.6072
  116SAPC  H15B11999   3.681   3.365   6.788 -2.3250  0.6789 -0.6450
  116SAPC  H15C12000   3.671   3.392   6.961  1.3607 -2.1261  1.0932
  116SAPC   C1112001   3.486   3.448   6.652  0.5685  0.0587 -0.2430
  116SAPC  H11A12002   3.423   3.532   6.616 -2.5621 -1.4068  1.4019
  116SAPC  H11B12003   3.474   3.351   6.601  0.4811 -1.1812  2.0195
  116SAPC     P12004   3.691   3.523   6.522 -0.5162 -0.0100 -0.0087
  116SAPC   O1312005   3.587   3.565   6.427  0.2711 -0.7636 -0.0870
  116SAPC   O1412006   3.818   3.596   6.547  0.3154 -0.2199  0.0561
  116SAPC   O1212007   3.620   3.491   6.655 -0.3685  0.5817  0.3988
  116SAPC   O1112008   3.741   3.382   6.493  0.0524 -0.6859  0.2632
  116SAPC    C112009   3.664   3.302   6.397 -0.7975  0.0472 -0.0495
  116SAPC    HA12010   3.592   3.237   6.452  0.0183 -1.0234 -0.2037
  116SAPC    HB12011   3.598   3.361   6.329 -0.0842  0.2584 -0.5718
  116SAPC    C212012   3.752   3.214   6.313 -0.5719 -0.3440 -0.3846
  116SAPC    HS12013   3.796   3.144   6.389 -0.8070  0.5974  0.6385
  116SAPC   O2112014   3.844   3.309   6.256 -0.1286 -0.2476  0.7841
  116SAPC   C2112015   3.976   3.292   6.287 -0.0954 -0.6594  0.1825
  116SAPC   O2212016   4.011   3.221   6.381 -0.1152 -0.0881  0.3052
  116SAPC   C2212017   4.067   3.379   6.202 -0.1148  0.3343 -0.3320
  116SAPC   H2R12018   4.127   3.447   6.266 -1.5440  2.8890 -1.5954
  116SAPC   H2S12019   4.136   3.317   6.141 -0.9993  1.1867 -2.2491
  116SAPC    C312020   3.677   3.134   6.201 -0.2404 -0.5568 -0.1350
  116SAPC    HX12021   3.581   3.089   6.235 -1.1681  0.7419 -0.9250
  116SAPC    HY12022   3.736   3.050   6.161  0.7194 -0.3060  0.7145
  116SAPC   O3112023   3.629   3.230   6.100  0.3802 -0.0224  0.2642
  116SAPC   C3112024   3.718   3.247   6.001  0.1201 -0.6265 -1.3932
  116SAPC   O3212025   3.823   3.190   5.996  0.0766  1.2304 -0.3267
  116SAPC   C3212026   3.679   3.372   5.919 -0.0114  0.7802 -0.6781
  116SAPC   H2X12027   3.735   3.463   5.947 -0.0505  1.1078 -1.6385
  116SAPC   H2Y12028   3.570   3.386   5.935  0.4318  3.2604  0.6218
  116SAPC   C2312029   3.995   3.472   6.098 -0.4809  1.1878 -0.4082
  116SAPC   H3R12030   3.910   3.526   6.146 -1.9860 -0.4629 -1.0935
  116SAPC   H3S12031   3.954   3.412   6.014  0.3780 -0.6488  0.4311
  116SAPC   C2412032   4.095   3.561   6.030  0.1343  0.1659  0.4791
  116SAPC   H4R12033   4.139   3.630   6.105  0.8090 -0.7726  0.9679
  116SAPC   H4S12034   4.045   3.623   5.953  1.1028 -0.8898 -1.0476
  116SAPC   C2512035   4.200   3.487   5.959  0.1665 -1.1558  0.3735
  116SAPC   H5R12036   4.289   3.462   6.019  0.8257 -2.2768 -1.0160
  116SAPC   C2612037   4.217   3.462   5.830  0.2717  0.3768  0.3733
  116SAPC   H6R12038   4.310   3.423   5.786 -0.3570 -1.8319  0.8706
  116SAPC   C2712039   4.115   3.509   5.728 -0.5191  0.3090 -0.2732
  116SAPC   H7R12040   4.154   3.599   5.676  1.7241 -1.2188 -1.4217
  116SAPC   H7S12041   4.014   3.525   5.770  0.3740 -1.1212  2.6479
  116SAPC   C2812042   4.088   3.400   5.622 -0.1205  0.0377  0.1673
  116SAPC   H8R12043   3.994   3.346   5.639  0.8408 -1.9502 -0.5314
  116SAPC   C2912044   4.170   3.360   5.518  0.5870 -0.0192 -0.0073
  116SAPC   H9R12045   4.143   3.269   5.464  0.2711  0.4645 -0.6713
  116SAPC  C21012046   4.308   3.419   5.483 -0.0414 -0.3390 -0.9315
  116SAPC  H10R12047   4.374   3.344   5.435  1.7072  0.7006 -0.2810
  116SAPC  H10S12048   4.356   3.452   5.578  0.0495  1.3682 -1.5255
  116SAPC  C21112049   4.291   3.531   5.390  0.1442 -0.5093 -0.2006
  116SAPC  H11R12050   4.246   3.618   5.442  2.3861  0.4360  0.3071
  116SAPC  C21212051   4.305   3.526   5.253  0.0466 -0.0407 -0.4630
  116SAPC  H12R12052   4.287   3.620   5.199 -1.2820  0.4853  0.8120
  116SAPC  C21312053   4.353   3.410   5.167 -0.4494  0.3653 -0.3758
  116SAPC  H13R12054   4.422   3.342   5.222 -2.1071 -0.3445  0.8892
  116SAPC  H13S12055   4.424   3.433   5.084  2.0983 -0.6871  1.3839
  116SAPC  C21412056   4.234   3.325   5.126  0.2137  0.0996 -0.5558
  116SAPC  H14R12057   4.146   3.330   5.193  0.1354 -0.8601 -0.5658
  116SAPC  C21512058   4.224   3.249   5.016  0.0696  0.4805  0.0636
  116SAPC  H15R12059   4.133   3.190   5.001  0.2989  0.3828 -1.0149
  116SAPC  C21612060   4.330   3.227   4.909  0.6181  0.2808 -0.4763
  116SAPC  H16R12061   4.362   3.121   4.924 -4.2467 -1.2438  0.9822
  116SAPC  H16S12062   4.425   3.285   4.918  0.7362  0.0347 -0.1072
  116SAPC  C21712063   4.268   3.231   4.763 -0.0206 -1.0074 -0.3915
  116SAPC  H17R12064   4.194   3.313   4.757  2.0997  0.9230 -2.5940
  116SAPC  H17S12065   4.201   3.142   4.758 -1.0518 -0.3012  0.5176
  116SAPC  C21812066   4.376   3.225   4.646  0.1255 -0.1695 -0.1351
  116SAPC  H18R12067   4.460   3.283   4.691  0.3673 -1.6547  1.4378
  116SAPC  H18S12068   4.337   3.282   4.559 -1.3561  1.8567  1.7677
  116SAPC  C21912069   4.418   3.083   4.612 -0.2724  0.7664  0.1851
  116SAPC  H19R12070   4.335   3.036   4.555  0.0478  1.1608 -0.6141
  116SAPC  H19S12071   4.439   3.012   4.695  2.2447  0.3606 -0.7297
  116SAPC  C22012072   4.542   3.073   4.519  0.1141  0.3486  0.5218
  116SAPC  H20R12073   4.626   3.132   4.561 -0.8525  3.1636 -1.1920
  116SAPC  H20S12074   4.513   3.125   4.425  0.0346 -0.0294  0.3329
  116SAPC  H20T12075   4.575   2.968   4.506 -0.5311  0.3726 -1.7986
  116SAPC   C3312076   3.712   3.328   5.771 -0.2996 -0.0752  0.3168
  116SAPC   H3X12077   3.683   3.223   5.749  1.5973 -0.7462  0.7805
  116SAPC   H3Y12078   3.823   3.328   5.759 -0.2598 -3.7280 -0.3617
  116SAPC   C3412079   3.636   3.418   5.672  0.4951 -0.5510  0.4248
  116SAPC   H4X12080   3.663   3.520   5.705 -1.9372  0.0510  0.7571
  116SAPC   H4Y12081   3.527   3.414   5.691  0.8205 -1.7952  2.3707
  116SAPC   C3512082   3.677   3.397   5.527 -0.1010  0.4199  0.5114
  116SAPC   H5X12083   3.788   3.391   5.538  0.1428  1.8965 -0.7607
  116SAPC   H5Y12084   3.651   3.484   5.463 -0.8308 -1.0966 -1.3931
  116SAPC   C3612085   3.617   3.260   5.471  0.3708  0.5080  0.8872
  116SAPC   H6X12086   3.507   3.259   5.483  0.0884  1.4298 -1.2022
  116SAPC   H6Y12087   3.669   3.175   5.520  1.3485 -0.0160 -0.9647
  116SAPC   C3712088   3.630   3.241   5.319  0.3018  0.0746 -0.1996
  116SAPC   H7X12089   3.578   3.331   5.280 -1.4806 -0.1195  1.5135
  116SAPC   H7Y12090   3.577   3.150   5.283  0.4280 -0.6357  1.3111
  116SAPC   C3812091   3.775   3.251   5.279  0.2633  0.3026 -0.1864
  116SAPC   H8X12092   3.819   3.151   5.298 -0.9853  0.1701  2.4489
  116SAPC   H8Y12093   3.825   3.332   5.337 -0.7702  0.0518  1.1111
  116SAPC   C3912094   3.812   3.277   5.132 -0.0324 -0.6223 -0.1913
  116SAPC   H9X12095   3.921   3.259   5.119 -0.4031 -2.2933 -1.3449
  116SAPC   H9Y12096   3.779   3.380   5.104 -0.2798 -0.1314  1.7798
  116SAPC  C31012097   3.745   3.184   5.037 -0.2680  0.6244  0.0329
  116SAPC  H10X12098   3.635   3.170   5.046 -0.1129 -2.2110 -1.3226
  116SAPC  H10Y12099   3.787   3.082   5.049  1.1879  0.9231 -2.0196
  116SAPC  C31112100   3.778   3.216   4.889  0.4708  0.6701 -0.0565
  116SAPC  H11X12101   3.885   3.196   4.867 -0.2094 -3.9388 -0.1589
  116SAPC  H11Y12102   3.765   3.326   4.876 -0.2702  0.6710  0.5947
  116SAPC  C31212103   3.689   3.135   4.793  0.1300 -0.8027 -0.7708
  116SAPC  H12X12104   3.584   3.172   4.802  0.6399  0.5830 -0.2341
  116SAPC  H12Y12105   3.682   3.033   4.836  0.4357  0.6596  3.2160
  116SAPC  C31312106   3.751   3.127   4.652  0.8379  0.5571 -0.0442
  116SAPC  H13X12107   3.855   3.090   4.653  0.4427 -0.5830  0.1145
  116SAPC  H13Y12108   3.748   3.230   4.611  1.1939  0.1825 -1.0165
  116SAPC  C31412109   3.666   3.041   4.559  0.3102 -0.6005  0.6231
  116SAPC  H14X12110   3.590   3.111   4.519 -0.1843 -2.4672 -1.9642
  116SAPC  H14Y12111   3.626   2.958   4.621  1.2885 -0.4442  1.4932
  116SAPC  C31512112   3.744   2.994   4.433  0.4643 -0.0710  0.3406
  116SAPC  H15X12113   3.781   3.082   4.376 -0.2448  1.3110  1.9570
  116SAPC  H15Y12114   3.680   2.931   4.368 -0.8271  1.8766 -0.3766
  116SAPC  C31612115   3.859   2.892   4.464  0.2262 -0.8589 -0.1640
  116SAPC  H16X12116   3.948   2.952   4.492 -0.9697  1.2013 -0.5930
  116SAPC  H16Y12117   3.883   2.850   4.364 -2.8468  1.2439 -1.9496
  116SAPC  C31712118   3.816   2.787   4.567  0.3706  0.3765  0.6575
  116SAPC  H17X12119   3.722   2.744   4.528  0.3590 -1.1861  2.3089
  116SAPC  H17Y12120   3.808   2.833   4.668  0.1257  0.5945  0.5418
  116SAPC  C31812121   3.908   2.661   4.570  0.9655 -0.0949  0.0370
  116SAPC  H18X12122   3.914   2.633   4.463  1.5593 -0.0647  0.0577
  116SAPC  H18Y12123   3.848   2.579   4.614 -0.7230  2.0802  2.0442
  116SAPC  H18Z12124   4.005   2.688   4.617  0.0081  1.8657  1.0434
  117SAPC     N12125   6.388   1.709   7.033  0.1688  0.2203 -0.3750
  117SAPC   C1212126   6.506   1.720   6.942  0.2083  0.0220 -0.2914
  117SAPC  H12A12127   6.572   1.640   6.973  1.6328  1.0791 -0.5367
  117SAPC  H12B12128   6.563   1.807   6.970 -2.5669  1.0666  2.6502
  117SAPC   C1312129   6.306   1.836   7.028 -0.0024  0.5998 -0.5492
  117SAPC  H13A12130   6.368   1.921   7.051  1.3802 -0.0255 -1.8807
  117SAPC  H13B12131   6.265   1.853   6.930 -0.2049 -2.4177 -1.0899
  117SAPC  H13C12132   6.227   1.843   7.103  2.3934 -2.6968  2.6555
  117SAPC   C1412133   6.314   1.580   6.999 -0.3443  0.3196 -0.3338
  117SAPC  H14A12134   6.264   1.603   6.906 -0.9725 -2.8296 -0.8878
  117SAPC  H14B12135   6.380   1.494   6.998 -3.1591 -1.9634 -0.7025
  117SAPC  H14C12136   6.225   1.562   7.057 -1.0511 -1.6168 -1.8985
  117SAPC   C1512137   6.445   1.697   7.174  0.1989 -0.4606 -0.2422
  117SAPC  H15A12138   6.361   1.695   7.241 -0.2039 -0.7681 -0.7455
  117SAPC  H15B12139   6.482   1.596   7.186 -0.3771 -0.8203 -1.2948
  117SAPC  H15C12140   6.498   1.783   7.210 -1.1513  0.4233 -0.3100
  117SAPC   C1112141   6.491   1.704   6.791 -0.2014 -0.8687  0.2899
  117SAPC  H11A12142   6.445   1.604   6.774  1.3744 -1.2914 -2.0961
  117SAPC  H11B12143   6.591   1.698   6.741 -0.9686 -0.9970 -1.2810
  117SAPC     P12144   6.476   1.957   6.713  0.0772 -0.1649 -0.2314
  117SAPC   O1312145   6.377   2.048   6.660  0.1901  0.5568  0.3138
  117SAPC   O1412146   6.544   1.998   6.840 -0.3468  0.0419  0.3340
  117SAPC   O1212147   6.417   1.809   6.739  0.4760 -0.4771 -0.2311
  117SAPC   O1112148   6.575   1.931   6.594 -0.2372  0.4455  0.1089
  117SAPC    C112149   6.525   1.882   6.468  0.0784 -0.5523  0.2025
  117SAPC    HA12150   6.416   1.900   6.458  0.0815  0.4832  1.6511
  117SAPC    HB12151   6.582   1.947   6.398  0.7093 -0.3264  0.9221
  117SAPC    C212152   6.576   1.740   6.452 -0.3008 -0.1206  0.1350
  117SAPC    HS12153   6.542   1.678   6.537 -0.2013 -2.5162 -1.4823
  117SAPC   O2112154   6.723   1.748   6.444 -0.3325 -0.6534  0.0454
  117SAPC   C2112155   6.788   1.633   6.449 -0.1575 -1.0226  0.0814
  117SAPC   O2212156   6.735   1.535   6.493 -0.2647  0.8443  0.0344
  117SAPC   C2212157   6.933   1.657   6.401 -0.8272 -0.0276 -0.6248
  117SAPC   H2R12158   6.970   1.747   6.454  0.9020 -1.3356  0.4722
  117SAPC   H2S12159   6.997   1.574   6.437  0.8654  0.8115 -1.5832
  117SAPC    C312160   6.513   1.663   6.331  0.1750  0.6891  0.3718
  117SAPC    HX12161   6.404   1.656   6.353  0.4038  0.6597  1.5963
  117SAPC    HY12162   6.562   1.563   6.331 -0.2734  0.4428 -1.0752
  117SAPC   O3112163   6.532   1.735   6.210  0.0614 -0.4042 -0.0165
  117SAPC   C3112164   6.433   1.761   6.124  0.0139  0.4171 -0.0425
  117SAPC   O3212165   6.324   1.709   6.128 -0.1845  0.5741  0.7438
  117SAPC   C3212166   6.479   1.860   6.020  0.4965  0.0601 -0.3968
  117SAPC   H2X12167   6.527   1.945   6.073  0.4007 -0.4330  0.4980
  117SAPC   H2Y12168   6.383   1.894   5.975 -0.4969 -1.1731  0.7306
  117SAPC   C2312169   6.956   1.660   6.249  0.1655 -0.1598 -0.1678
  117SAPC   H3R12170   6.937   1.564   6.195 -0.2704 -0.3661  0.3441
  117SAPC   H3S12171   7.066   1.678   6.245  0.2316  0.0180  1.7229
  117SAPC   C2412172   6.891   1.779   6.174 -0.1708  0.5773  0.1611
  117SAPC   H4R12173   6.781   1.779   6.193  0.0995  1.9370  2.0407
  117SAPC   H4S12174   6.891   1.763   6.064 -0.5504 -0.4087  0.2978
  117SAPC   C2512175   6.931   1.918   6.209 -0.1181  0.2862  0.1731
  117SAPC   H5R12176   6.926   1.935   6.318  0.6413  0.2692  0.2160
  117SAPC   C2612177   6.980   2.020   6.134 -0.1714 -0.7636 -0.1568
  117SAPC   H6R12178   6.996   2.117   6.182 -0.7871 -1.9028  2.5452
  117SAPC   C2712179   7.014   1.997   5.987 -0.1129 -0.1241 -0.0180
  117SAPC   H7R12180   7.022   1.889   5.962 -0.2485  0.0437 -0.8110
  117SAPC   H7S12181   7.107   2.051   5.960  1.6163 -1.5023  2.7149
  117SAPC   C2812182   6.891   2.050   5.911  0.2101 -0.8098 -0.0696
  117SAPC   H8R12183   6.794   2.016   5.950  0.0314 -0.4217 -0.1752
  117SAPC   C2912184   6.900   2.125   5.799  0.0968 -0.0167  0.7186
  117SAPC   H9R12185   6.813   2.159   5.741  1.3144  0.2384 -1.0317
  117SAPC  C21012186   7.014   2.190   5.732  0.4465 -0.2538  0.0408
  117SAPC  H10R12187   7.085   2.217   5.813  0.3637 -0.2228  0.1030
  117SAPC  H10S12188   6.980   2.287   5.690 -2.7590 -1.5783 -0.7290
  117SAPC  C21112189   7.082   2.094   5.635 -0.7056 -0.5363 -0.0547
  117SAPC  H11R12190   7.085   1.989   5.670 -0.1408 -0.3360  0.5413
  117SAPC  C21212191   7.144   2.133   5.519 -0.2606  0.3678 -0.8598
  117SAPC  H12R12192   7.191   2.060   5.452 -0.0457 -0.9241  0.6171
  117SAPC  C21312193   7.135   2.275   5.464  0.4248 -0.2869  0.4137
  117SAPC  H13R12194   7.053   2.327   5.518 -0.5112  0.0919 -1.3037
  117SAPC  H13S12195   7.098   2.272   5.359  0.8358  2.3110  0.1441
  117SAPC  C21412196   7.274   2.333   5.478 -0.2013 -0.3836 -0.0343
  117SAPC  H14R12197   7.332   2.289   5.561  0.9923 -0.6289 -0.9611
  117SAPC  C21512198   7.345   2.410   5.397  0.2725 -0.0260 -0.2372
  117SAPC  H15R12199   7.450   2.432   5.423  0.0740  1.8168 -0.7928
  117SAPC  C21612200   7.310   2.468   5.264  0.3194 -0.1044  0.8449
  117SAPC  H16R12201   7.289   2.577   5.266 -0.2486 -0.0988 -1.6316
  117SAPC  H16S12202   7.218   2.432   5.213  1.5170 -1.4066 -0.4740
  117SAPC  C21712203   7.426   2.450   5.164  0.0981 -0.2460 -0.0289
  117SAPC  H17R12204   7.529   2.478   5.195 -0.7107  1.4436  1.2433
  117SAPC  H17S12205   7.406   2.519   5.080 -1.0221  0.0892  0.4929
  117SAPC  C21812206   7.444   2.309   5.112 -0.2105 -0.5248 -0.1245
  117SAPC  H18R12207   7.348   2.273   5.070 -0.0789  1.0967 -1.9667
  117SAPC  H18S12208   7.480   2.250   5.199 -1.6272 -1.7674 -0.3399
  117SAPC  C21912209   7.565   2.295   5.007  0.4576 -0.3135 -0.1456
  117SAPC  H19R12210   7.572   2.190   4.972 -1.3343 -0.5640  0.1259
  117SAPC  H19S12211   7.658   2.334   5.053  0.2219 -1.3681  1.3104
  117SAPC  C22012212   7.539   2.385   4.881  0.3173  0.7643  0.3201
  117SAPC  H20R12213   7.453   2.343   4.825  0.7421  1.0826 -0.6013
  117SAPC  H20S12214   7.618   2.376   4.803  1.2129  1.0001  1.1805
  117SAPC  H20T12215   7.530   2.491   4.913 -1.8581  1.1386 -1.3010
  117SAPC   C3312216   6.569   1.798   5.911 -0.6933  0.1681  0.5891
  117SAPC   H3X12217   6.538   1.692   5.897  1.5429 -0.7242  1.8358
  117SAPC   H3Y12218   6.674   1.785   5.944 -0.4477  0.9097  0.1351
  117SAPC   C3412219   6.560   1.868   5.779  0.2238  0.7333  0.5542
  117SAPC   H4X12220   6.640   1.944   5.763  0.4652  0.4838  0.5631
  117SAPC   H4Y12221   6.459   1.913   5.772 -1.1457 -2.1787 -0.2675
  117SAPC   C3512222   6.568   1.763   5.663 -0.1189 -0.0609  0.7272
  117SAPC   H5X12223   6.472   1.707   5.663  0.1320 -0.5404 -1.0208
  117SAPC   H5Y12224   6.655   1.694   5.674 -0.7180 -0.9590 -0.0330
  117SAPC   C3612225   6.593   1.833   5.526  0.1848 -0.1490 -0.4521
  117SAPC   H6X12226   6.508   1.899   5.502 -0.8744 -1.0952  0.5682
  117SAPC   H6Y12227   6.580   1.749   5.454 -1.1580 -0.5723  0.2523
  117SAPC   C3712228   6.725   1.917   5.508 -0.0186  0.5746  0.0995
  117SAPC   H7X12229   6.809   1.863   5.558  1.1466  2.4240  0.2157
  117SAPC   H7Y12230   6.720   2.014   5.560  0.0376  1.7161 -1.9295
  117SAPC   C3812231   6.738   1.959   5.360 -0.3921  0.6722  0.9058
  117SAPC   H8X12232   6.645   2.000   5.317  0.5269 -0.4398 -2.4539
  117SAPC   H8Y12233   6.747   1.864   5.302 -2.7987  1.6528 -1.2348
  117SAPC   C3912234   6.858   2.054   5.332  0.2345 -0.0288 -0.4354
  117SAPC   H9X12235   6.946   2.008   5.381 -0.1330  0.0271  0.2939
  117SAPC   H9Y12236   6.846   2.153   5.381  1.5807  0.4361 -1.0113
  117SAPC  C31012237   6.866   2.077   5.181 -0.1994 -0.5123  0.0713
  117SAPC  H10X12238   6.760   2.084   5.148 -0.0887  0.5908 -0.0726
  117SAPC  H10Y12239   6.900   1.985   5.129 -1.8721 -1.1753  0.0598
  117SAPC  C31112240   6.951   2.201   5.138 -0.2753 -0.6083 -0.2376
  117SAPC  H11X12241   7.056   2.185   5.172 -1.3858 -2.4209  2.7091
  117SAPC  H11Y12242   6.932   2.295   5.193  1.4863 -0.3925  0.0578
  117SAPC  C31212243   6.956   2.225   4.985  0.6819 -0.6480 -0.1900
  117SAPC  H12X12244   6.858   2.251   4.940  1.7489 -0.1885 -2.4207
  117SAPC  H12Y12245   6.976   2.128   4.935  0.7301  0.2445 -1.9845
  117SAPC  C31312246   7.060   2.321   4.929  0.9294  0.0989 -0.6567
  117SAPC  H13X12247   7.155   2.265   4.940  0.1944 -1.3749 -1.6190
  117SAPC  H13Y12248   7.067   2.416   4.988  3.2338 -0.2908 -0.2002
  117SAPC  C31412249   7.033   2.348   4.785  0.4060  0.2287  0.5462
  117SAPC  H14X12250   6.931   2.391   4.790  0.5148  0.5037  0.4777
  117SAPC  H14Y12251   7.033   2.258   4.721  1.3331  0.6153 -0.0279
  117SAPC  C31512252   7.139   2.440   4.732  0.3730  0.4381  0.1592
  117SAPC  H15X12253   7.234   2.387   4.756 -0.3772 -1.0028  0.0190
  117SAPC  H15Y12254   7.139   2.539   4.783  2.3064  0.5970 -0.0483
  117SAPC  C31612255   7.113   2.472   4.583  0.0054 -0.3538 -0.9450
  117SAPC  H16X12256   7.005   2.498   4.571  0.7474  4.6863  0.5770
  117SAPC  H16Y12257   7.146   2.393   4.513 -1.7374 -0.8358 -1.2652
  117SAPC  C31712258   7.185   2.597   4.531  0.1689  0.9687  0.1937
  117SAPC  H17X12259   7.292   2.600   4.563  0.0978  0.5654  0.4768
  117SAPC  H17Y12260   7.133   2.681   4.581 -0.9399  1.6251 -1.9418
  117SAPC  C31812261   7.177   2.612   4.382  0.2705 -0.4583  0.4093
  117SAPC  H18X12262   7.196   2.718   4.353  3.5747 -0.8940  0.5126
  117SAPC  H18Y12263   7.085   2.578   4.331 -1.4759  3.8289  0.3006
  117SAPC  H18Z12264   7.262   2.565   4.327 -0.8532 -0.8813 -1.0416
  118SAPC     N12265   3.854   4.310   7.043 -0.4720 -0.5711 -0.3304
  118SAPC   C1212266   3.968   4.337   6.948 -0.2132  0.1753 -0.0448
  118SAPC  H12A12267   4.055   4.295   6.997 -1.2168 -0.8126  0.9405
  118SAPC  H12B12268   3.981   4.443   6.933 -1.3383  0.4477  0.8618
  118SAPC   C1312269   3.718   4.328   6.977  0.6748  0.1700  0.0884
  118SAPC  H13A12270   3.702   4.425   6.931 -0.5304  1.5034  3.0157
  118SAPC  H13B12271   3.711   4.260   6.894  1.1639 -1.1578  1.0895
  118SAPC  H13C12272   3.638   4.308   7.048 -0.4082  0.2717 -1.0654
  118SAPC   C1412273   3.861   4.162   7.071  0.6509 -0.1216 -0.3554
  118SAPC  H14A12274   3.837   4.113   6.978 -1.4403 -0.2412  0.1980
  118SAPC  H14B12275   3.954   4.124   7.112  0.9038  1.5921  0.7867
  118SAPC  H14C12276   3.784   4.135   7.142 -0.4029 -0.0942 -1.4581
  118SAPC   C1512277   3.868   4.399   7.164 -0.4074  0.5346 -0.1095
  118SAPC  H15A12278   3.853   4.503   7.140  0.7743  0.8982  0.6288
  118SAPC  H15B12279   3.805   4.353   7.240  1.0310  0.6572  1.2029
  118SAPC  H15C12280   3.969   4.384   7.198  0.1594 -1.2577 -2.3227
  118SAPC   C1112281   3.972   4.285   6.800 -0.5431 -0.1012 -0.7083
  118SAPC  H11A12282   4.074   4.308   6.761  0.2059  1.5670  1.9814
  118SAPC  H11B12283   3.895   4.332   6.736  0.9262  2.3037 -0.8618
  118SAPC     P12284   4.059   4.048   6.776  0.3483 -0.2528 -0.4625
  118SAPC   O1312285   4.179   4.107   6.835 -0.1316 -0.6692  0.0693
  118SAPC   O1412286   4.015   3.923   6.846 -0.0405 -0.5923  0.1221
  118SAPC   O1212287   3.940   4.150   6.787 -0.7143 -0.1066 -0.3565
  118SAPC   O1112288   4.081   4.020   6.623 -0.9642 -0.3633 -0.5890
  118SAPC    C112289   3.969   3.988   6.541  0.3392 -0.3401 -0.2231
  118SAPC    HA12290   3.985   3.883   6.511  1.6855 -0.8633  2.1085
  118SAPC    HB12291   3.870   3.995   6.592  0.0917  3.8285 -0.8813
  118SAPC    C212292   3.960   4.067   6.409  0.7324  0.6067  0.0866
  118SAPC    HS12293   3.867   4.038   6.354  2.8680 -3.6021 -1.7730
  118SAPC   O2112294   4.072   4.037   6.326 -0.4987 -0.2500  0.6277
  118SAPC   C2112295   4.062   3.943   6.243 -0.2802  0.6119  0.3780
  118SAPC   O2212296   3.964   3.877   6.209  0.2654  0.2177 -0.3643
  118SAPC   C2212297   4.200   3.931   6.167  0.2261  0.1725  0.1223
  118SAPC   H2R12298   4.281   3.942   6.242  0.1724  0.6967  0.1134
  118SAPC   H2S12299   4.190   3.828   6.128  1.1041 -0.0610  0.4998
  118SAPC    C312300   3.952   4.217   6.445  0.3114 -0.1981  0.7543
  118SAPC    HX12301   4.044   4.235   6.504  0.2360 -2.1679  1.5319
  118SAPC    HY12302   3.872   4.229   6.522 -1.0861  0.0069 -0.6878
  118SAPC   O3112303   3.909   4.311   6.340 -0.1899  0.1429  0.0532
  118SAPC   C3112304   4.006   4.390   6.294  0.3884  0.5115 -0.2702
  118SAPC   O3212305   4.123   4.390   6.333 -0.3005 -0.1535  0.5293
  118SAPC   C3212306   3.947   4.486   6.185  0.0020  0.0172 -0.7184
  118SAPC   H2X12307   3.915   4.575   6.243 -0.1534  0.8801 -2.0919
  118SAPC   H2Y12308   3.866   4.451   6.118 -0.3126 -0.8413  0.0800
  118SAPC   C2312309   4.211   4.023   6.049  0.0200 -0.0004 -0.2272
  118SAPC   H3R12310   4.277   4.111   6.066 -2.0403  1.7545 -0.8202
  118SAPC   H3S12311   4.112   4.068   6.025 -0.4294  0.2071  1.8241
  118SAPC   C2412312   4.273   3.940   5.934  0.1049 -0.2096 -0.3955
  118SAPC   H4R12313   4.216   3.845   5.923  0.5116 -0.4073 -0.8489
  118SAPC   H4S12314   4.377   3.903   5.944  0.3766  0.9334  1.4689
  118SAPC   C2512315   4.251   4.016   5.801  0.0171  0.6967 -0.2131
  118SAPC   H5R12316   4.302   4.113   5.810  1.0392  0.0164  1.9133
  118SAPC   C2612317   4.173   3.994   5.694  0.4440 -0.3424  0.3071
  118SAPC   H6R12318   4.163   4.082   5.628  0.3307  1.0589  2.1398
  118SAPC   C2712319   4.096   3.867   5.670  1.1943 -0.2534  0.3022
  118SAPC   H7R12320   4.118   3.787   5.744  2.9099  0.7310  0.9238
  118SAPC   H7S12321   4.132   3.823   5.575  0.7594  0.5765 -0.2597
  118SAPC   C2812322   3.944   3.889   5.674 -0.2426 -0.4423  0.0883
  118SAPC   H8R12323   3.904   3.922   5.771  3.9241  1.2900  1.4386
  118SAPC   C2912324   3.859   3.895   5.568 -0.6031  0.4507 -0.1534
  118SAPC   H9R12325   3.754   3.911   5.596 -0.1387 -0.2180  2.2006
  118SAPC  C21012326   3.898   3.858   5.424  0.1962 -0.3496 -0.0075
  118SAPC  H10R12327   3.988   3.911   5.387 -0.5611  0.7889 -0.2549
  118SAPC  H10S12328   3.818   3.888   5.354 -0.2356 -0.0926  0.5847
  118SAPC  C21112329   3.932   3.710   5.405  0.7742  0.1597  0.6122
  118SAPC  H11R12330   3.938   3.648   5.496  2.5307 -0.1374  0.3176
  118SAPC  C21212331   3.965   3.651   5.287 -0.2839 -0.2849  1.1302
  118SAPC  H12R12332   3.993   3.545   5.281 -1.6072 -0.7062  1.8649
  118SAPC  C21312333   3.941   3.713   5.152 -0.3982  0.9559  0.3274
  118SAPC  H13R12334   3.901   3.817   5.152 -0.6932  0.9316 -2.6829
  118SAPC  H13S12335   3.861   3.648   5.109  0.5428 -0.9279  1.3101
  118SAPC  C21412336   4.066   3.724   5.069  0.7139 -0.0482 -0.4656
  118SAPC  H14R12337   4.128   3.811   5.094 -3.7370  3.1329  0.7654
  118SAPC  C21512338   4.098   3.652   4.959 -0.4196  0.5198 -0.7432
  118SAPC  H15R12339   4.195   3.665   4.909  1.6034  0.8694  2.9131
  118SAPC  C21612340   4.018   3.541   4.901  0.0402  0.5944 -0.3468
  118SAPC  H16R12341   3.954   3.498   4.981  1.3196  0.7480  0.7940
  118SAPC  H16S12342   4.079   3.454   4.866 -0.0410  1.2069 -2.0730
  118SAPC  C21712343   3.929   3.585   4.782 -0.0685  0.4481  0.0272
  118SAPC  H17R12344   3.860   3.665   4.817 -1.3757 -1.5810  2.4285
  118SAPC  H17S12345   3.865   3.501   4.746  1.0832  0.0871 -1.2578
  118SAPC  C21812346   4.022   3.624   4.660 -0.1346  0.3549  0.4879
  118SAPC  H18R12347   4.071   3.532   4.623 -1.4265 -0.6182  1.1280
  118SAPC  H18S12348   4.098   3.693   4.704 -0.8352  2.5458 -1.4847
  118SAPC  C21912349   3.945   3.701   4.555 -0.3538  0.3612 -0.4058
  118SAPC  H19R12350   4.016   3.764   4.497  0.0930 -2.6730 -3.5015
  118SAPC  H19S12351   3.873   3.762   4.612 -1.1769 -1.5310  0.6716
  118SAPC  C22012352   3.870   3.605   4.470 -0.2526 -0.2596  0.3017
  118SAPC  H20R12353   3.811   3.655   4.389  0.2185  0.4743  0.4011
  118SAPC  H20S12354   3.795   3.550   4.531 -0.7995  0.1716  0.0314
  118SAPC  H20T12355   3.929   3.527   4.417 -1.1761 -0.4025 -0.5459
  118SAPC   C3312356   4.065   4.525   6.090 -1.1187 -0.3332  0.2614
  118SAPC   H3X12357   4.159   4.556   6.141 -2.1819  0.1509  2.0018
  118SAPC   H3Y12358   4.036   4.613   6.029  2.2680  0.1296 -0.8897
  118SAPC   C3412359   4.115   4.421   5.982  0.4878 -0.3137  0.2288
  118SAPC   H4X12360   4.119   4.323   6.035  1.9703 -0.1362  0.4812
  118SAPC   H4Y12361   4.220   4.427   5.948 -0.1711  0.5338 -1.8088
  118SAPC   C3512362   4.028   4.433   5.859 -0.3976 -1.0388 -1.4532
  118SAPC   H5X12363   4.038   4.540   5.832 -0.3923 -0.2156  1.4938
  118SAPC   H5Y12364   3.921   4.427   5.886 -0.6514 -1.6782 -2.5046
  118SAPC   C3612365   4.057   4.333   5.751  0.5607  0.2580 -0.3012
  118SAPC   H6X12366   4.010   4.234   5.768  0.8774  0.0749 -0.4866
  118SAPC   H6Y12367   4.167   4.317   5.750  0.8896  2.1983  0.4391
  118SAPC   C3712368   4.004   4.378   5.614  0.6230 -0.0466 -0.1441
  118SAPC   H7X12369   4.034   4.485   5.605  1.9338 -0.3187  0.7870
  118SAPC   H7Y12370   3.893   4.389   5.624  0.4905  0.2741 -1.6757
  118SAPC   C3812371   4.027   4.281   5.499  0.5245 -0.2161  0.2030
  118SAPC   H8X12372   3.995   4.176   5.516  0.2893 -0.1862 -0.0351
  118SAPC   H8Y12373   4.133   4.280   5.466  0.4762 -0.8433  0.0620
  118SAPC   C3912374   3.963   4.344   5.368 -0.5378 -0.1822 -0.2358
  118SAPC   H9X12375   4.017   4.436   5.338  1.1217 -0.5625  1.4077
  118SAPC   H9Y12376   3.862   4.381   5.395 -0.7845 -0.7481 -0.3710
  118SAPC  C31012377   3.949   4.246   5.252  0.2450 -0.1505 -0.3584
  118SAPC  H10X12378   3.919   4.145   5.285 -0.2138  0.7308  2.0871
  118SAPC  H10Y12379   4.040   4.246   5.188  0.6193  0.8815  0.1551
  118SAPC  C31112380   3.830   4.295   5.164 -0.4655 -0.4144 -0.1518
  118SAPC  H11X12381   3.848   4.401   5.136 -2.6144  0.0765  0.1641
  118SAPC  H11Y12382   3.733   4.313   5.216 -0.5936 -2.3560  0.3588
  118SAPC  C31212383   3.816   4.224   5.027 -0.1664  0.5501  0.4036
  118SAPC  H12X12384   3.916   4.223   4.978 -0.9912  0.4607 -1.3600
  118SAPC  H12Y12385   3.753   4.285   4.959 -0.8458 -0.1838  0.3581
  118SAPC  C31312386   3.759   4.077   5.037 -0.3581  0.4289 -0.0273
  118SAPC  H13X12387   3.662   4.089   5.091 -0.9633  0.0898 -1.0002
  118SAPC  H13Y12388   3.827   4.011   5.093 -3.2641 -0.3880  2.8458
  118SAPC  C31412389   3.732   4.015   4.901 -0.1110  0.5110  0.1593
  118SAPC  H14X12390   3.824   4.001   4.840 -1.3601 -1.2384 -1.4565
  118SAPC  H14Y12391   3.678   4.097   4.849  0.9069  1.3027  0.3277
  118SAPC  C31512392   3.658   3.883   4.909  0.1682 -0.5695 -0.3786
  118SAPC  H15X12393   3.573   3.888   4.981  2.0848 -1.3980  2.0819
  118SAPC  H15Y12394   3.724   3.803   4.949 -1.5591 -1.5071  0.7122
  118SAPC  C31612395   3.594   3.839   4.774  0.1949 -0.8283  0.1829
  118SAPC  H16X12396   3.567   3.731   4.779  2.3013 -1.3484  1.8617
  118SAPC  H16Y12397   3.665   3.849   4.690 -0.2853 -2.5471 -0.4700
  118SAPC  C31712398   3.475   3.931   4.733  0.0500  0.2181  0.5570
  118SAPC  H17X12399   3.514   4.031   4.705  0.6597  0.1689  1.1924
  118SAPC  H17Y12400   3.405   3.935   4.818 -0.4571 -0.6576  0.1936
  118SAPC  C31812401   3.410   3.877   4.605  0.2524 -0.6706  0.2363
  118SAPC  H18X12402   3.390   3.771   4.632 -0.8441 -0.3682  0.6996
  118SAPC  H18Y12403   3.490   3.877   4.529 -1.7024  0.5072 -1.9640
  118SAPC  H18Z12404   3.316   3.921   4.565  1.3523 -0.0568 -1.8339
  119SAPC     N12405   1.859   1.560   1.812 -0.4833  0.6354 -0.1901
  119SAPC   C1212406   1.952   1.641   1.904  0.4829 -0.5404 -0.2053
  119SAPC  H12A12407   1.987   1.575   1.983 -0.7915  0.4156  1.2313
  119SAPC  H12B12408   1.896   1.724   1.947 -1.3600 -2.5262  1.4913
  119SAPC   C1312409   1.731   1.522   1.870  0.1381 -0.3724  0.0710
  119SAPC  H13A12410   1.751   1.455   1.952  1.5189 -1.7379 -1.3003
  119SAPC  H13B12411   1.681   1.607   1.914  0.0871 -0.4740  0.2111
  119SAPC  H13C12412   1.652   1.485   1.806 -2.2030  2.3639  1.1835
  119SAPC   C1412413   1.835   1.647   1.691 -0.4000  0.2953  0.4356
  119SAPC  H14A12414   1.934   1.680   1.665 -0.3384 -1.0524 -1.2009
  119SAPC  H14B12415   1.795   1.596   1.604 -0.2713  2.9832 -1.3190
  119SAPC  H14C12416   1.770   1.731   1.710 -0.0217  0.0198  3.2858
  119SAPC   C1512417   1.929   1.435   1.757  0.2803 -0.0803 -0.4298
  119SAPC  H15A12418   1.870   1.385   1.682 -0.6637 -0.1192  0.3316
  119SAPC  H15B12419   2.022   1.473   1.715  0.4462 -0.2872 -0.2521
  119SAPC  H15C12420   1.949   1.360   1.832 -0.8216 -1.1591 -1.1760
  119SAPC   C1112421   2.083   1.698   1.843 -0.5879  0.4194  0.8726
  119SAPC  H11A12422   2.129   1.779   1.905  1.5134  1.3161 -1.6677
  119SAPC  H11B12423   2.063   1.755   1.750 -1.4999  0.9008  1.3527
  119SAPC     P12424   2.266   1.559   1.943 -0.1403 -0.1046 -0.0259
  119SAPC   O1312425   2.367   1.457   1.906  0.2626  0.0849 -0.6497
  119SAPC   O1412426   2.315   1.681   2.003  0.1448 -0.1073 -0.5625
  119SAPC   O1212427   2.172   1.591   1.809 -0.1840 -0.2602 -0.5754
  119SAPC   O1112428   2.159   1.501   2.043 -0.1583 -0.4450 -0.2592
  119SAPC    C112429   2.168   1.385   2.126 -0.6497 -0.0748  0.0970
  119SAPC    HA12430   2.143   1.292   2.071  0.6077 -2.5128  3.2964
  119SAPC    HB12431   2.268   1.365   2.168 -0.7158 -1.5780 -0.4113
  119SAPC    C212432   2.069   1.402   2.248  0.7380  0.3077 -0.8983
  119SAPC    HS12433   1.969   1.374   2.212  0.9682 -0.5775 -0.8663
  119SAPC   O2112434   2.074   1.539   2.300  0.1264  0.0136  0.4158
  119SAPC   C2112435   1.973   1.567   2.378  0.1355  0.0536 -0.6670
  119SAPC   O2212436   1.877   1.491   2.391  0.2966  0.2570  0.2806
  119SAPC   C2212437   1.996   1.692   2.456  0.6319  0.0311 -0.4846
  119SAPC   H2R12438   2.098   1.685   2.500 -0.0573 -1.3442  0.9922
  119SAPC   H2S12439   1.994   1.770   2.377 -2.1280 -0.4166 -0.9653
  119SAPC    C312440   2.113   1.306   2.361 -0.0251  0.0564  0.5328
  119SAPC    HX12441   2.213   1.346   2.389 -0.3345 -0.5336  2.6821
  119SAPC    HY12442   2.115   1.203   2.319 -2.6166 -0.1898  0.8536
  119SAPC   O3112443   2.025   1.301   2.479 -0.2206 -0.5448  0.5803
  119SAPC   C3112444   1.930   1.219   2.475  0.9184  0.0725  0.0146
  119SAPC   O3212445   1.907   1.130   2.396 -0.2815  0.3691 -0.3467
  119SAPC   C3212446   1.847   1.242   2.601  0.0997  0.3521 -0.3323
  119SAPC   H2X12447   1.775   1.158   2.592 -0.3225  0.7360 -0.5796
  119SAPC   H2Y12448   1.786   1.333   2.581  1.7470  1.4781 -0.3894
  119SAPC   C2312449   1.880   1.727   2.555  0.8795 -0.2567  0.0687
  119SAPC   H3R12450   1.789   1.709   2.494 -0.6176  0.1235  2.0849
  119SAPC   H3S12451   1.882   1.836   2.575  1.5247 -0.0727 -0.9282
  119SAPC   C2412452   1.882   1.645   2.686 -0.0733  0.3129  0.0825
  119SAPC   H4R12453   1.979   1.674   2.730  0.0079 -0.0533  0.1493
  119SAPC   H4S12454   1.870   1.537   2.661 -0.6409  0.4666 -0.3395
  119SAPC   C2512455   1.760   1.690   2.762 -0.7567 -0.2364 -0.2507
  119SAPC   H5R12456   1.691   1.737   2.690 -0.2087 -1.1031 -1.3754
  119SAPC   C2612457   1.743   1.682   2.896 -0.0433 -0.0345  0.2680
  119SAPC   H6R12458   1.643   1.706   2.936  0.4720  1.2510  0.8388
  119SAPC   C2712459   1.834   1.617   2.989  1.1959 -0.2953 -0.8433
  119SAPC   H7R12460   1.853   1.523   2.934 -0.3301  0.0818 -2.0675
  119SAPC   H7S12461   1.777   1.589   3.080  0.4697  0.1888 -1.1399
  119SAPC   C2812462   1.950   1.700   3.025  0.2981 -0.4701 -0.4669
  119SAPC   H8R12463   1.994   1.768   2.950  0.7358 -1.0693 -0.7625
  119SAPC   C2912464   2.007   1.701   3.145 -0.1439  0.2007 -0.0190
  119SAPC   H9R12465   2.086   1.777   3.154 -1.3622  1.6835 -1.4431
  119SAPC  C21012466   1.980   1.620   3.270  0.0097 -0.1555  0.6040
  119SAPC  H10R12467   2.078   1.621   3.321  0.3463 -2.1334  0.0862
  119SAPC  H10S12468   1.955   1.517   3.237  0.3719 -0.2497  0.6270
  119SAPC  C21112469   1.862   1.662   3.359 -0.8641 -0.5964  0.3172
  119SAPC  H11R12470   1.786   1.719   3.303  1.9617  2.1742 -0.9577
  119SAPC  C21212471   1.847   1.640   3.490  0.5234 -0.2681  0.1292
  119SAPC  H12R12472   1.750   1.661   3.536 -0.8746 -1.7989 -1.9503
  119SAPC  C21312473   1.948   1.570   3.582 -0.0800  0.2773  0.4115
  119SAPC  H13R12474   1.955   1.626   3.678  1.7288  1.8980 -0.6111
  119SAPC  H13S12475   2.046   1.582   3.532 -0.1254 -2.4215 -0.4892
  119SAPC  C21412476   1.907   1.426   3.593 -0.2509  0.1630 -0.2139
  119SAPC  H14R12477   1.906   1.378   3.494 -0.5615  1.1977 -0.7368
  119SAPC  C21512478   1.909   1.348   3.702 -0.4695 -0.3747 -0.0970
  119SAPC  H15R12479   1.867   1.248   3.682 -3.2884  1.2293 -3.2040
  119SAPC  C21612480   1.913   1.391   3.844 -0.0449  0.0799 -0.6319
  119SAPC  H16R12481   1.809   1.377   3.880 -0.0013  0.6016 -0.2906
  119SAPC  H16S12482   1.920   1.500   3.863  0.0586 -0.2348  1.3407
  119SAPC  C21712483   2.025   1.315   3.918 -0.3907 -0.6656  0.3232
  119SAPC  H17R12484   2.116   1.366   3.879 -1.0245 -0.5927 -1.1150
  119SAPC  H17S12485   2.016   1.209   3.885 -2.4604 -1.7122  3.7004
  119SAPC  C21812486   2.030   1.325   4.071 -0.1188 -0.4135 -0.1680
  119SAPC  H18R12487   2.112   1.257   4.102 -0.2183 -0.6226 -0.3598
  119SAPC  H18S12488   1.936   1.281   4.110  0.1962  0.0507  1.1695
  119SAPC  C21912489   2.034   1.471   4.121  0.0325  0.3542  0.7668
  119SAPC  H19R12490   1.928   1.504   4.123 -0.1226 -0.0387 -0.2922
  119SAPC  H19S12491   2.082   1.534   4.043 -1.5032 -0.1918 -0.6826
  119SAPC  C22012492   2.090   1.497   4.257 -0.7924  0.2315 -0.3637
  119SAPC  H20R12493   2.022   1.445   4.329 -1.1345  2.2217  0.8332
  119SAPC  H20S12494   2.089   1.606   4.280  2.8575  0.2508  0.2693
  119SAPC  H20T12495   2.196   1.463   4.262 -0.7329  0.5604  1.0265
  119SAPC   C3312496   1.918   1.241   2.734  0.2235 -0.1511 -0.3986
  119SAPC   H3X12497   1.962   1.342   2.752 -0.2505  0.2091 -1.1727
  119SAPC   H3Y12498   1.993   1.160   2.742  0.1554 -0.1409  0.5253
  119SAPC   C3412499   1.815   1.214   2.842  0.0700 -0.5257  0.0984
  119SAPC   H4X12500   1.757   1.122   2.823  0.2622 -0.6791  0.2478
  119SAPC   H4Y12501   1.740   1.295   2.847  0.7964  0.2847 -1.3274
  119SAPC   C3512502   1.869   1.202   2.986  0.1010 -0.8009  0.0387
  119SAPC   H5X12503   1.918   1.301   2.994 -2.3421  0.4307  0.5941
  119SAPC   H5Y12504   1.940   1.117   2.979 -0.1195 -0.9292 -0.7462
  119SAPC   C3612505   1.767   1.189   3.099 -0.0705  0.1050 -0.0242
  119SAPC   H6X12506   1.684   1.125   3.061  0.1483 -1.1992  1.6391
  119SAPC   H6Y12507   1.727   1.288   3.131  0.8837  0.0869  1.2514
  119SAPC   C3712508   1.821   1.127   3.228  0.4474  0.1949 -0.2051
  119SAPC   H7X12509   1.916   1.165   3.270  1.4778 -2.4272  0.0723
  119SAPC   H7Y12510   1.854   1.023   3.203  2.3956  0.2248  1.9390
  119SAPC   C3812511   1.711   1.127   3.338  0.6486  0.3611  0.5246
  119SAPC   H8X12512   1.618   1.086   3.294  0.2448  2.4429 -0.7051
  119SAPC   H8Y12513   1.701   1.233   3.369 -0.6481 -0.2479  2.3605
  119SAPC   C3912514   1.758   1.041   3.453 -0.2047  0.0758 -0.4097
  119SAPC   H9X12515   1.859   1.066   3.492 -0.9354  0.5786  1.2265
  119SAPC   H9Y12516   1.767   0.934   3.424 -0.1494 -0.7084  2.2099
  119SAPC  C31012517   1.664   1.066   3.568  0.5346 -0.0757  0.5563
  119SAPC  H10X12518   1.560   1.043   3.538  0.0835  1.4053  0.9134
  119SAPC  H10Y12519   1.670   1.172   3.600 -0.5330 -0.1952  1.1866
  119SAPC  C31112520   1.696   0.995   3.694 -0.0834 -0.4543 -0.5568
  119SAPC  H11X12521   1.798   1.028   3.725 -0.7220  0.5242  0.5686
  119SAPC  H11Y12522   1.690   0.884   3.699  0.8672 -0.4525  2.3526
  119SAPC  C31212523   1.608   1.048   3.801  0.1125 -0.3679 -1.1226
  119SAPC  H12X12524   1.510   0.997   3.789  0.2143 -0.6478 -0.7852
  119SAPC  H12Y12525   1.600   1.159   3.800  0.7719 -0.2075  1.5694
  119SAPC  C31312526   1.667   1.009   3.940 -0.4525 -0.0647  0.8115
  119SAPC  H13X12527   1.765   1.061   3.942 -1.4355  1.9369 -0.3770
  119SAPC  H13Y12528   1.690   0.900   3.944  1.3980  0.2243 -0.7600
  119SAPC  C31412529   1.580   1.057   4.067 -0.1888  0.7229 -0.9517
  119SAPC  H14X12530   1.495   0.987   4.084  1.0423 -0.3935  0.9690
  119SAPC  H14Y12531   1.543   1.159   4.045  1.2591  1.8046  1.3002
  119SAPC  C31512532   1.667   1.079   4.191  0.3132  0.2959  0.0242
  119SAPC  H15X12533   1.754   1.138   4.154 -0.4546  1.4585  0.0159
  119SAPC  H15Y12534   1.705   0.983   4.230  2.5699  1.5060  0.9565
  119SAPC  C31612535   1.603   1.164   4.312  0.5632  0.0020  0.3968
  119SAPC  H16X12536   1.509   1.117   4.348  0.9725 -0.5991  0.7038
  119SAPC  H16Y12537   1.564   1.258   4.267 -4.5033 -1.2950  1.4285
  119SAPC  C31712538   1.698   1.199   4.422 -0.3721  0.1422 -0.5598
  119SAPC  H17X12539   1.781   1.261   4.382 -0.6523  0.6922 -0.2985
  119SAPC  H17Y12540   1.741   1.102   4.455 -0.7908 -0.0434 -0.5591
  119SAPC  C31812541   1.649   1.270   4.542 -0.5918  0.0065 -0.6575
  119SAPC  H18X12542   1.602   1.194   4.608  2.3040 -1.8677 -0.6098
  119SAPC  H18Y12543   1.572   1.348   4.520 -0.5680  0.3160  0.2860
  119SAPC  H18Z12544   1.732   1.311   4.603 -0.9623 -0.9609  0.5343
  120SAPC     N12545   2.240   4.262   1.778 -0.1902 -0.4215  0.7038
  120SAPC   C1212546   2.376   4.325   1.825  0.2824 -0.5290  0.1587
  120SAPC  H12A12547   2.361   4.427   1.857  0.2427 -0.1788 -0.9575
  120SAPC  H12B12548   2.446   4.342   1.745  1.0685 -0.9427  0.7480
  120SAPC   C1312549   2.182   4.346   1.668  0.1693  0.4807 -0.1643
  120SAPC  H13A12550   2.156   4.440   1.714  1.3334 -0.9213  3.7479
  120SAPC  H13B12551   2.243   4.345   1.579  2.6271  0.4214  1.4443
  120SAPC  H13C12552   2.089   4.302   1.633 -0.2994  1.7999 -0.6418
  120SAPC   C1412553   2.273   4.122   1.726  0.2799 -1.1653  0.1552
  120SAPC  H14A12554   2.319   4.126   1.628  1.3553 -0.8092  0.6615
  120SAPC  H14B12555   2.339   4.075   1.797  1.1407  1.2807  1.0724
  120SAPC  H14C12556   2.182   4.068   1.703 -0.4735 -0.2445  0.9176
  120SAPC   C1512557   2.137   4.241   1.891 -0.6418 -0.0447 -0.3692
  120SAPC  H15A12558   2.050   4.190   1.850  0.3187 -2.0368 -0.0780
  120SAPC  H15B12559   2.171   4.168   1.963 -0.2722  1.5787  1.1530
  120SAPC  H15C12560   2.116   4.336   1.937  3.7942 -0.1382  2.3710
  120SAPC   C1112561   2.441   4.253   1.947 -0.5928  0.4050  0.5003
  120SAPC  H11A12562   2.367   4.239   2.029 -0.3820  0.3341  0.6792
  120SAPC  H11B12563   2.533   4.309   1.975 -0.4361  0.6312 -0.4538
  120SAPC     P12564   2.511   4.013   2.024 -0.1136  0.0029 -0.2488
  120SAPC   O1312565   2.371   3.984   2.060 -0.2101 -0.5552  0.1179
  120SAPC   O1412566   2.596   3.905   1.972 -0.2795 -0.0010 -0.1211
  120SAPC   O1212567   2.493   4.125   1.911 -0.1975  0.4067  0.3927
  120SAPC   O1112568   2.590   4.084   2.141 -0.2500  0.0064 -0.1798
  120SAPC    C112569   2.528   4.149   2.253 -0.0723  0.0161  0.2001
  120SAPC    HA12570   2.587   4.231   2.299  0.3015 -0.4781  0.6241
  120SAPC    HB12571   2.424   4.186   2.244 -0.3342  0.7313  4.1368
  120SAPC    C212572   2.496   4.048   2.368  0.7511  0.1923  0.1264
  120SAPC    HS12573   2.446   3.962   2.319 -0.4187  0.5335  0.6952
  120SAPC   O2112574   2.398   4.104   2.461  0.2258 -0.2089  0.5604
  120SAPC   C2112575   2.301   4.024   2.502 -0.5013  0.1626 -0.1679
  120SAPC   O2212576   2.283   3.910   2.455  1.2300 -0.5737  0.2141
  120SAPC   C2212577   2.218   4.084   2.616 -0.5097 -0.5429  0.0634
  120SAPC   H2R12578   2.273   4.080   2.712  1.4461  1.3524 -0.8869
  120SAPC   H2S12579   2.204   4.193   2.599  1.0434 -0.0559  1.5536
  120SAPC    C312580   2.621   3.993   2.447 -0.3869  0.0442 -0.4833
  120SAPC    HX12581   2.676   4.089   2.457 -1.2946  0.3827  1.6907
  120SAPC    HY12582   2.685   3.932   2.380  0.0064  0.9232 -0.9213
  120SAPC   O3112583   2.599   3.923   2.568  0.3822  0.1943 -0.1607
  120SAPC   C3112584   2.687   3.939   2.668 -0.4331 -0.2782  0.4587
  120SAPC   O3212585   2.794   3.996   2.655  0.4650 -0.0316  0.5046
  120SAPC   C3212586   2.642   3.858   2.792 -0.6777  0.4474 -0.5493
  120SAPC   H2X12587   2.590   3.767   2.755  0.0942 -0.9266  1.5506
  120SAPC   H2Y12588   2.569   3.923   2.844  0.8750  0.8442  1.2658
  120SAPC   C2312589   2.079   4.019   2.631  0.5460  0.4457 -0.7390
  120SAPC   H3R12590   2.089   3.912   2.661 -1.3614  0.6971  0.9843
  120SAPC   H3S12591   2.037   4.022   2.529  2.2805 -0.2943 -1.5218
  120SAPC   C2412592   1.999   4.080   2.744 -0.8087  0.0062  0.5526
  120SAPC   H4R12593   2.016   4.189   2.729 -1.1911  0.1877  1.4261
  120SAPC   H4S12594   2.048   4.053   2.839 -1.6067 -0.2342  0.9053
  120SAPC   C2512595   1.856   4.043   2.758  0.9818  0.0236  0.0356
  120SAPC   H5R12596   1.802   4.017   2.665 -0.1986 -1.4600  1.0967
  120SAPC   C2612597   1.786   4.029   2.873  0.2973  0.2499  0.6055
  120SAPC   H6R12598   1.688   3.979   2.870  1.2917 -1.9693  1.8533
  120SAPC   C2712599   1.824   4.055   3.018 -0.1843  0.2614  0.3183
  120SAPC   H7R12600   1.927   4.015   3.025 -1.0832 -2.4020 -0.4358
  120SAPC   H7S12601   1.772   3.986   3.087  0.3695 -1.2682 -0.7314
  120SAPC   C2812602   1.797   4.190   3.073 -0.5537  0.2413  0.5439
  120SAPC   H8R12603   1.763   4.267   3.002 -0.9158  0.3261  0.8074
  120SAPC   C2912604   1.803   4.230   3.201  0.1196  0.1521 -0.5531
  120SAPC   H9R12605   1.772   4.333   3.221 -1.4843 -0.3370 -0.3212
  120SAPC  C21012606   1.844   4.140   3.318 -0.3530 -0.2952  0.0371
  120SAPC  H10R12607   1.811   4.037   3.292  1.2282 -0.7240 -0.3949
  120SAPC  H10S12608   1.793   4.185   3.405  1.1548  0.3710  0.5985
  120SAPC  C21112609   1.995   4.134   3.341 -0.3134 -0.0363 -0.2483
  120SAPC  H11R12610   2.058   4.159   3.254 -0.2690  2.9429  0.5538
  120SAPC  C21212611   2.046   4.072   3.449 -0.0246 -0.4562 -0.3869
  120SAPC  H12R12612   2.156   4.069   3.459  0.5970  2.3928 -3.9977
  120SAPC  C21312613   1.972   4.025   3.574 -0.0289 -0.4841 -0.2403
  120SAPC  H13R12614   2.042   3.971   3.642 -1.4018  0.1439  1.7726
  120SAPC  H13S12615   1.894   3.949   3.549  0.8232 -1.0024 -1.4530
  120SAPC  C21412616   1.914   4.132   3.663  0.3393 -0.1155 -0.3659
  120SAPC  H14R12617   1.900   4.227   3.609 -0.0334 -1.0051 -1.9238
  120SAPC  C21512618   1.888   4.115   3.787 -0.1408  0.3208 -0.1867
  120SAPC  H15R12619   1.842   4.197   3.845  0.4436  0.8049 -0.4062
  120SAPC  C21612620   1.914   3.991   3.862 -0.1781 -0.3417 -0.0972
  120SAPC  H16R12621   2.003   4.013   3.924 -0.8877  0.3559  0.6896
  120SAPC  H16S12622   1.938   3.894   3.813 -0.6815 -1.0947  1.1138
  120SAPC  C21712623   1.807   3.969   3.967  0.0203  0.6836 -0.8047
  120SAPC  H17R12624   1.841   3.879   4.022 -0.0110  1.1979  0.0741
  120SAPC  H17S12625   1.709   3.939   3.925 -2.1503  4.1802  1.1947
  120SAPC  C21812626   1.790   4.082   4.066 -0.4360 -0.2830 -0.5592
  120SAPC  H18R12627   1.710   4.056   4.139 -0.2394  0.4824 -0.0568
  120SAPC  H18S12628   1.752   4.174   4.016 -2.9047 -0.4029  0.9375
  120SAPC  C21912629   1.913   4.117   4.156  0.5313  0.0758 -0.2861
  120SAPC  H19R12630   1.987   4.153   4.081  1.1927 -1.1356 -0.2482
  120SAPC  H19S12631   1.961   4.035   4.213  2.7337  1.9308  0.6632
  120SAPC  C22012632   1.877   4.232   4.260 -0.4899 -0.4784  1.1529
  120SAPC  H20R12633   1.869   4.335   4.218  0.1280  0.5286  3.3282
  120SAPC  H20S12634   1.967   4.244   4.325 -0.7401  1.4323  1.2194
  120SAPC  H20T12635   1.795   4.205   4.330  0.6331 -1.7094  2.0485
  120SAPC   C3312636   2.751   3.830   2.899  0.2699 -0.1035 -0.8323
  120SAPC   H3X12637   2.706   3.818   3.000  1.4818  1.3007 -0.0919
  120SAPC   H3Y12638   2.809   3.923   2.912 -2.2816  1.4656  0.0698
  120SAPC   C3412639   2.840   3.707   2.871  0.4498 -0.7831 -0.6349
  120SAPC   H4X12640   2.928   3.731   2.807  0.3874  1.5282  0.0340
  120SAPC   H4Y12641   2.771   3.636   2.820  0.2633  0.3396 -2.0079
  120SAPC   C3512642   2.883   3.631   2.993 -0.1509  0.5848  0.2014
  120SAPC   H5X12643   2.905   3.528   2.957  3.7236  0.9948  0.8778
  120SAPC   H5Y12644   2.804   3.627   3.071  0.4848 -4.0081  0.9420
  120SAPC   C3612645   3.020   3.688   3.042  0.1513  0.4759 -0.0808
  120SAPC   H6X12646   2.996   3.790   3.079 -0.8298  0.1626  0.1937
  120SAPC   H6Y12647   3.099   3.697   2.965  0.4699  1.2520  0.3153
  120SAPC   C3712648   3.076   3.609   3.162 -0.2186 -0.1784 -0.1654
  120SAPC   H7X12649   3.002   3.599   3.245 -0.0873 -2.2724 -0.2570
  120SAPC   H7Y12650   3.160   3.669   3.203 -0.3956  0.5470 -0.8488
  120SAPC   C3812651   3.128   3.464   3.124 -0.4121 -0.2621 -0.4841
  120SAPC   H8X12652   3.208   3.475   3.049 -0.8548 -0.3613 -0.9746
  120SAPC   H8Y12653   3.038   3.410   3.086 -0.6610  0.1790 -0.5310
  120SAPC   C3912654   3.193   3.394   3.244 -0.1325 -0.4242 -0.7480
  120SAPC   H9X12655   3.112   3.341   3.299  1.1131  0.2795  1.9299
  120SAPC   H9Y12656   3.246   3.464   3.312 -0.5687  0.7596 -1.5857
  120SAPC  C31012657   3.304   3.294   3.201  0.3071 -0.6910  0.4517
  120SAPC  H10X12658   3.379   3.353   3.145 -1.6029  2.2845  0.7594
  120SAPC  H10Y12659   3.266   3.216   3.131  1.5486 -0.8794 -0.0430
  120SAPC  C31112660   3.382   3.241   3.320  0.1868  0.2792  0.1031
  120SAPC  H11X12661   3.444   3.317   3.373 -0.5012 -0.9744  2.8796
  120SAPC  H11Y12662   3.457   3.169   3.281 -0.4166 -0.1552 -0.2700
  120SAPC  C31212663   3.292   3.168   3.421 -0.4371 -0.0059  0.3410
  120SAPC  H12X12664   3.244   3.075   3.382 -0.8592 -0.0374  0.9352
  120SAPC  H12Y12665   3.204   3.231   3.444  0.0842  0.1683  1.9441
  120SAPC  C31312666   3.357   3.119   3.549  0.2512 -1.2335 -0.0221
  120SAPC  H13X12667   3.405   3.209   3.592  0.4072 -1.0724 -0.5183
  120SAPC  H13Y12668   3.435   3.041   3.536  1.8738  0.1793  0.7899
  120SAPC  C31412669   3.244   3.060   3.636 -0.5628 -0.6309 -0.3410
  120SAPC  H14X12670   3.185   2.994   3.570 -1.6186  1.1027 -1.2111
  120SAPC  H14Y12671   3.173   3.137   3.674 -0.2431 -0.7111  0.4470
  120SAPC  C31512672   3.299   2.975   3.758  0.4032 -0.5529 -0.1749
  120SAPC  H15X12673   3.343   3.049   3.828 -1.3457  1.0996 -0.7234
  120SAPC  H15Y12674   3.368   2.904   3.709  0.9969  0.8002 -1.3819
  120SAPC  C31612675   3.196   2.902   3.834  0.1299  0.5097  0.5413
  120SAPC  H16X12676   3.191   2.799   3.793 -0.7394  0.8271 -0.1815
  120SAPC  H16Y12677   3.094   2.947   3.830 -0.4930 -0.7968  0.8791
  120SAPC  C31712678   3.238   2.884   3.976  0.3328 -0.1226 -0.4541
  120SAPC  H17X12679   3.347   2.875   3.995  0.7712  3.1393 -0.8927
  120SAPC  H17Y12680   3.181   2.794   4.009  0.4232 -0.3478 -0.9050
  120SAPC  C31812681   3.197   3.008   4.056 -0.2761  0.4205 -0.7418
  120SAPC  H18X12682   3.100   2.997   4.108  0.1476  0.0772 -0.0111
  120SAPC  H18Y12683   3.193   3.097   3.990  3.0587  0.3934 -1.1837
  120SAPC  H18Z12684   3.280   3.034   4.125  0.8326  0.4056 -2.0123
  121SAPC     N12685   6.781   0.021   1.853 -0.3490  0.2044 -0.3331
  121SAPC   C1212686   6.721  -0.074   1.955 -0.6934 -0.0591  0.1919
  121SAPC  H12A12687   6.800  -0.137   1.993 -1.2119 -0.9809 -0.2130
  121SAPC  H12B12688   6.651  -0.137   1.902 -0.3359 -2.2950  2.1974
  121SAPC   C1312689   6.683   0.118   1.813  0.6367  0.1454  0.4658
  121SAPC  H13A12690   6.593   0.070   1.775  1.4408 -1.8857  0.9948
  121SAPC  H13B12691   6.655   0.173   1.901 -0.6071 -0.9355  0.7810
  121SAPC  H13C12692   6.714   0.187   1.737  1.4794 -0.5488  0.1650
  121SAPC   C1412693   6.889   0.092   1.932 -0.5841  0.1962  0.2604
  121SAPC  H14A12694   6.963   0.146   1.874 -0.8022  1.8220  1.3947
  121SAPC  H14B12695   6.849   0.160   2.006  1.1436  1.5080  0.0824
  121SAPC  H14C12696   6.946   0.025   1.995 -2.1994  0.1094  1.6923
  121SAPC   C1512697   6.836  -0.047   1.737 -0.0411  0.1907  0.2096
  121SAPC  H15A12698   6.919  -0.110   1.767 -1.3438 -0.8982  1.7434
  121SAPC  H15B12699   6.769  -0.114   1.685  1.6046 -1.0073 -0.4450
  121SAPC  H15C12700   6.870   0.019   1.659 -1.7261 -0.2252 -0.9323
  121SAPC   C1112701   6.650  -0.017   2.077 -0.0429 -0.6592 -1.0714
  121SAPC  H11A12702   6.706   0.074   2.110  0.2709 -0.9839 -0.7042
  121SAPC  H11B12703   6.672  -0.095   2.153  1.9474  0.6318 -0.2310
  121SAPC     P12704   6.415  -0.117   2.071 -0.3309 -0.1427 -0.0762
  121SAPC   O1312705   6.278  -0.063   2.046 -1.0823  0.0670 -0.6391
  121SAPC   O1412706   6.457  -0.222   1.981  0.6868  0.7396  0.3404
  121SAPC   O1212707   6.512   0.008   2.055 -0.0599  0.2415  0.0804
  121SAPC   O1112708   6.426  -0.166   2.218  0.3459 -0.2649  0.2588
  121SAPC    C112709   6.457  -0.076   2.335  0.0279  0.2759  0.1657
  121SAPC    HA12710   6.545  -0.122   2.386 -2.1297 -1.0257  2.9496
  121SAPC    HB12711   6.507   0.018   2.303  2.2407  0.5875  3.9443
  121SAPC    C212712   6.340  -0.073   2.430 -0.2593  0.2085  0.2232
  121SAPC    HS12713   6.376  -0.023   2.523 -0.9538  1.2082 -0.0296
  121SAPC   O2112714   6.278  -0.200   2.457  0.2550  0.1470 -0.1515
  121SAPC   C2112715   6.228  -0.220   2.574 -0.5613 -0.6610  0.2965
  121SAPC   O2212716   6.243  -0.157   2.679  0.2913  0.2283  0.5359
  121SAPC   C2212717   6.151  -0.355   2.562 -0.0754 -0.1363 -0.5719
  121SAPC   H2R12718   6.079  -0.359   2.647 -0.2823 -0.2234 -0.7527
  121SAPC   H2S12719   6.086  -0.362   2.473  1.8366  0.8078 -2.1244
  121SAPC    C312720   6.232   0.018   2.366 -0.3052  0.2060  1.1533
  121SAPC    HX12721   6.192  -0.019   2.269  0.8495  1.3300  0.2199
  121SAPC    HY12722   6.294   0.105   2.337 -0.2825 -0.4267 -0.8099
  121SAPC   O3112723   6.118   0.040   2.450  0.2569 -0.5158  0.0220
  121SAPC   C3112724   6.117   0.156   2.509 -0.1955  0.1968  0.3185
  121SAPC   O3212725   6.198   0.247   2.494 -0.0195 -0.6157 -0.7296
  121SAPC   C3212726   6.012   0.154   2.617  0.4624 -0.4329 -0.2261
  121SAPC   H2X12727   6.000   0.054   2.664 -0.0088  0.1197  0.8930
  121SAPC   H2Y12728   5.911   0.162   2.573  0.7022  2.7924 -0.4507
  121SAPC   C2312729   6.254  -0.475   2.569  0.0875 -0.2629 -0.2944
  121SAPC   H3R12730   6.325  -0.477   2.483  0.9054  0.4012  0.3473
  121SAPC   H3S12731   6.189  -0.564   2.555 -1.0825  0.4246  0.5846
  121SAPC   C2412732   6.333  -0.486   2.698  0.0671 -0.0977  0.3826
  121SAPC   H4R12733   6.376  -0.388   2.729  0.7960 -0.3497  0.1960
  121SAPC   H4S12734   6.422  -0.551   2.681 -0.6688 -1.1887  0.6385
  121SAPC   C2512735   6.250  -0.543   2.800 -0.6468  0.3997  0.2462
  121SAPC   H5R12736   6.170  -0.607   2.759  0.8311 -0.6785 -1.0484
  121SAPC   C2612737   6.262  -0.530   2.931  0.1784 -0.0103 -0.9351
  121SAPC   H6R12738   6.181  -0.572   2.994  0.1606  1.6950  0.2622
  121SAPC   C2712739   6.361  -0.452   3.005  0.0715 -0.1895  0.5881
  121SAPC   H7R12740   6.405  -0.380   2.933 -0.6450 -0.2867  0.0432
  121SAPC   H7S12741   6.451  -0.507   3.038  1.1674  1.9256  1.3517
  121SAPC   C2812742   6.305  -0.374   3.123 -0.2505 -0.0076 -0.2149
  121SAPC   H8R12743   6.234  -0.293   3.100  0.4939  0.0633 -2.4910
  121SAPC   C2912744   6.312  -0.416   3.250  0.8525 -0.1591 -0.2705
  121SAPC   H9R12745   6.273  -0.345   3.325  1.7459 -0.4039  0.4542
  121SAPC  C21012746   6.383  -0.538   3.301  0.0901  0.3977 -0.1389
  121SAPC  H10R12747   6.479  -0.502   3.344 -1.6677  1.7324  2.9299
  121SAPC  H10S12748   6.406  -0.609   3.218 -2.0153 -1.5445  0.8389
  121SAPC  C21112749   6.310  -0.624   3.402  0.3344  0.1298  0.1118
  121SAPC  H11R12750   6.220  -0.677   3.367  1.5137 -0.8381 -1.5801
  121SAPC  C21212751   6.341  -0.640   3.528  0.6455 -0.2977  0.3700
  121SAPC  H12R12752   6.277  -0.701   3.594 -0.3721  3.4627  3.2261
  121SAPC  C21312753   6.451  -0.565   3.598  0.0389  0.7241  0.2551
  121SAPC  H13R12754   6.547  -0.616   3.573 -1.6180 -2.6383  0.1308
  121SAPC  H13S12755   6.453  -0.587   3.707  2.4337 -0.4769  0.0322
  121SAPC  C21412756   6.466  -0.417   3.588 -0.1602 -0.3876  0.2625
  121SAPC  H14R12757   6.540  -0.377   3.517 -0.7129  1.4345  0.6594
  121SAPC  C21512758   6.398  -0.333   3.664  0.0035  1.0323 -0.4882
  121SAPC  H15R12759   6.422  -0.229   3.640  0.4920  0.6326 -1.8586
  121SAPC  C21612760   6.297  -0.357   3.771  0.0435 -0.0385 -0.8565
  121SAPC  H16R12761   6.256  -0.459   3.780 -0.0255 -0.1051 -1.8560
  121SAPC  H16S12762   6.215  -0.286   3.744  0.3411  1.3138  1.4770
  121SAPC  C21712763   6.350  -0.313   3.909 -0.3951 -0.2257  0.0076
  121SAPC  H17R12764   6.397  -0.212   3.916  0.1851 -0.5777  1.5333
  121SAPC  H17S12765   6.433  -0.379   3.943 -0.9617 -0.2838  1.3596
  121SAPC  C21812766   6.240  -0.307   4.019 -0.1539 -0.0766 -0.0789
  121SAPC  H18R12767   6.217  -0.412   4.045 -0.3692 -0.5743 -2.0659
  121SAPC  H18S12768   6.151  -0.256   3.976  0.3520 -0.5204 -1.7406
  121SAPC  C21912769   6.295  -0.235   4.145 -0.1431 -0.1347 -0.0114
  121SAPC  H19R12770   6.208  -0.242   4.214 -0.9685  1.3277 -0.8595
  121SAPC  H19S12771   6.320  -0.130   4.121 -0.1965 -0.1602 -0.1814
  121SAPC  C22012772   6.425  -0.301   4.207 -0.0202 -0.1232 -0.2912
  121SAPC  H20R12773   6.398  -0.380   4.280 -1.6987 -0.9978 -1.7855
  121SAPC  H20S12774   6.480  -0.219   4.258 -1.1335  0.7130 -0.3996
  121SAPC  H20T12775   6.497  -0.345   4.135  1.5291 -1.9271  2.1629
  121SAPC   C3312776   6.043   0.269   2.720 -0.4899  0.5016 -0.4483
  121SAPC   H3X12777   6.022   0.368   2.674  0.4715  0.7870 -0.3107
  121SAPC   H3Y12778   6.148   0.264   2.756 -0.1475 -1.6071 -1.5552
  121SAPC   C3412779   5.963   0.255   2.849 -0.4624  0.1835 -0.2909
  121SAPC   H4X12780   5.966   0.148   2.879  1.3926  0.2356 -0.1821
  121SAPC   H4Y12781   5.855   0.256   2.824 -0.1786 -0.4531 -1.6525
  121SAPC   C3512782   6.003   0.356   2.947  0.0551  0.0681 -0.4999
  121SAPC   H5X12783   5.970   0.461   2.931 -1.6435 -0.5378 -1.2543
  121SAPC   H5Y12784   6.113   0.367   2.933  0.0185 -0.7075 -1.5916
  121SAPC   C3612785   5.971   0.307   3.089  0.3145  0.2021 -0.1021
  121SAPC   H6X12786   6.031   0.222   3.125  1.5127  0.9189 -0.3601
  121SAPC   H6Y12787   5.864   0.276   3.080  0.1129  1.2791 -2.4775
  121SAPC   C3712788   5.981   0.420   3.197  0.0945  0.1003  0.0133
  121SAPC   H7X12789   5.927   0.510   3.161 -0.7913 -0.1078  0.8010
  121SAPC   H7Y12790   6.091   0.441   3.194  0.3398 -0.8904  1.3056
  121SAPC   C3812791   5.920   0.368   3.325 -0.1208 -0.3556 -0.2122
  121SAPC   H8X12792   5.968   0.273   3.360 -1.3110 -1.3181 -1.1283
  121SAPC   H8Y12793   5.813   0.342   3.316  0.2905 -2.2986  0.0560
  121SAPC   C3912794   5.931   0.469   3.448 -0.3278  0.0412  0.4063
  121SAPC   H9X12795   6.029   0.512   3.478  0.4606 -2.1856  1.2789
  121SAPC   H9Y12796   5.906   0.410   3.539 -0.3898  0.3382  0.5847
  121SAPC  C31012797   5.827   0.583   3.456  0.5204 -0.4380 -0.5640
  121SAPC  H10X12798   5.730   0.530   3.470  1.8509 -2.3871  2.3191
  121SAPC  H10Y12799   5.828   0.648   3.366  1.1616  1.6595  0.8764
  121SAPC  C31112800   5.856   0.664   3.581  0.0193 -0.2986  0.1312
  121SAPC  H11X12801   5.939   0.732   3.553  0.7964 -1.6885 -1.0770
  121SAPC  H11Y12802   5.891   0.595   3.661 -1.6278  0.2836  1.4113
  121SAPC  C31212803   5.737   0.758   3.621 -0.2712 -0.4730 -0.0818
  121SAPC  H12X12804   5.637   0.708   3.626 -0.0169 -1.0783 -0.8067
  121SAPC  H12Y12805   5.730   0.834   3.540 -0.3404  0.1204  0.4697
  121SAPC  C31312806   5.772   0.832   3.751  0.1708 -0.2119  0.2752
  121SAPC  H13X12807   5.711   0.925   3.751  2.7702  1.7250 -2.5940
  121SAPC  H13Y12808   5.881   0.854   3.746 -0.3370  3.3340  1.4561
  121SAPC  C31412809   5.734   0.752   3.877  0.2694  0.2843 -0.4112
  121SAPC  H14X12810   5.782   0.651   3.881 -0.5430 -0.1696 -1.7276
  121SAPC  H14Y12811   5.629   0.717   3.871  0.6327 -1.5242  1.9672
  121SAPC  C31512812   5.744   0.835   4.000 -0.0064  0.6435  0.5261
  121SAPC  H15X12813   5.670   0.916   3.982 -1.3743 -0.8485 -0.8621
  121SAPC  H15Y12814   5.847   0.875   4.012 -0.2878  1.5432  0.0197
  121SAPC  C31612815   5.698   0.769   4.129 -0.0697  0.1216  0.2890
  121SAPC  H16X12816   5.779   0.698   4.157 -0.3841 -0.3941 -0.0889
  121SAPC  H16Y12817   5.607   0.709   4.107  0.7028 -0.5977 -1.0599
  121SAPC  C31712818   5.666   0.855   4.252  0.1658  0.3822  1.0581
  121SAPC  H17X12819   5.629   0.788   4.332 -1.4705  0.4089  0.3465
  121SAPC  H17Y12820   5.589   0.934   4.240 -2.0755 -1.5981  1.9059
  121SAPC  C31812821   5.792   0.932   4.281  0.1283 -0.3477 -0.8300
  121SAPC  H18X12822   5.885   0.871   4.278  1.0055  0.8170  1.0420
  121SAPC  H18Y12823   5.779   0.972   4.383 -0.1429  0.2164 -1.0832
  121SAPC  H18Z12824   5.806   1.016   4.210  0.3092  0.9408  0.6766
  122SAPC     N12825   1.747   3.785   2.171  0.0214 -0.3416  0.1386
  122SAPC   C1212826   1.804   3.658   2.234  0.8287 -0.3849 -0.3358
  122SAPC  H12A12827   1.738   3.622   2.311  1.4560 -0.2764  0.2595
  122SAPC  H12B12828   1.897   3.690   2.278  1.5449 -3.2876  0.4903
  122SAPC   C1312829   1.613   3.755   2.112  0.1817  0.1023  0.4294
  122SAPC  H13A12830   1.576   3.834   2.048 -2.2037 -0.6096  0.8367
  122SAPC  H13B12831   1.625   3.659   2.065  1.7316 -0.0502  1.0695
  122SAPC  H13C12832   1.538   3.741   2.188 -0.2732  0.5474  0.0636
  122SAPC   C1412833   1.737   3.896   2.270  0.2912  0.0635 -0.7265
  122SAPC  H14A12834   1.673   3.974   2.233 -0.1080  1.9373  3.2988
  122SAPC  H14B12835   1.686   3.864   2.360  0.9730 -0.0553 -0.3718
  122SAPC  H14C12836   1.837   3.926   2.298 -0.0100 -0.2684  0.7786
  122SAPC   C1512837   1.829   3.832   2.054  0.3574 -0.2304  0.3193
  122SAPC  H15A12838   1.860   3.747   1.996  0.7566 -0.5402  0.9708
  122SAPC  H15B12839   1.776   3.909   2.000  1.6265  0.7340  0.3958
  122SAPC  H15C12840   1.921   3.882   2.082  1.1741 -1.7000  0.3404
  122SAPC   C1112841   1.835   3.531   2.148  0.1827 -0.9150 -0.4143
  122SAPC  H11A12842   1.867   3.449   2.216  2.9125  0.2782 -0.0863
  122SAPC  H11B12843   1.925   3.548   2.084 -0.3813 -1.0347 -1.2611
  122SAPC     P12844   1.643   3.366   2.087  0.2224 -0.3619  0.2312
  122SAPC   O1312845   1.528   3.373   2.001 -0.0269  0.1731 -0.3811
  122SAPC   O1412846   1.728   3.248   2.058  0.9675  0.5683  0.5823
  122SAPC   O1212847   1.733   3.487   2.056 -0.3564  0.2788 -0.3072
  122SAPC   O1112848   1.610   3.394   2.240  0.5551  0.5578 -0.2518
  122SAPC    C112849   1.484   3.427   2.290 -0.0253  0.4963  0.7651
  122SAPC    HA12850   1.439   3.482   2.205  3.1322 -0.1974 -1.4939
  122SAPC    HB12851   1.427   3.333   2.308  0.6494 -0.3762 -1.3799
  122SAPC    C212852   1.483   3.527   2.415 -0.3098  0.2286 -0.5828
  122SAPC    HS12853   1.537   3.616   2.376 -0.3081  1.0774  1.2174
  122SAPC   O2112854   1.540   3.469   2.538  0.4770 -0.4576  0.1526
  122SAPC   C2112855   1.647   3.529   2.583  0.1417 -0.2848 -0.6567
  122SAPC   O2212856   1.708   3.620   2.533 -0.1980  0.4774 -0.2838
  122SAPC   C2212857   1.679   3.471   2.717 -0.1820  0.3338 -0.1754
  122SAPC   H2R12858   1.625   3.374   2.722  1.9021 -0.8446  0.2324
  122SAPC   H2S12859   1.789   3.457   2.725 -0.0729  0.6874 -0.9642
  122SAPC    C312860   1.338   3.574   2.448  0.2525  0.1624  0.3720
  122SAPC    HX12861   1.267   3.492   2.470  0.4161  0.0420  0.4519
  122SAPC    HY12862   1.316   3.619   2.348  0.3966  0.4207  0.4543
  122SAPC   O3112863   1.322   3.666   2.551 -0.1141  0.2391 -0.4109
  122SAPC   C3112864   1.358   3.790   2.518  0.1097  1.3464  0.0163
  122SAPC   O3212865   1.412   3.818   2.410 -0.3325 -0.1726 -0.8523
  122SAPC   C3212866   1.331   3.888   2.632 -0.2605  0.2068  0.0927
  122SAPC   H2X12867   1.223   3.908   2.651 -0.0055  1.0184  0.7602
  122SAPC   H2Y12868   1.381   3.982   2.599  0.4584  0.0533  0.7178
  122SAPC   C2312869   1.630   3.571   2.827  0.0787  0.5520  0.0932
  122SAPC   H3R12870   1.520   3.576   2.818  0.0955  0.4299 -0.2078
  122SAPC   H3S12871   1.678   3.671   2.819  2.2898 -0.4826 -0.3386
  122SAPC   C2412872   1.675   3.513   2.965  0.3762  1.0393 -0.5890
  122SAPC   H4R12873   1.784   3.501   2.953  0.7298  0.2377  2.5397
  122SAPC   H4S12874   1.626   3.416   2.987  1.3070  0.6193 -0.3499
  122SAPC   C2512875   1.654   3.611   3.082 -0.8675 -0.5456  0.3160
  122SAPC   H5R12876   1.622   3.713   3.058 -1.2323  0.2909  3.7736
  122SAPC   C2612877   1.675   3.577   3.213  0.1512 -0.5362 -0.3946
  122SAPC   H6R12878   1.661   3.658   3.285  0.7527 -0.9908  0.2506
  122SAPC   C2712879   1.718   3.440   3.261 -0.4669 -0.1033  1.0284
  122SAPC   H7R12880   1.776   3.395   3.177  0.5545  1.0981  1.0579
  122SAPC   H7S12881   1.634   3.368   3.267 -1.7049  1.2938  0.8129
  122SAPC   C2812882   1.787   3.431   3.393  1.5542 -0.3506 -0.8080
  122SAPC   H8R12883   1.720   3.397   3.473  0.2895 -0.0978 -1.7281
  122SAPC   C2912884   1.918   3.449   3.429 -0.5469  0.2503  0.4427
  122SAPC   H9R12885   1.942   3.444   3.536 -3.3913 -0.9984  1.1108
  122SAPC  C21012886   2.029   3.503   3.343 -0.3159 -0.1196  0.8249
  122SAPC  H10R12887   2.058   3.602   3.384 -1.6533  0.8163 -0.3899
  122SAPC  H10S12888   1.993   3.543   3.246  0.4800 -1.3067  0.0002
  122SAPC  C21112889   2.131   3.391   3.329 -0.2173  0.2155  0.0636
  122SAPC  H11R12890   2.114   3.317   3.249 -0.3817  2.0226 -1.6399
  122SAPC  C21212891   2.229   3.363   3.420 -0.2843 -0.7836  0.1846
  122SAPC  H12R12892   2.308   3.290   3.397  2.6471  1.1782  3.1543
  122SAPC  C21312893   2.258   3.444   3.547 -0.2583  0.4879  0.6021
  122SAPC  H13R12894   2.161   3.494   3.568 -0.0666  1.5252 -0.8984
  122SAPC  H13S12895   2.334   3.522   3.527  0.8932 -0.8182 -0.2980
  122SAPC  C21412896   2.309   3.359   3.660 -0.0907  0.4661  0.0203
  122SAPC  H14R12897   2.250   3.270   3.686  0.1248  0.9476  2.4359
  122SAPC  C21512898   2.398   3.388   3.758  0.3243 -0.2677  0.5288
  122SAPC  H15R12899   2.419   3.312   3.834 -0.1509 -1.2487 -0.2954
  122SAPC  C21612900   2.463   3.524   3.774  0.1612  0.2815 -0.7884
  122SAPC  H16R12901   2.452   3.583   3.680  0.0100  0.4452 -0.6679
  122SAPC  H16S12902   2.571   3.511   3.795 -0.2998 -1.8330  0.5430
  122SAPC  C21712903   2.391   3.603   3.890 -0.4567  0.0161 -0.1749
  122SAPC  H17R12904   2.402   3.567   3.995 -1.1212 -1.1534 -0.4870
  122SAPC  H17S12905   2.283   3.608   3.865 -0.6881 -0.4499  0.6828
  122SAPC  C21812906   2.463   3.741   3.889 -0.6012 -0.0544 -0.1573
  122SAPC  H18R12907   2.495   3.767   3.786  0.4612 -3.7267 -0.9337
  122SAPC  H18S12908   2.559   3.715   3.940 -0.1047  0.5965 -0.7399
  122SAPC  C21912909   2.395   3.853   3.973 -0.3884 -0.0416  0.6151
  122SAPC  H19R12910   2.476   3.922   4.005  1.8614 -1.4654 -1.6543
  122SAPC  H19S12911   2.348   3.812   4.065 -2.2792 -1.4385 -0.8975
  122SAPC  C22012912   2.293   3.941   3.900  0.4700  0.6006  0.1247
  122SAPC  H20R12913   2.339   3.984   3.808 -0.6570  1.5349 -0.0212
  122SAPC  H20S12914   2.261   4.028   3.961  0.3191 -0.4060  1.5443
  122SAPC  H20T12915   2.203   3.884   3.870  2.1948 -1.0498 -2.3144
  122SAPC   C3312916   1.399   3.865   2.768  0.3466 -0.3287  0.2494
  122SAPC   H3X12917   1.507   3.878   2.744 -0.4263  2.0400 -2.5524
  122SAPC   H3Y12918   1.376   3.757   2.778 -0.3523 -0.3960 -1.7057
  122SAPC   C3412919   1.335   3.945   2.889 -0.3256  0.2724  0.6260
  122SAPC   H4X12920   1.228   3.916   2.900 -0.7030  0.7701 -1.3527
  122SAPC   H4Y12921   1.338   4.056   2.882  0.4510  0.4479  2.9061
  122SAPC   C3512922   1.406   3.901   3.023  0.4399  0.1986  0.4062
  122SAPC   H5X12923   1.515   3.889   3.003  0.1390 -0.0974 -1.2489
  122SAPC   H5Y12924   1.352   3.809   3.055  0.6204 -0.2198 -0.4517
  122SAPC   C3612925   1.406   4.002   3.139  0.5324  0.4559  0.5357
  122SAPC   H6X12926   1.304   4.012   3.182  0.3107  1.1516 -0.1443
  122SAPC   H6Y12927   1.443   4.098   3.099  2.4344 -0.0833  0.8872
  122SAPC   C3712928   1.500   3.967   3.262  0.3352 -0.0384  0.1624
  122SAPC   H7X12929   1.536   4.058   3.314  1.7461 -0.2045 -0.4842
  122SAPC   H7Y12930   1.596   3.923   3.226  0.9106  2.5328 -1.7394
  122SAPC   C3812931   1.436   3.861   3.352 -0.2582  0.4732 -0.0703
  122SAPC   H8X12932   1.409   3.767   3.301 -3.6169  1.4112 -0.2360
  122SAPC   H8Y12933   1.337   3.894   3.390 -1.4966 -0.4507 -2.3082
  122SAPC   C3912934   1.519   3.837   3.477  0.3168 -0.4134  0.1014
  122SAPC   H9X12935   1.529   3.933   3.532 -2.1154  0.2846 -0.5508
  122SAPC   H9Y12936   1.618   3.790   3.457  1.1837  0.2140  2.5551
  122SAPC  C31012937   1.448   3.728   3.558  0.3190 -0.4058  0.1873
  122SAPC  H10X12938   1.432   3.641   3.490  2.7602  0.9804 -2.3680
  122SAPC  H10Y12939   1.349   3.776   3.571  1.0381  1.3034 -0.3590
  122SAPC  C31112940   1.517   3.682   3.684 -0.4616  0.1315 -0.8469
  122SAPC  H11X12941   1.510   3.757   3.765  1.5389 -1.1823  0.6609
  122SAPC  H11Y12942   1.627   3.670   3.669 -0.0744 -0.9755  2.2231
  122SAPC  C31212943   1.471   3.545   3.741  0.0155 -0.5242 -0.3524
  122SAPC  H12X12944   1.452   3.469   3.662 -0.0970  2.0212 -2.9401
  122SAPC  H12Y12945   1.370   3.567   3.782  0.6732 -2.1838  2.3851
  122SAPC  C31312946   1.558   3.499   3.853  0.6084  0.3139  0.2452
  122SAPC  H13X12947   1.633   3.434   3.804 -0.0475 -1.3186  1.3272
  122SAPC  H13Y12948   1.501   3.429   3.917 -0.5360  0.0734 -0.9965
  122SAPC  C31412949   1.627   3.593   3.944  0.5411 -0.0818 -0.8567
  122SAPC  H14X12950   1.561   3.664   3.998  0.7550 -1.6483  1.6734
  122SAPC  H14Y12951   1.691   3.659   3.882  1.3496 -1.4718 -1.5467
  122SAPC  C31512952   1.714   3.520   4.050 -0.1363 -0.2055 -0.1258
  122SAPC  H15X12953   1.641   3.463   4.111 -1.2734  0.9673 -0.3377
  122SAPC  H15Y12954   1.769   3.592   4.115 -0.6068  0.9154 -0.9446
  122SAPC  C31612955   1.826   3.434   3.983  0.2538  0.4579  0.2487
  122SAPC  H16X12956   1.869   3.502   3.906 -0.1242  0.3097 -0.0974
  122SAPC  H16Y12957   1.778   3.352   3.926  1.8990  0.1241 -0.6984
  122SAPC  C31712958   1.934   3.389   4.082 -0.8568 -0.2211 -0.4553
  122SAPC  H17X12959   1.888   3.340   4.171 -0.7547  3.6365  1.9538
  122SAPC  H17Y12960   1.988   3.477   4.122  0.9841 -1.4891 -0.0093
  122SAPC  C31812961   2.052   3.297   4.031  0.3389  0.0171  0.4556
  122SAPC  H18X12962   2.133   3.296   4.107 -0.6761 -1.4513  1.5950
  122SAPC  H18Y12963   2.086   3.348   3.939  2.5096 -1.1993  0.5204
  122SAPC  H18Z12964   2.018   3.192   4.016 -1.1362  0.8692 -3.1137
  123SAPC     N12965   3.927   4.651   1.842 -0.2062 -0.2628  0.1239
  123SAPC   C1212966   4.017   4.646   1.964  0.9150  0.0617  0.3754
  123SAPC  H12A12967   4.064   4.743   1.973 -2.0042  1.7517 -1.0930
  123SAPC  H12B12968   4.097   4.575   1.957  0.1505 -0.7080 -1.0644
  123SAPC   C1312969   3.830   4.542   1.850  0.3064 -0.2112 -0.0434
  123SAPC  H13A12970   3.750   4.547   1.778  3.0598  0.4526 -3.3269
  123SAPC  H13B12971   3.883   4.450   1.830  2.6872  0.6796  1.7195
  123SAPC  H13C12972   3.788   4.535   1.949  0.7012 -1.4805  0.0490
  123SAPC   C1412973   3.849   4.775   1.845 -0.3951 -0.4298  0.0587
  123SAPC  H14A12974   3.768   4.784   1.774 -1.4886 -3.2132  0.8022
  123SAPC  H14B12975   3.819   4.817   1.941 -1.6885  0.5004 -0.7132
  123SAPC  H14C12976   3.909   4.858   1.811 -0.2243 -0.2391  0.8032
  123SAPC   C1512977   3.999   4.643   1.708 -0.3845  0.5474 -0.6335
  123SAPC  H15A12978   3.914   4.644   1.642 -1.3859  0.0695  0.6141
  123SAPC  H15B12979   4.066   4.727   1.702 -0.3595  0.4457 -2.3725
  123SAPC  H15C12980   4.046   4.546   1.694  1.1534  1.3398 -1.2063
  123SAPC   C1112981   3.957   4.614   2.101 -0.0061  0.7594 -0.3076
  123SAPC  H11A12982   3.878   4.690   2.114  0.1693  0.9212 -0.1830
  123SAPC  H11B12983   4.036   4.626   2.178  0.4158 -3.5718  0.2010
  123SAPC     P12984   3.993   4.351   2.106  0.0743  0.1449 -0.1339
  123SAPC   O1312985   3.942   4.261   2.207  0.4208  0.8578 -0.0823
  123SAPC   O1412986   4.008   4.301   1.966 -0.1083  0.3547  0.8571
  123SAPC   O1212987   3.902   4.479   2.112 -0.1839  0.1859  0.0316
  123SAPC   O1112988   4.134   4.410   2.148 -0.3640  0.0848  0.0504
  123SAPC    C112989   4.260   4.369   2.097  0.3043  0.1183 -0.5003
  123SAPC    HA12990   4.263   4.362   1.986 -0.8643  0.0566 -0.5357
  123SAPC    HB12991   4.339   4.442   2.124 -0.9983  1.5524 -0.4466
  123SAPC    C212992   4.287   4.229   2.151 -0.3984  0.0504 -0.3535
  123SAPC    HS12993   4.229   4.158   2.088 -1.5144 -0.4397  1.1798
  123SAPC   O2112994   4.242   4.214   2.284 -0.4075 -0.5892  0.1365
  123SAPC   C2112995   4.204   4.096   2.329  0.0425 -0.4317 -0.4674
  123SAPC   O2212996   4.207   3.993   2.267 -0.2367  0.3371 -0.0727
  123SAPC   C2212997   4.157   4.109   2.471  0.6258  0.1171 -0.0780
  123SAPC   H2R12998   4.161   4.216   2.501  0.6046  1.2861 -3.7425
  123SAPC   H2S12999   4.047   4.099   2.476  0.5982  0.2682 -0.3589
  123SAPC    C313000   4.436   4.190   2.148 -0.7544 -0.1589  0.6151
  123SAPC    HX13001   4.473   4.218   2.047 -0.0232 -3.6973 -0.2236
  123SAPC    HY13002   4.468   4.085   2.167  0.2716 -0.1236 -0.7695
  123SAPC   O3113003   4.510   4.285   2.234 -0.1934 -0.3897 -0.3427
  123SAPC   C3113004   4.568   4.241   2.335  0.0829  0.4726 -0.5601
  123SAPC   O3213005   4.586   4.121   2.361  0.7246  0.1053 -0.4088
  123SAPC   C3213006   4.611   4.363   2.415 -0.2606  0.8403  0.1220
  123SAPC   H2X13007   4.515   4.418   2.428 -0.1433  1.3372 -1.0093
  123SAPC   H2Y13008   4.685   4.424   2.358 -1.0998  0.9925 -0.8250
  123SAPC   C2313009   4.232   4.010   2.565  0.5130 -0.1662  0.2420
  123SAPC   H3R13010   4.340   4.035   2.554  0.5229 -0.0342  0.6443
  123SAPC   H3S13011   4.214   3.913   2.513  0.2710  1.0744 -2.1396
  123SAPC   C2413012   4.183   4.021   2.707 -0.5732 -0.3500  0.4122
  123SAPC   H4R13013   4.207   4.122   2.746  1.9258 -1.5193  2.1441
  123SAPC   H4S13014   4.240   3.951   2.771 -0.5970 -0.7944 -0.0472
  123SAPC   C2513015   4.033   4.002   2.727  0.8294 -0.1088  0.4961
  123SAPC   H5R13016   3.964   4.083   2.698  1.5257  0.7496  1.1862
  123SAPC   C2613017   3.991   3.886   2.762  0.7180  0.4136  0.0761
  123SAPC   H6R13018   3.885   3.865   2.783  0.7899 -0.1985 -0.1393
  123SAPC   C2713019   4.072   3.762   2.807 -0.0277 -0.1031  0.3781
  123SAPC   H7R13020   4.125   3.789   2.901 -0.6012 -0.7737  0.8984
  123SAPC   H7S13021   4.152   3.748   2.731 -0.7743 -1.3576 -0.2128
  123SAPC   C2813022   4.005   3.634   2.825  0.8439 -0.0155 -0.3720
  123SAPC   H8R13023   3.943   3.604   2.739  0.6280 -0.8841  0.0733
  123SAPC   C2913024   4.022   3.542   2.926  0.4889  0.4200  0.0271
  123SAPC   H9R13025   3.957   3.454   2.934 -1.4707  1.4974 -2.5937
  123SAPC  C21013026   4.105   3.548   3.049  0.2517 -0.2967 -0.5697
  123SAPC  H10R13027   4.042   3.589   3.130  1.6122 -1.6818  1.2550
  123SAPC  H10S13028   4.195   3.612   3.038  1.2655 -1.3293  1.2237
  123SAPC  C21113029   4.152   3.411   3.085  0.1168 -0.0381 -0.0542
  123SAPC  H11R13030   4.250   3.386   3.042 -0.3800  2.0784 -2.6893
  123SAPC  C21213031   4.112   3.333   3.195 -0.7163  0.3422  0.4820
  123SAPC  H12R13032   4.163   3.236   3.207  0.6101  0.8729 -0.4894
  123SAPC  C21313033   3.995   3.357   3.285 -0.0908  0.4661 -0.4533
  123SAPC  H13R13034   3.999   3.467   3.302  1.4073  0.5774 -1.2912
  123SAPC  H13S13035   4.015   3.306   3.381  2.4390  0.5866 -0.8340
  123SAPC  C21413036   3.863   3.312   3.241  0.4953 -0.3431 -0.2575
  123SAPC  H14R13037   3.811   3.385   3.178 -3.0491 -0.1532  2.5261
  123SAPC  C21513038   3.800   3.200   3.284 -0.0868  0.2634  0.1230
  123SAPC  H15R13039   3.700   3.173   3.248  0.1978 -1.1148  0.3393
  123SAPC  C21613040   3.848   3.092   3.384 -0.0812  0.0710  0.1276
  123SAPC  H16R13041   3.958   3.085   3.400 -0.1338 -1.3399 -0.0075
  123SAPC  H16S13042   3.832   2.998   3.326  1.0850 -0.1574  0.1576
  123SAPC  C21713043   3.766   3.087   3.511 -0.2222  0.2552  0.8617
  123SAPC  H17R13044   3.758   2.985   3.553  2.1181 -0.2246  0.2873
  123SAPC  H17S13045   3.664   3.126   3.492 -0.9523 -3.0315 -3.7038
  123SAPC  C21813046   3.845   3.179   3.609 -0.6749  0.2580 -0.1193
  123SAPC  H18R13047   3.838   3.281   3.565 -2.0138  0.0777 -0.3648
  123SAPC  H18S13048   3.952   3.150   3.607 -1.1786 -1.9854  1.3816
  123SAPC  C21913049   3.799   3.181   3.761  0.6220  0.3733  0.7621
  123SAPC  H19R13050   3.867   3.260   3.801 -0.0750  2.0799 -1.2300
  123SAPC  H19S13051   3.816   3.085   3.813  1.3955 -0.6081 -1.1788
  123SAPC  C22013052   3.647   3.225   3.769 -0.4208  0.5985 -0.1724
  123SAPC  H20R13053   3.627   3.308   3.699 -0.8346 -0.3462 -1.2133
  123SAPC  H20S13054   3.627   3.251   3.875 -0.5142 -2.6629  0.7288
  123SAPC  H20T13055   3.585   3.134   3.751  0.0517  0.2425 -0.0423
  123SAPC   C3313056   4.677   4.331   2.550  0.2102  1.2230  0.0982
  123SAPC   H3X13057   4.747   4.412   2.578 -0.7183  2.2162 -0.3902
  123SAPC   H3Y13058   4.745   4.243   2.542 -1.4933  0.0074 -3.4657
  123SAPC   C3413059   4.571   4.297   2.654 -0.0725  0.3414 -0.1024
  123SAPC   H4X13060   4.494   4.235   2.604  0.0943 -0.8187  1.0153
  123SAPC   H4Y13061   4.521   4.389   2.692  0.3249  1.0348 -1.2316
  123SAPC   C3513062   4.629   4.223   2.781 -0.0725  0.3683  0.3540
  123SAPC   H5X13063   4.688   4.300   2.835  0.7330 -0.5165  0.7821
  123SAPC   H5Y13064   4.683   4.139   2.731  0.0650  1.2654 -1.0449
  123SAPC   C3613065   4.517   4.155   2.866 -0.0144  0.3577  0.2853
  123SAPC   H6X13066   4.452   4.098   2.797 -0.0824  1.3328 -0.4793
  123SAPC   H6Y13067   4.462   4.240   2.912  0.5678  0.6588  0.4343
  123SAPC   C3713068   4.579   4.076   2.978  0.1546 -0.3469  0.1394
  123SAPC   H7X13069   4.665   4.130   3.023  2.3828 -2.2326 -1.6001
  123SAPC   H7Y13070   4.614   3.975   2.947  2.0285 -0.0324  1.0680
  123SAPC   C3813071   4.474   4.036   3.089 -0.4457 -0.1803  0.2019
  123SAPC   H8X13072   4.396   3.970   3.047  0.2541 -1.5755  1.0205
  123SAPC   H8Y13073   4.431   4.127   3.137  0.0344  0.4066 -0.4541
  123SAPC   C3913074   4.533   3.943   3.198  0.1317  0.0940 -0.0022
  123SAPC   H9X13075   4.633   3.982   3.226  0.1435 -0.9345  1.4773
  123SAPC   H9Y13076   4.550   3.848   3.142  1.4223  1.4254 -2.0347
  123SAPC  C31013077   4.452   3.936   3.332 -1.1041 -0.3387 -0.5920
  123SAPC  H10X13078   4.423   4.035   3.374 -1.2343 -1.6877  2.7384
  123SAPC  H10Y13079   4.502   3.879   3.413 -1.2847 -1.3002 -1.1395
  123SAPC  C31113080   4.310   3.867   3.320 -0.3368  0.0118  0.1970
  123SAPC  H11X13081   4.315   3.803   3.230 -0.9216 -0.2315  0.3320
  123SAPC  H11Y13082   4.235   3.940   3.280  0.2131  0.7433  0.4766
  123SAPC  C31213083   4.266   3.784   3.443  0.0411  0.5668 -0.5365
  123SAPC  H12X13084   4.261   3.854   3.529  0.7558 -0.2132  0.1594
  123SAPC  H12Y13085   4.347   3.710   3.460 -1.4952 -0.6473  1.9960
  123SAPC  C31313086   4.127   3.717   3.426  0.1841 -0.1474  0.2291
  123SAPC  H13X13087   4.147   3.654   3.337  1.4931  0.1028  0.3276
  123SAPC  H13Y13088   4.045   3.787   3.401  1.8561  2.3224  1.2455
  123SAPC  C31413089   4.096   3.637   3.552  0.1788 -0.6904 -0.2468
  123SAPC  H14X13090   4.173   3.558   3.549  0.9048  0.0341 -1.5895
  123SAPC  H14Y13091   4.003   3.581   3.529 -0.5727  1.0372 -1.6907
  123SAPC  C31513092   4.077   3.723   3.685  0.1490  0.5448  0.4621
  123SAPC  H15X13093   4.037   3.821   3.652 -1.3051  0.7676  2.6805
  123SAPC  H15Y13094   4.176   3.735   3.735  0.7950  0.6661 -0.8143
  123SAPC  C31613095   3.978   3.656   3.780 -0.2450 -1.1022  0.0347
  123SAPC  H16X13096   4.027   3.564   3.820 -3.6183 -2.8991  0.4145
  123SAPC  H16Y13097   3.897   3.617   3.715 -0.5941 -0.1505 -0.1034
  123SAPC  C31713098   3.946   3.747   3.897  0.2733 -0.3203 -0.2991
  123SAPC  H17X13099   3.921   3.851   3.868  1.5461 -0.2331 -1.1620
  123SAPC  H17Y13100   4.024   3.768   3.973 -0.2063  0.5405 -0.0257
  123SAPC  C31813101   3.817   3.700   3.985 -0.4810  0.2750  0.1023
  123SAPC  H18X13102   3.733   3.696   3.912 -1.1208 -4.5940  0.8251
  123SAPC  H18Y13103   3.809   3.782   4.059  1.8938  0.9380 -0.2770
  123SAPC  H18Z13104   3.834   3.605   4.039  0.0321  1.4383  2.0956
  124SAPC     N13105   4.347   2.009   1.601 -0.2549 -0.2746 -0.5397
  124SAPC   C1213106   4.367   2.079   1.741 -0.1237 -0.4140 -0.3552
  124SAPC  H12A13107   4.379   2.001   1.815  1.7896  1.2991  1.2375
  124SAPC  H12B13108   4.272   2.125   1.764  0.2607  0.8720 -1.2504
  124SAPC   C1313109   4.314   2.100   1.493  0.0438 -0.3717  0.6622
  124SAPC  H13A13110   4.395   2.167   1.469 -1.2769  0.5752 -1.5916
  124SAPC  H13B13111   4.294   2.043   1.403 -0.7357  0.4938  0.2554
  124SAPC  H13C13112   4.221   2.154   1.503 -1.1895 -2.4429  0.9362
  124SAPC   C1413113   4.473   1.930   1.569  0.2878  0.2165 -0.1631
  124SAPC  H14A13114   4.500   1.866   1.652  2.5928  1.1957 -0.0700
  124SAPC  H14B13115   4.456   1.874   1.479  3.7582  2.1211 -2.2472
  124SAPC  H14C13116   4.543   2.007   1.541 -1.2991  1.3292 -1.2680
  124SAPC   C1513117   4.243   1.905   1.624 -0.0285  0.3403 -1.3668
  124SAPC  H15A13118   4.153   1.954   1.657  1.1669  1.4624  0.4087
  124SAPC  H15B13119   4.228   1.846   1.534 -1.7346 -2.9030  0.8442
  124SAPC  H15C13120   4.268   1.825   1.692  0.7118  0.6798 -1.2312
  124SAPC   C1113121   4.487   2.164   1.771 -0.3861 -0.0887 -0.2509
  124SAPC  H11A13122   4.482   2.225   1.864  2.9668 -0.0730  0.0565
  124SAPC  H11B13123   4.500   2.229   1.682  1.4395 -0.5455 -0.3639
  124SAPC     P13124   4.696   2.021   1.889 -0.4189 -0.3546 -0.2943
  124SAPC   O1313125   4.648   1.886   1.922 -0.2344 -0.0881  0.1665
  124SAPC   O1413126   4.842   2.041   1.853  0.3483  0.3512  0.2445
  124SAPC   O1213127   4.611   2.081   1.772  0.1355  0.3222 -0.2639
  124SAPC   O1113128   4.659   2.110   2.011 -0.1863 -0.3457  0.2737
  124SAPC    C113129   4.583   2.084   2.127  0.4729  0.2463 -0.6091
  124SAPC    HA13130   4.478   2.056   2.102  0.5606 -2.5457  1.7337
  124SAPC    HB13131   4.621   1.992   2.175  2.2486  0.7584 -0.9686
  124SAPC    C213132   4.577   2.202   2.229  0.7188  0.1813 -0.1258
  124SAPC    HS13133   4.487   2.267   2.218 -1.0402 -1.4445  3.2573
  124SAPC   O2113134   4.706   2.269   2.227  0.1012 -0.0367  0.5155
  124SAPC   C2113135   4.708   2.390   2.159 -0.3959 -0.4694 -0.6406
  124SAPC   O2213136   4.616   2.434   2.093 -0.2484  0.4114 -0.4133
  124SAPC   C2213137   4.845   2.456   2.172  0.5745  0.2270  0.1293
  124SAPC   H2R13138   4.914   2.373   2.196 -0.4133 -1.1805 -1.6591
  124SAPC   H2S13139   4.875   2.491   2.071 -2.1749 -0.7366 -1.1251
  124SAPC    C313140   4.557   2.147   2.376 -0.3395  0.4361  0.7488
  124SAPC    HX13141   4.658   2.111   2.405 -0.6639 -2.7961 -1.6733
  124SAPC    HY13142   4.490   2.059   2.372 -0.0396  0.1364  1.8944
  124SAPC   O3113143   4.506   2.259   2.462  0.0699  0.6260  0.3909
  124SAPC   C3113144   4.441   2.216   2.576  0.1038  0.3140  0.8082
  124SAPC   O3213145   4.426   2.101   2.604  0.5810  0.1299 -0.0858
  124SAPC   C3213146   4.403   2.330   2.675 -0.0630  0.4005  0.1811
  124SAPC   H2X13147   4.350   2.408   2.616 -0.5000  0.0878  0.1562
  124SAPC   H2Y13148   4.501   2.374   2.704 -0.1694  0.3571  0.5998
  124SAPC   C2313149   4.869   2.573   2.273  0.2128 -0.3977  0.2716
  124SAPC   H3R13150   4.796   2.656   2.266  2.1636  1.3433 -0.5106
  124SAPC   H3S13151   4.972   2.614   2.265  0.0995 -0.0097  0.7734
  124SAPC   C2413152   4.848   2.524   2.424  0.4748 -0.4511 -0.2262
  124SAPC   H4R13153   4.915   2.436   2.438  2.9559  1.2300 -0.8356
  124SAPC   H4S13154   4.745   2.482   2.426 -0.2202  1.0698 -1.7143
  124SAPC   C2513155   4.881   2.628   2.524  0.8691 -0.1193  1.1031
  124SAPC   H5R13156   4.983   2.665   2.506  0.8734 -1.4160 -2.3385
  124SAPC   C2613157   4.802   2.675   2.623  0.0185 -0.2011 -0.1798
  124SAPC   H6R13158   4.845   2.764   2.672  0.0559  0.9327 -2.1592
  124SAPC   C2713159   4.665   2.625   2.657  0.5677  0.1159  0.5941
  124SAPC   H7R13160   4.624   2.542   2.596 -0.0701  1.4106 -0.8012
  124SAPC   H7S13161   4.599   2.707   2.623 -0.3252  0.1729  2.3739
  124SAPC   C2813162   4.642   2.606   2.807 -0.6760  0.5406 -0.0449
  124SAPC   H8R13163   4.642   2.500   2.835 -0.5823  0.8614  1.2214
  124SAPC   C2913164   4.623   2.699   2.904  0.2408 -0.2952  0.0392
  124SAPC   H9R13165   4.608   2.667   3.009  0.5686  0.6042  0.3683
  124SAPC  C21013166   4.609   2.848   2.890 -0.2572 -0.2237  0.0960
  124SAPC  H10R13167   4.507   2.874   2.856 -0.3346  0.0777  0.5426
  124SAPC  H10S13168   4.676   2.883   2.808  1.1080  1.0994  1.7021
  124SAPC  C21113169   4.636   2.924   3.017  0.2060 -0.3310  0.2312
  124SAPC  H11R13170   4.740   2.953   3.037 -0.1075  1.8768 -0.9741
  124SAPC  C21213171   4.539   2.973   3.096  0.5222  0.1012 -0.3667
  124SAPC  H12R13172   4.572   3.021   3.189  0.2887  3.1305 -1.7120
  124SAPC  C21313173   4.393   2.958   3.080  0.6040  0.7693 -1.0211
  124SAPC  H13R13174   4.380   2.960   2.969  3.5191  1.0336 -1.4415
  124SAPC  H13S13175   4.339   3.049   3.116 -1.2859 -1.3394  1.9264
  124SAPC  C21413176   4.334   2.832   3.143  0.6522  0.1677 -0.2482
  124SAPC  H14R13177   4.363   2.738   3.093  2.0412  0.3049  0.2457
  124SAPC  C21513178   4.246   2.825   3.245  0.1288  0.4835  0.5765
  124SAPC  H15R13179   4.209   2.725   3.271  2.1551 -0.6308 -0.5565
  124SAPC  C21613180   4.173   2.932   3.310 -0.2336  0.0055  0.0099
  124SAPC  H16R13181   4.067   2.901   3.326 -0.8328  1.5060 -0.8538
  124SAPC  H16S13182   4.179   3.024   3.248  2.3277 -0.6807 -0.8621
  124SAPC  C21713183   4.222   2.975   3.450 -0.3982  0.1134  0.0789
  124SAPC  H17R13184   4.154   3.059   3.477 -1.1366 -0.4989  0.1546
  124SAPC  H17S13185   4.318   3.029   3.434 -0.7848  1.5945  2.3276
  124SAPC  C21813186   4.226   2.867   3.562 -0.2077 -0.3623 -0.2955
  124SAPC  H18R13187   4.289   2.905   3.646 -0.4847  2.2801 -1.1788
  124SAPC  H18S13188   4.276   2.783   3.509  2.8351  0.7939  0.5130
  124SAPC  C21913189   4.090   2.831   3.622  0.1482  0.3064  0.0891
  124SAPC  H19R13190   4.050   2.741   3.571  0.4004  0.6715 -0.7679
  124SAPC  H19S13191   4.013   2.903   3.588  1.4951  1.5800 -0.3665
  124SAPC  C22013192   4.087   2.806   3.776  0.5982 -0.2382  0.1982
  124SAPC  H20R13193   4.108   2.888   3.848  1.2637 -1.3418  1.2931
  124SAPC  H20S13194   4.146   2.721   3.816 -2.8024 -1.9995  1.9747
  124SAPC  H20T13195   3.982   2.780   3.802  0.3276  1.9830  1.5992
  124SAPC   C3313196   4.321   2.288   2.795  0.7001  0.1859 -0.4329
  124SAPC   H3X13197   4.381   2.224   2.864 -2.2630 -2.1270  0.2256
  124SAPC   H3Y13198   4.229   2.230   2.777  1.4043 -1.0188 -0.2578
  124SAPC   C3413199   4.280   2.410   2.874 -0.3118  0.4057  0.9675
  124SAPC   H4X13200   4.221   2.479   2.810 -0.3629 -0.6021 -0.1066
  124SAPC   H4Y13201   4.374   2.462   2.901 -0.7346  1.3687  0.6287
  124SAPC   C3513202   4.205   2.374   2.998  0.1568 -0.6702 -0.6596
  124SAPC   H5X13203   4.280   2.346   3.076 -1.2797  1.6319  1.7253
  124SAPC   H5Y13204   4.136   2.290   2.978 -0.9929  0.4108 -1.3480
  124SAPC   C3613205   4.115   2.494   3.047 -0.1735  0.7657  0.4469
  124SAPC   H6X13206   4.053   2.510   2.956  0.2842  3.3928  0.5007
  124SAPC   H6Y13207   4.176   2.586   3.057 -1.1976  1.4315  0.7335
  124SAPC   C3713208   4.022   2.471   3.176 -0.4900  0.0522 -0.1962
  124SAPC   H7X13209   4.085   2.461   3.267 -2.3077 -1.0401  1.0222
  124SAPC   H7Y13210   3.970   2.375   3.156 -1.8194  0.5058  0.9109
  124SAPC   C3813211   3.917   2.584   3.195  0.1255 -0.6315  0.2624
  124SAPC   H8X13212   3.829   2.565   3.130 -2.0102 -2.5006  3.3919
  124SAPC   H8Y13213   3.969   2.682   3.189  0.0094 -0.5473  0.5909
  124SAPC   C3913214   3.874   2.582   3.344 -0.6286  0.5937  0.1082
  124SAPC   H9X13215   3.968   2.607   3.397 -0.2865 -0.2402 -0.0852
  124SAPC   H9Y13216   3.841   2.478   3.367 -1.3924  0.3763 -1.7541
  124SAPC  C31013217   3.771   2.689   3.375 -0.0840  0.0740 -0.1749
  124SAPC  H10X13218   3.693   2.695   3.296 -1.7732 -1.6597  1.2464
  124SAPC  H10Y13219   3.812   2.792   3.360  1.2193 -0.4088 -0.0675
  124SAPC  C31113220   3.722   2.679   3.516  0.4797  0.3091 -0.9217
  124SAPC  H11X13221   3.667   2.770   3.549 -0.1296 -0.4346  0.1756
  124SAPC  H11Y13222   3.798   2.655   3.593 -0.3345 -1.4512 -0.6164
  124SAPC  C31213223   3.616   2.569   3.539 -0.4011  0.1771  0.1008
  124SAPC  H12X13224   3.660   2.468   3.522 -1.2420 -0.3340  0.8935
  124SAPC  H12Y13225   3.530   2.568   3.468 -0.7396 -1.3702  0.5052
  124SAPC  C31313226   3.555   2.576   3.675  0.0771 -0.5134  0.3381
  124SAPC  H13X13227   3.502   2.673   3.685 -0.2167 -0.4139 -1.8578
  124SAPC  H13Y13228   3.647   2.567   3.737  1.9557  3.5902 -1.5082
  124SAPC  C31413229   3.454   2.465   3.702 -0.4805 -0.3821 -0.3186
  124SAPC  H14X13230   3.508   2.368   3.699  1.3412  0.5187  1.2076
  124SAPC  H14Y13231   3.378   2.462   3.622  0.3553 -0.0900 -1.1341
  124SAPC  C31513232   3.396   2.486   3.837  0.2136  0.1681 -0.4233
  124SAPC  H15X13233   3.339   2.581   3.846  1.1010  0.5705  1.6523
  124SAPC  H15Y13234   3.481   2.493   3.909 -0.9000 -1.9452  1.2074
  124SAPC  C31613235   3.307   2.362   3.886 -0.3551 -0.3874  0.2803
  124SAPC  H16X13236   3.378   2.280   3.912  0.6668  0.8712  1.6931
  124SAPC  H16Y13237   3.241   2.331   3.803 -0.6185 -0.6442  0.5893
  124SAPC  C31713238   3.224   2.391   4.008 -0.1699 -0.3734  0.0291
  124SAPC  H17X13239   3.159   2.310   4.047 -0.6279  0.7815  1.8415
  124SAPC  H17Y13240   3.159   2.476   3.976 -0.3799 -0.4242  0.3081
  124SAPC  C31813241   3.309   2.449   4.121 -0.2794 -0.6969  0.2426
  124SAPC  H18X13242   3.260   2.465   4.219 -0.5073  3.1829 -0.3462
  124SAPC  H18Y13243   3.346   2.551   4.098  1.2141 -1.0550  0.9538
  124SAPC  H18Z13244   3.397   2.381   4.127 -0.0045 -0.1979  2.5855
  125SOPE     N13245   2.683   2.728   6.643 -0.0848 -0.3942 -0.0605
  125SOPE   HN113246   2.730   2.679   6.721  0.8462  0.6279  0.0389
  125SOPE   HN213247   2.585   2.751   6.668 -0.1153 -0.9190  0.3144
  125SOPE   HN313248   2.690   2.660   6.564  1.5108 -0.0161 -0.2811
  125SOPE   C1213249   2.761   2.850   6.591  0.2015  0.6922  0.2614
  125SOPE  H12A13250   2.736   2.927   6.667  0.6850  0.3667  0.7600
  125SOPE  H12B13251   2.721   2.877   6.491  0.5896 -1.5032 -0.5431
  125SOPE   C1113252   2.913   2.825   6.574  0.2524  0.7464  0.4534
  125SOPE  H11A13253   2.963   2.784   6.665  1.5486 -1.5491 -1.1831
  125SOPE  H11B13254   2.962   2.923   6.556  0.0499  0.7038 -0.3806
  125SOPE     P13255   3.061   2.713   6.385 -0.0487 -0.0932  0.0081
  125SOPE   O1313256   3.045   2.613   6.276 -0.3999 -0.2971 -0.3393
  125SOPE   O1413257   3.174   2.680   6.483 -0.4218  0.6306  1.0993
  125SOPE   O1213258   2.925   2.732   6.466 -0.4891  0.4153  0.7048
  125SOPE   O1113259   3.096   2.858   6.330  0.4275 -0.2309 -0.2971
  125SOPE    C113260   3.027   2.905   6.216  0.2888  0.3470 -0.9182
  125SOPE    HA13261   3.030   3.015   6.204  0.2015  0.6319  1.3304
  125SOPE    HB13262   2.921   2.874   6.216  0.2994  0.1965  0.9865
  125SOPE    C213263   3.084   2.847   6.081  0.1287 -0.0861  0.3592
  125SOPE    HS13264   3.072   2.736   6.079  1.2150 -0.2122 -1.4976
  125SOPE   O2113265   3.222   2.883   6.081  0.1382  0.6438 -0.1783
  125SOPE   C2113266   3.309   2.804   6.017  0.4381  0.4886  0.3915
  125SOPE   O2213267   3.287   2.692   5.972 -0.0450  0.5539 -0.0512
  125SOPE   C2213268   3.456   2.854   6.020 -0.6502  0.3298  0.2643
  125SOPE   H2R13269   3.492   2.822   6.120  1.3722  1.4071 -0.0640
  125SOPE   H2S13270   3.465   2.965   6.024 -1.1528  0.3676  0.4004
  125SOPE    C313271   3.014   2.906   5.957  0.0637  0.1132 -0.1938
  125SOPE    HX13272   3.033   3.015   5.951 -2.3549  0.5852 -0.1053
  125SOPE    HY13273   2.904   2.893   5.957 -0.1065  1.3516 -0.8511
  125SOPE   O3113274   3.069   2.854   5.834 -0.2514  0.6026  0.3145
  125SOPE   C3113275   3.007   2.752   5.778  0.3702 -0.1468 -0.0753
  125SOPE   O3213276   2.910   2.693   5.826  0.5200 -0.0703  0.0399
  125SOPE   C3213277   3.076   2.710   5.650 -0.7602  0.0822  0.2426
  125SOPE   H2X13278   3.062   2.600   5.638 -3.7836  0.4090 -0.1262
  125SOPE   H2Y13279   3.184   2.726   5.667 -1.2651  2.4396  1.6711
  125SOPE   C2313280   3.561   2.790   5.916  0.2117 -0.1345  0.3072
  125SOPE   H3R13281   3.542   2.680   5.912  3.8185 -1.1258  3.9652
  125SOPE   H3S13282   3.667   2.787   5.948 -0.0606  1.1789  1.4377
  125SOPE   C2413283   3.547   2.862   5.778 -0.4383 -0.4526 -0.3448
  125SOPE   H4R13284   3.439   2.853   5.753 -0.2794 -1.7974 -0.6372
  125SOPE   H4S13285   3.580   2.968   5.774  1.6800 -0.8934  2.2524
  125SOPE   C2513286   3.613   2.787   5.656  0.2898  0.2887 -0.1178
  125SOPE   H5R13287   3.723   2.776   5.658  0.2051 -0.6436 -0.3619
  125SOPE   H5S13288   3.565   2.688   5.669  0.0420  0.4366  0.1032
  125SOPE   C2613289   3.566   2.837   5.519  0.7633 -0.0132 -0.4097
  125SOPE   H6R13290   3.456   2.846   5.518  0.6222 -1.3869  0.7372
  125SOPE   H6S13291   3.602   2.942   5.511 -1.4181  1.0845  2.4778
  125SOPE   C2713292   3.618   2.755   5.401  0.6942 -0.5146  0.2472
  125SOPE   H7R13293   3.729   2.746   5.408  0.8752  1.3809  0.2778
  125SOPE   H7S13294   3.586   2.648   5.406  0.2771 -0.4110 -0.1656
  125SOPE   C2813295   3.584   2.826   5.268 -0.0442  0.1525 -0.5465
  125SOPE   H8R13296   3.491   2.788   5.221 -1.5493  2.3526  0.4424
  125SOPE   H8S13297   3.560   2.930   5.298 -2.7659 -0.5897  0.1545
  125SOPE   C2913298   3.699   2.821   5.175 -0.4932 -0.8326 -0.3820
  125SOPE   H9113299   3.794   2.827   5.229 -1.5721 -0.7326  1.5815
  125SOPE  C21013300   3.700   2.805   5.039 -0.0624 -0.1686  0.3287
  125SOPE  H10113301   3.795   2.796   4.984 -0.3511 -1.9155  0.0712
  125SOPE  C21113302   3.575   2.781   4.955  0.4525 -0.6357  0.2968
  125SOPE  H11R13303   3.570   2.852   4.870 -1.4768 -0.2153  0.7236
  125SOPE  H11S13304   3.475   2.785   5.003  0.2433 -1.7025 -0.0412
  125SOPE  C21213305   3.583   2.636   4.893 -0.2561  0.2902 -0.0616
  125SOPE  H12R13306   3.528   2.562   4.955 -1.1114  0.2789 -0.8017
  125SOPE  H12S13307   3.688   2.611   4.866 -0.1250  2.0870 -1.3839
  125SOPE  C21313308   3.518   2.617   4.757  0.4081  0.7668  0.4047
  125SOPE  H13R13309   3.565   2.686   4.683  2.3622 -2.0261 -1.1315
  125SOPE  H13S13310   3.410   2.643   4.760  0.3005  0.5509 -0.8704
  125SOPE  C21413311   3.555   2.476   4.697 -0.7299  0.1784 -0.7751
  125SOPE  H14R13312   3.484   2.404   4.743  0.9676 -1.5677 -0.7684
  125SOPE  H14S13313   3.649   2.432   4.738 -0.6614 -1.0296 -2.1497
  125SOPE  C21513314   3.557   2.459   4.546 -0.0415  0.0502  0.2270
  125SOPE  H15R13315   3.625   2.538   4.508  2.5453 -2.6525 -1.2412
  125SOPE  H15S13316   3.457   2.467   4.501  0.3277 -0.8556 -0.7882
  125SOPE  C21613317   3.609   2.320   4.498  0.3475 -0.5496  0.3067
  125SOPE  H16R13318   3.549   2.235   4.538 -0.0881 -0.5547 -0.3292
  125SOPE  H16S13319   3.704   2.313   4.555  0.1840 -0.1288  0.6287
  125SOPE  C21713320   3.612   2.311   4.347  0.3926  0.5593  0.1103
  125SOPE  H17R13321   3.642   2.413   4.314  2.3348  0.2136  0.6479
  125SOPE  H17S13322   3.505   2.296   4.325  0.4715 -1.8764  1.1534
  125SOPE  C21813323   3.703   2.194   4.301 -0.8920  0.2068 -0.9692
  125SOPE  H18R13324   3.810   2.221   4.312 -0.8988 -0.3983  0.9439
  125SOPE  H18S13325   3.685   2.185   4.191 -1.3492  1.3342 -0.9973
  125SOPE  H18T13326   3.665   2.099   4.345 -1.5075  0.8937  0.0259
  125SOPE   C3313327   3.020   2.792   5.536  0.1765  0.3892 -0.0403
  125SOPE   H3X13328   3.085   2.879   5.515  0.8004 -0.2007 -0.6218
  125SOPE   H3Y13329   2.917   2.825   5.559 -0.2330  0.3519 -1.6736
  125SOPE   C3413330   3.004   2.711   5.407 -0.1653  0.2618  0.0968
  125SOPE   H4X13331   3.089   2.641   5.393 -2.1127 -1.8681 -1.9738
  125SOPE   H4Y13332   3.008   2.783   5.322 -1.4589 -0.1415 -0.3307
  125SOPE   C3513333   2.879   2.631   5.411  0.0654 -0.0912  0.4667
  125SOPE   H5X13334   2.801   2.708   5.399  1.3986  1.3691  0.8020
  125SOPE   H5Y13335   2.857   2.576   5.505  0.4163  0.2468  0.7481
  125SOPE   C3613336   2.881   2.521   5.298 -0.5639 -0.3508  0.3689
  125SOPE   H6X13337   2.786   2.464   5.290 -1.3223  0.9687 -0.4552
  125SOPE   H6Y13338   2.965   2.458   5.331  0.0990  0.3815  0.1265
  125SOPE   C3713339   2.902   2.564   5.146  0.2917 -0.5719  0.5192
  125SOPE   H7X13340   2.910   2.468   5.090  1.6922 -0.6107  0.7513
  125SOPE   H7Y13341   2.999   2.618   5.150 -0.4647  0.7756  1.4812
  125SOPE   C3813342   2.792   2.652   5.091  0.4068  0.2371  0.1081
  125SOPE   H8X13343   2.782   2.738   5.161  0.6431  0.9794 -0.7583
  125SOPE   H8Y13344   2.695   2.599   5.084  0.5921  0.0821 -1.8255
  125SOPE   C3913345   2.823   2.694   4.950  0.6262 -0.4299 -0.1377
  125SOPE   H9X13346   2.857   2.596   4.910 -1.0874 -0.5950 -1.3114
  125SOPE   H9Y13347   2.904   2.769   4.962  0.7924 -0.8578  1.7334
  125SOPE  C31013348   2.695   2.728   4.870 -0.1024  0.9585 -0.0958
  125SOPE  H10X13349   2.641   2.816   4.911  2.0739  2.3669 -0.0498
  125SOPE  H10Y13350   2.632   2.637   4.872  1.1423  0.0341 -1.0890
  125SOPE  C31113351   2.719   2.745   4.722 -0.2788  0.2624  0.1855
  125SOPE  H11X13352   2.623   2.740   4.667  0.6504 -0.0592 -1.4624
  125SOPE  H11Y13353   2.775   2.662   4.676  0.9495  1.5559 -0.7578
  125SOPE  C31213354   2.792   2.877   4.688 -0.1903  1.0532  0.4372
  125SOPE  H12X13355   2.852   2.917   4.773 -1.1521  2.5339  0.4632
  125SOPE  H12Y13356   2.710   2.947   4.661 -1.3912 -0.8946 -1.2477
  125SOPE  C31313357   2.885   2.862   4.560 -0.3574  0.2662 -0.1371
  125SOPE  H13X13358   2.959   2.785   4.590 -1.8846 -2.3720 -2.6561
  125SOPE  H13Y13359   2.930   2.963   4.549 -0.6303  0.4931  0.7177
  125SOPE  C31413360   2.817   2.824   4.421  0.1509 -0.0142 -1.0538
  125SOPE  H14X13361   2.802   2.715   4.406 -0.0297  0.1760 -2.4671
  125SOPE  H14Y13362   2.904   2.843   4.353 -0.3647 -1.7909 -2.2753
  125SOPE  C31513363   2.697   2.909   4.391  0.7218 -0.5315  0.1670
  125SOPE  H15X13364   2.721   3.009   4.434  0.6368 -1.2099  1.8462
  125SOPE  H15Y13365   2.610   2.862   4.442 -0.5782 -0.6196 -2.0216
  125SOPE  C31613366   2.662   2.923   4.242 -0.3025 -0.4278 -1.0365
  125SOPE  H16X13367   2.660   2.821   4.198  0.7711 -1.2473  0.6957
  125SOPE  H16Y13368   2.751   2.970   4.195 -1.5301  2.0445 -1.0775
  125SOPE  C31713369   2.539   3.016   4.226  0.4771 -0.3788  0.1026
  125SOPE  H17X13370   2.567   3.120   4.255  2.1764 -0.7292 -0.1767
  125SOPE  H17Y13371   2.453   2.981   4.286  0.0832 -1.0601 -0.8325
  125SOPE  C31813372   2.482   3.020   4.084  0.9036  0.2244  0.0987
  125SOPE  H18X13373   2.451   2.920   4.045 -0.3859  1.1267 -1.2831
  125SOPE  H18Y13374   2.556   3.042   4.005 -0.2134 -0.6173 -1.2336
  125SOPE  H18Z13375   2.400   3.093   4.069 -0.6258 -1.5512 -0.6609
  126SOPE     N13376   6.659   0.247   6.803  0.3222 -0.4964  0.3660
  126SOPE   HN113377   6.633   0.152   6.838  0.3733 -0.3633  0.7696
  126SOPE   HN213378   6.586   0.285   6.740  0.8439  0.6364  0.4240
  126SOPE   HN313379   6.739   0.239   6.738 -1.2188  4.8265 -2.7901
  126SOPE   C1213380   6.707   0.347   6.899  0.0893 -0.1713  0.1955
  126SOPE  H12A13381   6.623   0.360   6.970  0.2165 -1.7985  0.6632
  126SOPE  H12B13382   6.730   0.446   6.852 -1.0893  0.4747  0.9229
  126SOPE   C1113383   6.832   0.289   6.976  0.3086  0.1867  0.1506
  126SOPE  H11A13384   6.822   0.179   6.984 -0.9097  0.2047 -0.7723
  126SOPE  H11B13385   6.839   0.336   7.076 -0.1827  0.2808  0.1445
  126SOPE     P13386   7.046   0.222   6.838  0.1363  0.4441 -0.1425
  126SOPE   O1313387   7.093   0.118   6.934  0.0251  0.2338  0.5022
  126SOPE   O1413388   7.147   0.301   6.766  0.1143  0.0721 -0.3074
  126SOPE   O1213389   6.947   0.326   6.910 -0.7886 -0.3141 -0.2738
  126SOPE   O1113390   6.966   0.159   6.724  0.0774 -0.1862 -0.0978
  126SOPE    C113391   7.013   0.047   6.652 -0.0377  0.2494  0.2789
  126SOPE    HA13392   6.922  -0.003   6.612 -0.4701  0.5573  0.8533
  126SOPE    HB13393   7.064  -0.034   6.707  0.7973 -0.0454 -0.8847
  126SOPE    C213394   7.111   0.082   6.537  0.4913 -0.0748 -0.0906
  126SOPE    HS13395   7.209   0.085   6.590  0.3254  2.0188  0.1935
  126SOPE   O2113396   7.070   0.209   6.485  0.3105 -0.4089 -0.4365
  126SOPE   C2113397   7.171   0.278   6.433  0.2684 -0.5729  0.5587
  126SOPE   O2213398   7.288   0.249   6.446  0.0528 -0.4778  0.3999
  126SOPE   C2213399   7.120   0.411   6.374 -0.2142  0.7841 -0.5930
  126SOPE   H2R13400   7.211   0.469   6.348 -0.5401  1.5365 -0.0915
  126SOPE   H2S13401   7.073   0.462   6.461 -1.2245 -0.1584 -0.5505
  126SOPE    C313402   7.125  -0.018   6.420  0.1251  0.8158 -0.6617
  126SOPE    HX13403   7.025  -0.023   6.374  0.3001 -0.8597 -0.9099
  126SOPE    HY13404   7.144  -0.118   6.465 -1.1830  1.5893  1.7926
  126SOPE   O3113405   7.214   0.019   6.315 -0.2351  0.1335  0.1536
  126SOPE   C3113406   7.340  -0.004   6.331 -0.3013 -0.2272  0.3406
  126SOPE   O3213407   7.397  -0.060   6.422  0.1602  0.4348 -0.2888
  126SOPE   C3213408   7.420   0.056   6.218  0.2762 -0.2304  0.9509
  126SOPE   H2X13409   7.471   0.145   6.261 -1.1332  0.8673  0.4136
  126SOPE   H2Y13410   7.362   0.093   6.131  1.3041 -2.2232 -0.6737
  126SOPE   C2313411   7.014   0.397   6.263  0.4493  0.0343 -0.3677
  126SOPE   H3R13412   6.956   0.490   6.277 -2.3404 -1.5858 -0.2617
  126SOPE   H3S13413   6.947   0.311   6.288  1.0320 -0.3574 -0.1160
  126SOPE   C2413414   7.063   0.388   6.121 -0.5720 -0.1082 -0.4653
  126SOPE   H4R13415   7.148   0.460   6.114 -0.8054  0.0878 -1.4227
  126SOPE   H4S13416   7.108   0.287   6.111  2.8546  1.4299 -2.3464
  126SOPE   C2513417   6.959   0.424   6.012 -0.9543  0.0037 -0.5416
  126SOPE   H5R13418   6.869   0.360   6.017 -1.2149  0.4619  2.4601
  126SOPE   H5S13419   6.939   0.533   6.022 -0.6069 -0.0481  0.8224
  126SOPE   C2613420   7.023   0.402   5.873  0.3661  0.5125  0.1638
  126SOPE   H6R13421   7.122   0.452   5.869  0.7386 -0.3118 -2.0430
  126SOPE   H6S13422   7.034   0.294   5.850 -0.3286  0.7692 -1.4819
  126SOPE   C2713423   6.948   0.465   5.760  0.1217 -0.1317 -0.7689
  126SOPE   H7R13424   6.857   0.407   5.731  0.2984 -0.0079 -1.5758
  126SOPE   H7S13425   6.915   0.564   5.799 -0.8137 -0.8768  0.4295
  126SOPE   C2813426   7.030   0.502   5.631 -0.1235  0.9980 -0.6527
  126SOPE   H8R13427   7.114   0.562   5.672 -0.8321  0.1060  2.4264
  126SOPE   H8S13428   7.064   0.405   5.588 -0.4965  0.4485  0.2392
  126SOPE   C2913429   6.938   0.581   5.539  0.4946  0.1685  0.0783
  126SOPE   H9113430   6.956   0.690   5.532 -0.6392  0.3165 -0.8601
  126SOPE  C21013431   6.849   0.540   5.441 -1.0795  0.0480 -0.6557
  126SOPE  H10113432   6.799   0.613   5.377 -2.3163  0.3366  0.5913
  126SOPE  C21113433   6.803   0.402   5.411 -0.2397  0.2853  0.1748
  126SOPE  H11R13434   6.864   0.327   5.466 -0.6373  0.4208  0.8095
  126SOPE  H11S13435   6.831   0.378   5.306 -1.9730 -3.4868  0.4174
  126SOPE  C21213436   6.652   0.371   5.442 -1.1016 -0.7920 -0.3791
  126SOPE  H12R13437   6.624   0.378   5.549 -1.3527  1.6424 -0.5295
  126SOPE  H12S13438   6.637   0.263   5.421 -2.5389 -0.4738 -1.1196
  126SOPE  C21313439   6.558   0.452   5.353 -0.1376 -0.5917 -0.2352
  126SOPE  H13R13440   6.560   0.553   5.399 -3.3590  0.4205 -1.9641
  126SOPE  H13S13441   6.467   0.393   5.373 -1.1194  1.7276  3.0685
  126SOPE  C21413442   6.584   0.463   5.205  0.0254  0.3356  0.8109
  126SOPE  H14R13443   6.591   0.361   5.161 -0.5377  0.4870  0.3490
  126SOPE  H14S13444   6.678   0.518   5.185  0.7011 -0.9121  0.4771
  126SOPE  C21513445   6.480   0.547   5.126  0.4944  0.5114  0.2673
  126SOPE  H15R13446   6.468   0.645   5.177 -1.9925  0.5672 -0.3081
  126SOPE  H15S13447   6.381   0.497   5.126 -0.9051  3.1093 -0.7911
  126SOPE  C21613448   6.520   0.559   4.979 -0.4138 -0.2677 -0.2291
  126SOPE  H16R13449   6.433   0.606   4.926  0.1348  0.7606 -0.2559
  126SOPE  H16S13450   6.542   0.462   4.931  0.5339  0.1460 -0.6747
  126SOPE  C21713451   6.636   0.654   4.945  0.1614 -0.1596 -0.0484
  126SOPE  H17R13452   6.727   0.612   4.992 -0.7044 -0.9972  0.9512
  126SOPE  H17S13453   6.617   0.755   4.987  0.0987 -0.0673 -0.2974
  126SOPE  C21813454   6.660   0.667   4.796  0.2402  0.4044  0.8225
  126SOPE  H18R13455   6.587   0.741   4.756  0.5322 -0.8310 -2.3059
  126SOPE  H18S13456   6.654   0.573   4.737 -0.8630  1.3672 -0.6793
  126SOPE  H18T13457   6.761   0.712   4.786 -0.5622  2.0819 -0.2772
  126SOPE   C3313458   7.527  -0.038   6.162 -0.0898  0.5452 -0.2775
  126SOPE   H3X13459   7.552  -0.116   6.238  1.4535  0.2444 -1.0507
  126SOPE   H3Y13460   7.625   0.013   6.154  0.1113  0.2622  0.2733
  126SOPE   C3413461   7.501  -0.113   6.027 -0.0779  0.1663  0.1713
  126SOPE   H4X13462   7.407  -0.171   6.029 -1.9142  2.9288 -0.3727
  126SOPE   H4Y13463   7.581  -0.189   6.011 -2.5039 -2.5085  0.0782
  126SOPE   C3513464   7.517  -0.030   5.906  0.5996  0.3201 -0.2564
  126SOPE   H5X13465   7.613   0.024   5.900  1.2221 -0.6866  0.4662
  126SOPE   H5Y13466   7.427   0.035   5.910 -0.0805 -0.4478 -1.9583
  126SOPE   C3613467   7.503  -0.115   5.772 -0.2586 -0.2006  0.0715
  126SOPE   H6X13468   7.418  -0.186   5.778 -0.9632  0.5890 -0.4244
  126SOPE   H6Y13469   7.589  -0.185   5.757  0.2104  0.6916 -1.6368
  126SOPE   C3713470   7.487  -0.025   5.644 -0.5585 -0.2825  0.4590
  126SOPE   H7X13471   7.567   0.053   5.636 -0.5280 -0.1552  1.8045
  126SOPE   H7Y13472   7.398   0.039   5.659 -1.5462 -1.3648 -0.6174
  126SOPE   C3813473   7.482  -0.104   5.514  0.3289 -0.4106  0.2585
  126SOPE   H8X13474   7.389  -0.165   5.518 -1.5419  2.2867  1.7317
  126SOPE   H8Y13475   7.567  -0.175   5.508  1.6071  1.1589 -1.6081
  126SOPE   C3913476   7.485  -0.005   5.389  0.5092  0.5667 -0.4341
  126SOPE   H9X13477   7.579   0.054   5.385  2.4998 -2.4290 -1.2329
  126SOPE   H9Y13478   7.394   0.059   5.396  0.1487  0.1441 -1.1403
  126SOPE  C31013479   7.479  -0.076   5.259  0.0522 -0.1436 -0.6365
  126SOPE  H10X13480   7.553  -0.159   5.257 -1.4460 -1.6571  2.1043
  126SOPE  H10Y13481   7.510   0.002   5.186  0.1449  0.0878 -0.3529
  126SOPE  C31113482   7.340  -0.129   5.222 -0.4029  0.4270 -0.0691
  126SOPE  H11X13483   7.257  -0.056   5.232  1.2216  2.6507 -1.6591
  126SOPE  H11Y13484   7.323  -0.218   5.286  0.7261 -2.3550 -3.3329
  126SOPE  C31213485   7.340  -0.167   5.073  0.2952  0.1298 -0.3261
  126SOPE  H12X13486   7.251  -0.232   5.060  0.5687 -0.2087 -0.5218
  126SOPE  H12Y13487   7.427  -0.230   5.047 -0.4364 -0.1310 -2.3320
  126SOPE  C31313488   7.328  -0.060   4.965  0.4777 -0.1789 -0.3861
  126SOPE  H13X13489   7.383   0.032   4.992 -3.0215  2.2193 -0.8482
  126SOPE  H13Y13490   7.224  -0.024   4.949  0.2068 -0.2749  0.9867
  126SOPE  C31413491   7.382  -0.110   4.832  0.0338 -0.4806  0.0858
  126SOPE  H14X13492   7.329  -0.203   4.801  0.2285 -1.0488  1.4209
  126SOPE  H14Y13493   7.491  -0.129   4.842  0.8034  3.0613 -0.3706
  126SOPE  C31513494   7.360  -0.004   4.720 -0.3979 -0.6115  0.5568
  126SOPE  H15X13495   7.404   0.094   4.749 -0.9407 -0.3504  0.5240
  126SOPE  H15Y13496   7.250   0.012   4.716 -0.4451 -1.1098 -0.3864
  126SOPE  C31613497   7.437  -0.034   4.591 -0.2102 -0.0281 -0.0911
  126SOPE  H16X13498   7.546  -0.030   4.611 -0.2422  1.1128 -0.0770
  126SOPE  H16Y13499   7.403   0.051   4.528 -0.1685  1.5063  1.8649
  126SOPE  C31713500   7.390  -0.164   4.514  0.1350 -0.3333 -0.5020
  126SOPE  H17X13501   7.295  -0.192   4.563  0.4444  0.2441  0.4663
  126SOPE  H17Y13502   7.464  -0.245   4.527  0.0425 -0.1495  1.4433
  126SOPE  C31813503   7.360  -0.149   4.366  0.2527  0.1782 -0.4062
  126SOPE  H18X13504   7.327  -0.045   4.349  0.9356  0.5704  0.5767
  126SOPE  H18Y13505   7.284  -0.224   4.334  2.1289 -2.4868  0.9461
  126SOPE  H18Z13506   7.454  -0.156   4.309  2.3497 -0.1060  2.8086
  127SOPE     N13507   4.509   2.236   6.232  0.3443 -0.2630 -0.6791
  127SOPE   HN113508   4.549   2.265   6.323  0.0777  0.0144 -0.6477
  127SOPE   HN213509   4.418   2.287   6.235  1.2346  1.3381  0.2421
  127SOPE   HN313510   4.490   2.134   6.241 -1.1064  0.1541  2.8659
  127SOPE   C1213511   4.579   2.283   6.112  0.2802  0.0414 -0.2005
  127SOPE  H12A13512   4.542   2.224   6.025  0.9410 -1.6717  0.6195
  127SOPE  H12B13513   4.686   2.254   6.116  0.0443 -1.6313 -3.0689
  127SOPE   C1113514   4.564   2.438   6.096  0.0297 -0.4839 -0.2021
  127SOPE  H11A13515   4.459   2.466   6.075  0.4814  1.7854  0.2442
  127SOPE  H11B13516   4.620   2.450   6.001  0.6245 -0.5623  0.1269
  127SOPE     P13517   4.688   2.645   6.218  0.3660 -0.4419 -0.4012
  127SOPE   O1313518   4.831   2.642   6.210 -0.1881  0.5352 -0.3614
  127SOPE   O1413519   4.630   2.727   6.329  0.3497  0.0944  0.0314
  127SOPE   O1213520   4.621   2.502   6.210  0.2415 -0.4452  0.4967
  127SOPE   O1113521   4.651   2.704   6.081  0.7344  0.0225 -0.0453
  127SOPE    C113522   4.571   2.823   6.072 -0.1150 -0.7665 -0.5865
  127SOPE    HA13523   4.612   2.908   6.131  1.4748 -2.8179  1.4746
  127SOPE    HB13524   4.469   2.801   6.110  0.2274 -0.1711  0.7586
  127SOPE    C213525   4.564   2.871   5.927 -0.1134 -0.2521  0.3317
  127SOPE    HS13526   4.495   2.958   5.923 -0.4995 -0.5797 -0.4377
  127SOPE   O2113527   4.526   2.772   5.836  0.0979  0.1079  0.5803
  127SOPE   C2113528   4.414   2.710   5.855  0.1471  0.2947 -0.3151
  127SOPE   O2213529   4.337   2.716   5.948 -0.0738 -0.5228  0.3166
  127SOPE   C2213530   4.384   2.617   5.728  0.3021 -1.2549  0.1860
  127SOPE   H2R13531   4.428   2.676   5.645  0.4263  0.9768  1.7435
  127SOPE   H2S13532   4.273   2.612   5.718  0.2192 -1.3378  1.1056
  127SOPE    C313533   4.704   2.930   5.884  0.5257 -0.0493  0.5861
  127SOPE    HX13534   4.782   2.854   5.905  0.6142 -0.7232 -1.8235
  127SOPE    HY13535   4.704   3.018   5.951  1.2724  1.2187 -0.9890
  127SOPE   O3113536   4.696   2.972   5.745 -0.0433 -0.6962  0.1524
  127SOPE   C3113537   4.784   3.070   5.712 -0.1242  0.6736  0.2553
  127SOPE   O3213538   4.883   3.095   5.777 -0.6138  0.4320  0.1704
  127SOPE   C3213539   4.728   3.139   5.589 -0.3114 -0.2836  0.8016
  127SOPE   H2X13540   4.644   3.205   5.620 -0.1633 -0.3747  1.4172
  127SOPE   H2Y13541   4.693   3.067   5.512  0.6336  0.3090 -0.2123
  127SOPE   C2313542   4.440   2.475   5.731 -0.6265 -0.2568 -0.2105
  127SOPE   H3R13543   4.363   2.414   5.782 -0.1918 -0.5743  0.0756
  127SOPE   H3S13544   4.530   2.461   5.795 -0.1385 -0.9902 -1.0379
  127SOPE   C2413545   4.460   2.410   5.595 -0.4179 -0.4427 -0.2251
  127SOPE   H4R13546   4.380   2.454   5.532  0.4797 -0.8815 -1.7251
  127SOPE   H4S13547   4.554   2.453   5.555 -0.2668  0.5474  1.1269
  127SOPE   C2513548   4.455   2.256   5.602  0.6393  0.1172 -0.3384
  127SOPE   H5R13549   4.519   2.229   5.689  1.2345 -0.2710 -0.8931
  127SOPE   H5S13550   4.348   2.240   5.629  1.2179  0.2305  2.3439
  127SOPE   C2613551   4.499   2.180   5.476 -0.5731  0.1199  0.0241
  127SOPE   H6R13552   4.609   2.175   5.483 -0.4251  0.3074 -1.7431
  127SOPE   H6S13553   4.465   2.074   5.481  0.4457 -0.1358  3.2167
  127SOPE   C2713554   4.477   2.239   5.337  0.2922 -0.6674 -0.2216
  127SOPE   H7R13555   4.367   2.242   5.323  0.1915 -0.8001  0.5036
  127SOPE   H7S13556   4.517   2.343   5.345 -2.1987  0.2520  1.5877
  127SOPE   C2813557   4.547   2.167   5.226 -0.0344  0.6102 -0.1774
  127SOPE   H8R13558   4.654   2.144   5.245 -0.3705 -0.8621  0.1297
  127SOPE   H8S13559   4.515   2.060   5.221 -1.0934  0.9592 -1.0931
  127SOPE   C2913560   4.522   2.248   5.101 -0.4979 -1.2785  0.2478
  127SOPE   H9113561   4.576   2.343   5.109  1.1499 -2.0591 -0.9676
  127SOPE  C21013562   4.447   2.213   4.997 -0.4798  0.3788  0.5931
  127SOPE  H10113563   4.436   2.290   4.920 -1.5096 -1.2610 -0.9949
  127SOPE  C21113564   4.376   2.081   4.967  0.1267 -0.4766 -0.1062
  127SOPE  H11R13565   4.266   2.098   4.966  0.1333 -0.4791 -1.1381
  127SOPE  H11S13566   4.390   2.000   5.043 -3.2828 -0.0935  1.1339
  127SOPE  C21213567   4.414   2.019   4.829 -0.7296  0.4909 -0.6325
  127SOPE  H12R13568   4.525   2.024   4.826 -0.6330  0.4376  1.2898
  127SOPE  H12S13569   4.384   2.084   4.745  2.4518  0.7212 -1.7341
  127SOPE  C21313570   4.359   1.881   4.796 -0.5768 -0.0784  0.0237
  127SOPE  H13R13571   4.250   1.903   4.799 -0.1508  2.1439  1.1456
  127SOPE  H13S13572   4.390   1.810   4.876  1.5890 -0.1284 -0.7983
  127SOPE  C21413573   4.395   1.826   4.658  0.4733  0.3396  0.1999
  127SOPE  H14R13574   4.389   1.717   4.678  1.9566  0.5130  1.8313
  127SOPE  H14S13575   4.501   1.847   4.631  0.0393  0.3854 -1.5570
  127SOPE  C21513576   4.299   1.863   4.545  0.0828 -0.0185  1.1213
  127SOPE  H15R13577   4.193   1.866   4.577 -0.1743  0.2335  0.2896
  127SOPE  H15S13578   4.312   1.781   4.471  1.2468 -0.2948  1.6141
  127SOPE  C21613579   4.337   1.993   4.470  0.0005 -0.1127  0.4392
  127SOPE  H16R13580   4.355   2.077   4.541  0.7962  0.4898 -0.4570
  127SOPE  H16S13581   4.244   2.013   4.413  0.9638  2.4448 -0.3398
  127SOPE  C21713582   4.455   1.983   4.367 -0.2542  0.2157 -0.0489
  127SOPE  H17R13583   4.412   1.930   4.279 -1.5297 -0.0023  0.6871
  127SOPE  H17S13584   4.535   1.914   4.401  0.1917 -1.2917 -3.6727
  127SOPE  C21813585   4.499   2.124   4.316  0.1432 -0.1735  0.3413
  127SOPE  H18R13586   4.559   2.123   4.222 -0.3184  0.3824  0.0311
  127SOPE  H18S13587   4.564   2.164   4.397  2.9891 -3.1582 -0.2559
  127SOPE  H18T13588   4.415   2.197   4.313  0.6377  0.4768  1.6060
  127SOPE   C3313589   4.831   3.235   5.518 -0.0129 -0.1397  0.0376
  127SOPE   H3X13590   4.914   3.273   5.583  0.0502 -0.7689  0.3412
  127SOPE   H3Y13591   4.777   3.321   5.475 -1.3016 -1.3342 -0.8207
  127SOPE   C3413592   4.910   3.180   5.399  0.5206  0.3873 -0.0488
  127SOPE   H4X13593   4.969   3.095   5.438 -1.2506  0.3194  2.7202
  127SOPE   H4Y13594   4.983   3.254   5.358  0.5082  0.9066  0.8322
  127SOPE   C3513595   4.829   3.123   5.281  0.2598 -0.5163  0.2823
  127SOPE   H5X13596   4.755   3.050   5.323 -0.0300 -0.7951 -0.6867
  127SOPE   H5Y13597   4.899   3.069   5.214  2.6063  1.0009  1.3718
  127SOPE   C3613598   4.767   3.230   5.201 -0.1169 -0.6193  0.1828
  127SOPE   H6X13599   4.849   3.298   5.172 -1.0116 -0.4458 -2.1422
  127SOPE   H6Y13600   4.685   3.283   5.253  1.1237  0.3023  1.2584
  127SOPE   C3713601   4.693   3.173   5.085 -0.0905  0.1869  0.9420
  127SOPE   H7X13602   4.586   3.162   5.116 -0.7726 -1.4708 -1.6992
  127SOPE   H7Y13603   4.720   3.067   5.067 -1.8113 -0.7839  3.4658
  127SOPE   C3813604   4.706   3.259   4.954  0.8047  0.2595 -0.3874
  127SOPE   H8X13605   4.699   3.367   4.981  1.5225 -0.1744  1.7310
  127SOPE   H8Y13606   4.629   3.227   4.881  2.7640 -2.2650 -1.4833
  127SOPE   C3913607   4.846   3.230   4.890 -0.6312 -0.6345  0.1941
  127SOPE   H9X13608   4.855   3.120   4.893  0.0929 -0.6926 -2.1544
  127SOPE   H9Y13609   4.928   3.273   4.951 -1.3240  0.7908  0.1638
  127SOPE  C31013610   4.858   3.279   4.746  0.8940 -0.0218  0.0660
  127SOPE  H10X13611   4.850   3.390   4.741 -0.0290 -0.0133  1.0832
  127SOPE  H10Y13612   4.768   3.251   4.686  0.8712  1.2260 -0.5018
  127SOPE  C31113613   4.996   3.229   4.687  0.4596 -0.1322  1.0521
  127SOPE  H11X13614   5.014   3.120   4.694  1.0889 -0.1782 -0.7837
  127SOPE  H11Y13615   5.074   3.276   4.750  0.7082  0.6342  0.1872
  127SOPE  C31213616   5.014   3.286   4.544 -0.4577  0.0518  0.3797
  127SOPE  H12X13617   4.989   3.394   4.551 -0.1827  0.1363  0.0863
  127SOPE  H12Y13618   4.932   3.252   4.476 -1.0051  3.2571 -0.7484
  127SOPE  C31313619   5.161   3.277   4.502  0.3409 -0.0762 -0.5133
  127SOPE  H13X13620   5.179   3.173   4.467 -0.9828 -0.3288 -0.5033
  127SOPE  H13Y13621   5.225   3.279   4.592 -0.6425 -0.4740  0.2115
  127SOPE  C31413622   5.206   3.385   4.405 -0.1902 -0.1313  0.4411
  127SOPE  H14X13623   5.187   3.482   4.455 -0.7593  0.0314 -0.0781
  127SOPE  H14Y13624   5.128   3.387   4.326 -0.0094  0.8233  0.2718
  127SOPE  C31513625   5.352   3.390   4.347 -0.3041 -0.4204  0.3048
  127SOPE  H15X13626   5.365   3.480   4.284 -2.7565  0.7865  1.3985
  127SOPE  H15Y13627   5.360   3.296   4.288 -3.3504 -2.0678  2.2657
  127SOPE  C31613628   5.450   3.381   4.462 -0.3738 -0.1636  0.2936
  127SOPE  H16X13629   5.547   3.343   4.425  0.3472  1.4138  0.4895
  127SOPE  H16Y13630   5.423   3.311   4.545 -0.3613 -0.9918 -0.3823
  127SOPE  C31713631   5.495   3.512   4.541  0.3159 -0.3413  0.4754
  127SOPE  H17X13632   5.410   3.560   4.593  0.4987  1.5376 -0.8325
  127SOPE  H17Y13633   5.533   3.589   4.470 -1.1471  0.4026  0.4466
  127SOPE  C31813634   5.604   3.486   4.650  0.3924 -0.2739  0.0073
  127SOPE  H18X13635   5.620   3.569   4.721  1.2258  1.4487 -2.0837
  127SOPE  H18Y13636   5.705   3.461   4.611  0.6955 -0.8264  1.1176
  127SOPE  H18Z13637   5.566   3.394   4.700  0.3536 -1.4047 -1.9558
  128SOPE     N13638   5.668   5.548   6.237  0.0299 -0.2438 -0.5764
  128SOPE   HN113639   5.675   5.446   6.256  0.9417 -0.3528 -1.4123
  128SOPE   HN213640   5.568   5.575   6.230  0.6962  2.0640 -2.5961
  128SOPE   HN313641   5.702   5.569   6.141  0.0763 -0.9880 -0.7276
  128SOPE   C1213642   5.769   5.606   6.340  0.5536 -0.2328 -0.1932
  128SOPE  H12A13643   5.837   5.675   6.286  0.1246  0.3559  0.0206
  128SOPE  H12B13644   5.819   5.515   6.380 -0.2351 -0.4562  0.2997
  128SOPE   C1113645   5.700   5.677   6.451 -0.6739  0.0369 -0.7135
  128SOPE  H11A13646   5.770   5.693   6.536 -0.9675 -0.0765 -0.4512
  128SOPE  H11B13647   5.619   5.622   6.503  0.0352  0.8414  1.3750
  128SOPE     P13648   5.725   5.936   6.399 -0.4888 -0.3330 -0.0570
  128SOPE   O1313649   5.865   5.925   6.357  0.0094 -0.2479  0.5576
  128SOPE   O1413650   5.705   6.023   6.521 -0.5059 -0.0130  0.1780
  128SOPE   O1213651   5.645   5.801   6.412 -0.3273  0.1987  0.8479
  128SOPE   O1113652   5.632   6.003   6.287 -0.5311 -0.9725  0.3571
  128SOPE    C113653   5.647   5.971   6.147 -0.2625  0.3217 -0.5561
  128SOPE    HA13654   5.545   5.954   6.106 -0.0383 -0.1356 -0.9397
  128SOPE    HB13655   5.709   5.879   6.137  0.7553  0.7975  0.9983
  128SOPE    C213656   5.713   6.089   6.075 -0.2121  1.0928  0.5777
  128SOPE    HS13657   5.803   6.128   6.127  0.3078  1.0789 -0.2955
  128SOPE   O2113658   5.613   6.195   6.064 -0.2456 -0.0138  0.3610
  128SOPE   C2113659   5.664   6.311   6.028  0.2229 -0.3013  0.6129
  128SOPE   O2213660   5.783   6.326   5.994  0.2622 -0.1433  0.1037
  128SOPE   C2213661   5.551   6.418   6.044 -0.0058 -0.0362 -0.2845
  128SOPE   H2R13662   5.538   6.427   6.154  1.2109 -1.7068  0.0368
  128SOPE   H2S13663   5.461   6.378   5.994  0.6826 -0.7775 -0.9478
  128SOPE    C313664   5.770   6.046   5.937  0.4344  0.3046 -0.0683
  128SOPE    HX13665   5.836   5.958   5.956  0.9201  0.1606 -2.1996
  128SOPE    HY13666   5.835   6.123   5.891 -0.5650  0.5379 -1.1192
  128SOPE   O3113667   5.651   6.012   5.857 -0.3855  0.2650 -0.1604
  128SOPE   C3113668   5.648   5.895   5.795 -0.3451 -0.6503  0.2984
  128SOPE   O3213669   5.731   5.809   5.801  0.9820  0.4263 -0.0467
  128SOPE   C3213670   5.520   5.882   5.708 -0.5975 -0.3352  0.1023
  128SOPE   H2X13671   5.443   5.851   5.781 -0.7764 -0.7626 -0.2643
  128SOPE   H2Y13672   5.543   5.792   5.647  4.4367  0.6429  0.0631
  128SOPE   C2313673   5.579   6.544   5.957 -0.2052 -0.0139 -0.2566
  128SOPE   H3R13674   5.687   6.572   5.962 -0.0867 -0.3980 -0.6069
  128SOPE   H3S13675   5.516   6.630   5.988 -1.8326 -1.3110  0.1490
  128SOPE   C2413676   5.532   6.535   5.808  0.0979 -0.0854  0.1212
  128SOPE   H4R13677   5.422   6.517   5.811 -0.3340  2.3343  1.5965
  128SOPE   H4S13678   5.550   6.638   5.770 -0.7386  1.0635  2.6230
  128SOPE   C2513679   5.627   6.443   5.724 -0.8898  0.3240  0.1150
  128SOPE   H5R13680   5.731   6.451   5.762 -0.2915 -0.5660 -1.2587
  128SOPE   H5S13681   5.595   6.339   5.744 -2.2725  0.8522  0.8197
  128SOPE   C2613682   5.624   6.471   5.577 -0.0092 -0.3063  0.5063
  128SOPE   H6R13683   5.518   6.496   5.553  0.5857  1.4536 -0.4503
  128SOPE   H6S13684   5.696   6.552   5.556 -2.1706  1.7999  0.8071
  128SOPE   C2713685   5.668   6.353   5.487 -0.1270 -0.5750 -0.5508
  128SOPE   H7R13686   5.767   6.317   5.523  0.6326  0.6070 -1.3841
  128SOPE   H7S13687   5.590   6.274   5.489  0.2083 -0.9401 -1.3056
  128SOPE   C2813688   5.695   6.396   5.336  0.5439 -0.6126  0.2839
  128SOPE   H8R13689   5.776   6.471   5.321 -0.6436  0.3182 -1.9570
  128SOPE   H8S13690   5.736   6.302   5.295  0.7886 -0.6776  0.6759
  128SOPE   C2913691   5.558   6.441   5.279  0.2805 -0.1208  0.3720
  128SOPE   H9113692   5.491   6.494   5.348  1.5640 -0.5337  2.0124
  128SOPE  C21013693   5.527   6.432   5.144  0.1232 -0.1640 -0.9261
  128SOPE  H10113694   5.430   6.475   5.117 -0.0272 -0.3708 -0.7249
  128SOPE  C21113695   5.613   6.378   5.036 -0.0009  1.1105 -0.0915
  128SOPE  H11R13696   5.719   6.361   5.068 -0.1056 -1.6045 -0.9186
  128SOPE  H11S13697   5.611   6.459   4.960 -1.1460  0.2696 -0.9953
  128SOPE  C21213698   5.548   6.253   4.969  0.4765 -0.0139  0.4220
  128SOPE  H12R13699   5.483   6.196   5.039 -1.9862  1.0809 -0.8713
  128SOPE  H12S13700   5.631   6.186   4.936  0.8611  0.0127  1.3024
  128SOPE  C21313701   5.455   6.280   4.845  0.1900  0.2436  0.2817
  128SOPE  H13R13702   5.401   6.371   4.877 -0.0325 -0.2430  1.3691
  128SOPE  H13S13703   5.392   6.190   4.829  0.3242  0.1731  0.1503
  128SOPE  C21413704   5.542   6.312   4.721  0.2514 -0.1665  0.2982
  128SOPE  H14R13705   5.648   6.311   4.753 -0.3490 -0.1559  2.3764
  128SOPE  H14S13706   5.496   6.402   4.673  0.3250  0.1388  0.8013
  128SOPE  C21513707   5.526   6.199   4.616  0.2098  0.1969 -0.1261
  128SOPE  H15R13708   5.422   6.164   4.602  0.8881 -2.2369  0.4287
  128SOPE  H15S13709   5.569   6.098   4.635 -1.4070 -0.3919  0.5280
  128SOPE  C21613710   5.597   6.241   4.486 -0.7857 -0.4493 -0.6971
  128SOPE  H16R13711   5.702   6.271   4.507 -0.6281 -0.4584 -1.4663
  128SOPE  H16S13712   5.544   6.323   4.434 -0.0776 -0.3344 -1.2486
  128SOPE  C21713713   5.587   6.139   4.379  0.0795  0.4994 -0.1568
  128SOPE  H17R13714   5.480   6.111   4.373  0.1804  0.0198  0.2236
  128SOPE  H17S13715   5.640   6.045   4.404 -0.7888 -0.1315 -0.6662
  128SOPE  C21813716   5.630   6.179   4.236 -0.6599  0.0782  0.7555
  128SOPE  H18R13717   5.735   6.215   4.240 -1.0525  1.1795  1.3278
  128SOPE  H18S13718   5.568   6.257   4.187  1.1478  0.8244 -0.4351
  128SOPE  H18T13719   5.625   6.092   4.167  0.1949  0.3808  0.2948
  128SOPE   C3313720   5.458   5.998   5.631 -0.1789 -0.3108  0.0696
  128SOPE   H3X13721   5.459   6.090   5.694  0.8600 -1.8042  2.3915
  128SOPE   H3Y13722   5.352   5.973   5.609  0.3084 -1.0571 -1.6087
  128SOPE   C3413723   5.541   6.029   5.505 -0.7574  0.0807  0.2561
  128SOPE   H4X13724   5.649   6.039   5.527 -0.4555 -3.8209  1.2295
  128SOPE   H4Y13725   5.506   6.116   5.446  0.5533  0.8553  0.5843
  128SOPE   C3513726   5.543   5.917   5.404  0.4751 -0.1302  0.0558
  128SOPE   H5X13727   5.437   5.889   5.386  0.1758 -1.0584  2.7200
  128SOPE   H5Y13728   5.597   5.827   5.440  0.1771  0.5974  2.5100
  128SOPE   C3613729   5.601   5.957   5.267  0.4751 -0.5799 -1.1476
  128SOPE   H6X13730   5.703   5.994   5.288  0.3797  0.2393 -2.0537
  128SOPE   H6Y13731   5.535   6.035   5.223 -1.2558 -2.1135 -1.4204
  128SOPE   C3713732   5.599   5.839   5.166  0.4338 -0.6965 -1.0322
  128SOPE   H7X13733   5.504   5.780   5.166  0.1937 -0.3165 -0.9859
  128SOPE   H7Y13734   5.675   5.766   5.201 -0.0959 -0.3992  0.8576
  128SOPE   C3813735   5.616   5.886   5.016 -0.2434  0.4234  0.8199
  128SOPE   H8X13736   5.713   5.928   4.983  0.0044  0.7927  1.9741
  128SOPE   H8Y13737   5.539   5.964   5.000  0.3499  0.6609 -1.1066
  128SOPE   C3913738   5.570   5.776   4.915  0.9364 -0.1412 -0.3554
  128SOPE   H9X13739   5.472   5.739   4.953  0.9012 -1.2975 -1.5106
  128SOPE   H9Y13740   5.642   5.691   4.916 -0.9481 -1.8161  0.0316
  128SOPE  C31013741   5.563   5.819   4.769 -0.0152  0.1121  0.1604
  128SOPE  H10X13742   5.662   5.865   4.748  0.3874 -1.3907 -1.3919
  128SOPE  H10Y13743   5.477   5.884   4.742  1.2842  1.1726 -1.6906
  128SOPE  C31113744   5.557   5.697   4.678  0.3943 -0.1244 -0.4910
  128SOPE  H11X13745   5.455   5.655   4.692 -1.3074  3.0301 -2.2565
  128SOPE  H11Y13746   5.638   5.624   4.695  2.3501  1.7114 -1.5363
  128SOPE  C31213747   5.555   5.738   4.536 -0.0630  0.4613  1.1036
  128SOPE  H12X13748   5.647   5.798   4.519  1.6290 -2.5514 -1.3473
  128SOPE  H12Y13749   5.465   5.797   4.510  0.4955  0.9624  0.2402
  128SOPE  C31313750   5.572   5.625   4.428 -0.5843 -0.5588 -0.0292
  128SOPE  H13X13751   5.510   5.548   4.478  0.7237 -1.8729 -0.3801
  128SOPE  H13Y13752   5.677   5.588   4.428 -0.2874  0.1491  2.0021
  128SOPE  C31413753   5.511   5.656   4.288 -0.4929 -0.3172  0.6626
  128SOPE  H14X13754   5.400   5.664   4.287 -0.5928 -1.3997 -0.8949
  128SOPE  H14Y13755   5.542   5.565   4.232  0.6223  0.6563 -0.3646
  128SOPE  C31513756   5.570   5.781   4.216 -0.2271  0.4463 -0.6466
  128SOPE  H15X13757   5.538   5.871   4.271  1.4593  1.1957 -0.8331
  128SOPE  H15Y13758   5.539   5.798   4.110  1.5158 -1.9859 -1.6516
  128SOPE  C31613759   5.730   5.782   4.204  0.8969  0.1016 -0.2915
  128SOPE  H16X13760   5.776   5.778   4.305 -2.1822 -1.9987  1.1618
  128SOPE  H16Y13761   5.759   5.884   4.172 -0.0918  0.3535 -0.4235
  128SOPE  C31713762   5.796   5.680   4.113  0.1443 -0.0008  0.5201
  128SOPE  H17X13763   5.907   5.688   4.116  0.2233 -0.1444 -1.1358
  128SOPE  H17Y13764   5.760   5.710   4.013  0.3029  0.5334  0.6189
  128SOPE  C31813765   5.754   5.529   4.111 -0.4269  0.3489 -0.7342
  128SOPE  H18X13766   5.780   5.475   4.205 -0.2928 -1.4370 -1.7594
  128SOPE  H18Y13767   5.800   5.478   4.024  2.3469 -0.0067  0.8078
  128SOPE  H18Z13768   5.648   5.506   4.087  0.1989 -1.4323 -2.0249
  129SOPE     N13769   6.191   5.171   6.354 -0.0648  0.1084 -0.1933
  129SOPE   HN113770   6.229   5.247   6.414 -0.0898 -0.5800  0.7355
  129SOPE   HN213771   6.245   5.183   6.266 -0.4133 -0.3909 -0.4810
  129SOPE   HN313772   6.094   5.203   6.338 -0.0897  0.2535  0.2147
  129SOPE   C1213773   6.189   5.043   6.416  0.0915  0.4913 -0.2653
  129SOPE  H12A13774   6.116   4.973   6.369 -0.4309  0.2878  0.8160
  129SOPE  H12B13775   6.177   5.062   6.524  0.4701  1.6107 -0.4152
  129SOPE   C1113776   6.323   4.976   6.420 -0.2939  0.9014  0.0924
  129SOPE  H11A13777   6.332   4.966   6.310 -1.3116  0.0179  0.0718
  129SOPE  H11B13778   6.306   4.875   6.465  0.4767 -0.2073 -1.9610
  129SOPE     P13779   6.542   5.021   6.567  0.3536  0.0288  0.0804
  129SOPE   O1313780   6.517   4.892   6.643  0.1523  0.2966 -0.4049
  129SOPE   O1413781   6.596   5.137   6.647 -0.4249  0.5628 -0.3806
  129SOPE   O1213782   6.412   5.069   6.479 -1.3234  0.0939 -0.6071
  129SOPE   O1113783   6.651   5.003   6.452 -0.0929 -0.2976 -0.2717
  129SOPE    C113784   6.679   4.882   6.378 -0.4106 -0.4366 -0.1582
  129SOPE    HA13785   6.586   4.822   6.372 -0.6837 -0.1100  0.6472
  129SOPE    HB13786   6.762   4.823   6.425  0.3135  0.5608 -0.1643
  129SOPE    C213787   6.724   4.906   6.230  0.3292 -0.4981 -0.2618
  129SOPE    HS13788   6.749   4.804   6.196  0.9157  0.0487 -1.5387
  129SOPE   O2113789   6.837   5.000   6.215 -0.2671 -0.4943 -0.0778
  129SOPE   C2113790   6.948   4.960   6.270 -1.0745  0.3855  0.0313
  129SOPE   O2213791   6.971   4.856   6.328  0.0603 -0.1876  0.8179
  129SOPE   C2213792   7.052   5.064   6.237  0.1104 -1.0347  0.0439
  129SOPE   H2R13793   7.077   5.120   6.330 -1.0817  0.3444 -0.4263
  129SOPE   H2S13794   7.014   5.132   6.159  0.8527 -1.0890 -0.3771
  129SOPE    C313795   6.604   4.951   6.137 -0.3370 -0.0039  0.2816
  129SOPE    HX13796   6.610   5.061   6.124  1.1284 -0.4044 -3.7523
  129SOPE    HY13797   6.516   4.918   6.196 -0.5246  0.3611  0.2072
  129SOPE   O3113798   6.611   4.883   6.011 -0.1974 -0.4072  0.0746
  129SOPE   C3113799   6.549   4.946   5.906  0.8572  0.8982 -0.0063
  129SOPE   O3213800   6.480   5.045   5.912 -0.5539 -0.3420  0.3833
  129SOPE   C3213801   6.564   4.858   5.784  0.3613 -0.1637  0.4450
  129SOPE   H2X13802   6.522   4.757   5.800  3.3986 -1.4162  1.1792
  129SOPE   H2Y13803   6.672   4.855   5.757  0.2686  0.8906 -0.0885
  129SOPE   C2313804   7.176   4.997   6.167 -0.3347  0.7524 -0.1929
  129SOPE   H3R13805   7.222   4.922   6.235 -0.0485  1.4664  0.4136
  129SOPE   H3S13806   7.258   5.071   6.158  0.8325 -0.2191  1.7413
  129SOPE   C2413807   7.150   4.918   6.038  0.1101 -0.0750  0.8373
  129SOPE   H4R13808   7.244   4.898   5.982 -0.9740  0.8306 -1.3986
  129SOPE   H4S13809   7.102   4.823   6.069 -1.5184  0.4966  0.1557
  129SOPE   C2513810   7.062   4.988   5.935  0.1656 -0.8487 -0.1403
  129SOPE   H5R13811   6.970   5.024   5.987 -1.2275 -1.2301 -2.1869
  129SOPE   H5S13812   7.110   5.078   5.890  1.5858 -0.8217  1.3671
  129SOPE   C2613813   7.001   4.890   5.831  0.4887  0.2548 -0.2873
  129SOPE   H6R13814   7.085   4.827   5.794 -0.4240 -1.4884  0.4723
  129SOPE   H6S13815   6.933   4.823   5.889  1.8320 -2.0013 -1.1691
  129SOPE   C2713816   6.921   4.955   5.721 -0.3362  0.6162 -0.1909
  129SOPE   H7R13817   6.879   4.878   5.653  3.8363 -0.4523 -1.9200
  129SOPE   H7S13818   6.844   5.022   5.764  0.1781  1.8934 -1.2128
  129SOPE   C2813819   7.018   5.036   5.626 -0.9117  0.0823  0.8387
  129SOPE   H8R13820   6.960   5.116   5.574 -2.3040 -0.9223  0.7919
  129SOPE   H8S13821   7.097   5.088   5.684 -0.5371 -0.2034  0.5882
  129SOPE   C2913822   7.091   4.945   5.532 -0.0743 -0.1995 -0.3511
  129SOPE   H9113823   7.172   4.889   5.580 -1.3075 -2.0107 -0.3181
  129SOPE  C21013824   7.055   4.921   5.407 -0.3024 -0.0240  0.6412
  129SOPE  H10113825   7.122   4.871   5.336  1.6942  1.7883  1.1519
  129SOPE  C21113826   6.938   4.981   5.335 -0.7840 -0.3462 -0.0470
  129SOPE  H11R13827   6.983   5.052   5.262 -1.0972 -2.2555 -2.2089
  129SOPE  H11S13828   6.860   5.029   5.398 -0.8107 -0.4564  0.0044
  129SOPE  C21213829   6.857   4.866   5.273 -0.5736 -0.0835  0.1325
  129SOPE  H12R13830   6.804   4.816   5.358 -0.4588  0.9255  0.8054
  129SOPE  H12S13831   6.914   4.785   5.223  0.6663  0.3230  0.8351
  129SOPE  C21313832   6.747   4.927   5.182  0.6616  0.5419 -0.4081
  129SOPE  H13R13833   6.789   5.026   5.156  0.9695  0.4344 -0.3224
  129SOPE  H13S13834   6.657   4.944   5.245  0.8266  1.5291 -0.4266
  129SOPE  C21413835   6.717   4.860   5.051  0.1965  0.0033  0.8138
  129SOPE  H14R13836   6.687   4.755   5.073  0.5949 -0.1112  0.8245
  129SOPE  H14S13837   6.797   4.873   4.975 -1.5749  0.4359 -1.0666
  129SOPE  C21513838   6.592   4.923   4.980 -0.0059  0.0788  0.4681
  129SOPE  H15R13839   6.617   5.029   4.960 -3.0075  1.2760  2.3415
  129SOPE  H15S13840   6.512   4.927   5.056 -0.0892  2.2705  0.3044
  129SOPE  C21613841   6.544   4.866   4.849  0.3252 -0.4439  0.4714
  129SOPE  H16R13842   6.513   4.762   4.872  0.7898 -0.4797  0.9606
  129SOPE  H16S13843   6.631   4.857   4.780  1.3710  1.2504  1.5007
  129SOPE  C21713844   6.416   4.924   4.783 -0.1950  0.5640  0.2378
  129SOPE  H17R13845   6.434   5.034   4.782  0.8759  0.4570 -2.7837
  129SOPE  H17S13846   6.325   4.915   4.845 -0.1245 -1.2650  0.1258
  129SOPE  C21813847   6.385   4.885   4.646  0.0717 -0.1205  0.4634
  129SOPE  H18R13848   6.463   4.825   4.594  1.2725 -0.1627  2.2461
  129SOPE  H18S13849   6.351   4.969   4.581 -1.5023 -0.1120  1.2604
  129SOPE  H18T13850   6.293   4.824   4.637  0.7947 -1.0056 -1.5474
  129SOPE   C3313851   6.499   4.922   5.661  0.3593 -0.0790 -0.2403
  129SOPE   H3X13852   6.526   5.029   5.650 -1.8607  0.4877 -0.8843
  129SOPE   H3Y13853   6.388   4.926   5.673  0.4405  0.9840  0.2297
  129SOPE   C3413854   6.536   4.838   5.542  0.5067  0.6828  0.3083
  129SOPE   H4X13855   6.546   4.731   5.568 -1.0293 -0.4424 -3.0867
  129SOPE   H4Y13856   6.630   4.869   5.491  0.4627  0.7522  0.2685
  129SOPE   C3513857   6.427   4.855   5.427 -0.2228  0.0572 -0.3975
  129SOPE   H5X13858   6.435   4.956   5.379  1.3808  0.3851  0.4824
  129SOPE   H5Y13859   6.331   4.825   5.474  0.4687 -2.5568 -0.5332
  129SOPE   C3613860   6.441   4.747   5.325  0.1739  0.2552  0.3067
  129SOPE   H6X13861   6.448   4.649   5.377  1.3838  0.1663  0.0154
  129SOPE   H6Y13862   6.536   4.759   5.268  0.3294  1.5779  0.7895
  129SOPE   C3713863   6.328   4.734   5.219 -0.0031  0.3026  0.4408
  129SOPE   H7X13864   6.312   4.827   5.161 -0.3674 -0.8191 -1.3386
  129SOPE   H7Y13865   6.231   4.716   5.271  0.3408 -1.4223  0.5637
  129SOPE   C3813866   6.357   4.627   5.113  0.2093  0.4164 -0.5678
  129SOPE   H8X13867   6.372   4.535   5.174  0.1088  2.1773  2.3215
  129SOPE   H8Y13868   6.457   4.638   5.067  0.6452  1.5401  0.5908
  129SOPE   C3913869   6.248   4.629   5.012 -0.3776 -0.4433 -0.9691
  129SOPE   H9X13870   6.245   4.732   4.972  1.7148  1.2128  2.7130
  129SOPE   H9Y13871   6.146   4.602   5.049 -0.7920  0.9697 -1.0452
  129SOPE  C31013872   6.272   4.521   4.898  0.2125 -0.2285 -0.1538
  129SOPE  H10X13873   6.286   4.422   4.945  0.5650  1.6333  4.1521
  129SOPE  H10Y13874   6.372   4.545   4.857 -0.0982  1.8549  0.1710
  129SOPE  C31113875   6.166   4.518   4.785 -0.2383  0.4549 -1.1678
  129SOPE  H11X13876   6.164   4.616   4.733 -2.7456  0.4523 -1.2116
  129SOPE  H11Y13877   6.072   4.493   4.839  1.0652  0.9760  1.4897
  129SOPE  C31213878   6.197   4.412   4.679  0.6220 -0.5670 -0.4669
  129SOPE  H12X13879   6.246   4.325   4.728 -1.0640 -2.3637 -1.7622
  129SOPE  H12Y13880   6.266   4.450   4.601  2.2054 -2.2993  0.0167
  129SOPE  C31313881   6.069   4.364   4.610 -0.5623 -0.4531  0.4007
  129SOPE  H13X13882   6.029   4.455   4.559 -1.7045 -0.7183  0.8016
  129SOPE  H13Y13883   5.990   4.329   4.679  0.8164 -1.3715  1.5508
  129SOPE  C31413884   6.105   4.251   4.514  1.0396  0.4239  0.8921
  129SOPE  H14X13885   6.011   4.220   4.462  1.1931  1.0491  0.2274
  129SOPE  H14Y13886   6.153   4.183   4.587  0.6072 -1.1751 -0.2426
  129SOPE  C31513887   6.210   4.271   4.401  0.0985 -0.6268 -0.4444
  129SOPE  H15X13888   6.313   4.256   4.439 -0.1125 -0.4897  0.1898
  129SOPE  H15Y13889   6.207   4.375   4.361 -0.8644 -0.8349 -0.9498
  129SOPE  C31613890   6.196   4.163   4.291  0.0322  0.5017 -0.2159
  129SOPE  H16X13891   6.087   4.149   4.273 -0.1158 -0.8617  1.5467
  129SOPE  H16Y13892   6.231   4.069   4.338 -0.0203  1.4661  1.8754
  129SOPE  C31713893   6.289   4.191   4.174 -0.2493 -0.0199  0.0387
  129SOPE  H17X13894   6.305   4.300   4.165  0.6955  0.1307  2.6914
  129SOPE  H17Y13895   6.239   4.148   4.084 -0.1488  2.5085 -1.3303
  129SOPE  C31813896   6.427   4.117   4.191  0.1523 -0.2030 -0.0478
  129SOPE  H18X13897   6.489   4.163   4.271  0.2100 -0.9077  0.3151
  129SOPE  H18Y13898   6.479   4.115   4.093 -2.2572  1.0863 -1.4507
  129SOPE  H18Z13899   6.409   4.012   4.222  0.1437 -0.0165  0.6091
  130SOPE     N13900   4.078   5.581   6.518 -0.7793 -0.6956 -0.3332
  130SOPE   HN113901   3.983   5.538   6.515 -0.7374 -0.8012 -0.1537
  130SOPE   HN213902   4.068   5.683   6.502 -1.9526 -0.2280  2.7098
  130SOPE   HN313903   4.143   5.540   6.449 -0.0402  0.8222 -0.5824
  130SOPE   C1213904   4.136   5.552   6.654  0.2374 -0.3389 -1.0075
  130SOPE  H12A13905   4.109   5.629   6.729 -1.5796 -0.5731 -1.3839
  130SOPE  H12B13906   4.247   5.541   6.648  0.7205 -0.2310  3.7952
  130SOPE   C1113907   4.068   5.420   6.697  0.1067 -0.0288 -0.7512
  130SOPE  H11A13908   4.111   5.382   6.792 -0.5434 -0.4162 -0.6085
  130SOPE  H11B13909   4.080   5.347   6.615 -0.6156 -2.3231  1.0958
  130SOPE     P13910   3.816   5.391   6.637  0.3127 -0.2107  0.2292
  130SOPE   O1313911   3.714   5.499   6.621 -0.1299  0.0499  0.3838
  130SOPE   O1413912   3.774   5.258   6.689 -0.2241  0.2038 -0.0591
  130SOPE   O1213913   3.928   5.456   6.731 -0.0562  0.2805 -0.3834
  130SOPE   O1113914   3.890   5.375   6.505  0.0114  0.5594 -0.0801
  130SOPE    C113915   3.837   5.273   6.417 -0.3603  0.5149  0.2459
  130SOPE    HA13916   3.729   5.288   6.395 -0.6305  0.1297  1.2295
  130SOPE    HB13917   3.837   5.174   6.467 -1.4971  0.1959 -0.3548
  130SOPE    C213918   3.916   5.255   6.286  0.1095 -0.1777 -0.4533
  130SOPE    HS13919   4.025   5.267   6.305  0.3496 -1.6364 -0.8297
  130SOPE   O2113920   3.868   5.358   6.203  0.7596 -0.3894 -0.6331
  130SOPE   C2113921   3.959   5.411   6.126 -0.1248 -0.2819  0.8073
  130SOPE   O2213922   4.080   5.404   6.140 -0.9242 -0.4694 -0.5930
  130SOPE   C2213923   3.888   5.487   6.006  0.6693  1.0542  0.5088
  130SOPE   H2R13924   3.826   5.563   6.058  0.0217 -0.0428  1.3699
  130SOPE   H2S13925   3.814   5.423   5.953 -3.4093  1.0066  5.4814
  130SOPE    C313926   3.875   5.119   6.221 -0.6430 -0.3046 -0.1866
  130SOPE    HX13927   3.765   5.114   6.208 -0.9677 -0.9265  2.4339
  130SOPE    HY13928   3.914   5.045   6.294 -0.7712  0.6699  0.8824
  130SOPE   O3113929   3.933   5.112   6.089  0.0984 -0.5475  0.3640
  130SOPE   C3113930   4.034   5.025   6.073 -0.4342  0.3193 -0.7320
  130SOPE   O3213931   4.099   4.970   6.164  0.8522  0.8359  0.8130
  130SOPE   C3213932   4.068   5.029   5.919 -0.7624 -0.7895 -0.1539
  130SOPE   H2X13933   4.102   5.131   5.892  2.9999 -2.2626 -1.6787
  130SOPE   H2Y13934   3.977   4.997   5.864  0.7142 -0.4967 -2.9262
  130SOPE   C2313935   3.992   5.549   5.902  0.0216  0.1468  0.0034
  130SOPE   H3R13936   4.044   5.460   5.860 -1.8650  0.2588 -2.8028
  130SOPE   H3S13937   4.066   5.607   5.961  0.4048 -2.3002  2.1017
  130SOPE   C2413938   3.920   5.630   5.796  0.4820 -0.0696 -0.1759
  130SOPE   H4R13939   3.859   5.697   5.861  1.0138  0.6423 -0.4069
  130SOPE   H4S13940   3.987   5.696   5.738  0.1092  0.0323 -0.4993
  130SOPE   C2513941   3.813   5.555   5.718 -0.3563 -0.9150  0.0278
  130SOPE   H5R13942   3.862   5.467   5.672  0.8004 -2.2381  3.4064
  130SOPE   H5S13943   3.723   5.522   5.775 -1.2688  0.0249 -0.8326
  130SOPE   C2613944   3.749   5.654   5.617 -0.2699 -0.9078 -0.5985
  130SOPE   H6R13945   3.668   5.715   5.663 -1.4825 -0.9353 -2.5898
  130SOPE   H6S13946   3.827   5.721   5.575  1.1328 -1.9745  0.2180
  130SOPE   C2713947   3.678   5.585   5.505  0.0509 -0.0905 -0.0308
  130SOPE   H7R13948   3.740   5.503   5.463  3.1573  0.0467  3.7911
  130SOPE   H7S13949   3.587   5.532   5.542  0.2624 -0.4338  0.0082
  130SOPE   C2813950   3.636   5.688   5.397  0.1260  0.3015  1.2469
  130SOPE   H8R13951   3.572   5.773   5.431  2.8710  2.2826  1.7992
  130SOPE   H8S13952   3.726   5.750   5.380  0.3163  0.4958  2.8112
  130SOPE   C2913953   3.576   5.625   5.272  0.2790  0.5655 -0.3470
  130SOPE   H9113954   3.467   5.611   5.280  0.3478  0.5173  0.7127
  130SOPE  C21013955   3.644   5.593   5.161  0.7611 -0.8717  0.1326
  130SOPE  H10113956   3.591   5.545   5.078  0.6649 -0.6858  0.0857
  130SOPE  C21113957   3.790   5.609   5.134 -0.7129 -0.4385 -0.3273
  130SOPE  H11R13958   3.846   5.637   5.226  0.7867 -0.5216 -1.1800
  130SOPE  H11S13959   3.808   5.690   5.061 -0.9984  2.0755  2.2450
  130SOPE  C21213960   3.867   5.482   5.073  0.3056 -0.0171  0.2197
  130SOPE  H12R13961   3.837   5.401   5.144 -2.9107  1.5014  0.7559
  130SOPE  H12S13962   3.977   5.500   5.079  0.0325  2.2019 -0.5921
  130SOPE  C21313963   3.822   5.440   4.930  0.2254  0.3079  0.2206
  130SOPE  H13R13964   3.833   5.530   4.866  2.8281 -0.6565 -0.7784
  130SOPE  H13S13965   3.715   5.408   4.931  0.4541 -0.5182 -0.9356
  130SOPE  C21413966   3.895   5.318   4.873 -0.6434 -0.2965  0.4026
  130SOPE  H14R13967   3.890   5.234   4.945 -1.1195  0.3355  1.1294
  130SOPE  H14S13968   4.002   5.346   4.865 -1.1585  1.5057 -0.8779
  130SOPE  C21513969   3.840   5.257   4.738 -0.2241 -0.3518  0.0206
  130SOPE  H15R13970   3.840   5.331   4.655  1.4950  0.1272  0.3994
  130SOPE  H15S13971   3.734   5.225   4.744  0.1131 -1.8250 -1.3454
  130SOPE  C21613972   3.919   5.131   4.700  0.1275  0.1907  0.3766
  130SOPE  H16R13973   3.897   5.047   4.769 -0.4013 -0.8736 -1.0584
  130SOPE  H16S13974   4.024   5.166   4.696 -0.3400  1.6349 -0.2070
  130SOPE  C21713975   3.880   5.071   4.559 -0.2936  0.2850  0.4816
  130SOPE  H17R13976   3.776   5.032   4.560  0.1757 -1.0147  1.0929
  130SOPE  H17S13977   3.948   4.985   4.540 -0.4206  0.0519  1.0567
  130SOPE  C21813978   3.879   5.159   4.436 -0.0167 -0.5666  0.5112
  130SOPE  H18R13979   3.862   5.103   4.341  1.3811  1.2423 -0.8555
  130SOPE  H18S13980   3.979   5.205   4.424 -0.5867  0.1671 -1.9165
  130SOPE  H18T13981   3.808   5.244   4.441  1.2336  0.6245 -0.9270
  130SOPE   C3313982   4.160   4.926   5.866 -0.4800 -0.0627 -0.2246
  130SOPE   H3X13983   4.122   4.830   5.906  1.3006 -1.1915 -1.0940
  130SOPE   H3Y13984   4.255   4.932   5.923  0.1813 -3.0377 -0.8560
  130SOPE   C3413985   4.179   4.917   5.717  0.1060 -0.5742  0.5872
  130SOPE   H4X13986   4.270   4.854   5.707 -0.4834 -1.8257  2.5566
  130SOPE   H4Y13987   4.202   5.017   5.675 -0.9097 -0.0924  1.1396
  130SOPE   C3513988   4.063   4.854   5.643  0.5072  0.4136  0.0351
  130SOPE   H5X13989   3.977   4.915   5.675  1.4509 -0.0615  3.9784
  130SOPE   H5Y13990   4.048   4.748   5.673 -0.0498 -0.7641 -3.8106
  130SOPE   C3613991   4.084   4.867   5.493  1.2293  0.7604  0.7943
  130SOPE   H6X13992   4.178   4.816   5.465  0.1437  0.5051 -3.0270
  130SOPE   H6Y13993   4.102   4.973   5.464  0.3816  0.2484 -1.9253
  130SOPE   C3713994   3.967   4.808   5.412  1.2025 -0.4634  0.5847
  130SOPE   H7X13995   3.872   4.860   5.436 -0.7108 -2.9221 -1.2195
  130SOPE   H7Y13996   3.952   4.701   5.438  0.3959 -0.5338 -0.1286
  130SOPE   C3813997   3.988   4.814   5.259 -0.3020 -0.1987  0.2186
  130SOPE   H8X13998   4.080   4.754   5.240 -0.1223  0.2836 -0.4824
  130SOPE   H8Y13999   4.013   4.917   5.224  1.0439 -0.5955 -0.0791
  130SOPE   C3914000   3.881   4.749   5.182  0.1766 -0.7909  0.0293
  130SOPE   H9X14001   3.777   4.781   5.208  1.0531  1.1614  1.3900
  130SOPE   H9Y14002   3.892   4.639   5.197  1.2744 -0.9246 -1.6092
  130SOPE  C31014003   3.896   4.772   5.024 -0.4721 -0.2007 -0.1277
  130SOPE  H10X14004   4.001   4.743   5.001 -0.1855 -0.3409  1.2860
  130SOPE  H10Y14005   3.878   4.876   4.990  2.1734  0.6088  0.7427
  130SOPE  C31114006   3.795   4.680   4.948 -0.1953 -0.4302  0.4837
  130SOPE  H11X14007   3.689   4.708   4.968 -0.7673 -0.0168 -2.5959
  130SOPE  H11Y14008   3.818   4.577   4.983  0.3864 -0.9227 -1.2618
  130SOPE  C31214009   3.806   4.679   4.789 -0.0221  0.1138 -0.2470
  130SOPE  H12X14010   3.906   4.643   4.756  0.0170 -1.3569  1.3403
  130SOPE  H12Y14011   3.790   4.778   4.742  2.3226 -0.0031 -1.4758
  130SOPE  C31314012   3.720   4.577   4.717  0.7896  0.2192  0.5035
  130SOPE  H13X14013   3.615   4.585   4.751  0.4208  1.5155 -0.8262
  130SOPE  H13Y14014   3.750   4.470   4.713 -2.5192 -0.7765 -0.5868
  130SOPE  C31414015   3.715   4.621   4.568 -0.7789  0.1309 -0.3036
  130SOPE  H14X14016   3.655   4.714   4.557 -1.3040  0.0547  1.6524
  130SOPE  H14Y14017   3.656   4.540   4.520 -0.0351  0.3850 -1.7105
  130SOPE  C31514018   3.846   4.637   4.483 -0.3070 -0.8024 -0.2593
  130SOPE  H15X14019   3.915   4.550   4.495  1.1423 -0.5155 -4.6653
  130SOPE  H15Y14020   3.892   4.730   4.525 -1.5892  0.8038 -2.2049
  130SOPE  C31614021   3.833   4.657   4.332  0.4414  0.1468  0.3617
  130SOPE  H16X14022   3.741   4.718   4.318  0.3330 -0.6851 -3.8209
  130SOPE  H16Y14023   3.796   4.561   4.290  1.1371 -0.1594  0.4318
  130SOPE  C31714024   3.950   4.733   4.276 -0.2515  0.2905  0.2401
  130SOPE  H17X14025   4.029   4.657   4.295 -1.2183 -1.8171 -3.2042
  130SOPE  H17Y14026   3.968   4.820   4.343  1.0990  1.4765 -1.5907
  130SOPE  C31814027   3.953   4.759   4.122 -0.4865  0.5030  0.3789
  130SOPE  H18X14028   3.952   4.665   4.063  1.9650  0.4072  0.3713
  130SOPE  H18Y14029   4.048   4.806   4.088 -1.5998  1.4918 -1.5031
  130SOPE  H18Z14030   3.864   4.823   4.105 -0.5018 -0.0483 -1.9977
  131SOPE     N14031   2.435   0.473   2.055  0.2084 -0.2498  0.1056
  131SOPE   HN114032   2.449   0.386   2.001  0.9985  1.0133 -1.8312
  131SOPE   HN214033   2.477   0.477   2.150 -0.8658 -0.3640  0.6076
  131SOPE   HN314034   2.331   0.475   2.061  0.2123  1.1409  0.1143
  131SOPE   C1214035   2.482   0.594   1.976 -0.0678  0.0751 -0.2458
  131SOPE  H12A14036   2.592   0.585   1.966  0.0652  0.5342  0.7553
  131SOPE  H12B14037   2.463   0.690   2.029 -2.6242  0.2672 -1.3401
  131SOPE   C1114038   2.415   0.605   1.833  0.2082  0.4063 -0.1042
  131SOPE  H11A14039   2.424   0.503   1.790 -2.5622 -0.3790  0.9663
  131SOPE  H11B14040   2.472   0.679   1.773  1.0244 -2.1555 -2.7008
  131SOPE     P14041   2.238   0.787   1.833  0.2497  0.2775 -0.3416
  131SOPE   O1314042   2.091   0.798   1.827  0.5281  0.0241  0.4148
  131SOPE   O1414043   2.314   0.846   1.722 -0.1962 -0.5391 -0.4771
  131SOPE   O1214044   2.281   0.638   1.843 -0.3216 -0.4283 -0.1220
  131SOPE   O1114045   2.288   0.849   1.974  0.7790 -0.3348 -0.2253
  131SOPE    C114046   2.235   0.806   2.098  0.3010 -0.4071 -0.6158
  131SOPE    HA14047   2.270   0.702   2.111  0.1243 -0.4392 -0.3889
  131SOPE    HB14048   2.124   0.804   2.089  0.3803 -0.1308 -1.8116
  131SOPE    C214049   2.276   0.902   2.213 -0.1857 -0.2258  0.6136
  131SOPE    HS14050   2.218   0.994   2.191  1.1198  0.7628  1.1731
  131SOPE   O2114051   2.424   0.903   2.213  0.1526  0.2192 -0.2673
  131SOPE   C2114052   2.476   1.025   2.235  0.5350  0.1864 -0.0634
  131SOPE   O2214053   2.414   1.130   2.252 -0.4753  0.2564 -0.1562
  131SOPE   C2214054   2.627   1.021   2.209  0.4978 -0.1876  0.7348
  131SOPE   H2R14055   2.650   1.029   2.100  0.4529 -0.8468  0.6677
  131SOPE   H2S14056   2.665   0.919   2.234 -0.3477 -0.6796  0.0779
  131SOPE    C314057   2.217   0.837   2.337  0.6428 -0.7014  0.0742
  131SOPE    HX14058   2.288   0.752   2.349  2.6683  0.7190 -1.1282
  131SOPE    HY14059   2.113   0.817   2.306  1.4688  0.1831 -3.7704
  131SOPE   O3114060   2.228   0.924   2.448  0.3711 -0.1598  0.1276
  131SOPE   C3114061   2.330   0.911   2.531  0.2925 -0.2041 -1.0217
  131SOPE   O3214062   2.413   0.824   2.533  0.1026 -0.0983  0.4325
  131SOPE   C3214063   2.325   1.038   2.621  0.5083 -0.3657  0.3583
  131SOPE   H2X14064   2.289   1.121   2.556 -1.9163 -0.1948  1.7949
  131SOPE   H2Y14065   2.429   1.066   2.650  1.0175  1.3145 -2.6748
  131SOPE   C2314066   2.710   1.120   2.298 -0.0620  0.7417 -0.0760
  131SOPE   H3R14067   2.664   1.221   2.297 -5.3555 -1.3044  0.0743
  131SOPE   H3S14068   2.806   1.112   2.244 -0.6357  1.9667 -1.3295
  131SOPE   C2414069   2.707   1.080   2.450  0.3471 -0.7168 -0.2517
  131SOPE   H4R14070   2.615   1.124   2.494 -0.1561 -1.8716 -0.0974
  131SOPE   H4S14071   2.712   0.970   2.460 -2.9282 -0.9002  0.4313
  131SOPE   C2514072   2.816   1.163   2.513  0.7302 -0.1573  0.0725
  131SOPE   H5R14073   2.919   1.146   2.476  0.9058 -1.5500  1.1179
  131SOPE   H5S14074   2.793   1.268   2.482  0.5995 -0.3924 -0.6487
  131SOPE   C2614075   2.813   1.154   2.668 -0.8840 -0.1659 -0.1780
  131SOPE   H6R14076   2.914   1.193   2.693 -1.4721  1.4264 -0.1986
  131SOPE   H6S14077   2.734   1.223   2.706  0.1936  1.8798 -1.4779
  131SOPE   C2714078   2.790   1.007   2.731 -0.2505 -0.3615  0.8685
  131SOPE   H7R14079   2.688   0.973   2.702  0.8330 -3.6819  0.5548
  131SOPE   H7S14080   2.869   0.948   2.681  1.1128  1.6169  0.5404
  131SOPE   C2814081   2.799   1.011   2.882 -0.5811  0.5183 -0.0806
  131SOPE   H8R14082   2.808   0.906   2.918 -0.8851  0.5960  0.2281
  131SOPE   H8S14083   2.891   1.065   2.913 -0.9826  0.5091  1.2155
  131SOPE   C2914084   2.677   1.084   2.941 -0.2913  0.2071  0.0585
  131SOPE   H9114085   2.617   1.147   2.874 -0.0448  0.9938  0.5582
  131SOPE  C21014086   2.643   1.062   3.069  0.4739 -0.1874 -0.4438
  131SOPE  H10114087   2.576   1.142   3.103  2.1246  1.4491 -0.8568
  131SOPE  C21114088   2.703   0.977   3.185 -0.8985 -0.2768 -0.2371
  131SOPE  H11R14089   2.804   0.942   3.155 -1.2436  0.4343 -2.4059
  131SOPE  H11S14090   2.645   0.885   3.210 -0.6329  0.3914  3.4084
  131SOPE  C21214091   2.722   1.065   3.316  0.0589  0.6372 -0.3382
  131SOPE  H12R14092   2.624   1.104   3.349 -0.6282 -0.5400 -0.9215
  131SOPE  H12S14093   2.786   1.155   3.303 -1.1757  1.7919  1.2156
  131SOPE  C21314094   2.765   0.974   3.436  0.1934  0.1094 -0.6305
  131SOPE  H13R14095   2.873   0.956   3.417 -0.2974 -2.1092 -1.6281
  131SOPE  H13S14096   2.715   0.875   3.425 -3.1574  1.2756  2.2111
  131SOPE  C21414097   2.740   1.037   3.572 -0.0011  0.3594 -0.5395
  131SOPE  H14R14098   2.640   1.002   3.606  1.9501 -3.9802  1.6314
  131SOPE  H14S14099   2.743   1.147   3.565 -0.5396  0.4053 -0.0607
  131SOPE  C21514100   2.849   0.999   3.676  0.4318  0.3451  0.0953
  131SOPE  H15R14101   2.939   1.058   3.649 -1.3631  2.2802 -2.1751
  131SOPE  H15S14102   2.877   0.892   3.670 -1.4181 -0.1638 -0.2478
  131SOPE  C21614103   2.793   1.015   3.814  0.1740 -0.8284 -0.9541
  131SOPE  H16R14104   2.727   0.926   3.828  0.0181 -0.8411 -1.7407
  131SOPE  H16S14105   2.716   1.095   3.822 -0.8461 -1.8485 -0.1749
  131SOPE  C21714106   2.908   1.030   3.919 -0.0835 -0.0589  0.3289
  131SOPE  H17R14107   2.910   1.139   3.940 -1.0695  0.0106  0.1013
  131SOPE  H17S14108   3.004   1.005   3.868  0.7185 -0.5747  2.0166
  131SOPE  C21814109   2.888   0.949   4.042  0.2542  0.7415 -0.4342
  131SOPE  H18R14110   2.960   0.961   4.126 -0.0534 -0.3167  0.0030
  131SOPE  H18S14111   2.876   0.841   4.021 -0.4184  0.8151 -0.4447
  131SOPE  H18T14112   2.792   0.987   4.083  0.2778  0.6704 -0.3128
  131SOPE   C3314113   2.251   1.015   2.746  0.0483 -0.6924  0.3012
  131SOPE   H3X14114   2.152   0.967   2.734  0.7129 -1.9626 -0.2330
  131SOPE   H3Y14115   2.239   1.116   2.792  2.4318  0.2958 -1.0364
  131SOPE   C3414116   2.330   0.928   2.848  0.2748 -0.3798  0.3790
  131SOPE   H4X14117   2.420   0.983   2.883 -0.7126  1.0005  0.8411
  131SOPE   H4Y14118   2.348   0.829   2.800 -1.7908 -0.3581 -0.5447
  131SOPE   C3514119   2.244   0.923   2.971  0.0696 -0.5671  0.1278
  131SOPE   H5X14120   2.143   0.890   2.938  0.6319  0.1818 -2.6604
  131SOPE   H5Y14121   2.238   1.016   3.030 -1.5385 -0.7826  0.3310
  131SOPE   C3614122   2.304   0.827   3.079  0.1281  0.6057 -0.0560
  131SOPE   H6X14123   2.410   0.801   3.058 -0.6817 -0.3338 -3.7372
  131SOPE   H6Y14124   2.247   0.734   3.060 -2.0936  2.3959 -3.1140
  131SOPE   C3714125   2.286   0.858   3.229  0.1131 -0.6103 -0.0034
  131SOPE   H7X14126   2.177   0.861   3.250 -0.1280  1.5728 -1.3388
  131SOPE   H7Y14127   2.323   0.958   3.263  0.6248 -0.8097  0.0427
  131SOPE   C3814128   2.354   0.766   3.324 -0.5684  0.4520 -0.6423
  131SOPE   H8X14129   2.455   0.763   3.277 -0.3012  1.8910 -0.2154
  131SOPE   H8Y14130   2.316   0.662   3.331  0.7926  0.0548  2.2468
  131SOPE   C3914131   2.372   0.826   3.467  0.1196 -0.8159  1.0794
  131SOPE   H9X14132   2.393   0.934   3.454 -2.9420 -0.2851 -0.2491
  131SOPE   H9Y14133   2.448   0.773   3.529  0.7223  0.0233  1.0699
  131SOPE  C31014134   2.234   0.822   3.549 -0.0664 -0.2181  0.1152
  131SOPE  H10X14135   2.200   0.717   3.558  0.3957 -0.4160 -0.4032
  131SOPE  H10Y14136   2.157   0.877   3.491  1.5248  0.4360 -1.4828
  131SOPE  C31114137   2.246   0.889   3.686  0.7821 -0.2443  0.2856
  131SOPE  H11X14138   2.141   0.906   3.719  0.9265  1.7149 -0.1276
  131SOPE  H11Y14139   2.286   0.992   3.676 -0.2666  0.1638  0.0924
  131SOPE  C31214140   2.327   0.817   3.798 -1.3082  0.1070 -0.0012
  131SOPE  H12X14141   2.429   0.810   3.755 -0.7929  2.7836  0.5990
  131SOPE  H12Y14142   2.280   0.718   3.815 -1.4382  0.1617 -0.0379
  131SOPE  C31314143   2.332   0.898   3.928  0.7361  0.3116 -0.1334
  131SOPE  H13X14144   2.357   1.006   3.919  1.4231  0.0469 -1.7026
  131SOPE  H13Y14145   2.414   0.863   3.993  1.5767  1.9232 -0.2760
  131SOPE  C31414146   2.209   0.879   4.010  0.4479  0.3868 -0.1857
  131SOPE  H14X14147   2.174   0.775   4.020 -0.4339  0.6656 -0.2970
  131SOPE  H14Y14148   2.127   0.943   3.971  1.6834  1.9874 -0.2982
  131SOPE  C31514149   2.218   0.935   4.154  0.3581  0.6211 -0.2283
  131SOPE  H15X14150   2.263   1.037   4.151 -1.5088  1.4752 -0.7719
  131SOPE  H15Y14151   2.285   0.865   4.208  0.3083  1.5546  1.1151
  131SOPE  C31614152   2.086   0.946   4.229  0.2466  0.2028 -0.8052
  131SOPE  H16X14153   2.048   0.842   4.238  1.8387 -0.3175  0.3472
  131SOPE  H16Y14154   2.013   1.015   4.182 -2.1662  0.8857  3.3877
  131SOPE  C31714155   2.093   0.980   4.379 -0.5041  0.2276 -0.0059
  131SOPE  H17X14156   1.988   0.993   4.414 -0.6682 -0.2291 -0.3333
  131SOPE  H17Y14157   2.135   1.081   4.401  0.9278 -0.0932 -1.1505
  131SOPE  C31814158   2.163   0.874   4.468 -0.3215  0.0250  0.1141
  131SOPE  H18X14159   2.103   0.781   4.480  0.8599 -0.5056  2.5864
  131SOPE  H18Y14160   2.182   0.916   4.569  2.4514 -0.0347 -0.3143
  131SOPE  H18Z14161   2.261   0.849   4.421  0.0490  2.1189 -0.3413
  132SOPE     N14162   1.539   2.473   2.198 -0.0856 -0.2782  0.9615
  132SOPE   HN114163   1.608   2.498   2.123  0.9998 -1.7623  1.4177
  132SOPE   HN214164   1.445   2.511   2.178  0.2701 -0.4257 -1.3938
  132SOPE   HN314165   1.566   2.519   2.287  0.6158  0.6900  0.2826
  132SOPE   C1214166   1.533   2.321   2.213  0.4703  0.6951  0.0953
  132SOPE  H12A14167   1.545   2.306   2.322 -0.8940  0.8797  0.2903
  132SOPE  H12B14168   1.601   2.276   2.138  1.1966  1.3099  0.3715
  132SOPE   C1114169   1.391   2.267   2.176  0.1587 -0.0903 -0.2059
  132SOPE  H11A14170   1.393   2.156   2.166  0.0916 -0.0714 -0.4292
  132SOPE  H11B14171   1.359   2.299   2.075 -1.9318  1.0180  0.7628
  132SOPE     P14172   1.230   2.247   2.379 -0.1958  0.3537  0.1622
  132SOPE   O1314173   1.189   2.118   2.315 -0.0023 -0.5187  0.2751
  132SOPE   O1414174   1.129   2.332   2.443 -0.1054 -0.0544  0.2062
  132SOPE   O1214175   1.308   2.327   2.269  0.1676 -0.2480  0.4706
  132SOPE   O1114176   1.343   2.221   2.483 -0.0889 -0.3239  0.1597
  132SOPE    C114177   1.389   2.328   2.569  0.4407  0.3561  0.3860
  132SOPE    HA14178   1.323   2.417   2.575  0.9556  0.6578  2.0905
  132SOPE    HB14179   1.481   2.373   2.525  0.1675 -0.1572 -0.7568
  132SOPE    C214180   1.412   2.273   2.717 -0.2727  0.2538  0.4932
  132SOPE    HS14181   1.446   2.358   2.781  1.9205  0.8860 -1.3975
  132SOPE   O2114182   1.506   2.166   2.726  0.3042 -0.8553 -0.0279
  132SOPE   C2114183   1.626   2.206   2.698 -0.0178 -0.6902 -0.0893
  132SOPE   O2214184   1.655   2.320   2.666  0.0877  0.1022  0.6241
  132SOPE   C2214185   1.725   2.093   2.729  0.3703 -0.8331  0.3462
  132SOPE   H2R14186   1.779   2.070   2.634  0.3817 -0.5485  0.2842
  132SOPE   H2S14187   1.669   2.000   2.754  0.4910 -0.3707  2.4628
  132SOPE    C314188   1.278   2.229   2.773  0.2488  0.1711  0.1021
  132SOPE    HX14189   1.283   2.213   2.882  0.5566  0.1306  0.0814
  132SOPE    HY14190   1.262   2.132   2.721 -1.8160  0.4822  0.0722
  132SOPE   O3114191   1.175   2.320   2.749 -0.0111 -0.1504  0.2585
  132SOPE   C3114192   1.060   2.261   2.756  0.3418 -0.1722  0.2258
  132SOPE   O3214193   1.043   2.141   2.766  0.2825 -0.1162  0.5151
  132SOPE   C3214194   0.949   2.363   2.745 -0.6607 -0.2436 -0.0147
  132SOPE   H2X14195   0.864   2.315   2.692  0.7197 -0.8881 -1.7825
  132SOPE   H2Y14196   0.982   2.443   2.675 -0.5094 -0.3599 -0.0780
  132SOPE   C2314197   1.836   2.122   2.830  0.1980 -0.0958  0.6162
  132SOPE   H3R14198   1.880   2.224   2.827  0.5128 -0.2037  1.4307
  132SOPE   H3S14199   1.921   2.052   2.822 -1.0352 -1.6648  0.6735
  132SOPE   C2414200   1.790   2.090   2.978  0.3250  0.3474  0.5136
  132SOPE   H4R14201   1.797   1.979   2.989 -0.7356 -0.1679 -2.8946
  132SOPE   H4S14202   1.873   2.137   3.035  0.0901  0.2265  0.9622
  132SOPE   C2514203   1.654   2.136   3.018 -0.0801 -0.4002 -0.6626
  132SOPE   H5R14204   1.642   2.243   2.991 -0.1705 -0.5534 -1.2584
  132SOPE   H5S14205   1.569   2.078   2.976 -0.7884 -1.1027  1.6102
  132SOPE   C2614206   1.638   2.132   3.175  0.1338 -0.5877 -0.7306
  132SOPE   H6R14207   1.717   2.190   3.228 -2.1071  1.8632  0.1634
  132SOPE   H6S14208   1.544   2.189   3.193 -0.3580 -1.4796 -0.4215
  132SOPE   C2714209   1.623   1.992   3.237  0.1936 -0.0857  0.0463
  132SOPE   H7R14210   1.525   1.946   3.216 -0.5714  0.2818  2.5648
  132SOPE   H7S14211   1.699   1.930   3.184 -0.2224 -0.7425  0.2192
  132SOPE   C2814212   1.644   1.988   3.390  0.2150 -0.5357 -0.5437
  132SOPE   H8R14213   1.635   1.882   3.422 -2.3272 -0.6438 -1.4188
  132SOPE   H8S14214   1.741   2.035   3.418 -0.4903  0.3014  0.6281
  132SOPE   C2914215   1.544   2.085   3.447 -0.8264  0.3415 -0.3266
  132SOPE   H9114216   1.557   2.190   3.417  0.0717  0.6521  1.0474
  132SOPE  C21014217   1.469   2.058   3.557 -0.2650  0.2205 -0.6863
  132SOPE  H10114218   1.396   2.131   3.595  1.9473  1.9023  0.5318
  132SOPE  C21114219   1.461   1.921   3.630 -0.2013 -0.0667 -0.4499
  132SOPE  H11R14220   1.564   1.883   3.652 -0.9972 -1.3282  1.2930
  132SOPE  H11S14221   1.407   1.848   3.566  0.2506 -0.1638 -0.7262
  132SOPE  C21214222   1.401   1.932   3.769 -0.3597  0.3524 -0.9070
  132SOPE  H12R14223   1.370   1.829   3.797  2.0189  0.2571  1.7880
  132SOPE  H12S14224   1.304   1.987   3.772 -0.5586 -0.0144  0.0799
  132SOPE  C21314225   1.501   1.984   3.876 -0.2154 -0.0044 -0.0859
  132SOPE  H13R14226   1.526   2.090   3.852  1.5248 -0.3516  0.0829
  132SOPE  H13S14227   1.594   1.923   3.866  1.5531  2.5482 -0.2728
  132SOPE  C21414228   1.452   1.985   4.019  0.0955 -0.0041 -0.4100
  132SOPE  H14R14229   1.427   1.881   4.048 -1.2418  0.1609 -0.9290
  132SOPE  H14S14230   1.358   2.043   4.031 -1.2356 -1.8436 -1.4997
  132SOPE  C21514231   1.551   2.051   4.115  0.5162  0.3141  0.4032
  132SOPE  H15R14232   1.568   2.151   4.068  1.2137 -0.2790 -0.6289
  132SOPE  H15S14233   1.648   1.999   4.116 -0.8878 -2.6175 -1.7822
  132SOPE  C21614234   1.496   2.072   4.260  0.4740  0.8533  0.7302
  132SOPE  H16R14235   1.525   1.972   4.300 -0.3740 -0.4874 -1.7629
  132SOPE  H16S14236   1.388   2.081   4.282  0.1212  0.7228 -0.8398
  132SOPE  C21714237   1.567   2.191   4.332  0.8270  0.6915  0.1162
  132SOPE  H17R14238   1.540   2.177   4.439  0.2486  0.5845 -0.0402
  132SOPE  H17S14239   1.523   2.290   4.308  0.4838  0.7387  0.9086
  132SOPE  C21814240   1.718   2.192   4.340  0.2190 -0.3780 -0.0667
  132SOPE  H18R14241   1.761   2.289   4.374  1.1960 -0.3335 -1.3694
  132SOPE  H18S14242   1.774   2.170   4.247  0.5474  1.2861 -0.3081
  132SOPE  H18T14243   1.748   2.124   4.423  1.6022 -0.4702 -0.6140
  132SOPE   C3314244   0.895   2.412   2.881  0.0190  0.7053  0.4734
  132SOPE   H3X14245   0.798   2.459   2.853 -0.7373 -1.6983 -1.3654
  132SOPE   H3Y14246   0.960   2.491   2.923 -1.9011  2.0364  1.1094
  132SOPE   C3414247   0.878   2.309   2.998  0.0644 -0.1589  0.2221
  132SOPE   H4X14248   0.983   2.288   3.028  0.8437  2.1775 -0.6119
  132SOPE   H4Y14249   0.830   2.213   2.969 -1.6872  0.7154  0.0589
  132SOPE   C3514250   0.804   2.374   3.120 -0.5289  1.0173 -0.9405
  132SOPE   H5X14251   0.695   2.374   3.096 -0.8109 -0.2907  0.1983
  132SOPE   H5Y14252   0.837   2.477   3.143 -1.4645  1.0996  0.1320
  132SOPE   C3614253   0.832   2.288   3.246  0.3437 -0.4045 -0.0010
  132SOPE   H6X14254   0.938   2.254   3.238  0.2866 -0.4905 -0.4011
  132SOPE   H6Y14255   0.778   2.191   3.239 -2.2837  1.0824 -1.9039
  132SOPE   C3714256   0.796   2.364   3.376 -0.1483  0.3521 -0.0368
  132SOPE   H7X14257   0.688   2.388   3.385 -0.3481 -0.8509  0.9503
  132SOPE   H7Y14258   0.845   2.463   3.386 -0.9725  0.6990  0.7207
  132SOPE   C3814259   0.829   2.289   3.503 -0.8531  0.0624 -0.9069
  132SOPE   H8X14260   0.938   2.286   3.522 -1.2749 -2.0601  1.7841
  132SOPE   H8Y14261   0.813   2.181   3.487  2.8616 -1.6294  4.3364
  132SOPE   C3914262   0.750   2.339   3.628 -0.1620  0.0201  0.5774
  132SOPE   H9X14263   0.641   2.321   3.626 -0.1023 -0.5575  1.6966
  132SOPE   H9Y14264   0.776   2.447   3.642  3.2917 -0.4110 -1.4541
  132SOPE  C31014265   0.800   2.279   3.759  0.3543  0.1630  0.1753
  132SOPE  H10X14266   0.908   2.295   3.780  1.0761 -3.6370 -0.0176
  132SOPE  H10Y14267   0.805   2.169   3.746 -3.2154 -0.0756 -0.1873
  132SOPE  C31114268   0.710   2.301   3.882  0.6114 -0.9665 -0.4088
  132SOPE  H11X14269   0.604   2.276   3.858  0.6608 -0.8526 -0.7581
  132SOPE  H11Y14270   0.709   2.410   3.905 -1.2183 -0.5515 -2.1331
  132SOPE  C31214271   0.764   2.229   4.010  0.3906  0.2690  0.2183
  132SOPE  H12X14272   0.874   2.227   3.995  0.0839  1.9828 -3.3967
  132SOPE  H12Y14273   0.721   2.127   4.010  1.9874 -0.4291  0.1786
  132SOPE  C31314274   0.711   2.300   4.131 -0.2363 -0.0602  0.3528
  132SOPE  H13X14275   0.605   2.332   4.123  0.1578  1.0221 -0.9219
  132SOPE  H13Y14276   0.764   2.398   4.141  1.0601 -0.8179  1.2342
  132SOPE  C31414277   0.718   2.237   4.270  0.2901  0.5585  0.7537
  132SOPE  H14X14278   0.827   2.221   4.286  0.3415 -0.1495 -0.1939
  132SOPE  H14Y14279   0.661   2.142   4.280 -1.2642  1.7234  4.9414
  132SOPE  C31514280   0.652   2.315   4.381 -0.6802 -0.1222 -0.2658
  132SOPE  H15X14281   0.541   2.311   4.377 -0.7515  1.4091 -0.3092
  132SOPE  H15Y14282   0.683   2.421   4.391 -1.4917  0.4277 -2.9695
  132SOPE  C31614283   0.694   2.253   4.523  0.0214 -0.2230 -0.2886
  132SOPE  H16X14284   0.618   2.295   4.593  0.6675 -1.6162  1.3165
  132SOPE  H16Y14285   0.797   2.287   4.550 -0.5876  3.6244 -2.1406
  132SOPE  C31714286   0.675   2.100   4.554 -0.5383 -0.2188  0.3170
  132SOPE  H17X14287   0.734   2.048   4.476 -1.8238  0.7430 -1.3749
  132SOPE  H17Y14288   0.567   2.074   4.550 -0.5835 -0.6338  2.5996
  132SOPE  C31814289   0.740   2.065   4.687 -0.3167  0.0908 -0.5107
  132SOPE  H18X14290   0.851   2.073   4.694 -0.2331 -1.2405 -0.0210
  132SOPE  H18Y14291   0.710   1.961   4.712  0.1841 -0.1246 -0.7778
  132SOPE  H18Z14292   0.702   2.124   4.773  0.8896 -0.6341  0.5731
  133SOPE     N14293   1.511   5.268   2.401 -0.5254  0.2517 -0.0198
  133SOPE   HN114294   1.418   5.292   2.360 -0.8410  1.2531  1.2415
  133SOPE   HN214295   1.554   5.347   2.452 -0.7421  0.5036 -0.2260
  133SOPE   HN314296   1.573   5.239   2.322  3.5865 -0.3982  3.1194
  133SOPE   C1214297   1.500   5.161   2.503  0.2950 -0.0518 -0.0419
  133SOPE  H12A14298   1.393   5.157   2.532  0.5516 -1.2608  0.7686
  133SOPE  H12B14299   1.564   5.184   2.590 -1.6326  1.6123  1.0354
  133SOPE   C1114300   1.534   5.029   2.434  0.5560  0.3495 -0.1246
  133SOPE  H11A14301   1.538   4.960   2.521  2.8172  2.2490  1.3990
  133SOPE  H11B14302   1.639   5.031   2.398  0.4206  3.8734 -0.6841
  133SOPE     P14303   1.453   4.848   2.272 -0.4476 -0.0897 -0.2435
  133SOPE   O1314304   1.567   4.857   2.185 -0.3495  0.6873  0.2226
  133SOPE   O1414305   1.322   4.814   2.213  0.6097 -0.0536 -0.8195
  133SOPE   O1214306   1.434   4.994   2.334  0.3103  0.5390 -0.2042
  133SOPE   O1114307   1.488   4.754   2.396 -0.1464 -0.8796  0.1260
  133SOPE    C114308   1.398   4.643   2.420 -0.3438 -0.2806  0.4982
  133SOPE    HA14309   1.446   4.573   2.491  0.7060 -0.3293 -0.2427
  133SOPE    HB14310   1.379   4.589   2.325 -1.6752  1.5737 -0.3459
  133SOPE    C214311   1.260   4.688   2.482 -0.1262  0.3335  0.2613
  133SOPE    HS14312   1.216   4.761   2.410  1.5887  0.7227 -0.4315
  133SOPE   O2114313   1.280   4.741   2.614 -0.0055 -0.7338 -0.2228
  133SOPE   C2114314   1.181   4.806   2.671  0.1397  0.3900 -0.5132
  133SOPE   O2214315   1.070   4.820   2.621  0.4055  0.3429 -0.2853
  133SOPE   C2214316   1.217   4.846   2.812 -0.2204 -0.3034  0.5980
  133SOPE   H2R14317   1.196   4.760   2.880  1.0860  0.3593  1.9137
  133SOPE   H2S14318   1.159   4.938   2.834  0.4301 -0.0918  1.5078
  133SOPE    C314319   1.166   4.571   2.483 -0.1081 -0.0814 -0.6518
  133SOPE    HX14320   1.159   4.551   2.374 -0.0561  0.0457 -0.6793
  133SOPE    HY14321   1.062   4.594   2.516 -0.2969 -3.2708  1.4977
  133SOPE   O3114322   1.228   4.466   2.557 -0.4195 -0.1748  0.1095
  133SOPE   C3114323   1.193   4.452   2.684  0.3312  0.1385  0.3186
  133SOPE   O3214324   1.115   4.517   2.747 -0.0863  0.9119  0.8380
  133SOPE   C3214325   1.284   4.338   2.744  0.3406  0.4667 -0.3143
  133SOPE   H2X14326   1.329   4.285   2.656  0.5682 -2.4970  1.4451
  133SOPE   H2Y14327   1.213   4.264   2.787 -0.1827 -0.0527 -1.9561
  133SOPE   C2314328   1.369   4.879   2.840 -0.6272  0.4641  0.2120
  133SOPE   H3R14329   1.397   4.978   2.798  1.0665 -0.1100 -0.1073
  133SOPE   H3S14330   1.422   4.793   2.793  0.0905 -0.0356  1.8747
  133SOPE   C2414331   1.414   4.877   2.989 -0.5515  0.0255  0.7992
  133SOPE   H4R14332   1.382   4.786   3.043  1.0885 -1.1655 -0.1508
  133SOPE   H4S14333   1.525   4.886   2.993 -0.6101  0.3758  3.2262
  133SOPE   C2514334   1.352   4.991   3.076  0.3305  0.2379  0.4631
  133SOPE   H5R14335   1.396   5.087   3.042  1.8474 -0.2642  0.9266
  133SOPE   H5S14336   1.249   5.003   3.037 -1.2910 -0.7821  4.0035
  133SOPE   C2614337   1.335   4.963   3.223 -0.6287 -0.3543 -0.5610
  133SOPE   H6R14338   1.288   5.051   3.271  2.7175  2.1713 -1.4516
  133SOPE   H6S14339   1.283   4.866   3.235 -1.8176  0.3076 -0.2401
  133SOPE   C2714340   1.474   4.938   3.301  0.1288 -0.1684 -0.1775
  133SOPE   H7R14341   1.516   4.841   3.265  1.7944  0.1425  0.8021
  133SOPE   H7S14342   1.554   5.009   3.271  0.1146  0.0256  0.2402
  133SOPE   C2814343   1.462   4.934   3.455  0.0975  0.6387 -0.5159
  133SOPE   H8R14344   1.564   4.956   3.492 -0.2960 -0.1377  1.0903
  133SOPE   H8S14345   1.398   5.021   3.482  1.8068  2.1420 -1.1096
  133SOPE   C2914346   1.414   4.813   3.518 -0.5209 -0.1715  0.9555
  133SOPE   H9114347   1.423   4.719   3.462  2.2937  0.4024  0.2876
  133SOPE  C21014348   1.352   4.815   3.635 -0.7228  0.0524 -0.4916
  133SOPE  H10114349   1.316   4.721   3.679 -1.4293  0.9637  0.9235
  133SOPE  C21114350   1.344   4.936   3.722  0.1920  0.2186  0.4564
  133SOPE  H11R14351   1.284   5.017   3.676  0.3311 -0.1142 -0.3261
  133SOPE  H11S14352   1.444   4.975   3.750 -0.1394  0.6819  1.0267
  133SOPE  C21214353   1.261   4.906   3.855 -0.1136  0.4683  0.3048
  133SOPE  H12R14354   1.330   4.844   3.916  0.2003  1.3932  0.9050
  133SOPE  H12S14355   1.178   4.834   3.838  0.1096 -0.7048  3.5187
  133SOPE  C21314356   1.205   5.024   3.935  0.2661 -0.0067 -0.1554
  133SOPE  H13R14357   1.133   4.985   4.010  1.6229 -1.6626  0.3681
  133SOPE  H13S14358   1.151   5.095   3.869  0.9545  0.6447 -0.0338
  133SOPE  C21414359   1.321   5.108   4.001 -0.0949 -0.2717  0.7558
  133SOPE  H14R14360   1.385   5.150   3.922 -3.8251  0.5170 -2.1365
  133SOPE  H14S14361   1.382   5.042   4.067 -1.6674 -2.4006  0.2219
  133SOPE  C21514362   1.277   5.231   4.078  0.1358 -0.1748  0.0686
  133SOPE  H15R14363   1.175   5.264   4.048 -0.2822  0.0624  1.6145
  133SOPE  H15S14364   1.341   5.320   4.063 -1.4083  0.8551 -0.6592
  133SOPE  C21614365   1.265   5.204   4.228  0.8476  0.3627  0.0482
  133SOPE  H16R14366   1.239   5.297   4.283  1.5393 -1.5172  3.8712
  133SOPE  H16S14367   1.366   5.180   4.267  1.2721  0.4703 -0.9688
  133SOPE  C21714368   1.167   5.086   4.276 -0.7822 -0.0784  0.4236
  133SOPE  H17R14369   1.180   5.069   4.385  1.5059 -0.0459  0.1953
  133SOPE  H17S14370   1.204   4.991   4.232 -1.3136 -0.1329  0.0881
  133SOPE  C21814371   1.020   5.108   4.253 -0.0782 -0.2980  0.3633
  133SOPE  H18R14372   0.976   5.203   4.290  0.7287 -0.1818  1.0454
  133SOPE  H18S14373   0.970   5.017   4.293  0.7525 -0.6283  0.6637
  133SOPE  H18T14374   1.008   5.098   4.143 -0.5741  1.3696  0.2447
  133SOPE   C3314375   1.401   4.375   2.840 -0.1855 -0.0335 -0.6924
  133SOPE   H3X14376   1.437   4.473   2.801  0.5141 -0.1513 -0.3514
  133SOPE   H3Y14377   1.483   4.301   2.851 -1.0762 -0.7842  1.1540
  133SOPE   C3414378   1.356   4.406   2.985 -0.3628  0.3088 -0.2368
  133SOPE   H4X14379   1.300   4.319   3.026  1.0592 -0.1475  0.8487
  133SOPE   H4Y14380   1.291   4.497   2.981 -0.6197  0.1054 -0.7332
  133SOPE   C3514381   1.473   4.442   3.075 -0.1790 -0.7482 -0.2637
  133SOPE   H5X14382   1.531   4.520   3.021  0.0388 -0.6601  0.0964
  133SOPE   H5Y14383   1.540   4.353   3.074 -0.1730 -0.7412 -0.5778
  133SOPE   C3614384   1.432   4.489   3.215 -1.2512  0.5153  0.1239
  133SOPE   H6X14385   1.387   4.590   3.208 -1.0747  0.5585 -0.4079
  133SOPE   H6Y14386   1.522   4.503   3.279 -0.8547  0.5186 -0.4350
  133SOPE   C3714387   1.346   4.384   3.284  0.3765  1.0174  0.1747
  133SOPE   H7X14388   1.407   4.294   3.308 -1.9438 -0.4328  0.9550
  133SOPE   H7Y14389   1.261   4.344   3.225  0.9407  0.1418 -0.0551
  133SOPE   C3814390   1.301   4.432   3.418  0.0724  0.2243  0.3555
  133SOPE   H8X14391   1.214   4.367   3.440 -0.4257  1.2405  1.5005
  133SOPE   H8Y14392   1.267   4.538   3.419 -0.6568 -0.0052  1.1016
  133SOPE   C3914393   1.407   4.424   3.527 -0.2246  0.0422 -0.3107
  133SOPE   H9X14394   1.398   4.512   3.593 -0.2882  0.6297 -1.0799
  133SOPE   H9Y14395   1.502   4.437   3.472 -0.0225  0.5715  0.1595
  133SOPE  C31014396   1.401   4.299   3.608  0.1610  0.3116  0.0382
  133SOPE  H10X14397   1.413   4.216   3.535 -0.0178 -0.6604  1.0905
  133SOPE  H10Y14398   1.299   4.283   3.649 -0.1739  0.1081 -0.8482
  133SOPE  C31114399   1.502   4.296   3.720  0.0631  0.2712 -0.0134
  133SOPE  H11X14400   1.595   4.352   3.696  0.5197  0.0753  1.2037
  133SOPE  H11Y14401   1.529   4.193   3.751 -0.8044 -0.0190 -0.2025
  133SOPE  C31214402   1.439   4.357   3.852  0.1008 -0.3799 -0.0789
  133SOPE  H12X14403   1.342   4.306   3.871 -0.3470  0.4803 -0.0206
  133SOPE  H12Y14404   1.410   4.463   3.833  0.4565 -0.1425  0.6636
  133SOPE  C31314405   1.531   4.348   3.972  0.2408  0.3190 -0.0970
  133SOPE  H13X14406   1.637   4.375   3.955  1.4596  0.7840  6.0012
  133SOPE  H13Y14407   1.540   4.242   4.002  0.7262  0.4029  0.0571
  133SOPE  C31414408   1.483   4.435   4.093 -0.3106 -0.2654 -0.5896
  133SOPE  H14X14409   1.483   4.384   4.192 -0.9732  0.6483 -0.1052
  133SOPE  H14Y14410   1.382   4.481   4.088  0.0001  0.9936  2.4320
  133SOPE  C31514411   1.581   4.561   4.119 -0.0739  0.4040  0.6815
  133SOPE  H15X14412   1.597   4.605   4.018  0.7141 -1.8535 -0.2366
  133SOPE  H15Y14413   1.675   4.522   4.164  0.1804 -0.1530 -0.3086
  133SOPE  C31614414   1.525   4.665   4.216 -0.2078  0.0245  0.0705
  133SOPE  H16X14415   1.505   4.615   4.313  0.3900  0.0331  0.2016
  133SOPE  H16Y14416   1.429   4.701   4.171 -0.0418 -0.6814 -0.8745
  133SOPE  C31714417   1.630   4.778   4.239  0.0453 -0.0363  0.1071
  133SOPE  H17X14418   1.664   4.830   4.147  0.0306 -2.1372 -1.1476
  133SOPE  H17Y14419   1.718   4.722   4.277 -0.1350 -1.0817 -0.9536
  133SOPE  C31814420   1.576   4.883   4.336  0.3058 -0.0245 -1.2276
  133SOPE  H18X14421   1.653   4.955   4.372 -0.0199 -0.4192  0.3605
  133SOPE  H18Y14422   1.530   4.817   4.413 -0.4702  0.0414 -1.6293
  133SOPE  H18Z14423   1.500   4.945   4.284 -0.9191 -2.0418 -1.9447
  134SOPE     N14424   6.599   5.617   1.989  0.3852 -0.4448  0.2935
  134SOPE   HN114425   6.530   5.659   1.924  0.4205  0.0846  0.5888
  134SOPE   HN214426   6.618   5.698   2.051  1.1349  1.0538 -1.7870
  134SOPE   HN314427   6.685   5.606   1.932 -0.0902  0.0716 -0.5529
  134SOPE   C1214428   6.558   5.507   2.079  0.1868  0.6927 -0.2210
  134SOPE  H12A14429   6.524   5.421   2.017 -0.5884 -0.1737  1.3563
  134SOPE  H12B14430   6.475   5.546   2.142 -0.5660 -3.4731  1.6958
  134SOPE   C1114431   6.671   5.469   2.179  0.3121  1.0792  0.4944
  134SOPE  H11A14432   6.631   5.383   2.238  0.6210 -0.8067 -1.8821
  134SOPE  H11B14433   6.680   5.551   2.253  0.1221  0.1032  1.6330
  134SOPE     P14434   6.932   5.494   2.152 -0.7075 -0.3589  0.2635
  134SOPE   O1314435   6.899   5.635   2.139  0.5443 -0.0827 -0.9741
  134SOPE   O1414436   7.039   5.439   2.063  0.8604 -0.3768  0.0304
  134SOPE   O1214437   6.793   5.420   2.125 -0.3530  0.3532  0.0152
  134SOPE   O1114438   6.978   5.452   2.300  0.2269 -0.0923 -0.2106
  134SOPE    C114439   7.002   5.314   2.321 -0.0412  0.4811 -0.1680
  134SOPE    HA14440   7.080   5.316   2.399 -0.5387 -0.1195  0.3503
  134SOPE    HB14441   7.058   5.262   2.240  2.3079 -1.3545  2.4490
  134SOPE    C214442   6.886   5.246   2.392 -0.3614 -0.3773 -0.4528
  134SOPE    HS14443   6.803   5.251   2.318 -1.5402  2.3687  0.9275
  134SOPE   O2114444   6.837   5.333   2.504  0.2599  0.3949  0.2141
  134SOPE   C2114445   6.724   5.305   2.546  0.0605 -0.6272 -0.6072
  134SOPE   O2214446   6.650   5.215   2.511 -0.3239 -0.2956 -0.2207
  134SOPE   C2214447   6.699   5.378   2.682 -0.0011  0.3832  0.6213
  134SOPE   H2R14448   6.756   5.473   2.681 -0.1130  0.4449 -0.5260
  134SOPE   H2S14449   6.724   5.302   2.759  0.0630 -0.0513  0.1751
  134SOPE    C314450   6.919   5.098   2.449  0.6702  0.0924 -0.0121
  134SOPE    HX14451   6.990   5.056   2.374  1.0455  1.1193 -0.2595
  134SOPE    HY14452   6.822   5.045   2.448  0.9409 -0.5055  1.8617
  134SOPE   O3114453   6.976   5.091   2.579  0.2720 -0.1331 -0.1475
  134SOPE   C3114454   6.985   4.970   2.624  0.5199 -0.4685 -0.0894
  134SOPE   O3214455   6.935   4.870   2.572  0.2524  0.3355  0.0527
  134SOPE   C3214456   7.073   4.979   2.749 -0.2060 -0.1115  0.6688
  134SOPE   H2X14457   7.023   5.067   2.795 -1.5566  0.0032 -0.9015
  134SOPE   H2Y14458   7.174   4.998   2.707 -1.2571  1.2428 -1.4112
  134SOPE   C2314459   6.551   5.410   2.705 -0.0368  0.0875 -0.1968
  134SOPE   H3R14460   6.486   5.322   2.683  2.0929 -1.4511 -0.6201
  134SOPE   H3S14461   6.522   5.496   2.641 -1.6617  0.3283  0.8000
  134SOPE   C2414462   6.528   5.439   2.862 -0.4261 -0.1486 -0.1509
  134SOPE   H4R14463   6.599   5.380   2.924  1.6777  1.7429 -0.6342
  134SOPE   H4S14464   6.554   5.546   2.879 -1.5113  0.0458  0.3630
  134SOPE   C2514465   6.385   5.419   2.906 -1.3790 -0.2210  0.8935
  134SOPE   H5R14466   6.319   5.465   2.829 -1.5546 -1.0449  0.5466
  134SOPE   H5S14467   6.371   5.309   2.913  1.5662 -0.7855 -0.7354
  134SOPE   C2614468   6.360   5.488   3.038  0.8190  0.1007 -0.2851
  134SOPE   H6R14469   6.252   5.465   3.056  1.1705 -2.2131 -0.7919
  134SOPE   H6S14470   6.413   5.433   3.119 -1.0133 -0.6883  0.4462
  134SOPE   C2714471   6.391   5.639   3.039  0.1334 -0.5865 -0.3913
  134SOPE   H7R14472   6.501   5.648   3.051  0.4941 -1.6384 -2.4272
  134SOPE   H7S14473   6.351   5.686   2.947  1.7303  2.4435  0.3482
  134SOPE   C2814474   6.331   5.706   3.162  0.5119 -0.1217 -0.6976
  134SOPE   H8R14475   6.223   5.715   3.137  0.3243 -0.5529 -0.0706
  134SOPE   H8S14476   6.335   5.645   3.255 -0.6751  0.7301 -0.0531
  134SOPE   C2914477   6.391   5.841   3.180 -0.4949 -0.0564 -0.2473
  134SOPE   H9114478   6.394   5.900   3.087 -1.6451  3.5997  1.8120
  134SOPE  C21014479   6.479   5.867   3.278 -0.5260  0.4933 -0.2024
  134SOPE  H10114480   6.517   5.970   3.270  1.6890 -0.3299 -1.4738
  134SOPE  C21114481   6.521   5.789   3.397 -0.8148  0.6577 -0.3445
  134SOPE  H11R14482   6.613   5.823   3.448 -0.5481 -0.7824  0.1612
  134SOPE  H11S14483   6.556   5.691   3.360  1.6141  0.9899  0.9204
  134SOPE  C21214484   6.419   5.782   3.511  0.1687 -0.0002  0.4656
  134SOPE  H12R14485   6.341   5.712   3.472  0.1550  0.1271  0.2628
  134SOPE  H12S14486   6.367   5.879   3.527  2.0616  0.8333  1.8992
  134SOPE  C21314487   6.485   5.747   3.644  0.3703 -0.5120  0.7608
  134SOPE  H13R14488   6.555   5.832   3.661 -0.9117  0.3517  1.9322
  134SOPE  H13S14489   6.551   5.660   3.624  1.4783  0.2688  0.9752
  134SOPE  C21414490   6.402   5.742   3.767 -0.2108  0.3406 -0.2463
  134SOPE  H14R14491   6.462   5.717   3.857  3.7132  1.8290 -2.2058
  134SOPE  H14S14492   6.328   5.660   3.758  0.5050 -0.5495  1.4744
  134SOPE  C21514493   6.340   5.883   3.792 -0.7295 -0.1209  0.2614
  134SOPE  H15R14494   6.278   5.924   3.709 -0.3528 -0.3010 -0.1133
  134SOPE  H15S14495   6.421   5.960   3.790  1.6251 -2.2887  2.9770
  134SOPE  C21614496   6.251   5.877   3.921  0.0594  0.5835 -0.3416
  134SOPE  H16R14497   6.307   5.871   4.016 -2.1133  1.7259  1.0755
  134SOPE  H16S14498   6.200   5.779   3.908  2.2122 -0.7439  0.6274
  134SOPE  C21714499   6.151   5.991   3.920 -0.1616  0.0714 -0.3548
  134SOPE  H17R14500   6.057   5.975   3.977  1.4384  1.1171  2.8273
  134SOPE  H17S14501   6.109   6.003   3.818  0.2171  1.0929 -0.3974
  134SOPE  C21814502   6.225   6.117   3.963  0.3716 -0.1754 -0.0552
  134SOPE  H18R14503   6.155   6.203   3.949  0.1222 -0.4288 -0.3839
  134SOPE  H18S14504   6.315   6.129   3.900  0.3476 -0.0912 -0.0737
  134SOPE  H18T14505   6.264   6.130   4.066 -0.1138 -0.2985  0.1476
  134SOPE   C3314506   7.085   4.857   2.834  0.9331  1.1087  0.6828
  134SOPE   H3X14507   7.133   4.771   2.782  0.0354 -0.7195  2.7276
  134SOPE   H3Y14508   6.987   4.822   2.873  1.5017 -1.7991 -0.2083
  134SOPE   C3414509   7.175   4.883   2.956  0.7859 -0.3608 -0.4343
  134SOPE   H4X14510   7.145   4.971   3.016  0.2635  0.2694 -1.5690
  134SOPE   H4Y14511   7.269   4.926   2.917 -0.2888  2.3482 -0.2568
  134SOPE   C3514512   7.206   4.759   3.038  0.0122 -0.0303 -0.6957
  134SOPE   H5X14513   7.303   4.719   3.000  1.4142  0.3661  2.2079
  134SOPE   H5Y14514   7.128   4.682   3.021  1.1550 -1.9477  2.0088
  134SOPE   C3614515   7.229   4.788   3.190 -0.3631  0.0867 -0.2469
  134SOPE   H6X14516   7.146   4.845   3.236  1.4779  1.6343  1.3457
  134SOPE   H6Y14517   7.313   4.860   3.197 -0.9200  0.7989 -0.8033
  134SOPE   C3714518   7.266   4.661   3.266 -0.6542 -0.1522 -0.1639
  134SOPE   H7X14519   7.377   4.653   3.269 -0.4976  1.8363  0.6212
  134SOPE   H7Y14520   7.235   4.558   3.237  1.1802 -0.9378  0.4732
  134SOPE   C3814521   7.212   4.676   3.405  0.3550 -0.6791  0.2479
  134SOPE   H8X14522   7.102   4.689   3.396  0.3276 -1.8221 -1.4841
  134SOPE   H8Y14523   7.245   4.766   3.463 -0.7936  0.0630 -0.2046
  134SOPE   C3914524   7.246   4.547   3.490  0.1753  0.3485 -0.8717
  134SOPE   H9X14525   7.352   4.517   3.483 -0.1113 -0.8609 -0.3385
  134SOPE   H9Y14526   7.196   4.460   3.442 -0.8075 -0.2957  1.1972
  134SOPE  C31014527   7.207   4.550   3.639 -0.1590 -0.2067  0.1859
  134SOPE  H10X14528   7.097   4.557   3.654 -0.1846 -1.7739  0.9519
  134SOPE  H10Y14529   7.261   4.624   3.701 -0.0486  0.1809 -0.3646
  134SOPE  C31114530   7.246   4.405   3.702 -0.0381 -0.2575 -0.4698
  134SOPE  H11X14531   7.354   4.387   3.682  0.5200  1.1326  1.0246
  134SOPE  H11Y14532   7.199   4.325   3.642 -0.4636  0.1489 -0.6823
  134SOPE  C31214533   7.220   4.393   3.858 -0.1595  0.0176 -0.3358
  134SOPE  H12X14534   7.226   4.284   3.875  2.2347  0.3817  1.7404
  134SOPE  H12Y14535   7.118   4.430   3.882  0.1740  0.2602  0.8064
  134SOPE  C31314536   7.321   4.479   3.945  0.0916 -0.3983  0.0790
  134SOPE  H13X14537   7.313   4.589   3.931  2.9029  0.1850  2.2534
  134SOPE  H13Y14538   7.425   4.444   3.928 -0.2024 -1.0509 -0.4086
  134SOPE  C31414539   7.296   4.468   4.098 -0.8831  0.6234  0.6663
  134SOPE  H14X14540   7.186   4.477   4.107 -1.0060  1.8798 -1.3460
  134SOPE  H14Y14541   7.338   4.560   4.145 -0.0145  0.6111 -0.0592
  134SOPE  C31514542   7.354   4.337   4.170 -0.0963  0.1222  0.2495
  134SOPE  H15X14543   7.462   4.330   4.146 -0.1537  0.2617 -0.0538
  134SOPE  H15Y14544   7.295   4.253   4.127 -1.3427  1.3153 -0.4608
  134SOPE  C31614545   7.334   4.342   4.323 -0.4048  0.5571 -0.5685
  134SOPE  H16X14546   7.226   4.338   4.348 -0.4314  2.6863 -0.1294
  134SOPE  H16Y14547   7.370   4.440   4.363 -1.1880  0.5611  0.1529
  134SOPE  C31714548   7.409   4.229   4.402  0.8066 -0.0814 -0.2132
  134SOPE  H17X14549   7.404   4.247   4.512  3.7433 -1.6789  0.2813
  134SOPE  H17Y14550   7.517   4.229   4.376  0.7407  1.7310 -0.6540
  134SOPE  C31814551   7.353   4.086   4.389  0.6072 -0.0937  0.5296
  134SOPE  H18X14552   7.424   4.014   4.433  0.4767 -0.3567  0.3163
  134SOPE  H18Y14553   7.330   4.056   4.284 -1.2844  1.2307  0.5021
  134SOPE  H18Z14554   7.255   4.090   4.441  0.0394  2.9164 -0.5304
  135SOPE     N14555   5.767   5.033   2.077  0.6333 -0.4447 -0.3194
  135SOPE   HN114556   5.670   5.069   2.074  0.0236 -2.0184 -2.2829
  135SOPE   HN214557   5.767   4.936   2.115  0.2517  0.7084  2.9155
  135SOPE   HN314558   5.827   5.088   2.142 -1.1049  1.0780  0.0399
  135SOPE   C1214559   5.842   5.031   1.947 -0.1133  0.0285  0.6055
  135SOPE  H12A14560   5.783   4.962   1.883 -0.7502 -1.2263  2.4547
  135SOPE  H12B14561   5.939   4.979   1.962  0.6284  1.5302  1.2590
  135SOPE   C1114562   5.859   5.174   1.895  0.1860  0.3394 -0.0138
  135SOPE  H11A14563   5.762   5.215   1.861  0.0514  0.7254  0.7976
  135SOPE  H11B14564   5.933   5.182   1.813  0.3804  0.5187  0.1761
  135SOPE     P14565   5.898   5.417   1.980  0.1152  0.4574 -0.2466
  135SOPE   O1314566   5.757   5.453   1.950  0.3764  0.3235  0.0364
  135SOPE   O1414567   6.006   5.470   1.890 -0.0511  1.1650 -0.7228
  135SOPE   O1214568   5.901   5.253   1.999 -0.0985 -0.4281  0.1033
  135SOPE   O1114569   5.923   5.470   2.129 -0.0825 -0.2584 -0.2547
  135SOPE    C114570   5.837   5.426   2.238 -0.6222  0.2601 -0.1320
  135SOPE    HA14571   5.890   5.407   2.334  0.1013  0.3175 -0.5143
  135SOPE    HB14572   5.798   5.325   2.214 -0.6669 -0.2807  1.9890
  135SOPE    C214573   5.742   5.537   2.273  0.1327  0.2948  0.0079
  135SOPE    HS14574   5.692   5.563   2.178 -0.7923  0.3307  0.4975
  135SOPE   O2114575   5.819   5.658   2.319  0.2554 -0.0028  0.2774
  135SOPE   C2114576   5.748   5.773   2.343  0.3383  0.3086  0.6902
  135SOPE   O2214577   5.626   5.777   2.347 -0.0389 -0.5238 -0.0889
  135SOPE   C2214578   5.844   5.887   2.353  0.5262  0.4093  0.0378
  135SOPE   H2R14579   5.900   5.902   2.259  4.2301  0.2267  2.0144
  135SOPE   H2S14580   5.922   5.863   2.428  1.5318 -1.3111 -1.4813
  135SOPE    C314581   5.627   5.482   2.373 -0.5791 -0.4672 -0.4267
  135SOPE    HX14582   5.555   5.418   2.317  0.7562 -1.6205 -0.8925
  135SOPE    HY14583   5.570   5.568   2.415 -1.0011 -0.9668  0.0401
  135SOPE   O3114584   5.679   5.398   2.476 -0.2510  1.0998 -0.6606
  135SOPE   C3114585   5.739   5.464   2.581  0.7241  0.0569  0.1593
  135SOPE   O3214586   5.736   5.580   2.598 -0.0665 -0.4652  0.1194
  135SOPE   C3214587   5.802   5.361   2.674  0.7680  0.6773  0.1999
  135SOPE   H2X14588   5.907   5.333   2.651 -0.3033 -5.9698  1.3387
  135SOPE   H2Y14589   5.739   5.270   2.674  1.9784 -0.1803 -0.4308
  135SOPE   C2314590   5.780   6.025   2.393  0.5419 -0.3274  0.1136
  135SOPE   H3R14591   5.675   6.045   2.363 -0.0443 -1.8439  1.0431
  135SOPE   H3S14592   5.820   6.107   2.329 -1.8283 -1.8149 -3.5719
  135SOPE   C2414593   5.817   6.056   2.546 -0.3098 -0.8705  0.4401
  135SOPE   H4R14594   5.775   5.986   2.621  0.2151 -1.2870  0.3581
  135SOPE   H4S14595   5.925   6.034   2.562 -0.8196 -1.8705  2.9117
  135SOPE   C2514596   5.795   6.211   2.581 -0.3219 -0.0554 -0.0234
  135SOPE   H5R14597   5.850   6.275   2.509  2.9826 -1.4368  1.0948
  135SOPE   H5S14598   5.689   6.245   2.580  0.4979  2.7626 -1.6193
  135SOPE   C2614599   5.848   6.249   2.720  0.2149  0.0268 -0.0083
  135SOPE   H6R14600   5.796   6.183   2.793  0.7610 -0.3567  0.0409
  135SOPE   H6S14601   5.955   6.226   2.736 -0.2390 -0.3782  3.1845
  135SOPE   C2714602   5.822   6.390   2.768 -0.1550 -0.8255 -0.3392
  135SOPE   H7R14603   5.855   6.459   2.687 -1.3699  0.3548  0.1431
  135SOPE   H7S14604   5.713   6.412   2.777  0.0297 -0.3299  0.8766
  135SOPE   C2814605   5.883   6.417   2.907  0.0720  0.2927  0.5576
  135SOPE   H8R14606   5.866   6.334   2.980  1.3197  0.9638  1.6630
  135SOPE   H8S14607   5.991   6.421   2.880  0.6019  2.8963  2.6162
  135SOPE   C2914608   5.847   6.552   2.965 -0.6112 -0.4553  0.2473
  135SOPE   H9114609   5.822   6.628   2.889  0.7086  1.5000  1.6624
  135SOPE  C21014610   5.818   6.574   3.098  0.4270  0.4963  0.1050
  135SOPE  H10114611   5.772   6.669   3.131 -1.9970 -1.1206  1.6802
  135SOPE  C21114612   5.843   6.467   3.203  1.1723  0.9334 -0.0868
  135SOPE  H11R14613   5.936   6.407   3.186  1.0416  0.4982  0.7149
  135SOPE  H11S14614   5.759   6.396   3.206  0.7248  1.4544  3.1937
  135SOPE  C21214615   5.866   6.530   3.340 -0.0275 -0.5529  0.0470
  135SOPE  H12R14616   5.768   6.552   3.388 -0.1252 -0.6194 -0.1232
  135SOPE  H12S14617   5.939   6.613   3.327  0.1577 -0.7456 -0.1473
  135SOPE  C21314618   5.946   6.438   3.434 -0.5085  1.0190  0.0265
  135SOPE  H13R14619   6.041   6.403   3.389 -1.4497  0.4788 -1.6041
  135SOPE  H13S14620   5.885   6.345   3.442 -1.6044  1.7007 -0.2333
  135SOPE  C21414621   5.974   6.511   3.571  0.0702  0.1373  0.0667
  135SOPE  H14R14622   6.062   6.578   3.563  1.1562 -1.4325 -2.2007
  135SOPE  H14S14623   6.003   6.429   3.640 -1.1639  0.1489  0.6394
  135SOPE  C21514624   5.848   6.572   3.636 -0.1500  0.1422 -0.5008
  135SOPE  H15R14625   5.763   6.501   3.629  0.8377 -1.1356  0.1841
  135SOPE  H15S14626   5.812   6.667   3.589  0.8180  0.9561  0.3542
  135SOPE  C21614627   5.864   6.591   3.789 -0.6843 -0.8065 -0.1883
  135SOPE  H16R14628   5.971   6.622   3.791  0.0710 -3.2181  0.4846
  135SOPE  H16S14629   5.855   6.500   3.851  1.4500 -0.0506  1.3495
  135SOPE  C21714630   5.776   6.710   3.834  0.0505 -0.2930 -0.3135
  135SOPE  H17R14631   5.668   6.683   3.826 -0.5451  1.7989 -0.1434
  135SOPE  H17S14632   5.798   6.798   3.769 -0.7057 -1.0981 -1.7249
  135SOPE  C21814633   5.804   6.738   3.985 -0.0869  0.3653 -0.2667
  135SOPE  H18R14634   5.899   6.796   3.993  0.2095 -0.4081  2.9468
  135SOPE  H18S14635   5.819   6.647   4.047  0.0990  1.8922  2.0661
  135SOPE  H18T14636   5.714   6.790   4.024 -0.0071  1.3899 -1.3823
  135SOPE   C3314637   5.811   5.408   2.822 -0.0996  0.2706  0.3312
  135SOPE   H3X14638   5.849   5.316   2.872  1.0295 -0.0685 -1.0649
  135SOPE   H3Y14639   5.711   5.427   2.867 -0.5368 -2.4040  0.6559
  135SOPE   C3414640   5.910   5.518   2.854  0.4437 -0.2451 -0.1435
  135SOPE   H4X14641   5.900   5.603   2.784  0.7928 -1.2793 -1.5190
  135SOPE   H4Y14642   6.013   5.479   2.835  1.1619  1.2502  0.5616
  135SOPE   C3514643   5.919   5.570   2.999  0.8040 -0.3937 -0.0019
  135SOPE   H5X14644   6.016   5.622   3.008  0.0104  1.0318  0.6157
  135SOPE   H5Y14645   5.933   5.477   3.058 -0.7538 -0.2493  0.6434
  135SOPE   C3614646   5.802   5.663   3.038 -0.8818  0.2067  0.0216
  135SOPE   H6X14647   5.768   5.735   2.960  0.0873 -0.4975 -1.0755
  135SOPE   H6Y14648   5.833   5.729   3.121 -1.1875 -0.2523  0.5064
  135SOPE   C3714649   5.676   5.580   3.076 -0.6105  0.7260 -0.0509
  135SOPE   H7X14650   5.712   5.490   3.130 -0.0282  0.2486 -1.1979
  135SOPE   H7Y14651   5.609   5.553   2.991 -1.0733  0.9366  0.2398
  135SOPE   C3814652   5.606   5.659   3.180  0.2069 -0.3356  0.0561
  135SOPE   H8X14653   5.569   5.755   3.140 -0.0474  0.0335  1.1526
  135SOPE   H8Y14654   5.676   5.680   3.263  0.3610  1.1014 -0.4116
  135SOPE   C3914655   5.484   5.580   3.248 -0.7764 -0.2350  0.7448
  135SOPE   H9X14656   5.529   5.494   3.301  0.1310  0.2096  0.7072
  135SOPE   H9Y14657   5.409   5.540   3.177 -1.4474 -0.1214  1.3733
  135SOPE  C31014658   5.411   5.670   3.344  0.2081  0.3545 -0.5535
  135SOPE  H10X14659   5.336   5.614   3.404 -0.5213  0.8743 -0.9640
  135SOPE  H10Y14660   5.344   5.739   3.289  0.6873 -0.3521 -2.0993
  135SOPE  C31114661   5.505   5.747   3.437 -0.3472  0.0846 -0.0742
  135SOPE  H11X14662   5.575   5.816   3.386  1.2100 -1.3679  0.0247
  135SOPE  H11Y14663   5.571   5.674   3.489  0.6461  1.7043  1.0218
  135SOPE  C31214664   5.428   5.827   3.536 -0.0787  0.4066  0.7048
  135SOPE  H12X14665   5.369   5.758   3.600  0.9970 -0.1127  1.1752
  135SOPE  H12Y14666   5.353   5.887   3.480 -2.0148 -3.0815 -0.7440
  135SOPE  C31314667   5.491   5.920   3.635 -0.4872  0.1159 -0.0788
  135SOPE  H13X14668   5.417   5.967   3.702 -0.2709 -1.9502  1.7123
  135SOPE  H13Y14669   5.556   5.996   3.587  0.6098  0.0581  1.2666
  135SOPE  C31414670   5.595   5.848   3.727 -0.6158 -0.1712  0.5238
  135SOPE  H14X14671   5.678   5.801   3.670 -1.7020 -1.8467  0.2643
  135SOPE  H14Y14672   5.536   5.769   3.779 -1.1781 -0.2250 -0.1802
  135SOPE  C31514673   5.662   5.938   3.828 -0.2761 -0.4367  0.2802
  135SOPE  H15X14674   5.731   5.878   3.891  2.1169 -0.5441 -2.2732
  135SOPE  H15Y14675   5.591   5.978   3.904 -1.6112 -0.6213 -0.8334
  135SOPE  C31614676   5.753   6.042   3.765 -0.3272  0.5910 -0.8728
  135SOPE  H16X14677   5.712   6.100   3.680 -1.2211  0.9224 -0.2314
  135SOPE  H16Y14678   5.847   5.993   3.731 -0.9820 -1.7225  0.4401
  135SOPE  C31714679   5.775   6.141   3.884 -0.3267  0.1523 -0.0762
  135SOPE  H17X14680   5.814   6.079   3.968  2.5433 -0.3506 -1.6429
  135SOPE  H17Y14681   5.687   6.200   3.916  0.4932  1.1161  0.4535
  135SOPE  C31814682   5.881   6.245   3.857  0.0154 -0.2926 -0.2352
  135SOPE  H18X14683   5.858   6.309   3.769 -0.9294 -0.3787 -0.0702
  135SOPE  H18Y14684   5.976   6.201   3.821 -1.0805  0.4534 -4.7135
  135SOPE  H18Z14685   5.894   6.314   3.943 -0.4906  1.2738 -1.3695
  136SOPE     N14686   5.359   5.776   2.316 -0.0792 -0.3363  0.0164
  136SOPE   HN114687   5.353   5.830   2.227  1.5286  0.6782  0.4794
  136SOPE   HN214688   5.451   5.806   2.353 -1.1207  0.5606  2.0393
  136SOPE   HN314689   5.365   5.673   2.302  0.7141 -0.4232  0.9060
  136SOPE   C1214690   5.254   5.822   2.407 -0.7488 -0.1144 -0.6630
  136SOPE  H12A14691   5.259   5.931   2.429 -2.0199 -0.2013  0.1337
  136SOPE  H12B14692   5.250   5.764   2.502 -0.6157 -0.7444 -1.0347
  136SOPE   C1114693   5.127   5.809   2.329  0.0551  0.1704 -0.3221
  136SOPE  H11A14694   5.035   5.840   2.382  1.4092  0.2727  2.0898
  136SOPE  H11B14695   5.115   5.704   2.296  2.7429  0.4969 -2.7823
  136SOPE     P14696   5.117   6.047   2.201 -0.1987 -0.0202  0.0163
  136SOPE   O1314697   5.079   6.079   2.065  0.5371 -0.3548 -0.0364
  136SOPE   O1414698   5.237   6.116   2.249  0.3035 -0.0545 -0.4920
  136SOPE   O1214699   5.144   5.891   2.213 -0.0930  0.1569 -0.4544
  136SOPE   O1114700   4.990   6.081   2.287  0.0635  0.1849  0.7469
  136SOPE    C114701   4.934   6.217   2.283  0.4225  0.0964  0.1422
  136SOPE    HA14702   4.907   6.256   2.183 -0.8394 -0.3396  0.2979
  136SOPE    HB14703   4.995   6.286   2.346  1.1419 -0.0464 -0.3942
  136SOPE    C214704   4.795   6.212   2.345 -0.0707 -0.0218 -0.6582
  136SOPE    HS14705   4.736   6.154   2.270  0.1109  0.2753 -1.0315
  136SOPE   O2114706   4.751   6.350   2.365 -0.8897 -0.1896  0.0246
  136SOPE   C2114707   4.625   6.367   2.404  0.4329 -1.0488  0.6673
  136SOPE   O2214708   4.545   6.279   2.392  0.4632 -0.1214 -0.0151
  136SOPE   C2214709   4.600   6.505   2.474 -1.1857 -0.2125  0.1078
  136SOPE   H2R14710   4.555   6.573   2.399 -1.9575 -0.3275  0.4558
  136SOPE   H2S14711   4.696   6.549   2.508 -1.4320 -0.7109  1.5004
  136SOPE    C314712   4.793   6.135   2.474  0.1808  0.0697 -0.6396
  136SOPE    HX14713   4.805   6.030   2.439  1.6922  0.6030 -1.8278
  136SOPE    HY14714   4.691   6.151   2.515  0.9694  2.1532  0.6501
  136SOPE   O3114715   4.893   6.174   2.570  0.3410  0.1585 -0.1807
  136SOPE   C3114716   4.989   6.086   2.599  0.9535 -0.4436 -0.4594
  136SOPE   O3214717   4.996   5.973   2.555 -0.3984  0.0184  0.2158
  136SOPE   C3214718   5.053   6.134   2.727 -0.0074  0.6642 -0.2329
  136SOPE   H2X14719   5.112   6.221   2.691  0.7082  0.2972  0.0385
  136SOPE   H2Y14720   5.130   6.062   2.763 -2.1450  0.0327  3.6650
  136SOPE   C2314721   4.527   6.484   2.608  0.0765  0.4146 -0.4789
  136SOPE   H3R14722   4.423   6.447   2.595 -0.1133  0.5841  0.4693
  136SOPE   H3S14723   4.510   6.586   2.650 -0.4513  0.6275 -1.2017
  136SOPE   C2414724   4.600   6.387   2.705 -0.6529  0.6541  0.2482
  136SOPE   H4R14725   4.603   6.283   2.665  2.5076  1.3962 -1.8113
  136SOPE   H4S14726   4.702   6.428   2.716 -0.2145 -0.1229 -0.8075
  136SOPE   C2514727   4.521   6.389   2.835 -0.4615  1.0661 -0.3371
  136SOPE   H5R14728   4.496   6.496   2.856 -1.8631  0.6252  0.3701
  136SOPE   H5S14729   4.430   6.325   2.833  1.5129 -2.2904  3.4969
  136SOPE   C2614730   4.602   6.357   2.959  0.4588  0.3436  0.1714
  136SOPE   H6R14731   4.606   6.246   2.961  1.2138  0.3701  1.6486
  136SOPE   H6S14732   4.705   6.398   2.952  0.4428  0.6686  1.5714
  136SOPE   C2714733   4.546   6.423   3.086 -0.2293  0.1988  0.6853
  136SOPE   H7R14734   4.519   6.525   3.051 -0.4832 -0.1449 -0.1410
  136SOPE   H7S14735   4.443   6.390   3.113 -0.1677 -0.8887 -0.3275
  136SOPE   C2814736   4.644   6.444   3.204 -0.6653  0.2076 -0.5828
  136SOPE   H8R14737   4.734   6.498   3.169  0.2141 -0.9890 -0.2675
  136SOPE   H8S14738   4.588   6.517   3.267 -1.8208 -0.7412 -0.4660
  136SOPE   C2914739   4.699   6.321   3.276  0.3623 -0.0230  0.4695
  136SOPE   H9114740   4.671   6.223   3.236  1.9025 -0.6653  0.9131
  136SOPE  C21014741   4.774   6.331   3.393  0.7401 -0.0391 -0.2855
  136SOPE  H10114742   4.812   6.239   3.441  0.4773 -0.5389 -1.0150
  136SOPE  C21114743   4.802   6.456   3.470  0.1672 -0.0395  0.6933
  136SOPE  H11R14744   4.723   6.464   3.548 -0.0119 -0.3918  0.5487
  136SOPE  H11S14745   4.786   6.542   3.402 -3.5643  0.3731  1.9035
  136SOPE  C21214746   4.942   6.466   3.532 -0.2941 -0.0745  0.1784
  136SOPE  H12R14747   5.022   6.443   3.458  1.1630 -0.8135  1.9188
  136SOPE  H12S14748   4.948   6.387   3.610 -2.4477  0.4574  0.9442
  136SOPE  C21314749   4.971   6.604   3.606  0.4419 -0.2365  0.5655
  136SOPE  H13R14750   4.952   6.688   3.536 -0.3427  0.7879  1.9506
  136SOPE  H13S14751   5.078   6.607   3.636  0.1292 -0.8471  1.8096
  136SOPE  C21414752   4.873   6.616   3.733 -0.0114 -0.2934  0.2500
  136SOPE  H14R14753   4.883   6.516   3.780 -1.6958  0.1541  1.6354
  136SOPE  H14S14754   4.777   6.651   3.689  0.9311  3.2605  0.7242
  136SOPE  C21514755   4.910   6.710   3.853  0.0794  0.0565  0.4525
  136SOPE  H15R14756   4.874   6.812   3.830  0.1996 -0.2153 -1.0490
  136SOPE  H15S14757   5.021   6.701   3.853  0.0232 -2.1039 -1.9076
  136SOPE  C21614758   4.846   6.682   3.978  0.0844  0.5113 -0.3478
  136SOPE  H16R14759   4.878   6.583   4.018  2.8617  1.7735  0.7919
  136SOPE  H16S14760   4.735   6.682   3.975  0.0995 -0.9228 -1.8295
  136SOPE  C21714761   4.874   6.793   4.074 -0.3005  0.2634 -0.0097
  136SOPE  H17R14762   4.868   6.887   4.014 -0.3234  0.4042  0.2113
  136SOPE  H17S14763   4.976   6.785   4.117  1.2139  1.0193 -3.1824
  136SOPE  C21814764   4.775   6.796   4.193  0.7284  0.1451  0.4272
  136SOPE  H18R14765   4.669   6.795   4.159  0.1572  0.9552  2.0397
  136SOPE  H18S14766   4.786   6.879   4.266 -0.9530 -0.5038  1.4779
  136SOPE  H18T14767   4.789   6.704   4.253  1.6270 -1.1669 -1.6960
  136SOPE   C3314768   4.961   6.160   2.854  0.2483  0.0217 -0.2074
  136SOPE   H3X14769   4.903   6.254   2.839 -1.0559 -1.0728 -2.7319
  136SOPE   H3Y14770   5.030   6.172   2.939 -1.7787 -2.4541  1.9467
  136SOPE   C3414771   4.884   6.034   2.882 -0.0802  0.4160 -0.4352
  136SOPE   H4X14772   4.958   5.953   2.863  0.0468 -0.0857  1.8369
  136SOPE   H4Y14773   4.791   6.014   2.825  0.5527 -2.4154 -0.6355
  136SOPE   C3514774   4.845   6.034   3.029  0.0285  0.1894  0.4189
  136SOPE   H5X14775   4.751   5.977   3.044 -0.3865  0.6411 -0.4097
  136SOPE   H5Y14776   4.824   6.140   3.054  2.5066  1.0766 -0.9216
  136SOPE   C3614777   4.949   5.973   3.116 -0.4117  0.7157 -0.5046
  136SOPE   H6X14778   5.049   6.021   3.118 -0.3946  0.6757  1.4828
  136SOPE   H6Y14779   4.975   5.869   3.087 -1.1575  0.6780 -1.0622
  136SOPE   C3714780   4.913   5.962   3.271 -0.0300  0.3133 -0.0099
  136SOPE   H7X14781   4.807   5.927   3.273  0.1867 -0.8625 -3.1207
  136SOPE   H7Y14782   4.926   6.064   3.314 -1.2038  1.3918 -2.0783
  136SOPE   C3814783   5.002   5.868   3.355 -0.3051  0.3739 -0.1577
  136SOPE   H8X14784   5.106   5.906   3.359 -0.7637  1.8598 -1.4812
  136SOPE   H8Y14785   4.994   5.765   3.313 -0.5456  0.8754 -1.3603
  136SOPE   C3914786   4.948   5.865   3.501  0.2559 -0.6667  0.0527
  136SOPE   H9X14787   4.851   5.813   3.489  0.9037 -1.8698 -0.2707
  136SOPE   H9Y14788   4.936   5.968   3.539 -1.6271 -0.6983 -0.3727
  136SOPE  C31014789   5.036   5.781   3.597  0.1575 -0.8021  0.2864
  136SOPE  H10X14790   5.138   5.825   3.603 -0.1802  0.0430 -0.0046
  136SOPE  H10Y14791   5.044   5.677   3.557 -0.7092 -0.2778 -1.3264
  136SOPE  C31114792   4.976   5.766   3.735  0.8858  0.2660 -0.2529
  136SOPE  H11X14793   4.875   5.721   3.722  1.0421 -0.9797  2.1668
  136SOPE  H11Y14794   4.966   5.853   3.803  1.9076 -0.0290  0.2947
  136SOPE  C31214795   5.070   5.684   3.825  0.6214  0.0097 -0.4304
  136SOPE  H12X14796   5.164   5.736   3.855  0.3217 -0.0206  0.5829
  136SOPE  H12Y14797   5.099   5.589   3.775 -0.8955 -0.3585 -0.6523
  136SOPE  C31314798   5.006   5.635   3.964 -0.8083  0.1262  0.2745
  136SOPE  H13X14799   5.070   5.564   4.020 -1.5717 -0.0925  0.9017
  136SOPE  H13Y14800   4.904   5.590   3.957 -0.5308 -0.3651 -0.7008
  136SOPE  C31414801   4.993   5.759   4.063 -0.6109  0.2400 -0.7340
  136SOPE  H14X14802   4.906   5.824   4.039  0.2935  1.8461  0.2339
  136SOPE  H14Y14803   5.083   5.822   4.052 -0.0677 -0.3502  0.1458
  136SOPE  C31514804   4.988   5.710   4.209  0.1961 -0.2918 -0.9243
  136SOPE  H15X14805   5.088   5.672   4.238  0.7224  1.8080  0.2066
  136SOPE  H15Y14806   4.922   5.621   4.217  0.0112 -0.1132 -0.3879
  136SOPE  C31614807   4.943   5.823   4.303 -0.1508 -0.4256 -0.0010
  136SOPE  H16X14808   4.874   5.899   4.261  1.5265 -0.0168 -2.1916
  136SOPE  H16Y14809   5.037   5.883   4.307 -1.1585  1.1643  2.8882
  136SOPE  C31714810   4.907   5.782   4.448  0.0125 -0.1605  0.0305
  136SOPE  H17X14811   4.811   5.728   4.460 -1.2317  1.9656  0.1807
  136SOPE  H17Y14812   4.897   5.882   4.495 -0.9612 -0.4891  0.5489
  136SOPE  C31814813   5.018   5.701   4.513  0.4760  0.3986  0.6429
  136SOPE  H18X14814   5.027   5.596   4.479  1.8731  0.4695  0.7387
  136SOPE  H18Y14815   5.009   5.691   4.623  1.0154 -2.5518  0.5048
  136SOPE  H18Z14816   5.119   5.743   4.496  0.9504 -0.4375  1.3564
  137POPC     N14817   4.478   6.610   6.845  0.7452 -0.5221 -0.2792
  137POPC   C1214818   4.418   6.618   6.700 -0.0844  0.4913  0.6419
  137POPC  H12A14819   4.492   6.594   6.625 -1.2066  0.2453 -0.4206
  137POPC  H12B14820   4.417   6.721   6.669 -3.6242 -0.3780 -2.9602
  137POPC   C1314821   4.481   6.471   6.894  0.6021 -0.2887  0.7507
  137POPC  H13A14822   4.530   6.412   6.819 -1.1935  1.1616 -1.7273
  137POPC  H13B14823   4.519   6.464   6.995 -1.9269  0.4969  1.8310
  137POPC  H13C14824   4.380   6.440   6.917  0.7634 -1.6541 -0.2819
  137POPC   C1414825   4.607   6.666   6.855 -0.5196 -0.1860 -0.0686
  137POPC  H14A14826   4.612   6.767   6.819  1.1454 -0.7397 -1.5039
  137POPC  H14B14827   4.636   6.652   6.958  0.6066 -1.2733 -0.5041
  137POPC  H14C14828   4.680   6.619   6.791  1.4914  4.4418 -1.6148
  137POPC   C1514829   4.380   6.684   6.932  0.5045 -0.0197  0.6988
  137POPC  H15A14830   4.356   6.770   6.872 -0.4353 -1.1144 -0.5624
  137POPC  H15B14831   4.432   6.706   7.024  1.1736  2.8672 -0.2745
  137POPC  H15C14832   4.280   6.646   6.942 -0.7517  2.8863  0.0843
  137POPC   C1114833   4.284   6.555   6.676 -0.1892  0.0636  0.6275
  137POPC  H11A14834   4.278   6.449   6.711  3.0846 -0.6415 -0.5802
  137POPC  H11B14835   4.257   6.548   6.568  1.0237 -0.2009  0.3317
  137POPC     P14836   4.145   6.786   6.661  0.1983  0.2530  0.0622
  137POPC   O1314837   4.260   6.881   6.651 -0.4302  0.1715  0.5675
  137POPC   O1414838   4.022   6.830   6.732  0.3417  0.4215 -0.2007
  137POPC   O1214839   4.181   6.643   6.729 -0.0998  0.5555 -0.1001
  137POPC   O1114840   4.104   6.743   6.517 -0.0186  0.2295 -0.3299
  137POPC    C114841   4.012   6.643   6.482  0.1749  0.5961  0.0037
  137POPC    HA14842   3.949   6.609   6.568 -1.4543  1.0559 -0.9689
  137POPC    HB14843   4.063   6.551   6.447  0.2699  1.1899 -1.4546
  137POPC    C214844   3.917   6.701   6.380  0.7465  0.5497  1.0713
  137POPC    HS14845   3.831   6.631   6.368 -0.6905  2.3518  0.4114
  137POPC   O2114846   3.978   6.723   6.252 -0.2540  0.2527  0.1111
  137POPC   C2114847   3.982   6.617   6.172  0.6677  0.6074 -0.3978
  137POPC   O2214848   3.924   6.513   6.200  0.3026  0.0959  0.0397
  137POPC   C2214849   4.062   6.651   6.040  0.7094  0.1748  0.0157
  137POPC   H2R14850   4.167   6.659   6.074  0.2846 -1.6366  2.0785
  137POPC   H2S14851   4.026   6.749   6.004 -1.8284 -0.9342 -0.7672
  137POPC    C314852   3.852   6.830   6.432  0.2515 -0.0377 -1.0695
  137POPC    HX14853   3.929   6.895   6.478  1.0444 -0.9618 -1.0731
  137POPC    HY14854   3.794   6.789   6.517 -1.2878 -0.8531 -2.4623
  137POPC   O3114855   3.764   6.908   6.346  0.2454  0.2063  0.3770
  137POPC   C3114856   3.657   6.849   6.308 -0.7817 -0.8201 -0.0231
  137POPC   O3214857   3.622   6.739   6.338  0.0610 -0.4819  0.1663
  137POPC   C3214858   3.587   6.943   6.209 -0.4551 -0.5141  0.1096
  137POPC   H2X14859   3.570   7.044   6.253 -0.8994 -0.3718 -0.3822
  137POPC   H2Y14860   3.490   6.901   6.173 -0.8557 -0.7711  1.4024
  137POPC   C2314861   4.042   6.545   5.931 -0.4864  0.1346 -0.1690
  137POPC   H3R14862   3.942   6.549   5.883 -0.1245  1.3117 -0.8403
  137POPC   H3S14863   4.061   6.445   5.977  1.9434  0.4471 -0.3840
  137POPC   C2414864   4.137   6.558   5.810  0.7388  0.8386  0.3242
  137POPC   H4R14865   4.241   6.553   5.848 -0.1467 -1.0660  2.8604
  137POPC   H4S14866   4.115   6.653   5.758 -4.5625 -1.4909 -2.5455
  137POPC   C2514867   4.114   6.440   5.709  0.1721 -0.4541 -0.1412
  137POPC   H5R14868   4.007   6.446   5.682 -0.0406  1.9316  1.0737
  137POPC   H5S14869   4.132   6.336   5.743 -2.0883 -1.2575 -1.1895
  137POPC   C2614870   4.198   6.476   5.586  0.2661 -0.0872  0.3718
  137POPC   H6R14871   4.306   6.463   5.607  0.0878  0.7860  2.0184
  137POPC   H6S14872   4.176   6.581   5.556 -0.4484  0.0187  1.1929
  137POPC   C2714873   4.172   6.383   5.464 -0.3883 -0.4254  0.3831
  137POPC   H7R14874   4.076   6.425   5.429 -0.0711  1.6022  1.7586
  137POPC   H7S14875   4.168   6.274   5.488  1.0728 -0.4283  0.7383
  137POPC   C2814876   4.280   6.388   5.356 -0.0128  0.0295  0.4322
  137POPC   H8R14877   4.277   6.299   5.289 -0.4706  1.0263 -0.9119
  137POPC   H8S14878   4.378   6.372   5.407 -0.0800  0.0024  0.5521
  137POPC   C2914879   4.282   6.508   5.275  0.1453 -0.1377 -0.6008
  137POPC   H9114880   4.357   6.581   5.309 -1.0329 -0.3803  2.8530
  137POPC  C21014881   4.202   6.521   5.164  0.1367 -0.2252  0.1060
  137POPC  H10114882   4.191   6.615   5.108 -1.3221 -0.4628 -0.0379
  137POPC  C21114883   4.097   6.428   5.108  0.3927  0.2333 -0.6026
  137POPC  H11R14884   4.004   6.466   5.156  2.3133  2.6579  1.4909
  137POPC  H11S14885   4.107   6.324   5.144  1.5169 -0.3294 -2.4281
  137POPC  C21214886   4.083   6.420   4.952  0.6835  0.7373  0.3395
  137POPC  H12R14887   4.010   6.343   4.920  1.0329 -0.0640  1.3902
  137POPC  H12S14888   4.183   6.390   4.915  1.1556  1.5723  0.8841
  137POPC  C21314889   4.035   6.555   4.900  0.3085 -0.1818 -0.0473
  137POPC  H13R14890   4.122   6.624   4.901  0.0208  0.2895 -2.1957
  137POPC  H13S14891   3.962   6.603   4.968 -2.4299 -1.9837 -1.5413
  137POPC  C21414892   3.979   6.532   4.756  0.2839  0.5286  0.5570
  137POPC  H14R14893   3.920   6.439   4.769  1.0500  0.2481  2.3381
  137POPC  H14S14894   4.062   6.512   4.685 -0.7331 -2.4686  0.0808
  137POPC  C21514895   3.893   6.643   4.696  0.0497 -0.1662  0.3095
  137POPC  H15R14896   3.880   6.612   4.590 -0.8278 -1.0682  0.6634
  137POPC  H15S14897   3.946   6.738   4.718  1.0736 -0.7668  0.5063
  137POPC  C21614898   3.747   6.631   4.745 -0.4187  0.0585  0.2126
  137POPC  H16R14899   3.739   6.678   4.845 -0.7696  0.6050 -0.0672
  137POPC  H16S14900   3.722   6.526   4.772 -2.2007  0.7860  1.6270
  137POPC  C21714901   3.633   6.690   4.663  0.1180 -0.0132 -0.2206
  137POPC  H17R14902   3.547   6.664   4.728 -0.9094  1.2192 -1.0616
  137POPC  H17S14903   3.630   6.641   4.563  1.5352  1.0130 -0.8021
  137POPC  C21814904   3.649   6.838   4.652  0.1372 -0.5116  0.7213
  137POPC  H18R14905   3.661   6.888   4.750 -3.6449 -1.7565  2.0072
  137POPC  H18S14906   3.550   6.879   4.620  0.5970  0.5415  0.6082
  137POPC  H18T14907   3.735   6.866   4.588 -0.2206  2.5211  1.4196
  137POPC   C3314908   3.685   6.975   6.084  0.1360 -0.1826 -0.7659
  137POPC   H3X14909   3.786   7.009   6.114 -1.0781  1.2013  2.1840
  137POPC   H3Y14910   3.636   7.055   6.024 -1.9832  0.6726  1.8958
  137POPC   C3414911   3.709   6.856   5.992 -0.7177  0.0479 -0.5370
  137POPC   H4X14912   3.617   6.800   5.963  1.1772 -2.1377 -2.7216
  137POPC   H4Y14913   3.772   6.781   6.044  0.1347  1.4061  0.4616
  137POPC   C3514914   3.769   6.895   5.852  0.2629  0.0365 -0.2382
  137POPC   H5X14915   3.877   6.911   5.872 -0.0022 -0.1469  1.5579
  137POPC   H5Y14916   3.719   6.983   5.807  0.7728 -0.0039 -0.9019
  137POPC   C3614917   3.738   6.780   5.748 -0.1295  0.1183  0.0303
  137POPC   H6X14918   3.627   6.772   5.746 -0.0195 -1.8956  0.3726
  137POPC   H6Y14919   3.771   6.678   5.776  0.2666  0.0669 -0.6125
  137POPC   C3714920   3.789   6.809   5.609 -0.0807 -0.1662  0.1176
  137POPC   H7X14921   3.769   6.915   5.581  1.3902 -0.1430 -0.9986
  137POPC   H7Y14922   3.738   6.733   5.545  2.8480 -2.2773  0.0507
  137POPC   C3814923   3.934   6.772   5.588 -0.2179 -0.4100 -0.0973
  137POPC   H8X14924   3.961   6.674   5.631  2.3012  0.4776  0.5145
  137POPC   H8Y14925   4.000   6.848   5.637 -2.1479  1.8707 -0.8244
  137POPC   C3914926   3.971   6.771   5.434  0.2407 -0.0025 -0.8375
  137POPC   H9X14927   3.896   6.712   5.377 -0.1771  0.7402 -1.0600
  137POPC   H9Y14928   4.075   6.735   5.417  0.2461 -0.5974  0.3702
  137POPC  C31014929   3.981   6.909   5.383  0.5768 -0.2481 -0.4426
  137POPC  H10X14930   4.039   6.975   5.450 -2.2280 -0.8700  2.9262
  137POPC  H10Y14931   3.886   6.967   5.376  1.1201  0.4918 -2.1470
  137POPC  C31114932   4.038   6.922   5.240 -0.0142  0.3381 -0.1137
  137POPC  H11X14933   4.144   6.889   5.242 -0.0180  0.3605  1.4561
  137POPC  H11Y14934   4.056   7.029   5.213  1.0802  0.2057  0.0198
  137POPC  C31214935   3.946   6.871   5.133  0.5173 -0.0955 -0.3822
  137POPC  H12X14936   3.858   6.938   5.140  1.1236  0.5616  1.7018
  137POPC  H12Y14937   3.911   6.768   5.151  0.8649 -0.3180 -0.9479
  137POPC  C31314938   3.996   6.894   4.996  0.5551  0.6834  0.5600
  137POPC  H13X14939   3.924   6.846   4.926  0.8908 -0.5731  1.0544
  137POPC  H13Y14940   4.085   6.831   4.977 -0.3467  0.1105 -2.2027
  137POPC  C31414941   4.026   7.038   4.949 -0.5698 -0.0346 -0.3619
  137POPC  H14X14942   4.124   7.072   4.989 -0.3847 -0.5372 -0.3791
  137POPC  H14Y14943   3.942   7.107   4.975 -1.0381 -0.0448 -1.7555
  137POPC  C31514944   4.043   7.062   4.794  0.2889 -0.5279 -0.2115
  137POPC  H15X14945   4.039   7.172   4.776 -2.8970 -0.3903  0.6535
  137POPC  H15Y14946   3.957   7.019   4.738 -1.6184  2.2379  0.3614
  137POPC  C31614947   4.178   7.003   4.746 -0.6382  0.4351  0.1872
  137POPC  H16X14948   4.201   6.895   4.758 -0.1324  0.4193 -0.8251
  137POPC  H16Y14949   4.264   7.053   4.795 -0.2801  1.4068 -1.3974
  137POPC  H16Z14950   4.183   7.028   4.638 -0.2986  0.4270  0.2004
  138POPC     N14951   0.945   4.554   6.997  0.0595  0.0725  0.3251
  138POPC   C1214952   0.881   4.479   6.885  0.4109 -0.2439 -0.0009
  138POPC  H12A14953   0.793   4.429   6.922 -0.1135  0.3782 -0.4000
  138POPC  H12B14954   0.958   4.409   6.857  0.3635 -0.0619 -0.6108
  138POPC   C1314955   1.069   4.634   6.947 -0.0912 -0.2663  0.1570
  138POPC  H13A14956   1.100   4.703   7.024 -1.3447  0.5859 -0.0575
  138POPC  H13B14957   1.149   4.568   6.919 -1.4218 -2.7768  1.9000
  138POPC  H13C14958   1.041   4.688   6.858  2.2931  1.4006  0.3373
  138POPC   C1414959   0.841   4.649   7.052  0.0189 -0.0077 -0.1667
  138POPC  H14A14960   0.755   4.595   7.088  1.8406 -2.6552  0.5003
  138POPC  H14B14961   0.881   4.695   7.141 -1.1397  0.2161  0.2511
  138POPC  H14C14962   0.823   4.726   6.979  0.5003  0.4669  0.2045
  138POPC   C1514963   0.994   4.463   7.104  0.0210 -0.6025  0.3542
  138POPC  H15A14964   1.044   4.506   7.189 -0.3247  2.6024 -0.9258
  138POPC  H15B14965   1.076   4.408   7.059 -0.9338 -1.1048 -0.8264
  138POPC  H15C14966   0.922   4.390   7.137 -2.5912  1.5563 -0.2679
  138POPC   C1114967   0.849   4.561   6.756 -0.2167  0.3983  0.0339
  138POPC  H11A14968   0.792   4.651   6.787 -0.7851 -0.4510  1.5841
  138POPC  H11B14969   0.784   4.499   6.691  0.3918  1.6418 -1.8581
  138POPC     P14970   0.976   4.741   6.607 -0.1026 -0.0575  0.1698
  138POPC   O1314971   1.062   4.831   6.688 -0.1114 -0.1577  0.7293
  138POPC   O1414972   0.834   4.785   6.580 -0.1358 -0.2258  0.6587
  138POPC   O1214973   0.969   4.596   6.679  0.1467  0.2559 -0.2858
  138POPC   O1114974   1.052   4.714   6.473 -0.4212  0.4509 -0.0242
  138POPC    C114975   1.167   4.635   6.446 -0.6680 -0.6358 -0.0516
  138POPC    HA14976   1.213   4.591   6.537  1.6867  0.7768 -0.4433
  138POPC    HB14977   1.248   4.708   6.420 -2.2228  1.4445  0.7015
  138POPC    C214978   1.144   4.533   6.329 -0.0715  0.0724 -0.4213
  138POPC    HS14979   1.222   4.453   6.337 -0.6233 -0.5605 -1.1678
  138POPC   O2114980   1.161   4.601   6.204 -0.0530  0.2064 -0.2630
  138POPC   C2114981   1.139   4.524   6.105 -0.4948  0.2847  0.1498
  138POPC   O2214982   1.126   4.399   6.100 -0.1195 -0.4264 -0.3078
  138POPC   C2214983   1.132   4.610   5.977 -0.7040  0.0282 -0.2352
  138POPC   H2R14984   1.233   4.656   5.970  0.3581 -1.9626  0.9338
  138POPC   H2S14985   1.050   4.685   5.979 -0.7198  0.1194 -2.5751
  138POPC    C314986   1.003   4.473   6.346  0.0478 -0.5171 -0.5479
  138POPC    HX14987   0.976   4.477   6.454 -0.1386  1.7458 -0.6296
  138POPC    HY14988   1.008   4.363   6.330  0.3514 -0.8444  1.5202
  138POPC   O3114989   0.886   4.525   6.274  0.4991  0.5083 -0.1334
  138POPC   C3114990   0.797   4.429   6.240  0.5893 -0.0510 -1.0284
  138POPC   O3214991   0.796   4.317   6.274 -1.1023  0.4423  0.2334
  138POPC   C3214992   0.695   4.481   6.139  0.0404  1.1458  0.4011
  138POPC   H2X14993   0.614   4.533   6.196  0.3439 -1.5164  3.5822
  138POPC   H2Y14994   0.651   4.393   6.086  1.2390  1.3295 -0.9380
  138POPC   C2314995   1.110   4.527   5.855  0.4221  0.0102 -0.1660
  138POPC   H3R14996   1.022   4.463   5.875  0.8927 -0.8512 -0.8010
  138POPC   H3S14997   1.196   4.459   5.842 -0.2759 -0.8684 -0.2872
  138POPC   C2414998   1.089   4.608   5.728 -0.0797 -0.3439  0.4656
  138POPC   H4R14999   1.094   4.539   5.641 -1.4461 -0.6844  0.6295
  138POPC   H4S15000   1.176   4.674   5.707 -0.5155 -0.0569 -0.4557
  138POPC   C2515001   0.950   4.674   5.711  0.5590  0.4375 -0.3165
  138POPC   H5R15002   0.931   4.763   5.774  2.6510  2.2600 -2.1192
  138POPC   H5S15003   0.868   4.600   5.728  0.8704 -0.3173 -1.9367
  138POPC   C2615004   0.941   4.721   5.563 -0.1789  0.5278 -0.4097
  138POPC   H6R15005   0.978   4.641   5.495 -2.0053  0.6570 -1.6241
  138POPC   H6S15006   1.005   4.812   5.557 -1.1978  1.2744 -0.3285
  138POPC   C2715007   0.802   4.744   5.505 -0.1625  0.3655  0.1773
  138POPC   H7R15008   0.749   4.825   5.559 -1.1157 -0.5850  0.7185
  138POPC   H7S15009   0.755   4.646   5.531 -1.8412  0.9034 -0.7132
  138POPC   C2815010   0.785   4.773   5.347  0.0700  0.5886 -0.6519
  138POPC   H8R15011   0.837   4.699   5.282  1.3564  1.6546 -0.8847
  138POPC   H8S15012   0.822   4.876   5.330 -0.2918  0.9496  0.6645
  138POPC   C2915013   0.635   4.764   5.327  0.2541 -0.0514 -0.0830
  138POPC   H9115014   0.576   4.844   5.373  0.6319 -1.7184  3.6393
  138POPC  C21015015   0.569   4.677   5.253  0.1476 -0.9049  0.9481
  138POPC  H10115016   0.461   4.689   5.238  0.3123 -2.5366 -2.7626
  138POPC  C21115017   0.636   4.550   5.206 -0.3824  0.7608  0.4202
  138POPC  H11R15018   0.616   4.466   5.275 -0.7937  1.4548  1.1700
  138POPC  H11S15019   0.745   4.562   5.187 -0.7595  1.5041 -1.5559
  138POPC  C21215020   0.587   4.526   5.060 -0.5374 -0.7710 -0.4917
  138POPC  H12R15021   0.480   4.499   5.061 -0.8131  0.2334  1.8981
  138POPC  H12S15022   0.646   4.444   5.014 -0.0119 -0.9365  0.4426
  138POPC  C21315023   0.593   4.640   4.960 -0.0409 -1.0095 -0.2778
  138POPC  H13R15024   0.700   4.656   4.935  0.1607 -1.6829  0.1109
  138POPC  H13S15025   0.552   4.740   4.987  3.6104  0.2200  1.2518
  138POPC  C21415026   0.533   4.605   4.828 -0.9165 -0.5813  0.7580
  138POPC  H14R15027   0.553   4.499   4.803 -0.4062 -0.0399 -1.3154
  138POPC  H14S15028   0.587   4.666   4.753  1.3966 -2.5311  0.7139
  138POPC  C21515029   0.381   4.641   4.810  0.0087 -0.1236 -0.9005
  138POPC  H15R15030   0.376   4.747   4.842  1.1776  0.2743 -1.9501
  138POPC  H15S15031   0.317   4.581   4.878 -0.6138  1.2849 -0.2018
  138POPC  C21615032   0.325   4.637   4.665  0.0513  0.3685 -0.0203
  138POPC  H16R15033   0.228   4.691   4.665  0.6269  1.4292 -0.1015
  138POPC  H16S15034   0.316   4.528   4.646  1.3313  0.1114  0.7199
  138POPC  C21715035   0.416   4.695   4.556  0.1409  0.1883  0.5448
  138POPC  H17R15036   0.517   4.649   4.560  0.0160 -0.2049 -0.5227
  138POPC  H17S15037   0.422   4.806   4.560 -3.4034  0.5715 -1.1215
  138POPC  C21815038   0.369   4.659   4.410  0.0513 -0.0241 -0.6788
  138POPC  H18R15039   0.270   4.700   4.382 -0.3446  2.0067  3.0172
  138POPC  H18S15040   0.359   4.549   4.396 -3.2958  0.1141 -0.3697
  138POPC  H18T15041   0.449   4.703   4.347  1.3591  1.1819  1.6951
  138POPC   C3315042   0.757   4.574   6.046  0.2254  0.1143 -0.1674
  138POPC   H3X15043   0.842   4.536   5.985  2.3862  2.0552  1.5024
  138POPC   H3Y15044   0.797   4.665   6.094 -1.0292  0.7088 -0.1999
  138POPC   C3415045   0.647   4.626   5.943  0.4113 -0.9499  0.5378
  138POPC   H4X15046   0.698   4.690   5.867 -2.1323 -0.3810 -0.8234
  138POPC   H4Y15047   0.562   4.680   5.990  0.5772  0.5440 -0.7854
  138POPC   C3515048   0.585   4.519   5.857 -0.2934  0.6349 -0.1768
  138POPC   H5X15049   0.527   4.441   5.911  2.0185 -0.1720  1.2985
  138POPC   H5Y15050   0.657   4.453   5.803 -0.8381 -0.3455  0.2647
  138POPC   C3615051   0.493   4.583   5.749 -0.0214 -0.2073 -0.5970
  138POPC   H6X15052   0.542   4.678   5.717  0.2368 -0.3947 -0.7541
  138POPC   H6Y15053   0.404   4.616   5.808 -0.1542 -1.0545 -0.3170
  138POPC   C3715054   0.457   4.490   5.627 -0.0455 -0.4600  0.3083
  138POPC   H7X15055   0.429   4.398   5.681  0.8626 -0.3563  0.9929
  138POPC   H7Y15056   0.546   4.472   5.562 -0.1503 -0.5244  0.1846
  138POPC   C3815057   0.337   4.551   5.553  0.2887  0.3284 -0.0844
  138POPC   H8X15058   0.357   4.654   5.517 -0.4136  0.4653 -0.0953
  138POPC   H8Y15059   0.250   4.556   5.622  1.3127 -1.0229  1.3811
  138POPC   C3915060   0.304   4.473   5.425 -0.2371 -0.3541 -0.0823
  138POPC   H9X15061   0.262   4.372   5.444  0.7501 -1.0879 -1.5677
  138POPC   H9Y15062   0.407   4.474   5.384 -0.0095  3.0173  0.3233
  138POPC  C31015063   0.213   4.543   5.327 -0.5128 -0.2304  0.2889
  138POPC  H10X15064   0.255   4.641   5.296  1.2659 -0.5650  1.5242
  138POPC  H10Y15065   0.114   4.545   5.379 -1.4426 -2.1429 -1.2759
  138POPC  C31115066   0.179   4.456   5.202 -0.2270 -0.5840 -0.1671
  138POPC  H11X15067   0.147   4.353   5.231  1.6841 -1.0632  0.3483
  138POPC  H11Y15068   0.269   4.435   5.141 -0.4976 -1.5929 -0.2326
  138POPC  C31215069   0.066   4.513   5.125 -0.1704 -0.1686 -0.2256
  138POPC  H12X15070   0.082   4.611   5.077 -0.2573  0.7573  1.5672
  138POPC  H12Y15071  -0.026   4.529   5.185 -0.4056  1.6255 -1.0138
  138POPC  C31315072   0.030   4.421   5.007  0.1037 -0.0635 -0.4696
  138POPC  H13X15073  -0.027   4.335   5.048 -2.8105  0.7629 -2.4160
  138POPC  H13Y15074   0.117   4.381   4.950 -0.1466 -2.5114  0.7628
  138POPC  C31415075  -0.056   4.492   4.904 -0.6126  0.6379  0.8990
  138POPC  H14X15076   0.008   4.571   4.859 -1.6841  1.5074  0.8474
  138POPC  H14Y15077  -0.143   4.539   4.954 -2.7622 -1.0022 -1.0795
  138POPC  C31515078  -0.106   4.390   4.806 -0.5967  0.4801 -0.1314
  138POPC  H15X15079  -0.159   4.314   4.866 -1.0535  1.1949  0.3807
  138POPC  H15Y15080  -0.020   4.335   4.761  0.0233  0.8972  0.5331
  138POPC  C31615081  -0.201   4.444   4.697 -1.0039 -0.0198 -0.2778
  138POPC  H16X15082  -0.285   4.500   4.743 -1.3333 -2.5653  2.4578
  138POPC  H16Y15083  -0.232   4.352   4.644 -1.0356 -0.6209  0.7738
  138POPC  H16Z15084  -0.144   4.515   4.633  1.6805  0.1421  2.0845
  139POPC     N15085   2.526   1.867   1.800 -0.5323  0.2030 -0.4510
  139POPC   C1215086   2.571   1.806   1.933 -0.1011 -0.5998 -0.2797
  139POPC  H12A15087   2.599   1.704   1.910 -0.2706 -0.3751 -1.5105
  139POPC  H12B15088   2.489   1.804   2.004  0.8809  4.5464  1.4245
  139POPC   C1315089   2.423   1.775   1.739 -0.1765  0.3533 -0.0678
  139POPC  H13A15090   2.377   1.827   1.656 -0.4578 -1.3241 -1.0119
  139POPC  H13B15091   2.464   1.683   1.701  3.7249  0.8767  2.3645
  139POPC  H13C15092   2.336   1.769   1.803  0.2505  2.3997  0.7893
  139POPC   C1415093   2.460   2.000   1.819 -0.6422  0.4222  0.8846
  139POPC  H14A15094   2.534   2.060   1.870 -1.9169  2.9238 -0.0739
  139POPC  H14B15095   2.444   2.052   1.726  0.7943 -1.6810 -0.6368
  139POPC  H14C15096   2.373   1.983   1.881  0.6123 -0.3279  2.5278
  139POPC   C1515097   2.635   1.878   1.705 -0.5535  0.0194  0.1514
  139POPC  H15A15098   2.611   1.917   1.607  0.3797 -0.0538 -0.1204
  139POPC  H15B15099   2.691   1.787   1.690  0.8479  0.8811 -0.0488
  139POPC  H15C15100   2.703   1.955   1.739 -0.3473  0.3471 -0.9627
  139POPC   C1115101   2.697   1.863   2.003 -0.5542  0.4380  0.0222
  139POPC  H11A15102   2.697   1.847   2.113  0.1834  1.7712  0.2444
  139POPC  H11B15103   2.689   1.973   1.990  0.3351  0.6398  1.0454
  139POPC     P15104   2.865   1.659   1.983 -0.0828 -0.0774 -0.1999
  139POPC   O1315105   2.998   1.637   1.922  0.0660 -0.8559  0.6324
  139POPC   O1415106   2.759   1.559   1.965 -0.5094  0.4288 -0.1949
  139POPC   O1215107   2.812   1.802   1.943 -0.2821 -0.4003 -0.1027
  139POPC   O1115108   2.890   1.678   2.138  0.1158 -0.5063 -0.1803
  139POPC    C115109   2.969   1.790   2.175 -0.5284 -0.2490  0.2652
  139POPC    HA15110   2.902   1.858   2.231 -1.8683  0.2817 -1.8616
  139POPC    HB15111   3.019   1.846   2.093  0.1696  1.8509  2.0404
  139POPC    C215112   3.093   1.740   2.262  0.2279  0.0073 -0.4209
  139POPC    HS15113   3.152   1.664   2.206  2.4238  0.7047  0.8024
  139POPC   O2115114   3.054   1.677   2.383  0.7737 -0.5838 -0.0838
  139POPC   C2115115   3.138   1.596   2.454 -0.0439 -0.5089  0.7125
  139POPC   O2215116   3.246   1.560   2.417  0.1914  0.1090  0.4611
  139POPC   C2215117   3.073   1.561   2.590  0.3650 -0.1720  0.0398
  139POPC   H2R15118   2.971   1.521   2.569  0.0130  1.7162 -2.3288
  139POPC   H2S15119   3.047   1.651   2.650 -1.3876 -1.5872  1.5068
  139POPC    C315120   3.191   1.852   2.306 -0.4392 -0.9482  0.4413
  139POPC    HX15121   3.249   1.908   2.229 -1.6946  0.2998  0.3590
  139POPC    HY15122   3.278   1.800   2.351  2.1617 -0.5667 -3.6447
  139POPC   O3115123   3.138   1.947   2.401 -0.0162  0.2206  0.1337
  139POPC   C3115124   3.080   2.056   2.349 -0.7581  0.0120  0.8267
  139POPC   O3215125   3.088   2.086   2.226  0.1871  0.3006 -0.0503
  139POPC   C3215126   3.020   2.135   2.459 -0.4992  0.1249 -0.4189
  139POPC   H2X15127   2.933   2.083   2.505 -0.2527 -1.1583 -1.3292
  139POPC   H2Y15128   2.984   2.233   2.422 -0.4681  1.1588  2.1362
  139POPC   C2315129   3.148   1.470   2.693  0.4471 -0.4664  0.4482
  139POPC   H3R15130   3.236   1.518   2.741 -0.5916  0.3604  1.5750
  139POPC   H3S15131   3.178   1.381   2.633 -2.0113 -1.7812  1.0595
  139POPC   C2415132   3.055   1.416   2.807 -0.0327 -0.0619  0.0948
  139POPC   H4R15133   3.108   1.328   2.848  1.7200 -0.0281 -1.9285
  139POPC   H4S15134   2.955   1.391   2.765  1.3918 -2.4428 -2.1618
  139POPC   C2515135   3.053   1.520   2.916 -0.0860  0.1534  0.9879
  139POPC   H5R15136   3.035   1.618   2.867 -1.0677 -0.2701  0.4618
  139POPC   H5S15137   3.141   1.519   2.983  0.7113  0.3417 -0.0288
  139POPC   C2615138   2.936   1.499   3.019  0.1197 -0.5895  0.1862
  139POPC   H6R15139   2.843   1.512   2.959  0.8455  0.4865 -0.7272
  139POPC   H6S15140   2.948   1.582   3.092  1.7208 -1.7778  1.3350
  139POPC   C2715141   2.940   1.367   3.093 -0.0942  0.3544  0.2074
  139POPC   H7R15142   2.943   1.298   3.006 -2.1609 -0.0172  0.3856
  139POPC   H7S15143   2.846   1.354   3.151 -0.3038 -2.0370 -0.5894
  139POPC   C2815144   3.060   1.345   3.186  0.7692  0.2001  0.2509
  139POPC   H8R15145   3.058   1.408   3.278  0.6844 -1.7325  1.6354
  139POPC   H8S15146   3.154   1.366   3.132  0.6532  1.4952  0.5183
  139POPC   C2915147   3.059   1.203   3.236  0.3513 -0.0118  0.1656
  139POPC   H9115148   2.962   1.155   3.214 -0.3914  0.9627  1.1808
  139POPC  C21015149   3.145   1.134   3.309  0.0750  0.0520  0.7765
  139POPC  H10115150   3.112   1.037   3.350  0.2542  0.5574  2.1635
  139POPC  C21115151   3.284   1.183   3.358 -0.2026 -0.0693 -0.0213
  139POPC  H11R15152   3.304   1.282   3.312 -0.2141 -0.5615 -1.1162
  139POPC  H11S15153   3.362   1.110   3.327  1.4318  2.0726 -1.1742
  139POPC  C21215154   3.274   1.198   3.517 -0.8526 -0.4773 -0.1621
  139POPC  H12R15155   3.190   1.268   3.540 -0.6320 -0.5891  1.0315
  139POPC  H12S15156   3.367   1.250   3.548  0.5953 -1.9673 -1.7913
  139POPC  C21315157   3.247   1.061   3.586 -0.3906  0.5834 -0.0244
  139POPC  H13R15158   3.335   0.998   3.561 -0.4613  0.2936  0.4405
  139POPC  H13S15159   3.158   1.012   3.541  0.1851  0.5408 -1.1470
  139POPC  C21415160   3.236   1.077   3.729 -0.0397  0.1036 -0.1092
  139POPC  H14R15161   3.220   0.971   3.757 -2.5474 -0.7081 -3.8876
  139POPC  H14S15162   3.151   1.145   3.750  2.3845  3.5061 -0.4512
  139POPC  C21515163   3.372   1.108   3.795 -0.1122 -0.8906  0.0789
  139POPC  H15R15164   3.391   1.218   3.789 -0.3051 -0.9247 -2.7717
  139POPC  H15S15165   3.454   1.066   3.732 -0.8777 -3.0267  0.4302
  139POPC  C21615166   3.377   1.065   3.944 -0.2597  0.0692 -0.1760
  139POPC  H16R15167   3.480   1.088   3.976  0.0906 -3.4931  1.8091
  139POPC  H16S15168   3.363   0.954   3.947  0.0196  0.0499  0.9899
  139POPC  C21715169   3.279   1.139   4.040 -0.1471  0.7700 -0.2304
  139POPC  H17R15170   3.174   1.139   4.004 -1.1686  2.6421  2.4558
  139POPC  H17S15171   3.304   1.245   4.020  0.8484  0.4494 -0.7462
  139POPC  C21815172   3.293   1.101   4.190  0.4869 -0.3850  0.3484
  139POPC  H18R15173   3.221   1.158   4.253 -0.8552 -2.0957  0.4468
  139POPC  H18S15174   3.394   1.124   4.231 -0.3086  2.0846  1.1106
  139POPC  H18T15175   3.265   0.995   4.204  4.0522 -1.6130 -0.7391
  139POPC   C3315176   3.121   2.161   2.566  0.1529 -0.0236 -0.4776
  139POPC   H3X15177   3.207   2.211   2.518 -0.7575 -0.1171 -2.2825
  139POPC   H3Y15178   3.144   2.056   2.594  1.5016 -0.1896 -2.0818
  139POPC   C3415179   3.065   2.225   2.692  0.2198  0.6154 -0.8225
  139POPC   H4X15180   2.968   2.177   2.719  0.8431  0.5275  1.4220
  139POPC   H4Y15181   3.061   2.334   2.673  2.3908  0.8201 -0.3054
  139POPC   C3515182   3.150   2.206   2.822  0.2716 -0.2508 -0.2923
  139POPC   H5X15183   3.247   2.260   2.816  0.5543 -0.4656  1.6710
  139POPC   H5Y15184   3.164   2.097   2.837  0.6944 -0.0855  0.5686
  139POPC   C3615185   3.074   2.260   2.949  0.3325 -0.0398  0.2694
  139POPC   H6X15186   2.968   2.226   2.944 -0.2787  1.5162  1.5249
  139POPC   H6Y15187   3.079   2.371   2.948  0.3008 -0.0052 -2.2184
  139POPC   C3715188   3.132   2.202   3.080 -0.4690 -0.5912 -0.1091
  139POPC   H7X15189   3.238   2.233   3.093 -0.4496 -0.3290 -0.8250
  139POPC   H7Y15190   3.132   2.092   3.066  0.2127 -0.4759 -1.1342
  139POPC   C3815191   3.059   2.242   3.207 -0.1969  0.0069  0.6521
  139POPC   H8X15192   2.958   2.199   3.195  0.2700 -0.5943 -1.4801
  139POPC   H8Y15193   3.051   2.349   3.235  0.0938 -0.1667  1.4243
  139POPC   C3915194   3.124   2.189   3.337 -0.0140  0.2962 -0.8348
  139POPC   H9X15195   3.193   2.272   3.364 -1.2736  1.0676  0.1333
  139POPC   H9Y15196   3.181   2.096   3.318 -0.7334  0.1877 -2.6525
  139POPC  C31015197   3.017   2.161   3.451 -0.6344  0.0866 -0.1043
  139POPC  H10X15198   2.967   2.067   3.419 -0.6889  0.1567 -0.2239
  139POPC  H10Y15199   2.936   2.237   3.446 -2.1747 -1.5746 -2.7554
  139POPC  C31115200   3.094   2.139   3.580 -0.6774  0.5532 -0.2411
  139POPC  H11X15201   3.140   2.238   3.599 -2.0161  0.6242  3.3839
  139POPC  H11Y15202   3.162   2.051   3.575 -2.5669 -1.1227  1.6439
  139POPC  C31215203   2.999   2.091   3.688 -0.7245 -0.0155  0.2693
  139POPC  H12X15204   2.937   2.007   3.652 -0.9469 -0.0694  0.7639
  139POPC  H12Y15205   2.932   2.176   3.715 -0.4842  0.2409  0.0620
  139POPC  C31315206   3.064   2.059   3.824  0.2678  0.3046  0.0801
  139POPC  H13X15207   3.118   2.143   3.874 -0.7711  0.4958  0.9276
  139POPC  H13Y15208   3.143   1.983   3.809  1.7630  1.8044  0.1035
  139POPC  C31415209   2.955   2.003   3.920  0.1587 -0.0320  0.0533
  139POPC  H14X15210   2.895   1.917   3.882  0.5627 -0.8111  1.1061
  139POPC  H14Y15211   2.884   2.079   3.961  0.2698  0.1095 -0.0190
  139POPC  C31515212   3.023   1.945   4.048 -0.0371 -0.3826 -0.4161
  139POPC  H15X15213   3.088   2.022   4.097 -0.5101 -0.9492  1.1718
  139POPC  H15Y15214   3.101   1.874   4.015  1.3769  1.0066 -0.2195
  139POPC  C31615215   2.938   1.878   4.152 -0.2578  0.4232  0.4744
  139POPC  H16X15216   2.841   1.930   4.168 -0.8657 -0.3099 -0.7345
  139POPC  H16Y15217   2.998   1.857   4.244  1.6080 -0.2149 -0.8206
  139POPC  H16Z15218   2.906   1.780   4.113 -2.1141  1.2824 -0.2592
  140POPC     N15219   0.681   3.050   1.768  0.3411 -0.8095 -0.5289
  140POPC   C1215220   0.629   3.000   1.897 -0.2681 -0.4927  0.0595
  140POPC  H12A15221   0.705   2.938   1.943 -1.0052 -0.9300  0.7050
  140POPC  H12B15222   0.548   2.931   1.877  1.3036 -2.5221  0.3631
  140POPC   C1315223   0.815   3.116   1.766 -0.5953 -0.1257 -0.7604
  140POPC  H13A15224   0.867   3.117   1.671 -1.3879  0.9867 -1.1949
  140POPC  H13B15225   0.809   3.211   1.816 -0.1579 -1.3629  1.8498
  140POPC  H13C15226   0.886   3.066   1.831 -0.4445 -0.5144 -1.2168
  140POPC   C1415227   0.703   2.933   1.677 -0.1882 -0.2412  0.0194
  140POPC  H14A15228   0.760   2.849   1.716  1.6223  0.3394 -1.2426
  140POPC  H14B15229   0.606   2.893   1.654 -0.4432  1.0427 -1.2196
  140POPC  H14C15230   0.744   2.969   1.584  2.4756 -0.4473  1.0232
  140POPC   C1515231   0.584   3.133   1.695  0.7594  0.0033 -0.1399
  140POPC  H15A15232   0.583   3.235   1.729  1.2449 -0.1375  0.3251
  140POPC  H15B15233   0.485   3.095   1.712  0.9119  0.5248  2.3586
  140POPC  H15C15234   0.596   3.138   1.588  1.8225  2.3682  0.0298
  140POPC   C1115235   0.577   3.100   2.002  0.4849  0.0097  0.3337
  140POPC  H11A15236   0.558   3.047   2.098 -3.0452  1.4333  0.5704
  140POPC  H11B15237   0.475   3.119   1.961  0.8331  1.3752  0.0561
  140POPC     P15238   0.787   3.223   2.100 -0.2270  0.3809 -0.1360
  140POPC   O1315239   0.882   3.322   2.039  0.4540  0.8568  0.0563
  140POPC   O1415240   0.828   3.087   2.141  0.1588 -0.3741  0.0475
  140POPC   O1215241   0.653   3.221   2.014  0.2760 -0.1426 -0.2159
  140POPC   O1115242   0.731   3.296   2.229  0.2481 -0.6378 -0.3036
  140POPC    C115243   0.639   3.268   2.327 -0.5972  0.1104 -0.0753
  140POPC    HA15244   0.617   3.160   2.343  1.5464 -0.1596  1.6167
  140POPC    HB15245   0.546   3.326   2.310  0.1428  0.9394 -1.3979
  140POPC    C215246   0.695   3.294   2.470  0.1349 -0.6543  0.0844
  140POPC    HS15247   0.618   3.266   2.544 -0.2546  0.9807  0.3497
  140POPC   O2115248   0.717   3.438   2.469  0.0967 -0.2892 -0.4488
  140POPC   C2115249   0.703   3.492   2.586 -0.2714 -0.7541 -0.5647
  140POPC   O2215250   0.667   3.436   2.689 -0.2898 -0.3010 -0.4876
  140POPC   C2215251   0.740   3.641   2.577 -0.4726  0.2691  0.5851
  140POPC   H2R15252   0.712   3.693   2.671  2.1905  2.6594  0.2035
  140POPC   H2S15253   0.677   3.684   2.497 -0.6266 -0.7188  0.1607
  140POPC    C315254   0.818   3.214   2.512 -0.7813  0.2739 -0.3845
  140POPC    HX15255   0.899   3.238   2.441 -1.3599  2.0765 -0.4850
  140POPC    HY15256   0.797   3.106   2.494  0.3296  0.0232 -0.2653
  140POPC   O3115257   0.858   3.249   2.653  0.4363 -0.4690  0.3113
  140POPC   C3115258   0.783   3.184   2.742  0.0290  0.6002  0.1429
  140POPC   O3215259   0.702   3.095   2.712  0.7599 -0.5924 -0.2348
  140POPC   C3215260   0.810   3.228   2.890 -0.4797  0.6690  0.3687
  140POPC   H2X15261   0.827   3.338   2.899 -0.3596  0.6604  0.2531
  140POPC   H2Y15262   0.910   3.185   2.911 -0.4847  0.1663 -0.5831
  140POPC   C2315263   0.892   3.651   2.539  0.2388 -0.0375  0.4414
  140POPC   H3R15264   0.914   3.760   2.533 -0.9890  0.3176  1.8543
  140POPC   H3S15265   0.900   3.612   2.435 -1.2593  2.4093 -0.6695
  140POPC   C2415266   0.998   3.584   2.627 -0.2118  0.3406 -0.1085
  140POPC   H4R15267   1.098   3.617   2.591 -0.6868 -0.6124 -2.5101
  140POPC   H4S15268   0.999   3.476   2.605 -0.2144  0.1095  0.9728
  140POPC   C2515269   0.962   3.619   2.780  0.7339  1.2678 -0.0944
  140POPC   H5R15270   0.878   3.555   2.816 -0.2660  0.7208 -3.0800
  140POPC   H5S15271   0.944   3.727   2.797 -1.4991  1.0934 -1.0229
  140POPC   C2615272   1.082   3.594   2.873  0.4148 -0.1103 -0.9042
  140POPC   H6R15273   1.175   3.628   2.823 -0.0454  0.0599 -1.6703
  140POPC   H6S15274   1.095   3.485   2.894 -2.6681 -0.6961 -1.5423
  140POPC   C2715275   1.065   3.658   3.014 -0.2369 -0.5902 -0.7622
  140POPC   H7R15276   0.961   3.646   3.053  0.1722  2.5227  1.7715
  140POPC   H7S15277   1.087   3.766   2.999  0.7543 -0.5207  0.9881
  140POPC   C2815278   1.152   3.589   3.114 -0.2966 -0.1426 -0.1746
  140POPC   H8R15279   1.251   3.570   3.068 -0.4490 -0.1582 -0.4968
  140POPC   H8S15280   1.105   3.490   3.131 -1.0296  0.0464 -1.0457
  140POPC   C2915281   1.147   3.678   3.238 -0.8010 -0.1798 -0.5884
  140POPC   H9115282   1.224   3.757   3.237 -0.2582 -0.7114 -0.7572
  140POPC  C21015283   1.055   3.685   3.333  0.1987  0.4415 -0.3515
  140POPC  H10115284   1.068   3.757   3.416 -0.3018  2.2829 -1.8103
  140POPC  C21115285   0.943   3.576   3.337 -0.1018  0.1421 -0.0773
  140POPC  H11R15286   0.990   3.476   3.347  0.3699  0.3898  0.1884
  140POPC  H11S15287   0.872   3.579   3.251 -0.4871  1.3565  0.2660
  140POPC  C21215288   0.856   3.605   3.456  0.7938 -0.3097  0.0861
  140POPC  H12R15289   0.777   3.526   3.456 -0.0290  0.4765  0.8816
  140POPC  H12S15290   0.795   3.697   3.446  0.6133 -0.5285 -0.9284
  140POPC  C21315291   0.920   3.585   3.592 -0.0575  0.0295  0.0834
  140POPC  H13R15292   0.977   3.674   3.626 -0.2620  0.9420 -1.7868
  140POPC  H13S15293   0.992   3.500   3.585 -0.6380 -0.5532  1.0079
  140POPC  C21415294   0.819   3.545   3.700 -0.3615  0.0411 -0.6254
  140POPC  H14R15295   0.762   3.456   3.666 -0.5189 -0.1501  0.1222
  140POPC  H14S15296   0.735   3.618   3.709 -2.0449 -2.0199  1.3648
  140POPC  C21515297   0.870   3.509   3.841 -0.6808  0.1035 -0.4600
  140POPC  H15R15298   0.946   3.430   3.823 -2.5687 -2.3681  1.7042
  140POPC  H15S15299   0.788   3.459   3.897  0.4984 -2.8675 -1.1982
  140POPC  C21615300   0.915   3.621   3.917 -0.3405  0.2765 -0.0672
  140POPC  H16R15301   0.830   3.680   3.957 -0.6049 -1.2411  1.7055
  140POPC  H16S15302   0.968   3.695   3.853  0.1500 -0.6827 -0.7981
  140POPC  C21715303   1.002   3.587   4.037 -0.0426  0.7748 -0.3219
  140POPC  H17R15304   0.951   3.517   4.106  2.5509  1.2276  2.2680
  140POPC  H17S15305   1.010   3.677   4.102 -2.0619  1.5900 -1.1223
  140POPC  C21815306   1.147   3.553   4.002  0.7898  0.3375 -0.3589
  140POPC  H18R15307   1.157   3.449   3.966  1.7450 -0.0082  0.8426
  140POPC  H18S15308   1.217   3.561   4.088 -0.1290  0.8095  0.3649
  140POPC  H18T15309   1.175   3.614   3.913  0.7336  0.1342 -0.5156
  140POPC   C3315310   0.709   3.181   2.997 -0.5494  0.1116  0.5806
  140POPC   H3X15311   0.688   3.073   2.983  0.2807 -0.0739  0.6575
  140POPC   H3Y15312   0.613   3.235   2.994  0.9131  2.8655  0.1759
  140POPC   C3415313   0.771   3.186   3.140  0.4508  0.1736 -0.5610
  140POPC   H4X15314   0.816   3.284   3.166 -1.5483  0.4950  2.1171
  140POPC   H4Y15315   0.856   3.114   3.147  1.0212  0.4973 -3.2955
  140POPC   C3515316   0.668   3.160   3.246 -0.4325  0.6265 -0.9349
  140POPC   H5X15317   0.622   3.059   3.256 -1.9548  1.5296  3.0062
  140POPC   H5Y15318   0.586   3.231   3.223 -0.8893  0.3882 -0.1002
  140POPC   C3615319   0.728   3.190   3.383  0.2386  0.1484 -0.2866
  140POPC   H6X15320   0.771   3.292   3.391  0.1356  0.2072 -0.4607
  140POPC   H6Y15321   0.810   3.119   3.404 -0.3598 -0.1111  1.3649
  140POPC   C3715322   0.623   3.166   3.493 -0.6471  0.0876 -0.4881
  140POPC   H7X15323   0.583   3.069   3.458  0.7964 -0.1774 -1.5368
  140POPC   H7Y15324   0.542   3.242   3.498 -0.1966  0.4831  1.7413
  140POPC   C3815325   0.685   3.157   3.632  0.6656 -0.4399 -0.8885
  140POPC   H8X15326   0.759   3.238   3.616  1.2634 -0.9782 -0.8841
  140POPC   H8Y15327   0.730   3.059   3.659 -0.1819 -0.4427  0.5929
  140POPC   C3915328   0.583   3.194   3.745 -0.1179  0.1612  0.8273
  140POPC   H9X15329   0.492   3.131   3.737 -0.0511 -0.0705  1.7631
  140POPC   H9Y15330   0.556   3.296   3.709 -0.2353  0.0991  0.7431
  140POPC  C31015331   0.654   3.193   3.880  0.4100 -0.0054 -0.0610
  140POPC  H10X15332   0.739   3.264   3.884  1.4984 -1.2731 -0.0834
  140POPC  H10Y15333   0.701   3.093   3.884 -0.1756 -0.2513  1.0428
  140POPC  C31115334   0.557   3.220   3.997 -0.3996 -0.2941  0.7177
  140POPC  H11X15335   0.470   3.153   3.982  0.2820 -1.7875  2.8737
  140POPC  H11Y15336   0.523   3.325   4.006  0.4978  0.1055 -0.3328
  140POPC  C31215337   0.623   3.181   4.126 -0.3931  0.4131 -0.1911
  140POPC  H12X15338   0.652   3.074   4.119 -3.2386 -0.3751 -1.4522
  140POPC  H12Y15339   0.555   3.179   4.214 -1.4773 -0.3502 -1.0130
  140POPC  C31315340   0.739   3.268   4.171  0.5505  0.7914 -0.8207
  140POPC  H13X15341   0.712   3.376   4.170 -0.9580  0.4869  0.8386
  140POPC  H13Y15342   0.821   3.239   4.102  1.0586 -0.5496  0.3076
  140POPC  C31415343   0.788   3.229   4.315 -0.5717 -0.1462  0.3968
  140POPC  H14X15344   0.889   3.273   4.333  1.3272 -3.4919 -1.1465
  140POPC  H14Y15345   0.798   3.120   4.330  0.3832  0.0556  1.3593
  140POPC  C31515346   0.707   3.287   4.430  0.2358  0.3423  0.4858
  140POPC  H15X15347   0.603   3.256   4.406  0.5457  0.7185 -1.5001
  140POPC  H15Y15348   0.720   3.397   4.423 -2.8092  0.7683  0.1985
  140POPC  C31615349   0.745   3.243   4.570  0.5985 -0.8011 -0.5342
  140POPC  H16X15350   0.779   3.137   4.572  2.0307 -0.3665 -1.1786
  140POPC  H16Y15351   0.653   3.258   4.631  0.3231  1.0433 -1.3371
  140POPC  H16Z15352   0.824   3.311   4.607 -1.8042  0.5519  2.6232
  141SAPS     N15353   4.445   0.226   6.546  0.2374  0.2831 -0.1992
  141SAPS   HN115354   4.534   0.171   6.543 -0.2718 -0.5614 -0.3802
  141SAPS   HN215355   4.370   0.172   6.592  2.2952 -1.3032  1.5093
  141SAPS   HN315356   4.427   0.238   6.444  0.1681  0.2023 -0.1956
  141SAPS   C1215357   4.455   0.352   6.615  0.2175  0.1444 -0.3308
  141SAPS  H12A15358   4.457   0.344   6.723 -1.6850  4.2527  0.1875
  141SAPS   C1315359   4.569   0.448   6.575  0.2365  0.4483  0.9339
  141SAPS  O13A15360   4.647   0.412   6.486 -0.2153  0.5596 -0.3010
  141SAPS  O13B15361   4.579   0.564   6.625  0.4738 -0.2838  0.6494
  141SAPS   C1115362   4.322   0.430   6.601 -0.2476 -0.2508 -0.3436
  141SAPS  H11A15363   4.311   0.464   6.495 -0.1298  0.4208 -0.1456
  141SAPS  H11B15364   4.341   0.514   6.671  2.2860 -1.5703  0.6816
  141SAPS     P15365   4.066   0.436   6.621 -0.2245  0.0666 -0.4497
  141SAPS   O1315366   3.953   0.347   6.666  0.4214 -0.0074 -0.0090
  141SAPS   O1415367   4.066   0.566   6.674  0.0176  0.0622 -0.6193
  141SAPS   O1215368   4.207   0.361   6.645  0.0186 -0.8308  0.0877
  141SAPS   O1115369   4.056   0.437   6.464  0.5258 -0.5185 -0.2152
  141SAPS    C115370   4.047   0.306   6.398 -0.2782 -0.5570  0.5287
  141SAPS    HA15371   4.087   0.222   6.458  2.3727  0.9020  0.9688
  141SAPS    HB15372   3.942   0.287   6.367 -0.1731 -1.4924  0.7256
  141SAPS    C215373   4.132   0.317   6.261 -0.0911  0.5806 -0.6767
  141SAPS    HS15374   4.237   0.307   6.296  0.0078  0.0107 -1.1252
  141SAPS   O2115375   4.103   0.451   6.201 -0.0113  0.1076 -0.1990
  141SAPS   C2115376   4.216   0.501   6.150 -0.3821  0.1267  0.8444
  141SAPS   O2215377   4.318   0.434   6.142 -0.1941  0.0219 -0.1204
  141SAPS   C2215378   4.196   0.642   6.090 -0.0199  0.0443 -0.6195
  141SAPS   H2R15379   4.124   0.633   6.005 -1.3494  0.9290  0.3708
  141SAPS   H2S15380   4.145   0.696   6.172 -0.7965 -0.2593 -0.8970
  141SAPS    C315381   4.090   0.205   6.165 -0.1713 -0.0656  0.0548
  141SAPS    HX15382   3.984   0.229   6.143  0.4735  1.6886 -1.4181
  141SAPS    HY15383   4.102   0.113   6.227 -0.6726  0.4116  0.8788
  141SAPS   O3115384   4.166   0.205   6.038 -0.8846 -0.3540 -0.1773
  141SAPS   C3115385   4.277   0.134   6.040  0.4344 -0.0249  0.2160
  141SAPS   O3215386   4.306   0.055   6.127 -0.0940 -0.3512 -0.3433
  141SAPS   C3215387   4.364   0.175   5.928 -0.1221 -0.1756 -1.6330
  141SAPS   H2X15388   4.471   0.168   5.961 -0.7291 -1.8920  0.2221
  141SAPS   H2Y15389   4.343   0.283   5.916 -1.2111 -0.0916  0.4771
  141SAPS   C2315390   4.325   0.709   6.035  0.1003  0.2514 -0.2583
  141SAPS   H3R15391   4.400   0.715   6.116 -0.1834 -1.8020  0.2006
  141SAPS   H3S15392   4.293   0.814   6.015  0.8059  0.9546  2.0615
  141SAPS   C2415393   4.371   0.652   5.900 -0.5627  0.2591  0.3461
  141SAPS   H4R15394   4.285   0.665   5.831 -0.1604  0.2876 -0.1584
  141SAPS   H4S15395   4.402   0.545   5.905  2.4572  1.0377  0.7382
  141SAPS   C2515396   4.491   0.721   5.837 -0.5502 -0.1436  0.4404
  141SAPS   H5R15397   4.585   0.724   5.893 -0.1966  0.6140 -0.1638
  141SAPS   C2615398   4.508   0.758   5.709 -0.0690 -0.0901 -0.4060
  141SAPS   H6R15399   4.602   0.799   5.668  0.2788 -4.0804 -4.2979
  141SAPS   C2715400   4.404   0.755   5.602  0.1338 -0.1156  0.5000
  141SAPS   H7R15401   4.423   0.834   5.527  0.3962 -0.4908  0.1715
  141SAPS   H7S15402   4.309   0.786   5.651 -0.0812  2.1151 -1.2095
  141SAPS   C2815403   4.391   0.616   5.553  0.5859  0.0279  0.1047
  141SAPS   H8R15404   4.322   0.554   5.613 -1.0368  0.8347 -0.8509
  141SAPS   C2915405   4.427   0.565   5.435 -0.0452  0.3588  0.1387
  141SAPS   H9R15406   4.414   0.456   5.422  2.0414  0.0542  0.2749
  141SAPS  C21015407   4.504   0.632   5.327 -0.3519  0.0371 -0.2281
  141SAPS  H10R15408   4.568   0.559   5.274  1.3551  0.1636  1.5564
  141SAPS  H10S15409   4.571   0.702   5.382 -1.0346  0.1252  0.5099
  141SAPS  C21115410   4.431   0.731   5.246  0.6302 -0.4416 -0.1190
  141SAPS  H11R15411   4.378   0.808   5.304 -1.5031 -0.7617 -1.5105
  141SAPS  C21215412   4.434   0.743   5.107  0.1187 -0.2855 -0.8313
  141SAPS  H12R15413   4.363   0.816   5.066  1.0255  2.8258  2.5573
  141SAPS  C21315414   4.493   0.656   5.005  0.4270  0.0284 -0.7201
  141SAPS  H13R15415   4.404   0.625   4.947 -0.9992 -0.6862  1.6972
  141SAPS  H13S15416   4.541   0.568   5.054  2.7663  1.3014 -0.5929
  141SAPS  C21415417   4.597   0.723   4.923 -0.5439  0.2956  0.2626
  141SAPS  H14R15418   4.602   0.832   4.931 -0.5000  0.2153  1.4666
  141SAPS  C21515419   4.686   0.652   4.848 -0.2877  0.6254 -0.0438
  141SAPS  H15R15420   4.765   0.711   4.799  1.5058 -1.7231 -0.1166
  141SAPS  C21615421   4.690   0.499   4.829 -0.4677 -0.3317 -0.1424
  141SAPS  H16R15422   4.747   0.454   4.913 -0.8255  0.1542  0.3678
  141SAPS  H16S15423   4.761   0.482   4.745 -1.7805 -0.8069 -1.1988
  141SAPS  C21715424   4.568   0.416   4.798  0.2380 -0.3947 -0.4381
  141SAPS  H17R15425   4.503   0.464   4.721 -0.2817  1.6086  1.1596
  141SAPS  H17S15426   4.505   0.423   4.890  2.2373 -0.1422  0.9713
  141SAPS  C21815427   4.613   0.268   4.772 -0.0633 -0.0246  0.1720
  141SAPS  H18R15428   4.533   0.195   4.793  2.1201 -3.6077 -2.7634
  141SAPS  H18S15429   4.694   0.242   4.844 -0.9702 -0.2410  1.1228
  141SAPS  C21915430   4.661   0.246   4.632 -1.0865 -0.3863  0.3038
  141SAPS  H19R15431   4.743   0.320   4.621 -0.2689 -1.3782 -0.4920
  141SAPS  H19S15432   4.585   0.269   4.555 -0.8924  2.3900  0.8367
  141SAPS  C22015433   4.689   0.104   4.601 -0.4355 -0.5729  0.3392
  141SAPS  H20R15434   4.788   0.083   4.648  0.6631  3.6588  0.3306
  141SAPS  H20S15435   4.714   0.091   4.494 -0.0782  2.1580  0.0168
  141SAPS  H20T15436   4.608   0.036   4.635 -0.2402 -1.1955 -0.4292
  141SAPS   C3315437   4.331   0.102   5.794  1.0636  0.0844 -0.4786
  141SAPS   H3X15438   4.221   0.112   5.779  0.5654 -3.9508 -0.7236
  141SAPS   H3Y15439   4.359  -0.005   5.805  0.4470  0.1970  3.2491
  141SAPS   C3415440   4.404   0.176   5.681 -0.1119  0.5328  0.1251
  141SAPS   H4X15441   4.505   0.197   5.720  0.9559  0.0229 -2.1728
  141SAPS   H4Y15442   4.356   0.274   5.658 -0.9970 -0.1063 -0.8955
  141SAPS   C3515443   4.422   0.094   5.555  0.1637  0.3351 -0.3766
  141SAPS   H5X15444   4.326   0.038   5.555  0.9077 -0.9679 -1.3304
  141SAPS   H5Y15445   4.514   0.035   5.570  0.6347  1.0972 -0.2113
  141SAPS   C3615446   4.430   0.168   5.423 -0.3650  0.2434 -0.1266
  141SAPS   H6X15447   4.514   0.240   5.420 -1.0127  0.9974 -0.7253
  141SAPS   H6Y15448   4.334   0.224   5.414 -2.7881 -3.4249  0.5252
  141SAPS   C3715449   4.440   0.071   5.312 -0.6073 -0.0463  0.1476
  141SAPS   H7X15450   4.346   0.012   5.308 -1.6354  1.1472  3.4170
  141SAPS   H7Y15451   4.520  -0.005   5.324 -1.8771 -1.6892 -1.1592
  141SAPS   C3815452   4.451   0.147   5.180  0.1752 -0.1193 -0.6468
  141SAPS   H8X15453   4.537   0.217   5.180  0.3438 -0.3190 -0.2171
  141SAPS   H8Y15454   4.370   0.220   5.162  0.6636  0.3738 -0.8978
  141SAPS   C3915455   4.459   0.044   5.066 -0.0859  0.2950  0.9424
  141SAPS   H9X15456   4.420   0.095   4.976  0.9394 -1.6073 -0.6520
  141SAPS   H9Y15457   4.385  -0.035   5.092  1.0363 -0.0822  3.3219
  141SAPS  C31015458   4.601  -0.005   5.043  0.2431 -0.4174  0.0589
  141SAPS  H10X15459   4.637  -0.062   5.131  0.4047 -1.6784 -0.7966
  141SAPS  H10Y15460   4.668   0.082   5.025  0.1233 -0.5829 -1.2541
  141SAPS  C31115461   4.618  -0.112   4.928  1.3794  0.4302  0.3106
  141SAPS  H11X15462   4.604  -0.064   4.829  0.6132  0.4503  0.4260
  141SAPS  H11Y15463   4.540  -0.191   4.941  2.5937 -0.7942  0.4373
  141SAPS  C31215464   4.760  -0.164   4.923  0.1743  0.1879 -0.3797
  141SAPS  H12X15465   4.765  -0.250   4.852 -0.2217  1.0931 -1.5260
  141SAPS  H12Y15466   4.772  -0.220   5.018  2.0573 -1.0072 -1.2535
  141SAPS  C31315467   4.885  -0.072   4.917 -0.1486 -0.5308  0.1656
  141SAPS  H13X15468   4.893  -0.003   5.004  0.3913  0.7548 -0.8772
  141SAPS  H13Y15469   4.879  -0.001   4.832  1.6164  1.3765  1.5357
  141SAPS  C31415470   5.018  -0.154   4.880  0.9953  0.1408 -0.0919
  141SAPS  H14X15471   5.022  -0.237   4.954 -0.9615 -0.9305 -1.1144
  141SAPS  H14Y15472   5.097  -0.081   4.906 -0.0199  0.5662  2.0118
  141SAPS  C31515473   5.018  -0.194   4.731  0.0766 -0.2778 -0.0125
  141SAPS  H15X15474   4.980  -0.103   4.679 -0.7838 -0.2224  0.7005
  141SAPS  H15Y15475   4.936  -0.268   4.721 -1.0206  0.5907  2.0884
  141SAPS  C31615476   5.146  -0.242   4.678 -0.5477 -0.4121 -0.6832
  141SAPS  H16X15477   5.193  -0.316   4.746 -1.2728 -0.2327  0.0360
  141SAPS  H16Y15478   5.219  -0.158   4.681 -0.9788 -0.0101 -1.2506
  141SAPS  C31715479   5.132  -0.300   4.539  0.6293  0.0251 -0.0752
  141SAPS  H17X15480   5.061  -0.240   4.478 -1.2722  0.1939  2.1964
  141SAPS  H17Y15481   5.094  -0.405   4.543  1.4511 -0.4080 -2.0750
  141SAPS  C31815482   5.272  -0.301   4.475 -0.6480  0.1573  0.5827
  141SAPS  H18X15483   5.322  -0.202   4.478 -0.0666 -0.1414  2.3608
  141SAPS  H18Y15484   5.277  -0.336   4.370 -0.8564 -1.2446  1.0199
  141SAPS  H18Z15485   5.334  -0.372   4.534 -0.8292  0.0873  0.6918
  142SAPS     N15486   2.945   5.634   7.081  0.9122 -0.0100 -0.0320
  142SAPS   HN115487   2.980   5.669   6.989 -0.6869  1.2993 -0.1910
  142SAPS   HN215488   2.911   5.720   7.128 -2.6279 -0.8218 -0.8087
  142SAPS   HN315489   3.019   5.586   7.137 -0.1587 -0.8490  0.6962
  142SAPS   C1215490   2.821   5.549   7.050 -0.0845 -0.0074  0.1374
  142SAPS  H12A15491   2.820   5.528   6.944  1.8085 -1.7954  0.3938
  142SAPS   C1315492   2.814   5.410   7.126  0.2482 -0.0604  0.5425
  142SAPS  O13A15493   2.881   5.397   7.229  0.0022  0.1132 -0.2053
  142SAPS  O13B15494   2.717   5.336   7.096 -0.2939  0.2177  0.0478
  142SAPS   C1115495   2.703   5.634   7.096  0.1321 -0.6012  0.1700
  142SAPS  H11A15496   2.718   5.656   7.204 -0.5811  3.5893 -0.4191
  142SAPS  H11B15497   2.606   5.584   7.076 -0.4655  1.1758 -1.6801
  142SAPS     P15498   2.579   5.850   7.016 -0.3512 -0.2765  0.1802
  142SAPS   O1315499   2.472   5.803   7.108  0.4386  0.1925  0.2836
  142SAPS   O1415500   2.620   5.989   7.043  0.0860 -0.4763  0.2576
  142SAPS   O1215501   2.699   5.759   7.027 -0.3658  0.2540  0.2421
  142SAPS   O1115502   2.539   5.857   6.864  0.2050  0.3026 -0.0235
  142SAPS    C115503   2.634   5.853   6.757 -0.1805  0.0356  0.3259
  142SAPS    HA15504   2.618   5.946   6.698  0.4774 -0.1887 -0.2288
  142SAPS    HB15505   2.739   5.880   6.784  1.1383 -0.7441 -3.3955
  142SAPS    C215506   2.630   5.730   6.670  0.1324 -0.0687 -0.0205
  142SAPS    HS15507   2.666   5.651   6.739 -0.8404 -1.0634 -0.6070
  142SAPS   O2115508   2.714   5.751   6.556 -0.4992 -0.1036 -0.0077
  142SAPS   C2115509   2.802   5.652   6.535  0.1030  0.1467  0.1296
  142SAPS   O2215510   2.807   5.549   6.599  0.4961  0.4685 -0.8874
  142SAPS   C2215511   2.892   5.692   6.421  0.3916  0.2269  0.2496
  142SAPS   H2R15512   2.829   5.754   6.353 -0.9801  0.0727  1.3454
  142SAPS   H2S15513   2.975   5.754   6.461  1.5501 -0.8990 -0.3188
  142SAPS    C315514   2.483   5.698   6.631 -0.1078  0.3646  0.1003
  142SAPS    HX15515   2.449   5.774   6.557 -1.0187 -1.3321 -1.3073
  142SAPS    HY15516   2.416   5.705   6.719 -1.0223  0.2389 -0.5634
  142SAPS   O3115517   2.484   5.567   6.573 -0.1045 -0.4335 -0.4160
  142SAPS   C3115518   2.471   5.555   6.444  0.1300  0.4082 -0.1962
  142SAPS   O3215519   2.480   5.643   6.362  0.5661 -0.4917 -0.4539
  142SAPS   C3215520   2.456   5.404   6.406  0.5996  0.1159 -0.2493
  142SAPS   H2X15521   2.350   5.387   6.374  0.2090 -0.2588  1.1835
  142SAPS   H2Y15522   2.469   5.345   6.499 -1.9423  2.0171  1.4464
  142SAPS   C2315523   2.954   5.575   6.335  0.2222  0.1023 -0.0649
  142SAPS   H3R15524   2.873   5.505   6.306 -1.0241  1.0088  1.0979
  142SAPS   H3S15525   3.028   5.520   6.397  0.7886 -0.2885 -1.0619
  142SAPS   C2415526   3.012   5.630   6.207 -1.2094 -0.8029  0.5406
  142SAPS   H4R15527   3.081   5.710   6.242 -0.7377 -1.5850  1.4702
  142SAPS   H4S15528   2.932   5.680   6.149  0.4242  0.2575 -0.8807
  142SAPS   C2515529   3.078   5.531   6.117 -0.3386  0.3687  0.2375
  142SAPS   H5R15530   3.015   5.454   6.069 -1.1789 -0.1678  2.1188
  142SAPS   C2615531   3.213   5.514   6.102  0.0364  0.1522 -0.5456
  142SAPS   H6R15532   3.254   5.444   6.028 -0.1441 -1.0075  0.4157
  142SAPS   C2715533   3.333   5.585   6.167 -0.0030  0.1333  0.2792
  142SAPS   H7R15534   3.322   5.551   6.272 -1.9525 -0.8097 -0.1828
  142SAPS   H7S15535   3.298   5.690   6.167 -1.2896 -0.1980 -2.3002
  142SAPS   C2815536   3.477   5.561   6.114 -0.1264  0.7393 -0.0155
  142SAPS   H8R15537   3.545   5.522   6.191  2.6203  1.5717 -1.8395
  142SAPS   C2915538   3.512   5.584   5.981  0.4369  0.0821 -0.2124
  142SAPS   H9R15539   3.614   5.555   5.950 -0.2366 -1.1274 -1.4300
  142SAPS  C21015540   3.435   5.632   5.864  0.2384  0.0469  0.2490
  142SAPS  H10R15541   3.497   5.698   5.800  1.4995  1.0929  2.4064
  142SAPS  H10S15542   3.353   5.698   5.900 -0.6076 -0.2821 -1.0125
  142SAPS  C21115543   3.391   5.514   5.779  0.3055 -0.4800  0.3174
  142SAPS  H11R15544   3.397   5.417   5.829  0.1500 -0.6194  0.0695
  142SAPS  C21215545   3.319   5.510   5.661 -1.3752 -0.4421 -0.3103
  142SAPS  H12R15546   3.296   5.409   5.623 -1.6837 -0.8421  0.8706
  142SAPS  C21315547   3.277   5.625   5.576  0.3103  0.5834 -0.0400
  142SAPS  H13R15548   3.312   5.601   5.474 -1.9974  1.3354 -1.0626
  142SAPS  H13S15549   3.316   5.720   5.618 -1.3029  1.8104 -1.1817
  142SAPS  C21415550   3.127   5.638   5.584 -0.1587 -0.6036  0.3456
  142SAPS  H14R15551   3.089   5.660   5.685 -1.8000  2.7857 -0.8336
  142SAPS  C21515552   3.037   5.670   5.486 -0.0924  0.3609 -0.1513
  142SAPS  H15R15553   2.934   5.687   5.522  0.0550  1.2517 -0.1279
  142SAPS  C21615554   3.042   5.685   5.334 -0.1227 -0.2649  0.2293
  142SAPS  H16R15555   3.029   5.792   5.305 -0.5663 -1.1699 -3.4505
  142SAPS  H16S15556   2.951   5.638   5.292 -0.1159 -0.3421  0.2993
  142SAPS  C21715557   3.163   5.646   5.256  0.4759  0.3771  0.5930
  142SAPS  H17R15558   3.189   5.539   5.268 -1.8738 -0.1525  1.3892
  142SAPS  H17S15559   3.251   5.702   5.296  1.2542 -0.6316  0.3339
  142SAPS  C21815560   3.139   5.667   5.107 -0.2210 -0.5768 -0.7704
  142SAPS  H18R15561   3.120   5.773   5.080 -1.1057 -0.3756  0.5905
  142SAPS  H18S15562   3.066   5.595   5.067 -1.9960  1.0411 -0.5792
  142SAPS  C21915563   3.274   5.645   5.038 -0.0013 -0.1618 -0.0470
  142SAPS  H19R15564   3.299   5.541   5.070  0.7605 -0.6443 -2.0355
  142SAPS  H19S15565   3.347   5.720   5.075  0.7291 -0.4445 -0.8664
  142SAPS  C22015566   3.266   5.652   4.891 -0.3940  0.1342  0.1542
  142SAPS  H20R15567   3.350   5.595   4.845 -0.6161 -1.0951  1.1937
  142SAPS  H20S15568   3.254   5.757   4.857 -1.9968 -0.4740 -1.3314
  142SAPS  H20T15569   3.176   5.596   4.856 -1.1159  1.3065  0.1000
  142SAPS   C3315570   2.555   5.361   6.302 -0.1770 -0.3582  0.1696
  142SAPS   H3X15571   2.544   5.251   6.292 -1.1744 -0.2192 -0.4275
  142SAPS   H3Y15572   2.657   5.380   6.341 -0.3044  0.5964  0.0496
  142SAPS   C3415573   2.547   5.408   6.157 -0.1869  0.8783 -0.5031
  142SAPS   H4X15574   2.526   5.517   6.150  1.7667  1.4365  1.2146
  142SAPS   H4Y15575   2.458   5.362   6.112  1.1642 -1.4440 -0.9479
  142SAPS   C3515576   2.669   5.379   6.069  0.1246 -0.4003 -1.2601
  142SAPS   H5X15577   2.716   5.280   6.080  1.5029  0.3934  0.4098
  142SAPS   H5Y15578   2.749   5.447   6.105 -2.1472  1.6359  0.2447
  142SAPS   C3615579   2.643   5.407   5.922 -0.0467  0.1367 -0.3858
  142SAPS   H6X15580   2.618   5.515   5.910  0.0445  0.2354  0.2852
  142SAPS   H6Y15581   2.561   5.338   5.894 -0.0278 -1.0996  2.2886
  142SAPS   C3715582   2.768   5.374   5.835 -0.3346 -0.3751 -0.8108
  142SAPS   H7X15583   2.779   5.265   5.816 -0.2863 -0.1769 -2.0236
  142SAPS   H7Y15584   2.852   5.412   5.897 -1.4631  1.1194 -0.1456
  142SAPS   C3815585   2.767   5.456   5.709 -0.2037 -0.2787 -0.2367
  142SAPS   H8X15586   2.860   5.431   5.654  0.4808 -2.8549  1.8963
  142SAPS   H8Y15587   2.769   5.563   5.741  1.3393 -0.8195  1.6306
  142SAPS   C3915588   2.631   5.446   5.634 -0.2565  0.5157  0.3291
  142SAPS   H9X15589   2.560   5.498   5.703 -0.2195  0.5553  0.3373
  142SAPS   H9Y15590   2.592   5.342   5.633  1.6470 -0.2301  0.5478
  142SAPS  C31015591   2.630   5.527   5.511 -0.8550  0.7790 -0.0147
  142SAPS  H10X15592   2.696   5.617   5.518  0.2084  0.0381 -0.2199
  142SAPS  H10Y15593   2.528   5.570   5.506 -0.9339  0.6575  0.5542
  142SAPS  C31115594   2.652   5.451   5.383 -0.0809 -0.3352 -0.3262
  142SAPS  H11X15595   2.586   5.361   5.388  0.7350 -0.8902  0.9087
  142SAPS  H11Y15596   2.753   5.406   5.370 -0.4015 -0.7606 -1.4684
  142SAPS  C31215597   2.629   5.532   5.257  0.3201 -0.2425 -0.0446
  142SAPS  H12X15598   2.708   5.609   5.257 -0.1893  0.2881 -0.3051
  142SAPS  H12Y15599   2.536   5.590   5.241  1.4825  1.6845 -0.0841
  142SAPS  C31315600   2.646   5.432   5.136 -0.6491  0.7774 -1.1411
  142SAPS  H13X15601   2.561   5.361   5.124 -0.4989  0.4387 -0.2803
  142SAPS  H13Y15602   2.735   5.370   5.161  0.1148  1.3236 -2.4481
  142SAPS  C31415603   2.684   5.490   4.998 -0.0371  0.3585  0.2117
  142SAPS  H14X15604   2.722   5.409   4.932 -0.4468 -0.4956  1.0080
  142SAPS  H14Y15605   2.758   5.574   5.004 -0.7811  1.0029  0.5182
  142SAPS  C31515606   2.560   5.538   4.921  0.4853  0.1133 -0.2440
  142SAPS  H15X15607   2.529   5.628   4.978  3.1429  2.4489 -2.2731
  142SAPS  H15Y15608   2.484   5.461   4.948  1.5072 -0.1722  2.0506
  142SAPS  C31615609   2.589   5.555   4.770 -0.1275  0.4461  0.6324
  142SAPS  H16X15610   2.590   5.455   4.722 -0.2748 -0.0670  1.6644
  142SAPS  H16Y15611   2.694   5.590   4.755 -0.4393  0.9288 -0.5098
  142SAPS  C31715612   2.478   5.645   4.711  0.3821 -0.1015 -0.4147
  142SAPS  H17X15613   2.381   5.596   4.729 -0.3185  0.7716 -1.6126
  142SAPS  H17Y15614   2.486   5.636   4.600 -2.1229  0.4070 -0.6846
  142SAPS  C31815615   2.486   5.792   4.755  0.0744  0.3697 -0.2381
  142SAPS  H18X15616   2.592   5.817   4.732  0.9408 -0.5275  2.4069
  142SAPS  H18Y15617   2.459   5.816   4.860  0.1160  2.7218 -0.7164
  142SAPS  H18Z15618   2.413   5.857   4.703  1.3006  3.0358  1.1743
  143SAPS     N15619   1.627   2.398   6.688  0.2898  0.0626 -0.0909
  143SAPS   HN115620   1.567   2.321   6.725 -1.8032  1.5742 -0.1669
  143SAPS   HN215621   1.615   2.486   6.742  1.3154  0.0211  0.2176
  143SAPS   HN315622   1.603   2.416   6.588  0.4456  2.0530  0.1954
  143SAPS   C1215623   1.773   2.366   6.687 -0.3525  0.2637  0.3911
  143SAPS  H12A15624   1.815   2.432   6.613  1.0725 -1.2777 -0.2537
  143SAPS   C1315625   1.856   2.397   6.816  0.2682  0.7758 -0.1395
  143SAPS  O13A15626   1.804   2.426   6.926 -0.5448  0.2951  0.4831
  143SAPS  O13B15627   1.980   2.386   6.801 -0.2011 -0.0364 -0.9197
  143SAPS   C1115628   1.790   2.214   6.649  0.6361 -0.1670 -0.5485
  143SAPS  H11A15629   1.741   2.158   6.731 -0.3001  2.1619  0.5671
  143SAPS  H11B15630   1.896   2.186   6.665  0.6833  0.6677  0.7646
  143SAPS     P15631   1.825   2.145   6.397  0.2713  0.0325 -0.4639
  143SAPS   O1315632   1.840   2.002   6.409 -0.0310 -0.0553 -0.4530
  143SAPS   O1415633   1.756   2.206   6.280 -0.2556  0.5214  0.1944
  143SAPS   O1215634   1.732   2.176   6.522 -0.3689  0.1666 -0.1864
  143SAPS   O1115635   1.968   2.208   6.427 -0.3370  0.8048  0.4944
  143SAPS    C115636   2.082   2.140   6.365 -0.0313  0.3856 -0.3280
  143SAPS    HA15637   2.163   2.161   6.438  0.5880  1.7823 -1.3692
  143SAPS    HB15638   2.075   2.031   6.347  1.0478 -0.0025  1.3422
  143SAPS    C215639   2.127   2.208   6.229 -0.2835  0.2987  0.0145
  143SAPS    HS15640   2.154   2.315   6.246 -0.3822  0.5974 -1.4912
  143SAPS   O2115641   2.026   2.184   6.130 -0.3173 -0.2486  0.3521
  143SAPS   C2115642   1.994   2.287   6.052 -0.0819 -0.1597 -0.1338
  143SAPS   O2215643   2.060   2.389   6.052 -0.3615 -0.2481 -0.3505
  143SAPS   C2215644   1.874   2.259   5.966 -0.4915  0.0227  1.0189
  143SAPS   H2R15645   1.852   2.150   5.975 -0.3450 -0.2208 -1.0511
  143SAPS   H2S15646   1.788   2.314   6.009 -1.9305  0.4814 -2.1926
  143SAPS    C315647   2.257   2.138   6.173  0.0383  0.3616  0.2810
  143SAPS    HX15648   2.232   2.032   6.154 -2.2104  0.8440  0.2777
  143SAPS    HY15649   2.322   2.135   6.263 -1.2722  1.6377  1.3428
  143SAPS   O3115650   2.317   2.200   6.055  0.0334  0.2134  0.0467
  143SAPS   C3115651   2.406   2.302   6.093 -0.0466  0.6504  0.3789
  143SAPS   O3215652   2.416   2.338   6.204 -0.0108 -0.0329 -0.5368
  143SAPS   C3215653   2.466   2.349   5.963 -0.7409 -0.1149 -0.1411
  143SAPS   H2X15654   2.396   2.347   5.876  0.8288 -2.2957 -1.4696
  143SAPS   H2Y15655   2.546   2.275   5.941  0.3520  0.8927  0.2776
  143SAPS   C2315656   1.906   2.306   5.825  0.4693 -0.5768 -0.7332
  143SAPS   H3R15657   1.948   2.409   5.824 -0.7317 -0.0433  0.1937
  143SAPS   H3S15658   1.810   2.322   5.770 -0.3881 -0.2755  0.7818
  143SAPS   C2415659   1.997   2.215   5.750 -0.4213  0.5062 -0.1068
  143SAPS   H4R15660   1.947   2.168   5.663  1.3325  1.2930 -1.6203
  143SAPS   H4S15661   2.033   2.139   5.823  0.3717  3.4057  2.7948
  143SAPS   C2515662   2.128   2.286   5.723 -0.9460  0.2193 -0.6987
  143SAPS   H5R15663   2.187   2.308   5.813  1.6212 -0.8021 -1.9959
  143SAPS   C2615664   2.194   2.311   5.608  0.0531  0.6447  0.3698
  143SAPS   H6R15665   2.292   2.361   5.607  0.5187 -0.2419  0.6700
  143SAPS   C2715666   2.135   2.274   5.474  0.4773 -0.6702 -0.4271
  143SAPS   H7R15667   2.051   2.202   5.490  0.4456 -0.3640  0.9056
  143SAPS   H7S15668   2.213   2.222   5.415 -1.0984 -2.1730 -1.2902
  143SAPS   C2815669   2.082   2.394   5.404 -0.1117  0.3697  0.0092
  143SAPS   H8R15670   2.029   2.463   5.472 -1.1609 -1.3119  0.9679
  143SAPS   C2915671   2.081   2.412   5.268 -0.3550 -0.1517 -0.9134
  143SAPS   H9R15672   2.028   2.501   5.233 -0.9879 -0.5621 -1.0052
  143SAPS  C21015673   2.143   2.319   5.168  0.2908  0.1326  0.0515
  143SAPS  H10R15674   2.140   2.216   5.211 -1.7411  1.0043  2.2099
  143SAPS  H10S15675   2.250   2.340   5.148  0.0685  1.3036  0.0114
  143SAPS  C21115676   2.062   2.322   5.038  0.2700 -0.1455  0.3234
  143SAPS  H11R15677   1.953   2.326   5.050  0.1895  1.6685 -0.6993
  143SAPS  C21215678   2.105   2.329   4.906 -0.8919  0.3261  0.3405
  143SAPS  H12R15679   2.033   2.315   4.825 -0.0802 -1.4295 -0.1219
  143SAPS  C21315680   2.252   2.335   4.863  0.5944 -0.5160  0.4789
  143SAPS  H13R15681   2.302   2.281   4.946 -1.0298 -0.5917  1.4573
  143SAPS  H13S15682   2.291   2.439   4.873 -1.2893  0.4103 -0.9576
  143SAPS  C21415683   2.280   2.276   4.727 -0.4447  0.5593 -1.2074
  143SAPS  H14R15684   2.243   2.174   4.710  0.5746  0.2300 -1.5270
  143SAPS  C21515685   2.337   2.335   4.622 -0.5167 -0.5059 -0.6355
  143SAPS  H15R15686   2.344   2.280   4.527 -1.9656 -0.8613 -0.5655
  143SAPS  C21615687   2.393   2.479   4.627 -0.5600  0.1089 -0.3993
  143SAPS  H16R15688   2.484   2.467   4.565 -1.3832 -2.5726 -1.2084
  143SAPS  H16S15689   2.435   2.507   4.726  1.2703 -3.1668 -0.0881
  143SAPS  C21715690   2.304   2.590   4.569 -0.1099 -0.3694  0.1363
  143SAPS  H17R15691   2.347   2.687   4.603 -0.1016 -0.2239 -0.2937
  143SAPS  H17S15692   2.210   2.582   4.627  0.2422 -0.8791  0.6538
  143SAPS  C21815693   2.280   2.590   4.420 -0.7130  0.8495  1.1552
  143SAPS  H18R15694   2.187   2.648   4.398 -0.1453  1.5853  0.6660
  143SAPS  H18S15695   2.274   2.488   4.375  0.7456  2.0841 -2.1448
  143SAPS  C21915696   2.394   2.653   4.347  0.1534 -0.0672  0.3524
  143SAPS  H19R15697   2.439   2.732   4.410 -0.4767  0.3340  0.3108
  143SAPS  H19S15698   2.365   2.704   4.252 -0.5368 -1.8335 -0.4324
  143SAPS  C22015699   2.505   2.555   4.297 -1.1258  0.2617 -0.3141
  143SAPS  H20R15700   2.590   2.603   4.244  1.5375  0.5672  3.7949
  143SAPS  H20S15701   2.466   2.472   4.235 -0.1933 -1.0095  0.7506
  143SAPS  H20T15702   2.544   2.493   4.381 -0.1606 -0.2538 -1.1265
  143SAPS   C3315703   2.539   2.490   5.972  0.2119 -0.1352 -0.7709
  143SAPS   H3X15704   2.614   2.493   6.053  0.9026 -3.1609 -1.1942
  143SAPS   H3Y15705   2.461   2.565   5.997 -0.6958 -1.4781  0.5469
  143SAPS   C3415706   2.599   2.524   5.838  0.5980 -0.0335  0.7532
  143SAPS   H4X15707   2.632   2.433   5.785  0.3053  0.5274 -0.4392
  143SAPS   H4Y15708   2.687   2.589   5.856  1.5129 -0.6713 -1.1871
  143SAPS   C3515709   2.504   2.604   5.749  0.2535  0.5302  0.2832
  143SAPS   H5X15710   2.499   2.713   5.771 -1.9821  0.4965  0.1994
  143SAPS   H5Y15711   2.402   2.570   5.777 -0.3233  2.0182  0.0349
  143SAPS   C3615712   2.526   2.583   5.599  0.1253  0.2485 -0.1593
  143SAPS   H6X15713   2.530   2.473   5.583  0.0906  0.0238  1.2470
  143SAPS   H6Y15714   2.626   2.624   5.571  1.4058 -0.8523  2.4320
  143SAPS   C3715715   2.417   2.634   5.507 -0.3059 -0.3881 -0.6755
  143SAPS   H7X15716   2.400   2.743   5.522  1.3195 -0.2975  0.8841
  143SAPS   H7Y15717   2.322   2.592   5.545  0.3911 -0.9945  0.4607
  143SAPS   C3815718   2.436   2.621   5.351 -0.2957  0.3328  0.2438
  143SAPS   H8X15719   2.425   2.513   5.327 -0.9570  0.3673  0.3558
  143SAPS   H8Y15720   2.543   2.637   5.329 -0.3534  0.2056 -0.1365
  143SAPS   C3915721   2.332   2.708   5.273  0.0505 -0.5248 -0.0296
  143SAPS   H9X15722   2.346   2.816   5.299  0.2208 -0.2776 -1.0808
  143SAPS   H9Y15723   2.231   2.681   5.309  0.2669 -0.1910  0.8515
  143SAPS  C31015724   2.340   2.698   5.118 -0.1389  0.7050  0.4973
  143SAPS  H10X15725   2.315   2.594   5.090 -1.4528  1.5454 -1.6569
  143SAPS  H10Y15726   2.448   2.716   5.100  0.2635  0.9159  2.7735
  143SAPS  C31115727   2.271   2.813   5.042 -0.3474 -0.9057 -0.1899
  143SAPS  H11X15728   2.332   2.905   5.059 -0.6531 -0.7905  0.3003
  143SAPS  H11Y15729   2.166   2.833   5.072 -0.6748  2.3534 -3.0041
  143SAPS  C31215730   2.272   2.789   4.895  0.1627 -0.8407  0.8150
  143SAPS  H12X15731   2.233   2.686   4.879  0.0810 -0.7547  0.4326
  143SAPS  H12Y15732   2.375   2.789   4.855  0.2932 -0.9956  1.1468
  143SAPS  C31315733   2.186   2.896   4.830  0.2440  0.5413 -0.5783
  143SAPS  H13X15734   2.085   2.882   4.875  0.6585  0.5853  0.3995
  143SAPS  H13Y15735   2.187   2.871   4.722  0.3431 -2.6817  0.0876
  143SAPS  C31415736   2.235   3.045   4.849 -0.1104  0.6154 -0.4578
  143SAPS  H14X15737   2.340   3.033   4.883 -0.2786 -3.1727 -0.8905
  143SAPS  H14Y15738   2.179   3.072   4.941  0.4566 -1.9756  0.7375
  143SAPS  C31515739   2.213   3.135   4.729  0.1757 -0.5121  0.1401
  143SAPS  H15X15740   2.239   3.238   4.760  0.7164 -0.3659 -0.7498
  143SAPS  H15Y15741   2.108   3.127   4.693 -0.0554 -0.0632  0.7137
  143SAPS  C31615742   2.311   3.111   4.612  0.2630 -0.2685 -0.3318
  143SAPS  H16X15743   2.269   3.023   4.558  2.0499 -0.3889 -1.5990
  143SAPS  H16Y15744   2.414   3.084   4.644  0.7106  0.6753 -0.9361
  143SAPS  C31715745   2.307   3.229   4.505  0.8634 -0.3463 -0.4171
  143SAPS  H17X15746   2.383   3.205   4.427  0.8627  1.4645 -1.0156
  143SAPS  H17Y15747   2.346   3.321   4.554  0.6084 -0.7859  0.6398
  143SAPS  C31815748   2.172   3.256   4.439  0.5759  0.2562  0.3733
  143SAPS  H18X15749   2.175   3.350   4.379 -1.4846 -0.5189 -1.0940
  143SAPS  H18Y15750   2.089   3.280   4.510 -0.4271  1.5702 -1.1616
  143SAPS  H18Z15751   2.136   3.174   4.373  0.6118 -0.6994  1.5232
  144SAPS     N15752   5.294   6.154   6.517  0.0894 -0.0308 -0.2187
  144SAPS   HN115753   5.350   6.156   6.429  0.4072  0.2533 -0.0163
  144SAPS   HN215754   5.200   6.126   6.482  1.1374 -1.1654 -2.3600
  144SAPS   HN315755   5.284   6.251   6.553  0.3295  0.0124 -0.2669
  144SAPS   C1215756   5.348   6.056   6.611 -0.0832 -0.2064 -0.5013
  144SAPS  H12A15757   5.450   6.086   6.627 -0.6174  1.7717 -0.4728
  144SAPS   C1315758   5.276   6.044   6.749  0.6738 -0.2667  0.4378
  144SAPS  O13A15759   5.161   6.101   6.766 -0.4335 -0.1092  0.2234
  144SAPS  O13B15760   5.327   5.977   6.840  0.0938  0.7446 -0.5267
  144SAPS   C1115761   5.355   5.919   6.544 -0.4892  0.0879  1.1214
  144SAPS  H11A15762   5.414   5.857   6.616  1.0230  0.3695  0.1557
  144SAPS  H11B15763   5.411   5.928   6.449 -1.8216  0.7503  0.3684
  144SAPS     P15764   5.145   5.826   6.399 -0.3558 -0.6870 -0.6880
  144SAPS   O1315765   5.192   5.695   6.358 -0.0283  0.7179 -0.5469
  144SAPS   O1415766   5.002   5.837   6.432  0.4780  0.3274 -0.1966
  144SAPS   O1215767   5.229   5.854   6.531 -0.1986  0.0543 -0.0033
  144SAPS   O1115768   5.194   5.932   6.291 -0.0039 -0.2954 -0.3402
  144SAPS    C115769   5.107   6.015   6.220 -0.1323 -0.0658  0.5793
  144SAPS    HA15770   5.009   6.034   6.268  0.4359  1.9218  1.0379
  144SAPS    HB15771   5.146   6.118   6.202  1.4458 -0.9045 -1.2176
  144SAPS    C215772   5.087   5.958   6.073  0.3070  0.0867 -0.4074
  144SAPS    HS15773   5.046   6.035   6.005  1.6920  0.8598 -0.4108
  144SAPS   O2115774   5.018   5.831   6.073  0.3670  0.4215  0.5552
  144SAPS   C2115775   4.885   5.834   6.094 -0.5292  0.0544  0.2993
  144SAPS   O2215776   4.818   5.933   6.109 -0.5486  0.5452  0.2046
  144SAPS   C2215777   4.834   5.692   6.109  0.0271 -0.1045 -0.0924
  144SAPS   H2R15778   4.885   5.627   6.034 -0.9148 -3.7305  2.1407
  144SAPS   H2S15779   4.863   5.663   6.212  0.6477 -0.4547 -0.3542
  144SAPS    C315780   5.224   5.925   6.001 -0.4021 -0.0240 -0.1597
  144SAPS    HX15781   5.266   5.834   6.049 -3.1720 -2.4736 -2.0936
  144SAPS    HY15782   5.298   6.007   6.015  2.6997 -2.5298 -0.7385
  144SAPS   O3115783   5.190   5.887   5.867 -0.6649 -0.6497  0.3928
  144SAPS   C3115784   5.185   5.762   5.833 -1.0994 -1.1001  0.4688
  144SAPS   O3215785   5.220   5.666   5.904  0.6636  0.2961  0.6628
  144SAPS   C3215786   5.114   5.749   5.696  0.6405 -0.3486 -0.5113
  144SAPS   H2X15787   5.077   5.844   5.652  1.0354 -0.0367 -0.1743
  144SAPS   H2Y15788   5.027   5.681   5.711 -0.1482  0.6345 -0.5646
  144SAPS   C2315789   4.676   5.690   6.097 -0.0682  0.6281 -0.1039
  144SAPS   H3R15790   4.644   5.772   6.164 -0.0209  0.1290  0.5359
  144SAPS   H3S15791   4.647   5.593   6.141  1.0338 -0.5857 -1.9005
  144SAPS   C2415792   4.614   5.712   5.958  0.1830  0.1268  0.1680
  144SAPS   H4R15793   4.653   5.814   5.938  0.0119  0.3321  0.8714
  144SAPS   H4S15794   4.509   5.716   5.992  0.4421  1.7911  0.8898
  144SAPS   C2515795   4.651   5.606   5.853 -0.3645  1.0063  0.4915
  144SAPS   H5R15796   4.759   5.589   5.848 -0.3551  1.1989  0.0042
  144SAPS   C2615797   4.566   5.532   5.774 -0.2451 -0.7457  0.5854
  144SAPS   H6R15798   4.606   5.441   5.727  1.1962 -0.2867  0.9030
  144SAPS   C2715799   4.414   5.534   5.784  0.3696  0.1068 -0.2467
  144SAPS   H7R15800   4.366   5.555   5.686 -0.7312 -0.9057  0.0664
  144SAPS   H7S15801   4.378   5.609   5.858 -0.0263  0.4793 -0.8066
  144SAPS   C2815802   4.365   5.401   5.830  0.3783  0.3573 -0.3823
  144SAPS   H8R15803   4.370   5.381   5.938  0.1042 -2.3517 -0.7931
  144SAPS   C2915804   4.290   5.314   5.758 -0.0793  0.0322 -0.0565
  144SAPS   H9R15805   4.284   5.213   5.802  0.0920  0.4026  0.8205
  144SAPS  C21015806   4.250   5.325   5.613 -0.5147  0.2938  0.1242
  144SAPS  H10R15807   4.276   5.227   5.566 -0.3987  0.4766 -0.2009
  144SAPS  H10S15808   4.302   5.406   5.557 -0.5055  1.1769  1.3935
  144SAPS  C21115809   4.100   5.329   5.600  0.6784  0.9128  0.7808
  144SAPS  H11R15810   4.049   5.280   5.684 -0.0798  1.3090  0.5616
  144SAPS  C21215811   4.029   5.364   5.495  0.0888  0.0966  0.3944
  144SAPS  H12R15812   3.920   5.348   5.490 -0.1577  1.9366 -1.0376
  144SAPS  C21315813   4.090   5.424   5.377 -0.9430 -0.8132 -0.4092
  144SAPS  H13R15814   4.153   5.501   5.426 -1.6417 -1.0154  0.8566
  144SAPS  H13S15815   4.016   5.482   5.318  0.7437  0.1946 -1.6105
  144SAPS  C21415816   4.171   5.338   5.288  0.1435  0.2476 -0.0523
  144SAPS  H14R15817   4.147   5.230   5.289 -0.1847  0.3082  1.5436
  144SAPS  C21515818   4.266   5.374   5.199  0.6028 -1.2641  0.5869
  144SAPS  H15R15819   4.318   5.286   5.157 -0.7620 -1.5210 -0.6595
  144SAPS  C21615820   4.328   5.509   5.182  0.0714 -0.1288  0.5368
  144SAPS  H16R15821   4.263   5.592   5.217  0.8870  1.4231 -1.4755
  144SAPS  H16S15822   4.329   5.529   5.073  1.2185  1.2255  0.7697
  144SAPS  C21715823   4.469   5.521   5.243  0.0918  0.2964  0.3795
  144SAPS  H17R15824   4.464   5.511   5.354  0.1375  0.1116  0.3650
  144SAPS  H17S15825   4.519   5.619   5.227 -0.3792  0.5767  0.6078
  144SAPS  C21815826   4.562   5.412   5.183  0.0174 -0.3550 -0.4586
  144SAPS  H18R15827   4.523   5.311   5.208 -0.6789  0.2213  0.8378
  144SAPS  H18S15828   4.648   5.431   5.251 -0.9142  2.3618  0.0608
  144SAPS  C21915829   4.599   5.441   5.032 -0.2345 -0.1602  0.1375
  144SAPS  H19R15830   4.600   5.551   5.019  0.8197 -0.0643  0.9174
  144SAPS  H19S15831   4.520   5.391   4.972 -0.5090 -1.4427  1.4932
  144SAPS  C22015832   4.732   5.377   5.002 -1.1480 -0.2634 -0.2364
  144SAPS  H20R15833   4.771   5.406   4.902 -3.7353 -0.9281 -1.5086
  144SAPS  H20S15834   4.713   5.268   4.993 -0.6283 -0.2120 -3.2681
  144SAPS  H20T15835   4.810   5.391   5.080 -1.2525  2.3310 -0.5116
  144SAPS   C3315836   5.202   5.681   5.598  0.0731  0.3040  0.5076
  144SAPS   H3X15837   5.216   5.571   5.609 -1.9559  0.0569  1.0411
  144SAPS   H3Y15838   5.303   5.727   5.600  0.4280 -0.3958 -0.6218
  144SAPS   C3415839   5.149   5.704   5.459 -0.7207  0.5806 -0.8742
  144SAPS   H4X15840   5.123   5.809   5.435 -0.1089  1.1383  0.7475
  144SAPS   H4Y15841   5.057   5.643   5.458 -0.7832  0.6782 -0.9972
  144SAPS   C3515842   5.232   5.645   5.338 -0.7393 -0.4404  0.0891
  144SAPS   H5X15843   5.268   5.547   5.376 -0.2015  0.1785  1.2222
  144SAPS   H5Y15844   5.319   5.711   5.320  0.0083 -1.4561 -0.1141
  144SAPS   C3615845   5.150   5.627   5.219  0.4957  0.2453 -0.4123
  144SAPS   H6X15846   5.098   5.717   5.177 -0.6265 -0.7651 -1.2640
  144SAPS   H6Y15847   5.068   5.553   5.232 -0.2519  1.3636  1.7891
  144SAPS   C3715848   5.241   5.589   5.103 -0.0277 -0.7087  0.2373
  144SAPS   H7X15849   5.298   5.500   5.139 -0.3382 -0.2149  2.0308
  144SAPS   H7Y15850   5.318   5.667   5.084  1.0160 -1.9212 -0.7555
  144SAPS   C3815851   5.167   5.548   4.983 -0.6886  0.7303  0.1564
  144SAPS   H8X15852   5.154   5.641   4.923  1.7525  0.5981 -0.6890
  144SAPS   H8Y15853   5.066   5.508   5.005  0.3284 -1.6596  0.7573
  144SAPS   C3915854   5.250   5.454   4.890  1.0092 -0.0299  0.4649
  144SAPS   H9X15855   5.256   5.353   4.935 -0.7546 -1.1140 -1.5306
  144SAPS   H9Y15856   5.351   5.501   4.894  0.7372  0.7126 -0.6543
  144SAPS  C31015857   5.192   5.422   4.743 -0.5703 -0.0323  0.0070
  144SAPS  H10X15858   5.266   5.352   4.698 -0.8302  0.5359 -1.3744
  144SAPS  H10Y15859   5.204   5.521   4.693  0.8936 -0.4384 -0.5043
  144SAPS  C31115860   5.043   5.379   4.753  0.1192 -0.3674 -0.1915
  144SAPS  H11X15861   4.984   5.471   4.769  0.0707 -0.4812  0.3154
  144SAPS  H11Y15862   5.038   5.319   4.847  2.7754  1.8392  1.5090
  144SAPS  C31215863   5.013   5.298   4.637  0.2738 -0.2831  0.0857
  144SAPS  H12X15864   5.082   5.211   4.633 -1.6050 -1.8873  0.7543
  144SAPS  H12Y15865   5.024   5.350   4.539 -1.9359  0.3540  0.1298
  144SAPS  C31315866   4.864   5.247   4.627 -1.2360  0.8314 -0.1316
  144SAPS  H13X15867   4.800   5.337   4.631 -0.8536  1.0389  2.6692
  144SAPS  H13Y15868   4.842   5.180   4.712  0.8444 -0.8649 -0.8327
  144SAPS  C31415869   4.839   5.162   4.500 -0.4175 -0.0847  0.1561
  144SAPS  H14X15870   4.728   5.152   4.503 -0.3114 -1.3846  0.3280
  144SAPS  H14Y15871   4.878   5.060   4.519 -0.6035 -0.0378  0.7948
  144SAPS  C31515872   4.877   5.231   4.364 -0.4410 -0.2790 -0.4419
  144SAPS  H15X15873   4.981   5.212   4.330  0.6527  2.1439  1.2563
  144SAPS  H15Y15874   4.876   5.340   4.383 -0.7235 -0.1209 -1.3102
  144SAPS  C31615875   4.773   5.205   4.248  0.5710 -0.2353 -0.0470
  144SAPS  H16X15876   4.670   5.197   4.290  0.4993  0.1479 -0.1381
  144SAPS  H16Y15877   4.798   5.107   4.203  0.1593  0.0918 -1.0123
  144SAPS  C31715878   4.775   5.319   4.143  0.0074 -0.8894  0.6266
  144SAPS  H17X15879   4.877   5.347   4.108 -0.3729  0.1899  0.3536
  144SAPS  H17Y15880   4.748   5.409   4.202  2.6825  2.9334 -3.3926
  144SAPS  C31815881   4.684   5.290   4.024 -0.0971 -0.5632  0.2195
  144SAPS  H18X15882   4.711   5.200   3.966 -2.1261 -1.1081  0.0488
  144SAPS  H18Y15883   4.687   5.375   3.952  0.1017 -0.4302  0.3839
  144SAPS  H18Z15884   4.583   5.284   4.070  1.2446  0.7530  3.7555
  145SAPS     N15885   2.154   2.708   6.460 -0.3403 -0.0628 -0.2430
  145SAPS   HN115886   2.206   2.650   6.391 -0.8077 -1.1420  0.2935
  145SAPS   HN215887   2.109   2.638   6.522 -2.0276  3.0504  2.3780
  145SAPS   HN315888   2.077   2.756   6.410  0.5732  1.1962 -0.5062
  145SAPS   C1215889   2.233   2.806   6.537 -0.3751 -0.6646  0.3717
  145SAPS  H12A15890   2.165   2.833   6.617 -1.4074 -2.9707  0.3535
  145SAPS   C1315891   2.367   2.762   6.608 -1.1889 -0.3203 -0.0747
  145SAPS  O13A15892   2.417   2.649   6.573 -0.2803 -0.0864  0.2786
  145SAPS  O13B15893   2.425   2.838   6.691  0.5771 -0.2526 -0.3565
  145SAPS   C1115894   2.263   2.933   6.448 -0.7201  0.5984 -0.3551
  145SAPS  H11A15895   2.340   2.910   6.372  0.1664 -0.9884  0.9419
  145SAPS  H11B15896   2.316   3.008   6.511  0.7119 -2.8905  3.0095
  145SAPS     P15897   2.051   3.083   6.455  0.2252  0.2703 -0.3317
  145SAPS   O1315898   1.974   2.998   6.548 -0.2714 -0.1226 -0.1033
  145SAPS   O1415899   2.118   3.202   6.511 -0.2872  0.5525  0.3304
  145SAPS   O1215900   2.149   2.990   6.377 -0.0321  0.7227  0.3896
  145SAPS   O1115901   1.956   3.131   6.350 -0.1347  0.4716 -0.2536
  145SAPS    C115902   1.992   3.197   6.235 -0.1007 -0.2381 -0.4212
  145SAPS    HA15903   1.904   3.256   6.199  0.6484 -0.2535 -2.4232
  145SAPS    HB15904   2.075   3.269   6.247 -1.0534  0.7699  0.3349
  145SAPS    C215905   2.003   3.103   6.110 -0.0833 -0.5173  0.0407
  145SAPS    HS15906   2.098   3.046   6.118  0.4443  0.2275 -0.7299
  145SAPS   O2115907   1.997   3.182   5.991 -0.2056 -0.0389  0.1398
  145SAPS   C2115908   2.110   3.196   5.922  0.7935  0.6811 -0.3937
  145SAPS   O2215909   2.219   3.157   5.963 -0.2222 -0.7528 -0.1469
  145SAPS   C2215910   2.092   3.274   5.793 -0.6790 -0.0078  0.5260
  145SAPS   H2R15911   1.995   3.329   5.782 -0.2687  0.6139 -0.0951
  145SAPS   H2S15912   2.177   3.345   5.795 -0.9103  0.2452  1.6994
  145SAPS    C315913   1.883   3.002   6.101 -0.3571  0.8048  0.3736
  145SAPS    HX15914   1.793   3.066   6.111 -1.5867 -0.2019 -3.0353
  145SAPS    HY15915   1.902   2.929   6.183  0.8684  2.7817  1.9669
  145SAPS   O3115916   1.870   2.931   5.973  0.1349 -0.2294  0.1467
  145SAPS   C3115917   1.971   2.840   5.949 -0.1115 -0.5722 -0.8216
  145SAPS   O3215918   2.050   2.799   6.032  0.4690 -0.3054  0.0660
  145SAPS   C3215919   1.953   2.788   5.811 -0.3958 -0.6857 -0.2093
  145SAPS   H2X15920   1.918   2.875   5.751  1.3487 -0.2671 -0.6924
  145SAPS   H2Y15921   1.870   2.715   5.811 -2.2441  1.3237  0.6226
  145SAPS   C2315922   2.125   3.176   5.679  0.4948 -0.0294  0.4612
  145SAPS   H3R15923   2.036   3.112   5.658 -0.3517  0.3515  2.6153
  145SAPS   H3S15924   2.206   3.103   5.699  1.2289  0.5844 -0.2369
  145SAPS   C2415925   2.163   3.256   5.555 -0.1347 -0.0116  0.5138
  145SAPS   H4R15926   2.232   3.340   5.582  1.1106 -0.8089 -0.1160
  145SAPS   H4S15927   2.075   3.301   5.505 -0.4663 -2.5648 -1.3542
  145SAPS   C2515928   2.217   3.162   5.449  0.0413 -0.5943 -0.0740
  145SAPS   H5R15929   2.277   3.078   5.486  0.5468  0.5396  1.8345
  145SAPS   C2615930   2.214   3.181   5.317  0.6862 -0.1099  0.6246
  145SAPS   H6R15931   2.241   3.101   5.246 -0.6371 -0.0303 -0.0122
  145SAPS   C2715932   2.151   3.295   5.240 -0.0236  0.4826  0.2177
  145SAPS   H7R15933   2.223   3.318   5.158  0.3573 -3.2656 -0.6583
  145SAPS   H7S15934   2.130   3.381   5.307 -0.8129 -0.8978  1.7956
  145SAPS   C2815935   2.034   3.247   5.168 -0.1105  0.4906  0.1274
  145SAPS   H8R15936   2.016   3.138   5.170 -0.6223  0.5095 -1.7041
  145SAPS   C2915937   1.954   3.325   5.098 -0.1158 -0.5416 -0.3066
  145SAPS   H9R15938   1.868   3.282   5.043 -0.0836  2.1026 -2.6474
  145SAPS  C21015939   1.968   3.476   5.085  0.6453 -0.2409 -0.1478
  145SAPS  H10R15940   1.919   3.507   4.990 -0.9600  2.5004  1.4504
  145SAPS  H10S15941   2.074   3.511   5.085 -0.1125  2.5278  2.9221
  145SAPS  C21115942   1.902   3.537   5.209 -1.2711 -0.6150  0.4561
  145SAPS  H11R15943   1.931   3.487   5.303 -1.5381 -1.2490  0.2115
  145SAPS  C21215944   1.819   3.641   5.216 -0.2009  0.1513  0.5759
  145SAPS  H12R15945   1.788   3.666   5.318  1.4029 -0.4209  1.2267
  145SAPS  C21315946   1.753   3.719   5.105 -0.6794 -0.1868  0.0014
  145SAPS  H13R15947   1.643   3.722   5.122 -0.6181 -0.3953  0.4452
  145SAPS  H13S15948   1.772   3.660   5.012  1.4726 -1.9414  1.4529
  145SAPS  C21415949   1.808   3.861   5.092  0.1468  0.5258  0.2689
  145SAPS  H14R15950   1.861   3.898   5.181  0.8842  0.6404 -0.2141
  145SAPS  C21515951   1.779   3.945   4.993  0.1871 -0.1137  0.1498
  145SAPS  H15R15952   1.814   4.049   4.999  0.1467 -0.1002  0.1553
  145SAPS  C21615953   1.697   3.909   4.873  0.2171  0.0019  0.1156
  145SAPS  H16R15954   1.612   3.981   4.865 -0.1910 -0.5299 -0.4853
  145SAPS  H16S15955   1.659   3.805   4.886 -1.6367  0.5022 -0.9298
  145SAPS  C21715956   1.760   3.922   4.738  0.4596 -0.3318 -0.6073
  145SAPS  H17R15957   1.847   3.855   4.726  0.7525 -0.3581  1.3367
  145SAPS  H17S15958   1.803   4.025   4.734 -1.9619  0.8214  0.6602
  145SAPS  C21815959   1.657   3.903   4.622 -0.5565  0.1053  0.1501
  145SAPS  H18R15960   1.599   3.813   4.650  1.0918 -1.4177 -1.1492
  145SAPS  H18S15961   1.708   3.881   4.526  3.2306  1.3635  1.6817
  145SAPS  C21915962   1.581   4.032   4.604  0.0798  0.3443  0.3034
  145SAPS  H19R15963   1.654   4.113   4.582 -0.1296  0.5824  0.4742
  145SAPS  H19S15964   1.517   4.065   4.689 -2.3383 -0.5470 -1.0726
  145SAPS  C22015965   1.485   4.015   4.487  0.3470 -0.1596 -0.2564
  145SAPS  H20R15966   1.532   3.989   4.390 -2.0873  0.6714 -1.7358
  145SAPS  H20S15967   1.439   4.115   4.474 -0.5210 -0.1731  2.0973
  145SAPS  H20T15968   1.403   3.945   4.511  1.5233 -0.9265  1.8415
  145SAPS   C3315969   2.080   2.748   5.730 -0.4955 -0.3528  0.3560
  145SAPS   H3X15970   2.128   2.660   5.778  0.0692 -1.0164 -1.3587
  145SAPS   H3Y15971   2.148   2.836   5.732 -0.8557  0.0730 -2.1845
  145SAPS   C3415972   2.038   2.702   5.579 -0.0593 -0.0072 -0.1648
  145SAPS   H4X15973   1.963   2.624   5.606  1.3440 -0.5088  2.6759
  145SAPS   H4Y15974   2.119   2.661   5.516 -1.1261 -0.0489 -1.5585
  145SAPS   C3515975   1.967   2.816   5.503  0.0351 -0.7723  0.0358
  145SAPS   H5X15976   2.007   2.916   5.530 -0.3421 -1.1135  2.0595
  145SAPS   H5Y15977   1.859   2.823   5.526  0.0498  1.1200 -0.2729
  145SAPS   C3615978   1.957   2.785   5.348 -0.9789  0.0830  0.1713
  145SAPS   H6X15979   1.954   2.676   5.329  0.0784  0.0097  0.3430
  145SAPS   H6Y15980   2.042   2.834   5.295 -0.6675  0.2407  0.7914
  145SAPS   C3715981   1.834   2.861   5.294  0.1735 -0.5131  0.1878
  145SAPS   H7X15982   1.829   2.962   5.338  0.2543 -0.7195  0.6798
  145SAPS   H7Y15983   1.751   2.803   5.340 -0.7500  0.4281 -0.2809
  145SAPS   C3815984   1.823   2.880   5.141  1.1647 -0.3063 -0.6417
  145SAPS   H8X15985   1.892   2.962   5.111 -0.0205  1.2278  0.6312
  145SAPS   H8Y15986   1.719   2.917   5.127  1.4373  0.7597  0.0600
  145SAPS   C3915987   1.861   2.761   5.053 -0.4834  0.3384 -0.0009
  145SAPS   H9X15988   1.815   2.680   5.114  0.3196  0.5808  0.9603
  145SAPS   H9Y15989   1.972   2.751   5.057 -0.3619  0.8600 -1.3895
  145SAPS  C31015990   1.820   2.768   4.906  0.0069  0.0842  0.4647
  145SAPS  H10X15991   1.868   2.862   4.870 -3.3803  1.6662 -0.3348
  145SAPS  H10Y15992   1.709   2.771   4.898  0.0981 -0.2237 -1.2350
  145SAPS  C31115993   1.872   2.648   4.837  0.2922  0.3509  0.1359
  145SAPS  H11X15994   1.833   2.553   4.880 -0.1364 -0.2093 -1.4183
  145SAPS  H11Y15995   1.983   2.636   4.837  0.3931  1.0787 -1.3087
  145SAPS  C31215996   1.843   2.648   4.686 -0.1787  0.4637  1.0464
  145SAPS  H12X15997   1.893   2.737   4.643  0.2776 -0.8755 -1.3333
  145SAPS  H12Y15998   1.734   2.662   4.669  0.2933  2.7077 -0.5420
  145SAPS  C31315999   1.896   2.524   4.606  0.4311  0.2788  0.5071
  145SAPS  H13X16000   1.844   2.429   4.629  1.4192 -0.6641 -0.9264
  145SAPS  H13Y16001   2.006   2.510   4.609  0.6362 -0.0057 -3.3166
  145SAPS  C31416002   1.852   2.554   4.456 -0.2117 -0.1957 -0.5037
  145SAPS  H14X16003   1.908   2.481   4.394  0.7795 -0.2168  0.3753
  145SAPS  H14Y16004   1.910   2.647   4.437 -0.0680  0.1849  1.5292
  145SAPS  C31516005   1.704   2.559   4.426  0.2068  0.2971  0.5672
  145SAPS  H15X16006   1.656   2.654   4.459 -0.8529 -0.6195  1.7653
  145SAPS  H15Y16007   1.643   2.481   4.476 -3.9760  2.4458 -0.7743
  145SAPS  C31616008   1.685   2.546   4.272 -0.5126  0.5402  0.0640
  145SAPS  H16X16009   1.731   2.455   4.227 -1.2356  1.6333 -3.1412
  145SAPS  H16Y16010   1.750   2.630   4.238  1.5745 -0.1921  2.0103
  145SAPS  C31716011   1.540   2.558   4.218  0.3187 -0.3795 -0.0762
  145SAPS  H17X16012   1.465   2.534   4.296  0.0545 -0.2951 -0.3035
  145SAPS  H17Y16013   1.524   2.480   4.140 -0.7398  0.0501 -0.3117
  145SAPS  C31816014   1.519   2.700   4.171  0.1249  1.0304 -0.6602
  145SAPS  H18X16015   1.598   2.712   4.094  0.0575 -0.3433 -0.9696
  145SAPS  H18Y16016   1.522   2.777   4.251  1.8651 -0.0473  0.3761
  145SAPS  H18Z16017   1.424   2.707   4.114 -1.5073 -0.5580  1.6694
  146SAPS     N16018   5.510   4.820   6.249  0.2543  0.3711 -0.4837
  146SAPS   HN116019   5.437   4.745   6.246  0.2076  0.4335 -1.1052
  146SAPS   HN216020   5.479   4.882   6.172 -3.3689 -0.1484  0.3596
  146SAPS   HN316021   5.603   4.776   6.232 -0.4445 -0.2909 -3.0602
  146SAPS   C1216022   5.520   4.889   6.386 -0.0319 -0.1404 -0.2470
  146SAPS  H12A16023   5.423   4.896   6.434  1.5781  1.3288  3.1644
  146SAPS   C1316024   5.608   4.809   6.488  0.4225  0.2098 -0.2653
  146SAPS  O13A16025   5.691   4.718   6.448 -0.0031 -0.0569 -0.1708
  146SAPS  O13B16026   5.630   4.868   6.599 -0.2433  0.0146  0.5416
  146SAPS   C1116027   5.578   5.036   6.368  0.0750  0.9038  0.6762
  146SAPS  H11A16028   5.564   5.094   6.462  0.7844  2.0248  0.1118
  146SAPS  H11B16029   5.505   5.079   6.295 -0.5060 -1.9799 -0.5841
  146SAPS     P16030   5.784   5.164   6.266  0.2777  0.1009 -0.4238
  146SAPS   O1316031   5.701   5.281   6.305 -0.4532  0.6991 -0.0768
  146SAPS   O1416032   5.922   5.164   6.329  0.0512 -0.4355 -0.1334
  146SAPS   O1216033   5.714   5.037   6.321  0.0155 -0.3704  0.2283
  146SAPS   O1116034   5.794   5.135   6.114 -0.5775  0.0907 -0.0636
  146SAPS    C116035   5.790   4.998   6.061  0.4326 -0.0666  0.4819
  146SAPS    HA16036   5.775   4.924   6.142 -1.4508 -1.9661 -1.4612
  146SAPS    HB16037   5.701   4.973   5.999  0.0750  0.9440  0.5649
  146SAPS    C216038   5.922   4.965   5.992  0.5532 -0.0310 -0.0574
  146SAPS    HS16039   6.005   5.008   6.053  0.8708  1.9674 -1.7728
  146SAPS   O2116040   5.912   5.026   5.858 -0.3622 -0.2321 -0.2150
  146SAPS   C2116041   6.023   5.070   5.807 -0.2357 -0.1517  0.2024
  146SAPS   O2216042   6.124   5.085   5.873 -0.0314  0.1817 -0.4304
  146SAPS   C2216043   5.997   5.086   5.659  0.1798  0.7617  0.6322
  146SAPS   H2R16044   5.993   4.985   5.613  1.0365  0.6121  0.8816
  146SAPS   H2S16045   5.895   5.129   5.646 -0.2737 -0.4112  0.1605
  146SAPS    C316046   5.942   4.808   5.966  0.1580  0.2872  0.2432
  146SAPS    HX16047   5.960   4.757   6.063 -0.6802  0.6139  0.5806
  146SAPS    HY16048   6.038   4.809   5.910  0.1326  0.2493  0.1999
  146SAPS   O3116049   5.841   4.747   5.879 -0.6853  0.3420  0.8638
  146SAPS   C3116050   5.741   4.693   5.952 -0.6316 -0.4787 -0.2049
  146SAPS   O3216051   5.721   4.696   6.074 -0.4971 -0.1063  0.0165
  146SAPS   C3216052   5.642   4.633   5.844  0.2942 -0.4222 -0.4007
  146SAPS   H2X16053   5.589   4.554   5.902  2.8321 -0.7795  1.5748
  146SAPS   H2Y16054   5.696   4.581   5.762  1.2581 -0.8677  0.4888
  146SAPS   C2316055   6.104   5.175   5.594 -0.4502  0.3076 -0.0126
  146SAPS   H3R16056   6.205   5.159   5.636 -0.2625 -0.1470 -0.6318
  146SAPS   H3S16057   6.070   5.278   5.618 -0.1431  0.0864  1.4442
  146SAPS   C2416058   6.117   5.139   5.443  0.6300 -0.5707 -0.0483
  146SAPS   H4R16059   6.168   5.040   5.439 -0.1658 -1.0258  0.6805
  146SAPS   H4S16060   6.181   5.218   5.398  0.0364 -0.5257 -0.8286
  146SAPS   C2516061   5.990   5.131   5.363  0.3621  0.1165  0.2713
  146SAPS   H5R16062   5.897   5.184   5.390  0.8062  0.0597  2.0351
  146SAPS   C2616063   5.994   5.089   5.231  0.5125 -0.3296  0.8209
  146SAPS   H6R16064   5.905   5.096   5.167  2.3811 -0.1311 -1.9066
  146SAPS   C2716065   6.117   5.021   5.166  0.6021  0.3076  0.0601
  146SAPS   H7R16066   6.087   4.940   5.096  0.7602  0.1959  0.1193
  146SAPS   H7S16067   6.175   4.974   5.249 -1.0582 -0.5710  0.7803
  146SAPS   C2816068   6.204   5.130   5.098  0.5488  0.3884  0.6115
  146SAPS   H8R16069   6.288   5.172   5.155  0.9811 -0.1607  0.3861
  146SAPS   C2916070   6.187   5.189   4.980  0.2913  0.2557  0.1868
  146SAPS   H9R16071   6.252   5.272   4.947 -2.1406  1.2929 -2.4600
  146SAPS  C21016072   6.083   5.149   4.877  0.1687 -0.3218  0.9531
  146SAPS  H10R16073   6.045   5.046   4.895 -0.5990 -0.5206 -1.4223
  146SAPS  H10S16074   6.130   5.138   4.776  0.1838 -0.7574  1.0062
  146SAPS  C21116075   5.968   5.246   4.870 -0.4907  0.3371 -0.0804
  146SAPS  H11R16076   5.899   5.233   4.955 -1.0154  1.1989 -0.3740
  146SAPS  C21216077   5.926   5.323   4.768  0.4663 -0.2988 -0.4586
  146SAPS  H12R16078   5.836   5.385   4.779  0.1789 -1.0361  1.7328
  146SAPS  C21316079   6.003   5.339   4.641  0.0296 -0.0312  0.7264
  146SAPS  H13R16080   5.938   5.331   4.551  1.5910  0.1374 -0.4558
  146SAPS  H13S16081   6.084   5.264   4.633 -1.3443 -1.5047 -0.0430
  146SAPS  C21416082   6.056   5.481   4.643  0.2364 -0.5827 -0.3846
  146SAPS  H14R16083   6.073   5.527   4.741 -1.5738 -0.0854 -0.2787
  146SAPS  C21516084   6.094   5.560   4.538 -0.8813 -0.0291 -0.4266
  146SAPS  H15R16085   6.139   5.658   4.562  0.3480 -1.2178  2.6583
  146SAPS  C21616086   6.064   5.531   4.392 -0.5761 -0.1036 -0.3311
  146SAPS  H16R16087   6.006   5.613   4.345  0.5387  0.0882 -1.4369
  146SAPS  H16S16088   6.000   5.441   4.387  1.0566 -1.2452 -2.3090
  146SAPS  C21716089   6.191   5.512   4.307 -0.6184  0.3214 -0.5668
  146SAPS  H17R16090   6.263   5.436   4.346  2.8791  3.0959 -1.0377
  146SAPS  H17S16091   6.246   5.609   4.305  1.8177 -0.8333  2.3016
  146SAPS  C21816092   6.155   5.479   4.159  0.2961  0.4264  0.0544
  146SAPS  H18R16093   6.089   5.566   4.140 -0.8639  0.1353  2.3842
  146SAPS  H18S16094   6.096   5.384   4.160  1.0538 -0.0966  2.4456
  146SAPS  C21916095   6.274   5.473   4.067 -0.0944  0.0748  0.2639
  146SAPS  H19R16096   6.353   5.402   4.100  0.4300  0.8039  0.6240
  146SAPS  H19S16097   6.333   5.567   4.073 -0.7691  0.6235 -1.2311
  146SAPS  C22016098   6.220   5.442   3.925  0.2193  0.5270 -0.0034
  146SAPS  H20R16099   6.170   5.343   3.917  2.6142 -0.6044 -2.4889
  146SAPS  H20S16100   6.303   5.447   3.852 -0.6833 -2.1582 -1.3426
  146SAPS  H20T16101   6.141   5.513   3.892  0.8008  1.2622  0.1688
  146SAPS   C3316102   5.533   4.731   5.790  0.0999  0.3218 -0.4090
  146SAPS   H3X16103   5.493   4.813   5.853  2.5917  1.1281  0.2596
  146SAPS   H3Y16104   5.443   4.669   5.770 -0.3112  1.0356 -0.7935
  146SAPS   C3416105   5.560   4.792   5.654 -0.5600 -0.0578  0.4357
  146SAPS   H4X16106   5.625   4.726   5.593 -0.2524  1.3200 -0.7885
  146SAPS   H4Y16107   5.623   4.882   5.669 -2.3819  1.0703  1.8264
  146SAPS   C3516108   5.426   4.847   5.587 -0.0620  0.9655 -0.6380
  146SAPS   H5X16109   5.363   4.893   5.666 -1.4200 -1.8798  0.0830
  146SAPS   H5Y16110   5.359   4.767   5.548 -2.2228  1.0044  2.6187
  146SAPS   C3616111   5.442   4.943   5.470 -0.2945  0.0088 -0.4736
  146SAPS   H6X16112   5.491   5.036   5.507  0.6275 -1.1780  1.4117
  146SAPS   H6Y16113   5.341   4.969   5.432 -0.7317  0.3844  0.8826
  146SAPS   C3716114   5.549   4.901   5.367  0.2100  1.3781 -0.5221
  146SAPS   H7X16115   5.641   4.889   5.428 -0.3447  1.4300  0.3335
  146SAPS   H7Y16116   5.555   4.987   5.296  1.4060  2.3261  0.6700
  146SAPS   C3816117   5.523   4.766   5.296  0.6548  0.3841  0.1885
  146SAPS   H8X16118   5.425   4.777   5.245  0.1458 -3.0459  0.1956
  146SAPS   H8Y16119   5.514   4.677   5.362  2.8764 -0.2543 -0.2499
  146SAPS   C3916120   5.611   4.747   5.176 -0.6562  0.3986  0.2834
  146SAPS   H9X16121   5.602   4.829   5.101  1.3855  0.6593  0.2673
  146SAPS   H9Y16122   5.593   4.645   5.134  1.9282 -1.0081  2.3061
  146SAPS  C31016123   5.766   4.753   5.211  0.3301 -0.2948  0.9823
  146SAPS  H10X16124   5.777   4.854   5.257 -1.1997  0.6844 -0.6579
  146SAPS  H10Y16125   5.825   4.759   5.117 -0.2601  3.8943  0.6748
  146SAPS  C31116126   5.810   4.629   5.294  0.1638 -0.3808  0.3605
  146SAPS  H11X16127   5.748   4.544   5.257  2.4858 -1.4402 -1.3470
  146SAPS  H11Y16128   5.780   4.644   5.399  0.3805  4.3907 -0.0600
  146SAPS  C31216129   5.963   4.593   5.279  0.4799  0.0429 -0.4659
  146SAPS  H12X16130   6.017   4.690   5.292 -2.0091  1.3404  0.7987
  146SAPS  H12Y16131   5.982   4.548   5.180  0.8194  0.1480 -0.4512
  146SAPS  C31316132   6.015   4.494   5.388 -0.0079 -0.2808  0.7081
  146SAPS  H13X16133   6.117   4.468   5.351  0.4250 -1.7474  2.7721
  146SAPS  H13Y16134   5.963   4.397   5.406  2.1524 -1.6201  0.1643
  146SAPS  C31416135   6.032   4.566   5.523 -0.5857 -0.4840 -0.3013
  146SAPS  H14X16136   5.937   4.575   5.581  0.6650 -1.8720  2.1049
  146SAPS  H14Y16137   6.069   4.668   5.497 -0.8908 -0.1067  0.6732
  146SAPS  C31516138   6.145   4.511   5.606 -1.3440  0.8843  0.2975
  146SAPS  H15X16139   6.238   4.508   5.544 -0.5610 -0.6514  1.4648
  146SAPS  H15Y16140   6.121   4.405   5.630 -1.6651  0.7987 -0.3654
  146SAPS  C31616141   6.152   4.593   5.741  0.4383  0.8303 -0.4639
  146SAPS  H16X16142   6.061   4.566   5.798 -0.2984  2.6782 -0.6870
  146SAPS  H16Y16143   6.142   4.699   5.708  2.8342  0.5201 -2.4779
  146SAPS  C31716144   6.275   4.560   5.829  0.0326  0.2169 -0.4202
  146SAPS  H17X16145   6.277   4.638   5.908 -0.4071 -1.2676  1.1028
  146SAPS  H17Y16146   6.371   4.576   5.774  0.9917 -1.1426  0.7966
  146SAPS  C31816147   6.285   4.424   5.896  0.2860  0.1191  0.3155
  146SAPS  H18X16148   6.386   4.404   5.937 -0.1546  2.3521  2.8000
  146SAPS  H18Y16149   6.253   4.347   5.823 -1.5986  1.4277 -0.3336
  146SAPS  H18Z16150   6.201   4.416   5.969  1.2407 -1.0583  1.3372
  147SAPS     N16151   1.110   0.908   6.828  0.5226  0.1348 -0.2338
  147SAPS   HN116152   1.115   0.906   6.725  0.4296  1.8579 -0.3004
  147SAPS   HN216153   1.040   0.984   6.843 -0.6918 -1.1780  1.1636
  147SAPS   HN316154   1.205   0.946   6.848  1.7150 -3.0065  0.6076
  147SAPS   C1216155   1.081   0.778   6.884 -0.3530 -0.0269  0.8143
  147SAPS  H12A16156   1.158   0.712   6.845 -1.0692  0.9835 -2.6295
  147SAPS   C1316157   1.098   0.772   7.035 -0.0083  0.1846 -0.3046
  147SAPS  O13A16158   1.123   0.875   7.103 -0.0888 -0.1211 -0.0327
  147SAPS  O13B16159   1.069   0.667   7.090  0.5241 -0.4899  0.0643
  147SAPS   C1116160   0.934   0.738   6.836 -0.3626 -0.5753  0.1082
  147SAPS  H11A16161   0.875   0.816   6.888  0.9455  0.1804  0.5115
  147SAPS  H11B16162   0.914   0.640   6.885 -1.7644  0.6506  2.1407
  147SAPS     P16163   0.967   0.623   6.602  0.1519  0.4054  0.0030
  147SAPS   O1316164   1.117   0.633   6.613  0.2583 -0.3698  0.1070
  147SAPS   O1416165   0.911   0.494   6.643 -0.1850  0.3767 -0.4020
  147SAPS   O1216166   0.900   0.735   6.697  0.1535  0.0491 -0.3648
  147SAPS   O1116167   0.909   0.660   6.457  0.0147 -0.1681 -0.0975
  147SAPS    C116168   0.871   0.796   6.431 -0.2287  0.8785  0.4870
  147SAPS    HA16169   0.767   0.811   6.468 -1.1362 -0.8211 -1.2238
  147SAPS    HB16170   0.928   0.868   6.494 -0.8934 -0.8303  3.2108
  147SAPS    C216171   0.895   0.832   6.286 -0.2651  0.0552  0.4854
  147SAPS    HS16172   0.912   0.942   6.279 -0.6064  0.0084 -1.4369
  147SAPS   O2116173   0.783   0.787   6.212  0.1944  0.1882 -0.0996
  147SAPS   C2116174   0.681   0.866   6.203  0.1844 -0.2377  0.3069
  147SAPS   O2216175   0.678   0.979   6.249  0.7661 -0.0395  0.1735
  147SAPS   C2216176   0.566   0.795   6.130  0.5625 -0.5242  0.0039
  147SAPS   H2R16177   0.605   0.742   6.040 -1.9160 -2.2899 -0.1316
  147SAPS   H2S16178   0.528   0.721   6.203 -1.8212 -0.3966 -1.0231
  147SAPS    C316179   1.025   0.764   6.229  0.5847 -0.3868  0.2194
  147SAPS    HX16180   0.997   0.658   6.212  1.1085 -0.8372  1.9689
  147SAPS    HY16181   1.105   0.779   6.305  0.0328  0.0758  0.7201
  147SAPS   O3116182   1.070   0.837   6.112 -0.1399 -0.3366  0.1414
  147SAPS   C3116183   1.143   0.757   6.029  0.2063  0.7446 -0.4286
  147SAPS   O3216184   1.185   0.649   6.049 -0.1493  0.6165  0.0970
  147SAPS   C3216185   1.147   0.823   5.884 -0.0810  0.6643  0.2039
  147SAPS   H2X16186   1.220   0.906   5.892  1.4786 -0.8213  4.1380
  147SAPS   H2Y16187   1.040   0.852   5.878  0.0526  0.9151 -1.6420
  147SAPS   C2316188   0.448   0.895   6.091  0.0120 -0.1689  0.1765
  147SAPS   H3R16189   0.480   0.960   6.007 -2.6916  0.5535 -0.4024
  147SAPS   H3S16190   0.420   0.955   6.180 -0.9433 -0.1969 -0.0951
  147SAPS   C2416191   0.324   0.808   6.033 -0.5386  0.4293 -0.1304
  147SAPS   H4R16192   0.360   0.702   6.037  2.0485  1.2520  0.4608
  147SAPS   H4S16193   0.311   0.827   5.924 -1.5613  2.5001  0.3213
  147SAPS   C2516194   0.197   0.841   6.096 -0.5369 -0.3461 -0.0882
  147SAPS   H5R16195   0.196   0.808   6.202 -0.2978  0.0673  0.0429
  147SAPS   C2616196   0.096   0.918   6.048 -0.0173  0.1859  0.2156
  147SAPS   H6R16197   0.015   0.938   6.119 -1.8795  0.9401 -2.0039
  147SAPS   C2716198   0.071   0.983   5.911  0.4190 -0.1216  0.0635
  147SAPS   H7R16199   0.160   1.046   5.892  0.8566 -1.4143 -2.7683
  147SAPS   H7S16200  -0.020   1.047   5.912  0.5709  0.1024 -0.3154
  147SAPS   C2816201   0.061   0.888   5.788  0.6807 -0.4531 -0.6247
  147SAPS   H8R16202   0.081   0.781   5.804  0.2204 -0.7429 -1.8878
  147SAPS   C2916203   0.021   0.926   5.666 -0.1645  0.1424  0.6941
  147SAPS   H9R16204   0.010   0.859   5.580 -1.5835  0.6318  0.4670
  147SAPS  C21016205  -0.005   1.067   5.624 -0.5740 -0.3026  0.7838
  147SAPS  H10R16206   0.074   1.105   5.556 -1.1505  2.7382  1.6535
  147SAPS  H10S16207   0.009   1.135   5.711  1.3804 -0.6813  0.7980
  147SAPS  C21116208  -0.143   1.102   5.572  0.2200  0.2960  0.4958
  147SAPS  H11R16209  -0.227   1.106   5.642 -0.3612 -1.6449 -0.0286
  147SAPS  C21216210  -0.185   1.110   5.444  0.6221 -0.6745 -0.7039
  147SAPS  H12R16211  -0.289   1.139   5.424  1.0373  2.0517  0.6110
  147SAPS  C21316212  -0.100   1.098   5.327 -0.3436  0.1604  0.7774
  147SAPS  H13R16213  -0.106   0.997   5.281  2.8010 -0.3814  1.3126
  147SAPS  H13S16214   0.004   1.100   5.367  0.3653  1.3380 -0.9911
  147SAPS  C21416215  -0.116   1.203   5.223 -0.3447 -0.1862 -0.7080
  147SAPS  H14R16216  -0.178   1.286   5.261  0.0569 -0.2468  0.1109
  147SAPS  C21516217  -0.045   1.209   5.109  0.0585 -0.3116 -0.1680
  147SAPS  H15R16218  -0.052   1.295   5.041 -1.7955 -1.2019 -1.1708
  147SAPS  C21616219   0.051   1.102   5.065 -0.1685  0.0087  0.0883
  147SAPS  H16R16220   0.050   1.012   5.131  0.8371 -0.6818 -0.8136
  147SAPS  H16S16221   0.151   1.151   5.063 -0.6150  0.9430 -0.0989
  147SAPS  C21716222   0.014   1.036   4.930  0.3134 -0.1325  0.6995
  147SAPS  H17R16223  -0.074   0.974   4.956 -0.4736  1.6969  2.7218
  147SAPS  H17S16224   0.105   0.983   4.894 -0.3704 -1.3347  0.6783
  147SAPS  C21816225  -0.040   1.136   4.830 -0.4509 -0.5279 -0.3428
  147SAPS  H18R16226   0.023   1.226   4.811  0.6901 -1.1156  0.5687
  147SAPS  H18S16227  -0.133   1.184   4.868  0.3405  1.2243 -0.5075
  147SAPS  C21916228  -0.055   1.078   4.690  0.2557  0.4028  1.0385
  147SAPS  H19R16229  -0.100   0.977   4.702  0.0545  0.1966 -1.1010
  147SAPS  H19S16230   0.041   1.067   4.635 -0.2336  0.0460  0.2363
  147SAPS  C22016231  -0.158   1.151   4.594 -0.2384 -0.6698 -0.4470
  147SAPS  H20R16232  -0.137   1.260   4.583  1.6975 -1.0116 -0.4040
  147SAPS  H20S16233  -0.262   1.141   4.633  0.4288  0.1405  1.6985
  147SAPS  H20T16234  -0.159   1.101   4.495  1.0355  0.9522 -1.3411
  147SAPS   C3316235   1.185   0.732   5.763  0.3487 -0.2317  0.4947
  147SAPS   H3X16236   1.110   0.650   5.764 -0.5092  0.4538 -2.0761
  147SAPS   H3Y16237   1.283   0.684   5.783 -0.2831 -1.9177 -0.2866
  147SAPS   C3416238   1.205   0.794   5.624 -0.4989 -0.0673  0.0241
  147SAPS   H4X16239   1.297   0.855   5.634  0.1422 -1.2647  2.0446
  147SAPS   H4Y16240   1.118   0.861   5.611 -0.8578  0.1126  2.6482
  147SAPS   C3516241   1.205   0.709   5.497  0.9179  0.4970 -0.0891
  147SAPS   H5X16242   1.115   0.643   5.502 -0.9337  2.6379 -2.4230
  147SAPS   H5Y16243   1.294   0.646   5.477 -1.9124 -2.9235 -3.3593
  147SAPS   C3616244   1.173   0.787   5.370 -0.5006 -0.2122 -0.5028
  147SAPS   H6X16245   1.244   0.872   5.370 -0.7327 -0.0099  0.0271
  147SAPS   H6Y16246   1.076   0.843   5.371  0.0542  0.8676  2.3280
  147SAPS   C3716247   1.186   0.710   5.241  0.1221  0.0383  0.2119
  147SAPS   H7X16248   1.135   0.612   5.252 -0.3220  0.3639  1.0820
  147SAPS   H7Y16249   1.293   0.698   5.211 -0.1245  1.4284 -1.3746
  147SAPS   C3816250   1.122   0.787   5.125  0.1881  0.1380  0.5600
  147SAPS   H8X16251   1.164   0.888   5.105 -2.6494  1.6702  1.7630
  147SAPS   H8Y16252   1.013   0.806   5.138 -0.0212  0.8358 -1.7779
  147SAPS   C3916253   1.150   0.708   4.998  0.4811  0.9082 -0.1960
  147SAPS   H9X16254   1.093   0.613   4.996  1.7606  0.0952  0.4686
  147SAPS   H9Y16255   1.258   0.686   4.987  0.1876 -1.5474  1.1478
  147SAPS  C31016256   1.122   0.784   4.863  0.7624 -0.1415 -0.6095
  147SAPS  H10X16257   1.166   0.885   4.878  1.0728 -0.5391  1.4735
  147SAPS  H10Y16258   1.011   0.786   4.851  0.6359 -0.4510  0.4669
  147SAPS  C31116259   1.201   0.731   4.738  0.3125  0.5341 -0.8617
  147SAPS  H11X16260   1.182   0.622   4.732 -1.1499  0.7036  0.1248
  147SAPS  H11Y16261   1.310   0.750   4.745  0.1671  1.0628  0.4272
  147SAPS  C31216262   1.158   0.788   4.597  0.4825  1.2017 -0.7461
  147SAPS  H12X16263   1.170   0.897   4.609  5.5722  0.6317  2.0506
  147SAPS  H12Y16264   1.050   0.762   4.592  0.2994  0.9257  2.2907
  147SAPS  C31316265   1.238   0.725   4.481 -0.3200 -0.6207 -0.4442
  147SAPS  H13X16266   1.224   0.615   4.491 -1.3145 -0.6048 -1.4833
  147SAPS  H13Y16267   1.345   0.746   4.498 -0.6608  0.0266  1.0651
  147SAPS  C31416268   1.193   0.779   4.344  0.4395 -0.6587  0.0086
  147SAPS  H14X16269   1.083   0.768   4.335  0.1430  2.0708 -0.5284
  147SAPS  H14Y16270   1.244   0.717   4.267 -1.2119 -0.6925 -1.0986
  147SAPS  C31516271   1.223   0.924   4.317 -0.6790 -0.1632 -0.3830
  147SAPS  H15X16272   1.327   0.952   4.345 -1.5732  0.3179  2.8367
  147SAPS  H15Y16273   1.161   0.994   4.376 -1.6294 -1.5026  0.2585
  147SAPS  C31616274   1.208   0.948   4.165 -0.0681  0.0826  0.3785
  147SAPS  H16X16275   1.122   0.886   4.132 -2.0569  1.9607  1.7554
  147SAPS  H16Y16276   1.301   0.910   4.118  1.0450  0.2204  2.3465
  147SAPS  C31716277   1.180   1.088   4.128 -0.9658 -0.0199 -0.2569
  147SAPS  H17X16278   1.256   1.163   4.160 -0.9173 -0.7754  1.5050
  147SAPS  H17Y16279   1.087   1.125   4.176 -1.1881 -0.5093 -0.3152
  147SAPS  C31816280   1.161   1.113   3.982  0.2823 -0.5941 -0.1501
  147SAPS  H18X16281   1.160   1.223   3.968 -1.0447 -0.8547 -2.8519
  147SAPS  H18Y16282   1.059   1.087   3.946  1.1763 -1.8112 -1.9389
  147SAPS  H18Z16283   1.233   1.076   3.906 -0.7672 -1.3177 -0.8212
  148SAPS     N16284   2.162   4.068   6.758  0.7545 -0.3842 -0.3447
  148SAPS   HN116285   2.206   3.979   6.726  1.5270  0.3006 -1.2304
  148SAPS   HN216286   2.147   4.134   6.679 -0.0763  0.6738  0.6651
  148SAPS   HN316287   2.222   4.110   6.831  0.9822 -1.5158  0.1437
  148SAPS   C1216288   2.022   4.031   6.807 -0.3054 -0.3543 -1.3406
  148SAPS  H12A16289   2.036   3.954   6.881 -2.8687  1.3683  1.1379
  148SAPS   C1316290   1.964   4.150   6.890  0.4905 -0.6082  0.3305
  148SAPS  O13A16291   2.030   4.261   6.909  0.0005  0.5626 -0.2630
  148SAPS  O13B16292   1.845   4.137   6.938  0.0031  0.1296  0.6189
  148SAPS   C1116293   1.929   3.992   6.701  0.1324  0.0601 -0.7323
  148SAPS  H11A16294   1.916   4.082   6.637  1.2774 -0.5328 -1.8537
  148SAPS  H11B16295   1.828   3.969   6.741  0.6642  0.5151  0.9584
  148SAPS     P16296   1.947   3.735   6.639 -0.3440 -0.3180  0.1113
  148SAPS   O1316297   2.063   3.648   6.604 -0.9143  0.0269  0.7824
  148SAPS   O1416298   1.898   3.722   6.778  0.2901  0.0248 -0.2107
  148SAPS   O1216299   1.972   3.889   6.615 -0.4364 -0.1711 -0.2706
  148SAPS   O1116300   1.816   3.710   6.545  0.0416  0.1602  0.2692
  148SAPS    C116301   1.850   3.684   6.406 -0.4502  0.2247 -0.4724
  148SAPS    HA16302   1.903   3.771   6.360 -0.0193  0.2444  0.0502
  148SAPS    HB16303   1.916   3.595   6.393 -0.7151 -0.0607  0.1344
  148SAPS    C216304   1.725   3.667   6.319  0.0027 -0.6756 -0.0367
  148SAPS    HS16305   1.702   3.560   6.333 -2.5005 -0.3038 -0.8440
  148SAPS   O2116306   1.739   3.708   6.186  0.4818  0.2374 -0.0972
  148SAPS   C2116307   1.822   3.639   6.115  0.3948  0.1964  0.5626
  148SAPS   O2216308   1.891   3.546   6.152  0.3753 -0.1744 -0.4097
  148SAPS   C2216309   1.826   3.678   5.968 -0.1442 -0.3458 -0.3978
  148SAPS   H2R16310   1.804   3.786   5.960 -0.7387 -0.0728  3.3814
  148SAPS   H2S16311   1.934   3.669   5.942 -0.3983  0.6448 -1.9037
  148SAPS    C316312   1.601   3.753   6.383  0.2362 -0.3296  0.2974
  148SAPS    HX16313   1.652   3.843   6.423  2.8208 -1.5668  0.0186
  148SAPS    HY16314   1.566   3.694   6.470  2.3267 -0.7369  0.9333
  148SAPS   O3116315   1.499   3.781   6.287  0.0631  0.3784  0.4843
  148SAPS   C3116316   1.496   3.902   6.236 -0.4152 -0.8247  0.1658
  148SAPS   O3216317   1.552   3.998   6.279 -0.0636 -0.4661 -0.1049
  148SAPS   C3216318   1.432   3.894   6.093  0.3319  0.2080  0.0450
  148SAPS   H2X16319   1.325   3.873   6.115  0.5139 -1.2051 -0.3447
  148SAPS   H2Y16320   1.479   3.817   6.028 -0.4760  0.6811 -1.1200
  148SAPS   C2316321   1.735   3.591   5.872 -0.6917 -0.0229 -0.4708
  148SAPS   H3R16322   1.633   3.587   5.918 -0.6750  3.3537  0.1155
  148SAPS   H3S16323   1.762   3.484   5.879  0.8806  0.3764 -0.2042
  148SAPS   C2416324   1.726   3.649   5.728 -0.2044  0.5452  0.0160
  148SAPS   H4R16325   1.711   3.759   5.731  0.5882  0.6752 -0.5681
  148SAPS   H4S16326   1.638   3.606   5.676  1.4043 -0.1786 -2.2601
  148SAPS   C2516327   1.850   3.598   5.654  0.0999  0.2635  0.0694
  148SAPS   H5R16328   1.842   3.489   5.647 -1.1899  0.2892  0.8752
  148SAPS   C2616329   1.959   3.666   5.608  0.1538  0.3252 -0.6936
  148SAPS   H6R16330   2.029   3.622   5.535  3.6136  0.4664  2.2863
  148SAPS   C2716331   1.983   3.807   5.630 -0.4782  0.5693  0.1364
  148SAPS   H7R16332   2.094   3.812   5.637 -0.2280 -1.4903 -1.2896
  148SAPS   H7S16333   1.956   3.842   5.731  0.4755  0.9376  0.2796
  148SAPS   C2816334   1.946   3.898   5.513 -0.3746  0.5755 -0.3298
  148SAPS   H8R16335   2.012   3.880   5.427 -0.5822  2.2889 -0.8814
  148SAPS   C2916336   1.853   3.996   5.504 -0.0743  0.5025 -0.0205
  148SAPS   H9R16337   1.849   4.063   5.416 -0.4263  0.9484  0.3289
  148SAPS  C21016338   1.766   4.040   5.612  0.7573 -0.4063 -0.4722
  148SAPS  H10R16339   1.740   3.957   5.681  1.7714  0.6574  1.2639
  148SAPS  H10S16340   1.676   4.095   5.577  0.6492  0.9517  1.7420
  148SAPS  C21116341   1.837   4.155   5.683  0.1580 -0.7655  0.0337
  148SAPS  H11R16342   1.875   4.127   5.782 -1.7562 -0.7005  0.8363
  148SAPS  C21216343   1.857   4.284   5.633  0.4779  0.6703  0.8734
  148SAPS  H12R16344   1.932   4.344   5.687  2.0668 -1.1569  0.8147
  148SAPS  C21316345   1.810   4.332   5.497 -0.0538 -0.3289 -0.0853
  148SAPS  H13R16346   1.808   4.443   5.499 -0.6403 -0.3550  1.4598
  148SAPS  H13S16347   1.711   4.296   5.463 -0.0860 -0.3689  0.0492
  148SAPS  C21416348   1.918   4.309   5.390 -0.0236 -0.1701 -0.0602
  148SAPS  H14R16349   2.014   4.347   5.428  0.6903 -0.0291 -1.8817
  148SAPS  C21516350   1.913   4.275   5.260 -0.0963 -0.1513 -0.5051
  148SAPS  H15R16351   2.007   4.273   5.202  0.1137  1.7880 -0.3142
  148SAPS  C21616352   1.787   4.249   5.186 -0.1602  0.9331 -0.4520
  148SAPS  H16R16353   1.700   4.297   5.237 -0.0683  0.5775  0.0351
  148SAPS  H16S16354   1.763   4.141   5.184 -0.2091  0.9419 -0.3302
  148SAPS  C21716355   1.804   4.301   5.046  0.2831 -1.4713  0.1925
  148SAPS  H17R16356   1.886   4.255   4.987 -1.0806 -1.7958 -1.5687
  148SAPS  H17S16357   1.839   4.406   5.048 -0.5802 -1.1868  1.1646
  148SAPS  C21816358   1.683   4.291   4.947 -0.4587 -0.4520 -0.3791
  148SAPS  H18R16359   1.645   4.187   4.939 -2.3504  0.0081  1.7922
  148SAPS  H18S16360   1.715   4.338   4.851 -1.6734 -0.2412 -0.6982
  148SAPS  C21916361   1.560   4.370   4.995  0.4050  0.7201  0.4513
  148SAPS  H19R16362   1.512   4.317   5.080 -1.5874  0.4023 -0.8076
  148SAPS  H19S16363   1.490   4.376   4.908  1.1035  2.9508 -0.0155
  148SAPS  C22016364   1.594   4.518   5.028  0.5965  0.1294 -0.0023
  148SAPS  H20R16365   1.676   4.529   5.102  0.8964 -3.3310  0.3388
  148SAPS  H20S16366   1.504   4.576   5.056 -0.4628 -1.3095 -0.2958
  148SAPS  H20T16367   1.625   4.570   4.935  2.5926  3.4096  2.2692
  148SAPS   C3316368   1.453   4.031   6.020 -0.2434  0.4563  0.0913
  148SAPS   H3X16369   1.561   4.055   6.030  0.8197 -3.7058  0.7652
  148SAPS   H3Y16370   1.399   4.108   6.079  1.6147  0.5550  1.7736
  148SAPS   C3416371   1.390   4.020   5.880 -0.2515  0.1146  0.4676
  148SAPS   H4X16372   1.287   3.980   5.880 -0.0588 -0.4138  1.8073
  148SAPS   H4Y16373   1.445   3.956   5.808 -0.0129  1.6971 -0.8195
  148SAPS   C3516374   1.371   4.159   5.812  0.5379 -0.7640 -0.6538
  148SAPS   H5X16375   1.469   4.211   5.804 -0.9935  2.6395  0.9563
  148SAPS   H5Y16376   1.311   4.225   5.878  2.0271 -0.6965  0.6734
  148SAPS   C3616377   1.306   4.162   5.671  0.1274  0.7658 -0.1341
  148SAPS   H6X16378   1.258   4.261   5.654  1.0474  1.2917  0.2094
  148SAPS   H6Y16379   1.236   4.077   5.662 -0.4784  1.0030  1.7719
  148SAPS   C3716380   1.419   4.139   5.563 -1.0322 -0.1597  0.2098
  148SAPS   H7X16381   1.476   4.044   5.571  1.3719  1.0635 -1.1657
  148SAPS   H7Y16382   1.498   4.214   5.582  0.7056 -1.6750 -0.6967
  148SAPS   C3816383   1.352   4.135   5.425  0.5432 -0.4987  0.2769
  148SAPS   H8X16384   1.292   4.225   5.399 -1.0082 -1.2628  1.0543
  148SAPS   H8Y16385   1.285   4.048   5.413 -0.1611  0.0672  0.0547
  148SAPS   C3916386   1.462   4.106   5.316 -0.2422  0.3136 -0.1059
  148SAPS   H9X16387   1.539   4.038   5.358  2.6172  2.9430 -0.7256
  148SAPS   H9Y16388   1.516   4.201   5.300 -0.8465  0.6191 -0.3911
  148SAPS  C31016389   1.401   4.058   5.187  0.2064  0.6928  0.4756
  148SAPS  H10X16390   1.472   4.069   5.102  2.5197  0.1115  2.2262
  148SAPS  H10Y16391   1.308   4.117   5.175 -0.9621 -0.8635  1.4694
  148SAPS  C31116392   1.365   3.907   5.197 -0.1988  0.0181  0.3160
  148SAPS  H11X16393   1.296   3.890   5.282 -0.4713 -0.7700 -0.0494
  148SAPS  H11Y16394   1.453   3.842   5.217 -1.4272 -1.5930  0.6870
  148SAPS  C31216395   1.293   3.850   5.073 -0.5690 -0.5936  0.7082
  148SAPS  H12X16396   1.340   3.890   4.981 -3.4215  1.6807  0.0711
  148SAPS  H12Y16397   1.188   3.886   5.080 -0.0569  1.2606 -0.5535
  148SAPS  C31316398   1.295   3.695   5.056 -0.6096  0.1928  0.1052
  148SAPS  H13X16399   1.256   3.655   5.152  1.4369 -2.9306 -0.2136
  148SAPS  H13Y16400   1.400   3.663   5.042 -0.0938  2.1524 -0.7791
  148SAPS  C31416401   1.206   3.638   4.946 -0.1044 -0.4414 -0.1133
  148SAPS  H14X16402   1.102   3.659   4.979 -0.0668 -0.0098 -0.2687
  148SAPS  H14Y16403   1.226   3.529   4.935  0.0880 -0.5706  1.2948
  148SAPS  C31516404   1.225   3.703   4.807  0.2848 -0.9335 -1.2519
  148SAPS  H15X16405   1.332   3.724   4.788  0.6612  2.2852  2.9035
  148SAPS  H15Y16406   1.184   3.806   4.821 -0.2764 -1.4054  1.1462
  148SAPS  C31616407   1.167   3.616   4.696 -0.0266 -0.4562  0.3380
  148SAPS  H16X16408   1.072   3.563   4.720 -0.3054 -0.2221 -0.2310
  148SAPS  H16Y16409   1.232   3.527   4.692  1.4752  0.6481 -0.7300
  148SAPS  C31716410   1.149   3.691   4.565  0.1655 -0.4274  0.5530
  148SAPS  H17X16411   1.247   3.736   4.537 -0.8744  2.3228  0.9865
  148SAPS  H17Y16412   1.084   3.780   4.580  1.9732  0.8173  1.3929
  148SAPS  C31816413   1.102   3.601   4.452 -0.3801  0.3455 -0.4395
  148SAPS  H18X16414   1.153   3.503   4.444 -1.3055 -0.1368 -0.6757
  148SAPS  H18Y16415   1.118   3.649   4.352  0.3048 -1.8009 -1.4163
  148SAPS  H18Z16416   0.994   3.583   4.471 -0.1353 -0.9233 -0.1691
  149SAPS     N16417   0.451   5.951   7.089  0.6267  0.6129 -0.5048
  149SAPS   HN116418   0.540   5.945   7.035  0.8557  2.0560 -0.3205
  149SAPS   HN216419   0.386   6.013   7.037 -1.0166 -1.6847 -1.3490
  149SAPS   HN316420   0.468   5.991   7.184 -2.3974 -0.6210  0.6845
  149SAPS   C1216421   0.374   5.811   7.098  0.0524 -0.4661 -0.0479
  149SAPS  H12A16422   0.445   5.738   7.133  1.0448  0.0592 -0.8909
  149SAPS   C1316423   0.250   5.820   7.192 -0.1232 -0.0675  0.2687
  149SAPS  O13A16424   0.212   5.930   7.233  0.6025 -0.0685 -0.3792
  149SAPS  O13B16425   0.170   5.719   7.197 -0.2749  0.3194  0.0271
  149SAPS   C1116426   0.333   5.766   6.951  0.0980 -0.5790  0.4796
  149SAPS  H11A16427   0.240   5.822   6.926  0.2341 -0.7023 -0.3059
  149SAPS  H11B16428   0.320   5.656   6.945 -1.7277 -0.3829  0.0793
  149SAPS     P16429   0.570   5.735   6.837  0.0006  0.4269  0.2432
  149SAPS   O1316430   0.618   5.689   6.965 -0.5068  0.4538  0.3611
  149SAPS   O1416431   0.572   5.641   6.726 -0.0199 -0.2031 -0.5907
  149SAPS   O1216432   0.432   5.807   6.859  0.9391  0.1258  0.5368
  149SAPS   O1116433   0.672   5.852   6.802  0.4275 -0.2005 -0.5720
  149SAPS    C116434   0.634   5.978   6.747 -0.1841  0.2132 -0.5928
  149SAPS    HA16435   0.534   6.013   6.782 -0.1695  0.5577 -0.9011
  149SAPS    HB16436   0.708   6.053   6.781 -1.2123 -0.1363  2.8020
  149SAPS    C216437   0.630   5.986   6.590  0.5100  0.0399 -0.2214
  149SAPS    HS16438   0.603   6.089   6.560  0.8058  1.4668  3.8382
  149SAPS   O2116439   0.535   5.890   6.538 -0.0794  0.0938 -0.6489
  149SAPS   C2116440   0.407   5.929   6.555  0.0507 -0.3493  0.0671
  149SAPS   O2216441   0.380   6.042   6.591  0.0918  0.0831 -0.3225
  149SAPS   C2216442   0.309   5.831   6.508  0.3914  0.3961  0.1971
  149SAPS   H2R16443   0.296   5.756   6.588 -3.7360  0.6717 -0.0267
  149SAPS   H2S16444   0.207   5.875   6.502  0.5578  0.6636 -0.8792
  149SAPS    C316445   0.770   5.949   6.531 -0.1060  0.1917 -0.0061
  149SAPS    HX16446   0.779   5.841   6.556  1.3456  0.3011  0.0103
  149SAPS    HY16447   0.836   6.017   6.588 -1.2078 -0.5323  2.2540
  149SAPS   O3116448   0.781   5.975   6.392  0.1517  0.0090 -0.0815
  149SAPS   C3116449   0.752   5.886   6.304  0.4884 -0.4550 -0.4444
  149SAPS   O3216450   0.708   5.772   6.321  0.1734 -0.0624 -0.0236
  149SAPS   C3216451   0.763   5.956   6.167  0.0613  0.0843 -0.2064
  149SAPS   H2X16452   0.849   6.025   6.159 -1.0572  1.2803 -3.0263
  149SAPS   H2Y16453   0.668   6.014   6.165  0.9385  1.5416 -0.4685
  149SAPS   C2316454   0.340   5.757   6.372 -0.2541 -0.1580  0.5980
  149SAPS   H3R16455   0.254   5.692   6.345  0.3442 -0.7202 -0.0087
  149SAPS   H3S16456   0.437   5.704   6.362  0.9362  1.9347  0.3585
  149SAPS   C2416457   0.343   5.852   6.249  0.0615  0.3869 -0.0454
  149SAPS   H4R16458   0.371   5.779   6.170 -2.5029 -0.8883  0.1453
  149SAPS   H4S16459   0.421   5.929   6.271 -1.6791  2.3551 -0.4548
  149SAPS   C2516460   0.212   5.922   6.214  0.0936  0.3867 -0.0234
  149SAPS   H5R16461   0.150   5.954   6.300  1.1868  1.9707  0.2236
  149SAPS   C2616462   0.142   5.927   6.095 -0.6828 -0.8722 -0.1949
  149SAPS   H6R16463   0.047   5.982   6.092 -0.2031 -0.0362 -0.4102
  149SAPS   C2716464   0.184   5.868   5.956 -0.8619 -0.0110 -0.3373
  149SAPS   H7R16465   0.088   5.836   5.909 -2.8108 -0.4271  3.4789
  149SAPS   H7S16466   0.242   5.774   5.970  1.7878  1.3234 -1.5648
  149SAPS   C2816467   0.270   5.964   5.877 -0.2650 -0.2673  0.0015
  149SAPS   H8R16468   0.342   6.017   5.941  0.7137 -0.7334 -0.6838
  149SAPS   C2916469   0.269   5.990   5.743 -0.1877  0.6700 -0.4399
  149SAPS   H9R16470   0.323   6.079   5.707  1.0449  0.4458  0.7545
  149SAPS  C21016471   0.167   5.934   5.647 -0.3466  0.2004  0.0370
  149SAPS  H10R16472   0.171   6.003   5.560  1.0456  0.2690  0.1290
  149SAPS  H10S16473   0.073   5.964   5.698  0.6663  0.2156  1.9755
  149SAPS  C21116474   0.177   5.786   5.614 -0.3498  0.1903 -0.2620
  149SAPS  H11R16475   0.173   5.712   5.695 -4.2334 -1.4397 -1.7300
  149SAPS  C21216476   0.189   5.743   5.486 -0.3783 -0.3780 -0.5126
  149SAPS  H12R16477   0.218   5.638   5.468  0.7084 -0.1597 -0.1102
  149SAPS  C21316478   0.206   5.831   5.362  0.6474 -0.3016 -0.9327
  149SAPS  H13R16479   0.245   5.770   5.278 -1.5259  0.2534 -2.4278
  149SAPS  H13S16480   0.282   5.910   5.383  0.0518  0.2406 -0.7635
  149SAPS  C21416481   0.087   5.910   5.311 -0.6374  0.3505 -0.5473
  149SAPS  H14R16482   0.043   5.983   5.380  0.1266  2.1132 -1.8525
  149SAPS  C21516483   0.028   5.893   5.194  0.1928  0.0630 -0.0087
  149SAPS  H15R16484  -0.063   5.950   5.170  0.7935  1.2857  0.5733
  149SAPS  C21616485   0.073   5.801   5.082  0.7610  0.7892 -0.1551
  149SAPS  H16R16486  -0.012   5.731   5.068  0.3790  1.3156 -0.5020
  149SAPS  H16S16487   0.160   5.737   5.105  0.6300  0.1255 -1.4312
  149SAPS  C21716488   0.105   5.882   4.955  0.5917  0.6156  0.1227
  149SAPS  H17R16489   0.191   5.949   4.974 -0.5550  2.0444  0.4272
  149SAPS  H17S16490   0.020   5.951   4.933  0.7142  1.0086  0.8473
  149SAPS  C21816491   0.141   5.792   4.837 -0.1650  0.1418  0.3280
  149SAPS  H18R16492   0.201   5.710   4.881  0.5979 -0.3659 -1.5604
  149SAPS  H18S16493   0.203   5.856   4.771  0.7271 -0.1141  0.9046
  149SAPS  C21916494   0.023   5.746   4.757  0.3398  0.3449  0.0779
  149SAPS  H19R16495  -0.028   5.822   4.694  0.2977 -0.4311 -0.8337
  149SAPS  H19S16496  -0.054   5.697   4.820 -1.0660  4.0907  1.5977
  149SAPS  C22016497   0.078   5.629   4.668 -0.0081  0.1334 -0.0467
  149SAPS  H20R16498  -0.003   5.588   4.603  0.8608 -1.6608 -0.0646
  149SAPS  H20S16499   0.118   5.544   4.728 -0.7421  0.6171  1.1584
  149SAPS  H20T16500   0.154   5.664   4.595 -0.9246 -1.3486 -1.7864
  149SAPS   C3316501   0.759   5.866   6.046  0.0543 -0.7852 -0.5026
  149SAPS   H3X16502   0.670   5.800   6.061 -1.9210  1.7777 -0.2935
  149SAPS   H3Y16503   0.844   5.794   6.043 -0.2293 -1.0963 -1.4742
  149SAPS   C3416504   0.738   5.940   5.912 -0.8668 -0.2857  0.3496
  149SAPS   H4X16505   0.821   6.009   5.883 -3.2045  1.3940 -3.1891
  149SAPS   H4Y16506   0.649   6.007   5.904  0.1112  0.8975 -1.5388
  149SAPS   C3516507   0.713   5.842   5.795 -0.2983  0.5241  0.1379
  149SAPS   H5X16508   0.614   5.800   5.820 -0.9165  0.7729 -1.7535
  149SAPS   H5Y16509   0.784   5.756   5.794  1.1777  1.5861  3.1468
  149SAPS   C3616510   0.710   5.915   5.665 -0.2992 -0.1924 -0.1894
  149SAPS   H6X16511   0.805   5.971   5.647 -0.1864  0.6666  2.6538
  149SAPS   H6Y16512   0.632   5.993   5.678  1.6091  1.7829  0.1339
  149SAPS   C3716513   0.679   5.821   5.544 -0.7032 -0.6326  0.2506
  149SAPS   H7X16514   0.580   5.772   5.552 -0.6700 -0.7438 -0.0345
  149SAPS   H7Y16515   0.756   5.742   5.549  0.9497  0.8642 -0.2686
  149SAPS   C3816516   0.671   5.900   5.409  0.1333 -0.2165  0.3125
  149SAPS   H8X16517   0.770   5.943   5.381 -0.1622  0.4893  0.3316
  149SAPS   H8Y16518   0.608   5.990   5.423 -0.5037 -0.3469 -1.5057
  149SAPS   C3916519   0.627   5.802   5.294 -0.5259 -0.0335 -0.1359
  149SAPS   H9X16520   0.535   5.750   5.328 -0.5010 -0.1371 -0.2252
  149SAPS   H9Y16521   0.706   5.723   5.292  0.2101  0.6384  1.2711
  149SAPS  C31016522   0.620   5.863   5.153  0.7033  0.5072  0.7010
  149SAPS  H10X16523   0.708   5.906   5.101 -0.7864  0.4442 -2.0545
  149SAPS  H10Y16524   0.536   5.936   5.153  1.4751  1.4320 -0.2329
  149SAPS  C31116525   0.581   5.737   5.070 -0.3246 -0.3817  0.2459
  149SAPS  H11X16526   0.486   5.684   5.093 -0.8045 -0.0429 -0.8806
  149SAPS  H11Y16527   0.661   5.661   5.084 -1.0360 -1.5095 -1.4018
  149SAPS  C31216528   0.568   5.772   4.921  0.4360 -0.6310  0.6910
  149SAPS  H12X16529   0.654   5.827   4.877  0.1432 -0.5389  0.2234
  149SAPS  H12Y16530   0.476   5.832   4.908  0.3159 -0.1835  3.0972
  149SAPS  C31316531   0.538   5.641   4.835  0.2465  0.0936 -0.9077
  149SAPS  H13X16532   0.438   5.610   4.873 -0.1724  1.6147 -0.6717
  149SAPS  H13Y16533   0.616   5.565   4.856 -0.6915 -0.7205 -0.2639
  149SAPS  C31416534   0.531   5.666   4.695 -0.5336  0.2934 -0.1316
  149SAPS  H14X16535   0.631   5.693   4.656 -0.1394 -2.1856 -0.9674
  149SAPS  H14Y16536   0.461   5.747   4.664 -3.0110 -1.7622 -0.2397
  149SAPS  C31516537   0.468   5.536   4.629 -1.0075  0.7162  0.4737
  149SAPS  H15X16538   0.364   5.530   4.668 -1.1212  2.5759  0.5525
  149SAPS  H15Y16539   0.530   5.449   4.659 -1.8833 -1.5993 -3.6927
  149SAPS  C31616540   0.488   5.552   4.474 -0.4120 -0.2035  0.7410
  149SAPS  H16X16541   0.430   5.476   4.418 -0.9045 -2.3459  3.9073
  149SAPS  H16Y16542   0.438   5.649   4.453 -0.0405  0.2981  2.0243
  149SAPS  C31716543   0.636   5.551   4.428  0.3369 -0.3085  0.1906
  149SAPS  H17X16544   0.666   5.451   4.388 -1.2928 -0.3634 -1.0169
  149SAPS  H17Y16545   0.705   5.581   4.509  0.8047 -1.4425  0.2392
  149SAPS  C31816546   0.664   5.650   4.312 -0.1320 -0.7232 -0.6219
  149SAPS  H18X16547   0.612   5.746   4.332 -0.4864 -1.1549  0.6035
  149SAPS  H18Y16548   0.626   5.618   4.213 -1.4357  0.4321 -0.5194
  149SAPS  H18Z16549   0.774   5.660   4.297  0.2892 -2.1175  1.1894
  150SAPS     N16550   0.706   1.934   7.145  0.4560 -0.4182 -0.1270
  150SAPS   HN116551   0.787   1.996   7.164  1.0345 -1.3498  0.5819
  150SAPS   HN216552   0.708   1.916   7.043  2.6486 -1.9025  0.0797
  150SAPS   HN316553   0.616   1.970   7.183 -0.1668 -0.7013 -1.3070
  150SAPS   C1216554   0.746   1.812   7.216  0.0589 -0.3820 -0.0543
  150SAPS  H12A16555   0.761   1.849   7.317  0.7791  2.5320 -1.1512
  150SAPS   C1316556   0.642   1.705   7.215 -0.1884 -0.3052 -0.6495
  150SAPS  O13A16557   0.529   1.731   7.161 -0.0186 -0.0009  0.0859
  150SAPS  O13B16558   0.660   1.609   7.290  0.0453 -0.0169  0.0245
  150SAPS   C1116559   0.876   1.763   7.150  0.1940 -0.2330 -0.4685
  150SAPS  H11A16560   0.844   1.760   7.044 -0.4724  2.4416 -0.4290
  150SAPS  H11B16561   0.890   1.666   7.201 -0.2486  0.3324  0.7776
  150SAPS     P16562   1.112   1.841   7.091  0.2521  0.5971 -0.4889
  150SAPS   O1316563   1.198   1.966   7.101 -0.0835 -0.1002 -0.2568
  150SAPS   O1416564   1.168   1.710   7.136  0.7535 -0.3122  0.1970
  150SAPS   O1216565   0.977   1.855   7.171 -0.3253 -0.5473 -0.0814
  150SAPS   O1116566   1.074   1.817   6.937  0.5778  0.8781 -0.6973
  150SAPS    C116567   0.995   1.916   6.866  0.5188 -0.8417  0.2701
  150SAPS    HA16568   0.917   1.869   6.802 -0.1518  0.7174 -0.0820
  150SAPS    HB16569   0.931   1.976   6.933  1.7445 -0.5215  1.1687
  150SAPS    C216570   1.087   1.994   6.772  0.3504 -1.1435 -0.4172
  150SAPS    HS16571   1.175   2.034   6.828 -0.4502  1.3956 -0.8530
  150SAPS   O2116572   1.003   2.100   6.715  0.1303 -0.2550  0.5519
  150SAPS   C2116573   1.056   2.206   6.666 -0.0453 -0.4330 -0.3904
  150SAPS   O2216574   1.175   2.243   6.664 -0.6466  0.1568  0.4091
  150SAPS   C2216575   0.955   2.283   6.581 -0.4235  0.3951  0.2642
  150SAPS   H2R16576   0.853   2.260   6.620 -0.3573 -0.3009  0.0402
  150SAPS   H2S16577   0.969   2.392   6.597  0.8035  0.2248  0.4099
  150SAPS    C316578   1.132   1.906   6.652 -0.5258  0.2426  0.0389
  150SAPS    HX16579   1.176   1.821   6.708  0.5378  0.9800  0.3609
  150SAPS    HY16580   1.205   1.960   6.588 -2.0696 -0.4348 -2.4250
  150SAPS   O3116581   1.026   1.870   6.566 -0.1333 -0.0393 -0.0305
  150SAPS   C3116582   0.987   1.754   6.545  0.6067 -0.4694 -0.7664
  150SAPS   O3216583   1.033   1.653   6.598  0.5504 -0.1327 -0.4728
  150SAPS   C3216584   0.869   1.756   6.443  0.2722  0.0792  0.3637
  150SAPS   H2X16585   0.868   1.859   6.402  0.8185  0.2204  0.6999
  150SAPS   H2Y16586   0.779   1.737   6.505 -0.5582  0.5595 -0.6572
  150SAPS   C2316587   0.965   2.245   6.434  0.1906  0.0789  0.2797
  150SAPS   H3R16588   0.962   2.134   6.423  2.3459  0.0803 -0.9011
  150SAPS   H3S16589   1.070   2.266   6.404  0.8226 -2.0224  0.8231
  150SAPS   C2416590   0.866   2.311   6.339  0.7372 -0.7840  0.5764
  150SAPS   H4R16591   0.762   2.277   6.359  0.0817  1.0253  0.4639
  150SAPS   H4S16592   0.887   2.263   6.241  0.6767 -0.9035  0.6211
  150SAPS   C2516593   0.873   2.462   6.322 -0.1310  0.2107  0.1693
  150SAPS   H5R16594   0.817   2.514   6.401 -0.8212 -0.3881  0.0815
  150SAPS   C2616595   0.923   2.528   6.219  0.1111 -0.0144 -0.0578
  150SAPS   H6R16596   0.930   2.637   6.228  0.7794 -0.0673  0.1006
  150SAPS   C2716597   0.980   2.472   6.093 -0.2381 -0.7554  0.5980
  150SAPS   H7R16598   0.975   2.551   6.016  0.0882 -0.2981  1.0413
  150SAPS   H7S16599   0.913   2.395   6.049 -0.7278 -0.8832  1.5351
  150SAPS   C2816600   1.114   2.414   6.107 -0.6180  0.3199 -0.2818
  150SAPS   H8R16601   1.138   2.379   6.209 -2.8406 -0.6470 -0.0143
  150SAPS   C2916602   1.193   2.378   6.004 -0.1652  0.3367  0.1321
  150SAPS   H9R16603   1.294   2.344   6.029 -0.9189 -2.0962  0.0964
  150SAPS  C21016604   1.164   2.411   5.860  0.3489 -0.3205 -0.1279
  150SAPS  H10R16605   1.254   2.388   5.799  0.5569  2.5446 -1.0541
  150SAPS  H10S16606   1.150   2.521   5.854  1.4232 -0.1607  0.1664
  150SAPS  C21116607   1.056   2.332   5.797 -0.3213 -0.4837  0.3536
  150SAPS  H11R16608   0.960   2.321   5.850 -0.1097 -0.7879  0.6755
  150SAPS  C21216609   1.071   2.276   5.675  0.5363 -0.3094 -0.2626
  150SAPS  H12R16610   0.981   2.218   5.649  0.0091  0.6280 -0.5527
  150SAPS  C21316611   1.183   2.276   5.582  0.0955 -0.3841  0.5207
  150SAPS  H13R16612   1.196   2.174   5.542  0.6055  0.3912 -1.3957
  150SAPS  H13S16613   1.281   2.277   5.636  0.2202  1.2104  0.3065
  150SAPS  C21416614   1.180   2.374   5.473 -0.1611 -0.0121  0.5913
  150SAPS  H14R16615   1.231   2.468   5.500 -0.2918  0.2587 -0.0785
  150SAPS  C21516616   1.117   2.365   5.355 -0.2754 -0.5921 -0.2715
  150SAPS  H15R16617   1.119   2.455   5.292  0.0596  0.1717  0.7974
  150SAPS  C21616618   1.056   2.241   5.297 -0.3409 -0.0479 -0.1795
  150SAPS  H16R16619   0.947   2.253   5.280 -0.8292 -0.9596  1.9763
  150SAPS  H16S16620   1.069   2.148   5.356 -0.3177 -1.9335 -2.9857
  150SAPS  C21716621   1.132   2.198   5.164  0.0490  0.2242  0.1038
  150SAPS  H17R16622   1.237   2.174   5.194  0.2960 -0.6927 -1.4215
  150SAPS  H17S16623   1.128   2.275   5.085  2.3338  0.4653  0.1425
  150SAPS  C21816624   1.076   2.067   5.111 -0.7144  0.4609  0.2695
  150SAPS  H18R16625   0.975   2.092   5.072 -0.9837 -0.8600  0.0663
  150SAPS  H18S16626   1.060   2.005   5.202  0.7209 -1.5363 -0.7576
  150SAPS  C21916627   1.169   2.002   5.002  0.0416 -0.0326  0.0127
  150SAPS  H19R16628   1.112   1.911   4.971 -0.9308  0.2567  0.8937
  150SAPS  H19S16629   1.268   1.974   5.043 -0.1696  0.6340  1.0129
  150SAPS  C22016630   1.199   2.080   4.870 -0.2120  0.2303  0.3649
  150SAPS  H20R16631   1.105   2.130   4.837  0.7271  0.7125 -1.7152
  150SAPS  H20S16632   1.230   2.014   4.786 -0.8186  1.6901 -1.0554
  150SAPS  H20T16633   1.273   2.161   4.884  0.2430 -0.2056  0.4822
  150SAPS   C3316634   0.874   1.642   6.341 -0.0831 -0.4994  0.7079
  150SAPS   H3X16635   0.835   1.548   6.387  0.3238 -0.7657  0.5188
  150SAPS   H3Y16636   0.978   1.619   6.309 -1.0739 -1.6859 -1.9759
  150SAPS   C3416637   0.804   1.673   6.211  0.2136  0.3249 -0.5993
  150SAPS   H4X16638   0.827   1.777   6.179  0.2783  0.0155 -1.5842
  150SAPS   H4Y16639   0.694   1.668   6.230  0.4095 -1.7464  0.2267
  150SAPS   C3516640   0.844   1.581   6.094  0.2267 -0.3661 -0.4073
  150SAPS   H5X16641   0.799   1.480   6.102  1.9282 -1.1995 -0.7316
  150SAPS   H5Y16642   0.954   1.566   6.099  0.1273 -0.7070  1.4155
  150SAPS   C3616643   0.807   1.633   5.953  0.2606  1.1666 -0.7121
  150SAPS   H6X16644   0.869   1.723   5.933  1.4744  1.0279  1.9984
  150SAPS   H6Y16645   0.698   1.657   5.954 -0.2631 -0.9485  0.1654
  150SAPS   C3716646   0.828   1.534   5.833  0.4345  0.1106  0.2126
  150SAPS   H7X16647   0.776   1.438   5.854  0.3218  0.1200 -0.0133
  150SAPS   H7Y16648   0.934   1.501   5.825  0.2040 -1.0939  1.6562
  150SAPS   C3816649   0.768   1.595   5.706 -0.3535 -0.3920  0.3206
  150SAPS   H8X16650   0.834   1.682   5.683 -0.0427 -0.8214 -0.4443
  150SAPS   H8Y16651   0.671   1.645   5.726 -0.0036 -0.1325  1.4810
  150SAPS   C3916652   0.781   1.500   5.587 -0.2061 -0.0577  0.5348
  150SAPS   H9X16653   0.716   1.410   5.591 -0.5409  0.1772  0.4316
  150SAPS   H9Y16654   0.888   1.470   5.583  0.8182  3.2119 -3.1543
  150SAPS  C31016655   0.744   1.560   5.441 -0.1480 -0.0656 -0.5430
  150SAPS  H10X16656   0.817   1.639   5.414  0.2159  0.5824  2.0652
  150SAPS  H10Y16657   0.645   1.609   5.452  0.7323  1.4965  0.8478
  150SAPS  C31116658   0.749   1.455   5.327  0.4315 -0.7956 -0.0132
  150SAPS  H11X16659   0.688   1.369   5.360 -2.7752  1.0087 -0.8431
  150SAPS  H11Y16660   0.856   1.427   5.313  0.4075 -1.8417  1.6531
  150SAPS  C31216661   0.691   1.509   5.187 -0.4752  0.7888  0.2593
  150SAPS  H12X16662   0.747   1.601   5.158 -1.0823  0.5443 -1.9080
  150SAPS  H12Y16663   0.586   1.539   5.210 -0.7200  2.5126 -2.5989
  150SAPS  C31316664   0.695   1.405   5.072 -0.3126  0.3259  0.7325
  150SAPS  H13X16665   0.639   1.443   4.984  1.2718 -0.1952 -0.5311
  150SAPS  H13Y16666   0.644   1.313   5.109  1.8253 -0.7238  1.1894
  150SAPS  C31416667   0.842   1.386   5.025  0.5558  0.5530 -0.3346
  150SAPS  H14X16668   0.880   1.290   5.067  0.4740  0.1678 -1.1217
  150SAPS  H14Y16669   0.901   1.475   5.055  3.6736 -0.8953 -1.6868
  150SAPS  C31516670   0.841   1.392   4.870 -0.3604  0.8011 -0.3081
  150SAPS  H15X16671   0.762   1.334   4.819 -0.4221 -0.2119  0.8916
  150SAPS  H15Y16672   0.938   1.345   4.841 -0.7451  0.5349 -1.1968
  150SAPS  C31616673   0.866   1.537   4.815  0.8142  0.7333  0.0439
  150SAPS  H16X16674   0.937   1.594   4.879  2.2747 -1.5371  0.5317
  150SAPS  H16Y16675   0.765   1.584   4.821  1.4334  2.2766 -0.9879
  150SAPS  C31716676   0.899   1.535   4.664 -0.9320 -0.5545 -0.0910
  150SAPS  H17X16677   0.816   1.492   4.604 -0.2494 -0.6421 -0.9904
  150SAPS  H17Y16678   0.986   1.469   4.646  1.3869  1.5973  2.2985
  150SAPS  C31816679   0.924   1.676   4.606  0.9218 -0.1410  0.1264
  150SAPS  H18X16680   0.838   1.731   4.649 -1.6314 -3.7572  0.0793
  150SAPS  H18Y16681   0.921   1.684   4.496 -1.2414  1.2643  0.2361
  150SAPS  H18Z16682   1.024   1.707   4.644  2.0717  1.7868 -3.9508
  151SAPS     N16683   3.494   3.116   1.824  0.1381  0.0567 -0.7018
  151SAPS   HN116684   3.491   3.188   1.750 -0.0888 -0.0841 -0.8310
  151SAPS   HN216685   3.534   3.033   1.775  0.2911  1.4523 -3.0416
  151SAPS   HN316686   3.400   3.095   1.865  0.7755  0.2397  0.9482
  151SAPS   C1216687   3.591   3.137   1.938 -0.6532 -0.3415  0.4569
  151SAPS  H12A16688   3.688   3.158   1.894  0.0016 -2.2175  0.9104
  151SAPS   C1316689   3.551   3.256   2.025  0.8240  0.1840  0.0736
  151SAPS  O13A16690   3.445   3.318   1.991 -0.3031 -0.0206 -0.6021
  151SAPS  O13B16691   3.616   3.277   2.130  0.3526  0.4189 -0.6430
  151SAPS   C1116692   3.595   3.002   2.016 -0.2071 -0.3181  0.0422
  151SAPS  H11A16693   3.491   2.971   2.042 -1.1310  1.3240 -1.4123
  151SAPS  H11B16694   3.646   3.025   2.111 -0.6804 -2.4803  0.8867
  151SAPS     P16695   3.677   2.752   1.973  0.1546  0.1310  0.0152
  151SAPS   O1316696   3.566   2.688   1.894 -0.0407  0.4470 -0.1242
  151SAPS   O1416697   3.812   2.697   1.953  0.6117 -0.7508  0.4225
  151SAPS   O1216698   3.662   2.903   1.933  0.5212  0.6283 -1.0493
  151SAPS   O1116699   3.634   2.753   2.128  0.1786  0.2446 -0.2044
  151SAPS    C116700   3.725   2.749   2.233 -0.2606  0.3514  0.8300
  151SAPS    HA16701   3.800   2.830   2.221  1.2647 -1.4165 -3.1540
  151SAPS    HB16702   3.668   2.775   2.325  1.0858  2.4537  1.1304
  151SAPS    C216703   3.789   2.607   2.266  0.6251  0.0290 -0.0887
  151SAPS    HS16704   3.846   2.583   2.173  1.7228  1.0710  0.3032
  151SAPS   O2116705   3.680   2.515   2.263  0.1000 -0.1137 -0.0500
  151SAPS   C2116706   3.717   2.391   2.274  0.1505 -0.1655 -0.0028
  151SAPS   O2216707   3.829   2.350   2.253 -0.5935  0.0899 -0.7483
  151SAPS   C2216708   3.588   2.311   2.304  0.2845  0.6733  0.3841
  151SAPS   H2R16709   3.531   2.356   2.389 -1.2508 -3.0421  1.5897
  151SAPS   H2S16710   3.531   2.318   2.209  0.1626  1.5161  0.5127
  151SAPS    C316711   3.875   2.601   2.394  0.5038 -0.3132 -0.8259
  151SAPS    HX16712   3.950   2.682   2.386  1.3267 -1.0933 -1.1944
  151SAPS    HY16713   3.939   2.511   2.406  1.6729  0.7657  1.7802
  151SAPS   O3116714   3.794   2.622   2.515  0.1882  0.1481  0.1575
  151SAPS   C3116715   3.857   2.667   2.624  0.5752 -0.2419  0.3475
  151SAPS   O3216716   3.975   2.692   2.634 -0.4148  0.5268 -0.2667
  151SAPS   C3216717   3.758   2.656   2.743 -0.1195  0.3376  0.3739
  151SAPS   H2X16718   3.778   2.735   2.817 -1.3730 -0.8836  2.1027
  151SAPS   H2Y16719   3.775   2.558   2.794  0.6106  1.5249  2.5384
  151SAPS   C2316720   3.629   2.169   2.339 -0.0511  0.0769  0.6092
  151SAPS   H3R16721   3.721   2.166   2.402  0.2223 -2.8598  0.2054
  151SAPS   H3S16722   3.648   2.117   2.242 -1.9256  0.0670  0.2028
  151SAPS   C2416723   3.510   2.090   2.401  0.7807  0.5254  0.5844
  151SAPS   H4R16724   3.539   1.982   2.395 -0.3532  0.1346  1.6143
  151SAPS   H4S16725   3.420   2.099   2.336  2.0004  0.4740 -1.1816
  151SAPS   C2516726   3.475   2.140   2.533  0.8378  1.0209 -0.7277
  151SAPS   H5R16727   3.478   2.250   2.535  2.3730  0.9987  1.1915
  151SAPS   C2616728   3.451   2.069   2.642  0.2422 -0.3077 -0.2579
  151SAPS   H6R16729   3.425   2.106   2.742 -1.4053 -4.3956  1.0219
  151SAPS   C2716730   3.458   1.918   2.641 -0.0537  0.2606  0.5128
  151SAPS   H7R16731   3.532   1.891   2.719 -1.6241 -0.5673  1.7693
  151SAPS   H7S16732   3.506   1.878   2.549  0.2882  0.0475  0.7842
  151SAPS   C2816733   3.324   1.850   2.669 -0.1460  0.0269  0.0290
  151SAPS   H8R16734   3.269   1.834   2.575 -3.2264  2.8673  1.1654
  151SAPS   C2916735   3.267   1.815   2.788 -0.0550  0.9886 -0.5360
  151SAPS   H9R16736   3.166   1.771   2.781  0.6570 -0.4592 -2.5830
  151SAPS  C21016737   3.336   1.832   2.922  0.2090 -0.2092 -0.2703
  151SAPS  H10R16738   3.271   1.894   2.987 -0.6950  0.2205 -1.5483
  151SAPS  H10S16739   3.427   1.896   2.914 -0.4301  0.5787 -1.4820
  151SAPS  C21116740   3.373   1.707   2.994 -0.1852 -0.3019  0.3572
  151SAPS  H11R16741   3.441   1.646   2.932  0.4330 -1.6535  2.2682
  151SAPS  C21216742   3.334   1.653   3.109 -0.1109 -0.1700  0.1709
  151SAPS  H12R16743   3.386   1.564   3.147 -1.1013 -1.1484 -0.6984
  151SAPS  C21316744   3.240   1.693   3.221  0.5140  0.0856 -0.2335
  151SAPS  H13R16745   3.178   1.610   3.260  1.6235  0.4886  2.5986
  151SAPS  H13S16746   3.162   1.767   3.191  1.6412  1.1076 -0.7378
  151SAPS  C21416747   3.307   1.767   3.332  0.0545 -0.1071 -0.1870
  151SAPS  H14R16748   3.365   1.855   3.300  0.1095  0.3242  1.0524
  151SAPS  C21516749   3.304   1.719   3.460  0.3453 -0.3859  0.4014
  151SAPS  H15R16750   3.364   1.776   3.533  2.3855  0.2182 -1.6532
  151SAPS  C21616751   3.244   1.588   3.512 -0.6706  0.3035  0.4620
  151SAPS  H16R16752   3.313   1.550   3.591  0.3057  1.8387  0.4101
  151SAPS  H16S16753   3.250   1.512   3.431 -3.2785  0.4344  0.0758
  151SAPS  C21716754   3.106   1.599   3.568  0.0955  0.1969 -0.2445
  151SAPS  H17R16755   3.077   1.493   3.584  0.6605  0.2556  1.4503
  151SAPS  H17S16756   3.036   1.658   3.504 -1.8066 -1.7661 -0.1111
  151SAPS  C21816757   3.111   1.664   3.705 -0.5098 -0.9731 -0.4638
  151SAPS  H18R16758   3.138   1.771   3.697  1.1746 -1.2162  1.2123
  151SAPS  H18S16759   3.196   1.621   3.762 -0.5132  0.1458  0.4316
  151SAPS  C21916760   2.981   1.662   3.789 -0.8572  0.2266  0.3070
  151SAPS  H19R16761   2.900   1.707   3.728 -0.3717 -0.7318 -1.1134
  151SAPS  H19S16762   3.004   1.722   3.880 -0.5058 -1.1678  1.1723
  151SAPS  C22016763   2.929   1.526   3.813 -0.5563 -0.3650 -0.3944
  151SAPS  H20R16764   2.998   1.474   3.883  0.4313  2.5500  0.9493
  151SAPS  H20S16765   2.931   1.471   3.717 -2.2144 -1.9229  0.3854
  151SAPS  H20T16766   2.829   1.528   3.862 -0.3823 -1.5157  0.0441
  151SAPS   C3316767   3.609   2.669   2.699  0.6872  0.1968 -0.0118
  151SAPS   H3X16768   3.592   2.596   2.617 -0.7973  1.3099 -0.7541
  151SAPS   H3Y16769   3.588   2.769   2.653  0.4583 -0.3163 -1.0628
  151SAPS   C3416770   3.513   2.640   2.811 -0.2011  0.4044 -0.1113
  151SAPS   H4X16771   3.538   2.687   2.908  0.3025  2.1071 -1.0248
  151SAPS   H4Y16772   3.511   2.531   2.833 -1.9973  0.2042 -1.0627
  151SAPS   C3516773   3.366   2.683   2.782  0.1509 -0.3396 -0.1491
  151SAPS   H5X16774   3.339   2.660   2.677 -1.4184 -1.0895  0.3853
  151SAPS   H5Y16775   3.366   2.793   2.799  1.5930 -0.2863 -0.3704
  151SAPS   C3616776   3.265   2.604   2.866  0.1977 -0.9469  0.5502
  151SAPS   H6X16777   3.251   2.506   2.817  0.7932 -1.5398  1.5380
  151SAPS   H6Y16778   3.176   2.669   2.848  1.2408  0.2234 -0.6934
  151SAPS   C3716779   3.284   2.600   3.014  0.0087 -0.3918 -0.1682
  151SAPS   H7X16780   3.379   2.547   3.034  0.8445  1.0802 -0.1193
  151SAPS   H7Y16781   3.204   2.532   3.051  2.1237 -2.6542  0.5142
  151SAPS   C3816782   3.271   2.741   3.075  0.2864 -0.0702 -0.1560
  151SAPS   H8X16783   3.166   2.774   3.062 -0.2841 -1.8193 -0.1726
  151SAPS   H8Y16784   3.330   2.826   3.036  0.7091 -1.0228 -1.6750
  151SAPS   C3916785   3.293   2.730   3.231 -0.2937 -0.9852 -0.1435
  151SAPS   H9X16786   3.312   2.836   3.256 -0.3984 -0.5309 -1.8561
  151SAPS   H9Y16787   3.391   2.680   3.247  1.4334  2.0639 -0.4972
  151SAPS  C31016788   3.185   2.656   3.307  0.2542 -0.3709  0.2161
  151SAPS  H10X16789   3.195   2.546   3.291  1.1281 -0.3090  0.2928
  151SAPS  H10Y16790   3.087   2.666   3.256 -0.1391  0.2612  1.0779
  151SAPS  C31116791   3.176   2.711   3.447 -0.3700  0.2319  0.4881
  151SAPS  H11X16792   3.119   2.806   3.442  0.4304  0.6707 -3.6205
  151SAPS  H11Y16793   3.282   2.727   3.475 -0.1857  2.8336 -1.3847
  151SAPS  C31216794   3.111   2.612   3.538 -0.0623 -0.0636  0.2043
  151SAPS  H12X16795   3.097   2.654   3.640 -0.4701 -1.2218  0.6341
  151SAPS  H12Y16796   3.172   2.520   3.546  1.9279  1.2209  0.7090
  151SAPS  C31316797   2.966   2.591   3.481 -0.6121 -0.0667  0.1141
  151SAPS  H13X16798   2.966   2.548   3.379  1.8354  0.7194 -0.2809
  151SAPS  H13Y16799   2.924   2.694   3.487 -0.0391  0.2228 -0.6589
  151SAPS  C31416800   2.887   2.494   3.564 -0.0500 -0.5747  0.5100
  151SAPS  H14X16801   2.927   2.391   3.554  0.5371 -0.6934  3.2181
  151SAPS  H14Y16802   2.785   2.488   3.520  0.9564  0.1725 -2.1383
  151SAPS  C31516803   2.880   2.525   3.714 -0.8512  0.1916 -0.1783
  151SAPS  H15X16804   2.985   2.518   3.749  0.2110 -2.2204 -3.4062
  151SAPS  H15Y16805   2.822   2.451   3.774 -3.6138  3.1039  1.0281
  151SAPS  C31616806   2.817   2.659   3.747 -0.2602  0.2920  0.0991
  151SAPS  H16X16807   2.734   2.688   3.678 -0.3567  0.7743  0.4174
  151SAPS  H16Y16808   2.894   2.735   3.726 -0.9553  1.1153  0.4695
  151SAPS  C31716809   2.771   2.665   3.888 -0.5018  0.0785 -0.8322
  151SAPS  H17X16810   2.691   2.588   3.897 -1.4370  1.1660  0.7826
  151SAPS  H17Y16811   2.718   2.761   3.903 -0.5642  0.1217 -1.3206
  151SAPS  C31816812   2.887   2.649   3.987 -0.8063 -0.2708  0.2754
  151SAPS  H18X16813   2.851   2.615   4.087 -0.0009 -3.1150 -0.2907
  151SAPS  H18Y16814   2.952   2.738   4.001 -0.6037 -0.5306  1.0830
  151SAPS  H18Z16815   2.956   2.563   3.971  0.7047  0.1696  3.5734
  152SAPS     N16816   3.187   3.335   2.097  0.6264  0.4773  0.2596
  152SAPS   HN116817   3.286   3.345   2.066 -0.5176  2.8557 -3.1702
  152SAPS   HN216818   3.173   3.279   2.184 -1.0556 -0.5995 -0.6585
  152SAPS   HN316819   3.135   3.276   2.030  0.0288  0.0658  1.0680
  152SAPS   C1216820   3.128   3.464   2.087  0.6794 -0.0219  0.4908
  152SAPS  H12A16821   3.174   3.532   2.157 -1.7434  2.4142 -0.0947
  152SAPS   C1316822   3.133   3.531   1.947 -0.0297 -0.3971  0.6320
  152SAPS  O13A16823   3.188   3.474   1.852  0.2912  0.2375 -0.0691
  152SAPS  O13B16824   3.083   3.650   1.935 -0.0128 -0.0985 -0.3225
  152SAPS   C1116825   2.979   3.453   2.135 -0.0202 -0.6407 -0.2502
  152SAPS  H11A16826   2.926   3.387   2.063  0.2385 -0.7218 -0.3688
  152SAPS  H11B16827   2.928   3.551   2.127  0.3231 -0.3299  1.1466
  152SAPS     P16828   2.969   3.477   2.390  0.0121 -0.5398 -0.4594
  152SAPS   O1316829   3.111   3.519   2.406 -0.8680 -0.6227  0.0931
  152SAPS   O1416830   2.873   3.589   2.388  0.8815 -0.2569 -0.4126
  152SAPS   O1216831   2.956   3.384   2.261 -0.2174 -0.2050  0.3456
  152SAPS   O1116832   2.934   3.383   2.511  0.8815  1.2844  0.2031
  152SAPS    C116833   3.005   3.262   2.535  0.6427  0.4850 -0.0286
  152SAPS    HA16834   2.995   3.191   2.450  3.3198 -0.2104  0.1456
  152SAPS    HB16835   3.114   3.285   2.538  0.2335  2.5826 -0.1004
  152SAPS    C216836   2.949   3.186   2.661  0.4210 -0.6939  0.4241
  152SAPS    HS16837   3.002   3.091   2.683  0.1271 -0.9933 -0.1651
  152SAPS   O2116838   2.808   3.171   2.657  0.8610  0.7282  0.0011
  152SAPS   C2116839   2.766   3.071   2.578 -0.4596  0.5017  0.3372
  152SAPS   O2216840   2.838   3.005   2.508 -0.1517  0.1633 -0.2906
  152SAPS   C2216841   2.617   3.057   2.585 -0.3975 -0.5537 -0.2409
  152SAPS   H2R16842   2.568   3.142   2.637 -0.7386 -0.4030 -0.7993
  152SAPS   H2S16843   2.589   3.073   2.479 -0.6213  2.4190  0.1655
  152SAPS    C316844   2.999   3.267   2.786  0.9672 -0.1684 -0.1965
  152SAPS    HX16845   2.972   3.368   2.748  1.5146  0.8643  2.0589
  152SAPS    HY16846   3.108   3.277   2.802  0.6081  1.6301  1.4589
  152SAPS   O3116847   2.919   3.246   2.907  0.0736 -0.5251 -0.4929
  152SAPS   C3116848   2.962   3.136   2.967 -0.3595 -0.4627 -0.3382
  152SAPS   O3216849   3.049   3.062   2.923  0.4709  0.2890 -0.0092
  152SAPS   C3216850   2.891   3.123   3.101 -0.1996  0.9224 -0.2361
  152SAPS   H2X16851   2.783   3.100   3.090  0.5677 -3.3755 -0.8350
  152SAPS   H2Y16852   2.904   3.221   3.151  1.5199  0.2553  0.7124
  152SAPS   C2316853   2.566   2.912   2.636  0.4874 -0.5615  0.5961
  152SAPS   H3R16854   2.574   2.922   2.746  0.2784 -1.0879  0.6633
  152SAPS   H3S16855   2.644   2.836   2.609 -1.0831 -1.1808 -2.7107
  152SAPS   C2416856   2.424   2.878   2.581 -0.3587  0.0627  0.1725
  152SAPS   H4R16857   2.419   2.769   2.602  2.4973  0.0824  1.4129
  152SAPS   H4S16858   2.423   2.882   2.470 -1.4661 -0.5168  0.1459
  152SAPS   C2516859   2.315   2.959   2.649 -0.1156 -0.3937  0.3140
  152SAPS   H5R16860   2.288   3.053   2.599 -0.2500  0.2244  1.5051
  152SAPS   C2616861   2.253   2.928   2.763 -1.0000  0.6371 -0.0481
  152SAPS   H6R16862   2.175   2.992   2.807 -0.8315 -0.2942  1.7088
  152SAPS   C2716863   2.276   2.800   2.832  0.0903  0.4001 -0.5082
  152SAPS   H7R16864   2.315   2.723   2.762 -0.3159  1.3087 -1.7713
  152SAPS   H7S16865   2.191   2.738   2.867  1.2723 -1.5583 -0.9296
  152SAPS   C2816866   2.375   2.821   2.941 -0.6522  0.1569  0.1905
  152SAPS   H8R16867   2.480   2.813   2.910 -0.4425 -0.7701  1.0973
  152SAPS   C2916868   2.353   2.845   3.066  0.0802  0.3566 -0.5305
  152SAPS   H9R16869   2.445   2.857   3.126  1.1869 -0.3112 -2.0245
  152SAPS  C21016870   2.222   2.869   3.135  0.0583 -0.1638  0.5492
  152SAPS  H10R16871   2.135   2.861   3.066 -1.3057  0.0760  2.1829
  152SAPS  H10S16872   2.217   2.976   3.162 -1.3774  0.2162 -1.0044
  152SAPS  C21116873   2.195   2.781   3.256 -0.1881  0.3549 -0.0186
  152SAPS  H11R16874   2.155   2.681   3.235  0.5695  0.1121 -0.3684
  152SAPS  C21216875   2.230   2.808   3.385 -0.1072 -0.5660 -0.1946
  152SAPS  H12R16876   2.202   2.735   3.463 -1.0510  0.5014  0.5013
  152SAPS  C21316877   2.285   2.943   3.430  0.4015 -0.7226  0.6677
  152SAPS  H13R16878   2.202   3.015   3.448 -0.3077 -0.9763 -1.3090
  152SAPS  H13S16879   2.360   2.981   3.358  1.6364 -2.0248  1.2096
  152SAPS  C21416880   2.361   2.928   3.556 -0.7930 -0.4462 -0.0983
  152SAPS  H14R16881   2.470   2.924   3.551 -0.7349  0.0715  0.5996
  152SAPS  C21516882   2.298   2.917   3.676  0.0043  0.1859  0.7914
  152SAPS  H15R16883   2.354   2.921   3.770 -0.1020  1.6359  0.8110
  152SAPS  C21616884   2.146   2.902   3.698  0.5308 -0.3111  0.3282
  152SAPS  H16R16885   2.095   2.886   3.600 -0.1611 -3.1954  1.0823
  152SAPS  H16S16886   2.101   2.991   3.747  1.6817  0.2973  0.3292
  152SAPS  C21716887   2.106   2.777   3.783  0.1916  1.1725 -0.0952
  152SAPS  H17R16888   2.154   2.689   3.736  0.3955  1.1328  0.1821
  152SAPS  H17S16889   1.999   2.758   3.761  0.4672  0.0162 -0.5037
  152SAPS  C21816890   2.122   2.787   3.934  0.4980 -0.0522  0.0690
  152SAPS  H18R16891   2.224   2.830   3.936 -0.4578  2.4282  1.5968
  152SAPS  H18S16892   2.111   2.686   3.978  1.3477  0.0697  0.5933
  152SAPS  C21916893   2.025   2.880   4.005 -0.0739 -0.1242  0.4144
  152SAPS  H19R16894   1.922   2.840   3.998  0.2930 -0.9304 -0.7917
  152SAPS  H19S16895   2.018   2.978   3.954 -0.1604  0.3908  1.3914
  152SAPS  C22016896   2.055   2.906   4.151 -0.5845  0.0045 -0.3395
  152SAPS  H20R16897   1.978   2.974   4.193 -1.0336 -1.5231  1.4890
  152SAPS  H20S16898   2.043   2.814   4.213  2.2818 -0.3634 -0.1842
  152SAPS  H20T16899   2.151   2.962   4.159 -0.9074  0.7548 -1.4950
  152SAPS   C3316900   2.947   3.009   3.187 -0.3416  0.1310 -0.2619
  152SAPS   H3X16901   3.054   3.025   3.214  0.6259  0.7985 -3.9362
  152SAPS   H3Y16902   2.946   2.921   3.119 -1.1003 -0.1772  0.1396
  152SAPS   C3416903   2.856   2.976   3.314 -0.4376 -0.0447  0.3137
  152SAPS   H4X16904   2.878   2.872   3.345 -1.9558 -0.1714  1.0247
  152SAPS   H4Y16905   2.751   2.976   3.279  0.0762  1.9074 -1.4658
  152SAPS   C3516906   2.879   3.080   3.423 -0.1532 -0.4944  0.2311
  152SAPS   H5X16907   2.839   3.175   3.381  1.4989 -0.1415 -0.6240
  152SAPS   H5Y16908   2.983   3.113   3.446 -0.2803  0.7304 -0.8581
  152SAPS   C3616909   2.798   3.052   3.545 -1.0658 -0.2736  0.4211
  152SAPS   H6X16910   2.817   2.947   3.577 -0.6308 -0.1488  0.5836
  152SAPS   H6Y16911   2.689   3.058   3.526 -1.1462 -0.2242  0.8681
  152SAPS   C3716912   2.826   3.156   3.657 -0.0024  0.0453 -0.3072
  152SAPS   H7X16913   2.805   3.258   3.618 -0.7078 -0.5478 -1.5481
  152SAPS   H7Y16914   2.936   3.141   3.671 -0.3117 -1.8997  0.3484
  152SAPS   C3816915   2.743   3.126   3.780  0.2306  0.5536 -0.3503
  152SAPS   H8X16916   2.776   3.024   3.812 -0.7211 -0.0651 -1.2607
  152SAPS   H8Y16917   2.635   3.116   3.757  0.4437  2.2735 -2.3946
  152SAPS   C3916918   2.750   3.238   3.886  0.6702 -0.1929  0.0678
  152SAPS   H9X16919   2.647   3.262   3.919  0.4892 -0.4570 -0.2927
  152SAPS   H9Y16920   2.789   3.327   3.832 -0.6328 -1.6378 -3.6226
  152SAPS  C31016921   2.829   3.192   4.002  0.1335  0.6047 -0.0387
  152SAPS  H10X16922   2.920   3.160   3.947 -0.8522  0.7053 -1.7938
  152SAPS  H10Y16923   2.772   3.106   4.042  0.2070  0.9262  0.7829
  152SAPS  C31116924   2.862   3.292   4.110  0.3701 -0.4153 -0.3677
  152SAPS  H11X16925   2.767   3.321   4.159  0.6356  0.3676 -0.3121
  152SAPS  H11Y16926   2.914   3.381   4.070 -0.8743  1.3381  1.7003
  152SAPS  C31216927   2.943   3.230   4.223 -0.0961 -0.3337 -0.1782
  152SAPS  H12X16928   3.027   3.173   4.179 -0.7880  1.3599 -4.1121
  152SAPS  H12Y16929   2.863   3.178   4.281 -1.6094  2.1972  0.1465
  152SAPS  C31316930   3.009   3.326   4.326 -0.6512  1.2040 -0.6601
  152SAPS  H13X16931   2.943   3.400   4.378  0.9957  0.8291  2.2042
  152SAPS  H13Y16932   3.089   3.373   4.265 -0.6130  1.9496 -0.0592
  152SAPS  C31416933   3.075   3.246   4.446  0.3979 -0.2689 -0.1199
  152SAPS  H14X16934   3.134   3.163   4.402 -1.4362 -0.7576 -1.7887
  152SAPS  H14Y16935   2.989   3.197   4.498  1.0297 -0.3655  0.8671
  152SAPS  C31516936   3.145   3.327   4.559  0.1129  0.0668 -0.0194
  152SAPS  H15X16937   3.070   3.399   4.599  1.2804  0.8382  0.8672
  152SAPS  H15Y16938   3.174   3.256   4.640 -1.9235  1.3494  1.9371
  152SAPS  C31616939   3.266   3.411   4.516  0.3356  1.3694  0.0888
  152SAPS  H16X16940   3.294   3.475   4.603 -0.8292 -1.0850  2.4055
  152SAPS  H16Y16941   3.235   3.467   4.425 -2.2107 -0.9484 -0.5726
  152SAPS  C31716942   3.390   3.329   4.469  0.0659 -0.0503  0.4109
  152SAPS  H17X16943   3.361   3.263   4.385  0.0333  0.9306 -0.3721
  152SAPS  H17Y16944   3.423   3.273   4.559  2.4438  1.5308  0.6372
  152SAPS  C31816945   3.508   3.423   4.424  0.5668  0.1052 -0.5060
  152SAPS  H18X16946   3.479   3.456   4.322 -1.0164  0.6106  0.0866
  152SAPS  H18Y16947   3.602   3.364   4.419  2.3961  2.7753  0.1454
  152SAPS  H18Z16948   3.524   3.510   4.491  0.8999 -0.9130  0.7920
  153SAPS     N16949   1.701   4.611   2.133 -0.1815 -0.1294  0.1264
  153SAPS   HN116950   1.785   4.634   2.190  0.4254 -1.7434 -0.0767
  153SAPS   HN216951   1.638   4.693   2.126 -0.2536  0.1535  2.9514
  153SAPS   HN316952   1.642   4.537   2.175 -0.3022 -0.8864 -1.2956
  153SAPS   C1216953   1.747   4.561   2.001 -0.6149  0.3226  0.6399
  153SAPS  H12A16954   1.658   4.528   1.949  0.6592 -0.7192 -1.0214
  153SAPS   C1316955   1.817   4.661   1.912  0.2284 -0.1343  0.2413
  153SAPS  O13A16956   1.826   4.777   1.946 -0.4933 -0.6662  0.1534
  153SAPS  O13B16957   1.868   4.628   1.802  0.3734 -0.2084  0.3323
  153SAPS   C1116958   1.852   4.443   2.023  0.0515 -0.2548  0.0304
  153SAPS  H11A16959   1.920   4.480   2.103  0.4559 -0.1725 -0.3474
  153SAPS  H11B16960   1.919   4.415   1.939  1.9797  2.2018  0.6221
  153SAPS     P16961   1.742   4.206   1.984  0.0210  0.2442 -0.5016
  153SAPS   O1316962   1.697   4.262   1.859  0.1781 -0.6035 -0.0398
  153SAPS   O1416963   1.851   4.106   1.967 -0.6549 -0.2098  0.0008
  153SAPS   O1216964   1.791   4.325   2.081  0.7012  0.0371 -0.4381
  153SAPS   O1116965   1.619   4.146   2.052 -0.4422  0.4849  0.1290
  153SAPS    C116966   1.503   4.232   2.077  0.7383  0.7929 -0.2358
  153SAPS    HA16967   1.502   4.339   2.048  2.2444  0.6721 -0.8377
  153SAPS    HB16968   1.423   4.190   2.013  0.4739 -1.6091  1.5277
  153SAPS    C216969   1.448   4.215   2.225 -0.4235  0.0932 -0.0587
  153SAPS    HS16970   1.393   4.309   2.249  0.0099 -0.0878  1.7896
  153SAPS   O2116971   1.550   4.206   2.322  0.6265 -0.0548 -0.0077
  153SAPS   C2116972   1.609   4.326   2.349 -0.1265 -0.0344  0.3423
  153SAPS   O2216973   1.586   4.433   2.294 -0.0084  0.0612  0.3625
  153SAPS   C2216974   1.702   4.308   2.466 -0.0135 -0.0350  0.8622
  153SAPS   H2R16975   1.643   4.296   2.559  0.6784 -0.9767  1.1995
  153SAPS   H2S16976   1.762   4.216   2.448 -0.8199 -0.6676  1.3295
  153SAPS    C316977   1.345   4.102   2.238  0.1237  0.7569  0.2188
  153SAPS    HX16978   1.393   4.005   2.264 -0.8620  0.7097  2.0125
  153SAPS    HY16979   1.287   4.090   2.145 -0.4685 -0.9884  0.7684
  153SAPS   O3116980   1.268   4.137   2.351  0.6312 -0.4029  0.2445
  153SAPS   C3116981   1.151   4.083   2.360  0.3707  0.4254  0.0792
  153SAPS   O3216982   1.108   3.993   2.285  0.7209 -0.2045  1.0975
  153SAPS   C3216983   1.090   4.126   2.498 -0.2391 -0.0865  0.4149
  153SAPS   H2X16984   1.076   4.236   2.495  0.8988  0.1249  1.7339
  153SAPS   H2Y16985   1.165   4.097   2.575  1.0112  1.5020 -0.1532
  153SAPS   C2316986   1.811   4.412   2.466  0.2170 -0.1246 -1.1395
  153SAPS   H3R16987   1.760   4.509   2.485 -0.4177 -0.9222  1.5374
  153SAPS   H3S16988   1.860   4.423   2.367 -0.4813  1.6934 -1.3361
  153SAPS   C2416989   1.921   4.380   2.565 -0.0093 -0.1819  0.9276
  153SAPS   H4R16990   1.993   4.304   2.528  0.3981  1.5603 -2.1638
  153SAPS   H4S16991   1.873   4.334   2.655 -1.0398  0.7248  0.8652
  153SAPS   C2516992   1.993   4.514   2.607  0.1614  0.4064  0.1755
  153SAPS   H5R16993   2.087   4.541   2.556  1.0279 -1.7689  0.4997
  153SAPS   C2616994   1.943   4.601   2.699  0.0118  0.5153  0.2417
  153SAPS   H6R16995   1.992   4.699   2.700 -0.4333  0.7383  1.3227
  153SAPS   C2716996   1.817   4.593   2.786 -0.7118  0.0391  0.4555
  153SAPS   H7R16997   1.817   4.500   2.848 -1.0698 -0.1795  0.1379
  153SAPS   H7S16998   1.730   4.580   2.717 -1.1163 -0.5301  1.0532
  153SAPS   C2816999   1.778   4.714   2.867  0.1656  0.0306 -0.6207
  153SAPS   H8R17000   1.695   4.772   2.823  0.9187  0.7555 -1.1031
  153SAPS   C2917001   1.832   4.744   2.989 -0.5842 -0.3625  0.1765
  153SAPS   H9R17002   1.798   4.831   3.047  0.0836 -2.3275  3.7839
  153SAPS  C21017003   1.959   4.679   3.062  0.8134  0.0478  0.3554
  153SAPS  H10R17004   2.009   4.766   3.109 -2.4638  1.6483  1.1498
  153SAPS  H10S17005   2.021   4.632   2.982 -1.1373 -0.8087 -0.7316
  153SAPS  C21117006   1.925   4.570   3.153 -0.0864  0.5963  0.3353
  153SAPS  H11R17007   1.906   4.469   3.114 -0.1489  0.2788  1.1601
  153SAPS  C21217008   1.917   4.583   3.290 -0.0723  0.7329  0.0294
  153SAPS  H12R17009   1.893   4.492   3.348 -2.4401 -0.5733 -2.7442
  153SAPS  C21317010   1.925   4.713   3.369 -0.4917  0.2195  0.6374
  153SAPS  H13R17011   1.940   4.801   3.302 -3.1471  0.4006  0.1946
  153SAPS  H13S17012   2.017   4.715   3.432  0.8007 -1.3210 -1.0848
  153SAPS  C21417013   1.801   4.731   3.446 -0.0928  0.3902 -0.0912
  153SAPS  H14R17014   1.712   4.684   3.402 -1.1694 -1.0503  3.3203
  153SAPS  C21517015   1.787   4.755   3.574  0.2258  0.0284 -0.6031
  153SAPS  H15R17016   1.690   4.741   3.623 -0.2755 -1.0827 -1.8634
  153SAPS  C21617017   1.892   4.790   3.672 -0.4877 -0.0153 -0.9863
  153SAPS  H16R17018   1.968   4.848   3.616  0.4666 -0.3953 -0.1117
  153SAPS  H16S17019   1.936   4.698   3.715 -0.2221 -0.3725 -1.9963
  153SAPS  C21717020   1.857   4.895   3.784 -0.7888 -0.1987 -1.0107
  153SAPS  H17R17021   1.934   4.886   3.863 -2.7024  0.8875  1.0759
  153SAPS  H17S17022   1.759   4.863   3.825 -0.0757 -1.5517 -0.2722
  153SAPS  C21817023   1.835   5.042   3.737 -0.0286 -0.0152 -0.0901
  153SAPS  H18R17024   1.731   5.049   3.698 -0.7654 -1.0813  1.5927
  153SAPS  H18S17025   1.910   5.070   3.659 -0.4437 -0.3835 -0.6307
  153SAPS  C21917026   1.844   5.146   3.849 -0.1543 -0.1690  0.6528
  153SAPS  H19R17027   1.848   5.253   3.819 -0.9885 -0.2472  0.2569
  153SAPS  H19S17028   1.936   5.124   3.908 -1.6054  0.8936  3.5041
  153SAPS  C22017029   1.731   5.124   3.947 -1.0968 -0.0473 -0.4227
  153SAPS  H20R17030   1.726   5.019   3.984 -0.2081  0.1975  0.4228
  153SAPS  H20S17031   1.630   5.158   3.915 -1.6712  1.1510  2.3169
  153SAPS  H20T17032   1.748   5.182   4.041 -1.0662  0.8420 -0.9623
  153SAPS   C3317033   0.954   4.061   2.528  0.5993 -0.1510 -0.4572
  153SAPS   H3X17034   0.958   3.950   2.535 -0.5997 -0.1388  0.9764
  153SAPS   H3Y17035   0.885   4.080   2.443 -2.0939 -3.6455  0.6898
  153SAPS   C3417036   0.900   4.120   2.662 -0.1072  0.4258 -0.1222
  153SAPS   H4X17037   0.789   4.108   2.659 -0.6029  3.9823 -0.6159
  153SAPS   H4Y17038   0.921   4.229   2.663 -0.0903  0.4199  0.5267
  153SAPS   C3517039   0.957   4.046   2.785  1.1412 -0.7496  0.0901
  153SAPS   H5X17040   1.068   4.045   2.786  1.1344 -2.0031  0.3785
  153SAPS   H5Y17041   0.926   3.940   2.778  1.8951 -0.8668 -3.6919
  153SAPS   C3617042   0.916   4.114   2.922  0.1559 -0.0096 -0.0956
  153SAPS   H6X17043   0.807   4.114   2.943  0.0031  2.6100 -0.5685
  153SAPS   H6Y17044   0.953   4.219   2.915  0.7537 -0.1681  0.5911
  153SAPS   C3717045   1.000   4.049   3.037  0.3757  0.2479  0.3359
  153SAPS   H7X17046   1.104   4.079   3.012  0.2015  0.9129  0.3883
  153SAPS   H7Y17047   0.976   3.941   3.046 -0.7385  0.5594  1.3989
  153SAPS   C3817048   0.968   4.113   3.170 -0.6265  0.1046 -0.2102
  153SAPS   H8X17049   0.859   4.126   3.186 -0.8491  1.6113 -2.4249
  153SAPS   H8Y17050   1.002   4.218   3.162 -3.0843  1.0320  0.7785
  153SAPS   C3917051   1.026   4.038   3.292  0.5362 -0.1220  0.6661
  153SAPS   H9X17052   1.124   3.993   3.264  0.2067  0.0137 -0.8201
  153SAPS   H9Y17053   0.972   3.942   3.306  1.4038 -1.0308 -1.6944
  153SAPS  C31017054   1.027   4.116   3.422 -0.1963  0.0774 -0.3791
  153SAPS  H10X17055   0.922   4.128   3.458  0.7420 -0.0297  2.6676
  153SAPS  H10Y17056   1.064   4.220   3.409 -0.0850  0.3220  1.5947
  153SAPS  C31117057   1.113   4.053   3.528 -0.5290  0.1453  0.1899
  153SAPS  H11X17058   1.215   4.095   3.514 -0.1368 -1.3259 -1.9731
  153SAPS  H11Y17059   1.111   3.943   3.511  1.7708  0.1336 -0.4122
  153SAPS  C31217060   1.066   4.078   3.666 -0.6897 -0.0684 -0.1278
  153SAPS  H12X17061   0.973   4.018   3.679 -2.1805  1.8688 -1.1587
  153SAPS  H12Y17062   1.034   4.184   3.668 -2.5099 -0.5131 -1.9525
  153SAPS  C31317063   1.151   4.046   3.790 -0.0607  0.7997  0.0858
  153SAPS  H13X17064   1.245   4.106   3.797  0.6739 -0.1150 -1.4587
  153SAPS  H13Y17065   1.181   3.940   3.799  0.1430  0.7012 -1.6025
  153SAPS  C31417066   1.065   4.086   3.921 -0.3267  0.2874  0.7414
  153SAPS  H14X17067   0.995   4.002   3.937  0.8606 -1.1362 -1.0011
  153SAPS  H14Y17068   1.003   4.175   3.896  1.2472  1.2563  0.0791
  153SAPS  C31517069   1.145   4.096   4.052 -0.2753 -0.7359  0.1765
  153SAPS  H15X17070   1.209   4.186   4.065 -0.8642 -0.3742  0.6250
  153SAPS  H15Y17071   1.216   4.012   4.071  0.0470 -0.5599 -0.2410
  153SAPS  C31617072   1.054   4.102   4.178  0.1064 -0.4846 -0.0589
  153SAPS  H16X17073   0.993   4.009   4.184  0.4260 -0.7312 -0.5871
  153SAPS  H16Y17074   0.978   4.181   4.158 -0.5155 -0.9356  0.4846
  153SAPS  C31717075   1.133   4.125   4.307  0.0986 -0.4920  0.2562
  153SAPS  H17X17076   1.186   4.220   4.285  1.4125 -1.5824 -1.6316
  153SAPS  H17Y17077   1.206   4.045   4.331 -0.7612 -1.4390 -0.2237
  153SAPS  C31817078   1.032   4.151   4.413 -0.2473  0.2617  0.0284
  153SAPS  H18X17079   0.962   4.065   4.417 -1.6777  1.2588 -1.9741
  153SAPS  H18Y17080   0.979   4.248   4.400 -0.8474 -0.1148 -0.3886
  153SAPS  H18Z17081   1.079   4.168   4.512 -0.0209 -0.2584  0.0177
  154SAPS     N17082   6.485   1.770   1.948  0.0487  0.7663 -0.3800
  154SAPS   HN117083   6.437   1.840   2.007  0.0402 -0.1647  0.7501
  154SAPS   HN217084   6.425   1.733   1.871  2.6337  0.8662 -2.6063
  154SAPS   HN317085   6.520   1.685   1.997  1.1437  1.2733 -0.2430
  154SAPS   C1217086   6.608   1.836   1.884 -0.3465 -0.0218 -0.3005
  154SAPS  H12A17087   6.662   1.754   1.839  1.6663  1.2709 -0.3603
  154SAPS   C1317088   6.571   1.948   1.778 -0.2790 -0.1812 -0.6095
  154SAPS  O13A17089   6.448   1.963   1.743 -0.0273  0.4775  0.3967
  154SAPS  O13B17090   6.662   1.996   1.705 -0.5231 -0.0793  0.2623
  154SAPS   C1117091   6.699   1.907   1.989  0.0495 -0.0996 -0.2025
  154SAPS  H11A17092   6.778   1.953   1.927 -0.9192  0.0114 -1.3874
  154SAPS  H11B17093   6.743   1.828   2.054  1.8973  1.5354  0.6322
  154SAPS     P17094   6.727   2.062   2.187  0.0926 -0.0146 -0.4523
  154SAPS   O1317095   6.781   1.950   2.266 -0.1571 -0.8132  0.0405
  154SAPS   O1417096   6.828   2.155   2.136  0.0705  0.2701 -0.1465
  154SAPS   O1217097   6.627   2.007   2.071 -0.2643  0.0861  0.3772
  154SAPS   O1117098   6.622   2.136   2.274  0.4298 -0.2190  0.2951
  154SAPS    C117099   6.655   2.237   2.371  0.2438 -0.2042  0.6968
  154SAPS    HA17100   6.724   2.301   2.312 -2.3864 -0.1315 -2.5755
  154SAPS    HB17101   6.568   2.305   2.376  0.6420  0.4091 -0.4041
  154SAPS    C217102   6.698   2.185   2.511 -0.3034 -0.1550  0.5647
  154SAPS    HS17103   6.793   2.128   2.497 -0.0844  0.1029  0.9793
  154SAPS   O2117104   6.596   2.098   2.562 -0.7793  0.2249 -0.0425
  154SAPS   C2117105   6.633   2.003   2.641 -0.2988 -0.2852  1.0780
  154SAPS   O2217106   6.746   1.962   2.654  0.4838  0.1937 -0.7055
  154SAPS   C2217107   6.515   1.934   2.712 -0.6180 -0.0532  0.0801
  154SAPS   H2R17108   6.468   2.010   2.778 -1.7419 -0.6189 -0.0309
  154SAPS   H2S17109   6.441   1.897   2.637  0.5605  0.0612 -1.1777
  154SAPS    C317110   6.731   2.291   2.621 -0.6971 -0.3013 -0.6812
  154SAPS    HX17111   6.637   2.348   2.629  1.1954  3.0098 -0.3728
  154SAPS    HY17112   6.811   2.357   2.581  1.3370 -0.1646  3.1216
  154SAPS   O3117113   6.780   2.236   2.751  0.6498 -0.6859 -0.5680
  154SAPS   C3117114   6.912   2.231   2.766 -0.0270 -0.4737  0.0851
  154SAPS   O3217115   6.988   2.276   2.679  0.3146 -0.5742  0.3789
  154SAPS   C3217116   6.956   2.151   2.885 -0.6023 -0.2181  0.0022
  154SAPS   H2X17117   7.063   2.119   2.882 -1.1785 -2.4768  1.5376
  154SAPS   H2Y17118   6.896   2.059   2.874 -1.3128  0.2837 -0.3932
  154SAPS   C2317119   6.563   1.829   2.816  0.3697  0.1052 -0.1484
  154SAPS   H3R17120   6.631   1.874   2.892 -1.0518 -0.2798  1.4133
  154SAPS   H3S17121   6.624   1.751   2.764 -0.0666 -1.9999  2.2722
  154SAPS   C2417122   6.440   1.772   2.875  0.3940  0.1586 -0.0188
  154SAPS   H4R17123   6.379   1.726   2.794 -2.4086  0.0469  2.0045
  154SAPS   H4S17124   6.369   1.847   2.916  2.4844  1.9434  0.5297
  154SAPS   C2517125   6.479   1.662   2.962  0.2320 -0.2751 -0.1994
  154SAPS   H5R17126   6.524   1.586   2.898 -0.8008 -0.1656 -1.0725
  154SAPS   C2617127   6.464   1.635   3.092 -0.2401  0.2848  0.0431
  154SAPS   H6R17128   6.505   1.543   3.135 -1.1744  0.4384  1.3486
  154SAPS   C2717129   6.416   1.745   3.192  0.3834  0.1977 -0.5538
  154SAPS   H7R17130   6.410   1.696   3.291 -1.6127  0.6471 -0.4169
  154SAPS   H7S17131   6.316   1.780   3.159 -0.9769 -2.5169  0.4092
  154SAPS   C2817132   6.515   1.859   3.209 -0.2550 -0.0574 -0.3968
  154SAPS   H8R17133   6.607   1.820   3.257  0.0884 -1.7713 -2.3136
  154SAPS   C2917134   6.495   1.987   3.190  0.0259  0.3511  0.3059
  154SAPS   H9R17135   6.575   2.054   3.227  1.4178 -0.2428 -1.4528
  154SAPS  C21017136   6.372   2.064   3.139 -0.6834  0.0477 -0.1553
  154SAPS  H10R17137   6.284   1.999   3.157  0.7051 -1.7929  0.3248
  154SAPS  H10S17138   6.372   2.074   3.029  1.8468  0.7191 -0.1483
  154SAPS  C21117139   6.351   2.205   3.201 -0.1254 -0.0161  0.0167
  154SAPS  H11R17140   6.398   2.287   3.146  0.3223  0.2829  0.8231
  154SAPS  C21217141   6.312   2.233   3.331  0.4023  0.1903 -0.4139
  154SAPS  H12R17142   6.305   2.341   3.350  1.7074  0.7046 -2.4889
  154SAPS  C21317143   6.252   2.133   3.429 -0.8171  0.3695  0.0241
  154SAPS  H13R17144   6.258   2.034   3.380  0.3980  0.2770  0.3385
  154SAPS  H13S17145   6.147   2.164   3.449 -0.5155  0.1200  2.2511
  154SAPS  C21417146   6.321   2.143   3.561 -0.9358 -0.2897  0.6327
  154SAPS  H14R17147   6.341   2.246   3.595  0.6372  0.0503 -1.1537
  154SAPS  C21517148   6.382   2.040   3.626  0.5824 -0.0520 -0.3113
  154SAPS  H15R17149   6.425   2.068   3.724 -0.3194 -2.4810  0.8477
  154SAPS  C21617150   6.396   1.895   3.588 -0.1944 -0.3171  0.0341
  154SAPS  H16R17151   6.504   1.883   3.564 -0.0566 -0.7341  0.8087
  154SAPS  H16S17152   6.330   1.876   3.500 -0.9540  1.6167  0.1476
  154SAPS  C21717153   6.362   1.791   3.702 -0.3335 -0.8385 -0.3774
  154SAPS  H17R17154   6.254   1.798   3.728 -0.0955  2.4342  0.0489
  154SAPS  H17S17155   6.424   1.819   3.790 -1.3562  1.5230 -0.3239
  154SAPS  C21817156   6.406   1.647   3.657 -0.7944 -0.1774 -0.1812
  154SAPS  H18R17157   6.514   1.644   3.630 -1.0205 -2.7734 -1.0251
  154SAPS  H18S17158   6.348   1.622   3.566 -1.2657  1.8467 -0.4974
  154SAPS  C21917159   6.388   1.540   3.760  0.2261 -0.7460 -0.0654
  154SAPS  H19R17160   6.405   1.441   3.711 -2.2526 -0.5575 -1.4826
  154SAPS  H19S17161   6.281   1.538   3.787  0.3145  1.7896  0.6740
  154SAPS  C22017162   6.481   1.555   3.881  0.6097  0.0553  1.6496
  154SAPS  H20R17163   6.581   1.508   3.868 -0.5048 -1.7820 -1.0099
  154SAPS  H20S17164   6.422   1.515   3.966 -1.2522 -1.6575 -0.3196
  154SAPS  H20T17165   6.511   1.662   3.884  0.6798  0.1329 -0.5692
  154SAPS   C3317166   6.916   2.230   3.023 -0.0000 -0.0462 -0.3296
  154SAPS   H3X17167   6.824   2.293   3.019 -0.2477 -0.2892  0.9664
  154SAPS   H3Y17168   7.000   2.298   3.051 -0.6408  1.0078 -0.8803
  154SAPS   C3417169   6.898   2.130   3.137  0.1036 -0.5594  0.3394
  154SAPS   H4X17170   6.987   2.064   3.140  0.8710  0.3855 -0.7058
  154SAPS   H4Y17171   6.826   2.052   3.106  2.3079 -3.0577  1.1936
  154SAPS   C3517172   6.852   2.187   3.269  0.0617 -0.2015  0.1661
  154SAPS   H5X17173   6.741   2.198   3.275 -0.1960 -2.9013  3.7331
  154SAPS   H5Y17174   6.900   2.286   3.284  1.2603 -0.1960 -2.8797
  154SAPS   C3617175   6.876   2.101   3.394 -0.4157 -0.0328 -0.0587
  154SAPS   H6X17176   6.984   2.079   3.409 -0.0925 -0.3006 -2.4491
  154SAPS   H6Y17177   6.822   2.006   3.377 -0.7965 -0.1770  1.6880
  154SAPS   C3717178   6.809   2.163   3.521 -0.4680 -0.0612 -0.3054
  154SAPS   H7X17179   6.699   2.180   3.511 -0.4184  2.3009  2.0218
  154SAPS   H7Y17180   6.866   2.256   3.541 -1.7599  0.9134 -0.9382
  154SAPS   C3817181   6.825   2.069   3.641  0.5576  0.0257 -0.0039
  154SAPS   H8X17182   6.932   2.067   3.671  0.5483 -1.5093  0.0092
  154SAPS   H8Y17183   6.780   1.972   3.611  0.3013  0.6785 -1.8921
  154SAPS   C3917184   6.754   2.114   3.772 -0.0204  0.4414 -0.2818
  154SAPS   H9X17185   6.652   2.155   3.756  0.0451  0.4381 -0.7073
  154SAPS   H9Y17186   6.809   2.197   3.822 -0.3656 -0.3828  1.5471
  154SAPS  C31017187   6.736   2.000   3.864 -0.1887 -0.0494 -0.9231
  154SAPS  H10X17188   6.830   1.942   3.878 -0.2104  0.4780  2.0823
  154SAPS  H10Y17189   6.664   1.926   3.823 -1.5140  0.3282  0.6211
  154SAPS  C31117190   6.689   2.027   4.007 -0.8463 -0.1921 -0.5825
  154SAPS  H11X17191   6.579   2.043   4.008 -0.7846  0.3796  1.0153
  154SAPS  H11Y17192   6.726   2.130   4.032  0.1738 -0.2916 -1.6047
  154SAPS  C31217193   6.714   1.920   4.109 -0.2059 -0.4154  0.2759
  154SAPS  H12X17194   6.819   1.890   4.127  0.1267  1.2305  1.2965
  154SAPS  H12Y17195   6.668   1.828   4.067  0.3727 -0.6943  0.2440
  154SAPS  C31317196   6.634   1.939   4.237  0.2551  0.1297 -0.9807
  154SAPS  H13X17197   6.662   2.037   4.282  1.2032  0.4184 -2.1511
  154SAPS  H13Y17198   6.663   1.857   4.306  2.3949  1.3282 -0.3579
  154SAPS  C31417199   6.476   1.943   4.220  0.2256  0.6342  0.6191
  154SAPS  H14X17200   6.444   2.037   4.170 -1.5167 -0.2516  0.0133
  154SAPS  H14Y17201   6.442   1.951   4.326 -3.3558  0.3391 -0.3916
  154SAPS  C31517202   6.401   1.819   4.161 -0.2695  0.0670  0.4041
  154SAPS  H15X17203   6.450   1.729   4.205  1.1646 -0.0003 -1.2348
  154SAPS  H15Y17204   6.424   1.811   4.053 -1.1619  2.2758  0.0015
  154SAPS  C31617205   6.246   1.825   4.180 -1.0924 -0.0917  0.3083
  154SAPS  H16X17206   6.212   1.918   4.130  1.1544 -0.2026 -1.6101
  154SAPS  H16Y17207   6.214   1.826   4.287 -2.4146  1.7340 -0.0638
  154SAPS  C31717208   6.167   1.715   4.106  0.2960 -0.4243 -0.1673
  154SAPS  H17X17209   6.184   1.729   3.997  0.2500  0.8611 -0.0150
  154SAPS  H17Y17210   6.059   1.727   4.128  0.4902 -1.2109  1.3601
  154SAPS  C31817211   6.209   1.573   4.151  1.0222 -0.9078 -0.7624
  154SAPS  H18X17212   6.319   1.557   4.146  1.1784 -0.7198  1.1905
  154SAPS  H18Y17213   6.159   1.486   4.104 -0.3060 -0.5987  0.0385
  154SAPS  H18Z17214   6.186   1.562   4.259 -0.9262 -1.5750 -1.2173
  155SAPS     N17215   1.573   5.252   1.927 -0.1333  1.1263  0.4477
  155SAPS   HN117216   1.630   5.207   1.853 -0.6582  1.2216 -0.0234
  155SAPS   HN217217   1.587   5.355   1.916  1.9742  0.7647 -0.6781
  155SAPS   HN317218   1.599   5.224   2.023 -0.3572  2.5048  0.9339
  155SAPS   C1217219   1.431   5.196   1.895  0.3094 -0.5280 -0.1760
  155SAPS  H12A17220   1.396   5.237   1.801 -1.9329 -0.0369  0.8269
  155SAPS   C1317221   1.425   5.042   1.881 -0.7981 -0.4087  0.2480
  155SAPS  O13A17222   1.535   4.982   1.865  0.2042 -0.6529  0.1081
  155SAPS  O13B17223   1.315   4.986   1.865  0.1198 -0.1577  0.3538
  155SAPS   C1117224   1.331   5.238   2.011  0.1609  0.0710 -0.0820
  155SAPS  H11A17225   1.373   5.192   2.102  2.7997  1.1359 -0.6614
  155SAPS  H11B17226   1.232   5.191   1.991  1.4128 -2.7766 -0.0684
  155SAPS     P17227   1.356   5.470   2.146 -0.4148 -0.3134  0.1314
  155SAPS   O1317228   1.504   5.508   2.148  0.2737 -0.0872 -0.1680
  155SAPS   O1417229   1.261   5.583   2.160  0.1406 -0.0451  0.6954
  155SAPS   O1217230   1.323   5.381   2.019 -0.0087 -0.0105 -0.5194
  155SAPS   O1117231   1.322   5.374   2.269  0.5279 -0.0600  0.4746
  155SAPS    C117232   1.187   5.329   2.290 -0.4309 -0.0490 -0.6359
  155SAPS    HA17233   1.120   5.369   2.211  0.4346 -0.4184 -1.5669
  155SAPS    HB17234   1.180   5.218   2.285  0.4268 -0.1535  0.1232
  155SAPS    C217235   1.130   5.374   2.426  0.2490 -0.0347 -0.2093
  155SAPS    HS17236   1.116   5.483   2.408 -0.0871  0.2372  1.5445
  155SAPS   O2117237   1.233   5.356   2.528  0.9326  0.1335 -0.2366
  155SAPS   C2117238   1.244   5.449   2.624  0.1959  0.7146  0.0924
  155SAPS   O2217239   1.167   5.544   2.638 -0.1277  0.0208  0.4498
  155SAPS   C2217240   1.352   5.404   2.724 -0.1054 -0.0016 -0.1474
  155SAPS   H2R17241   1.325   5.301   2.754  1.3944 -1.0857 -2.2415
  155SAPS   H2S17242   1.453   5.388   2.680 -0.1556  1.8089 -1.0201
  155SAPS    C317243   0.991   5.310   2.460 -0.1823  0.2359  0.1585
  155SAPS    HX17244   1.001   5.200   2.471 -1.5811 -0.1434 -1.9184
  155SAPS    HY17245   0.915   5.328   2.382 -2.2178 -0.5585  1.8739
  155SAPS   O3117246   0.935   5.353   2.584  0.2148 -0.6747 -0.2692
  155SAPS   C3117247   0.872   5.475   2.589 -0.1070  0.1544 -0.2344
  155SAPS   O3217248   0.862   5.554   2.501  0.0511 -0.5233  0.1815
  155SAPS   C3217249   0.832   5.497   2.733  0.1020 -0.0091  0.1160
  155SAPS   H2X17250   0.916   5.545   2.787  0.2557  0.2273 -0.3290
  155SAPS   H2Y17251   0.799   5.397   2.770 -2.8186 -0.2195 -2.6413
  155SAPS   C2317252   1.355   5.482   2.851 -0.5998 -0.7557 -0.4252
  155SAPS   H3R17253   1.267   5.484   2.918  0.7368 -0.2849  1.3877
  155SAPS   H3S17254   1.363   5.587   2.815 -2.0867 -0.3099  0.4575
  155SAPS   C2417255   1.472   5.456   2.945 -0.6258  0.3805 -0.8270
  155SAPS   H4R17256   1.569   5.458   2.891 -0.0785  0.3764  0.1270
  155SAPS   H4S17257   1.473   5.353   2.985  1.5794 -0.2531 -2.3355
  155SAPS   C2517258   1.489   5.564   3.051  0.3739 -0.3166  0.4253
  155SAPS   H5R17259   1.503   5.666   3.012 -0.0290 -0.7437 -0.8825
  155SAPS   C2617260   1.467   5.536   3.180  0.1168 -1.2296  0.0636
  155SAPS   H6R17261   1.482   5.618   3.252  1.3400 -0.5978 -0.8703
  155SAPS   C2717262   1.427   5.407   3.250 -1.2451 -0.5977  0.1808
  155SAPS   H7R17263   1.423   5.323   3.177  1.0177 -0.4289 -0.2026
  155SAPS   H7S17264   1.327   5.422   3.297 -0.9115  0.0658  0.6993
  155SAPS   C2817265   1.526   5.367   3.361  0.1584  0.0437 -0.5277
  155SAPS   H8R17266   1.629   5.359   3.323 -0.9071  2.1384 -4.3220
  155SAPS   C2917267   1.497   5.331   3.490 -0.1529 -0.2179  0.5630
  155SAPS   H9R17268   1.577   5.310   3.562  1.6688  1.7461 -0.7455
  155SAPS  C21017269   1.359   5.329   3.554  0.2551 -0.3745 -0.4129
  155SAPS  H10R17270   1.366   5.275   3.650 -2.4161  0.7632  0.5081
  155SAPS  H10S17271   1.295   5.261   3.494  0.4869 -1.0266  0.0716
  155SAPS  C21117272   1.293   5.463   3.573 -0.2375 -0.4397  0.0845
  155SAPS  H11R17273   1.237   5.506   3.489  0.7796 -0.1702 -0.4689
  155SAPS  C21217274   1.289   5.531   3.687  0.0767  0.4934 -1.2352
  155SAPS  H12R17275   1.233   5.625   3.695 -1.3182 -0.4422  0.5723
  155SAPS  C21317276   1.360   5.491   3.816  0.3146 -0.0484 -0.4530
  155SAPS  H13R17277   1.330   5.385   3.830 -3.6092  1.0919  1.2241
  155SAPS  H13S17278   1.305   5.532   3.903 -2.6389 -1.9630 -1.2644
  155SAPS  C21417279   1.511   5.512   3.823 -0.0121  0.4654 -0.7901
  155SAPS  H14R17280   1.564   5.489   3.729  2.2806  3.0587 -0.2752
  155SAPS  C21517281   1.580   5.565   3.932 -0.1791 -0.0936 -0.1084
  155SAPS  H15R17282   1.687   5.579   3.914 -0.1329 -1.5770 -1.1885
  155SAPS  C21617283   1.539   5.604   4.071 -0.8828 -0.3851  0.3960
  155SAPS  H16R17284   1.428   5.611   4.075 -0.8492  0.2045  0.4575
  155SAPS  H16S17285   1.581   5.707   4.081 -2.3963  0.2992  0.0204
  155SAPS  C21717286   1.567   5.509   4.190 -0.1550  0.6308  1.0265
  155SAPS  H17R17287   1.521   5.411   4.164 -0.4810  1.1116 -0.2991
  155SAPS  H17S17288   1.524   5.547   4.285 -2.2835  1.9596 -0.3719
  155SAPS  C21817289   1.714   5.492   4.216  0.0729  0.2020  0.3972
  155SAPS  H18R17290   1.745   5.593   4.250  0.2534  0.1513  0.3828
  155SAPS  H18S17291   1.777   5.465   4.128  0.1509 -1.6654  0.9687
  155SAPS  C21917292   1.753   5.392   4.323  0.1719 -0.0393  0.3910
  155SAPS  H19R17293   1.861   5.413   4.335  0.2352  1.7744 -2.4530
  155SAPS  H19S17294   1.758   5.294   4.269  0.0645 -0.9451  1.9703
  155SAPS  C22017295   1.691   5.391   4.463  0.3450 -0.9245 -0.6088
  155SAPS  H20R17296   1.691   5.493   4.507  0.4889 -0.4165 -1.7667
  155SAPS  H20S17297   1.744   5.325   4.535  1.3411  1.8372  1.3256
  155SAPS  H20T17298   1.586   5.353   4.466  0.1549 -0.6372 -2.3580
  155SAPS   C3317299   0.702   5.585   2.746  0.0948 -0.4632  0.1512
  155SAPS   H3X17300   0.637   5.550   2.663  1.7143 -2.2650 -0.4295
  155SAPS   H3Y17301   0.725   5.690   2.719  1.7508 -0.8697 -0.1055
  155SAPS   C3417302   0.637   5.573   2.888  0.2217  0.3093 -0.1134
  155SAPS   H4X17303   0.605   5.469   2.910  2.8292 -0.8848 -1.4171
  155SAPS   H4Y17304   0.551   5.642   2.891  0.4264  0.6343 -1.4643
  155SAPS   C3517305   0.738   5.612   3.003 -0.2359  0.0384 -0.2283
  155SAPS   H5X17306   0.807   5.691   2.965  0.2324 -0.5073 -0.5280
  155SAPS   H5Y17307   0.806   5.527   3.023  0.0411  0.5768  1.2692
  155SAPS   C3617308   0.672   5.650   3.139 -0.6852 -0.0894 -0.8543
  155SAPS   H6X17309   0.602   5.569   3.168 -1.4416  0.2126 -1.8168
  155SAPS   H6Y17310   0.623   5.749   3.130 -0.1658  0.0204 -2.8611
  155SAPS   C3717311   0.779   5.674   3.251 -0.0015  0.1456  1.1537
  155SAPS   H7X17312   0.810   5.781   3.257 -0.0370  0.1941  0.5778
  155SAPS   H7Y17313   0.869   5.611   3.235  0.0038  0.8679 -2.4846
  155SAPS   C3817314   0.714   5.649   3.397 -0.4284 -0.3711  0.7550
  155SAPS   H8X17315   0.801   5.652   3.467 -0.4717  0.3622  0.7815
  155SAPS   H8Y17316   0.671   5.547   3.407 -2.9924  0.4384 -1.0841
  155SAPS   C3917317   0.605   5.755   3.430  0.5034 -0.7855  0.5856
  155SAPS   H9X17318   0.521   5.708   3.374  0.3494 -1.5693  1.4479
  155SAPS   H9Y17319   0.624   5.845   3.368 -1.8519 -0.1155  0.7258
  155SAPS  C31017320   0.584   5.781   3.582 -0.6441 -0.3637  0.5815
  155SAPS  H10X17321   0.507   5.861   3.582 -1.0262 -0.6934 -0.6350
  155SAPS  H10Y17322   0.677   5.825   3.623 -1.2182 -0.3775  1.9350
  155SAPS  C31117323   0.534   5.657   3.659  0.6379  0.3800  1.3360
  155SAPS  H11X17324   0.597   5.575   3.619  2.0097  1.4093  1.3458
  155SAPS  H11Y17325   0.429   5.634   3.631  1.3220 -1.3296  0.0372
  155SAPS  C31217326   0.558   5.677   3.809 -0.5578 -0.0645  0.5461
  155SAPS  H12X17327   0.666   5.700   3.826 -0.3548  1.2627 -1.9915
  155SAPS  H12Y17328   0.530   5.578   3.850 -0.4517 -0.3536 -0.0694
  155SAPS  C31317329   0.473   5.787   3.870 -0.2540  0.8112  0.8824
  155SAPS  H13X17330   0.370   5.761   3.838  0.0065 -0.9704  1.3440
  155SAPS  H13Y17331   0.496   5.881   3.817  1.5955 -0.2421 -0.2914
  155SAPS  C31417332   0.490   5.798   4.022 -0.5173  0.1277 -0.2486
  155SAPS  H14X17333   0.591   5.842   4.037  0.6260 -1.4161 -2.9026
  155SAPS  H14Y17334   0.476   5.705   4.080  0.7630  1.6274  2.6728
  155SAPS  C31517335   0.377   5.890   4.081 -0.4927  0.3064  0.0059
  155SAPS  H15X17336   0.281   5.842   4.054  0.0812 -0.9281  0.0580
  155SAPS  H15Y17337   0.397   5.991   4.038  0.9191 -0.9712 -2.6399
  155SAPS  C31617338   0.387   5.889   4.232 -0.1991 -0.6063 -0.3754
  155SAPS  H16X17339   0.468   5.955   4.268 -1.3464  0.5020  0.2791
  155SAPS  H16Y17340   0.408   5.787   4.270  0.8601 -0.7261 -1.2372
  155SAPS  C31717341   0.263   5.947   4.306 -0.2588  0.0543 -0.2921
  155SAPS  H17X17342   0.218   6.012   4.228  0.1370  0.9579  0.2030
  155SAPS  H17Y17343   0.289   6.007   4.397 -0.2359 -0.9189  0.3545
  155SAPS  C31817344   0.153   5.857   4.358 -0.4725 -0.1336 -1.0193
  155SAPS  H18X17345   0.190   5.779   4.428  0.2336 -0.4482 -1.7148
  155SAPS  H18Y17346   0.101   5.809   4.272 -0.3542  0.6514 -1.5349
  155SAPS  H18Z17347   0.077   5.922   4.405  0.5643 -0.5233  1.3357
  156SAPS     N17348   6.506   4.090   2.223  0.1428  0.6369  0.1248
  156SAPS   HN117349   6.567   4.106   2.306  3.2677 -0.1464 -1.8688
  156SAPS   HN217350   6.544   4.004   2.179  2.1751  1.4561  0.2004
  156SAPS   HN317351   6.513   4.168   2.155  0.4611 -1.9409 -3.0492
  156SAPS   C1217352   6.368   4.059   2.268  0.2209 -0.5970 -0.0470
  156SAPS  H12A17353   6.331   4.153   2.306 -1.7621 -1.6309  0.7419
  156SAPS   C1317354   6.272   3.999   2.162 -0.1584 -0.1688 -0.0178
  156SAPS  O13A17355   6.306   3.972   2.045  0.5861 -0.0914  0.4843
  156SAPS  O13B17356   6.152   3.994   2.203  0.5803  0.0843  0.4802
  156SAPS   C1117357   6.379   3.975   2.396  0.3835  0.2756  0.0299
  156SAPS  H11A17358   6.419   3.879   2.356 -1.8465 -0.5745 -0.3041
  156SAPS  H11B17359   6.279   3.959   2.441  0.9962  3.3444  2.8450
  156SAPS     P17360   6.444   4.073   2.635 -0.0068 -0.2316 -0.5408
  156SAPS   O1317361   6.513   3.983   2.721 -0.0045  0.2857  0.6588
  156SAPS   O1417362   6.478   4.218   2.652 -0.3154 -0.1330  0.5697
  156SAPS   O1217363   6.467   4.036   2.489 -0.0049 -0.6808 -0.1788
  156SAPS   O1117364   6.286   4.052   2.662 -0.2274  0.2443  0.1525
  156SAPS    C117365   6.191   4.144   2.606 -1.2172 -0.1813 -0.8035
  156SAPS    HA17366   6.215   4.245   2.647  1.1386 -1.5866  1.5956
  156SAPS    HB17367   6.207   4.162   2.497  3.4791 -0.5385 -0.3551
  156SAPS    C217368   6.048   4.096   2.627 -0.0908  0.0010  0.2472
  156SAPS    HS17369   5.987   4.177   2.583  0.9911  0.4114 -0.5225
  156SAPS   O2117370   6.024   4.054   2.765  0.1890  0.4640 -1.0478
  156SAPS   C2117371   6.026   4.141   2.860 -0.1523 -0.6206 -0.2580
  156SAPS   O2217372   6.004   4.264   2.844 -0.3359  0.2142 -0.4616
  156SAPS   C2217373   6.070   4.077   2.993  0.2223 -0.2994  0.4250
  156SAPS   H2R17374   6.044   3.969   2.996 -0.1510 -0.2095  0.5727
  156SAPS   H2S17375   6.179   4.092   3.001  0.1387  1.7544 -1.4165
  156SAPS    C317376   6.028   3.970   2.536  0.3156  1.0748 -0.2799
  156SAPS    HX17377   6.085   3.890   2.587  2.1318  0.3901 -3.1445
  156SAPS    HY17378   6.068   3.991   2.435 -0.8010  0.6099 -0.8363
  156SAPS   O3117379   5.887   3.940   2.531 -0.2880  0.8602  0.1321
  156SAPS   C3117380   5.865   3.814   2.474 -0.3297 -0.3845  0.8041
  156SAPS   O3217381   5.956   3.751   2.422 -0.0660 -0.2257  0.4016
  156SAPS   C3217382   5.726   3.754   2.497  0.3125 -0.2805 -0.6157
  156SAPS   H2X17383   5.652   3.782   2.420 -1.3160  0.0426  0.9981
  156SAPS   H2Y17384   5.694   3.805   2.590 -0.5756  1.1873 -1.6894
  156SAPS   C2317385   5.995   4.146   3.113 -0.0723 -0.5562 -0.0545
  156SAPS   H3R17386   6.025   4.252   3.127 -1.4543 -0.3037  1.2294
  156SAPS   H3S17387   6.056   4.100   3.194  2.6832 -1.5256 -2.5087
  156SAPS   C2417388   5.852   4.126   3.123 -0.0426  0.3658 -0.3545
  156SAPS   H4R17389   5.796   4.156   3.032  0.5458 -1.8190 -1.4989
  156SAPS   H4S17390   5.814   4.195   3.202 -0.7085 -0.6857  0.2606
  156SAPS   C2517391   5.813   3.988   3.164  0.5950 -0.0545 -0.3900
  156SAPS   H5R17392   5.774   3.923   3.084  0.6576  0.8752 -1.1918
  156SAPS   C2617393   5.820   3.936   3.286 -0.4788 -0.3484 -0.4085
  156SAPS   H6R17394   5.790   3.831   3.302  1.8809 -1.1495 -0.7347
  156SAPS   C2717395   5.854   4.003   3.415  0.3093  0.5423  0.0171
  156SAPS   H7R17396   5.820   3.937   3.498  0.2858 -1.3959 -1.4770
  156SAPS   H7S17397   5.781   4.087   3.407  1.4185  1.7185  1.5094
  156SAPS   C2817398   5.992   4.057   3.439  0.2296  0.1192  0.8984
  156SAPS   H8R17399   6.063   4.023   3.363 -2.0751 -1.0313 -0.8613
  156SAPS   C2917400   6.037   4.128   3.543  1.1992  0.1868 -0.6935
  156SAPS   H9R17401   6.142   4.161   3.540  0.9270  1.0324 -1.0835
  156SAPS  C21017402   5.949   4.175   3.656 -0.1136  0.6864 -0.0094
  156SAPS  H10R17403   5.841   4.178   3.631 -0.1803 -1.9223 -0.3274
  156SAPS  H10S17404   5.979   4.279   3.680  0.5618  0.1646  1.5344
  156SAPS  C21117405   5.965   4.078   3.775  0.7329  0.7815 -0.6362
  156SAPS  H11R17406   6.063   4.029   3.789  0.1315 -0.5164 -0.8679
  156SAPS  C21217407   5.887   4.073   3.879  0.1608  0.2989 -0.4852
  156SAPS  H12R17408   5.914   4.002   3.959 -2.3308 -0.5105 -0.2629
  156SAPS  C21317409   5.749   4.139   3.899  0.1770  0.3789  0.2550
  156SAPS  H13R17410   5.669   4.074   3.941 -0.9389  0.7013 -1.3303
  156SAPS  H13S17411   5.725   4.177   3.798  0.9912  2.3162  0.7480
  156SAPS  C21417412   5.757   4.242   4.005  0.9744  0.1216 -0.2647
  156SAPS  H14R17413   5.754   4.345   3.969  2.7891 -0.6874 -3.0149
  156SAPS  C21517414   5.757   4.225   4.139 -0.1612  0.4186  0.0120
  156SAPS  H15R17415   5.768   4.314   4.202 -0.2151  1.6377 -1.6211
  156SAPS  C21617416   5.750   4.092   4.220 -0.2333  0.5151  0.8676
  156SAPS  H16R17417   5.851   4.073   4.261 -0.0077  0.6536  0.3820
  156SAPS  H16S17418   5.731   4.024   4.135  3.2262 -0.1089  0.4629
  156SAPS  C21717419   5.636   4.087   4.320 -0.0401 -0.4549  0.5853
  156SAPS  H17R17420   5.646   3.997   4.386  0.7331 -0.5575  0.3380
  156SAPS  H17S17421   5.544   4.087   4.258 -0.6090 -0.3321  1.4010
  156SAPS  C21817422   5.626   4.205   4.411 -0.4387  0.2952 -0.0002
  156SAPS  H18R17423   5.623   4.300   4.354 -0.2574 -0.0382 -0.5704
  156SAPS  H18S17424   5.718   4.208   4.473  0.7286  0.0311 -1.6595
  156SAPS  C21917425   5.499   4.210   4.496 -0.3000 -0.1111  0.0457
  156SAPS  H19R17426   5.412   4.232   4.430  1.1721  2.2959 -1.2292
  156SAPS  H19S17427   5.517   4.288   4.573  0.3819 -0.7994  0.5926
  156SAPS  C22017428   5.489   4.075   4.575  0.4443 -0.1942 -0.1233
  156SAPS  H20R17429   5.466   3.987   4.510 -0.0224  0.5708 -1.0187
  156SAPS  H20S17430   5.409   4.089   4.651  0.8121 -3.3205  0.9799
  156SAPS  H20T17431   5.586   4.054   4.625  0.0625  3.2016  2.3976
  156SAPS   C3317432   5.730   3.604   2.532  1.0635 -0.7529  0.0152
  156SAPS   H3X17433   5.772   3.547   2.446  1.2958 -1.5341  0.6372
  156SAPS   H3Y17434   5.628   3.563   2.550  1.1128 -0.4423  1.0474
  156SAPS   C3417435   5.810   3.562   2.655  0.6180  0.0634  0.0421
  156SAPS   H4X17436   5.770   3.638   2.726 -1.4279  3.1810 -4.0104
  156SAPS   H4Y17437   5.920   3.567   2.640  0.6736 -1.3722 -0.2166
  156SAPS   C3517438   5.774   3.424   2.715  0.2581 -0.1749  0.2768
  156SAPS   H5X17439   5.772   3.340   2.642 -3.6322  0.7340 -0.8896
  156SAPS   H5Y17440   5.667   3.422   2.744 -0.1924 -2.9429 -1.2071
  156SAPS   C3617441   5.848   3.384   2.842  0.1620 -0.1789  0.2487
  156SAPS   H6X17442   5.955   3.380   2.812 -0.4814  0.0994 -2.3766
  156SAPS   H6Y17443   5.812   3.284   2.873 -0.5973  0.0088 -0.0167
  156SAPS   C3717444   5.839   3.493   2.957 -0.0701  0.0831  0.2341
  156SAPS   H7X17445   5.729   3.498   2.973 -0.1844  1.9313 -0.8143
  156SAPS   H7Y17446   5.875   3.593   2.924 -1.0782  0.7035  0.9584
  156SAPS   C3817447   5.905   3.451   3.082  0.6988 -0.1151  0.0407
  156SAPS   H8X17448   6.016   3.445   3.076  0.6905  0.0467 -0.3228
  156SAPS   H8Y17449   5.867   3.353   3.116  0.7982 -0.2810 -0.3203
  156SAPS   C3917450   5.886   3.559   3.183  0.9149 -0.0862  0.4092
  156SAPS   H9X17451   5.778   3.558   3.211  1.4760 -0.0068  2.7240
  156SAPS   H9Y17452   5.929   3.655   3.147  3.4104 -1.2718 -0.0104
  156SAPS  C31017453   5.955   3.521   3.311  0.4231  0.4159  0.5391
  156SAPS  H10X17454   6.061   3.489   3.305 -0.0929 -1.2652 -0.1346
  156SAPS  H10Y17455   5.908   3.427   3.346 -2.8123  2.3388  1.7462
  156SAPS  C31117456   5.919   3.616   3.422  0.0314  0.0633 -0.2376
  156SAPS  H11X17457   5.808   3.625   3.426  0.0667  0.4822 -0.0902
  156SAPS  H11Y17458   5.972   3.713   3.410 -0.6713  0.3646 -1.0140
  156SAPS  C31217459   5.958   3.556   3.563  0.4107  0.3254 -0.0632
  156SAPS  H12X17460   6.056   3.504   3.558  1.3892  2.1407 -0.6048
  156SAPS  H12Y17461   5.884   3.477   3.588  0.7868 -0.6215 -1.7646
  156SAPS  C31317462   5.944   3.649   3.690 -0.3817  0.3482  0.5467
  156SAPS  H13X17463   5.850   3.708   3.678  0.4292  1.2759 -2.0663
  156SAPS  H13Y17464   6.030   3.719   3.685  0.1607 -0.2810  0.9626
  156SAPS  C31417465   5.927   3.578   3.824 -0.0653 -0.4669 -0.4421
  156SAPS  H14X17466   6.013   3.510   3.841  0.2719 -0.1148 -0.7496
  156SAPS  H14Y17467   5.836   3.514   3.824  0.3364 -1.0868 -2.0445
  156SAPS  C31517468   5.923   3.684   3.939  0.4482  0.3935  0.8404
  156SAPS  H15X17469   5.836   3.750   3.915 -2.0618 -3.6288 -2.4387
  156SAPS  H15Y17470   6.017   3.742   3.948  0.4974  0.6951 -1.1225
  156SAPS  C31617471   5.896   3.619   4.076 -0.2515 -0.4775 -0.2069
  156SAPS  H16X17472   5.987   3.564   4.108 -0.9550 -0.2577  2.3917
  156SAPS  H16Y17473   5.809   3.551   4.068  0.3611 -1.4281  0.7590
  156SAPS  C31717474   5.869   3.736   4.174 -0.2441  0.0084 -0.0455
  156SAPS  H17X17475   5.799   3.809   4.128 -2.0853 -1.4174  0.3962
  156SAPS  H17Y17476   5.963   3.791   4.196 -0.4510  0.5015 -0.3622
  156SAPS  C31817477   5.797   3.703   4.303  1.1906  0.1904 -0.2580
  156SAPS  H18X17478   5.692   3.687   4.271  0.6116  1.4859  0.8843
  156SAPS  H18Y17479   5.780   3.788   4.373 -2.0296  0.6983 -1.4816
  156SAPS  H18Z17480   5.838   3.614   4.354 -2.6700 -1.0459  1.0022
  157SAPS     N17481   4.648   3.582   1.631  0.5315 -0.9824  0.3356
  157SAPS   HN117482   4.555   3.557   1.592  0.7666  0.9510 -1.7031
  157SAPS   HN217483   4.647   3.680   1.667  0.3259 -0.8416 -0.0429
  157SAPS   HN317484   4.714   3.566   1.552 -0.0936 -1.5230 -0.0823
  157SAPS   C1217485   4.682   3.485   1.742 -0.4461  0.0376 -0.4262
  157SAPS  H12A17486   4.652   3.385   1.712 -0.5541 -0.4512  1.2397
  157SAPS   C1317487   4.827   3.462   1.794  0.3331  0.2645 -0.8802
  157SAPS  O13A17488   4.924   3.508   1.728 -0.3659 -0.4758 -0.1435
  157SAPS  O13B17489   4.841   3.373   1.880  0.2216 -0.2062 -0.2212
  157SAPS   C1117490   4.607   3.531   1.866  0.5864 -0.2564  0.3218
  157SAPS  H11A17491   4.640   3.634   1.889 -1.5579  0.8446 -1.2384
  157SAPS  H11B17492   4.638   3.482   1.960 -1.1574  0.0352  1.0778
  157SAPS     P17493   4.388   3.417   1.945  0.0330 -0.3812  0.2389
  157SAPS   O1317494   4.245   3.457   1.932  0.2751 -0.3323  0.2258
  157SAPS   O1417495   4.435   3.277   1.912  0.3593 -0.2439 -0.6247
  157SAPS   O1217496   4.463   3.529   1.854 -0.2162  0.5615  0.1111
  157SAPS   O1117497   4.434   3.454   2.091 -0.4216 -0.3018  0.0881
  157SAPS    C117498   4.411   3.589   2.143 -0.3143  0.0557  0.5859
  157SAPS    HA17499   4.493   3.652   2.102 -0.1368  0.2738  1.2585
  157SAPS    HB17500   4.318   3.632   2.099 -0.3629  1.3138  1.8321
  157SAPS    C217501   4.398   3.583   2.296  0.2762 -0.2561  0.0299
  157SAPS    HS17502   4.480   3.536   2.355  0.0900  0.7626  1.1262
  157SAPS   O2117503   4.267   3.518   2.319  0.2368 -0.0904  0.3949
  157SAPS   C2117504   4.248   3.464   2.432 -0.4794 -0.8001  0.1410
  157SAPS   O2217505   4.335   3.432   2.517 -0.1177 -0.3423  0.1442
  157SAPS   C2217506   4.092   3.469   2.453 -0.0919  0.2686  0.0179
  157SAPS   H2R17507   4.084   3.556   2.522  3.8821 -0.9393  2.3377
  157SAPS   H2S17508   4.046   3.495   2.355  1.7184  2.0514 -0.4289
  157SAPS    C317509   4.400   3.733   2.349  0.4323 -0.6288  0.4235
  157SAPS    HX17510   4.308   3.779   2.308  0.8555  0.9628  1.1781
  157SAPS    HY17511   4.487   3.786   2.305 -1.3039 -0.0417 -2.5343
  157SAPS   O3117512   4.392   3.743   2.494  0.4271  0.0414  0.2013
  157SAPS   C3117513   4.509   3.729   2.566 -0.2535 -0.2599  0.8705
  157SAPS   O3217514   4.617   3.715   2.512  0.3090  0.1908  0.9341
  157SAPS   C3217515   4.479   3.745   2.711 -0.9127 -0.3691  0.3327
  157SAPS   H2X17516   4.372   3.728   2.735 -1.0334  0.0819  0.1263
  157SAPS   H2Y17517   4.496   3.851   2.740  0.1526 -0.8066  1.4433
  157SAPS   C2317518   4.031   3.343   2.516  0.5338 -0.6396 -0.2149
  157SAPS   H3R17519   3.924   3.371   2.508  0.4084 -1.3816 -1.3369
  157SAPS   H3S17520   4.056   3.335   2.624  0.3939 -0.3804 -0.1621
  157SAPS   C2417521   4.060   3.209   2.455  0.0171 -0.2011  0.6561
  157SAPS   H4R17522   4.168   3.183   2.457  0.1106  0.0513 -0.4177
  157SAPS   H4S17523   4.035   3.214   2.347  0.2813  0.8738  0.6319
  157SAPS   C2517524   3.992   3.091   2.521 -0.3621  0.5908  0.3163
  157SAPS   H5R17525   3.926   3.041   2.448 -0.9176  0.7622  0.6958
  157SAPS   C2617526   4.001   3.034   2.643  0.1633  0.0522 -0.5045
  157SAPS   H6R17527   3.945   2.941   2.659 -0.3514  0.5944  1.0439
  157SAPS   C2717528   4.088   3.081   2.757  0.3197  0.2220 -0.1553
  157SAPS   H7R17529   4.042   3.163   2.817 -0.9394 -0.9801  0.5883
  157SAPS   H7S17530   4.187   3.122   2.729  1.0958 -0.9211  0.8155
  157SAPS   C2817531   4.112   2.977   2.863  0.6345  0.3271  1.5026
  157SAPS   H8R17532   4.199   2.916   2.837 -0.7483 -2.1607  2.2873
  157SAPS   C2917533   4.038   2.941   2.968  0.1574  0.2846 -0.6046
  157SAPS   H9R17534   4.065   2.852   3.027 -1.8399  0.1476  0.1737
  157SAPS  C21017535   3.912   3.005   3.019 -0.0545  0.0938  0.1107
  157SAPS  H10R17536   3.878   3.090   2.957  1.2771  1.4222  1.1228
  157SAPS  H10S17537   3.923   3.052   3.119 -1.4697 -0.4123  0.5270
  157SAPS  C21117538   3.796   2.912   3.032  0.6295  0.2848 -0.1324
  157SAPS  H11R17539   3.826   2.812   3.067 -2.1885 -0.3402  0.7607
  157SAPS  C21217540   3.668   2.937   3.008  0.0571 -0.3933  0.0157
  157SAPS  H12R17541   3.591   2.859   3.018  1.3792 -1.5106  2.5428
  157SAPS  C21317542   3.623   3.074   2.966 -0.2517 -0.0114 -0.4034
  157SAPS  H13R17543   3.680   3.155   3.017  1.3836 -0.2033 -1.8265
  157SAPS  H13S17544   3.525   3.093   3.015  1.8452  1.1558  3.7720
  157SAPS  C21417545   3.630   3.100   2.817 -0.0941  0.3577  0.7928
  157SAPS  H14R17546   3.594   3.024   2.746  0.8833  0.5632  0.0541
  157SAPS  C21517547   3.674   3.206   2.750 -1.2265 -0.3184 -0.7582
  157SAPS  H15R17548   3.645   3.219   2.644 -0.8676  0.7319 -0.7285
  157SAPS  C21617549   3.742   3.328   2.821 -0.6889 -0.7954  0.4525
  157SAPS  H16R17550   3.836   3.341   2.763 -0.4270 -0.6204  0.9144
  157SAPS  H16S17551   3.765   3.314   2.929  0.7324  1.5888  0.5308
  157SAPS  C21717552   3.656   3.453   2.808  0.1926 -0.8169 -0.2628
  157SAPS  H17R17553   3.644   3.475   2.699  0.2743 -0.4912 -0.2071
  157SAPS  H17S17554   3.691   3.550   2.850 -1.8331  0.1910 -0.7692
  157SAPS  C21817555   3.517   3.442   2.866  0.8113  0.3946 -0.0773
  157SAPS  H18R17556   3.524   3.428   2.975  1.3986 -0.9913 -0.2789
  157SAPS  H18S17557   3.474   3.345   2.835 -1.1689  1.0869  0.3621
  157SAPS  C21917558   3.410   3.542   2.821 -1.2801  0.5021 -0.2081
  157SAPS  H19R17559   3.311   3.507   2.859 -0.1424 -0.9641  1.5898
  157SAPS  H19S17560   3.394   3.543   2.711 -2.4085  1.0399 -0.0506
  157SAPS  C22017561   3.436   3.679   2.888  0.2623 -0.1405 -0.3297
  157SAPS  H20R17562   3.371   3.756   2.840  1.1423  1.3219  0.7204
  157SAPS  H20S17563   3.544   3.702   2.884  0.4823 -1.2313 -0.7608
  157SAPS  H20T17564   3.406   3.683   2.995  2.1728  1.9070  0.2128
  157SAPS   C3317565   4.564   3.641   2.792  0.1119 -0.8094 -0.2709
  157SAPS   H3X17566   4.573   3.679   2.896 -0.3402  0.5459 -0.7022
  157SAPS   H3Y17567   4.665   3.644   2.746  0.4893 -0.2804  0.5573
  157SAPS   C3417568   4.492   3.504   2.806 -0.4664  0.1878 -0.2158
  157SAPS   H4X17569   4.485   3.444   2.714 -2.0828 -2.0310  1.2656
  157SAPS   H4Y17570   4.388   3.521   2.840  0.1265  0.7186  1.4369
  157SAPS   C3517571   4.565   3.418   2.913  0.5650 -0.9356  0.3496
  157SAPS   H5X17572   4.669   3.390   2.883  0.4580 -0.9577 -0.0074
  157SAPS   H5Y17573   4.514   3.320   2.900 -0.4566 -0.3139 -0.4900
  157SAPS   C3617574   4.548   3.476   3.054  0.1336  0.6271 -0.9823
  157SAPS   H6X17575   4.460   3.542   3.066  1.4082  2.0452  1.3671
  157SAPS   H6Y17576   4.639   3.539   3.054  1.3866 -1.0593 -2.8891
  157SAPS   C3717577   4.520   3.372   3.170 -0.4160 -0.0620  0.1989
  157SAPS   H7X17578   4.611   3.309   3.159  1.0529  1.8322  0.8419
  157SAPS   H7Y17579   4.452   3.289   3.142  1.2211 -1.4302  0.0908
  157SAPS   C3817580   4.512   3.430   3.305  0.1478  0.5423 -0.1807
  157SAPS   H8X17581   4.435   3.510   3.312 -1.6981 -1.1868  0.1596
  157SAPS   H8Y17582   4.606   3.482   3.335 -1.6126  2.9446  1.5611
  157SAPS   C3917583   4.468   3.323   3.403  0.4707 -0.4864  0.4181
  157SAPS   H9X17584   4.550   3.249   3.413 -0.2532 -1.5486 -1.1024
  157SAPS   H9Y17585   4.376   3.277   3.362  0.7534  0.1415 -0.9565
  157SAPS  C31017586   4.433   3.385   3.537  0.1243 -0.1258  0.9191
  157SAPS  H10X17587   4.353   3.462   3.532  1.0295  0.7977  0.5826
  157SAPS  H10Y17588   4.521   3.434   3.583 -0.4251  0.7215  1.0891
  157SAPS  C31117589   4.395   3.277   3.638 -0.3649 -0.4261  0.5857
  157SAPS  H11X17590   4.472   3.196   3.636 -0.6928 -0.7510 -1.1866
  157SAPS  H11Y17591   4.300   3.233   3.601 -0.7327  1.2369 -0.5623
  157SAPS  C31217592   4.373   3.322   3.786  1.0437  0.3537  0.2307
  157SAPS  H12X17593   4.458   3.375   3.834 -0.6813  1.1714  2.5381
  157SAPS  H12Y17594   4.350   3.229   3.842 -0.1727  0.4336 -0.1114
  157SAPS  C31317595   4.240   3.395   3.814  0.0095  0.0674 -0.0297
  157SAPS  H13X17596   4.148   3.350   3.772 -0.8710  0.3073  1.5703
  157SAPS  H13Y17597   4.244   3.500   3.776 -0.5412  0.3966  0.7813
  157SAPS  C31417598   4.223   3.423   3.966  0.6545  0.6218  0.0717
  157SAPS  H14X17599   4.121   3.465   3.972  0.2916  0.2461 -2.4439
  157SAPS  H14Y17600   4.304   3.491   4.000  0.7349  0.8191 -0.5022
  157SAPS  C31517601   4.212   3.304   4.057 -0.0351  0.4235  0.6432
  157SAPS  H15X17602   4.315   3.262   4.066  0.5396  1.6289 -0.1138
  157SAPS  H15Y17603   4.137   3.232   4.018  0.5895  1.4548 -2.7149
  157SAPS  C31617604   4.158   3.349   4.196  0.2636  0.8131 -0.2529
  157SAPS  H16X17605   4.075   3.424   4.184 -0.7897 -0.3538 -0.4712
  157SAPS  H16Y17606   4.231   3.399   4.263  0.3569  0.5005 -0.1225
  157SAPS  C31717607   4.120   3.231   4.279  0.2549 -0.3056 -0.2030
  157SAPS  H17X17608   4.216   3.178   4.297  0.5646  1.0969  2.8502
  157SAPS  H17Y17609   4.058   3.169   4.210  1.7417 -0.1536 -1.7378
  157SAPS  C31817610   4.057   3.268   4.413  0.2672  0.2369 -1.1603
  157SAPS  H18X17611   4.040   3.180   4.479  0.7059  1.4853  0.6910
  157SAPS  H18Y17612   3.965   3.329   4.400  1.1664  2.2561  1.0604
  157SAPS  H18Z17613   4.125   3.329   4.476 -0.5151 -0.8118  0.7983
  158SAPS     N17614   1.771   5.000   2.081 -0.0403  0.1843 -0.5090
  158SAPS   HN117615   1.757   5.035   1.984 -3.1124 -1.2075 -0.6889
  158SAPS   HN217616   1.826   4.916   2.054 -0.1610  0.0310 -0.2772
  158SAPS   HN317617   1.685   4.974   2.134  1.5339  1.2965  2.8811
  158SAPS   C1217618   1.870   5.086   2.161 -0.0238  0.2846 -0.3742
  158SAPS  H12A17619   1.941   5.122   2.089  0.3993  4.2724  1.7289
  158SAPS   C1317620   1.804   5.211   2.229 -1.0590  1.1947 -0.4992
  158SAPS  O13A17621   1.685   5.245   2.186  0.0730 -0.3553  0.1110
  158SAPS  O13B17622   1.871   5.290   2.299  0.3480 -0.2533 -0.4115
  158SAPS   C1117623   1.945   5.006   2.273  0.2995 -0.1840 -0.8517
  158SAPS  H11A17624   1.872   4.971   2.349  2.2639  0.7636  1.6457
  158SAPS  H11B17625   2.011   5.077   2.329  0.4876  0.0034 -1.3094
  158SAPS     P17626   2.026   4.756   2.259  0.2701 -0.0507  0.1366
  158SAPS   O1317627   1.897   4.732   2.319  0.6354 -0.3962  0.5636
  158SAPS   O1417628   2.066   4.669   2.146 -0.1688  0.4643  0.5418
  158SAPS   O1217629   2.025   4.907   2.216 -0.2968 -0.0930 -0.2159
  158SAPS   O1117630   2.138   4.773   2.370  0.7590 -0.3927  0.2748
  158SAPS    C117631   2.150   4.869   2.470  0.0975 -0.5862 -0.2354
  158SAPS    HA17632   2.162   4.969   2.424  2.4439 -0.0854  1.2831
  158SAPS    HB17633   2.063   4.858   2.539  0.5285 -1.1904  0.2254
  158SAPS    C217634   2.287   4.845   2.546  0.0869 -0.0326  0.1515
  158SAPS    HS17635   2.369   4.875   2.477 -0.7629  0.4445 -0.6813
  158SAPS   O2117636   2.315   4.717   2.608 -0.1373 -0.8299 -0.2102
  158SAPS   C2117637   2.414   4.642   2.557  0.6188  0.0757 -1.4408
  158SAPS   O2217638   2.479   4.664   2.458 -0.0313 -0.2616 -0.1386
  158SAPS   C2217639   2.427   4.521   2.643 -0.1817  0.2997  1.1523
  158SAPS   H2R17640   2.422   4.551   2.750  0.5497  2.1111  0.7096
  158SAPS   H2S17641   2.341   4.452   2.629 -0.4142  0.3725  2.1636
  158SAPS    C317642   2.295   4.945   2.667 -0.0189 -0.5515 -0.3457
  158SAPS    HX17643   2.267   5.037   2.611 -2.5695  0.2226  1.9859
  158SAPS    HY17644   2.398   4.966   2.704  0.8113 -1.3605 -2.0708
  158SAPS   O3117645   2.192   4.929   2.762  0.2799  0.0602  0.0774
  158SAPS   C3117646   2.197   5.029   2.852 -0.1226 -0.1762 -0.4136
  158SAPS   O3217647   2.291   5.108   2.861  0.3024  0.3189 -0.1060
  158SAPS   C3217648   2.065   5.040   2.928 -0.1588  0.5217  0.4072
  158SAPS   H2X17649   2.034   4.938   2.959  2.4313 -0.7309 -0.7753
  158SAPS   H2Y17650   1.998   5.088   2.854 -0.1783  0.0634  0.1178
  158SAPS   C2317651   2.556   4.435   2.600 -0.1122 -0.7097  0.3853
  158SAPS   H3R17652   2.645   4.501   2.587 -1.0709  0.3013 -1.5368
  158SAPS   H3S17653   2.535   4.410   2.494  2.3173  1.7309 -0.7872
  158SAPS   C2417654   2.567   4.319   2.694  0.2702 -0.0062  0.5418
  158SAPS   H4R17655   2.636   4.237   2.668 -1.5441 -1.1798 -0.7720
  158SAPS   H4S17656   2.475   4.257   2.697  1.1318 -1.5383 -1.7377
  158SAPS   C2517657   2.596   4.357   2.835  0.2783 -0.7068 -0.3285
  158SAPS   H5R17658   2.703   4.379   2.845  0.1346 -0.2926  0.4249
  158SAPS   C2617659   2.515   4.351   2.943  0.1779  0.0432  0.5870
  158SAPS   H6R17660   2.557   4.369   3.043  1.9817  1.7599 -0.4142
  158SAPS   C2717661   2.374   4.295   2.944  0.0235 -0.3532 -0.0336
  158SAPS   H7R17662   2.371   4.212   3.017  0.5880 -0.7084 -0.4043
  158SAPS   H7S17663   2.344   4.247   2.848 -0.4516 -0.6308  0.2534
  158SAPS   C2817664   2.267   4.402   2.981 -0.2000 -0.0105  0.6001
  158SAPS   H8R17665   2.197   4.428   2.901  0.6587 -1.5993 -0.7295
  158SAPS   C2917666   2.231   4.419   3.111 -0.5011 -0.8209  0.3001
  158SAPS   H9R17667   2.155   4.498   3.123 -0.1939 -0.6272  1.0267
  158SAPS  C21017668   2.289   4.373   3.245 -0.2885 -0.0692  0.1810
  158SAPS  H10R17669   2.373   4.300   3.243 -1.3767 -1.3418 -0.3867
  158SAPS  H10S17670   2.205   4.324   3.298  0.5140  0.3312  1.9235
  158SAPS  C21117671   2.337   4.490   3.323  0.7091  0.4356 -0.0782
  158SAPS  H11R17672   2.380   4.571   3.262  1.1524 -0.1539 -0.5691
  158SAPS  C21217673   2.333   4.507   3.455  0.3225 -0.5891 -0.3118
  158SAPS  H12R17674   2.369   4.602   3.496 -2.3356  0.9116 -1.1850
  158SAPS  C21317675   2.282   4.409   3.554 -0.2415  0.8059  0.1879
  158SAPS  H13R17676   2.369   4.395   3.621 -0.4692  2.0392  0.7841
  158SAPS  H13S17677   2.265   4.316   3.496 -0.3574  1.2911 -0.5771
  158SAPS  C21417678   2.157   4.447   3.625 -0.4992  0.4774  0.4960
  158SAPS  H14R17679   2.074   4.491   3.568 -0.5298 -1.1444 -0.7733
  158SAPS  C21517680   2.136   4.427   3.757  0.1831 -0.0582 -0.8869
  158SAPS  H15R17681   2.039   4.463   3.796  2.1581  3.3392  1.3894
  158SAPS  C21617682   2.204   4.340   3.857 -0.1950 -0.5025  0.0799
  158SAPS  H16R17683   2.264   4.267   3.798  0.6586  2.4053 -2.9094
  158SAPS  H16S17684   2.137   4.269   3.910  2.2232 -1.6635  1.7933
  158SAPS  C21717685   2.293   4.406   3.959 -0.3373 -0.1341 -0.4684
  158SAPS  H17R17686   2.230   4.467   4.027 -0.5160 -1.7286  0.8651
  158SAPS  H17S17687   2.376   4.470   3.922 -0.0446 -0.6437 -0.7107
  158SAPS  C21817688   2.355   4.295   4.046  0.7363 -0.0743 -0.4128
  158SAPS  H18R17689   2.401   4.226   3.972  0.2756  1.3943 -2.1380
  158SAPS  H18S17690   2.270   4.253   4.105 -0.0190  2.1693  0.1745
  158SAPS  C21917691   2.464   4.332   4.140  0.5978  0.0791  0.1928
  158SAPS  H19R17692   2.531   4.391   4.074 -1.4309  0.8939 -1.2452
  158SAPS  H19S17693   2.522   4.241   4.168 -1.7554 -1.8732 -0.8936
  158SAPS  C22017694   2.418   4.410   4.263 -0.8603 -0.4404  0.0376
  158SAPS  H20R17695   2.501   4.401   4.336 -1.7333 -3.0432  0.8268
  158SAPS  H20S17696   2.337   4.347   4.305  0.2169 -2.7577 -1.2081
  158SAPS  H20T17697   2.371   4.509   4.243  0.8015  0.6277  1.1387
  158SAPS   C3317698   2.069   5.142   3.048  0.1176  0.4020 -0.8017
  158SAPS   H3X17699   2.090   5.243   3.006  0.4875  1.1904  1.1711
  158SAPS   H3Y17700   2.146   5.124   3.125  0.0206  0.7208 -0.6268
  158SAPS   C3417701   1.934   5.170   3.110 -0.1741  0.2287  0.5159
  158SAPS   H4X17702   1.918   5.102   3.197 -0.0258 -2.1848 -1.2387
  158SAPS   H4Y17703   1.846   5.140   3.050  0.7329  0.4095 -0.9528
  158SAPS   C3517704   1.910   5.320   3.154 -0.5996  0.6632  0.1230
  158SAPS   H5X17705   1.800   5.334   3.153 -0.5959  0.6951 -0.6296
  158SAPS   H5Y17706   1.955   5.397   3.087 -1.7981  1.8259  0.6064
  158SAPS   C3617707   1.972   5.335   3.299  0.5613  0.1138  0.3079
  158SAPS   H6X17708   2.080   5.361   3.289  0.2084  1.8163  0.6534
  158SAPS   H6Y17709   1.955   5.244   3.360 -0.6245 -2.2039 -3.1817
  158SAPS   C3717710   1.909   5.451   3.387 -0.1432 -0.6177  0.4583
  158SAPS   H7X17711   1.802   5.455   3.357  0.5015  1.5623 -1.9179
  158SAPS   H7Y17712   1.954   5.543   3.344  1.0329 -0.8145  1.2146
  158SAPS   C3817713   1.938   5.441   3.537  0.6967 -0.6559  0.1261
  158SAPS   H8X17714   2.047   5.437   3.560  0.4431  1.9655  2.2115
  158SAPS   H8Y17715   1.891   5.359   3.596 -0.5921  0.5586  0.8412
  158SAPS   C3917716   1.880   5.572   3.606  0.1747  0.9515  0.4798
  158SAPS   H9X17717   1.773   5.545   3.618  1.0025 -3.0868  0.3389
  158SAPS   H9Y17718   1.890   5.663   3.543 -1.6968  1.2792  0.5993
  158SAPS  C31017719   1.941   5.603   3.742  0.1010  0.2767  0.6142
  158SAPS  H10X17720   2.052   5.608   3.744  0.1404  0.0066 -0.4402
  158SAPS  H10Y17721   1.908   5.533   3.822 -1.3486  0.8116  0.5249
  158SAPS  C31117722   1.903   5.740   3.787  0.5738 -0.8604 -0.0679
  158SAPS  H11X17723   1.795   5.749   3.765  0.1556 -0.2799  1.9447
  158SAPS  H11Y17724   1.937   5.825   3.724 -0.1759  0.2205  0.9294
  158SAPS  C31217725   1.915   5.764   3.937  0.6726 -0.2841  0.0728
  158SAPS  H12X17726   2.020   5.790   3.966 -0.3040  1.5073  2.3118
  158SAPS  H12Y17727   1.876   5.676   3.993 -0.5470 -0.8119 -1.5446
  158SAPS  C31317728   1.842   5.894   3.976  0.8758 -0.1641 -0.4075
  158SAPS  H13X17729   1.732   5.890   3.960  0.8147  1.1124 -0.4445
  158SAPS  H13Y17730   1.891   5.981   3.927  1.0509 -0.2057 -0.3056
  158SAPS  C31417731   1.862   5.921   4.128 -0.7145  0.3802 -0.7966
  158SAPS  H14X17732   1.968   5.952   4.144 -0.8100  2.0525 -2.9938
  158SAPS  H14Y17733   1.835   5.833   4.190 -1.0119  0.7352 -0.4164
  158SAPS  C31517734   1.791   6.050   4.183  0.3045 -0.3293  0.9021
  158SAPS  H15X17735   1.682   6.032   4.195  0.2329  0.1594  0.9939
  158SAPS  H15Y17736   1.816   6.133   4.114  1.9221 -2.2169 -0.9273
  158SAPS  C31617737   1.837   6.087   4.322  0.3099  0.3843  0.0590
  158SAPS  H16X17738   1.944   6.115   4.326  0.6461 -0.9575  2.9860
  158SAPS  H16Y17739   1.829   5.989   4.373 -1.7242  0.0617 -0.7740
  158SAPS  C31717740   1.744   6.184   4.395 -0.2733  0.4027 -0.0914
  158SAPS  H17X17741   1.638   6.159   4.372 -0.3782  0.6926  0.0782
  158SAPS  H17Y17742   1.764   6.290   4.369 -0.7290  0.4879 -0.1111
  158SAPS  C31817743   1.758   6.156   4.541 -0.0144 -0.3026  0.8543
  158SAPS  H18X17744   1.737   6.049   4.561  2.9993 -1.4553 -1.3760
  158SAPS  H18Y17745   1.691   6.220   4.602 -0.1786 -0.1818  0.5508
  158SAPS  H18Z17746   1.859   6.184   4.577 -0.0762  2.0883 -0.5790
  159SAPS     N17747   5.799   3.216   2.028  0.1875 -0.0545 -0.1751
  159SAPS   HN117748   5.801   3.149   1.948  0.9332 -0.2142 -0.0313
  159SAPS   HN217749   5.897   3.223   2.063  1.3041  0.3382 -3.0615
  159SAPS   HN317750   5.740   3.180   2.105  0.5066 -0.4859 -0.1322
  159SAPS   C1217751   5.741   3.348   1.980 -0.0503  0.4047 -0.6389
  159SAPS  H12A17752   5.720   3.407   2.067 -0.3214 -0.2254 -0.2651
  159SAPS   C1317753   5.832   3.437   1.893 -0.2734 -0.5768 -0.5821
  159SAPS  O13A17754   5.951   3.421   1.872 -0.6246  0.0259  0.2478
  159SAPS  O13B17755   5.787   3.549   1.876 -0.4102 -0.3166  0.1343
  159SAPS   C1117756   5.609   3.318   1.905 -0.3933  0.2310 -0.3651
  159SAPS  H11A17757   5.627   3.246   1.821 -1.3522 -0.8065  0.2925
  159SAPS  H11B17758   5.586   3.416   1.858  0.4979  0.5144 -0.2325
  159SAPS     P17759   5.385   3.328   2.052 -0.2027  0.0426 -0.5887
  159SAPS   O1317760   5.312   3.408   1.950  0.5077 -0.5761 -0.0450
  159SAPS   O1417761   5.303   3.227   2.124 -0.2258  0.0658 -0.0994
  159SAPS   O1217762   5.511   3.258   1.983 -0.7724 -0.0323 -0.4400
  159SAPS   O1117763   5.465   3.416   2.158  0.6117 -0.3011  0.1058
  159SAPS    C117764   5.504   3.356   2.280  0.0634 -0.0453  0.1625
  159SAPS    HA17765   5.518   3.246   2.267 -0.9373 -0.1505 -0.1095
  159SAPS    HB17766   5.599   3.404   2.310  0.8337 -0.1500 -1.9275
  159SAPS    C217767   5.405   3.384   2.385 -0.0442 -0.4135  0.0135
  159SAPS    HS17768   5.305   3.358   2.344  0.1960 -0.6064 -0.4641
  159SAPS   O2117769   5.421   3.521   2.415 -0.1522 -0.0898  0.1098
  159SAPS   C2117770   5.307   3.593   2.436  0.5503 -0.0539  0.5294
  159SAPS   O2217771   5.194   3.545   2.418 -0.3305 -0.6944  0.8074
  159SAPS   C2217772   5.334   3.735   2.482 -0.7211 -0.3405  0.2978
  159SAPS   H2R17773   5.443   3.751   2.472 -0.2904 -2.8396  0.5420
  159SAPS   H2S17774   5.270   3.807   2.425 -1.6724 -0.4645  1.1688
  159SAPS    C317775   5.439   3.304   2.512  0.2117 -0.3607 -0.1232
  159SAPS    HX17776   5.541   3.339   2.537  0.2726 -0.7198  0.1375
  159SAPS    HY17777   5.437   3.194   2.494 -0.7983 -0.9300  2.8483
  159SAPS   O3117778   5.362   3.337   2.624  0.4336 -0.3714  0.5113
  159SAPS   C3117779   5.241   3.280   2.643  0.0506 -0.8723  0.1421
  159SAPS   O3217780   5.195   3.204   2.566  0.2769 -0.0731 -0.1047
  159SAPS   C3217781   5.197   3.312   2.788 -0.6001  0.2025  0.2870
  159SAPS   H2X17782   5.274   3.373   2.840 -0.7685 -1.0380  2.0704
  159SAPS   H2Y17783   5.203   3.214   2.838 -0.0078  0.2872  0.3897
  159SAPS   C2317784   5.314   3.764   2.638  0.0042  0.4996 -0.9619
  159SAPS   H3R17785   5.401   3.717   2.688  0.0681  0.9794 -0.6219
  159SAPS   H3S17786   5.220   3.717   2.673 -0.8605  1.3546 -2.0386
  159SAPS   C2417787   5.304   3.921   2.666  0.6425  0.9516  0.1517
  159SAPS   H4R17788   5.277   3.944   2.771 -0.9861  3.0146 -0.6531
  159SAPS   H4S17789   5.213   3.961   2.616 -0.1783  1.6971  2.1255
  159SAPS   C2517790   5.421   3.987   2.611  0.2638 -0.6980 -0.3569
  159SAPS   H5R17791   5.417   4.024   2.507  2.0246  0.3209 -0.0937
  159SAPS   C2617792   5.532   4.024   2.675 -0.8324 -0.2512 -0.5072
  159SAPS   H6R17793   5.608   4.077   2.615 -2.2154  2.3368 -0.1200
  159SAPS   C2717794   5.573   4.003   2.815 -0.0965  0.0772 -0.2957
  159SAPS   H7R17795   5.679   4.034   2.829  0.2687 -0.9969 -0.6403
  159SAPS   H7S17796   5.559   3.894   2.830  1.5075 -0.0951  0.1278
  159SAPS   C2817797   5.490   4.077   2.921 -0.1677  0.0163  0.0442
  159SAPS   H8R17798   5.457   4.180   2.898  0.0584  0.0024 -0.3533
  159SAPS   C2917799   5.452   4.026   3.041 -0.0460 -0.1145  0.7463
  159SAPS   H9R17800   5.390   4.089   3.107 -0.8257 -0.6593  0.5417
  159SAPS  C21017801   5.475   3.886   3.102  0.1465  0.1418  0.4797
  159SAPS  H10R17802   5.483   3.892   3.213 -0.0725  0.4144  0.4847
  159SAPS  H10S17803   5.572   3.843   3.069  0.8260  0.3818  2.0704
  159SAPS  C21117804   5.363   3.789   3.069 -0.3991 -0.2516 -0.2139
  159SAPS  H11R17805   5.306   3.799   2.975  2.7652  0.3997 -2.2057
  159SAPS  C21217806   5.346   3.669   3.122  0.0689  0.1512  0.0242
  159SAPS  H12R17807   5.261   3.612   3.083  0.0453 -0.0240  0.3252
  159SAPS  C21317808   5.409   3.608   3.240  0.8233 -0.5933  0.3727
  159SAPS  H13R17809   5.506   3.662   3.255  1.8152 -2.2104  0.0633
  159SAPS  H13S17810   5.440   3.505   3.213 -0.4244 -1.3721  1.7684
  159SAPS  C21417811   5.338   3.610   3.372 -0.4922  0.3730  1.0628
  159SAPS  H14R17812   5.240   3.657   3.380 -0.7736 -0.2771  1.5548
  159SAPS  C21517813   5.385   3.556   3.488 -0.4080 -0.8547 -0.2475
  159SAPS  H15R17814   5.321   3.565   3.576  2.4553  0.4658  1.8855
  159SAPS  C21617815   5.523   3.488   3.509  0.1670  0.7213  0.0177
  159SAPS  H16R17816   5.601   3.548   3.459  0.3760  1.5542  1.2866
  159SAPS  H16S17817   5.521   3.388   3.460 -0.8653  0.9189 -0.3843
  159SAPS  C21717818   5.560   3.475   3.658 -0.6115  0.4245 -0.7696
  159SAPS  H17R17819   5.562   3.569   3.718 -2.1304 -0.9943  1.6677
  159SAPS  H17S17820   5.655   3.419   3.672 -0.4752  0.1425 -2.6154
  159SAPS  C21817821   5.459   3.400   3.741  0.2008  0.0476 -0.3254
  159SAPS  H18R17822   5.400   3.318   3.694 -0.2037 -0.8264  1.5863
  159SAPS  H18S17823   5.387   3.475   3.781  1.0685  1.9719 -2.1923
  159SAPS  C21917824   5.523   3.342   3.867  0.4322 -0.2330  0.1437
  159SAPS  H19R17825   5.575   3.422   3.925  0.5554  1.2642 -1.9193
  159SAPS  H19S17826   5.599   3.264   3.840  1.5480 -0.3461  3.1590
  159SAPS  C22017827   5.411   3.282   3.958 -0.6726  0.5295 -0.4416
  159SAPS  H20R17828   5.353   3.369   3.996 -0.8505 -0.1777  0.9851
  159SAPS  H20S17829   5.455   3.223   4.041 -1.6826 -2.3885 -1.8349
  159SAPS  H20T17830   5.358   3.201   3.903 -1.4730  0.0794  0.9569
  159SAPS   C3317831   5.066   3.385   2.795  0.3630  0.6457  0.0384
  159SAPS   H3X17832   4.980   3.330   2.752  0.2743  0.3026  0.6406
  159SAPS   H3Y17833   5.069   3.487   2.751  2.2518  0.0354 -1.3874
  159SAPS   C3417834   5.047   3.409   2.947  0.0386  0.2098 -0.1385
  159SAPS   H4X17835   4.967   3.482   2.970  1.4113  1.3142  1.4073
  159SAPS   H4Y17836   5.137   3.451   2.998  0.1083 -0.3960  0.2501
  159SAPS   C3517837   5.007   3.280   3.024  0.5114 -0.0825  0.4434
  159SAPS   H5X17838   5.092   3.209   3.016  1.9679  1.7465 -1.1489
  159SAPS   H5Y17839   4.927   3.229   2.966  0.4382  2.2029 -1.6077
  159SAPS   C3617840   4.961   3.307   3.167 -0.0569  0.5570  0.2782
  159SAPS   H6X17841   4.862   3.358   3.166  0.5685  1.9191  2.5506
  159SAPS   H6Y17842   5.031   3.381   3.211  0.6610  0.5859 -0.8570
  159SAPS   C3717843   4.935   3.176   3.235 -0.1487  0.5013  0.0701
  159SAPS   H7X17844   5.024   3.111   3.224 -1.8051 -1.9624  0.4974
  159SAPS   H7Y17845   4.857   3.123   3.177  0.6106 -1.9978  1.2060
  159SAPS   C3817846   4.896   3.188   3.382 -0.8477 -0.3606  0.0234
  159SAPS   H8X17847   4.910   3.084   3.419 -0.4630  0.2980  1.8143
  159SAPS   H8Y17848   4.794   3.226   3.403 -0.6123  0.0850  0.3853
  159SAPS   C3917849   4.991   3.273   3.465  0.4353 -0.4353 -0.4137
  159SAPS   H9X17850   4.995   3.377   3.428 -1.9733  0.3441  1.2257
  159SAPS   H9Y17851   5.093   3.230   3.461 -0.2482 -2.4275  1.3610
  159SAPS  C31017852   4.931   3.295   3.603 -0.6992  0.1716  0.1191
  159SAPS  H10X17853   4.925   3.192   3.644  1.3308 -0.4236 -0.9904
  159SAPS  H10Y17854   4.831   3.344   3.597 -2.0957 -2.2917  1.3467
  159SAPS  C31117855   5.022   3.375   3.691 -0.0474 -0.4559 -0.3048
  159SAPS  H11X17856   5.032   3.480   3.655 -2.5505  0.3990  1.2664
  159SAPS  H11Y17857   5.127   3.339   3.694  1.0564  2.5001  1.8913
  159SAPS  C31217858   4.968   3.384   3.834 -0.1044 -0.4813  0.4282
  159SAPS  H12X17859   4.998   3.288   3.881  3.2982 -0.5571 -1.5382
  159SAPS  H12Y17860   4.857   3.382   3.832 -0.0944 -2.0480  0.3461
  159SAPS  C31317861   5.021   3.513   3.905  0.1261 -0.3658 -0.0643
  159SAPS  H13X17862   4.999   3.600   3.840 -3.2016  0.0383  1.4051
  159SAPS  H13Y17863   5.131   3.508   3.892 -0.0051 -0.5062 -1.2019
  159SAPS  C31417864   4.983   3.529   4.047 -0.1809  0.2524  0.3441
  159SAPS  H14X17865   5.048   3.610   4.088  1.8908 -0.6477 -1.0379
  159SAPS  H14Y17866   5.002   3.434   4.102 -1.8813 -0.8590 -0.9023
  159SAPS  C31517867   4.836   3.557   4.070  1.1091  0.5129  0.2736
  159SAPS  H15X17868   4.779   3.502   3.992  2.3754  1.2601 -1.2337
  159SAPS  H15Y17869   4.827   3.663   4.039  2.2454  0.0701 -1.7383
  159SAPS  C31617870   4.771   3.545   4.207  1.0429 -0.4326  0.4206
  159SAPS  H16X17871   4.763   3.437   4.233 -1.3899 -0.3664  0.1821
  159SAPS  H16Y17872   4.669   3.588   4.197  0.7468 -1.5463 -1.8797
  159SAPS  C31717873   4.849   3.621   4.317  0.3733  0.4033  0.2118
  159SAPS  H17X17874   4.849   3.728   4.290 -1.3158  0.3070 -0.2639
  159SAPS  H17Y17875   4.952   3.579   4.323 -0.1715 -0.8531  1.5095
  159SAPS  C31817876   4.798   3.595   4.459 -0.5387  0.2219 -0.2931
  159SAPS  H18X17877   4.828   3.496   4.500 -0.5012  1.0801  1.8740
  159SAPS  H18Y17878   4.832   3.675   4.528  2.1324  0.2849 -1.5527
  159SAPS  H18Z17879   4.688   3.606   4.454 -0.4067  1.1395 -2.8448
  160SAPS     N17880   6.026   4.638   2.254  0.1685  0.5714  0.6370
  160SAPS   HN117881   6.112   4.695   2.242  0.5579  0.2524  1.8617
  160SAPS   HN217882   5.962   4.686   2.319  0.0378  0.3115  0.7011
  160SAPS   HN317883   6.041   4.540   2.285 -0.4660  0.0092 -0.7400
  160SAPS   C1217884   5.959   4.630   2.118  0.1892  0.0963  0.0229
  160SAPS  H12A17885   5.905   4.538   2.099  0.9849 -0.2042 -0.8516
  160SAPS   C1317886   5.844   4.726   2.110  0.3080  0.3711  0.2942
  160SAPS  O13A17887   5.813   4.796   2.208  0.2976  0.3839 -0.0291
  160SAPS  O13B17888   5.776   4.719   2.001  0.1744  0.2584 -0.4810
  160SAPS   C1117889   6.066   4.646   2.004 -0.0380 -0.2755  0.5547
  160SAPS  H11A17890   6.012   4.630   1.907  0.1248  0.0837  0.4057
  160SAPS  H11B17891   6.142   4.566   1.995 -1.0868 -1.2489  0.0531
  160SAPS     P17892   6.250   4.829   2.052 -0.1309 -0.4270 -0.2217
  160SAPS   O1317893   6.357   4.739   2.003 -0.6273 -0.4182  0.4208
  160SAPS   O1417894   6.252   4.971   2.015 -0.6325 -0.3479 -0.3357
  160SAPS   O1217895   6.119   4.782   1.981  0.5963  0.3535  0.6569
  160SAPS   O1117896   6.226   4.813   2.204 -0.0789  0.4414  0.4807
  160SAPS    C117897   6.338   4.748   2.279  0.1430 -0.1431  0.0311
  160SAPS    HA17898   6.345   4.638   2.266  0.4818 -0.1058 -0.1028
  160SAPS    HB17899   6.436   4.779   2.238  0.7733 -1.4529  0.5119
  160SAPS    C217900   6.354   4.806   2.425 -0.3690  0.2654  0.2159
  160SAPS    HS17901   6.276   4.760   2.489  0.0884 -0.2825  0.3883
  160SAPS   O2117902   6.350   4.948   2.422  0.0923  0.1343 -0.0449
  160SAPS   C2117903   6.240   5.018   2.454  0.1204 -0.1775  0.3760
  160SAPS   O2217904   6.125   4.981   2.470 -0.3472 -0.0853 -0.4743
  160SAPS   C2217905   6.282   5.164   2.475 -0.5074 -0.3741  0.3307
  160SAPS   H2R17906   6.308   5.176   2.582  0.7116  0.8265 -0.0725
  160SAPS   H2S17907   6.374   5.183   2.415 -0.6301  0.5010  0.4023
  160SAPS    C317908   6.490   4.755   2.491  0.5396 -0.4406 -0.1890
  160SAPS    HX17909   6.571   4.723   2.421  2.1784 -1.6492  2.1109
  160SAPS    HY17910   6.461   4.661   2.541 -3.8084  0.7168 -0.1438
  160SAPS   O3117911   6.543   4.843   2.591 -0.1375 -0.2368 -0.1721
  160SAPS   C3117912   6.475   4.862   2.699 -0.0090 -0.9125 -0.5233
  160SAPS   O3217913   6.367   4.824   2.725  0.1860  0.5616 -0.2873
  160SAPS   C3217914   6.567   4.939   2.792  0.3281 -0.1819  0.7129
  160SAPS   H2X17915   6.579   5.039   2.743  2.3289  0.1314  1.7553
  160SAPS   H2Y17916   6.669   4.896   2.791  0.2885 -0.3434 -1.0895
  160SAPS   C2317917   6.188   5.274   2.432 -0.3444 -0.0955 -0.0046
  160SAPS   H3R17918   6.091   5.271   2.485  0.9672  1.6429  2.7458
  160SAPS   H3S17919   6.164   5.267   2.324  2.2167 -0.9345 -0.5938
  160SAPS   C2417920   6.243   5.409   2.485 -0.7583 -0.6554 -0.1901
  160SAPS   H4R17921   6.335   5.424   2.424  0.2774  0.3144  1.5340
  160SAPS   H4S17922   6.263   5.398   2.593 -0.8101 -2.1022 -0.3076
  160SAPS   C2517923   6.143   5.511   2.448 -0.2526 -0.0901  0.7901
  160SAPS   H5R17924   6.087   5.492   2.355  0.5003 -0.9643  0.5057
  160SAPS   C2617925   6.114   5.623   2.522  0.5259 -0.6567  0.3115
  160SAPS   H6R17926   6.040   5.690   2.476  2.8685  0.5307 -2.0132
  160SAPS   C2717927   6.203   5.665   2.637  0.3659  0.2531 -0.2002
  160SAPS   H7R17928   6.303   5.618   2.641  0.2699  0.1449  1.4716
  160SAPS   H7S17929   6.168   5.638   2.739  1.7335 -0.2193  0.1600
  160SAPS   C2817930   6.241   5.812   2.634  0.3842  0.3165 -0.0934
  160SAPS   H8R17931   6.294   5.842   2.542 -0.9265  1.0198 -0.6458
  160SAPS   C2917932   6.218   5.898   2.732 -0.5386 -0.1094  0.0366
  160SAPS   H9R17933   6.269   5.994   2.716  0.5044 -0.8724 -1.5347
  160SAPS  C21017934   6.145   5.866   2.860 -0.0528  0.5552 -0.6316
  160SAPS  H10R17935   6.211   5.893   2.945 -1.4935  1.0935  0.3615
  160SAPS  H10S17936   6.121   5.759   2.874  0.1899  0.3473 -1.7179
  160SAPS  C21117937   6.015   5.945   2.866  0.1043  0.6127 -0.0878
  160SAPS  H11R17938   5.973   5.964   2.766 -3.0345  0.6722  1.1246
  160SAPS  C21217939   5.946   5.979   2.976 -0.5442  0.0609 -0.5487
  160SAPS  H12R17940   5.848   6.028   2.966 -0.5426  0.3994  0.8680
  160SAPS  C21317941   6.004   5.957   3.120 -0.7326  0.0472  0.1820
  160SAPS  H13R17942   6.099   6.014   3.127  0.4154 -1.7096 -0.5325
  160SAPS  H13S17943   6.037   5.853   3.140 -2.6252 -0.0854  3.2785
  160SAPS  C21417944   5.923   5.998   3.234 -0.1506 -0.2510 -0.6368
  160SAPS  H14R17945   5.834   6.057   3.207  0.8910  1.1887 -1.0545
  160SAPS  C21517946   5.955   5.988   3.365  0.4411 -0.2953  0.3282
  160SAPS  H15R17947   5.899   6.033   3.447 -2.1395  0.6579 -1.7951
  160SAPS  C21617948   6.074   5.902   3.406 -0.2429  0.9959  0.1863
  160SAPS  H16R17949   6.138   5.976   3.458 -1.1755  1.9233  0.0349
  160SAPS  H16S17950   6.133   5.856   3.324 -1.3505 -1.0605  0.4628
  160SAPS  C21717951   6.044   5.783   3.501  0.3877 -0.3129  0.8770
  160SAPS  H17R17952   6.007   5.824   3.597  1.2801  1.0358  0.6789
  160SAPS  H17S17953   6.138   5.725   3.513 -0.0479 -0.7996  2.1424
  160SAPS  C21817954   5.939   5.688   3.443 -0.8241  0.0282  0.3659
  160SAPS  H18R17955   5.971   5.668   3.339 -2.1326  1.2179 -0.3040
  160SAPS  H18S17956   5.843   5.743   3.430 -0.7592  0.4098  1.3827
  160SAPS  C21917957   5.933   5.563   3.533  0.7292  0.2042  0.1348
  160SAPS  H19R17958   5.880   5.597   3.624  2.4993  2.5676  0.3734
  160SAPS  H19S17959   6.030   5.516   3.558  0.1238 -0.7372  0.7692
  160SAPS  C22017960   5.849   5.459   3.473 -0.4355  0.2242  0.0237
  160SAPS  H20R17961   5.758   5.500   3.423  0.2783  0.8863 -0.7742
  160SAPS  H20S17962   5.818   5.386   3.551  1.4288 -2.2304 -1.3940
  160SAPS  H20T17963   5.898   5.398   3.394 -0.4680 -0.5319  0.5810
  160SAPS   C3317964   6.498   4.966   2.927 -0.2177  0.8148 -0.1547
  160SAPS   H3X17965   6.499   4.875   2.990 -0.5488  2.1450  1.8820
  160SAPS   H3Y17966   6.397   5.010   2.908 -0.9836 -1.7674 -2.7003
  160SAPS   C3417967   6.591   5.069   3.004  0.3050  0.4283 -0.0123
  160SAPS   H4X17968   6.630   5.141   2.928 -0.0548  0.0072 -0.5988
  160SAPS   H4Y17969   6.688   5.025   3.035 -0.1934  0.6550  2.0179
  160SAPS   C3517970   6.524   5.106   3.138  0.2046 -0.2085  0.3241
  160SAPS   H5X17971   6.490   5.018   3.197  3.1392 -1.6323  0.0568
  160SAPS   H5Y17972   6.427   5.158   3.122 -0.6711 -2.1095 -0.8682
  160SAPS   C3617973   6.617   5.187   3.222 -0.1634 -0.4082  0.4190
  160SAPS   H6X17974   6.634   5.286   3.174  0.5250  0.5350  2.4526
  160SAPS   H6Y17975   6.716   5.137   3.233  0.8947  1.5285  0.3561
  160SAPS   C3717976   6.565   5.227   3.361  0.1102 -0.3335 -0.2899
  160SAPS   H7X17977   6.630   5.188   3.442  1.2950  3.3647  0.7315
  160SAPS   H7Y17978   6.471   5.171   3.381  0.8329 -1.6936 -0.6006
  160SAPS   C3817979   6.557   5.382   3.394  0.1335 -0.3805 -0.3422
  160SAPS   H8X17980   6.459   5.411   3.436  1.0268  1.2649  0.6914
  160SAPS   H8Y17981   6.564   5.435   3.297 -2.4406  1.0455  0.1525
  160SAPS   C3917982   6.675   5.427   3.492 -0.0013  0.2047 -0.2346
  160SAPS   H9X17983   6.681   5.538   3.486 -1.3280  0.3764  1.1017
  160SAPS   H9Y17984   6.776   5.393   3.458  0.3573  0.7384  0.2802
  160SAPS  C31017985   6.645   5.384   3.639  0.1533 -0.1913 -0.7013
  160SAPS  H10X17986   6.653   5.273   3.635  1.4594 -0.2400  1.5382
  160SAPS  H10Y17987   6.538   5.410   3.657 -0.6634 -2.8350 -1.3591
  160SAPS  C31117988   6.747   5.443   3.735 -0.4263 -0.1929  0.5229
  160SAPS  H11X17989   6.737   5.553   3.749 -0.0503 -0.2416  1.2143
  160SAPS  H11Y17990   6.843   5.417   3.686  1.1526  0.5371  3.0267
  160SAPS  C31217991   6.746   5.373   3.866  0.2872 -0.0423 -0.1557
  160SAPS  H12X17992   6.845   5.329   3.889 -0.7242 -3.0188 -1.0997
  160SAPS  H12Y17993   6.680   5.285   3.850  2.4983 -1.7237 -0.5234
  160SAPS  C31317994   6.701   5.463   3.980 -0.2749 -0.5891 -0.6345
  160SAPS  H13X17995   6.624   5.414   4.043 -0.1190  0.7103  0.6165
  160SAPS  H13Y17996   6.658   5.560   3.945 -2.5816 -0.6144  1.7814
  160SAPS  C31417997   6.806   5.496   4.084 -0.5117 -0.0194 -0.1984
  160SAPS  H14X17998   6.760   5.578   4.143 -0.3717  0.8262 -1.2253
  160SAPS  H14Y17999   6.904   5.530   4.044 -0.0960 -0.0340  0.7732
  160SAPS  C31518000   6.841   5.381   4.180  1.0742  0.3808  0.3433
  160SAPS  H15X18001   6.914   5.321   4.121  1.5485  2.5147 -1.3907
  160SAPS  H15Y18002   6.745   5.326   4.194  0.6222  1.1953  0.5340
  160SAPS  C31618003   6.885   5.418   4.320 -0.8488  0.2061  0.0413
  160SAPS  H16X18004   6.795   5.432   4.383 -1.8652  0.5745 -1.4470
  160SAPS  H16Y18005   6.935   5.513   4.293 -3.2110  1.8526  1.1206
  160SAPS  C31718006   6.986   5.323   4.393 -0.1944  0.3508  0.2573
  160SAPS  H17X18007   7.013   5.366   4.492 -1.1233  0.2221  0.5787
  160SAPS  H17Y18008   7.075   5.302   4.330 -1.4430 -0.4732 -1.2650
  160SAPS  C31818009   6.921   5.189   4.431 -0.0842  0.5822 -0.3127
  160SAPS  H18X18010   6.993   5.116   4.474 -2.7902 -2.9867 -1.3782
  160SAPS  H18Y18011   6.874   5.142   4.342  0.5153  0.5750 -0.6296
  160SAPS  H18Z18012   6.841   5.210   4.505  0.0711 -2.3050  0.8070
  161SAPE     N18013   5.851   2.299   6.914  0.4230  0.0821  0.8750
  161SAPE   HN118014   5.884   2.224   6.850 -2.0587 -1.0315  0.8128
  161SAPE   HN218015   5.906   2.290   7.003  2.6861 -0.9517 -0.5295
  161SAPE   HN318016   5.750   2.283   6.928  0.5910  0.1011  2.2913
  161SAPE   C1218017   5.871   2.435   6.850 -0.4990  0.7328 -0.1462
  161SAPE  H12A18018   5.979   2.457   6.865 -0.2262  1.1598 -2.4150
  161SAPE  H12B18019   5.800   2.506   6.898 -0.1570  0.8993  0.1205
  161SAPE   C1118020   5.838   2.427   6.693  0.5322 -0.4106 -0.4819
  161SAPE  H11A18021   5.889   2.351   6.631  0.6462  0.3154 -1.3042
  161SAPE  H11B18022   5.863   2.526   6.647  0.6445 -0.1746  0.0740
  161SAPE     P18023   5.612   2.326   6.600 -0.1048  0.1270  0.3694
  161SAPE   O1318024   5.612   2.187   6.653 -0.4265  0.5318 -0.0751
  161SAPE   O1418025   5.487   2.398   6.575  0.2317 -0.5056 -0.0034
  161SAPE   O1218026   5.700   2.424   6.692  0.2007 -0.8058  0.1335
  161SAPE   O1118027   5.687   2.316   6.464  0.1371  0.1094 -0.1314
  161SAPE    C118028   5.705   2.431   6.384 -1.1414  0.1510  0.6207
  161SAPE    HA18029   5.690   2.528   6.435  0.6997  1.5361 -1.3005
  161SAPE    HB18030   5.805   2.423   6.337 -0.4291  1.7577  1.7834
  161SAPE    C218031   5.598   2.426   6.266 -1.0765 -0.5827 -0.5787
  161SAPE    HS18032   5.512   2.478   6.313  1.7029  0.2368  4.2915
  161SAPE   O2118033   5.576   2.292   6.217 -0.3227 -0.4532 -0.4309
  161SAPE   C2118034   5.465   2.276   6.153 -0.3789  0.1303  0.4086
  161SAPE   O2218035   5.375   2.358   6.139 -0.2300  0.4993  0.3164
  161SAPE   C2218036   5.461   2.128   6.123  0.1606  0.2643  0.6857
  161SAPE   H2R18037   5.489   2.063   6.209 -1.8788 -2.9020 -0.8881
  161SAPE   H2S18038   5.356   2.096   6.109  0.6003 -0.8172 -0.2332
  161SAPE    C318039   5.628   2.518   6.148 -0.3295 -0.0336  0.1888
  161SAPE    HX18040   5.629   2.618   6.196  0.0306  0.6175 -1.1238
  161SAPE    HY18041   5.550   2.516   6.069 -0.0398 -1.5288 -0.0890
  161SAPE   O3118042   5.759   2.478   6.098  0.2845  0.1469  0.3462
  161SAPE   C3118043   5.761   2.404   5.994  0.3313 -0.7681  0.1269
  161SAPE   O3218044   5.668   2.385   5.911 -0.1268 -0.2358 -0.3216
  161SAPE   C3218045   5.903   2.369   5.965 -0.1444  0.0579  0.3987
  161SAPE   H2X18046   5.933   2.293   6.040  0.7328 -1.6940 -1.6329
  161SAPE   H2Y18047   5.959   2.463   5.980  0.4415  0.2833 -2.6027
  161SAPE   C2318048   5.541   2.081   5.996  0.2907  0.2123 -0.6509
  161SAPE   H3R18049   5.595   1.990   6.029 -1.8114 -0.6566  0.5471
  161SAPE   H3S18050   5.621   2.151   5.962  1.3583 -0.0826  1.1468
  161SAPE   C2418051   5.442   2.060   5.881  0.1034  0.4148 -0.0484
  161SAPE   H4R18052   5.405   2.162   5.859 -0.8086  0.9843  3.4804
  161SAPE   H4S18053   5.358   1.994   5.915 -0.5933  0.7067 -1.1609
  161SAPE   C2518054   5.513   1.984   5.772  0.2591 -0.4662 -0.0572
  161SAPE   H5R18055   5.519   1.875   5.781  1.4417 -0.3834  0.4007
  161SAPE   C2618056   5.577   2.037   5.672  0.7637  0.1952  0.7547
  161SAPE   H6R18057   5.624   1.974   5.596 -1.3836  0.8325 -1.2133
  161SAPE   C2718058   5.576   2.188   5.643  0.0703 -0.7009  0.0365
  161SAPE   H7R18059   5.667   2.207   5.583  1.2322  1.2876  2.2368
  161SAPE   H7S18060   5.589   2.241   5.741 -0.3376  2.8455 -1.6592
  161SAPE   C2818061   5.452   2.246   5.576  0.0427 -0.4489 -0.6382
  161SAPE   H8R18062   5.364   2.232   5.641 -1.3167  0.6379 -2.1629
  161SAPE   C2918063   5.445   2.300   5.450  0.7274 -0.5434  0.9262
  161SAPE   H9R18064   5.344   2.315   5.410  1.4462  3.0537  0.1342
  161SAPE  C21018065   5.545   2.316   5.341  0.4137  0.1434 -0.2056
  161SAPE  H10R18066   5.638   2.357   5.389  0.6570 -1.0417  0.3652
  161SAPE  H10S18067   5.494   2.385   5.271 -0.4319  0.3659  0.6059
  161SAPE  C21118068   5.578   2.195   5.265 -0.0549  0.3757  0.2638
  161SAPE  H11R18069   5.668   2.144   5.302  0.4232  0.3493 -0.8728
  161SAPE  C21218070   5.503   2.149   5.162  0.0417 -0.0168 -0.2526
  161SAPE  H12R18071   5.531   2.056   5.110  0.0576 -0.4177  0.4580
  161SAPE  C21318072   5.398   2.228   5.079 -0.1216  0.5227 -0.4090
  161SAPE  H13R18073   5.355   2.308   5.144 -1.5197 -2.2929  2.3795
  161SAPE  H13S18074   5.313   2.163   5.051  0.9685 -0.2668 -1.9822
  161SAPE  C21418075   5.459   2.272   4.953  1.3131 -0.7427 -0.1152
  161SAPE  H14R18076   5.495   2.376   4.938  2.4062 -1.2411 -1.1817
  161SAPE  C21518077   5.458   2.191   4.846 -0.3926  0.2550  0.1966
  161SAPE  H15R18078   5.492   2.233   4.750  1.6049 -0.5222  0.5266
  161SAPE  C21618079   5.394   2.053   4.833 -0.1473 -0.4040 -0.2882
  161SAPE  H16R18080   5.314   2.053   4.756  0.6137  0.1521 -1.1009
  161SAPE  H16S18081   5.354   2.007   4.926 -0.5336 -0.1956 -0.3463
  161SAPE  C21718082   5.502   1.954   4.803 -0.4476  0.5578  0.5504
  161SAPE  H17R18083   5.584   1.965   4.878 -1.3292 -0.8134  1.7782
  161SAPE  H17S18084   5.536   1.971   4.699 -3.0781 -3.0490 -1.1125
  161SAPE  C21818085   5.460   1.803   4.801 -0.3689  0.1027  0.2016
  161SAPE  H18R18086   5.460   1.766   4.905 -0.1473 -1.0117 -0.1743
  161SAPE  H18S18087   5.538   1.748   4.743 -0.9546 -0.4135 -0.1223
  161SAPE  C21918088   5.324   1.784   4.728 -0.0444  0.0140 -0.1285
  161SAPE  H19R18089   5.244   1.817   4.797 -0.0908 -1.7546  0.7212
  161SAPE  H19S18090   5.311   1.673   4.732 -2.2860  0.1653 -1.2844
  161SAPE  C22018091   5.303   1.834   4.589  0.1220  0.1942  0.6590
  161SAPE  H20R18092   5.331   1.941   4.577 -3.5689  1.6222  3.0198
  161SAPE  H20S18093   5.198   1.817   4.557  0.4867 -2.5052  0.6416
  161SAPE  H20T18094   5.372   1.770   4.530 -0.8832 -1.8141  1.5428
  161SAPE   C3318095   5.924   2.311   5.824 -0.1277 -0.8934 -0.3052
  161SAPE   H3X18096   5.855   2.228   5.797  0.2444 -1.0810 -0.6904
  161SAPE   H3Y18097   6.029   2.274   5.822  0.0845 -0.2598 -1.5012
  161SAPE   C3418098   5.934   2.424   5.721  0.9543  0.4236  0.5696
  161SAPE   H4X18099   6.006   2.508   5.733  2.2919 -0.7237  0.7259
  161SAPE   H4Y18100   5.838   2.480   5.716  1.3886  1.5698  3.4619
  161SAPE   C3518101   5.956   2.376   5.577 -0.2168  0.2713  0.2853
  161SAPE   H5X18102   5.904   2.281   5.555  1.3575 -0.5222 -0.1957
  161SAPE   H5Y18103   6.062   2.342   5.566 -0.3884  0.0948 -0.9984
  161SAPE   C3618104   5.913   2.473   5.467 -0.2367  0.0923  0.1225
  161SAPE   H6X18105   5.973   2.566   5.465 -0.1710  0.0692  0.7632
  161SAPE   H6Y18106   5.806   2.494   5.486 -0.3603 -1.7054  1.7642
  161SAPE   C3718107   5.936   2.425   5.322  0.6626 -0.6435  0.1603
  161SAPE   H7X18108   5.908   2.317   5.312  2.5700 -1.0614 -1.2983
  161SAPE   H7Y18109   6.046   2.431   5.309  0.6670 -1.0899 -0.0395
  161SAPE   C3818110   5.857   2.495   5.209  0.2529 -0.1433 -0.0722
  161SAPE   H8X18111   5.875   2.604   5.211  0.3713 -0.0589 -2.4172
  161SAPE   H8Y18112   5.747   2.482   5.222 -0.3629  1.6270 -2.7105
  161SAPE   C3918113   5.891   2.441   5.070 -0.9215 -0.2428  0.0579
  161SAPE   H9X18114   5.900   2.330   5.063  0.5741 -0.1463  0.2768
  161SAPE   H9Y18115   5.988   2.486   5.042 -1.8639 -0.2342 -3.6937
  161SAPE  C31018116   5.789   2.495   4.963 -0.2213  0.0263  0.3380
  161SAPE  H10X18117   5.796   2.605   4.959 -2.2825  0.2993  2.0718
  161SAPE  H10Y18118   5.683   2.479   4.994 -0.3004 -2.4473 -0.9118
  161SAPE  C31118119   5.798   2.425   4.828 -0.3595 -0.2250 -0.0413
  161SAPE  H11X18120   5.814   2.316   4.845  1.9593 -0.1089 -1.0128
  161SAPE  H11Y18121   5.898   2.443   4.784 -0.5879 -1.3818 -1.0864
  161SAPE  C31218122   5.686   2.468   4.729 -0.1816  0.4216 -0.0456
  161SAPE  H12X18123   5.703   2.577   4.713  0.5186  0.4103  0.5677
  161SAPE  H12Y18124   5.586   2.456   4.776  1.2705 -0.8190  2.9876
  161SAPE  C31318125   5.692   2.386   4.601 -0.6448 -0.0636 -0.5521
  161SAPE  H13X18126   5.782   2.423   4.547 -1.8547  0.7258 -2.1033
  161SAPE  H13Y18127   5.713   2.278   4.615  0.3217  0.1297 -0.4469
  161SAPE  C31418128   5.566   2.407   4.511 -1.2829  0.2681 -0.0689
  161SAPE  H14X18129   5.570   2.517   4.494  1.0104  0.1523 -0.5895
  161SAPE  H14Y18130   5.473   2.387   4.569 -0.4388  1.4101  1.7983
  161SAPE  C31518131   5.572   2.332   4.381 -0.2480 -0.1774 -0.1293
  161SAPE  H15X18132   5.672   2.351   4.336  0.0220  0.2116  0.6285
  161SAPE  H15Y18133   5.497   2.370   4.309 -0.3282 -1.0801 -0.5404
  161SAPE  C31618134   5.529   2.186   4.412 -0.0600  0.2625 -0.4989
  161SAPE  H16X18135   5.427   2.174   4.453 -1.0426 -1.3724 -3.2092
  161SAPE  H16Y18136   5.589   2.144   4.496 -1.6191  0.6055  0.8474
  161SAPE  C31718137   5.531   2.083   4.296 -0.3610 -0.0224 -0.2898
  161SAPE  H17X18138   5.523   1.982   4.341 -0.0310  0.1505  0.1675
  161SAPE  H17Y18139   5.628   2.085   4.242  0.5695  0.9192  1.3203
  161SAPE  C31818140   5.425   2.104   4.183  0.3879 -0.4069  0.4133
  161SAPE  H18X18141   5.404   2.212   4.162 -0.9693 -0.7335  0.0017
  161SAPE  H18Y18142   5.326   2.061   4.207  0.3705  0.5934  2.3696
  161SAPE  H18Z18143   5.459   2.070   4.083 -2.0126  2.4596 -1.5940
  162SAPE     N18144   4.925   3.088   6.297 -0.0955 -0.2197 -0.3733
  162SAPE   HN118145   4.826   3.109   6.272 -0.1578  0.7293  0.6196
  162SAPE   HN218146   4.944   3.148   6.379 -0.3635  0.7090 -0.9708
  162SAPE   HN318147   4.985   3.120   6.218  0.8111 -1.0108 -0.0256
  162SAPE   C1218148   4.953   2.940   6.305  0.4367  0.4756 -0.1106
  162SAPE  H12A18149   4.900   2.885   6.224 -0.1765  0.6683  0.1560
  162SAPE  H12B18150   4.896   2.893   6.388 -2.7129  0.1767 -2.2614
  162SAPE   C1118151   5.093   2.903   6.305  0.2737 -0.0725  0.3070
  162SAPE  H11A18152   5.141   2.934   6.210 -1.5984  3.0508  0.2301
  162SAPE  H11B18153   5.089   2.792   6.309  0.3575 -0.1312 -0.9885
  162SAPE     P18154   5.297   3.020   6.417 -0.6135 -0.4504 -0.0597
  162SAPE   O1318155   5.293   3.127   6.313  0.5084  0.3565 -0.5926
  162SAPE   O1418156   5.341   3.066   6.551  0.4851  0.3974 -0.8157
  162SAPE   O1218157   5.155   2.952   6.425  0.3150 -0.3817 -0.0206
  162SAPE   O1118158   5.381   2.895   6.369 -0.0864 -0.0157  0.2486
  162SAPE    C118159   5.516   2.875   6.413  0.5316 -0.2821  0.5171
  162SAPE    HA18160   5.537   2.909   6.517  0.4927  1.6221 -0.0537
  162SAPE    HB18161   5.545   2.768   6.407 -0.3507 -0.4451 -1.6726
  162SAPE    C218162   5.614   2.945   6.312  0.0547  0.0837 -0.4293
  162SAPE    HS18163   5.570   3.045   6.296  0.3487  0.8534  2.8170
  162SAPE   O2118164   5.642   2.863   6.198 -0.4362  0.4624 -0.4883
  162SAPE   C2118165   5.638   2.932   6.080  0.7167 -0.6344  0.1564
  162SAPE   O2218166   5.605   3.046   6.075  0.4811 -0.4113  0.0254
  162SAPE   C2218167   5.700   2.855   5.972 -0.7583  0.2536 -0.1347
  162SAPE   H2R18168   5.793   2.809   6.014 -0.1702  2.6364  1.3407
  162SAPE   H2S18169   5.625   2.779   5.941 -0.5362 -0.2979  0.6324
  162SAPE    C318170   5.753   2.971   6.382 -1.3595  0.0409  0.7419
  162SAPE    HX18171   5.795   2.873   6.413 -1.1503  0.3470  1.4468
  162SAPE    HY18172   5.723   3.032   6.470 -0.3248  1.3793  0.2095
  162SAPE   O3118173   5.835   3.046   6.286 -0.3646 -0.1919  0.1671
  162SAPE   C3118174   5.842   3.179   6.308  0.8083  0.8865 -0.3294
  162SAPE   O3218175   5.784   3.239   6.396 -0.4395  0.0130 -0.1010
  162SAPE   C3218176   5.940   3.252   6.222  0.2313  0.1899  0.2436
  162SAPE   H2X18177   6.027   3.250   6.292  0.7809 -0.9909 -0.4593
  162SAPE   H2Y18178   5.898   3.353   6.199  1.8900  1.0549  0.7809
  162SAPE   C2318179   5.745   2.947   5.858 -0.0560  0.7910  0.6218
  162SAPE   H3R18180   5.807   3.032   5.896  1.3551  0.3328 -0.5763
  162SAPE   H3S18181   5.660   2.997   5.806  1.5275  2.5968 -0.3630
  162SAPE   C2418182   5.836   2.883   5.753  0.2559 -0.8224  0.1471
  162SAPE   H4R18183   5.917   2.831   5.809  0.8899  0.3752  0.3798
  162SAPE   H4S18184   5.893   2.964   5.701  1.3698  0.2720  2.8426
  162SAPE   C2518185   5.752   2.784   5.675 -0.3726 -0.5864 -0.7231
  162SAPE   H5R18186   5.698   2.699   5.720 -0.1763 -0.8627 -1.0052
  162SAPE   C2618187   5.728   2.800   5.542  0.4497  0.0585 -0.6385
  162SAPE   H6R18188   5.658   2.729   5.496 -0.0667 -1.0254  1.6937
  162SAPE   C2718189   5.783   2.894   5.445  0.2275 -0.2208  1.1350
  162SAPE   H7R18190   5.818   2.983   5.502  0.4551  1.7352 -1.8329
  162SAPE   H7S18191   5.700   2.940   5.387  0.5809  0.3133  1.0451
  162SAPE   C2818192   5.902   2.848   5.359  0.5678  0.0761 -1.2333
  162SAPE   H8R18193   5.977   2.777   5.397 -1.3178 -1.1901  0.3523
  162SAPE   C2918194   5.932   2.909   5.241 -0.4908 -0.7242 -0.5241
  162SAPE   H9R18195   6.023   2.871   5.194 -0.5786 -0.2159 -1.1169
  162SAPE  C21018196   5.868   3.032   5.171  1.4390 -0.4053 -0.2350
  162SAPE  H10R18197   5.758   3.025   5.165  1.3074  1.1893 -0.0979
  162SAPE  H10S18198   5.903   3.028   5.066 -0.5521  1.9801 -1.0806
  162SAPE  C21118199   5.905   3.167   5.231 -0.0727 -0.0151 -0.2762
  162SAPE  H11R18200   5.916   3.167   5.340  0.1804  1.7544 -0.2716
  162SAPE  C21218201   5.927   3.280   5.157  0.1676  1.1036 -0.6958
  162SAPE  H12R18202   5.940   3.371   5.218  0.8801 -0.6912  2.0168
  162SAPE  C21318203   5.913   3.308   5.014 -0.4078 -0.3224  0.4348
  162SAPE  H13R18204   5.859   3.403   4.994  0.6461  0.8135  2.6320
  162SAPE  H13S18205   5.860   3.226   4.961  2.1615 -2.3240  0.7390
  162SAPE  C21418206   6.055   3.324   4.956  0.2415 -0.2391  0.4883
  162SAPE  H14R18207   6.097   3.223   4.952 -0.2372 -0.4447  0.5484
  162SAPE  C21518208   6.122   3.431   4.913  0.2113 -0.1397  0.4939
  162SAPE  H15R18209   6.227   3.427   4.879 -0.6821  2.5302 -3.1159
  162SAPE  C21618210   6.067   3.573   4.908  0.0777  0.1909 -0.1429
  162SAPE  H16R18211   6.159   3.626   4.941  1.2544 -1.8836  0.0399
  162SAPE  H16S18212   5.987   3.585   4.985  0.4502  0.7728  0.1624
  162SAPE  C21718213   6.010   3.607   4.769 -0.5361 -0.9378 -0.0725
  162SAPE  H17R18214   5.930   3.537   4.738 -1.0920 -0.8109  1.0280
  162SAPE  H17S18215   6.094   3.585   4.700 -1.4632  2.4144 -2.5310
  162SAPE  C21818216   5.961   3.757   4.759  0.2417  0.1336  0.4704
  162SAPE  H18R18217   6.043   3.813   4.809  0.4761  0.8333 -0.6712
  162SAPE  H18S18218   5.870   3.761   4.823  0.6522  3.2751  1.0241
  162SAPE  C21918219   5.918   3.810   4.622  0.1508 -0.0063 -0.8802
  162SAPE  H19R18220   5.815   3.771   4.604 -0.2447 -1.1059  2.9048
  162SAPE  H19S18221   5.980   3.746   4.555 -0.6847 -0.2388 -1.4409
  162SAPE  C22018222   5.923   3.956   4.599  0.4338  0.0813 -0.5551
  162SAPE  H20R18223   6.029   3.980   4.579  0.5691  0.0560  0.1212
  162SAPE  H20S18224   5.885   4.009   4.689  2.3711  0.0939  0.2928
  162SAPE  H20T18225   5.847   3.994   4.527 -1.8887  0.2905  1.8300
  162SAPE   C3318226   5.960   3.177   6.085 -0.0551 -0.2207  0.2257
  162SAPE   H3X18227   5.854   3.164   6.056  0.2485 -3.7478  0.3067
  162SAPE   H3Y18228   6.008   3.079   6.106 -0.1414 -0.0012  1.5370
  162SAPE   C3418229   6.032   3.268   5.985 -0.2014 -0.5921  0.2852
  162SAPE   H4X18230   6.132   3.295   6.024 -0.3382  0.4977 -0.0899
  162SAPE   H4Y18231   5.974   3.361   5.965 -2.6110 -2.0402  0.0776
  162SAPE   C3518232   6.072   3.216   5.849 -0.5700  0.8981  0.9062
  162SAPE   H5X18233   5.979   3.179   5.800  0.5788  1.7674 -2.2122
  162SAPE   H5Y18234   6.145   3.135   5.872 -1.1530 -0.3115 -1.2472
  162SAPE   C3618235   6.119   3.321   5.745 -0.2780  0.0651 -0.6192
  162SAPE   H6X18236   6.218   3.369   5.757 -0.8890  1.7045 -1.6743
  162SAPE   H6Y18237   6.046   3.405   5.738  0.8660  1.5420  2.8194
  162SAPE   C3718238   6.140   3.249   5.612  1.1715  0.5432 -0.7458
  162SAPE   H7X18239   6.121   3.317   5.525  0.3091 -0.7635 -1.6069
  162SAPE   H7Y18240   6.060   3.175   5.596 -0.1163  0.4091  4.5598
  162SAPE   C3818241   6.273   3.178   5.606  0.1920 -0.0072 -0.3414
  162SAPE   H8X18242   6.275   3.084   5.664  0.2883 -0.6227 -1.3287
  162SAPE   H8Y18243   6.354   3.250   5.632 -0.3917  1.9709 -3.5431
  162SAPE   C3918244   6.294   3.141   5.462 -0.6722  0.6664 -0.2554
  162SAPE   H9X18245   6.260   3.229   5.403  4.3951  2.0885 -1.6081
  162SAPE   H9Y18246   6.230   3.051   5.448  0.4276 -0.3906  1.1958
  162SAPE  C31018247   6.438   3.113   5.426 -0.0642 -0.0602 -0.1039
  162SAPE  H10X18248   6.480   3.023   5.475 -2.7940 -1.2175  0.3163
  162SAPE  H10Y18249   6.496   3.200   5.462 -0.1936 -0.8112  2.0599
  162SAPE  C31118250   6.465   3.097   5.272 -0.4893 -0.7193 -0.3804
  162SAPE  H11X18251   6.426   3.190   5.225  1.3172  1.9233  2.8842
  162SAPE  H11Y18252   6.417   3.004   5.237  0.4425 -1.0854 -0.7182
  162SAPE  C31218253   6.616   3.068   5.245  0.3368 -0.2218 -0.0953
  162SAPE  H12X18254   6.653   2.988   5.313  0.6381  0.5017  0.5958
  162SAPE  H12Y18255   6.678   3.158   5.266  0.0272  0.2007 -0.9373
  162SAPE  C31318256   6.658   3.044   5.104  0.3600 -0.0071  0.0769
  162SAPE  H13X18257   6.587   2.966   5.069  0.5981 -0.6077  0.8940
  162SAPE  H13Y18258   6.758   3.000   5.085  0.5146  1.0979 -1.8666
  162SAPE  C31418259   6.646   3.176   5.022  0.1650 -0.1714 -0.0077
  162SAPE  H14X18260   6.681   3.259   5.087  1.1273  0.2543 -1.0333
  162SAPE  H14Y18261   6.540   3.196   5.000  0.0067  1.4765  1.9164
  162SAPE  C31518262   6.723   3.184   4.888  0.0694 -0.1066 -0.0362
  162SAPE  H15X18263   6.731   3.078   4.858 -1.3802 -0.1538 -0.3113
  162SAPE  H15Y18264   6.829   3.214   4.902  0.1096  0.5600 -1.5142
  162SAPE  C31618265   6.649   3.280   4.790  0.0943  0.6850  0.2970
  162SAPE  H16X18266   6.647   3.386   4.825 -3.3280  0.2896  1.6503
  162SAPE  H16Y18267   6.544   3.245   4.787 -0.0056  1.0253 -0.2617
  162SAPE  C31718268   6.709   3.286   4.646  0.1461 -0.0820  0.5324
  162SAPE  H17X18269   6.706   3.194   4.583  3.1260 -0.4538  0.7801
  162SAPE  H17Y18270   6.818   3.304   4.656  0.1661  0.9772 -1.1804
  162SAPE  C31818271   6.656   3.404   4.561 -0.0829  0.3251  0.7876
  162SAPE  H18X18272   6.717   3.425   4.470  0.2051 -1.8575  0.4198
  162SAPE  H18Y18273   6.664   3.497   4.622 -0.0752 -0.4539  1.9967
  162SAPE  H18Z18274   6.551   3.386   4.533  0.0556  0.9362 -0.1719
  163SAPE     N18275   2.801   6.146   6.936 -0.2524  0.3178 -0.1980
  163SAPE   HN118276   2.806   6.097   6.844 -1.7111 -1.1647  0.4508
  163SAPE   HN218277   2.729   6.099   6.994 -0.3779 -0.2761 -0.8227
  163SAPE   HN318278   2.761   6.240   6.921 -2.9056 -0.8780 -1.1599
  163SAPE   C1218279   2.933   6.127   7.012  0.3734 -0.3101  0.1502
  163SAPE  H12A18280   2.929   6.168   7.115 -0.6935 -1.6943  0.6877
  163SAPE  H12B18281   3.013   6.176   6.953  1.5792 -2.3332  0.0074
  163SAPE   C1118282   2.971   5.976   7.020  0.9171 -0.2999  0.0506
  163SAPE  H11A18283   2.899   5.945   7.098  2.8420 -2.9267  0.9379
  163SAPE  H11B18284   3.073   5.959   7.061  1.1292  0.1634 -0.2628
  163SAPE     P18285   3.076   5.859   6.816  0.2091  0.1014  0.3012
  163SAPE   O1318286   3.102   5.727   6.873  0.7971  0.4564 -0.4457
  163SAPE   O1418287   3.040   5.865   6.674 -0.4870  0.0876 -0.5163
  163SAPE   O1218288   2.955   5.914   6.891  0.5675  0.4000 -0.5453
  163SAPE   O1118289   3.197   5.953   6.851 -0.5302  0.4429  0.1859
  163SAPE    C118290   3.217   6.085   6.805 -0.3751 -0.0072  0.6058
  163SAPE    HA18291   3.127   6.141   6.771 -0.0423 -0.2646 -0.7627
  163SAPE    HB18292   3.251   6.147   6.891 -1.8624  2.8511 -0.7237
  163SAPE    C218293   3.332   6.081   6.700 -0.2477 -0.5361 -0.9426
  163SAPE    HS18294   3.356   6.187   6.679 -0.7472 -0.4148 -0.8900
  163SAPE   O2118295   3.296   6.003   6.579 -0.1185  0.2919  0.0480
  163SAPE   C2118296   3.217   6.083   6.498 -0.3182  1.0890  0.1372
  163SAPE   O2218297   3.183   6.199   6.524 -0.3623  0.1016  0.7597
  163SAPE   C2218298   3.168   5.997   6.380 -0.6766  0.0386 -0.0940
  163SAPE   H2R18299   3.260   5.966   6.325 -1.3162  0.6413 -1.5558
  163SAPE   H2S18300   3.114   5.916   6.435 -4.4758  2.0033 -0.6273
  163SAPE    C318301   3.461   6.009   6.759  0.6414 -0.2742  0.3376
  163SAPE    HX18302   3.427   5.914   6.807  0.6064 -0.8206 -0.7441
  163SAPE    HY18303   3.506   6.081   6.830  0.6780  2.9779 -2.7019
  163SAPE   O3118304   3.567   5.985   6.659 -0.0616 -0.4496 -0.7923
  163SAPE   C3118305   3.556   5.874   6.593  0.0733 -0.2114 -0.1864
  163SAPE   O3218306   3.484   5.782   6.620  0.5644  0.4257  0.2079
  163SAPE   C3218307   3.643   5.896   6.467  0.4989 -0.3613 -0.0624
  163SAPE   H2X18308   3.711   5.808   6.457 -0.2362 -1.1258  1.2586
  163SAPE   H2Y18309   3.705   5.986   6.486 -0.9781  0.5455  0.6317
  163SAPE   C2318310   3.078   6.077   6.277  0.1975 -0.1940  0.3944
  163SAPE   H3R18311   3.141   6.161   6.242  0.9914 -0.3049  1.4942
  163SAPE   H3S18312   2.990   6.102   6.341  0.1119 -0.9883  0.5944
  163SAPE   C2418313   3.031   6.009   6.149 -0.9016  0.2156 -0.6804
  163SAPE   H4R18314   2.960   6.068   6.088 -2.1720 -0.4833  0.0891
  163SAPE   H4S18315   2.982   5.916   6.185 -0.7714  0.7684  0.9808
  163SAPE   C2518316   3.153   5.955   6.072 -0.0440  0.1516  0.5820
  163SAPE   H5R18317   3.213   5.878   6.123 -0.3236  0.4949  1.4602
  163SAPE   C2618318   3.190   6.000   5.946 -0.1611 -1.0060  0.0500
  163SAPE   H6R18319   3.280   5.954   5.904 -0.7432  0.5933 -3.2466
  163SAPE   C2718320   3.119   6.093   5.859  0.3225 -0.2762 -0.5188
  163SAPE   H7R18321   3.192   6.173   5.832  1.5325 -0.8277  0.9963
  163SAPE   H7S18322   3.040   6.143   5.918 -0.7473 -1.6326 -0.7496
  163SAPE   C2818323   3.061   6.030   5.739 -1.1124 -0.1919  0.3240
  163SAPE   H8R18324   2.985   5.954   5.762 -1.5686  0.7196  1.9789
  163SAPE   C2918325   3.102   6.051   5.614  0.3664  0.0201  0.1025
  163SAPE   H9R18326   3.051   5.990   5.538 -1.5866  0.3199  1.1152
  163SAPE  C21018327   3.210   6.141   5.553 -0.5759  0.1280  0.2053
  163SAPE  H10R18328   3.248   6.206   5.635 -1.2771 -1.1401  1.5875
  163SAPE  H10S18329   3.179   6.210   5.472  1.7104  2.5234  1.2342
  163SAPE  C21118330   3.330   6.060   5.508  0.1815 -0.0255 -0.1359
  163SAPE  H11R18331   3.402   6.027   5.585 -1.0624 -1.2026  0.5695
  163SAPE  C21218332   3.347   6.006   5.387 -0.0378 -0.4789  0.2170
  163SAPE  H12R18333   3.434   5.941   5.369 -0.4973 -1.0642  0.0771
  163SAPE  C21318334   3.261   6.034   5.264 -0.3840  0.0562 -0.6970
  163SAPE  H13R18335   3.158   6.060   5.298 -0.0578  1.5361 -0.7781
  163SAPE  H13S18336   3.252   5.943   5.201 -1.9448  0.2427 -0.7958
  163SAPE  C21418337   3.300   6.156   5.186  0.5244 -0.7509 -0.8362
  163SAPE  H14R18338   3.398   6.196   5.214 -0.3592  1.2111 -0.3825
  163SAPE  C21518339   3.218   6.224   5.107  0.4630 -0.2180  0.1739
  163SAPE  H15R18340   3.249   6.312   5.049  0.6386  0.3756  1.1465
  163SAPE  C21618341   3.092   6.159   5.063 -0.6720 -0.7028 -0.1954
  163SAPE  H16R18342   3.012   6.234   5.048  0.9101  1.2947  0.8136
  163SAPE  H16S18343   3.043   6.093   5.138 -3.7301  2.9425  1.3340
  163SAPE  C21718344   3.112   6.095   4.924  0.6200  1.0398 -0.5676
  163SAPE  H17R18345   3.181   6.009   4.932 -0.1301  0.5026  0.4401
  163SAPE  H17S18346   3.152   6.168   4.851  0.6266  1.4705 -0.1446
  163SAPE  C21818347   2.981   6.037   4.865  0.2184  0.1423 -0.9439
  163SAPE  H18R18348   2.918   6.125   4.841  1.3771  1.2430 -0.1166
  163SAPE  H18S18349   2.938   5.967   4.940 -0.5518  2.0385  0.4539
  163SAPE  C21918350   3.010   5.955   4.737 -0.5402 -0.3821 -0.3592
  163SAPE  H19R18351   3.075   5.871   4.767  1.0884  0.0571 -2.4041
  163SAPE  H19S18352   3.060   6.023   4.665 -2.5176 -0.9135 -2.3858
  163SAPE  C22018353   2.885   5.905   4.671 -0.1219  0.0477 -0.1959
  163SAPE  H20R18354   2.819   5.854   4.744 -0.7761  0.8911 -0.1810
  163SAPE  H20S18355   2.916   5.838   4.588  3.5909  1.3728 -0.0566
  163SAPE  H20T18356   2.822   5.986   4.628  0.9451  1.5209  0.8749
  163SAPE   C3318357   3.576   5.914   6.332 -0.9279 -0.2867  0.6014
  163SAPE   H3X18358   3.492   5.979   6.365 -1.0480  0.1290 -0.4800
  163SAPE   H3Y18359   3.525   5.827   6.285 -1.4105  1.8855 -3.3189
  163SAPE   C3418360   3.659   5.991   6.225  0.0576  0.0027 -0.5197
  163SAPE   H4X18361   3.748   5.934   6.190 -0.0553  0.3758 -1.4578
  163SAPE   H4Y18362   3.688   6.093   6.258  0.2612  0.5383 -2.2216
  163SAPE   C3518363   3.570   6.017   6.100  0.8448  0.3420 -0.2614
  163SAPE   H5X18364   3.486   6.079   6.137  0.1112  0.3555 -1.8698
  163SAPE   H5Y18365   3.530   5.918   6.068  0.1052 -0.0984  1.9032
  163SAPE   C3618366   3.638   6.079   5.984  0.1862  0.3801  0.0297
  163SAPE   H6X18367   3.699   6.170   6.005  1.5023 -0.1506 -1.3364
  163SAPE   H6Y18368   3.558   6.105   5.911 -0.5399  0.2355  0.7513
  163SAPE   C3718369   3.736   5.980   5.909 -0.5558  0.5012 -0.6334
  163SAPE   H7X18370   3.694   5.883   5.874  2.3171 -0.6764 -1.1300
  163SAPE   H7Y18371   3.814   5.958   5.985 -0.8253 -0.3748 -0.6051
  163SAPE   C3818372   3.799   6.032   5.779 -0.1750 -0.2226 -0.3969
  163SAPE   H8X18373   3.868   5.956   5.737  2.1592  2.0853 -0.9834
  163SAPE   H8Y18374   3.866   6.120   5.784  2.2061 -1.9117 -1.0889
  163SAPE   C3918375   3.691   6.047   5.662  0.2555 -0.5209 -0.2350
  163SAPE   H9X18376   3.627   6.135   5.683  0.8926 -0.0067 -0.4242
  163SAPE   H9Y18377   3.620   5.962   5.664 -1.3059  0.6790 -1.6315
  163SAPE  C31018378   3.735   6.039   5.508  0.2123 -0.0031 -1.1071
  163SAPE  H10X18379   3.652   6.018   5.437  0.3356 -1.2492 -0.9065
  163SAPE  H10Y18380   3.802   5.950   5.499  1.2774  0.7418 -0.7996
  163SAPE  C31118381   3.803   6.171   5.479  0.0404  0.0376  0.0556
  163SAPE  H11X18382   3.881   6.191   5.557 -0.2360 -0.7062  0.5302
  163SAPE  H11Y18383   3.726   6.250   5.497 -0.5699  0.0487 -2.3253
  163SAPE  C31218384   3.859   6.178   5.342 -0.5337 -0.6921  0.1632
  163SAPE  H12X18385   3.946   6.109   5.337  1.2109  1.4051  0.2258
  163SAPE  H12Y18386   3.905   6.276   5.319 -0.5063 -0.4429  1.2276
  163SAPE  C31318387   3.754   6.156   5.242 -0.4563  0.1684  0.2560
  163SAPE  H13X18388   3.665   6.219   5.264 -0.5344  1.4115 -3.0290
  163SAPE  H13Y18389   3.724   6.049   5.236  1.4445 -0.3468 -1.0927
  163SAPE  C31418390   3.783   6.190   5.099  0.1661  0.8717  0.1549
  163SAPE  H14X18391   3.863   6.120   5.066 -1.2315 -0.8208  0.2144
  163SAPE  H14Y18392   3.812   6.296   5.090  2.2383  0.2789 -0.6938
  163SAPE  C31518393   3.662   6.164   5.000 -1.0881  0.0124 -0.2029
  163SAPE  H15X18394   3.578   6.233   5.023  0.9546  2.3165  0.8265
  163SAPE  H15Y18395   3.624   6.061   4.987 -2.3189  0.6922 -2.6111
  163SAPE  C31618396   3.699   6.216   4.858 -0.3963 -0.5969  0.1422
  163SAPE  H16X18397   3.788   6.168   4.813 -0.4727  0.3369 -1.0490
  163SAPE  H16Y18398   3.738   6.320   4.857  1.0929 -1.0754 -2.8221
  163SAPE  C31718399   3.580   6.200   4.760 -0.0174  0.3815  0.0198
  163SAPE  H17X18400   3.521   6.114   4.798 -1.3575  1.1568 -0.2711
  163SAPE  H17Y18401   3.631   6.178   4.664  1.9815 -0.0767  1.1308
  163SAPE  C31818402   3.481   6.316   4.753 -0.1140 -0.1220  0.0314
  163SAPE  H18X18403   3.379   6.284   4.721  1.4364 -3.8638 -1.6814
  163SAPE  H18Y18404   3.518   6.407   4.702 -1.4302  2.4271  3.2520
  163SAPE  H18Z18405   3.471   6.355   4.856  1.2565  1.7394 -0.5013
  164SAPE     N18406   1.252   1.501   6.979 -0.4512 -0.5952 -0.5267
  164SAPE   HN118407   1.243   1.579   7.047  2.4860 -0.2317 -0.3977
  164SAPE   HN218408   1.183   1.429   7.007 -1.6026  1.0443  1.0803
  164SAPE   HN318409   1.352   1.473   6.982  0.7580  3.0049 -1.3101
  164SAPE   C1218410   1.216   1.547   6.840 -0.1935 -0.0712 -0.1340
  164SAPE  H12A18411   1.260   1.648   6.828 -0.8976  0.7071  3.0334
  164SAPE  H12B18412   1.106   1.558   6.830 -0.2554  0.8774  1.3601
  164SAPE   C1118413   1.281   1.459   6.735  0.2203 -0.5437 -0.2819
  164SAPE  H11A18414   1.253   1.499   6.635 -0.2890  0.9600  0.4259
  164SAPE  H11B18415   1.241   1.358   6.756 -0.8142  0.0269  0.5969
  164SAPE     P18416   1.519   1.378   6.674 -0.0446  0.2709 -0.0699
  164SAPE   O1318417   1.664   1.419   6.703  0.8819 -0.5032 -0.2331
  164SAPE   O1418418   1.478   1.234   6.685 -0.1150  0.2865 -0.5407
  164SAPE   O1218419   1.417   1.467   6.753  0.0524 -0.2045 -0.0365
  164SAPE   O1118420   1.495   1.408   6.525 -0.2119 -0.3281 -0.1396
  164SAPE    C118421   1.529   1.521   6.446 -0.2239 -0.6682  0.2220
  164SAPE    HA18422   1.580   1.603   6.500  1.5030 -0.4400 -1.6411
  164SAPE    HB18423   1.598   1.493   6.364 -1.8767 -0.3697 -1.3430
  164SAPE    C218424   1.405   1.583   6.381  0.3414 -0.5288 -0.2932
  164SAPE    HS18425   1.311   1.542   6.425  1.3369 -0.8751  1.5823
  164SAPE   O2118426   1.419   1.564   6.239  0.1029  0.1511 -0.1792
  164SAPE   C2118427   1.362   1.450   6.201 -0.3717 -0.0177  0.2774
  164SAPE   O2218428   1.279   1.381   6.262  0.2567  0.0160  0.3889
  164SAPE   C2218429   1.434   1.405   6.073 -0.6242 -0.8230 -0.2081
  164SAPE   H2R18430   1.483   1.496   6.032  0.3856 -1.4563 -0.4623
  164SAPE   H2S18431   1.517   1.341   6.110 -0.2324 -0.6906 -0.8306
  164SAPE    C318432   1.403   1.732   6.402 -0.1752 -0.4323 -0.2934
  164SAPE    HX18433   1.503   1.768   6.369  0.7867 -0.7724  2.0413
  164SAPE    HY18434   1.403   1.747   6.512 -0.4995 -1.4743 -0.1400
  164SAPE   O3118435   1.282   1.793   6.344  0.1520 -0.4411 -0.6180
  164SAPE   C3118436   1.281   1.909   6.290  0.4918  0.6865  0.0802
  164SAPE   O3218437   1.375   1.984   6.286  0.3041  0.0935  0.2530
  164SAPE   C3218438   1.143   1.949   6.247  0.6320  0.2857 -0.0315
  164SAPE   H2X18439   1.088   1.973   6.340  1.9515  0.0516  0.8345
  164SAPE   H2Y18440   1.085   1.865   6.205 -0.1677  1.8736 -2.3184
  164SAPE   C2318441   1.357   1.334   5.961  0.3513  0.0958  0.2190
  164SAPE   H3R18442   1.268   1.379   5.913 -1.5152 -3.8356 -0.3556
  164SAPE   H3S18443   1.306   1.254   6.018  0.8877  0.2655  0.9474
  164SAPE   C2418444   1.456   1.277   5.855 -0.6510 -0.5106  0.4816
  164SAPE   H4R18445   1.399   1.201   5.797  2.2460 -1.4282 -1.3444
  164SAPE   H4S18446   1.539   1.223   5.905 -0.6402 -0.9723 -0.0277
  164SAPE   C2518447   1.498   1.389   5.764 -0.1197  0.2405  0.4428
  164SAPE   H5R18448   1.549   1.475   5.809 -3.1309  1.7847  1.1526
  164SAPE   C2618449   1.462   1.400   5.639  0.9922 -0.5459  1.2638
  164SAPE   H6R18450   1.521   1.475   5.583  0.0768  0.7268  1.9697
  164SAPE   C2718451   1.372   1.308   5.561  0.6753 -0.0097  0.1982
  164SAPE   H7R18452   1.406   1.202   5.570  0.9311 -0.0296 -0.8273
  164SAPE   H7S18453   1.397   1.329   5.455  1.3586  1.6560  0.6587
  164SAPE   C2818454   1.225   1.321   5.571 -0.4555 -0.5379 -0.0443
  164SAPE   H8R18455   1.202   1.422   5.608 -0.2485  0.4205 -2.4072
  164SAPE   C2918456   1.129   1.241   5.512  0.0976 -0.0321 -0.7651
  164SAPE   H9R18457   1.022   1.264   5.516  0.0522 -0.2501 -0.7083
  164SAPE  C21018458   1.154   1.106   5.454  0.5223  0.5385  0.2861
  164SAPE  H10R18459   1.079   1.041   5.506 -1.3185  1.6681 -0.8387
  164SAPE  H10S18460   1.253   1.060   5.476  0.2135  0.0909  0.7698
  164SAPE  C21118461   1.126   1.112   5.306  0.5860  0.2876 -0.2199
  164SAPE  H11R18462   1.220   1.118   5.250  1.9520 -2.0632  1.5946
  164SAPE  C21218463   1.017   1.097   5.241  0.5546 -0.0664  0.7121
  164SAPE  H12R18464   1.008   1.108   5.132 -3.0190  0.0904  0.8887
  164SAPE  C21318465   0.884   1.075   5.312  0.9011  0.0692 -0.0351
  164SAPE  H13R18466   0.824   1.161   5.276  0.8191  0.6878  1.5060
  164SAPE  H13S18467   0.881   1.093   5.422 -1.7904 -1.0877  0.1737
  164SAPE  C21418468   0.828   0.933   5.289 -0.5593 -0.0744 -0.3967
  164SAPE  H14R18469   0.879   0.853   5.346  0.5478 -0.8462 -2.3737
  164SAPE  C21518470   0.717   0.903   5.222  0.4273 -0.0405  0.1678
  164SAPE  H15R18471   0.671   0.803   5.213 -1.6669  0.9586 -0.9493
  164SAPE  C21618472   0.642   1.006   5.141  0.3222 -0.4188  0.5519
  164SAPE  H16R18473   0.703   1.096   5.117  2.3288 -2.1286 -1.1440
  164SAPE  H16S18474   0.555   1.033   5.205 -0.2459 -3.4911  1.2590
  164SAPE  C21718475   0.595   0.953   5.002  0.4555  0.3960 -0.2699
  164SAPE  H17R18476   0.527   0.865   5.013 -0.7787  1.3717  0.1953
  164SAPE  H17S18477   0.686   0.908   4.957  1.2127  2.2237 -0.6451
  164SAPE  C21818478   0.539   1.048   4.898  0.0068  0.3129 -0.0211
  164SAPE  H18R18479   0.528   1.013   4.793 -1.6532  1.8914 -0.4313
  164SAPE  H18S18480   0.614   1.130   4.901  0.0988  0.1946  1.0959
  164SAPE  C21918481   0.400   1.106   4.943  0.1400  0.7576 -0.2602
  164SAPE  H19R18482   0.406   1.132   5.051  0.1340 -0.3445  0.0203
  164SAPE  H19S18483   0.323   1.027   4.941 -1.7364  2.4819  0.6006
  164SAPE  C22018484   0.348   1.224   4.855  0.0850  0.0438  0.2088
  164SAPE  H20R18485   0.424   1.304   4.844  0.7170 -0.4407  0.9674
  164SAPE  H20S18486   0.248   1.263   4.886 -0.7575 -1.4883 -0.4654
  164SAPE  H20T18487   0.322   1.171   4.761 -0.0112  1.5236 -0.6185
  164SAPE   C3318488   1.148   2.060   6.144 -0.2191 -0.5141 -0.6305
  164SAPE   H3X18489   1.199   2.147   6.190  2.5174 -0.2393 -3.7723
  164SAPE   H3Y18490   1.044   2.095   6.123  1.0711  4.0516 -0.5579
  164SAPE   C3418491   1.220   2.024   6.013  0.1455  0.5897  0.0472
  164SAPE   H4X18492   1.329   2.013   6.031  0.1981  3.0247  1.6723
  164SAPE   H4Y18493   1.207   2.113   5.947 -0.3766  2.4213  2.4679
  164SAPE   C3518494   1.152   1.904   5.938 -0.4053  0.1030  0.0501
  164SAPE   H5X18495   1.060   1.937   5.886 -0.0327 -1.8528 -2.0003
  164SAPE   H5Y18496   1.116   1.820   6.001  0.5005 -1.8127 -1.8498
  164SAPE   C3618497   1.240   1.852   5.817 -0.0183 -0.9933 -0.0770
  164SAPE   H6X18498   1.331   1.801   5.855  0.5193 -0.8817 -1.1898
  164SAPE   H6Y18499   1.270   1.941   5.758 -2.8566 -0.1738 -0.4284
  164SAPE   C3718500   1.156   1.751   5.738  0.7870 -0.2485  0.1190
  164SAPE   H7X18501   1.061   1.805   5.714  0.2630 -1.1224  0.2070
  164SAPE   H7Y18502   1.130   1.656   5.789  0.1592  0.3615  0.9608
  164SAPE   C3818503   1.226   1.710   5.608  0.9449 -0.2207  0.0694
  164SAPE   H8X18504   1.303   1.631   5.620  2.6960  1.3882 -0.2303
  164SAPE   H8Y18505   1.281   1.795   5.563  1.5540 -0.3275  0.6059
  164SAPE   C3918506   1.130   1.668   5.484 -0.2266  0.8197 -0.0593
  164SAPE   H9X18507   1.044   1.737   5.476 -0.0495  1.4054  2.3821
  164SAPE   H9Y18508   1.094   1.564   5.494  2.2059 -0.1449 -0.5299
  164SAPE  C31018509   1.207   1.669   5.350 -0.0386 -0.0253 -0.3753
  164SAPE  H10X18510   1.281   1.586   5.352  0.3414  0.2999 -0.7343
  164SAPE  H10Y18511   1.259   1.767   5.346 -0.7576  0.3361 -1.0631
  164SAPE  C31118512   1.122   1.657   5.219  0.7856 -0.2936  0.3565
  164SAPE  H11X18513   1.046   1.737   5.210 -0.7789 -1.5214  1.9599
  164SAPE  H11Y18514   1.069   1.559   5.223  1.0509 -0.4264  0.7009
  164SAPE  C31218515   1.209   1.649   5.095  0.2446 -0.0977  0.7449
  164SAPE  H12X18516   1.289   1.726   5.099 -0.3285  0.6631 -1.0919
  164SAPE  H12Y18517   1.153   1.672   5.002  1.2262 -2.0399 -0.3939
  164SAPE  C31318518   1.287   1.521   5.064  0.2457 -0.0495  0.2959
  164SAPE  H13X18519   1.216   1.438   5.083  1.0051 -0.8193 -0.1194
  164SAPE  H13Y18520   1.359   1.493   5.144 -0.6629  1.7718  1.8060
  164SAPE  C31418521   1.342   1.491   4.924 -0.5582 -0.2385  0.5358
  164SAPE  H14X18522   1.381   1.387   4.916  2.0728  0.7417 -0.4157
  164SAPE  H14Y18523   1.431   1.547   4.891 -0.4621 -0.3976  0.5241
  164SAPE  C31518524   1.247   1.517   4.808 -0.9434 -0.4043  0.0435
  164SAPE  H15X18525   1.239   1.625   4.783  0.4656  0.0364  1.4008
  164SAPE  H15Y18526   1.143   1.480   4.823 -1.1219  0.2038  0.3248
  164SAPE  C31618527   1.293   1.445   4.681 -0.1039  0.4591  0.3042
  164SAPE  H16X18528   1.395   1.463   4.640 -0.0431 -1.7723 -0.7059
  164SAPE  H16Y18529   1.212   1.464   4.607 -0.8788  1.4757  1.3844
  164SAPE  C31718530   1.304   1.289   4.680  0.2987 -0.2696  0.7025
  164SAPE  H17X18531   1.397   1.258   4.733  1.2872  0.7491 -0.3551
  164SAPE  H17Y18532   1.332   1.265   4.575  2.1821  0.4163  0.9989
  164SAPE  C31818533   1.178   1.215   4.735 -0.3882  0.4457  0.0824
  164SAPE  H18X18534   1.170   1.105   4.717 -1.3829  0.6123 -0.5703
  164SAPE  H18Y18535   1.085   1.252   4.687 -0.6942 -0.6740 -0.2375
  164SAPE  H18Z18536   1.170   1.241   4.843  0.3054 -1.4120  0.6244
  165SAPE     N18537   5.763   3.440   6.595 -0.4424 -0.2906 -0.0278
  165SAPE   HN118538   5.757   3.350   6.542 -1.4201  0.0422 -0.5192
  165SAPE   HN218539   5.735   3.426   6.694  0.1150 -0.5593  0.0962
  165SAPE   HN318540   5.703   3.514   6.553  0.4479  0.1549 -0.5478
  165SAPE   C1218541   5.910   3.466   6.589 -0.0489  0.0028  0.3162
  165SAPE  H12A18542   5.932   3.571   6.615 -1.2666  0.3044  0.2154
  165SAPE  H12B18543   5.937   3.454   6.482 -2.4823  3.2266 -0.8342
  165SAPE   C1118544   5.989   3.369   6.681  0.8726 -0.3789 -0.3647
  165SAPE  H11A18545   5.947   3.366   6.784 -1.1741 -2.4416 -1.1544
  165SAPE  H11B18546   6.091   3.412   6.692  0.8703 -0.4108 -0.2243
  165SAPE     P18547   6.097   3.136   6.672 -0.2903 -0.5436  0.1947
  165SAPE   O1318548   6.193   3.207   6.763  0.2064  0.0745 -0.0390
  165SAPE   O1418549   6.034   3.016   6.730  0.2986 -0.1959  0.0102
  165SAPE   O1218550   5.989   3.238   6.616  0.3376 -0.2677 -0.5797
  165SAPE   O1118551   6.183   3.086   6.543  0.2127 -0.1721  0.1017
  165SAPE    C118552   6.129   2.976   6.461 -0.5726  0.2304 -0.3442
  165SAPE    HA18553   6.025   2.950   6.488 -0.6634 -0.5766 -1.4006
  165SAPE    HB18554   6.127   3.008   6.355 -0.4972  0.4179 -0.2898
  165SAPE    C218555   6.214   2.845   6.473  0.0218 -0.3369  0.2117
  165SAPE    HS18556   6.222   2.841   6.583  1.1193  1.9897  0.2718
  165SAPE   O2118557   6.340   2.854   6.413 -0.4597 -0.4004  0.7799
  165SAPE   C2118558   6.434   2.785   6.479  0.3698  0.2208 -0.2211
  165SAPE   O2218559   6.412   2.713   6.576  0.6009  0.2200 -0.4149
  165SAPE   C2218560   6.571   2.812   6.414 -0.4980  0.1888  0.5635
  165SAPE   H2R18561   6.580   2.921   6.395  0.5254  0.4902  2.5108
  165SAPE   H2S18562   6.641   2.796   6.499 -1.2996  1.6204  1.5509
  165SAPE    C318563   6.146   2.717   6.417  0.1011  0.2822  0.2978
  165SAPE    HX18564   6.058   2.697   6.482  1.7985  0.0735  2.6958
  165SAPE    HY18565   6.207   2.624   6.427 -0.5820 -0.3370 -0.9741
  165SAPE   O3118566   6.106   2.743   6.282 -0.1226 -0.1240 -0.5659
  165SAPE   C3118567   6.134   2.655   6.197  0.5737  0.3537 -0.7045
  165SAPE   O3218568   6.179   2.543   6.219  0.6664 -0.7680 -0.8459
  165SAPE   C3218569   6.100   2.721   6.060 -0.2955  0.1566  0.1758
  165SAPE   H2X18570   6.001   2.770   6.065  0.8138  2.4496  2.5435
  165SAPE   H2Y18571   6.096   2.640   5.985  1.3545 -0.2307  0.4574
  165SAPE   C2318572   6.618   2.714   6.306  0.2588  0.0470  0.2840
  165SAPE   H3R18573   6.581   2.610   6.317  1.2693 -0.4118 -0.4464
  165SAPE   H3S18574   6.729   2.711   6.303  0.2645 -1.0506  1.1813
  165SAPE   C2418575   6.580   2.781   6.178  0.5694  0.1079  0.7610
  165SAPE   H4R18576   6.638   2.868   6.140 -0.6609 -0.3531 -2.5110
  165SAPE   H4S18577   6.471   2.807   6.178  0.5192  0.0341 -0.7487
  165SAPE   C2518578   6.584   2.677   6.068  0.4187  0.9148 -0.1576
  165SAPE   H5R18579   6.514   2.592   6.076  1.6298 -0.0998 -0.0248
  165SAPE   C2618580   6.648   2.673   5.943  0.0821 -0.7466 -0.6713
  165SAPE   H6R18581   6.646   2.579   5.886  1.7633 -1.0054 -0.3524
  165SAPE   C2718582   6.742   2.774   5.882 -0.1574 -0.4866 -0.2564
  165SAPE   H7R18583   6.824   2.704   5.856 -0.6867 -0.6332 -1.6164
  165SAPE   H7S18584   6.783   2.849   5.953  0.2500 -2.6776  1.9605
  165SAPE   C2818585   6.697   2.848   5.755 -0.9311 -0.4456 -0.4595
  165SAPE   H8R18586   6.675   2.954   5.770 -0.3634 -0.4994  0.9284
  165SAPE   C2918587   6.688   2.799   5.626  0.2312 -0.2000 -0.0690
  165SAPE   H9R18588   6.635   2.870   5.561  1.5608  1.8330  0.9158
  165SAPE  C21018589   6.731   2.670   5.562  0.3304  0.1193  0.5278
  165SAPE  H10R18590   6.642   2.623   5.515 -0.1554  1.7039 -0.2010
  165SAPE  H10S18591   6.770   2.610   5.647 -2.1805  1.3397  2.7144
  165SAPE  C21118592   6.839   2.687   5.462  0.0775  0.7505 -0.1679
  165SAPE  H11R18593   6.943   2.696   5.499  0.7049 -0.0820 -1.6566
  165SAPE  C21218594   6.835   2.670   5.331 -0.0354 -0.0899 -0.2293
  165SAPE  H12R18595   6.925   2.709   5.281 -0.4754  1.1964 -0.0606
  165SAPE  C21318596   6.720   2.645   5.244 -1.0706  0.3220  0.4357
  165SAPE  H13R18597   6.698   2.749   5.213  0.2225  0.0182 -1.7318
  165SAPE  H13S18598   6.639   2.600   5.306  0.0807 -4.0242 -0.8654
  165SAPE  C21418599   6.772   2.559   5.123 -0.0773 -0.7354 -0.4215
  165SAPE  H14R18600   6.727   2.459   5.122 -1.8322  0.0094 -0.0044
  165SAPE  C21518601   6.842   2.606   5.021  0.3694 -0.0848 -0.5172
  165SAPE  H15R18602   6.864   2.526   4.948  0.4947 -0.3010 -0.2462
  165SAPE  C21618603   6.899   2.745   4.995  0.2440 -0.6308 -0.5696
  165SAPE  H16R18604   7.008   2.741   4.973  0.7413 -1.3553  1.7511
  165SAPE  H16S18605   6.875   2.829   5.063  0.2521  2.0164 -3.6063
  165SAPE  C21718606   6.835   2.794   4.865 -1.0095  0.0587  0.2106
  165SAPE  H17R18607   6.882   2.893   4.846  0.9156 -0.5163  1.6421
  165SAPE  H17S18608   6.727   2.819   4.876 -1.4371 -1.0237 -1.2758
  165SAPE  C21818609   6.833   2.699   4.744 -0.7086  0.1087  0.0601
  165SAPE  H18R18610   6.730   2.661   4.731 -1.1613  1.3231 -0.0525
  165SAPE  H18S18611   6.917   2.626   4.752 -1.1721 -0.3729  0.5876
  165SAPE  C21918612   6.852   2.763   4.605 -1.1726  0.3811  0.0134
  165SAPE  H19R18613   6.876   2.687   4.527  1.5178  0.2056  0.8981
  165SAPE  H19S18614   6.943   2.825   4.615 -1.3083  0.6412 -0.3721
  165SAPE  C22018615   6.741   2.851   4.567  0.1950  0.2068 -0.0266
  165SAPE  H20R18616   6.756   2.896   4.467 -1.2378  1.6690  0.3681
  165SAPE  H20S18617   6.709   2.917   4.651 -1.8227 -1.4511  0.5932
  165SAPE  H20T18618   6.649   2.792   4.549 -0.5922  2.0903 -2.8595
  165SAPE   C3318619   6.213   2.822   6.013  0.0758 -0.1494 -0.6047
  165SAPE   H3X18620   6.317   2.788   6.030  0.5063  0.5759 -1.6819
  165SAPE   H3Y18621   6.201   2.907   6.084 -0.6874 -0.5684 -0.2237
  165SAPE   C3418622   6.208   2.876   5.868 -0.0285  0.5101 -0.3186
  165SAPE   H4X18623   6.285   2.950   5.839 -2.2052  2.6053 -1.1298
  165SAPE   H4Y18624   6.111   2.929   5.856  0.4143  1.6456  0.7417
  165SAPE   C3518625   6.214   2.764   5.767 -0.0220 -0.4242 -0.1609
  165SAPE   H5X18626   6.117   2.709   5.763 -0.3446 -0.0498  1.6522
  165SAPE   H5Y18627   6.285   2.684   5.797  1.3714  0.7361 -0.2428
  165SAPE   C3618628   6.242   2.819   5.628  0.3188 -0.0401  0.3557
  165SAPE   H6X18629   6.342   2.866   5.626 -0.3702  1.5213 -1.5999
  165SAPE   H6Y18630   6.163   2.887   5.588  2.1136  2.2308  0.4409
  165SAPE   C3718631   6.263   2.705   5.527  0.4158 -0.2895 -0.3220
  165SAPE   H7X18632   6.169   2.647   5.538 -0.8787  1.9738  1.4973
  165SAPE   H7Y18633   6.354   2.645   5.550  0.2144 -0.9097 -1.0923
  165SAPE   C3818634   6.277   2.771   5.399 -0.3186  0.0656 -0.1603
  165SAPE   H8X18635   6.379   2.816   5.397  1.1125 -2.9313  0.2238
  165SAPE   H8Y18636   6.196   2.847   5.389  0.7259  1.4139  1.1813
  165SAPE   C3918637   6.277   2.688   5.271 -0.3481  0.1270  0.1131
  165SAPE   H9X18638   6.171   2.654   5.271 -0.9720  1.8346 -2.3990
  165SAPE   H9Y18639   6.345   2.600   5.270  1.3848  1.4311  0.6725
  165SAPE  C31018640   6.286   2.771   5.144 -0.3641 -0.1288  0.7112
  165SAPE  H10X18641   6.387   2.813   5.127 -0.5891 -0.1683 -0.8774
  165SAPE  H10Y18642   6.219   2.860   5.149 -0.1591  0.0858 -0.1647
  165SAPE  C31118643   6.256   2.690   5.014 -0.5451 -0.5535  0.1794
  165SAPE  H11X18644   6.164   2.633   5.038 -0.1570 -2.5949 -2.6924
  165SAPE  H11Y18645   6.339   2.618   4.996  2.3696  2.8670 -1.3738
  165SAPE  C31218646   6.222   2.777   4.891 -0.5394  1.0237 -0.4317
  165SAPE  H12X18647   6.318   2.832   4.875  0.7140  0.1654  3.1545
  165SAPE  H12Y18648   6.145   2.847   4.931 -1.1360  0.1132  0.0366
  165SAPE  C31318649   6.167   2.699   4.771  0.2040 -0.1524 -0.8534
  165SAPE  H13X18650   6.087   2.625   4.796  1.4334 -1.5677 -0.9249
  165SAPE  H13Y18651   6.238   2.630   4.722 -0.7172 -1.2130 -0.7413
  165SAPE  C31418652   6.116   2.790   4.661 -0.3773 -0.5785  0.6907
  165SAPE  H14X18653   6.092   2.716   4.581  0.9775 -1.6902  1.2611
  165SAPE  H14Y18654   6.204   2.850   4.629  0.2363 -1.7087  0.1924
  165SAPE  C31518655   6.006   2.895   4.697 -0.8664 -0.1608  0.3357
  165SAPE  H15X18656   5.976   2.953   4.606  0.6931 -1.2200 -0.9088
  165SAPE  H15Y18657   6.054   2.968   4.765  0.4246 -0.5560 -0.1223
  165SAPE  C31618658   5.881   2.829   4.750 -0.0175 -0.9177  0.2693
  165SAPE  H16X18659   5.915   2.762   4.832 -0.4072 -1.2356  0.1802
  165SAPE  H16Y18660   5.836   2.769   4.668  0.1246 -0.5891 -0.0475
  165SAPE  C31718661   5.772   2.925   4.803  0.5339  0.7142  0.8069
  165SAPE  H17X18662   5.812   2.970   4.897  2.8545 -2.0048  1.2920
  165SAPE  H17Y18663   5.687   2.861   4.833  0.3413  1.9168  3.0567
  165SAPE  C31818664   5.731   3.040   4.716  0.0130  0.4144  0.4872
  165SAPE  H18X18665   5.666   3.103   4.779 -0.2790 -1.4079  2.1094
  165SAPE  H18Y18666   5.663   3.006   4.635  0.3966  1.8903 -0.5021
  165SAPE  H18Z18667   5.814   3.099   4.671  0.6630 -0.2783  0.7424
  166SAPE     N18668   2.901   0.960   6.861 -0.2961 -0.4253  0.4618
  166SAPE   HN118669   2.858   0.882   6.915 -2.0131 -0.1133 -0.3625
  166SAPE   HN218670   2.822   1.020   6.828 -2.4107 -3.2881 -0.1118
  166SAPE   HN318671   2.937   0.914   6.776  0.4222  1.1972 -0.1568
  166SAPE   C1218672   3.005   1.026   6.943 -0.2697  0.4241  0.2997
  166SAPE  H12A18673   3.058   0.940   6.990 -2.8040 -0.9710  0.7688
  166SAPE  H12B18674   2.951   1.090   7.016  2.4580  1.1012  1.8982
  166SAPE   C1118675   3.089   1.126   6.856  0.0634  0.3328  0.5226
  166SAPE  H11A18676   3.143   1.194   6.925  1.1869  1.9315 -1.7876
  166SAPE  H11B18677   3.005   1.175   6.801 -0.1549 -0.4967  0.1100
  166SAPE     P18678   3.321   1.024   6.785 -0.0776 -0.1680  0.1421
  166SAPE   O1318679   3.381   1.112   6.887 -0.1447  0.7702  1.0945
  166SAPE   O1418680   3.316   0.881   6.821  0.0552 -0.3882  0.5365
  166SAPE   O1218681   3.174   1.068   6.761 -0.1849 -0.1713  0.0675
  166SAPE   O1118682   3.396   1.050   6.640  0.4242  0.3527 -0.4690
  166SAPE    C118683   3.343   1.069   6.510  0.3747 -0.1341  0.1773
  166SAPE    HA18684   3.294   1.169   6.507 -1.1125 -0.8236  0.5416
  166SAPE    HB18685   3.432   1.086   6.446 -0.0143 -0.0226 -0.3396
  166SAPE    C218686   3.255   0.956   6.454 -0.5548  0.1290 -0.1520
  166SAPE    HS18687   3.169   0.947   6.524 -1.5140  2.4615 -0.9427
  166SAPE   O2118688   3.335   0.841   6.445  0.1748  0.2632 -0.1629
  166SAPE   C2118689   3.272   0.724   6.424 -0.0836 -0.1274  0.1209
  166SAPE   O2218690   3.155   0.706   6.448 -0.1601 -0.2441 -0.0423
  166SAPE   C2218691   3.369   0.619   6.362  0.2232 -0.6692  0.2080
  166SAPE   H2R18692   3.475   0.651   6.364  0.4665 -1.5000  0.9148
  166SAPE   H2S18693   3.354   0.523   6.416  2.1481 -1.2330 -0.1994
  166SAPE    C318694   3.194   0.998   6.315 -1.0225 -0.3457  1.2922
  166SAPE    HX18695   3.272   1.041   6.248 -0.2208 -0.0175  2.4041
  166SAPE    HY18696   3.121   1.081   6.331 -2.0185 -0.1872 -2.9003
  166SAPE   O3118697   3.139   0.885   6.247  0.0481 -0.3100 -0.2428
  166SAPE   C3118698   3.012   0.852   6.265 -0.1527 -0.3105 -0.1493
  166SAPE   O3218699   2.946   0.905   6.348  0.5200 -0.5149  0.0076
  166SAPE   C3218700   2.961   0.744   6.171 -0.0564  0.0698 -0.1959
  166SAPE   H2X18701   2.851   0.737   6.160 -0.0354 -1.8420  0.3948
  166SAPE   H2Y18702   2.990   0.656   6.232 -0.2236  0.1399 -0.0130
  166SAPE   C2318703   3.341   0.595   6.217 -0.0773 -0.1447  0.0705
  166SAPE   H3R18704   3.357   0.690   6.161 -1.5574 -0.1522 -0.4039
  166SAPE   H3S18705   3.234   0.571   6.202  0.1840 -0.3668 -1.6482
  166SAPE   C2418706   3.432   0.480   6.160 -0.2051  0.2849 -1.3382
  166SAPE   H4R18707   3.396   0.382   6.198 -0.8331  1.5528  1.6209
  166SAPE   H4S18708   3.531   0.497   6.208 -1.0717 -1.9063  1.4339
  166SAPE   C2518709   3.448   0.487   6.006  0.3229 -0.2567  0.7197
  166SAPE   H5R18710   3.363   0.455   5.944  1.2527  0.5081 -1.0062
  166SAPE   C2618711   3.546   0.545   5.936 -0.6634  0.2485 -0.1962
  166SAPE   H6R18712   3.555   0.539   5.827 -2.6162 -0.8301 -0.3365
  166SAPE   C2718713   3.678   0.601   5.993 -0.3248 -0.0479 -0.0915
  166SAPE   H7R18714   3.661   0.668   6.079 -0.2249 -0.2558  0.0911
  166SAPE   H7S18715   3.728   0.666   5.918  1.1438 -2.5625 -1.4255
  166SAPE   C2818716   3.783   0.490   6.014  0.0239 -0.3075  1.2340
  166SAPE   H8R18717   3.779   0.433   6.108  1.5640 -1.9768  0.3615
  166SAPE   C2918718   3.896   0.461   5.936  0.3125 -0.2917 -0.5236
  166SAPE   H9R18719   3.965   0.382   5.969 -1.4426 -1.1277  1.3625
  166SAPE  C21018720   3.934   0.531   5.808  0.2436 -0.0875  0.6495
  166SAPE  H10R18721   3.974   0.632   5.831 -1.2962  1.1257 -1.5665
  166SAPE  H10S18722   3.842   0.550   5.748  0.0831  0.6589  1.1263
  166SAPE  C21118723   4.034   0.455   5.737 -1.0480 -0.0579 -0.2995
  166SAPE  H11R18724   4.113   0.432   5.810 -1.0914 -1.0145 -0.5338
  166SAPE  C21218725   4.046   0.415   5.607  0.2617  0.0297  0.3654
  166SAPE  H12R18726   4.123   0.341   5.578 -0.6659 -0.6271 -0.5366
  166SAPE  C21318727   3.941   0.430   5.502  0.0980 -0.5308 -0.0271
  166SAPE  H13R18728   3.864   0.505   5.532  0.8012  0.2480 -0.1270
  166SAPE  H13S18729   3.883   0.337   5.484 -0.2904 -0.3341  0.1986
  166SAPE  C21418730   3.997   0.467   5.354  0.8064 -0.6958 -0.0573
  166SAPE  H14R18731   4.107   0.464   5.348  0.8037 -1.3606  0.1370
  166SAPE  C21518732   3.916   0.505   5.253  0.6241 -0.5337  0.2146
  166SAPE  H15R18733   3.959   0.519   5.153  0.7187 -0.0270  0.3252
  166SAPE  C21618734   3.770   0.504   5.251 -0.1177  0.6060  0.4055
  166SAPE  H16R18735   3.724   0.604   5.265 -3.2205 -0.7229  0.6336
  166SAPE  H16S18736   3.722   0.448   5.334 -0.4685 -0.3026 -0.3838
  166SAPE  C21718737   3.710   0.446   5.123 -0.1067 -0.0006 -0.5499
  166SAPE  H17R18738   3.601   0.430   5.127 -0.5452  2.1639 -1.8704
  166SAPE  H17S18739   3.757   0.347   5.107 -1.4249 -0.9478  1.1678
  166SAPE  C21818740   3.729   0.535   4.998 -0.2867 -0.2185 -0.5745
  166SAPE  H18R18741   3.831   0.509   4.964 -0.5365 -1.9841 -0.0706
  166SAPE  H18S18742   3.730   0.641   5.032  0.5645 -0.6214  0.6985
  166SAPE  C21918743   3.629   0.521   4.880  0.4654 -0.1116  0.5246
  166SAPE  H19R18744   3.679   0.585   4.804  2.1497  0.3918  1.9930
  166SAPE  H19S18745   3.528   0.553   4.914 -0.2840 -3.4618  1.7615
  166SAPE  C22018746   3.631   0.379   4.828 -0.1050  0.7303 -0.0306
  166SAPE  H20R18747   3.552   0.374   4.750 -0.5486 -1.0204  0.4737
  166SAPE  H20S18748   3.601   0.298   4.899 -0.8236 -0.0981 -1.2408
  166SAPE  H20T18749   3.733   0.347   4.797 -1.0093 -3.0003  0.3273
  166SAPE   C3318750   3.029   0.721   6.040  0.0057  0.2217 -0.5087
  166SAPE   H3X18751   3.137   0.701   6.053 -0.2610 -2.7930 -1.9570
  166SAPE   H3Y18752   3.021   0.795   5.957  1.8593  0.6461 -0.3541
  166SAPE   C3418753   2.984   0.590   5.969 -0.2611  0.2294  0.1938
  166SAPE   H4X18754   2.874   0.575   5.957 -0.1150 -0.1582 -0.8448
  166SAPE   H4Y18755   3.020   0.507   6.034  0.7010 -1.2634 -2.1034
  166SAPE   C3518756   3.054   0.571   5.825  0.2161  0.2574 -0.7193
  166SAPE   H5X18757   3.063   0.463   5.803 -1.3207  0.1009 -0.6665
  166SAPE   H5Y18758   3.158   0.611   5.831  0.9281 -1.6050  0.0728
  166SAPE   C3618759   2.989   0.653   5.708 -0.1423  0.2241 -0.6237
  166SAPE   H6X18760   3.016   0.758   5.731 -0.9501  0.5640 -1.2028
  166SAPE   H6Y18761   2.881   0.631   5.699 -0.1683  0.6991 -1.6046
  166SAPE   C3718762   3.065   0.622   5.576 -0.1301 -0.2469 -0.2407
  166SAPE   H7X18763   3.085   0.513   5.562 -1.9720 -0.8158  1.1796
  166SAPE   H7Y18764   3.163   0.674   5.578  0.3422 -1.1120 -0.2372
  166SAPE   C3818765   2.986   0.655   5.447  0.3735 -0.0251 -0.1942
  166SAPE   H8X18766   2.988   0.766   5.443  1.8525 -0.0396 -0.4521
  166SAPE   H8Y18767   2.883   0.621   5.472  1.3791 -4.8001 -1.5121
  166SAPE   C3918768   3.046   0.589   5.327  0.1957  0.0465  0.3026
  166SAPE   H9X18769   3.022   0.481   5.332  1.8971 -0.3559  0.4672
  166SAPE   H9Y18770   3.156   0.601   5.322  0.1099  0.9663  0.4638
  166SAPE  C31018771   2.987   0.648   5.196  0.3285  0.1957  0.2120
  166SAPE  H10X18772   3.008   0.757   5.202 -0.1992  0.3454 -0.4865
  166SAPE  H10Y18773   2.877   0.640   5.191  0.3415  0.2445 -0.1977
  166SAPE  C31118774   3.054   0.588   5.073 -0.5283  0.8095 -0.3856
  166SAPE  H11X18775   3.005   0.490   5.051  1.4962 -0.7267  1.4859
  166SAPE  H11Y18776   3.163   0.582   5.094  0.0268 -1.5039 -3.1687
  166SAPE  C31218777   3.036   0.673   4.951  0.9283  0.4837  0.3167
  166SAPE  H12X18778   3.067   0.777   4.976 -1.9750  1.1159  1.7839
  166SAPE  H12Y18779   2.931   0.676   4.914  1.0783  0.6591 -0.1016
  166SAPE  C31318780   3.104   0.623   4.821  0.3562 -0.0019  0.6302
  166SAPE  H13X18781   3.215   0.627   4.832  0.3116 -0.6113  1.3160
  166SAPE  H13Y18782   3.074   0.695   4.742 -1.4301  0.0624  1.3341
  166SAPE  C31418783   3.080   0.479   4.783 -0.3299 -0.2020 -0.3090
  166SAPE  H14X18784   2.971   0.465   4.764 -0.3362 -0.6842  0.0467
  166SAPE  H14Y18785   3.101   0.411   4.869 -0.3557  3.1437  2.5405
  166SAPE  C31518786   3.147   0.424   4.657  1.1497 -0.2270 -0.0148
  166SAPE  H15X18787   3.109   0.492   4.578 -0.6983  3.4512  3.6641
  166SAPE  H15Y18788   3.105   0.321   4.649 -0.5091  0.1789  2.2923
  166SAPE  C31618789   3.296   0.416   4.662 -0.3518 -0.5376  0.5817
  166SAPE  H16X18790   3.317   0.361   4.757  0.1742 -0.7780  0.3306
  166SAPE  H16Y18791   3.334   0.520   4.672  0.3365 -0.5998 -1.0764
  166SAPE  C31718792   3.375   0.348   4.548  0.7720  0.6408 -0.7646
  166SAPE  H17X18793   3.338   0.243   4.543 -0.1571  0.7416  2.2641
  166SAPE  H17Y18794   3.484   0.332   4.557  0.5160 -0.4773  0.6889
  166SAPE  C31818795   3.345   0.417   4.412 -0.8539 -0.7975 -0.8974
  166SAPE  H18X18796   3.240   0.402   4.379 -1.3259  0.9182 -0.2253
  166SAPE  H18Y18797   3.410   0.370   4.334 -0.0166 -2.4482  0.7051
  166SAPE  H18Z18798   3.368   0.525   4.418  1.2006 -1.1522 -1.3832
  167SAPE     N18799   5.864   1.674   6.991  0.1315  0.2648 -0.5924
  167SAPE   HN118800   5.913   1.593   6.948 -0.1242 -0.2769  0.1176
  167SAPE   HN218801   5.926   1.758   6.995 -0.9839  1.0831  0.5124
  167SAPE   HN318802   5.838   1.639   7.086  0.8516  2.3716  0.4500
  167SAPE   C1218803   5.732   1.704   6.918 -0.1427 -0.2531 -0.3687
  167SAPE  H12A18804   5.676   1.780   6.978  1.2734  1.8173 -1.5449
  167SAPE  H12B18805   5.676   1.609   6.913  2.3287 -1.9313  1.3802
  167SAPE   C1118806   5.766   1.757   6.780  0.1048 -0.2693  0.4120
  167SAPE  H11A18807   5.680   1.757   6.709  2.1150  0.0784 -2.1931
  167SAPE  H11B18808   5.841   1.691   6.730  0.8477 -1.1248  2.5480
  167SAPE     P18809   5.952   1.939   6.793 -0.0970  0.1244 -0.2137
  167SAPE   O1318810   5.963   2.087   6.782  0.4019 -0.0791 -0.1457
  167SAPE   O1418811   6.008   1.877   6.918 -0.1915 -0.6439  0.1840
  167SAPE   O1218812   5.804   1.894   6.787  0.4750 -0.0535  0.3722
  167SAPE   O1118813   6.020   1.873   6.673 -0.5396 -0.0266  0.1689
  167SAPE    C118814   6.018   1.936   6.537  0.5500 -0.2824  0.6114
  167SAPE    HA18815   5.920   1.985   6.518 -0.3458 -1.2751  2.4097
  167SAPE    HB18816   6.099   2.011   6.543  1.8939 -1.6311  0.0496
  167SAPE    C218817   6.054   1.844   6.410  0.2039  0.4390  0.4466
  167SAPE    HS18818   6.164   1.830   6.418  0.5815  2.2552 -0.9324
  167SAPE   O2118819   6.019   1.913   6.284  0.0533 -0.0172  0.0681
  167SAPE   C2118820   6.125   1.968   6.229  0.3080 -0.2143  0.5534
  167SAPE   O2218821   6.236   1.971   6.276 -0.0443  0.5653  0.1284
  167SAPE   C2218822   6.092   2.015   6.088  0.6740  0.0869  0.2409
  167SAPE   H2R18823   6.008   2.086   6.100  0.5115 -0.2160  0.8686
  167SAPE   H2S18824   6.181   2.069   6.048  0.4480 -1.1871 -2.1914
  167SAPE    C318825   5.977   1.704   6.424 -0.4081  0.0249 -0.4131
  167SAPE    HX18826   5.868   1.727   6.426 -0.2459  0.9977 -1.6663
  167SAPE    HY18827   5.997   1.663   6.525  0.7612  0.9178 -0.2529
  167SAPE   O3118828   6.009   1.603   6.330 -0.1122 -0.0176  1.0985
  167SAPE   C3118829   5.936   1.599   6.215  0.4409  0.3333 -0.3354
  167SAPE   O3218830   5.844   1.669   6.183 -0.2189 -0.1835  0.2883
  167SAPE   C3218831   6.013   1.505   6.123  0.1030  0.0102 -0.3873
  167SAPE   H2X18832   6.097   1.445   6.164 -1.3490 -1.2374  0.9415
  167SAPE   H2Y18833   6.052   1.575   6.046  1.3880 -1.0741 -0.7580
  167SAPE   C2318834   6.048   1.905   5.991 -0.4502  0.7385 -0.2276
  167SAPE   H3R18835   5.991   1.821   6.037 -0.5622  0.3088 -1.1464
  167SAPE   H3S18836   6.142   1.862   5.951  1.0188  1.5906  2.0803
  167SAPE   C2418837   5.967   1.959   5.880  0.4400 -0.5714 -0.2530
  167SAPE   H4R18838   6.023   2.032   5.818  1.1295 -2.0571 -1.4460
  167SAPE   H4S18839   5.875   2.009   5.918 -0.7350 -2.2272 -0.8118
  167SAPE   C2518840   5.923   1.847   5.784  0.1979  0.2378  0.0873
  167SAPE   H5R18841   5.817   1.816   5.781 -0.3224  1.9711 -0.6729
  167SAPE   C2618842   5.999   1.803   5.690 -0.2951  0.6894 -0.3436
  167SAPE   H6R18843   5.950   1.745   5.610 -1.8847  1.2074  0.2055
  167SAPE   C2718844   6.147   1.839   5.666  0.0515  0.0379 -0.4664
  167SAPE   H7R18845   6.207   1.771   5.731  2.2722  2.8017  0.5627
  167SAPE   H7S18846   6.179   1.941   5.694  2.4037 -1.2696  2.1544
  167SAPE   C2818847   6.195   1.802   5.531 -0.4282  0.1574  0.6861
  167SAPE   H8R18848   6.246   1.705   5.527  0.0263  0.4431 -2.2169
  167SAPE   C2918849   6.190   1.877   5.425 -0.1268 -0.5348  0.3356
  167SAPE   H9R18850   6.237   1.830   5.337  1.4760  0.8772  0.3862
  167SAPE  C21018851   6.127   2.006   5.396 -0.1286 -0.7729  0.3073
  167SAPE  H10R18852   6.124   2.071   5.487 -0.0145 -1.3591  0.7385
  167SAPE  H10S18853   6.017   1.990   5.384 -0.7373  2.0566  1.3340
  167SAPE  C21118854   6.202   2.070   5.280 -0.1371  0.6021 -0.1157
  167SAPE  H11R18855   6.269   2.155   5.302 -2.1255  1.8522  1.3665
  167SAPE  C21218856   6.177   2.048   5.149  0.0298 -0.2045  0.3933
  167SAPE  H12R18857   6.241   2.110   5.086  0.2442 -0.1355  0.6755
  167SAPE  C21318858   6.071   1.959   5.087 -0.9160  0.3012  0.3203
  167SAPE  H13R18859   6.059   1.877   5.161  3.1336  0.7894  1.7347
  167SAPE  H13S18860   6.098   1.906   4.993 -0.4407  1.1160 -0.0105
  167SAPE  C21418861   5.945   2.029   5.071 -0.8223  0.0974 -0.2984
  167SAPE  H14R18862   5.910   2.091   5.155  1.3696  1.8765 -0.6021
  167SAPE  C21518863   5.859   2.013   4.968  0.0709 -0.1984 -0.1489
  167SAPE  H15R18864   5.768   2.075   4.971  2.1531  3.0669  0.6320
  167SAPE  C21618865   5.881   1.929   4.841 -0.1704 -0.8363  0.5746
  167SAPE  H16R18866   5.798   1.857   4.823 -0.9090  0.6935 -2.9191
  167SAPE  H16S18867   5.965   1.856   4.855 -0.7087 -1.9228 -1.5067
  167SAPE  C21718868   5.883   2.013   4.706 -0.2183  0.1354 -0.2977
  167SAPE  H17R18869   5.975   2.075   4.696 -1.2747  1.5310 -1.8326
  167SAPE  H17S18870   5.795   2.080   4.708 -1.0679 -0.9633  1.4219
  167SAPE  C21818871   5.880   1.925   4.578 -0.0071 -0.5592 -0.1456
  167SAPE  H18R18872   5.874   2.002   4.498 -1.0971 -0.4229  0.0445
  167SAPE  H18S18873   5.785   1.867   4.569 -0.1642 -0.5305  1.2112
  167SAPE  C21918874   5.992   1.831   4.555 -0.0956 -0.2627 -0.3850
  167SAPE  H19R18875   5.976   1.770   4.464 -3.2583 -0.1541 -0.0058
  167SAPE  H19S18876   5.993   1.755   4.636  0.2822 -0.6130 -0.7132
  167SAPE  C22018877   6.130   1.892   4.542  0.0990  0.3773  0.4712
  167SAPE  H20R18878   6.157   1.952   4.631  0.4234 -0.6527  1.0782
  167SAPE  H20S18879   6.135   1.958   4.452  0.6558 -0.5505 -0.1899
  167SAPE  H20T18880   6.196   1.803   4.535  0.7252  0.9745 -3.0343
  167SAPE   C3318881   5.910   1.414   6.059  0.2650  0.4291 -0.0726
  167SAPE   H3X18882   5.807   1.436   6.092  0.3610  1.3014 -0.3220
  167SAPE   H3Y18883   5.939   1.315   6.100  3.4317  1.4275  0.3688
  167SAPE   C3418884   5.916   1.428   5.906 -0.3660  0.1132  0.2675
  167SAPE   H4X18885   6.020   1.416   5.869  0.0690  0.9240  1.1751
  167SAPE   H4Y18886   5.887   1.533   5.888 -1.4737 -0.3217 -0.5887
  167SAPE   C3518887   5.822   1.331   5.819  0.6461 -1.0727  0.1970
  167SAPE   H5X18888   5.712   1.343   5.833  0.7124 -0.7687  0.4691
  167SAPE   H5Y18889   5.850   1.231   5.860  0.5559 -1.8134 -1.4750
  167SAPE   C3618890   5.851   1.336   5.667  0.9224  0.0307  0.0967
  167SAPE   H6X18891   5.770   1.283   5.611 -0.5854  1.3806  0.9188
  167SAPE   H6Y18892   5.950   1.289   5.649  1.0458  1.1441 -2.5132
  167SAPE   C3718893   5.859   1.469   5.598 -0.0451 -0.1159 -0.2881
  167SAPE   H7X18894   5.918   1.545   5.654 -0.9555 -0.4375  1.1376
  167SAPE   H7Y18895   5.754   1.505   5.594  0.2646  0.8227 -0.2054
  167SAPE   C3818896   5.916   1.449   5.456  0.5828  0.0823  0.6765
  167SAPE   H8X18897   5.849   1.383   5.397  1.9641 -1.0072  0.2608
  167SAPE   H8Y18898   6.018   1.405   5.459  2.0498  3.2626  1.3388
  167SAPE   C3918899   5.937   1.576   5.370 -0.4672  0.0418 -1.2328
  167SAPE   H9X18900   6.019   1.630   5.422 -0.3862 -1.2867  0.0938
  167SAPE   H9Y18901   5.846   1.640   5.371 -2.7378 -2.8882  1.1303
  167SAPE  C31018902   5.980   1.562   5.225  0.5992 -0.4105  0.3932
  167SAPE  H10X18903   6.048   1.475   5.222  0.2591 -0.6627 -0.0252
  167SAPE  H10Y18904   6.030   1.655   5.192 -0.1504 -0.5627 -1.2361
  167SAPE  C31118905   5.854   1.546   5.132  0.2565  0.1007 -0.8945
  167SAPE  H11X18906   5.794   1.639   5.130  0.6774  0.4109  0.0335
  167SAPE  H11Y18907   5.792   1.461   5.168 -1.4324  2.0104  0.9349
  167SAPE  C31218908   5.889   1.507   4.990  0.1966 -0.1522  0.4222
  167SAPE  H12X18909   5.961   1.423   4.984  0.1544 -0.0901 -1.3987
  167SAPE  H12Y18910   5.926   1.598   4.937 -3.4505 -0.1960 -2.5852
  167SAPE  C31318911   5.767   1.464   4.907 -0.6470 -0.0729  0.0164
  167SAPE  H13X18912   5.715   1.551   4.859 -1.9368 -1.5820 -1.4538
  167SAPE  H13Y18913   5.703   1.399   4.971  0.2796  0.1155  1.1663
  167SAPE  C31418914   5.812   1.373   4.789 -0.0185 -0.6955  0.8489
  167SAPE  H14X18915   5.721   1.356   4.728 -0.7784  4.1338  0.1840
  167SAPE  H14Y18916   5.848   1.277   4.830 -0.5136 -1.4825 -0.5060
  167SAPE  C31518917   5.914   1.433   4.687  0.3292 -0.3543  0.2568
  167SAPE  H15X18918   6.001   1.478   4.739  1.0979 -1.6498  0.1456
  167SAPE  H15Y18919   5.871   1.514   4.624  2.2739 -0.4197 -1.2293
  167SAPE  C31618920   5.976   1.319   4.598 -0.3769  0.6656  0.7594
  167SAPE  H16X18921   6.059   1.271   4.652  0.1103  0.3383 -0.2524
  167SAPE  H16Y18922   6.022   1.372   4.512 -1.0341  1.7438  1.0513
  167SAPE  C31718923   5.872   1.219   4.537 -0.0811 -0.1655 -0.0451
  167SAPE  H17X18924   5.808   1.189   4.622 -3.5953 -0.7089 -2.6356
  167SAPE  H17Y18925   5.926   1.130   4.498  0.1330 -0.9218  1.8611
  167SAPE  C31818926   5.776   1.279   4.432  0.3813  0.1904  0.1156
  167SAPE  H18X18927   5.715   1.358   4.480 -0.5085 -1.0681  1.1308
  167SAPE  H18Y18928   5.704   1.211   4.382 -0.5993  2.8940 -2.4171
  167SAPE  H18Z18929   5.830   1.320   4.344  0.2566 -0.7359 -0.4160
  168SAPE     N18930   0.806   3.334   6.885  0.0364 -0.5503 -0.0449
  168SAPE   HN118931   0.829   3.394   6.804  1.2451 -1.4103 -0.3667
  168SAPE   HN218932   0.887   3.270   6.897 -1.1940 -1.8778  1.6235
  168SAPE   HN318933   0.724   3.275   6.860  2.0746 -3.2933 -0.7079
  168SAPE   C1218934   0.764   3.419   7.000  0.0819  0.3574  0.1669
  168SAPE  H12A18935   0.846   3.491   7.022 -0.1271  0.3154  1.1691
  168SAPE  H12B18936   0.755   3.352   7.089  2.8839 -2.5709 -1.5026
  168SAPE   C1118937   0.639   3.501   6.959  0.5802 -0.0050 -0.1213
  168SAPE  H11A18938   0.670   3.572   6.880  1.7974 -3.0568 -2.6211
  168SAPE  H11B18939   0.624   3.562   7.050  0.5420  2.4911 -1.7187
  168SAPE     P18940   0.383   3.502   6.889  0.1829  0.1592 -0.5767
  168SAPE   O1318941   0.277   3.418   6.950  0.1458  0.3564  0.4258
  168SAPE   O1418942   0.406   3.641   6.934  1.0062  0.1028  0.1843
  168SAPE   O1218943   0.519   3.432   6.928 -0.2368  0.5844 -0.2050
  168SAPE   O1118944   0.380   3.495   6.731 -0.1343  0.2311 -0.0104
  168SAPE    C118945   0.460   3.400   6.661 -0.2044  0.8570  0.1494
  168SAPE    HA18946   0.567   3.416   6.689  1.4861 -2.3986 -3.6060
  168SAPE    HB18947   0.425   3.296   6.678 -1.0426  1.0602 -0.2803
  168SAPE    C218948   0.443   3.423   6.508 -0.2368 -0.1049 -0.9637
  168SAPE    HS18949   0.472   3.329   6.457  0.6292 -2.2246  3.0655
  168SAPE   O2118950   0.524   3.533   6.474 -0.7475 -0.1338  0.4898
  168SAPE   C2118951   0.649   3.505   6.444  0.4761  0.5855  0.1560
  168SAPE   O2218952   0.700   3.394   6.445  0.1798 -0.2433 -0.8087
  168SAPE   C2218953   0.722   3.631   6.398  0.2939 -0.4750  0.1071
  168SAPE   H2R18954   0.723   3.704   6.482  0.0121 -1.1208  0.6884
  168SAPE   H2S18955   0.828   3.599   6.393  0.8002  0.7102  2.1040
  168SAPE    C318956   0.289   3.445   6.474 -0.1682 -0.1558 -0.3359
  168SAPE    HX18957   0.264   3.539   6.527 -0.2586 -1.5618  2.2330
  168SAPE    HY18958   0.227   3.359   6.508 -1.3387  0.8048  0.0047
  168SAPE   O3118959   0.258   3.452   6.331 -0.0680  0.6746  0.4852
  168SAPE   C3118960   0.244   3.575   6.273  0.0211 -0.7242  0.6082
  168SAPE   O3218961   0.243   3.686   6.326 -0.3235  0.7233  0.0288
  168SAPE   C3218962   0.228   3.553   6.123 -1.1918  0.3463 -0.3711
  168SAPE   H2X18963   0.152   3.474   6.105 -0.0746 -0.3952 -2.0559
  168SAPE   H2Y18964   0.319   3.504   6.083 -1.1137  0.8557 -0.8354
  168SAPE   C2318965   0.652   3.699   6.278 -0.0564  0.3593 -0.9378
  168SAPE   H3R18966   0.694   3.800   6.261  0.0581  0.7407  1.3186
  168SAPE   H3S18967   0.542   3.707   6.292  0.0555  0.7679 -0.2556
  168SAPE   C2418968   0.685   3.627   6.143  0.7080 -0.0710 -0.4545
  168SAPE   H4R18969   0.655   3.521   6.155 -1.9110  0.8488  2.8160
  168SAPE   H4S18970   0.796   3.628   6.132  0.6897  0.1313 -0.6322
  168SAPE   C2518971   0.611   3.681   6.025  0.9410  0.7028  0.7490
  168SAPE   H5R18972   0.503   3.698   6.035  0.5006  0.1794 -2.0520
  168SAPE   C2618973   0.672   3.686   5.906  0.6143  0.4522 -0.2415
  168SAPE   H6R18974   0.612   3.729   5.824 -2.0182  0.1388  1.4054
  168SAPE   C2718975   0.818   3.666   5.884  0.0253  0.1440 -0.1846
  168SAPE   H7R18976   0.838   3.558   5.899  0.5897 -0.1808 -2.7056
  168SAPE   H7S18977   0.884   3.726   5.950  0.8745 -0.2188 -0.6896
  168SAPE   C2818978   0.865   3.709   5.744  0.6354  0.2405 -0.5551
  168SAPE   H8R18979   0.848   3.816   5.722  1.2178  0.6295  0.7972
  168SAPE   C2918980   0.907   3.632   5.646  0.3460 -1.1849 -0.4312
  168SAPE   H9R18981   0.935   3.677   5.550 -2.5415  1.3285 -0.2520
  168SAPE  C21018982   0.940   3.489   5.663  0.4711  0.2672  0.3350
  168SAPE  H10R18983   0.981   3.471   5.764  0.6483 -2.1826 -0.1125
  168SAPE  H10S18984   1.017   3.462   5.588  0.3525  1.1539 -0.1154
  168SAPE  C21118985   0.811   3.407   5.654  0.0806 -0.3417 -0.0236
  168SAPE  H11R18986   0.737   3.449   5.724  0.5141 -2.8002  2.0808
  168SAPE  C21218987   0.794   3.291   5.589 -0.4614  0.6865 -0.0371
  168SAPE  H12R18988   0.700   3.234   5.585 -0.7929  0.9235  2.7725
  168SAPE  C21318989   0.896   3.213   5.510 -0.1887  0.1763 -0.1317
  168SAPE  H13R18990   0.935   3.130   5.573 -0.0330 -0.0022 -0.4602
  168SAPE  H13S18991   0.985   3.277   5.495 -1.5488  2.1309 -0.2779
  168SAPE  C21418992   0.856   3.160   5.376 -0.1349 -0.1062  0.1339
  168SAPE  H14R18993   0.750   3.132   5.358 -0.6334  2.1369 -0.7556
  168SAPE  C21518994   0.928   3.163   5.265  0.2936 -0.0916 -0.3660
  168SAPE  H15R18995   0.898   3.113   5.171 -0.3301 -2.3346  0.9635
  168SAPE  C21618996   1.066   3.218   5.250 -0.5105  0.2891  0.0133
  168SAPE  H16R18997   1.129   3.157   5.181  0.0061  2.4376 -1.5368
  168SAPE  H16S18998   1.114   3.236   5.349  0.7670  3.5047 -1.0593
  168SAPE  C21718999   1.088   3.352   5.181  0.0963 -0.1507  0.4375
  168SAPE  H17R19000   1.196   3.374   5.170 -0.0570  0.8244  0.7623
  168SAPE  H17S19001   1.047   3.444   5.228 -1.8235 -1.0187  0.5376
  168SAPE  C21819002   1.037   3.349   5.037 -0.0886  0.6395  0.5843
  168SAPE  H18R19003   1.047   3.450   4.991  0.4478  0.7348  0.9031
  168SAPE  H18S19004   0.926   3.346   5.047 -0.2946  2.8325 -0.4165
  168SAPE  C21919005   1.081   3.239   4.947 -0.4835  0.5793  0.1068
  168SAPE  H19R19006   1.081   3.140   4.999 -2.5762  1.6382  2.3104
  168SAPE  H19S19007   1.182   3.270   4.913 -0.8372  0.9151 -0.6615
  168SAPE  C22019008   0.981   3.220   4.829 -0.7183 -0.3328 -0.2555
  168SAPE  H20R19009   0.881   3.221   4.876 -0.7184 -0.0890 -0.2562
  168SAPE  H20S19010   1.001   3.132   4.764  0.8441 -0.5947  0.5346
  168SAPE  H20T19011   0.970   3.313   4.768  0.2933  1.2065  1.7771
  168SAPE   C3319012   0.199   3.687   6.041 -0.4799  0.0386 -0.1313
  168SAPE   H3X19013   0.294   3.743   6.051 -0.6354  0.4296 -0.7946
  168SAPE   H3Y19014   0.118   3.745   6.092 -1.4302  0.3076 -1.8824
  168SAPE   C3419015   0.182   3.668   5.892  0.3404  0.0036 -0.1567
  168SAPE   H4X19016   0.161   3.765   5.842 -0.2712 -0.2190 -0.3356
  168SAPE   H4Y19017   0.095   3.600   5.879  0.6213 -0.2578 -0.7318
  168SAPE   C3519018   0.305   3.596   5.821  0.4034  0.2821 -0.8113
  168SAPE   H5X19019   0.324   3.497   5.868 -2.1171  0.9445  1.9446
  168SAPE   H5Y19020   0.390   3.667   5.831 -0.1856  0.8531  0.3748
  168SAPE   C3619021   0.294   3.565   5.663 -0.2200  0.2303  0.0635
  168SAPE   H6X19022   0.254   3.649   5.602 -1.1975 -0.5187 -0.3598
  168SAPE   H6Y19023   0.236   3.470   5.654  4.5860 -3.1197  0.8506
  168SAPE   C3719024   0.429   3.516   5.609  0.4425 -0.3165  0.9701
  168SAPE   H7X19025   0.455   3.419   5.656 -2.8667 -2.1469 -0.6126
  168SAPE   H7Y19026   0.513   3.588   5.621 -0.3637  0.7240  0.5802
  168SAPE   C3819027   0.411   3.482   5.463  0.0552 -0.5692  0.2018
  168SAPE   H8X19028   0.352   3.562   5.413  0.2066 -0.3009  0.4496
  168SAPE   H8Y19029   0.358   3.385   5.454 -2.4120  0.8424 -1.7720
  168SAPE   C3919030   0.552   3.478   5.395  0.1383  0.1948 -0.1648
  168SAPE   H9X19031   0.607   3.386   5.427 -0.1689 -0.3256 -1.1150
  168SAPE   H9Y19032   0.621   3.564   5.405  3.1144 -1.6799 -2.7905
  168SAPE  C31019033   0.524   3.470   5.248  0.6386  0.7317 -0.4872
  168SAPE  H10X19034   0.526   3.575   5.211  0.6196  1.2113  0.8227
  168SAPE  H10Y19035   0.424   3.425   5.233  0.6474  0.8797 -1.0314
  168SAPE  C31119036   0.616   3.364   5.174  0.1034  0.2788 -0.6546
  168SAPE  H11X19037   0.580   3.260   5.193  0.3028  0.3840  0.3333
  168SAPE  H11Y19038   0.720   3.383   5.209 -0.0035  0.4283 -0.4176
  168SAPE  C31219039   0.604   3.377   5.025 -0.2404 -0.3992  0.0283
  168SAPE  H12X19040   0.498   3.376   4.993 -0.7308 -2.8416  1.4955
  168SAPE  H12Y19041   0.646   3.287   4.975 -1.9566 -0.0588 -2.1531
  168SAPE  C31319042   0.679   3.504   4.970 -0.2750  0.2323 -0.5347
  168SAPE  H13X19043   0.787   3.497   4.996  0.3767  2.0461 -2.5099
  168SAPE  H13Y19044   0.630   3.593   5.015 -1.3106  0.0194 -1.2136
  168SAPE  C31419045   0.674   3.499   4.815  0.6794 -0.2112  0.6127
  168SAPE  H14X19046   0.571   3.479   4.779  1.0066 -0.4645 -0.2115
  168SAPE  H14Y19047   0.742   3.416   4.787  1.5053 -0.0132  1.9515
  168SAPE  C31519048   0.716   3.633   4.751  0.2917 -0.2344  0.1435
  168SAPE  H15X19049   0.813   3.670   4.792  0.7680 -0.0276 -1.1270
  168SAPE  H15Y19050   0.646   3.706   4.798 -2.1850 -2.4538  0.1465
  168SAPE  C31619051   0.722   3.622   4.600 -0.2270  0.1896 -1.0071
  168SAPE  H16X19052   0.643   3.563   4.549 -0.4828  0.5086 -0.9866
  168SAPE  H16Y19053   0.818   3.573   4.573 -0.0827 -0.8300  1.1462
  168SAPE  C31719054   0.730   3.763   4.534  0.3560  0.4269  0.7155
  168SAPE  H17X19055   0.798   3.834   4.585 -0.8035  1.8733  0.3054
  168SAPE  H17Y19056   0.626   3.802   4.531  0.3044  0.2348 -0.3658
  168SAPE  C31819057   0.762   3.758   4.385  0.4510 -0.1402  1.1185
  168SAPE  H18X19058   0.769   3.849   4.323 -2.5472  0.1291  1.0275
  168SAPE  H18Y19059   0.685   3.686   4.349 -0.0398 -0.4787  2.7597
  168SAPE  H18Z19060   0.855   3.698   4.383  0.2991 -0.3983  1.4902
  169SAPE     N19061   5.623   4.591   6.679  0.6094  0.0384  0.1394
  169SAPE   HN119062   5.521   4.570   6.677  0.9324 -1.6931 -0.6137
  169SAPE   HN219063   5.640   4.645   6.766 -0.1680 -0.6608  0.7437
  169SAPE   HN319064   5.642   4.648   6.594 -0.0867 -2.3883 -1.7825
  169SAPE   C1219065   5.693   4.456   6.686  0.3098  0.3053 -0.3186
  169SAPE  H12A19066   5.667   4.411   6.784  0.1485  1.4138  0.1649
  169SAPE  H12B19067   5.802   4.473   6.692  0.5672 -0.6132 -1.8097
  169SAPE   C1119068   5.660   4.357   6.579 -0.1420 -0.5863  0.3481
  169SAPE  H11A19069   5.733   4.275   6.596  1.4011  0.6502 -0.0401
  169SAPE  H11B19070   5.675   4.398   6.477 -0.2405 -0.9227  0.1963
  169SAPE     P19071   5.400   4.369   6.537  0.4265 -0.0753  0.0911
  169SAPE   O1319072   5.295   4.273   6.574  0.2902 -0.5078  0.3613
  169SAPE   O1419073   5.378   4.510   6.578  0.1506 -0.4433  0.2470
  169SAPE   O1219074   5.526   4.306   6.603  0.3130 -0.0904 -0.3884
  169SAPE   O1119075   5.423   4.360   6.379 -0.3671  0.0084  0.1051
  169SAPE    C119076   5.394   4.244   6.309  0.2040 -0.7119  0.3018
  169SAPE    HA19077   5.447   4.164   6.365  2.7162  1.0322  0.5786
  169SAPE    HB19078   5.287   4.216   6.302 -0.1036  0.5531 -0.3341
  169SAPE    C219079   5.457   4.238   6.168 -0.2516 -0.2322  0.8135
  169SAPE    HS19080   5.446   4.138   6.123 -3.6179  0.2873  0.2663
  169SAPE   O2119081   5.594   4.270   6.166 -0.0380 -0.1489 -0.1274
  169SAPE   C2119082   5.679   4.187   6.227 -0.2961  0.4861  0.3934
  169SAPE   O2219083   5.665   4.074   6.271  0.1231  0.0563 -0.5121
  169SAPE   C2219084   5.816   4.248   6.204 -0.0491  0.2855 -0.3609
  169SAPE   H2R19085   5.807   4.358   6.216 -0.5026  0.2098  0.0418
  169SAPE   H2S19086   5.885   4.211   6.283  0.7346  0.8254 -0.7852
  169SAPE    C319087   5.378   4.340   6.081 -0.0457 -0.2616  0.3187
  169SAPE    HX19088   5.400   4.443   6.116  0.1773 -0.2387  0.1217
  169SAPE    HY19089   5.273   4.306   6.092  0.1925 -0.9163  0.6829
  169SAPE   O3119090   5.428   4.323   5.946  0.4587 -0.1518 -0.1210
  169SAPE   C3119091   5.358   4.398   5.860 -0.6622 -0.4640  0.0196
  169SAPE   O3219092   5.263   4.472   5.885 -0.7467 -0.1399 -0.2021
  169SAPE   C3219093   5.404   4.357   5.725 -0.0805  0.5170 -0.4114
  169SAPE   H2X19094   5.379   4.249   5.724  0.9544  0.2232  1.5079
  169SAPE   H2Y19095   5.515   4.360   5.729 -0.0208 -1.7082  1.4496
  169SAPE   C2319096   5.875   4.216   6.069 -0.5171  0.1820 -0.2132
  169SAPE   H3R19097   5.885   4.106   6.056 -2.2822 -0.3310  2.1158
  169SAPE   H3S19098   5.974   4.267   6.067 -1.0099  1.1745  0.1499
  169SAPE   C2419099   5.800   4.273   5.948 -0.2287 -1.0049  0.1406
  169SAPE   H4R19100   5.751   4.367   5.981 -0.3494  0.0238 -2.6589
  169SAPE   H4S19101   5.716   4.211   5.911 -0.4034 -1.4822  1.3160
  169SAPE   C2519102   5.891   4.306   5.834  0.8507 -0.8536 -0.5542
  169SAPE   H5R19103   5.963   4.377   5.877 -2.4968  0.3015  3.8747
  169SAPE   C2619104   5.886   4.254   5.712 -0.2321 -0.4467  0.1273
  169SAPE   H6R19105   5.969   4.293   5.650 -0.8548 -1.4270 -1.3978
  169SAPE   C2719106   5.804   4.143   5.653 -0.4807 -0.1475 -0.6410
  169SAPE   H7R19107   5.753   4.077   5.726 -1.7431  0.9446 -0.5039
  169SAPE   H7S19108   5.879   4.077   5.604 -0.0958 -0.4218  0.2927
  169SAPE   C2819109   5.697   4.195   5.560  0.6564  0.1114 -0.0919
  169SAPE   H8R19110   5.692   4.303   5.540  4.4938  0.5902  0.6756
  169SAPE   C2919111   5.611   4.113   5.495 -0.0748  0.3479 -0.1322
  169SAPE   H9R19112   5.540   4.158   5.424 -1.6296 -2.8957 -0.8472
  169SAPE  C21019113   5.613   3.964   5.505  0.7186 -1.2733 -0.3398
  169SAPE  H10R19114   5.508   3.934   5.486  0.1168  1.0423 -1.0383
  169SAPE  H10S19115   5.638   3.925   5.606  1.4457  0.1460  0.0598
  169SAPE  C21119116   5.710   3.912   5.402 -0.2577  0.8399  0.2967
  169SAPE  H11R19117   5.814   3.946   5.415  0.5849 -0.3374 -2.5683
  169SAPE  C21219118   5.682   3.858   5.277  0.4205  1.6039 -0.2509
  169SAPE  H12R19119   5.754   3.828   5.200  0.0426 -0.3775  0.1017
  169SAPE  C21319120   5.538   3.820   5.221  0.1448 -0.1258  0.1698
  169SAPE  H13R19121   5.488   3.751   5.292  0.2930 -1.2374 -0.7631
  169SAPE  H13S19122   5.558   3.766   5.126 -2.4567 -1.1235  0.1187
  169SAPE  C21419123   5.449   3.936   5.192  0.0233 -0.5769 -0.1147
  169SAPE  H14R19124   5.405   3.980   5.283 -0.5104 -1.9721  0.3238
  169SAPE  C21519125   5.428   3.999   5.075 -0.3464  0.1403 -0.0793
  169SAPE  H15R19126   5.366   4.090   5.071 -2.4738 -1.2224  0.0724
  169SAPE  C21619127   5.491   3.954   4.948  0.7343  0.2126 -0.0135
  169SAPE  H16R19128   5.441   4.001   4.860  2.6306 -0.1934 -1.3864
  169SAPE  H16S19129   5.490   3.843   4.942  0.1323  0.1245  1.3979
  169SAPE  C21719130   5.638   3.996   4.943 -0.0774 -0.2713 -0.1980
  169SAPE  H17R19131   5.686   3.971   4.847  0.5219  0.3016 -0.0506
  169SAPE  H17S19132   5.681   3.916   5.007  1.3320  0.2960 -0.3941
  169SAPE  C21819133   5.671   4.141   4.984  0.2496 -0.0650  0.1562
  169SAPE  H18R19134   5.694   4.145   5.092 -1.3364 -1.4892  0.5849
  169SAPE  H18S19135   5.578   4.200   4.974 -0.1319 -0.5554  0.7824
  169SAPE  C21919136   5.790   4.210   4.911  0.3431  0.1868  0.3254
  169SAPE  H19R19137   5.760   4.210   4.804 -1.6162  0.2340  0.8400
  169SAPE  H19S19138   5.881   4.146   4.912 -1.5119 -2.6667  1.7513
  169SAPE  C22019139   5.820   4.358   4.952 -0.3909  0.3177 -0.0670
  169SAPE  H20R19140   5.905   4.399   4.893  0.8005 -1.8965 -0.0124
  169SAPE  H20S19141   5.848   4.366   5.059  1.0512  0.9684 -0.4692
  169SAPE  H20T19142   5.737   4.432   4.943  0.7453  1.9063  1.8378
  169SAPE   C3319143   5.338   4.436   5.610 -0.6876 -0.4737  0.7457
  169SAPE   H3X19144   5.377   4.540   5.608  2.2826 -1.5220 -0.0480
  169SAPE   H3Y19145   5.229   4.456   5.623 -0.6402  0.7226 -0.4810
  169SAPE   C3419146   5.383   4.384   5.477  0.1706 -0.5281 -0.0874
  169SAPE   H4X19147   5.346   4.280   5.470  2.2794 -1.3732  0.5302
  169SAPE   H4Y19148   5.494   4.381   5.466  0.0867 -0.5426 -0.9882
  169SAPE   C3519149   5.320   4.460   5.357  0.0501  0.5465 -0.5603
  169SAPE   H5X19150   5.356   4.565   5.348  2.5156 -0.4210 -5.5269
  169SAPE   H5Y19151   5.210   4.462   5.366  0.1250  0.9924  0.3799
  169SAPE   C3619152   5.359   4.391   5.230  0.4752  0.5214  0.1657
  169SAPE   H6X19153   5.312   4.290   5.229 -0.1757  0.8105  0.9174
  169SAPE   H6Y19154   5.470   4.394   5.219  0.7319 -1.2102  1.6823
  169SAPE   C3719155   5.293   4.460   5.107 -0.6534  0.3414 -0.7268
  169SAPE   H7X19156   5.312   4.569   5.104 -0.1160  0.2449 -1.1055
  169SAPE   H7Y19157   5.183   4.452   5.119 -0.9160  3.8551  0.3680
  169SAPE   C3819158   5.317   4.392   4.971 -0.4623  0.1034  0.7069
  169SAPE   H8X19159   5.342   4.284   4.976  3.4222  0.7830 -0.5530
  169SAPE   H8Y19160   5.402   4.444   4.921 -1.0089 -0.4597 -0.8423
  169SAPE   C3919161   5.201   4.421   4.878  0.1412  0.2388 -0.7977
  169SAPE   H9X19162   5.178   4.530   4.872 -3.0714 -0.0205  2.9220
  169SAPE   H9Y19163   5.114   4.364   4.917  0.7581  1.0401  1.9998
  169SAPE  C31019164   5.222   4.368   4.733 -0.1303 -0.2536  0.1078
  169SAPE  H10X19165   5.268   4.268   4.744 -0.5029 -0.1632  3.5285
  169SAPE  H10Y19166   5.293   4.435   4.678  1.2815  1.6681  3.9156
  169SAPE  C31119167   5.099   4.350   4.651 -0.2728 -0.0868  0.6256
  169SAPE  H11X19168   5.063   4.453   4.631 -0.2830  0.0307  1.2282
  169SAPE  H11Y19169   5.009   4.308   4.701 -1.0812  1.1864  0.2921
  169SAPE  C31219170   5.134   4.287   4.510  0.5068  0.5108  0.0672
  169SAPE  H12X19171   5.203   4.201   4.520  1.2869  1.0569 -0.5127
  169SAPE  H12Y19172   5.193   4.357   4.447  1.3816 -1.0257 -0.8835
  169SAPE  C31319173   4.998   4.252   4.451 -0.1498  0.3227 -0.1470
  169SAPE  H13X19174   4.948   4.350   4.445 -0.6169  0.0731 -0.3390
  169SAPE  H13Y19175   4.947   4.196   4.532 -0.5639  1.2623  0.2513
  169SAPE  C31419176   5.012   4.172   4.315  0.2396 -0.9342  0.1047
  169SAPE  H14X19177   5.079   4.084   4.319  1.9374  0.3287  1.0627
  169SAPE  H14Y19178   5.088   4.233   4.260  1.9227 -2.7964  0.2687
  169SAPE  C31519179   4.885   4.149   4.222 -0.3900  0.7511 -0.5639
  169SAPE  H15X19180   4.816   4.236   4.234  0.5714  1.2837  1.6852
  169SAPE  H15Y19181   4.833   4.052   4.239 -1.1718  1.0788 -1.0092
  169SAPE  C31619182   4.922   4.137   4.074  0.0117 -0.1451  0.0373
  169SAPE  H16X19183   5.010   4.070   4.070  0.9259  0.9507  0.9779
  169SAPE  H16Y19184   4.947   4.241   4.045  2.7897 -0.8238 -0.2694
  169SAPE  C31719185   4.804   4.092   3.984  0.6567  0.2406  0.4278
  169SAPE  H17X19186   4.718   4.161   4.000  0.2878 -0.3821  1.1854
  169SAPE  H17Y19187   4.765   3.994   4.020 -2.3484  0.8257 -0.9367
  169SAPE  C31819188   4.831   4.102   3.837 -0.0424  1.0661  0.0660
  169SAPE  H18X19189   4.899   4.019   3.808 -3.2124 -1.2004 -1.3437
  169SAPE  H18Y19190   4.883   4.198   3.814  3.1775 -0.9247 -1.6377
  169SAPE  H18Z19191   4.739   4.085   3.778 -0.5594  0.3660  1.0450
  170SAPE     N19192   6.080   0.738   6.881 -0.2973  0.0136 -0.3052
  170SAPE   HN119193   6.137   0.721   6.967  1.0665 -1.6520 -1.4502
  170SAPE   HN219194   5.979   0.719   6.895  0.0645 -1.6463  0.2828
  170SAPE   HN319195   6.117   0.667   6.814  2.3841  0.9983  0.0092
  170SAPE   C1219196   6.096   0.887   6.835 -0.2056  0.5360  0.2059
  170SAPE  H12A19197   6.164   0.934   6.909  0.2815 -0.9077  0.7051
  170SAPE  H12B19198   5.995   0.930   6.847 -0.9763 -1.3636  0.9133
  170SAPE   C1119199   6.165   0.887   6.700  0.0030 -0.5404  0.3022
  170SAPE  H11A19200   6.155   0.994   6.673  0.3532 -1.3464 -3.6039
  170SAPE  H11B19201   6.112   0.837   6.615 -0.1044 -0.2865  0.2175
  170SAPE     P19202   6.414   0.924   6.749  0.2069  0.3248  0.0199
  170SAPE   O1319203   6.357   1.020   6.843  0.3833 -0.1681  0.0626
  170SAPE   O1419204   6.533   0.852   6.788  0.0774  0.9107  0.0597
  170SAPE   O1219205   6.297   0.832   6.700 -0.5136 -0.2074 -0.2625
  170SAPE   O1119206   6.441   0.995   6.612 -0.2222 -0.6486  0.4805
  170SAPE    C119207   6.509   0.944   6.498 -0.7144  0.9728 -0.5028
  170SAPE    HA19208   6.618   0.954   6.518 -0.5749 -1.5377  0.3537
  170SAPE    HB19209   6.497   0.833   6.495  0.5851  0.6300  2.6793
  170SAPE    C219210   6.451   0.999   6.372 -1.2939  0.6303 -0.6847
  170SAPE    HS19211   6.470   0.932   6.286 -0.5916 -0.1180  0.0364
  170SAPE   O2119212   6.519   1.124   6.333 -0.3129  0.5004 -0.0401
  170SAPE   C2119213   6.655   1.122   6.310  0.3224 -0.2302  0.0083
  170SAPE   O2219214   6.720   1.023   6.313 -0.1451 -0.2770 -0.2467
  170SAPE   C2219215   6.709   1.268   6.296 -0.2891  0.0477 -0.6191
  170SAPE   H2R19216   6.635   1.337   6.343  1.0111  1.5012 -0.6312
  170SAPE   H2S19217   6.807   1.271   6.348  0.7009 -0.4498 -2.3791
  170SAPE    C319218   6.294   1.016   6.373  0.6857 -0.1978  0.7583
  170SAPE    HX19219   6.277   1.082   6.461 -0.9434 -0.7728  0.9231
  170SAPE    HY19220   6.251   0.918   6.403  0.2534  0.4765  2.4549
  170SAPE   O3119221   6.235   1.074   6.249  0.1021 -0.2048  0.5775
  170SAPE   C3119222   6.250   0.988   6.148  0.8073 -0.4486  0.0365
  170SAPE   O3219223   6.268   0.866   6.156 -0.3668 -0.4278 -0.3901
  170SAPE   C3219224   6.248   1.069   6.022  0.1284  0.2860 -0.1274
  170SAPE   H2X19225   6.304   1.163   6.041  0.9136 -0.3944  1.0174
  170SAPE   H2Y19226   6.140   1.089   6.007 -0.3975 -2.6908 -0.8287
  170SAPE   C2319227   6.737   1.292   6.145 -0.2188  0.1184 -0.5032
  170SAPE   H3R19228   6.805   1.213   6.107 -0.4791 -0.1232 -0.4657
  170SAPE   H3S19229   6.776   1.395   6.132 -2.9709  1.2130 -0.7728
  170SAPE   C2419230   6.606   1.286   6.060  0.2733  0.4095  0.5311
  170SAPE   H4R19231   6.562   1.185   6.071  2.3677 -0.3948  2.0895
  170SAPE   H4S19232   6.649   1.295   5.958  1.0860  1.2384  0.9277
  170SAPE   C2519233   6.505   1.391   6.087  0.6880 -0.1813 -0.0024
  170SAPE   H5R19234   6.506   1.442   6.184  1.5679  4.0835 -1.9894
  170SAPE   C2619235   6.411   1.432   5.994  0.2724 -0.0973 -0.8507
  170SAPE   H6R19236   6.337   1.503   6.033  0.9587  1.0949 -1.6484
  170SAPE   C2719237   6.403   1.379   5.857  0.2466  0.4163 -0.0762
  170SAPE   H7R19238   6.383   1.270   5.849  1.6657  0.1486 -0.2331
  170SAPE   H7S19239   6.499   1.384   5.800 -0.4974  2.2155 -1.2665
  170SAPE   C2819240   6.307   1.447   5.758 -0.3281 -0.0680  0.2569
  170SAPE   H8R19241   6.230   1.514   5.799 -1.5162 -1.0511 -0.3345
  170SAPE   C2919242   6.303   1.429   5.622 -0.5884  0.6778  0.6120
  170SAPE   H9R19243   6.238   1.486   5.554 -0.2747  1.0593  0.6282
  170SAPE  C21019244   6.397   1.343   5.545  0.1247  0.2090 -0.2024
  170SAPE  H10R19245   6.401   1.242   5.591 -2.0245 -1.3314 -3.0651
  170SAPE  H10S19246   6.497   1.388   5.559  1.1042 -1.8234 -0.3369
  170SAPE  C21119247   6.359   1.331   5.396 -0.1574  0.5393  0.1768
  170SAPE  H11R19248   6.334   1.225   5.379  4.5123 -1.2781  2.7700
  170SAPE  C21219249   6.366   1.422   5.295 -0.4607  0.6337 -0.0367
  170SAPE  H12R19250   6.306   1.407   5.204  2.2164 -2.6934 -1.4521
  170SAPE  C21319251   6.415   1.560   5.312 -0.1717 -0.2085 -0.3694
  170SAPE  H13R19252   6.442   1.582   5.418 -0.8115 -0.6045 -0.1190
  170SAPE  H13S19253   6.329   1.629   5.306  0.5760  0.9647  1.3728
  170SAPE  C21419254   6.531   1.595   5.221 -0.4652 -0.3188  0.4556
  170SAPE  H14R19255   6.620   1.536   5.247  1.0147  1.2293 -0.8544
  170SAPE  C21519256   6.551   1.691   5.127 -0.0131  0.6816 -0.0850
  170SAPE  H15R19257   6.650   1.719   5.089  0.5979 -2.1055 -0.7980
  170SAPE  C21619258   6.436   1.777   5.087  0.0262 -0.9670 -0.1249
  170SAPE  H16R19259   6.434   1.867   5.152  1.0221 -0.2931 -1.0009
  170SAPE  H16S19260   6.336   1.730   5.097  0.4423 -1.9243 -0.4140
  170SAPE  C21719261   6.429   1.827   4.942  0.3392  0.5052  0.2862
  170SAPE  H17R19262   6.344   1.896   4.919 -0.8696 -0.2299  2.2741
  170SAPE  H17S19263   6.404   1.743   4.873  0.0521  1.9684 -1.4742
  170SAPE  C21819264   6.547   1.897   4.877 -1.0556 -0.6631 -0.3067
  170SAPE  H18R19265   6.619   1.813   4.883 -0.6752 -0.2454  2.6255
  170SAPE  H18S19266   6.579   1.976   4.949  2.1358 -1.7800 -0.3568
  170SAPE  C21919267   6.527   1.958   4.737 -0.1956 -0.6632 -0.7245
  170SAPE  H19R19268   6.624   2.012   4.723 -0.8036  0.7624  0.3844
  170SAPE  H19S19269   6.447   2.033   4.748  0.5036  0.2234 -1.4870
  170SAPE  C22019270   6.504   1.863   4.626  0.7193 -0.3593  0.4341
  170SAPE  H20R19271   6.396   1.837   4.614  0.4957  0.2670  1.0342
  170SAPE  H20S19272   6.565   1.770   4.632  1.2640 -0.0260  0.0728
  170SAPE  H20T19273   6.519   1.918   4.530 -2.1274  0.5702  0.4044
  170SAPE   C3319274   6.292   0.988   5.902 -0.6473 -0.2695 -0.0388
  170SAPE   H3X19275   6.297   0.877   5.912  0.9089 -0.2996 -0.8720
  170SAPE   H3Y19276   6.400   1.001   5.879 -0.3528  0.4270  1.5853
  170SAPE   C3419277   6.211   1.017   5.769 -0.2713  0.1812  0.5741
  170SAPE   H4X19278   6.205   1.127   5.761 -1.4356  0.0103 -1.6988
  170SAPE   H4Y19279   6.104   0.987   5.778 -0.5986  1.6822  2.1613
  170SAPE   C3519280   6.280   0.965   5.635  0.3206  0.1595  0.4050
  170SAPE   H5X19281   6.366   1.025   5.599  1.5769 -0.4771  2.2203
  170SAPE   H5Y19282   6.204   0.981   5.555  0.2572 -0.3663  0.3560
  170SAPE   C3619283   6.318   0.814   5.643  0.6048  0.6585 -0.1736
  170SAPE   H6X19284   6.223   0.758   5.660  1.7085 -2.2284 -2.6187
  170SAPE   H6Y19285   6.375   0.783   5.733 -1.0646  1.2094  1.1285
  170SAPE   C3719286   6.391   0.767   5.517  0.1078 -0.4495 -0.9825
  170SAPE   H7X19287   6.438   0.667   5.527 -0.7548 -1.2460 -3.8741
  170SAPE   H7Y19288   6.471   0.844   5.509  1.1287 -1.5272 -1.3708
  170SAPE   C3819289   6.310   0.778   5.393  0.1800  0.3035 -0.2655
  170SAPE   H8X19290   6.208   0.813   5.419  0.3309  0.7080 -0.2141
  170SAPE   H8Y19291   6.294   0.683   5.337 -0.2689  0.0702  0.2422
  170SAPE   C3919292   6.354   0.874   5.285  0.3253  0.2469 -1.1019
  170SAPE   H9X19293   6.463   0.874   5.263  0.4167  0.5832 -0.6624
  170SAPE   H9Y19294   6.346   0.974   5.333  1.3730 -0.1542 -0.0581
  170SAPE  C31019295   6.263   0.860   5.163 -0.4902 -0.2216 -0.2016
  170SAPE  H10X19296   6.164   0.850   5.213 -0.3020  0.9943  0.4660
  170SAPE  H10Y19297   6.297   0.764   5.121 -0.4816 -0.4385  0.2885
  170SAPE  C31119298   6.278   0.967   5.053  0.4564 -0.0052 -0.1426
  170SAPE  H11X19299   6.245   0.933   4.953  0.7055 -1.2186  0.1704
  170SAPE  H11Y19300   6.389   0.979   5.047  0.4834 -1.0486 -2.9372
  170SAPE  C31219301   6.230   1.110   5.097 -0.1683 -0.3583 -0.2732
  170SAPE  H12X19302   6.300   1.144   5.176 -0.9199  0.7704 -0.0751
  170SAPE  H12Y19303   6.128   1.104   5.142  0.3218 -0.3528  0.8800
  170SAPE  C31319304   6.231   1.211   4.978 -0.5248  0.2733  0.0477
  170SAPE  H13X19305   6.182   1.309   4.990  0.5951  0.7830  0.6289
  170SAPE  H13Y19306   6.171   1.163   4.898  0.5333  1.1478 -1.3210
  170SAPE  C31419307   6.375   1.244   4.928  0.8719  0.0101 -0.3629
  170SAPE  H14X19308   6.430   1.147   4.924 -0.4357 -0.8498  1.1948
  170SAPE  H14Y19309   6.429   1.309   5.001 -0.0108 -0.0373  0.3437
  170SAPE  C31519310   6.381   1.304   4.789  0.6994  0.0504 -0.2839
  170SAPE  H15X19311   6.350   1.233   4.709  0.9383 -0.5424  0.1445
  170SAPE  H15Y19312   6.487   1.333   4.773  0.9926 -0.8128  0.0038
  170SAPE  C31619313   6.297   1.438   4.789  0.4858  0.2177  0.4667
  170SAPE  H16X19314   6.276   1.472   4.892 -5.3478 -1.3806  0.1580
  170SAPE  H16Y19315   6.193   1.409   4.762  0.2958  0.6615  0.6957
  170SAPE  C31719316   6.337   1.554   4.695 -0.2770  0.3769 -0.3211
  170SAPE  H17X19317   6.445   1.576   4.709 -0.7550  1.1800  3.1528
  170SAPE  H17Y19318   6.286   1.645   4.734 -1.2268  0.1690 -1.0513
  170SAPE  C31819319   6.286   1.542   4.555  0.2889 -0.6275 -0.0106
  170SAPE  H18X19320   6.325   1.622   4.488  1.0401 -0.5411  0.5204
  170SAPE  H18Y19321   6.175   1.546   4.562  0.1817 -0.9066 -1.3479
  170SAPE  H18Z19322   6.303   1.441   4.514 -1.2224 -0.8045 -0.2420
  171SAPE     N19323   2.975   4.626   6.515  0.8993  0.1356 -0.5928
  171SAPE   HN119324   2.992   4.574   6.603  1.8640  0.3810 -0.6174
  171SAPE   HN219325   2.949   4.720   6.551 -0.8870  0.0357 -1.5490
  171SAPE   HN319326   2.895   4.585   6.462 -0.1078  1.1751  0.0751
  171SAPE   C1219327   3.102   4.626   6.438  0.6461  0.5794 -0.4620
  171SAPE  H12A19328   3.183   4.631   6.513  0.3774 -0.7974 -0.0588
  171SAPE  H12B19329   3.112   4.717   6.375  1.2816  1.2700  0.6101
  171SAPE   C1119330   3.112   4.500   6.353 -0.3860 -0.5939 -0.2835
  171SAPE  H11A19331   3.210   4.500   6.301 -1.4056  1.3694 -2.3895
  171SAPE  H11B19332   3.041   4.518   6.270 -0.2499 -1.5073 -0.6061
  171SAPE     P19333   3.200   4.281   6.469  0.2885 -0.2032  0.0878
  171SAPE   O1319334   3.326   4.348   6.517  0.2580 -0.0232  0.4958
  171SAPE   O1419335   3.150   4.164   6.544 -0.2501  0.1657  0.3644
  171SAPE   O1219336   3.081   4.380   6.425  0.1809  0.6159 -0.1145
  171SAPE   O1119337   3.243   4.230   6.326  0.2539  0.8638 -0.0930
  171SAPE    C119338   3.175   4.119   6.260 -0.5765 -0.4473 -0.2804
  171SAPE    HA19339   3.225   4.024   6.290  1.5628  0.8797  0.5240
  171SAPE    HB19340   3.065   4.131   6.273 -1.3173  0.2989 -5.2262
  171SAPE    C219341   3.197   4.129   6.112  0.1877 -0.8682 -0.3476
  171SAPE    HS19342   3.154   4.040   6.061 -3.8217 -0.1039  1.3491
  171SAPE   O2119343   3.340   4.137   6.079  0.1162  0.2572 -0.6696
  171SAPE   C2119344   3.409   4.023   6.113 -0.0577 -0.4336  0.5015
  171SAPE   O2219345   3.361   3.915   6.129 -0.8173  0.0243 -0.5653
  171SAPE   C2219346   3.552   4.055   6.122  0.1923 -0.4910 -0.1163
  171SAPE   H2R19347   3.566   4.155   6.169 -0.1378 -0.8343  0.7338
  171SAPE   H2S19348   3.593   3.982   6.195  1.2754  2.6395  2.6680
  171SAPE    C319349   3.128   4.253   6.049  0.0473  0.3381  0.2996
  171SAPE    HX19350   3.152   4.347   6.103  1.2832  1.3878 -1.9164
  171SAPE    HY19351   3.021   4.236   6.073 -0.5688  1.2560 -1.5245
  171SAPE   O3119352   3.152   4.278   5.906  0.1607  0.0631 -0.2887
  171SAPE   C3119353   3.117   4.177   5.814 -0.2337 -0.1571  0.4274
  171SAPE   O3219354   3.068   4.070   5.846 -0.2732 -0.8824  0.5668
  171SAPE   C3219355   3.148   4.226   5.670  0.5265  0.5690  0.2939
  171SAPE   H2X19356   3.258   4.244   5.666  0.5798  0.0383 -1.4196
  171SAPE   H2Y19357   3.097   4.324   5.655  1.5623  1.0917  0.1012
  171SAPE   C2319358   3.631   4.046   5.986 -0.6345  0.0615  0.8056
  171SAPE   H3R19359   3.624   3.951   5.928 -0.7081  0.7889 -0.4238
  171SAPE   H3S19360   3.735   4.055   6.024  0.2183 -3.7065 -0.1778
  171SAPE   C2419361   3.600   4.163   5.892  0.2515  0.0494 -0.4091
  171SAPE   H4R19362   3.595   4.259   5.948 -1.7125 -0.2491  0.0164
  171SAPE   H4S19363   3.496   4.147   5.855  0.1317  0.4519 -0.2504
  171SAPE   C2519364   3.698   4.169   5.774 -0.5403  0.4390  0.9083
  171SAPE   H5R19365   3.803   4.170   5.807 -0.0919  0.0870 -0.4721
  171SAPE   C2619366   3.672   4.176   5.640  0.0177 -0.5156 -0.0219
  171SAPE   H6R19367   3.759   4.195   5.574  0.2567  0.6502  0.5972
  171SAPE   C2719368   3.529   4.169   5.581  0.0377 -0.0520 -0.0578
  171SAPE   H7R19369   3.484   4.270   5.570  0.5738  0.1840 -0.1113
  171SAPE   H7S19370   3.462   4.119   5.654 -1.3754  0.6648 -0.8281
  171SAPE   C2819371   3.528   4.095   5.452 -0.2152 -0.1849  0.1339
  171SAPE   H8R19372   3.592   4.145   5.378 -0.3530 -1.3453 -0.7974
  171SAPE   C2919373   3.500   3.965   5.444 -0.2113 -0.5278 -0.0790
  171SAPE   H9R19374   3.486   3.919   5.345  0.5677 -1.0204  0.0322
  171SAPE  C21019375   3.444   3.878   5.556 -0.3890 -0.5957  0.8865
  171SAPE  H10R19376   3.338   3.913   5.563 -0.3809 -0.4095  0.1627
  171SAPE  H10S19377   3.497   3.909   5.648 -1.0089  0.4309  0.9128
  171SAPE  C21119378   3.471   3.733   5.528  0.1987  0.2355  0.3723
  171SAPE  H11R19379   3.574   3.699   5.544 -0.1611 -0.3723  1.5634
  171SAPE  C21219380   3.382   3.646   5.466 -0.2762  0.5503  0.2538
  171SAPE  H12R19381   3.411   3.540   5.459  1.7454  0.9945  1.2484
  171SAPE  C21319382   3.239   3.675   5.425 -0.0674  0.1284  0.6116
  171SAPE  H13R19383   3.245   3.746   5.339 -0.8700 -0.5727 -0.0388
  171SAPE  H13S19384   3.179   3.734   5.497 -2.1325  0.1693 -1.0304
  171SAPE  C21419385   3.156   3.555   5.392 -0.1732  0.4548 -0.1261
  171SAPE  H14R19386   3.149   3.487   5.478  3.9979 -1.5284 -1.1090
  171SAPE  C21519387   3.066   3.534   5.290 -0.4310  0.7757 -0.0950
  171SAPE  H15R19388   3.012   3.438   5.295 -1.3013  1.2006 -1.0797
  171SAPE  C21619389   3.045   3.617   5.167 -0.1499  0.2755  0.6783
  171SAPE  H16R19390   3.083   3.721   5.170 -1.5576  0.8378  0.1701
  171SAPE  H16S19391   2.938   3.627   5.139  0.3462 -1.1898 -2.1453
  171SAPE  C21719392   3.124   3.554   5.053  1.2775 -0.0567 -0.6527
  171SAPE  H17R19393   3.097   3.622   4.969 -1.2738 -0.0455  0.0901
  171SAPE  H17S19394   3.087   3.453   5.026 -0.7369 -0.7441  3.8776
  171SAPE  C21819395   3.272   3.544   5.064  0.6243  0.0707  0.4789
  171SAPE  H18R19396   3.307   3.467   5.136  1.3009 -0.3470 -0.2869
  171SAPE  H18S19397   3.320   3.637   5.102  1.0672 -0.2892  0.7995
  171SAPE  C21919398   3.349   3.515   4.938  0.2467 -0.7001  1.3762
  171SAPE  H19R19399   3.366   3.611   4.884 -1.8015 -0.8209  0.4511
  171SAPE  H19S19400   3.304   3.433   4.877  1.7448 -0.1170 -0.6587
  171SAPE  C22019401   3.492   3.476   4.985 -0.4297 -0.4950 -0.3400
  171SAPE  H20R19402   3.516   3.525   5.082  2.1537 -2.5398  0.1393
  171SAPE  H20S19403   3.505   3.366   4.981  0.6573 -0.4364  0.9822
  171SAPE  H20T19404   3.564   3.528   4.918  0.8723 -0.7204  0.8622
  171SAPE   C3319405   3.117   4.125   5.554 -0.2856  0.2258  0.7902
  171SAPE   H3X19406   3.015   4.081   5.564  1.1735 -3.5739  0.5843
  171SAPE   H3Y19407   3.181   4.036   5.573 -0.7879  0.3006  3.1147
  171SAPE   C3419408   3.158   4.181   5.415 -0.0323 -0.1788  0.1991
  171SAPE   H4X19409   3.264   4.212   5.423  0.1432 -0.8893  0.6760
  171SAPE   H4Y19410   3.105   4.277   5.395 -0.2192  0.4323  3.1910
  171SAPE   C3519411   3.130   4.093   5.289 -0.1530  0.7099  0.2246
  171SAPE   H5X19412   3.019   4.092   5.278 -0.2203  0.7761  0.8566
  171SAPE   H5Y19413   3.170   3.992   5.310  0.8274  0.7306 -1.3916
  171SAPE   C3619414   3.199   4.143   5.166  0.5136  0.3637  0.2836
  171SAPE   H6X19415   3.300   4.180   5.192  1.1548 -0.5575 -0.7921
  171SAPE   H6Y19416   3.134   4.223   5.124 -0.3207  1.2708  3.0753
  171SAPE   C3719417   3.214   4.046   5.049  0.7757  0.1436 -0.2629
  171SAPE   H7X19418   3.256   3.947   5.079  1.4464  0.2057 -0.9431
  171SAPE   H7Y19419   3.286   4.099   4.983  2.8967  1.7614  3.0525
  171SAPE   C3819420   3.079   4.020   4.980  0.1893  0.2898 -0.2329
  171SAPE   H8X19421   3.029   4.119   4.967  1.4639  0.9159 -0.5636
  171SAPE   H8Y19422   3.020   3.954   5.047 -0.6272  0.5218 -0.7037
  171SAPE   C3919423   3.103   3.951   4.845  0.4906  0.3841  0.2382
  171SAPE   H9X19424   3.179   3.869   4.850  1.2359  1.0724  0.4884
  171SAPE   H9Y19425   3.144   4.022   4.771 -0.7634  0.2170 -0.6325
  171SAPE  C31019426   2.963   3.894   4.795 -0.0307 -0.0717  0.8199
  171SAPE  H10X19427   2.888   3.975   4.810  0.4594  0.9381 -1.6403
  171SAPE  H10Y19428   2.924   3.814   4.862 -1.2729  0.7542  1.1228
  171SAPE  C31119429   2.952   3.853   4.649  0.0105  0.2370  0.1290
  171SAPE  H11X19430   3.001   3.934   4.591 -0.6523 -0.4132 -1.4008
  171SAPE  H11Y19431   2.845   3.846   4.619 -0.1871  2.0736  0.3016
  171SAPE  C31219432   3.021   3.719   4.614 -0.5653  0.0904  0.5525
  171SAPE  H12X19433   2.989   3.641   4.687 -1.1060  0.2914  0.5364
  171SAPE  H12Y19434   3.131   3.725   4.623 -0.1801 -0.8584 -2.3903
  171SAPE  C31319435   3.002   3.671   4.470 -0.8384 -0.4698  0.5878
  171SAPE  H13X19436   2.892   3.674   4.459 -0.8360  1.4911  0.7328
  171SAPE  H13Y19437   3.038   3.567   4.456 -0.7398 -0.2969 -0.5503
  171SAPE  C31419438   3.055   3.758   4.351  0.0752  0.1657  0.0568
  171SAPE  H14X19439   3.033   3.864   4.375  0.0238 -0.3572  2.6167
  171SAPE  H14Y19440   2.990   3.735   4.264  1.4669 -0.1837 -0.9337
  171SAPE  C31519441   3.206   3.732   4.305  0.6239 -0.5007 -0.3328
  171SAPE  H15X19442   3.192   3.646   4.237 -0.1854 -1.9158  1.5518
  171SAPE  H15Y19443   3.265   3.701   4.393  0.1368 -2.9777 -0.8193
  171SAPE  C31619444   3.272   3.846   4.230 -0.3314 -0.4903  0.3012
  171SAPE  H16X19445   3.267   3.928   4.304 -2.9527 -1.7923  1.7427
  171SAPE  H16Y19446   3.217   3.888   4.143 -0.4770  1.2279  1.1936
  171SAPE  C31719447   3.412   3.814   4.190 -0.3621 -0.1835  0.4865
  171SAPE  H17X19448   3.431   3.717   4.139 -0.1617 -0.7907  1.6920
  171SAPE  H17Y19449   3.476   3.815   4.280  0.5675 -2.2583 -0.1094
  171SAPE  C31819450   3.473   3.919   4.087  0.1653 -0.0086 -0.1684
  171SAPE  H18X19451   3.443   4.017   4.130  0.5897 -0.2436  0.6884
  171SAPE  H18Y19452   3.425   3.896   3.989 -0.9487 -0.1060  0.3809
  171SAPE  H18Z19453   3.583   3.908   4.084  0.1859  0.3891 -1.1744
  172SAPE     N19454   1.292   4.963   6.659 -0.3792 -0.1775  0.0602
  172SAPE   HN119455   1.204   4.908   6.660  0.3382 -1.3743  0.9136
  172SAPE   HN219456   1.347   4.908   6.728  0.2041 -1.9651 -1.7530
  172SAPE   HN319457   1.275   5.060   6.693  0.8959 -0.3128  1.1870
  172SAPE   C1219458   1.361   4.970   6.532  0.7884  0.4065  0.0350
  172SAPE  H12A19459   1.292   4.986   6.446  0.5829  0.5801  0.2303
  172SAPE  H12B19460   1.410   4.873   6.510 -1.0106 -1.2822  2.8239
  172SAPE   C1119461   1.476   5.072   6.545 -0.2912 -0.6323  0.1542
  172SAPE  H11A19462   1.434   5.173   6.564  1.3284 -0.0335  0.6484
  172SAPE  H11B19463   1.532   5.071   6.450  0.4617 -0.0685  0.5869
  172SAPE     P19464   1.644   4.920   6.693  0.3229 -0.1136 -0.4465
  172SAPE   O1319465   1.760   4.965   6.774  0.1124  0.5959  0.0455
  172SAPE   O1419466   1.550   4.822   6.754  0.7444  0.3744 -0.7259
  172SAPE   O1219467   1.563   5.049   6.656 -0.2221  0.5624  0.2738
  172SAPE   O1119468   1.683   4.863   6.550  0.1720  0.0322 -0.1688
  172SAPE    C119469   1.794   4.934   6.481  0.1437  0.5394 -0.2402
  172SAPE    HA19470   1.777   5.044   6.484  0.3073  0.6559 -2.2671
  172SAPE    HB19471   1.888   4.902   6.532  0.7109  0.1919 -1.4502
  172SAPE    C219472   1.805   4.889   6.334 -0.5900  0.4219 -0.4529
  172SAPE    HS19473   1.888   4.951   6.293  0.1224  0.5884  1.1411
  172SAPE   O2119474   1.685   4.909   6.262 -0.2803  0.0766 -0.1868
  172SAPE   C2119475   1.655   5.027   6.209 -0.1565 -0.3694  0.4823
  172SAPE   O2219476   1.718   5.131   6.230 -0.0114 -0.4920 -0.0872
  172SAPE   C2219477   1.547   5.025   6.106  0.3065  0.2650  0.2329
  172SAPE   H2R19478   1.536   4.922   6.066  1.7317  0.8699 -1.8599
  172SAPE   H2S19479   1.453   5.061   6.152 -0.7314 -0.7380 -1.0498
  172SAPE    C319480   1.866   4.745   6.318 -0.4221  0.5230 -0.2368
  172SAPE    HX19481   1.793   4.666   6.345 -0.4322  0.2250 -1.1256
  172SAPE    HY19482   1.945   4.716   6.391  0.8911 -0.5019 -1.9924
  172SAPE   O3119483   1.923   4.733   6.183 -0.4728 -0.0496  0.5037
  172SAPE   C3119484   2.052   4.775   6.171  0.4266 -0.3848  0.2984
  172SAPE   O3219485   2.111   4.839   6.259  0.0678  0.3869  0.2365
  172SAPE   C3219486   2.116   4.734   6.040  0.1966  0.2898  0.2480
  172SAPE   H2X19487   2.209   4.675   6.056 -1.9925 -3.1474  1.3461
  172SAPE   H2Y19488   2.147   4.827   5.987  1.8613  0.9309  2.2170
  172SAPE   C2319489   1.579   5.117   5.987  0.2431  0.1945 -0.0907
  172SAPE   H3R19490   1.687   5.109   5.961  0.1929  1.5512 -0.7884
  172SAPE   H3S19491   1.561   5.223   6.016 -0.8995  0.1696 -0.6403
  172SAPE   C2419492   1.490   5.087   5.864  0.7676  0.2791  0.2158
  172SAPE   H4R19493   1.387   5.122   5.886  0.0071 -1.9844  0.5940
  172SAPE   H4S19494   1.475   4.977   5.855 -1.3387  0.3995  1.5755
  172SAPE   C2519495   1.536   5.143   5.738 -0.0592 -0.7058  0.2062
  172SAPE   H5R19496   1.541   5.252   5.729 -2.2379 -0.3796  1.8499
  172SAPE   C2619497   1.546   5.083   5.619  0.0606  0.4328  0.8414
  172SAPE   H6R19498   1.579   5.140   5.531 -0.6273 -2.1016 -1.1892
  172SAPE   C2719499   1.527   4.938   5.585  0.7091 -0.1860  0.0748
  172SAPE   H7R19500   1.423   4.913   5.558  0.5559  0.1111  0.3881
  172SAPE   H7S19501   1.558   4.870   5.667 -0.2343  0.4168  0.9565
  172SAPE   C2819502   1.602   4.901   5.458  0.0130 -0.1614  0.3034
  172SAPE   H8R19503   1.690   4.841   5.485 -0.5786 -0.6648  1.1311
  172SAPE   C2919504   1.582   4.939   5.333  0.1917 -0.0111  0.7481
  172SAPE   H9R19505   1.649   4.903   5.254 -2.4749 -2.3925 -0.6014
  172SAPE  C21019506   1.468   5.019   5.276 -0.7762 -0.4710 -0.8702
  172SAPE  H10R19507   1.376   5.019   5.338 -0.7236  2.0515 -0.6829
  172SAPE  H10S19508   1.444   4.976   5.176  0.1861  0.9242 -1.7368
  172SAPE  C21119509   1.512   5.163   5.259 -0.2672 -0.3022 -0.1759
  172SAPE  H11R19510   1.596   5.202   5.318 -0.9168  1.8872 -0.6158
  172SAPE  C21219511   1.481   5.247   5.156 -0.1335  0.1001  0.0355
  172SAPE  H12R19512   1.523   5.348   5.149  0.7362 -0.3215 -0.9491
  172SAPE  C21319513   1.376   5.212   5.046 -0.4138 -0.1331 -0.2683
  172SAPE  H13R19514   1.278   5.219   5.099  0.3679 -2.8036  1.7423
  172SAPE  H13S19515   1.378   5.101   5.036 -2.1026 -0.2195  0.0190
  172SAPE  C21419516   1.389   5.291   4.915  0.2830  0.0071 -0.2408
  172SAPE  H14R19517   1.315   5.371   4.901  0.5086  0.2284 -0.1929
  172SAPE  C21519518   1.476   5.279   4.815  1.2076  0.1518  0.2466
  172SAPE  H15R19519   1.476   5.347   4.728 -0.9253 -1.9049 -1.5181
  172SAPE  C21619520   1.588   5.174   4.803  0.2814 -0.1906 -0.0164
  172SAPE  H16R19521   1.596   5.115   4.897  1.9488  1.4832  0.9427
  172SAPE  H16S19522   1.685   5.228   4.810  0.6687 -0.7062 -1.1431
  172SAPE  C21719523   1.578   5.077   4.682  0.1460 -0.4556 -0.1747
  172SAPE  H17R19524   1.673   5.020   4.676  1.1637  1.1786 -0.3631
  172SAPE  H17S19525   1.571   5.141   4.592 -0.3301  1.7303  1.3299
  172SAPE  C21819526   1.459   4.980   4.690  0.3598 -0.0752  0.1392
  172SAPE  H18R19527   1.445   4.945   4.585  0.9613  2.2862 -0.7994
  172SAPE  H18S19528   1.357   5.013   4.716 -0.5752 -2.2152 -0.5748
  172SAPE  C21919529   1.478   4.863   4.791  0.5437  0.5374  0.0560
  172SAPE  H19R19530   1.449   4.898   4.892  0.5155  0.3317  0.1189
  172SAPE  H19S19531   1.587   4.840   4.799  0.2013 -0.7807  1.5061
  172SAPE  C22019532   1.384   4.750   4.752 -0.5137  0.0052 -0.3973
  172SAPE  H20R19533   1.278   4.774   4.777 -0.3030 -1.1905  1.9430
  172SAPE  H20S19534   1.413   4.665   4.817  0.8508 -0.5195 -1.6440
  172SAPE  H20T19535   1.395   4.719   4.646  2.3918 -0.2054 -0.0988
  172SAPE   C3319536   2.026   4.640   5.955  0.6101 -0.3800  0.0717
  172SAPE   H3X19537   1.921   4.678   5.955  0.7092 -0.0898  0.7431
  172SAPE   H3Y19538   2.032   4.539   6.000  1.7136 -1.5445 -2.4902
  172SAPE   C3419539   2.070   4.617   5.811 -0.8568  0.4431  0.1188
  172SAPE   H4X19540   2.012   4.529   5.777 -1.0208  1.0629 -1.2896
  172SAPE   H4Y19541   2.181   4.607   5.810 -0.7188  1.7414  0.3242
  172SAPE   C3519542   2.032   4.730   5.722  0.1468  0.0300 -0.5929
  172SAPE   H5X19543   2.050   4.832   5.762  0.7887 -0.6050  0.7970
  172SAPE   H5Y19544   1.921   4.735   5.709 -0.2917  0.2274  2.4675
  172SAPE   C3619545   2.097   4.718   5.581 -0.3020 -0.6205  0.3287
  172SAPE   H6X19546   2.076   4.617   5.541 -2.7528 -0.5563  1.3059
  172SAPE   H6Y19547   2.203   4.720   5.614 -0.6532  1.6128  1.5182
  172SAPE   C3719548   2.077   4.839   5.490  0.4158  0.5355 -0.8447
  172SAPE   H7X19549   2.131   4.931   5.522 -1.1068  1.0793  0.2393
  172SAPE   H7Y19550   1.967   4.854   5.483  0.3860  1.0083  0.4080
  172SAPE   C3819551   2.119   4.807   5.344  0.0005 -0.3396 -0.1100
  172SAPE   H8X19552   2.073   4.714   5.305 -0.3895 -0.2034  0.0193
  172SAPE   H8Y19553   2.226   4.784   5.362 -0.0806 -0.5294  0.1381
  172SAPE   C3919554   2.076   4.926   5.259 -0.1422  0.0851  1.0763
  172SAPE   H9X19555   2.145   5.012   5.273  1.9099 -1.0756 -1.1866
  172SAPE   H9Y19556   1.977   4.961   5.295 -0.3558 -1.0628  1.6668
  172SAPE  C31019557   2.075   4.888   5.106 -0.1115  0.0664  0.0947
  172SAPE  H10X19558   2.012   4.799   5.085  0.2413  0.3279 -2.4260
  172SAPE  H10Y19559   2.184   4.865   5.097  0.4348  0.9129  3.3912
  172SAPE  C31119560   2.022   5.008   5.016  0.2829 -0.0967 -0.5700
  172SAPE  H11X19561   2.077   5.104   5.022 -0.1277  0.1469 -0.7142
  172SAPE  H11Y19562   1.918   5.032   5.045  0.2538  1.1951 -1.6801
  172SAPE  C31219563   2.019   4.958   4.868 -0.4003  0.0743 -0.4660
  172SAPE  H12X19564   1.947   4.878   4.842 -0.8172  1.0981 -2.6588
  172SAPE  H12Y19565   2.116   4.912   4.841  1.1650  0.3208  3.8942
  172SAPE  C31319566   1.987   5.066   4.769 -0.1501 -0.3348  1.0404
  172SAPE  H13X19567   2.048   5.158   4.780  0.2282 -0.2715 -1.1816
  172SAPE  H13Y19568   1.882   5.101   4.772 -0.4230 -0.8796 -0.9778
  172SAPE  C31419569   2.018   5.013   4.625 -0.7281 -0.1446  0.4313
  172SAPE  H14X19570   1.990   4.906   4.612  0.8089 -0.5260  0.0117
  172SAPE  H14Y19571   2.128   5.016   4.614 -0.7177  1.6282  0.8213
  172SAPE  C31519572   1.946   5.087   4.506  0.0847  0.2951 -0.8395
  172SAPE  H15X19573   1.969   5.196   4.495  0.3153  0.3237 -0.1421
  172SAPE  H15Y19574   1.839   5.089   4.536  0.0788  1.0894 -0.8952
  172SAPE  C31619575   1.957   5.019   4.375  0.2431 -0.2197 -0.2999
  172SAPE  H16X19576   1.883   5.065   4.306  1.4650  1.2802 -0.6549
  172SAPE  H16Y19577   1.951   4.908   4.376  1.6438 -0.3291 -1.0286
  172SAPE  C31719578   2.087   5.058   4.292  0.1248 -0.2929  0.8242
  172SAPE  H17X19579   2.178   5.031   4.349  0.0341  1.0834  1.6808
  172SAPE  H17Y19580   2.071   5.168   4.283 -1.9734 -0.5690  0.6898
  172SAPE  C31819581   2.095   4.994   4.152  0.2727  0.0347  0.0549
  172SAPE  H18X19582   2.191   5.018   4.102 -0.7802 -1.2356 -2.7964
  172SAPE  H18Y19583   2.008   5.016   4.087  0.8278  1.0026 -0.3914
  172SAPE  H18Z19584   2.096   4.883   4.160  1.6873 -0.2675 -2.9966
  173SAPE     N19585   0.911   2.758   6.917  0.3095  0.0757 -0.4297
  173SAPE   HN119586   0.821   2.706   6.904  0.3705  0.0666 -0.8290
  173SAPE   HN219587   0.939   2.798   6.826  1.2503 -2.6295 -1.4457
  173SAPE   HN319588   0.984   2.696   6.959 -1.1051 -0.2717  1.7255
  173SAPE   C1219589   0.902   2.870   7.015  0.2596 -0.3950  0.1514
  173SAPE  H12A19590   0.994   2.933   7.018 -1.1084  1.6966  0.7796
  173SAPE  H12B19591   0.882   2.829   7.116  0.6377 -0.8215  0.0538
  173SAPE   C1119592   0.794   2.966   6.963 -0.4619  0.0443  0.3952
  173SAPE  H11A19593   0.846   3.033   6.890 -0.8828 -0.7680 -0.6879
  173SAPE  H11B19594   0.768   3.032   7.048  1.8776 -3.4277  4.2186
  173SAPE     P19595   0.585   3.003   6.820 -0.2868  0.0709 -0.0702
  173SAPE   O1319596   0.460   3.010   6.899  0.3388 -0.1793  0.0269
  173SAPE   O1419597   0.662   3.131   6.792  0.0933  0.5373  0.6048
  173SAPE   O1219598   0.686   2.903   6.886  0.0416 -0.1957 -0.1784
  173SAPE   O1119599   0.558   2.930   6.690 -0.1261 -0.1451  0.2932
  173SAPE    C119600   0.581   2.788   6.685 -0.0636  0.0425 -0.1151
  173SAPE    HA19601   0.690   2.768   6.695 -0.3711 -1.3755  0.8891
  173SAPE    HB19602   0.526   2.727   6.761  0.5396 -0.3771 -0.0074
  173SAPE    C219603   0.552   2.719   6.549  0.3345  0.2570  0.3157
  173SAPE    HS19604   0.626   2.637   6.539  0.7964  0.9497 -3.0705
  173SAPE   O2119605   0.559   2.812   6.442 -0.1648 -0.3411  0.1080
  173SAPE   C2119606   0.680   2.873   6.431  0.2498 -0.1987  0.2809
  173SAPE   O2219607   0.788   2.827   6.454 -0.3217 -0.1129  0.4221
  173SAPE   C2219608   0.665   3.011   6.370 -0.0396  0.4153  0.0418
  173SAPE   H2R19609   0.581   3.050   6.432 -1.8966 -4.7048  1.2844
  173SAPE   H2S19610   0.754   3.076   6.382  1.2294 -1.1984 -0.3444
  173SAPE    C319611   0.409   2.656   6.534 -0.1013 -0.0220  1.3599
  173SAPE    HX19612   0.337   2.736   6.562 -1.5808 -0.3653 -1.1544
  173SAPE    HY19613   0.400   2.574   6.609 -0.6063 -0.7146  0.5625
  173SAPE   O3119614   0.374   2.608   6.399  0.3185 -0.7108  0.0116
  173SAPE   C3119615   0.436   2.494   6.373 -0.8438  0.3768  0.2064
  173SAPE   O3219616   0.529   2.450   6.439  0.1797 -0.6566  0.0832
  173SAPE   C3219617   0.376   2.418   6.252 -0.2945  0.3026  0.1790
  173SAPE   H2X19618   0.266   2.405   6.261 -0.0851 -1.3128  0.9389
  173SAPE   H2Y19619   0.410   2.313   6.263  0.4240  0.5344  0.2099
  173SAPE   C2319620   0.630   3.008   6.218  0.2856 -0.1940  0.1063
  173SAPE   H3R19621   0.617   3.111   6.179  3.2938  0.5383  0.7879
  173SAPE   H3S19622   0.533   2.956   6.206 -0.5067  1.3496 -0.4973
  173SAPE   C2419623   0.725   2.924   6.129  0.1208 -0.4596  0.4165
  173SAPE   H4R19624   0.736   2.823   6.175  1.6642  0.2521  1.7164
  173SAPE   H4S19625   0.828   2.966   6.135  0.0753 -0.5609  2.8285
  173SAPE   C2519626   0.682   2.931   5.986  0.4641 -0.1124 -0.4509
  173SAPE   H5R19627   0.601   2.862   5.956  0.8652 -0.0711 -1.6511
  173SAPE   C2619628   0.734   3.014   5.893 -0.0822 -0.2204  0.1504
  173SAPE   H6R19629   0.708   3.004   5.787  3.6170 -2.8771 -0.6971
  173SAPE   C2719630   0.843   3.120   5.912  0.1385  0.1572 -0.8793
  173SAPE   H7R19631   0.871   3.172   5.819  2.3972  0.8386  0.1127
  173SAPE   H7S19632   0.940   3.071   5.934 -0.3224 -0.0412  0.8660
  173SAPE   C2819633   0.812   3.228   6.010 -0.3135 -0.4883 -0.0269
  173SAPE   H8R19634   0.712   3.272   6.018  1.1108  2.7978  1.3929
  173SAPE   C2919635   0.897   3.280   6.099 -0.3448 -0.3758  0.0787
  173SAPE   H9R19636   0.868   3.358   6.170  2.4608  2.2951 -1.4720
  173SAPE  C21019637   1.039   3.239   6.125  0.6283  0.6304  0.7437
  173SAPE  H10R19638   1.111   3.244   6.041  1.1388  0.7853  1.1836
  173SAPE  H10S19639   1.027   3.129   6.138 -1.2832  0.6262 -0.6189
  173SAPE  C21119640   1.107   3.306   6.244 -0.0973  0.1261  0.1137
  173SAPE  H11R19641   1.065   3.276   6.341  0.5797  0.6332  0.5743
  173SAPE  C21219642   1.201   3.406   6.244  1.0828 -0.5359 -0.7124
  173SAPE  H12R19643   1.223   3.436   6.348 -1.1739 -2.3147  0.3942
  173SAPE  C21319644   1.267   3.480   6.135  0.2716 -0.1844  0.6645
  173SAPE  H13R19645   1.303   3.401   6.065  0.7844  0.3539  0.3153
  173SAPE  H13S19646   1.356   3.536   6.169  0.5739 -1.2757  1.7271
  173SAPE  C21419647   1.175   3.582   6.071 -0.0650 -0.1157 -0.6724
  173SAPE  H14R19648   1.095   3.627   6.132  1.0342  0.9109  0.0318
  173SAPE  C21519649   1.202   3.639   5.955 -0.2427  0.5364  0.0228
  173SAPE  H15R19650   1.129   3.711   5.914 -1.9898 -0.1538  1.7545
  173SAPE  C21619651   1.318   3.601   5.864 -0.6780 -0.1788 -0.3445
  173SAPE  H16R19652   1.385   3.520   5.898 -0.8206 -0.9497 -1.8199
  173SAPE  H16S19653   1.373   3.695   5.842 -0.6889 -0.2292 -0.5960
  173SAPE  C21719654   1.257   3.542   5.740 -0.3661 -0.4011  0.6574
  173SAPE  H17R19655   1.182   3.611   5.695 -0.2158 -0.3921  0.4162
  173SAPE  H17S19656   1.201   3.450   5.767 -1.8202  0.4589  0.6840
  173SAPE  C21819657   1.359   3.510   5.634 -0.2180  0.0024  0.2232
  173SAPE  H18R19658   1.319   3.426   5.573 -0.9358  0.7423 -0.3641
  173SAPE  H18S19659   1.450   3.487   5.693  0.3878 -0.7680 -0.9740
  173SAPE  C21919660   1.380   3.628   5.540  0.9643 -0.5512  0.1378
  173SAPE  H19R19661   1.420   3.713   5.598 -1.8255  0.0962  1.2341
  173SAPE  H19S19662   1.287   3.669   5.495  0.0914 -0.3498  2.0243
  173SAPE  C22019663   1.474   3.598   5.423 -0.6653  0.0595  0.3640
  173SAPE  H20R19664   1.446   3.501   5.378 -3.7332 -0.5269  3.1545
  173SAPE  H20S19665   1.579   3.611   5.457 -0.1776  0.7345 -1.3271
  173SAPE  H20T19666   1.458   3.681   5.350  3.3988 -0.1081 -0.9721
  173SAPE   C3319667   0.419   2.469   6.118  0.4634  0.1768 -0.1286
  173SAPE   H3X19668   0.482   2.559   6.132 -0.2363  0.8921 -1.3793
  173SAPE   H3Y19669   0.335   2.516   6.063  1.4130  0.8782 -1.0252
  173SAPE   C3419670   0.477   2.359   6.024  0.4225 -0.0988 -0.6477
  173SAPE   H4X19671   0.403   2.279   6.001 -0.7080  0.8940 -0.5699
  173SAPE   H4Y19672   0.566   2.315   6.074 -0.5421  0.4895  1.7212
  173SAPE   C3519673   0.502   2.406   5.876 -0.3732 -0.5631  0.1047
  173SAPE   H5X19674   0.406   2.453   5.845 -0.1945  0.4975  1.1078
  173SAPE   H5Y19675   0.513   2.318   5.809 -1.5135  0.5528 -1.6472
  173SAPE   C3619676   0.634   2.486   5.866  0.2124 -0.3721  0.0859
  173SAPE   H6X19677   0.708   2.432   5.929 -2.6332 -3.0128  1.4254
  173SAPE   H6Y19678   0.618   2.586   5.912 -1.6406  0.3957 -2.0361
  173SAPE   C3719679   0.686   2.528   5.728 -0.4184  0.2769 -0.4745
  173SAPE   H7X19680   0.598   2.557   5.667 -2.7086 -2.4604  1.2555
  173SAPE   H7Y19681   0.720   2.433   5.681 -0.7906  0.4398 -1.0858
  173SAPE   C3819682   0.801   2.633   5.736  0.2588  0.6734  0.1262
  173SAPE   H8X19683   0.865   2.605   5.822  1.2465 -0.8527 -1.0424
  173SAPE   H8Y19684   0.753   2.731   5.756 -3.6151 -0.9155 -0.4752
  173SAPE   C3919685   0.885   2.663   5.611  0.2230  0.8805 -0.0725
  173SAPE   H9X19686   0.901   2.563   5.566 -3.2698  0.2914 -0.3284
  173SAPE   H9Y19687   0.977   2.721   5.631 -1.6827  2.8750  3.9299
  173SAPE  C31019688   0.803   2.740   5.506 -0.1001 -0.0371  0.8110
  173SAPE  H10X19689   0.816   2.849   5.526  0.7731 -0.4080  2.4450
  173SAPE  H10Y19690   0.700   2.703   5.526 -0.0675 -0.7974 -0.3623
  173SAPE  C31119691   0.844   2.707   5.359  0.7488 -0.1045  0.0944
  173SAPE  H11X19692   0.761   2.721   5.286  1.2736  4.3517  0.1183
  173SAPE  H11Y19693   0.885   2.604   5.374 -1.1074 -0.5228  3.0474
  173SAPE  C31219694   0.959   2.780   5.299 -0.3187  0.5874  0.7006
  173SAPE  H12X19695   1.043   2.786   5.371 -1.4505  4.1732  1.9322
  173SAPE  H12Y19696   0.922   2.881   5.274  1.5460  1.0012 -0.5051
  173SAPE  C31319697   0.995   2.720   5.161 -0.7766  0.0201  0.8588
  173SAPE  H13X19698   0.900   2.713   5.104 -0.1976  0.7653 -0.2353
  173SAPE  H13Y19699   1.038   2.618   5.174  1.6706  0.8467 -0.1544
  173SAPE  C31419700   1.092   2.809   5.078 -0.1798 -0.4223  0.0565
  173SAPE  H14X19701   1.184   2.820   5.140 -0.4589 -1.2517  0.6403
  173SAPE  H14Y19702   1.059   2.914   5.062  2.8920  0.4691 -1.1173
  173SAPE  C31519703   1.130   2.748   4.948 -0.5839  0.1510 -0.3909
  173SAPE  H15X19704   1.043   2.729   4.882 -0.1137 -1.8104 -0.5252
  173SAPE  H15Y19705   1.178   2.655   4.986 -0.9815 -0.1033 -0.5078
  173SAPE  C31619706   1.232   2.818   4.857 -0.2076  0.1196  0.0539
  173SAPE  H16X19707   1.193   2.913   4.814  1.0208  0.8813  0.5696
  173SAPE  H16Y19708   1.236   2.741   4.777 -0.0269 -0.4830  0.6348
  173SAPE  C31719709   1.375   2.843   4.906  0.4333  0.3425  0.5997
  173SAPE  H17X19710   1.410   2.739   4.920 -1.2129 -0.4951 -1.0758
  173SAPE  H17Y19711   1.356   2.899   5.000 -2.6193  2.4422 -1.0660
  173SAPE  C31819712   1.451   2.935   4.806  0.5482  0.1650 -0.4396
  173SAPE  H18X19713   1.391   3.027   4.796 -0.3452 -0.6083 -2.6180
  173SAPE  H18Y19714   1.463   2.895   4.703 -1.1919  0.8536 -0.9393
  173SAPE  H18Z19715   1.551   2.955   4.852  1.1212 -3.3896  0.2095
  174SAPE     N19716   2.004   4.534   6.882  0.6004  0.0664  0.3229
  174SAPE   HN119717   1.982   4.552   6.982 -1.9557 -1.8108  0.1793
  174SAPE   HN219718   2.012   4.431   6.873  0.6866  0.0863  0.1783
  174SAPE   HN319719   2.097   4.570   6.853  0.3978  0.3754  0.0566
  174SAPE   C1219720   1.895   4.580   6.777 -0.2998  0.3814  0.2097
  174SAPE  H12A19721   1.871   4.688   6.790 -1.1222  0.0484  1.6382
  174SAPE  H12B19722   1.797   4.538   6.810 -0.1567 -0.2726 -0.1703
  174SAPE   C1119723   1.928   4.569   6.629  0.1144  0.0522 -0.1572
  174SAPE  H11A19724   2.009   4.636   6.594 -1.0020  1.4923 -0.1094
  174SAPE  H11B19725   1.839   4.592   6.567  1.2813  1.3433 -1.4258
  174SAPE     P19726   2.099   4.380   6.531 -0.3580  0.5031 -0.6874
  174SAPE   O1319727   2.199   4.477   6.560 -0.5686  0.0159 -0.4214
  174SAPE   O1419728   2.118   4.234   6.561  0.3188  0.0796  0.2275
  174SAPE   O1219729   1.965   4.435   6.605 -0.5692 -0.4248 -0.3689
  174SAPE   O1119730   2.057   4.388   6.382 -0.8532 -0.5402  0.3216
  174SAPE    C119731   1.922   4.336   6.339 -0.6689  0.7111 -0.2124
  174SAPE    HA19732   1.850   4.318   6.422 -0.7735  1.7159 -0.0627
  174SAPE    HB19733   1.875   4.421   6.285 -1.9897  1.0384  1.3586
  174SAPE    C219734   1.938   4.210   6.248 -0.3822  0.6650 -0.3352
  174SAPE    HS19735   1.971   4.132   6.320  0.6851 -0.1822 -1.6797
  174SAPE   O2119736   2.043   4.234   6.152  0.2248  0.4268  0.0737
  174SAPE   C2119737   2.058   4.144   6.061 -0.0812  0.4023  0.4194
  174SAPE   O2219738   2.013   4.032   6.055  0.1586 -0.2392 -0.2193
  174SAPE   C2219739   2.158   4.201   5.956  0.5899 -0.2359  0.6822
  174SAPE   H2R19740   2.085   4.251   5.888 -0.1747 -1.2163  0.7561
  174SAPE   H2S19741   2.234   4.273   5.994  1.3963 -0.5450 -0.3192
  174SAPE    C319742   1.810   4.178   6.173  0.3718 -1.0397  0.3840
  174SAPE    HX19743   1.727   4.176   6.248  1.9245 -0.0788  2.2148
  174SAPE    HY19744   1.801   4.075   6.132 -1.7823 -0.7590  0.0393
  174SAPE   O3119745   1.786   4.272   6.066  0.4747  0.1281 -0.1640
  174SAPE   C3119746   1.708   4.379   6.087  0.4447 -0.6961  0.5311
  174SAPE   O3219747   1.655   4.413   6.194  0.0121  0.2258 -0.0423
  174SAPE   C3219748   1.689   4.446   5.948  0.0158  0.2893 -0.4868
  174SAPE   H2X19749   1.671   4.363   5.877 -1.4080 -0.6264  0.8805
  174SAPE   H2Y19750   1.783   4.503   5.932 -0.3214  0.6359 -1.3064
  174SAPE   C2319751   2.234   4.106   5.859 -0.1890  0.5305  0.3749
  174SAPE   H3R19752   2.168   4.034   5.807  2.3106 -2.3532  0.9307
  174SAPE   H3S19753   2.306   4.047   5.920  2.0037  1.3919 -1.2311
  174SAPE   C2419754   2.315   4.186   5.760 -0.1617 -0.2658 -0.2208
  174SAPE   H4R19755   2.396   4.240   5.813  1.4855 -0.9497 -1.9040
  174SAPE   H4S19756   2.254   4.269   5.718  1.3664  0.8713 -0.2594
  174SAPE   C2519757   2.389   4.088   5.670 -0.3094 -0.4514 -0.3436
  174SAPE   H5R19758   2.455   4.015   5.718 -0.1072  0.8528  1.4616
  174SAPE   C2619759   2.382   4.094   5.535  0.5783  0.2024  0.0477
  174SAPE   H6R19760   2.442   4.020   5.478 -1.5654 -0.7997 -1.0327
  174SAPE   C2719761   2.293   4.183   5.450  0.9108  0.0550  0.8224
  174SAPE   H7R19762   2.330   4.288   5.459 -1.1425  1.1269 -2.0320
  174SAPE   H7S19763   2.187   4.188   5.482  0.3800 -0.5093 -0.7546
  174SAPE   C2819764   2.292   4.135   5.311  0.3692  0.7645  0.0024
  174SAPE   H8R19765   2.258   4.031   5.304  3.9037 -0.6324  1.0250
  174SAPE   C2919766   2.327   4.196   5.199  0.5844 -0.0860  0.3753
  174SAPE   H9R19767   2.315   4.134   5.109  0.3716  0.9695 -0.3416
  174SAPE  C21019768   2.369   4.337   5.188  0.2640 -1.1765  0.5651
  174SAPE  H10R19769   2.440   4.350   5.104 -0.0967 -1.3154  0.2376
  174SAPE  H10S19770   2.434   4.357   5.276  0.4769  1.0117 -0.0272
  174SAPE  C21119771   2.249   4.434   5.188  0.0523  0.0737 -0.3117
  174SAPE  H11R19772   2.220   4.481   5.283  1.9322 -0.1186  0.3966
  174SAPE  C21219773   2.180   4.476   5.085 -0.2900  0.0552  0.5429
  174SAPE  H12R19774   2.100   4.548   5.110 -1.8586 -1.5066  0.2391
  174SAPE  C21319775   2.211   4.445   4.938  0.3388  0.0339  0.4939
  174SAPE  H13R19776   2.120   4.391   4.902  1.4356 -0.1648 -2.1681
  174SAPE  H13S19777   2.302   4.383   4.924  1.3336  1.5104  0.1397
  174SAPE  C21419778   2.247   4.566   4.852 -0.4018  0.7252  0.5453
  174SAPE  H14R19779   2.334   4.615   4.898  0.4693  0.0918 -0.3927
  174SAPE  C21519780   2.214   4.601   4.730 -0.4571  0.0895  1.1919
  174SAPE  H15R19781   2.256   4.694   4.689  0.7050 -0.3876  1.2626
  174SAPE  C21619782   2.111   4.533   4.636 -0.1051  0.0777  0.4587
  174SAPE  H16R19783   2.059   4.447   4.683  0.0781  0.0489  0.6075
  174SAPE  H16S19784   2.156   4.494   4.542 -1.7642  0.7325 -0.6586
  174SAPE  C21719785   2.002   4.638   4.590  0.0662 -0.4250  0.0912
  174SAPE  H17R19786   2.056   4.704   4.520  1.9225 -0.5252  1.3670
  174SAPE  H17S19787   1.969   4.697   4.678  1.6291 -0.6838  0.8805
  174SAPE  C21819788   1.885   4.577   4.511  0.4294  0.0871  0.4080
  174SAPE  H18R19789   1.919   4.534   4.414  2.1088  1.7454  0.1981
  174SAPE  H18S19790   1.812   4.658   4.490  1.4619  0.7101 -1.0170
  174SAPE  C21919791   1.798   4.469   4.581  0.9893  0.0284  0.0042
  174SAPE  H19R19792   1.777   4.512   4.681  1.4895  1.4231 -0.4705
  174SAPE  H19S19793   1.874   4.388   4.587  2.9646  1.7897 -0.0914
  174SAPE  C22019794   1.671   4.432   4.500  0.3995 -0.1265 -0.2094
  174SAPE  H20R19795   1.605   4.356   4.547  0.1593 -0.3615 -0.9138
  174SAPE  H20S19796   1.696   4.402   4.396  0.8384 -1.5661  0.2936
  174SAPE  H20T19797   1.612   4.526   4.498  1.8087  0.7977 -0.0140
  174SAPE   C3319798   1.573   4.550   5.954  0.2250 -0.2022  0.2817
  174SAPE   H3X19799   1.587   4.632   6.028  0.4114 -0.2885  0.3423
  174SAPE   H3Y19800   1.483   4.491   5.981  2.5542 -4.2881 -0.0707
  174SAPE   C3419801   1.538   4.607   5.813  0.3969  0.3414 -0.0195
  174SAPE   H4X19802   1.630   4.664   5.788  0.9696 -0.1506  0.8979
  174SAPE   H4Y19803   1.455   4.675   5.841 -0.2173 -1.0560  1.8194
  174SAPE   C3519804   1.494   4.507   5.702 -0.1024  0.4694  0.4126
  174SAPE   H5X19805   1.401   4.457   5.737  1.1260 -2.6496 -0.3898
  174SAPE   H5Y19806   1.570   4.426   5.697  0.1632  0.0888  5.4322
  174SAPE   C3619807   1.457   4.575   5.567  0.3962 -0.5083 -1.4044
  174SAPE   H6X19808   1.541   4.645   5.549 -0.1921  1.1468  1.5667
  174SAPE   H6Y19809   1.378   4.649   5.593  0.7068  0.3966 -2.9182
  174SAPE   C3719810   1.412   4.481   5.459  0.8557  0.6095 -0.3293
  174SAPE   H7X19811   1.334   4.415   5.504  1.7711  0.8665  1.7320
  174SAPE   H7Y19812   1.503   4.419   5.440  0.5986  0.8539 -2.6799
  174SAPE   C3819813   1.371   4.550   5.327 -0.2358  0.0864 -0.3710
  174SAPE   H8X19814   1.346   4.469   5.256  1.1147 -0.2151 -0.5418
  174SAPE   H8Y19815   1.454   4.616   5.293 -0.9227  1.1172 -0.1059
  174SAPE   C3919816   1.249   4.642   5.324  0.9439 -0.5722 -0.4628
  174SAPE   H9X19817   1.255   4.734   5.387  0.3759 -0.3697 -0.7021
  174SAPE   H9Y19818   1.162   4.577   5.348  3.3051 -3.5625  0.8037
  174SAPE  C31019819   1.231   4.701   5.185 -1.0037  0.5494  0.1703
  174SAPE  H10X19820   1.223   4.616   5.113 -1.0764  1.1893 -0.5854
  174SAPE  H10Y19821   1.323   4.755   5.155 -0.7360 -0.8116 -1.6405
  174SAPE  C31119822   1.109   4.795   5.180  0.4870  0.0397  0.1891
  174SAPE  H11X19823   1.137   4.893   5.222 -0.1574  0.3043  0.0017
  174SAPE  H11Y19824   1.033   4.740   5.239 -0.4422  1.9546  0.8504
  174SAPE  C31219825   1.066   4.832   5.036  0.2550 -0.5752 -0.1313
  174SAPE  H12X19826   1.061   4.737   4.978  0.0171 -0.2282 -0.6821
  174SAPE  H12Y19827   1.137   4.894   4.977 -2.2098  1.8062 -0.8086
  174SAPE  C31319828   0.928   4.903   5.027 -0.0074 -0.6875 -0.3841
  174SAPE  H13X19829   0.953   4.995   5.085 -0.9750 -1.2391  0.9701
  174SAPE  H13Y19830   0.850   4.844   5.079 -0.7296 -0.3217 -1.0463
  174SAPE  C31419831   0.870   4.931   4.891 -0.5905 -0.1570  0.3500
  174SAPE  H14X19832   0.883   4.842   4.825  1.2102 -0.2977  0.8443
  174SAPE  H14Y19833   0.946   5.000   4.848  2.1725 -2.0811  1.8346
  174SAPE  C31519834   0.723   4.987   4.893 -0.0193 -0.5110  0.7679
  174SAPE  H15X19835   0.726   5.081   4.952  2.1013  0.4549 -0.7393
  174SAPE  H15Y19836   0.671   4.903   4.943  0.0311 -0.8069  0.3312
  174SAPE  C31619837   0.668   5.020   4.752 -0.0873  0.1904 -0.3164
  174SAPE  H16X19838   0.582   5.088   4.773 -0.3986 -1.0077  2.8226
  174SAPE  H16Y19839   0.632   4.933   4.693  0.0746 -1.5596  2.0648
  174SAPE  C31719840   0.766   5.095   4.664  0.0941  0.6040  0.2606
  174SAPE  H17X19841   0.865   5.046   4.654 -0.3323 -0.1432 -0.3701
  174SAPE  H17Y19842   0.778   5.197   4.707 -0.6746  1.9021 -2.4253
  174SAPE  C31819843   0.714   5.105   4.525  0.8735 -0.0365 -0.0951
  174SAPE  H18X19844   0.756   5.188   4.464  0.5967 -0.3654 -0.7374
  174SAPE  H18Y19845   0.608   5.139   4.529  1.0120  0.3594  0.2587
  174SAPE  H18Z19846   0.713   5.009   4.469 -0.2369  0.0995 -0.3344
  175SAPE     N19847   1.435   3.003   2.189  0.5747 -0.2632  0.1438
  175SAPE   HN119848   1.378   2.926   2.229 -0.8409  1.2431  1.1319
  175SAPE   HN219849   1.478   3.054   2.269  0.0865 -0.4522  0.5349
  175SAPE   HN319850   1.372   3.077   2.153  0.4001  1.3720  3.4807
  175SAPE   C1219851   1.526   2.944   2.087  0.6268  0.1723 -0.4871
  175SAPE  H12A19852   1.563   3.028   2.025  0.3972  1.1547  0.6686
  175SAPE  H12B19853   1.475   2.866   2.027 -0.2184  0.5847 -0.3189
  175SAPE   C1119854   1.636   2.868   2.151 -0.0577 -0.2036 -0.4108
  175SAPE  H11A19855   1.590   2.781   2.203 -2.5561 -0.2624 -2.5404
  175SAPE  H11B19856   1.681   2.935   2.227 -1.2305  0.4405 -0.2769
  175SAPE     P19857   1.814   2.701   2.055 -0.0702  0.0502  0.6818
  175SAPE   O1319858   1.718   2.586   2.026  0.3147 -0.5883  0.3133
  175SAPE   O1419859   1.939   2.704   1.977 -0.0230 -0.4464 -0.1163
  175SAPE   O1219860   1.731   2.830   2.047 -0.7832 -0.1257  0.4575
  175SAPE   O1119861   1.846   2.700   2.211 -0.0100  0.0431  0.6542
  175SAPE    C119862   1.966   2.756   2.263 -0.5425 -0.4614  0.6119
  175SAPE    HA19863   2.049   2.691   2.229  0.3511  1.1854 -0.5343
  175SAPE    HB19864   1.983   2.863   2.235  0.2018 -0.7950 -0.2427
  175SAPE    C219865   1.975   2.775   2.417 -0.4821  0.1891  0.5229
  175SAPE    HS19866   2.075   2.821   2.432  0.3435 -0.5279 -2.3180
  175SAPE   O2119867   1.956   2.652   2.483 -0.2818 -0.3778  0.4121
  175SAPE   C2119868   2.064   2.562   2.490  0.1427 -0.6612  0.1366
  175SAPE   O2219869   2.176   2.589   2.459  0.1870  0.4308  0.0440
  175SAPE   C2219870   2.023   2.431   2.544  0.1000 -0.6216 -0.1294
  175SAPE   H2R19871   1.919   2.449   2.577  0.4035  0.2939  0.3811
  175SAPE   H2S19872   2.032   2.346   2.474  0.1906 -0.6782 -0.0503
  175SAPE    C319873   1.874   2.884   2.470 -0.3498 -0.0557  0.0571
  175SAPE    HX19874   1.776   2.848   2.430  0.3976 -1.5107 -0.5415
  175SAPE    HY19875   1.887   2.981   2.417  0.4438 -1.1263 -1.8102
  175SAPE   O3119876   1.881   2.901   2.609  0.5325  0.1547 -0.7250
  175SAPE   C3119877   1.824   2.815   2.697  0.2190  0.5318  0.0626
  175SAPE   O3219878   1.747   2.722   2.673  0.0587 -0.1770  0.2653
  175SAPE   C3219879   1.877   2.853   2.834 -0.0567 -1.0308 -0.8155
  175SAPE   H2X19880   1.967   2.918   2.835 -0.7703  0.0300 -2.2582
  175SAPE   H2Y19881   1.891   2.758   2.890 -0.2171 -0.0898  0.8809
  175SAPE   C2319882   2.096   2.401   2.672  0.3396  0.0031 -0.8766
  175SAPE   H3R19883   2.207   2.409   2.675  0.5839 -2.3079  2.2108
  175SAPE   H3S19884   2.065   2.296   2.694 -1.7511  1.0195  1.5777
  175SAPE   C2419885   2.040   2.486   2.780  0.1653  0.3051  0.1265
  175SAPE   H4R19886   1.931   2.465   2.792  0.6113 -2.0242  0.5881
  175SAPE   H4S19887   2.044   2.594   2.752  1.5437  0.2709  0.1285
  175SAPE   C2519888   2.100   2.461   2.914 -0.0833 -0.4043  0.6514
  175SAPE   H5R19889   2.172   2.379   2.906  0.6802  0.4486 -2.3799
  175SAPE   C2619890   2.040   2.476   3.034  0.6692 -0.2822  0.0066
  175SAPE   H6R19891   2.087   2.428   3.120 -0.6433 -2.4939 -0.4303
  175SAPE   C2719892   1.928   2.574   3.071  0.3925  0.0058  0.3995
  175SAPE   H7R19893   1.866   2.579   2.979  1.9135 -3.1562 -0.9361
  175SAPE   H7S19894   1.964   2.676   3.099 -2.3493  1.3208 -0.4854
  175SAPE   C2819895   1.833   2.511   3.171 -0.8192  0.4513 -0.0726
  175SAPE   H8R19896   1.741   2.473   3.125 -0.4308  0.5345 -0.9517
  175SAPE   C2919897   1.852   2.487   3.303  0.3110  0.1093  0.3475
  175SAPE   H9R19898   1.769   2.442   3.360 -0.8712  0.1231 -1.2853
  175SAPE  C21019899   1.976   2.510   3.388  0.7283 -0.2030 -0.3679
  175SAPE  H10R19900   1.956   2.605   3.443 -1.3554 -1.0733  0.4485
  175SAPE  H10S19901   2.068   2.528   3.328  0.7619 -0.2146 -0.3202
  175SAPE  C21119902   1.997   2.391   3.485 -0.5785 -0.4066 -0.1133
  175SAPE  H11R19903   2.059   2.310   3.443  1.3236  2.5156 -3.5305
  175SAPE  C21219904   1.951   2.379   3.611 -0.1802  0.4667  0.4019
  175SAPE  H12R19905   1.993   2.295   3.667 -1.0117  1.2194  2.2545
  175SAPE  C21319906   1.852   2.470   3.680 -0.4060  0.5358  0.1697
  175SAPE  H13R19907   1.786   2.525   3.610 -1.2218  0.6145  0.9875
  175SAPE  H13S19908   1.926   2.547   3.711  1.3725 -0.4902 -1.2998
  175SAPE  C21419909   1.773   2.403   3.783 -0.1872  0.4476  0.8248
  175SAPE  H14R19910   1.673   2.372   3.750 -0.3892  1.5566  0.3539
  175SAPE  C21519911   1.798   2.392   3.910  0.2865  0.0093  0.0610
  175SAPE  H15R19912   1.734   2.326   3.971  0.2199 -0.3701 -0.4113
  175SAPE  C21619913   1.923   2.444   3.980 -0.1336 -0.1863 -0.5046
  175SAPE  H16R19914   1.892   2.507   4.066 -0.1728 -3.1217  1.8022
  175SAPE  H16S19915   1.987   2.509   3.917  0.0811  0.9181  0.7947
  175SAPE  C21719916   1.999   2.327   4.035  0.9198 -0.4283  0.3327
  175SAPE  H17R19917   2.037   2.274   3.944 -1.5486  0.1195 -1.1250
  175SAPE  H17S19918   1.931   2.256   4.087  0.3143  0.0822  0.2468
  175SAPE  C21819919   2.118   2.378   4.115 -0.4644 -0.0156 -0.9822
  175SAPE  H18R19920   2.073   2.436   4.198 -0.0975 -0.8668 -0.1781
  175SAPE  H18S19921   2.170   2.457   4.056  0.9957  1.3006  1.8881
  175SAPE  C21919922   2.221   2.272   4.160  0.4702  0.2640 -0.5764
  175SAPE  H19R19923   2.317   2.321   4.186  0.9851 -0.8187 -0.3933
  175SAPE  H19S19924   2.258   2.210   4.076 -0.4904 -2.1914  0.7219
  175SAPE  C22019925   2.168   2.179   4.270  0.1207  1.0348 -0.2558
  175SAPE  H20R19926   2.242   2.097   4.281  0.0561  0.9182 -0.6478
  175SAPE  H20S19927   2.071   2.129   4.251 -0.0825  0.5565  1.8070
  175SAPE  H20T19928   2.156   2.248   4.356  3.4570  0.2561  1.0006
  175SAPE   C3319929   1.767   2.941   2.902  0.4527  0.8388  0.4385
  175SAPE   H3X19930   1.665   2.897   2.889 -0.3067  1.7464  2.7858
  175SAPE   H3Y19931   1.767   3.036   2.845 -0.1373  1.0664  0.8045
  175SAPE   C3419932   1.802   2.973   3.053 -0.5122  0.1809 -0.3671
  175SAPE   H4X19933   1.893   3.036   3.052  0.3858 -1.0963 -0.5764
  175SAPE   H4Y19934   1.813   2.876   3.106 -1.9327  0.4370  0.4599
  175SAPE   C3519935   1.694   3.058   3.128 -0.0641  0.4502 -0.2176
  175SAPE   H5X19936   1.599   3.002   3.128  1.4823 -2.3459 -0.8102
  175SAPE   H5Y19937   1.701   3.150   3.066  4.0342  1.1936  1.0074
  175SAPE   C3619938   1.722   3.077   3.277  0.5373 -0.4400  0.2735
  175SAPE   H6X19939   1.637   3.123   3.330 -0.4828  0.1179 -1.7455
  175SAPE   H6Y19940   1.809   3.145   3.285  0.7340 -0.8137  1.4054
  175SAPE   C3719941   1.761   2.949   3.351 -0.1751  0.3176 -0.3345
  175SAPE   H7X19942   1.866   2.925   3.326 -0.1266  1.0383 -0.8555
  175SAPE   H7Y19943   1.693   2.866   3.323  1.4279 -1.2605  0.3083
  175SAPE   C3819944   1.782   2.965   3.509  0.8024 -0.2795  0.4465
  175SAPE   H8X19945   1.837   3.060   3.527  2.7288 -1.2293 -0.1045
  175SAPE   H8Y19946   1.851   2.887   3.549  0.2539 -0.6198  0.7393
  175SAPE   C3919947   1.657   2.962   3.596 -0.2798  0.1729  0.2275
  175SAPE   H9X19948   1.600   2.869   3.577 -0.3612  0.2071  0.3013
  175SAPE   H9Y19949   1.599   3.047   3.554  1.3877  1.0729 -0.3559
  175SAPE  C31019950   1.679   2.986   3.741 -0.1022 -0.2810 -0.5880
  175SAPE  H10X19951   1.709   3.091   3.756 -1.9004  0.2778 -0.6259
  175SAPE  H10Y19952   1.767   2.926   3.772  0.1708 -0.3890 -1.5538
  175SAPE  C31119953   1.556   2.949   3.831  0.2459 -0.5388 -0.1427
  175SAPE  H11X19954   1.538   2.839   3.823  0.1469 -0.4428 -1.6713
  175SAPE  H11Y19955   1.461   2.996   3.798  0.8312  0.3455 -0.6314
  175SAPE  C31219956   1.586   2.980   3.978  0.4024 -0.2429  0.0620
  175SAPE  H12X19957   1.672   2.915   4.007 -2.9039 -4.7219  0.8953
  175SAPE  H12Y19958   1.513   2.945   4.055 -0.7242 -1.4052 -1.4730
  175SAPE  C31319959   1.609   3.128   4.013 -0.2307 -0.4607  0.1159
  175SAPE  H13X19960   1.521   3.182   3.972 -0.7658 -1.0703  0.4499
  175SAPE  H13Y19961   1.704   3.149   3.959 -0.8768  0.2852 -0.7544
  175SAPE  C31419962   1.616   3.148   4.168 -0.0931 -0.2982  0.1975
  175SAPE  H14X19963   1.522   3.115   4.218 -0.3821 -1.3761 -1.0117
  175SAPE  H14Y19964   1.631   3.258   4.178  3.1380 -0.8613  4.1074
  175SAPE  C31519965   1.746   3.093   4.230 -0.1723  0.1645 -0.4823
  175SAPE  H15X19966   1.832   3.145   4.184 -1.4570  2.6983 -0.1821
  175SAPE  H15Y19967   1.752   2.982   4.237  1.0099  0.2965  1.0856
  175SAPE  C31619968   1.743   3.133   4.385  0.3217  0.2561  0.3121
  175SAPE  H16X19969   1.644   3.116   4.433  0.7473 -0.4307  0.9797
  175SAPE  H16Y19970   1.754   3.242   4.403  0.6835 -0.1141  2.8037
  175SAPE  C31719971   1.838   3.043   4.474  0.1570  0.9342  0.1845
  175SAPE  H17X19972   1.946   3.048   4.448  0.5283 -2.1251  0.7777
  175SAPE  H17Y19973   1.803   2.941   4.448 -1.0575  1.6385 -1.0860
  175SAPE  C31819974   1.809   3.072   4.624  0.0455  0.7954  0.2877
  175SAPE  H18X19975   1.842   3.169   4.667  5.0449 -0.7433  0.5674
  175SAPE  H18Y19976   1.862   2.998   4.687  0.6596 -1.4594 -2.6323
  175SAPE  H18Z19977   1.702   3.066   4.653 -0.5629  1.1353 -1.7328
  176SAPE     N19978   0.380   1.204   2.419  0.3311  0.3963  0.4290
  176SAPE   HN119979   0.344   1.108   2.401 -2.9797  1.2741  1.6313
  176SAPE   HN219980   0.302   1.248   2.472 -0.2056  1.5771 -1.2501
  176SAPE   HN319981   0.386   1.249   2.325  1.5349 -0.7160 -0.0423
  176SAPE   C1219982   0.509   1.187   2.492 -0.2604 -0.4838 -1.0842
  176SAPE  H12A19983   0.499   1.244   2.586 -0.0925 -1.0701 -0.7040
  176SAPE  H12B19984   0.587   1.234   2.427 -0.1792  0.9361  0.0053
  176SAPE   C1119985   0.540   1.038   2.516  0.2062  0.3030  0.0561
  176SAPE  H11A19986   0.467   0.997   2.589  1.2477 -2.3370 -0.2642
  176SAPE  H11B19987   0.637   1.032   2.570 -0.8365  0.6564  2.0703
  176SAPE     P19988   0.670   0.941   2.311 -0.0137 -0.4590  0.0671
  176SAPE   O1319989   0.639   0.876   2.178 -0.1671 -0.3906 -0.1194
  176SAPE   O1419990   0.735   1.077   2.309  0.0334  0.4921  0.1582
  176SAPE   O1219991   0.534   0.957   2.394 -0.0767 -0.0643  0.0558
  176SAPE   O1119992   0.750   0.841   2.405 -0.3662 -0.2346  0.8526
  176SAPE    C119993   0.683   0.727   2.455 -0.2703  0.8193 -0.6678
  176SAPE    HA19994   0.597   0.748   2.522  2.3810  1.4802  2.7719
  176SAPE    HB19995   0.643   0.660   2.376  0.0644  2.4351 -2.2755
  176SAPE    C219996   0.779   0.643   2.551  0.4557 -0.3076  0.5401
  176SAPE    HS19997   0.717   0.573   2.612 -0.3972 -0.1887 -0.1867
  176SAPE   O2119998   0.839   0.728   2.653  0.2277 -0.5984 -0.8251
  176SAPE   C2119999   0.765   0.770   2.758 -0.5520  1.0291  0.0241
  176SAPE   O2220000   0.656   0.733   2.786 -0.1631  0.0635 -0.0248
  176SAPE   C2220001   0.864   0.844   2.852  0.1705 -0.3378  0.1569
  176SAPE   H2R20002   0.957   0.785   2.869  1.0001  0.9170  0.0967
  176SAPE   H2S20003   0.882   0.941   2.800 -0.1185 -0.0181  0.6563
  176SAPE    C320004   0.875   0.559   2.460 -0.9232 -0.1663  0.0415
  176SAPE    HX20005   0.935   0.631   2.398 -0.6787 -0.0892  0.3660
  176SAPE    HY20006   0.809   0.489   2.405 -0.9985 -1.1111  1.3022
  176SAPE   O3120007   0.962   0.477   2.542 -0.1407  0.4791 -0.1371
  176SAPE   C3120008   1.068   0.536   2.607 -0.1592  0.1210 -0.5900
  176SAPE   O3220009   1.100   0.651   2.589 -0.1772 -0.2750  0.3974
  176SAPE   C3220010   1.141   0.432   2.698 -0.2985 -0.8427  0.4490
  176SAPE   H2X20011   1.245   0.436   2.658 -0.2821  0.0738  0.5625
  176SAPE   H2Y20012   1.099   0.336   2.664 -2.8021  0.6487 -0.9863
  176SAPE   C2320013   0.806   0.897   2.995 -0.8341  0.5717  0.0586
  176SAPE   H3R20014   0.778   0.805   3.051 -0.2742  0.1113 -0.4097
  176SAPE   H3S20015   0.713   0.956   2.979 -0.8480  0.4522 -0.3213
  176SAPE   C2420016   0.905   0.985   3.079  0.4560  0.1131  0.2043
  176SAPE   H4R20017   0.854   1.026   3.168  1.5012 -0.7265  1.2273
  176SAPE   H4S20018   0.942   1.071   3.020  0.9733  0.0723  0.4654
  176SAPE   C2520019   1.021   0.900   3.133  0.3606 -0.0322  0.0434
  176SAPE   H5R20020   1.100   0.893   3.057 -1.4789  2.6020 -2.3287
  176SAPE   C2620021   1.027   0.845   3.261  0.1920 -0.6438 -0.4501
  176SAPE   H6R20022   1.115   0.788   3.294 -0.6030 -1.2152  0.7707
  176SAPE   C2720023   0.918   0.858   3.362  0.5819  0.0939 -0.6413
  176SAPE   H7R20024   0.897   0.756   3.403  0.9001 -0.1899 -1.1775
  176SAPE   H7S20025   0.822   0.880   3.311 -0.0180 -0.8565  0.0281
  176SAPE   C2820026   0.955   0.949   3.475 -0.1060  0.4690  0.5231
  176SAPE   H8R20027   0.964   1.049   3.430 -2.2851  0.5739  0.2355
  176SAPE   C2920028   0.943   0.919   3.605  0.2699 -0.0361 -0.0794
  176SAPE   H9R20029   0.972   0.995   3.680 -1.4298  0.2705  0.3107
  176SAPE  C21020030   0.911   0.786   3.676  0.0247  0.9493 -0.4003
  176SAPE  H10R20031   0.961   0.774   3.774 -0.8650 -0.8194 -0.1192
  176SAPE  H10S20032   0.939   0.694   3.621 -2.8966  0.5922 -1.5156
  176SAPE  C21120033   0.758   0.785   3.697 -0.6010 -0.1488 -0.4662
  176SAPE  H11R20034   0.697   0.832   3.618  0.7490  0.6351 -1.0872
  176SAPE  C21220035   0.697   0.762   3.815 -0.4716 -0.0401  0.3496
  176SAPE  H12R20036   0.589   0.776   3.830 -0.1698  0.3409  2.6565
  176SAPE  C21320037   0.764   0.706   3.940 -0.5043 -0.0517 -0.9457
  176SAPE  H13R20038   0.846   0.636   3.913 -0.0751 -1.7996  3.9500
  176SAPE  H13S20039   0.692   0.644   3.998 -1.8749  2.6983  0.4830
  176SAPE  C21420040   0.838   0.809   4.024 -0.4274 -0.3246 -0.0111
  176SAPE  H14R20041   0.911   0.874   3.973  0.0421 -0.0121  1.0375
  176SAPE  C21520042   0.806   0.844   4.148 -0.1235 -0.3661  0.5317
  176SAPE  H15R20043   0.864   0.928   4.187 -1.1956  1.7310 -2.0649
  176SAPE  C21620044   0.712   0.763   4.234 -0.3806  0.6560 -0.0367
  176SAPE  H16R20045   0.699   0.663   4.188 -0.1712  0.5130  0.2143
  176SAPE  H16S20046   0.612   0.810   4.226 -0.3384  0.4640 -4.9619
  176SAPE  C21720047   0.741   0.740   4.383 -0.1132  0.5669  0.4257
  176SAPE  H17R20048   0.837   0.684   4.393  0.5409  1.7286  0.7811
  176SAPE  H17S20049   0.671   0.679   4.444  0.4664  1.2549  1.8336
  176SAPE  C21820050   0.754   0.878   4.457  0.4323  0.0097 -0.0208
  176SAPE  H18R20051   0.658   0.931   4.437  1.0982  2.6439  3.0452
  176SAPE  H18S20052   0.831   0.942   4.410  1.4200 -0.4969  0.8847
  176SAPE  C21920053   0.768   0.863   4.603  1.2475 -0.5600 -0.1972
  176SAPE  H19R20054   0.847   0.791   4.636 -1.6791 -3.1930  1.6222
  176SAPE  H19S20055   0.672   0.832   4.649  1.7092  1.1696  2.1093
  176SAPE  C22020056   0.780   0.998   4.664 -0.5047 -0.3188 -0.3071
  176SAPE  H20R20057   0.769   0.983   4.773 -2.4191  1.2590 -0.2257
  176SAPE  H20S20058   0.695   1.064   4.637 -0.8800  0.3992  2.4179
  176SAPE  H20T20059   0.874   1.051   4.638  0.6385 -2.4117 -0.7118
  176SAPE   C3320060   1.147   0.460   2.851 -0.2641  0.1368 -0.2189
  176SAPE   H3X20061   1.170   0.568   2.866  1.6677 -0.2919  0.1571
  176SAPE   H3Y20062   1.241   0.418   2.891  0.9383  2.8209  0.0240
  176SAPE   C3420063   1.025   0.427   2.927 -0.0016 -0.2277 -0.2669
  176SAPE   H4X20064   1.017   0.316   2.928  0.5735 -0.3008 -2.0430
  176SAPE   H4Y20065   0.929   0.472   2.894 -0.9835 -0.9934  1.4133
  176SAPE   C3520066   1.051   0.477   3.077 -0.3605 -0.0184 -0.5145
  176SAPE   H5X20067   1.057   0.587   3.071 -1.4588  0.0702 -0.3078
  176SAPE   H5Y20068   1.145   0.422   3.100 -1.4791 -1.3832  1.0466
  176SAPE   C3620069   0.947   0.431   3.184 -0.4449 -0.2240 -0.5468
  176SAPE   H6X20070   0.899   0.338   3.147  0.6648 -1.2353  0.4741
  176SAPE   H6Y20071   0.863   0.503   3.195  1.1222  1.2915  5.0997
  176SAPE   C3720072   1.012   0.412   3.319 -0.4502  0.1382  0.3436
  176SAPE   H7X20073   1.053   0.514   3.339 -1.8107  0.3536  2.4493
  176SAPE   H7Y20074   1.093   0.337   3.318 -1.0090 -0.5151 -2.3797
  176SAPE   C3820075   0.902   0.375   3.427  0.3450 -0.2193  0.1169
  176SAPE   H8X20076   0.870   0.272   3.401 -0.2449  0.2104 -0.9078
  176SAPE   H8Y20077   0.810   0.436   3.422  1.6991  1.9702  0.5166
  176SAPE   C3920078   0.969   0.356   3.566 -0.3857 -0.3508 -0.3948
  176SAPE   H9X20079   1.013   0.455   3.590 -1.7958  0.8590 -2.4270
  176SAPE   H9Y20080   1.044   0.275   3.557  0.6478  0.5903 -0.4276
  176SAPE  C31020081   0.862   0.318   3.670  0.6078 -0.0426 -0.6739
  176SAPE  H10X20082   0.816   0.217   3.668  0.0804  0.0856  1.6867
  176SAPE  H10Y20083   0.777   0.390   3.665  1.2749  1.1249  2.3470
  176SAPE  C31120084   0.916   0.336   3.821 -0.1093  0.9756  0.5239
  176SAPE  H11X20085   0.844   0.299   3.897 -0.8466  0.1965 -0.5256
  176SAPE  H11Y20086   0.928   0.446   3.823  0.7793  0.9050 -0.2393
  176SAPE  C31220087   1.057   0.268   3.834  0.0907 -0.6736 -0.1499
  176SAPE  H12X20088   1.136   0.310   3.768  0.4968 -2.4847 -0.8645
  176SAPE  H12Y20089   1.031   0.163   3.810  0.6928 -0.6338 -1.0343
  176SAPE  C31320090   1.114   0.287   3.972 -0.1546  0.2900 -0.2890
  176SAPE  H13X20091   1.212   0.236   3.984 -0.6326 -0.2467  1.6129
  176SAPE  H13Y20092   1.038   0.257   4.047  1.1496  1.3585  1.5463
  176SAPE  C31420093   1.139   0.439   4.012  0.0966  0.7008  0.4556
  176SAPE  H14X20094   1.181   0.426   4.115  1.7981 -2.3430 -0.4752
  176SAPE  H14Y20095   1.038   0.483   4.007 -0.1141  0.1790  0.0760
  176SAPE  C31520096   1.241   0.513   3.917 -0.9995 -0.1739  0.4839
  176SAPE  H15X20097   1.194   0.521   3.816 -2.0378 -0.3105  0.9541
  176SAPE  H15Y20098   1.322   0.436   3.912 -2.5840 -1.9386  0.9807
  176SAPE  C31620099   1.301   0.647   3.971 -0.0510  0.2840 -0.0536
  176SAPE  H16X20100   1.369   0.637   4.058 -0.5293  3.4436  0.7924
  176SAPE  H16Y20101   1.213   0.699   4.015 -1.1386 -0.8557 -0.8117
  176SAPE  C31720102   1.381   0.731   3.867 -0.3607  0.8995  0.0176
  176SAPE  H17X20103   1.473   0.672   3.847 -1.1345 -0.0043 -0.9288
  176SAPE  H17Y20104   1.411   0.825   3.918 -0.7061  0.7908  0.4303
  176SAPE  C31820105   1.298   0.767   3.740  0.2186  0.1232 -0.2672
  176SAPE  H18X20106   1.355   0.846   3.687  0.9296 -0.0184  0.2663
  176SAPE  H18Y20107   1.199   0.807   3.772 -0.0686  0.0587 -1.0604
  176SAPE  H18Z20108   1.289   0.674   3.679  2.0049 -1.9702  2.3898
  177SAPE     N20109   1.771   5.512   2.182 -0.5285 -0.6559  0.8691
  177SAPE   HN120110   1.672   5.542   2.169 -0.4855 -0.8571  0.0637
  177SAPE   HN220111   1.800   5.474   2.090 -0.0242  2.2741 -0.3078
  177SAPE   HN320112   1.763   5.434   2.250 -0.0452 -2.4111 -0.9745
  177SAPE   C1220113   1.861   5.625   2.229 -0.1179 -0.0448 -0.1967
  177SAPE  H12A20114   1.849   5.710   2.159 -1.4561  1.3745  1.6650
  177SAPE  H12B20115   1.968   5.596   2.227  0.0547  0.6073 -1.2863
  177SAPE   C1120116   1.826   5.663   2.377  0.6481 -0.1235 -0.2839
  177SAPE  H11A20117   1.895   5.742   2.412 -1.7137  1.0932  1.8930
  177SAPE  H11B20118   1.861   5.583   2.445 -1.2898 -2.3927 -1.7811
  177SAPE     P20119   1.583   5.637   2.501 -0.1819 -0.0548 -0.1408
  177SAPE   O1320120   1.450   5.682   2.459 -0.0767 -0.1403 -0.1781
  177SAPE   O1420121   1.613   5.490   2.505 -0.2696 -0.6116 -0.6340
  177SAPE   O1220122   1.691   5.699   2.398  0.1554  0.0146  0.0865
  177SAPE   O1120123   1.632   5.700   2.638  0.7114 -0.4117 -0.1039
  177SAPE    C120124   1.637   5.844   2.648 -0.4985 -0.0326 -0.1479
  177SAPE    HA20125   1.739   5.881   2.624 -0.8363  0.1090 -1.4302
  177SAPE    HB20126   1.564   5.903   2.590 -1.3680 -0.8750  0.0529
  177SAPE    C220127   1.625   5.900   2.797  0.5096  0.6489  0.5024
  177SAPE    HS20128   1.662   6.001   2.769 -0.4025  0.7469 -0.4452
  177SAPE   O2120129   1.709   5.830   2.894 -0.6748  0.3366 -0.1855
  177SAPE   C2120130   1.834   5.816   2.886 -0.1263  0.6671  0.1381
  177SAPE   O2220131   1.904   5.877   2.806  0.4387  0.3489 -0.1078
  177SAPE   C2220132   1.883   5.716   2.992  0.3771 -0.0724 -0.0525
  177SAPE   H2R20133   1.807   5.635   3.000  0.7473 -0.4293 -0.0767
  177SAPE   H2S20134   1.979   5.677   2.952  1.2232  1.8408  0.0191
  177SAPE    C320135   1.477   5.915   2.839  0.2386  0.3366 -0.0236
  177SAPE    HX20136   1.413   5.824   2.843 -0.7605  1.0675  1.5279
  177SAPE    HY20137   1.420   5.970   2.761 -0.3594 -2.0365 -1.3820
  177SAPE   O3120138   1.466   5.973   2.974 -0.3536  0.1926  0.0186
  177SAPE   C3120139   1.494   6.099   2.987 -0.0905  0.0304  0.5183
  177SAPE   O3220140   1.502   6.179   2.898 -0.1210 -0.2370  0.2637
  177SAPE   C3220141   1.488   6.136   3.139  0.1108  0.9514 -0.4618
  177SAPE   H2X20142   1.554   6.060   3.187 -1.1867 -1.0575 -1.6866
  177SAPE   H2Y20143   1.381   6.118   3.165  0.4333  2.0013  1.8694
  177SAPE   C2320144   1.907   5.790   3.126  0.4915  0.3993  0.2805
  177SAPE   H3R20145   1.963   5.885   3.108 -1.7974  1.9126  0.6908
  177SAPE   H3S20146   1.969   5.717   3.182  2.8785  2.4376  0.4632
  177SAPE   C2420147   1.779   5.820   3.205  0.1493  1.0360  0.1334
  177SAPE   H4R20148   1.721   5.726   3.187  0.5668  0.9250 -0.7151
  177SAPE   H4S20149   1.730   5.899   3.144 -0.4148 -0.7764 -1.9109
  177SAPE   C2520150   1.814   5.850   3.346 -0.2620 -0.0830 -0.6803
  177SAPE   H5R20151   1.922   5.859   3.366 -0.3215 -0.2766 -0.2602
  177SAPE   C2620152   1.726   5.883   3.457 -0.3394 -0.0684  0.0456
  177SAPE   H6R20153   1.762   5.897   3.560 -2.4676  0.6822  0.7409
  177SAPE   C2720154   1.583   5.893   3.448  0.6794 -0.1824  0.4272
  177SAPE   H7R20155   1.550   5.842   3.355 -0.8037  0.3244  0.6475
  177SAPE   H7S20156   1.551   5.992   3.410 -2.6325 -1.1973  0.3016
  177SAPE   C2820157   1.501   5.843   3.567 -0.4630 -0.4081  0.1414
  177SAPE   H8R20158   1.474   5.736   3.567  0.5831 -0.6873  0.6655
  177SAPE   C2920159   1.487   5.909   3.686  0.1804 -0.3234 -0.1477
  177SAPE   H9R20160   1.434   5.852   3.764 -0.1198 -0.7641 -0.6657
  177SAPE  C21020161   1.524   6.050   3.712  0.2917 -0.6861 -0.1100
  177SAPE  H10R20162   1.548   6.104   3.618  0.0743 -0.1024  0.1666
  177SAPE  H10S20163   1.616   6.058   3.774 -0.3506  0.8205  0.7200
  177SAPE  C21120164   1.411   6.125   3.778 -0.5615  0.1991 -0.7554
  177SAPE  H11R20165   1.333   6.171   3.717 -1.4036  0.4647  0.4889
  177SAPE  C21220166   1.398   6.155   3.911 -0.5487  0.1549  0.4634
  177SAPE  H12R20167   1.298   6.185   3.948 -1.5680 -2.2447 -0.1566
  177SAPE  C21320168   1.493   6.124   4.020 -0.2446 -0.0966 -0.0806
  177SAPE  H13R20169   1.589   6.092   3.977 -0.2239  1.4480 -1.2620
  177SAPE  H13S20170   1.460   6.037   4.080 -0.7506  1.0736  1.4234
  177SAPE  C21420171   1.511   6.233   4.122 -0.3888 -0.5421 -0.0173
  177SAPE  H14R20172   1.599   6.298   4.114 -0.2519 -0.4287  1.8243
  177SAPE  C21520173   1.420   6.265   4.212  0.0827 -0.6078  0.2304
  177SAPE  H15R20174   1.428   6.352   4.279 -3.4817  0.8013 -0.9315
  177SAPE  C21620175   1.290   6.197   4.236 -0.3952 -0.2004 -0.4046
  177SAPE  H16R20176   1.244   6.138   4.153 -2.0422 -0.8071  0.8804
  177SAPE  H16S20177   1.208   6.263   4.270 -0.4803 -0.4460 -0.1255
  177SAPE  C21720178   1.315   6.107   4.364  0.6914 -0.2630  0.0721
  177SAPE  H17R20179   1.219   6.078   4.411 -0.6136  0.4610 -2.0093
  177SAPE  H17S20180   1.383   6.160   4.434  1.6088 -0.1580 -0.8654
  177SAPE  C21820181   1.392   5.981   4.345 -0.1493  0.4374 -0.6781
  177SAPE  H18R20182   1.486   6.007   4.291  1.4375 -3.1640  0.0792
  177SAPE  H18S20183   1.337   5.922   4.268  0.2063 -0.7442 -0.0437
  177SAPE  C21920184   1.428   5.904   4.466  0.8766  0.4922  1.3656
  177SAPE  H19R20185   1.340   5.873   4.525 -0.3289 -1.8446 -1.4043
  177SAPE  H19S20186   1.485   5.972   4.533  0.6049  0.9862  1.0960
  177SAPE  C22020187   1.511   5.785   4.424  0.3927  0.2335 -0.0653
  177SAPE  H20R20188   1.460   5.734   4.339  0.8041  0.0654 -0.2109
  177SAPE  H20S20189   1.506   5.704   4.500 -0.7361 -1.3808 -1.7585
  177SAPE  H20T20190   1.616   5.804   4.394  0.6196 -0.6500  0.1087
  177SAPE   C3320191   1.533   6.274   3.188  0.1346 -0.7157 -0.2796
  177SAPE   H3X20192   1.605   6.310   3.112  0.6987 -0.2216  0.4736
  177SAPE   H3Y20193   1.591   6.263   3.283 -0.0418 -1.2927 -0.2321
  177SAPE   C3420194   1.416   6.374   3.202  0.9006 -0.0112 -0.2344
  177SAPE   H4X20195   1.348   6.366   3.115 -1.2194  1.6789  1.1567
  177SAPE   H4Y20196   1.457   6.477   3.198 -1.9214  1.1629 -1.7247
  177SAPE   C3520197   1.322   6.353   3.322 -0.2423 -0.1413 -0.2466
  177SAPE   H5X20198   1.343   6.424   3.405 -0.5340 -0.2094 -0.1133
  177SAPE   H5Y20199   1.344   6.253   3.365  1.2895  0.3656  0.2062
  177SAPE   C3620200   1.171   6.349   3.281 -0.0843 -0.1964  0.0246
  177SAPE   H6X20201   1.162   6.283   3.192  2.5382 -1.9044  0.9208
  177SAPE   H6Y20202   1.136   6.449   3.248  0.5424 -0.5555 -1.8202
  177SAPE   C3720203   1.080   6.300   3.395 -0.0746 -0.0035 -0.0209
  177SAPE   H7X20204   1.127   6.205   3.428 -1.9160 -1.0331 -0.2636
  177SAPE   H7Y20205   0.978   6.269   3.365  1.0343 -1.8587 -2.1814
  177SAPE   C3820206   1.065   6.396   3.513  0.3566  0.3802 -0.3125
  177SAPE   H8X20207   1.002   6.483   3.484  0.6590  0.9429  0.6568
  177SAPE   H8Y20208   1.161   6.446   3.537  0.6179 -0.8217  1.2792
  177SAPE   C3920209   1.016   6.315   3.636 -0.1133  0.0176  0.5406
  177SAPE   H9X20210   1.095   6.245   3.671 -0.2819 -1.1456 -1.3039
  177SAPE   H9Y20211   0.947   6.236   3.600  1.0823 -0.0242 -1.8539
  177SAPE  C31020212   0.967   6.389   3.754  0.5233 -0.3758 -0.1974
  177SAPE  H10X20213   0.903   6.326   3.819  0.4343 -0.8242 -0.7189
  177SAPE  H10Y20214   0.900   6.464   3.708  0.7721 -1.9327 -3.3513
  177SAPE  C31120215   1.081   6.458   3.831  0.8971  0.7479  0.4826
  177SAPE  H11X20216   1.158   6.499   3.762  0.6432  2.4140  1.1325
  177SAPE  H11Y20217   1.135   6.384   3.895 -1.8963 -2.5008 -0.6346
  177SAPE  C31220218   1.031   6.582   3.905 -0.1938 -0.5102 -0.1737
  177SAPE  H12X20219   0.935   6.559   3.958 -0.1520  0.8023  0.5160
  177SAPE  H12Y20220   0.995   6.650   3.825  2.3807  1.3206  0.1237
  177SAPE  C31320221   1.125   6.654   3.998  0.6360 -0.6227  0.1018
  177SAPE  H13X20222   1.098   6.762   3.994  3.0180 -0.0263 -2.0065
  177SAPE  H13Y20223   1.231   6.650   3.967  0.4140  0.9834 -0.9773
  177SAPE  C31420224   1.123   6.597   4.138 -0.2016 -0.2379 -0.1927
  177SAPE  H14X20225   1.185   6.505   4.143  3.9565  2.1917 -1.9243
  177SAPE  H14Y20226   1.018   6.576   4.170  0.0146 -1.8285 -0.4248
  177SAPE  C31520227   1.200   6.686   4.242  0.8302  0.3927 -0.1869
  177SAPE  H15X20228   1.156   6.787   4.228 -1.8419 -0.7933 -1.0062
  177SAPE  H15Y20229   1.307   6.689   4.214  0.6900  0.7599 -0.6985
  177SAPE  C31620230   1.189   6.637   4.388 -0.4589 -0.2355  0.5907
  177SAPE  H16X20231   1.260   6.701   4.445 -2.0237  0.1311  2.2192
  177SAPE  H16Y20232   1.211   6.528   4.395 -1.6551 -0.6339 -1.2134
  177SAPE  C31720233   1.054   6.662   4.448  0.1768 -0.5265  0.4599
  177SAPE  H17X20234   0.977   6.656   4.368 -1.1047 -0.7152  1.6763
  177SAPE  H17Y20235   1.044   6.771   4.463 -1.5503 -0.6994  0.7312
  177SAPE  C31820236   1.014   6.574   4.568  0.0183 -0.5267  0.4428
  177SAPE  H18X20237   1.025   6.468   4.536 -0.8705 -1.2299  2.3447
  177SAPE  H18Y20238   0.907   6.581   4.595  0.4300 -0.2843  2.0703
  177SAPE  H18Z20239   1.090   6.591   4.647  1.3896 -1.8673 -0.5322
  178SAPE     N20240   0.946   2.515   2.383  0.2148  0.5069  0.1466
  178SAPE   HN120241   0.985   2.607   2.413  2.7304 -0.6992  0.8107
  178SAPE   HN220242   0.856   2.510   2.435  0.1507 -1.9555 -0.0904
  178SAPE   HN320243   1.014   2.449   2.424 -3.0068 -0.9800  3.7686
  178SAPE   C1220244   0.932   2.513   2.232 -0.6061 -0.3643 -0.2852
  178SAPE  H12A20245   0.854   2.584   2.199 -0.6352 -0.7578 -1.0915
  178SAPE  H12B20246   0.903   2.410   2.204 -2.9919  0.0317  0.5572
  178SAPE   C1120247   1.063   2.556   2.161  0.2520  0.2030 -0.2367
  178SAPE  H11A20248   1.036   2.579   2.056 -0.0719 -1.0142 -0.4350
  178SAPE  H11B20249   1.130   2.468   2.157 -1.2008 -0.9786  0.5966
  178SAPE     P20250   1.255   2.730   2.166 -0.3189  0.0499  0.5654
  178SAPE   O1320251   1.330   2.622   2.102  0.2398 -0.1382 -0.1379
  178SAPE   O1420252   1.228   2.850   2.079  0.0830 -0.4622 -0.1179
  178SAPE   O1220253   1.125   2.667   2.229 -0.4348  0.4893 -0.1793
  178SAPE   O1120254   1.348   2.777   2.288  0.5662  0.0470  0.2566
  178SAPE    C120255   1.332   2.741   2.430 -0.7793 -0.4692  0.1284
  178SAPE    HA20256   1.314   2.631   2.430  1.2931 -0.8562 -0.1794
  178SAPE    HB20257   1.431   2.763   2.476  0.1242 -1.5672 -1.1998
  178SAPE    C220258   1.218   2.819   2.498 -0.2414  0.0680  0.2149
  178SAPE    HS20259   1.129   2.799   2.436 -0.1305  0.0551  0.0606
  178SAPE   O2120260   1.267   2.953   2.488 -0.5038 -0.5481 -0.2904
  178SAPE   C2120261   1.176   3.044   2.520  0.3452 -0.3961 -0.4817
  178SAPE   O2220262   1.059   3.023   2.519 -0.1366 -0.2194 -0.3768
  178SAPE   C2220263   1.234   3.184   2.535 -0.0500 -0.3303  0.2339
  178SAPE   H2R20264   1.285   3.203   2.438 -3.6156 -0.8601 -1.9424
  178SAPE   H2S20265   1.144   3.249   2.539  1.0022  1.1310  1.0597
  178SAPE    C320266   1.201   2.763   2.645 -0.8178 -0.7493  1.7184
  178SAPE    HX20267   1.293   2.788   2.702 -0.3054  2.1164 -0.1940
  178SAPE    HY20268   1.191   2.652   2.645 -0.3080 -1.1611 -4.7709
  178SAPE   O3120269   1.090   2.820   2.714 -0.7173 -0.2069 -0.7134
  178SAPE   C3120270   0.971   2.760   2.685  0.3123  0.8492  0.7577
  178SAPE   O3220271   0.955   2.668   2.602 -0.5470 -0.8030 -0.8783
  178SAPE   C3220272   0.857   2.839   2.744  0.0926 -0.3012 -0.4920
  178SAPE   H2X20273   0.801   2.854   2.649  5.7222 -0.5399 -4.3437
  178SAPE   H2Y20274   0.885   2.944   2.767 -2.5497  0.5931 -1.0203
  178SAPE   C2320275   1.318   3.218   2.656 -0.4211 -0.1037 -0.2288
  178SAPE   H3R20276   1.378   3.311   2.640  1.6948 -1.7071 -2.4011
  178SAPE   H3S20277   1.381   3.128   2.671 -1.9364 -1.6860 -2.7604
  178SAPE   C2420278   1.231   3.246   2.789  0.1332 -0.9662 -0.2197
  178SAPE   H4R20279   1.141   3.300   2.753  1.0525  1.1887  0.5633
  178SAPE   H4S20280   1.284   3.325   2.846 -0.3425 -0.4411 -0.4976
  178SAPE   C2520281   1.185   3.122   2.862 -0.3447 -0.1931 -0.7955
  178SAPE   H5R20282   1.096   3.083   2.811 -0.3173  0.0182 -1.0079
  178SAPE   C2620283   1.221   3.083   2.989  0.3111 -0.7070 -0.2259
  178SAPE   H6R20284   1.161   2.998   3.025  1.5040 -0.7875  1.7275
  178SAPE   C2720285   1.335   3.131   3.077 -0.4071 -0.6415  0.3336
  178SAPE   H7R20286   1.422   3.157   3.012 -0.0416 -4.3051 -0.8532
  178SAPE   H7S20287   1.377   3.058   3.149 -0.7387 -0.4785  0.7016
  178SAPE   C2820288   1.299   3.252   3.154  0.4100  0.4487 -0.7947
  178SAPE   H8R20289   1.296   3.351   3.106  0.5993  1.5082  1.2414
  178SAPE   C2920290   1.277   3.256   3.288  0.1324 -0.2354 -0.7481
  178SAPE   H9R20291   1.272   3.355   3.336 -0.0451  0.5822 -2.3959
  178SAPE  C21020292   1.270   3.140   3.387 -0.1899  0.0486  0.6928
  178SAPE  H10R20293   1.307   3.044   3.344 -3.4279 -0.7151 -0.6842
  178SAPE  H10S20294   1.163   3.115   3.405 -0.6767  0.7938 -0.9675
  178SAPE  C21120295   1.332   3.166   3.526  0.0821  0.2216  0.2534
  178SAPE  H11R20296   1.442   3.166   3.516  0.1715  0.9747  1.0258
  178SAPE  C21220297   1.280   3.200   3.645 -0.1127  0.1593 -0.0743
  178SAPE  H12R20298   1.344   3.218   3.734 -0.8973 -0.0448  0.5399
  178SAPE  C21320299   1.135   3.222   3.672  0.1731 -0.2189 -0.2924
  178SAPE  H13R20300   1.090   3.272   3.583 -1.5021 -1.4355 -0.1830
  178SAPE  H13S20301   1.111   3.298   3.749  0.3860 -0.9536  0.5090
  178SAPE  C21420302   1.070   3.093   3.703 -0.5315  0.1011 -0.4715
  178SAPE  H14R20303   1.027   3.042   3.615  0.4863  0.6039 -1.2824
  178SAPE  C21520304   1.049   3.044   3.825 -0.4361  0.1717 -0.0985
  178SAPE  H15R20305   1.007   2.943   3.833 -0.2186  0.1354  0.6679
  178SAPE  C21620306   1.097   3.091   3.958 -0.1879 -0.2350  0.2762
  178SAPE  H16R20307   1.003   3.106   4.016 -0.9923  5.1396 -1.8251
  178SAPE  H16S20308   1.139   3.194   3.952 -1.9671  0.4993 -0.2743
  178SAPE  C21720309   1.190   3.001   4.044 -0.5266  0.2439  0.7359
  178SAPE  H17R20310   1.294   3.014   4.007 -0.0608 -0.3982  1.7677
  178SAPE  H17S20311   1.163   2.893   4.038 -2.1428  0.6545  0.2570
  178SAPE  C21820312   1.188   3.022   4.195 -0.5688 -0.4293  0.4149
  178SAPE  H18R20313   1.250   2.953   4.255 -0.4393  1.2504  2.3090
  178SAPE  H18S20314   1.083   3.017   4.231 -0.9001  1.0573 -0.2522
  178SAPE  C21920315   1.236   3.163   4.221  0.1880  0.0708 -0.4841
  178SAPE  H19R20316   1.148   3.227   4.195 -0.5384  0.1879  2.0230
  178SAPE  H19S20317   1.320   3.196   4.156  0.4743  2.1672  0.8622
  178SAPE  C22020318   1.274   3.190   4.367  0.4349 -0.3699  0.5509
  178SAPE  H20R20319   1.362   3.134   4.404  0.8336  0.5155  0.9643
  178SAPE  H20S20320   1.187   3.177   4.435 -0.2300 -2.9889 -0.6446
  178SAPE  H20T20321   1.310   3.295   4.364 -0.1162 -0.1752 -1.8372
  178SAPE   C3320322   0.774   2.773   2.864 -0.6058 -0.4079  0.4113
  178SAPE   H3X20323   0.766   2.666   2.834  1.5966 -0.4719 -0.0828
  178SAPE   H3Y20324   0.676   2.824   2.852 -0.6565 -0.7895 -0.9976
  178SAPE   C3420325   0.836   2.810   2.999 -0.0365  0.0370 -0.1285
  178SAPE   H4X20326   0.856   2.920   2.998  2.4447 -0.3611 -0.7183
  178SAPE   H4Y20327   0.929   2.756   3.027 -0.7638 -0.6760  0.9679
  178SAPE   C3520328   0.730   2.781   3.108  0.2758  0.0563 -0.5378
  178SAPE   H5X20329   0.672   2.687   3.095 -0.4601  0.5641 -1.0074
  178SAPE   H5Y20330   0.657   2.864   3.110  0.7876  0.5357 -1.2288
  178SAPE   C3620331   0.787   2.781   3.250 -0.3671 -0.3685 -0.3880
  178SAPE   H6X20332   0.844   2.876   3.259 -0.6470 -0.3156  1.0435
  178SAPE   H6Y20333   0.847   2.688   3.249 -1.6320 -1.2573  1.1712
  178SAPE   C3720334   0.679   2.775   3.359  0.8403  0.3940  0.2306
  178SAPE   H7X20335   0.621   2.682   3.346  2.6135 -0.9650  1.5693
  178SAPE   H7Y20336   0.613   2.865   3.357  2.7098  1.8191 -0.7460
  178SAPE   C3820337   0.743   2.765   3.490  0.0655  0.1902 -0.6605
  178SAPE   H8X20338   0.783   2.868   3.503 -1.4930  0.9309 -1.4830
  178SAPE   H8Y20339   0.829   2.695   3.482  0.8571  1.0816 -0.1747
  178SAPE   C3920340   0.645   2.747   3.603  0.5439 -0.1512  0.0292
  178SAPE   H9X20341   0.610   2.644   3.582  0.0938  0.0051  0.0025
  178SAPE   H9Y20342   0.554   2.811   3.604 -0.6627 -1.8296  0.4021
  178SAPE  C31020343   0.712   2.753   3.745  0.0861  0.9017  0.2901
  178SAPE  H10X20344   0.779   2.841   3.756  0.4848  0.5005  1.1908
  178SAPE  H10Y20345   0.775   2.661   3.753 -0.4276  0.0246 -3.7051
  178SAPE  C31120346   0.610   2.764   3.853  0.3050  1.1944 -0.2780
  178SAPE  H11X20347   0.542   2.677   3.851  0.6342  0.9020  0.8501
  178SAPE  H11Y20348   0.544   2.853   3.840 -1.1123 -0.1214 -2.9731
  178SAPE  C31220349   0.678   2.782   3.989 -0.8360  0.1574 -0.3323
  178SAPE  H12X20350   0.764   2.853   3.991 -1.1147  0.4892  0.1479
  178SAPE  H12Y20351   0.718   2.681   4.012 -1.9407 -0.3244 -0.4496
  178SAPE  C31320352   0.582   2.805   4.108 -0.2220 -0.1682  0.1143
  178SAPE  H13X20353   0.518   2.715   4.119 -0.9676  0.5728  2.5998
  178SAPE  H13Y20354   0.506   2.881   4.080 -1.0286 -1.0246 -0.0653
  178SAPE  C31420355   0.664   2.826   4.232  0.1831  0.3391  0.0118
  178SAPE  H14X20356   0.596   2.863   4.311 -0.8764  2.2128 -1.6698
  178SAPE  H14Y20357   0.733   2.911   4.215 -0.8376  0.8634 -1.8644
  178SAPE  C31520358   0.742   2.704   4.290 -0.0721  0.6333 -0.2142
  178SAPE  H15X20359   0.809   2.655   4.216 -0.1026  1.8095 -1.0485
  178SAPE  H15Y20360   0.673   2.626   4.327 -0.4647  1.7242  1.4847
  178SAPE  C31620361   0.823   2.737   4.420  0.4791 -0.4117 -0.3730
  178SAPE  H16X20362   0.865   2.640   4.454  2.6312  0.3372 -0.7278
  178SAPE  H16Y20363   0.749   2.783   4.489  1.3572 -0.4151  0.5945
  178SAPE  C31720364   0.949   2.824   4.401 -0.1367 -0.3407 -0.3340
  178SAPE  H17X20365   0.929   2.929   4.372  1.6829  0.1480  0.0178
  178SAPE  H17Y20366   1.004   2.790   4.311 -1.5132 -0.1125 -1.2872
  178SAPE  C31820367   1.035   2.824   4.527  0.4985  0.2790 -0.3033
  178SAPE  H18X20368   1.130   2.881   4.511 -0.3113  1.9477  0.5845
  178SAPE  H18Y20369   1.076   2.723   4.550 -1.1118 -0.3201  0.0168
  178SAPE  H18Z20370   0.972   2.853   4.614  0.4814  2.3970 -0.9673
  179SAPE     N20371   0.469   6.299   1.949  0.0319 -0.6769  0.4338
  179SAPE   HN120372   0.503   6.219   2.006 -0.0205  0.1131  1.6022
  179SAPE   HN220373   0.367   6.290   1.930 -0.8256  1.6361  3.2565
  179SAPE   HN320374   0.525   6.293   1.861 -0.5933 -1.5370  0.0800
  179SAPE   C1220375   0.508   6.432   2.014  0.4075 -0.6888  0.3899
  179SAPE  H12A20376   0.498   6.510   1.935  0.8682 -0.8763  0.1440
  179SAPE  H12B20377   0.615   6.423   2.041  0.3468  1.8928  1.7253
  179SAPE   C1120378   0.433   6.459   2.143  0.3476 -0.2175 -0.3058
  179SAPE  H11A20379   0.483   6.545   2.195 -3.8272  3.4000 -1.6902
  179SAPE  H11B20380   0.442   6.370   2.209 -3.4298 -0.0209  0.7046
  179SAPE     P20381   0.226   6.621   2.113 -0.2524 -0.1228  0.4019
  179SAPE   O1320382   0.254   6.675   1.978  0.5586 -0.8376  0.3108
  179SAPE   O1420383   0.080   6.599   2.128  0.1712 -0.8214 -0.1866
  179SAPE   O1220384   0.292   6.479   2.117  0.6610  0.1352  0.2259
  179SAPE   O1120385   0.294   6.707   2.226  0.1543  0.6488 -0.1345
  179SAPE    C120386   0.239   6.838   2.263 -1.3199  0.2132  0.3611
  179SAPE    HA20387   0.312   6.916   2.232 -0.5734 -0.6339 -0.0603
  179SAPE    HB20388   0.145   6.867   2.212  0.4725  2.9103 -1.7116
  179SAPE    C220389   0.207   6.844   2.418  0.2048 -0.3357 -0.6641
  179SAPE    HS20390   0.155   6.749   2.446  1.5673 -0.7308  0.6597
  179SAPE   O2120391   0.119   6.957   2.433 -0.8935  0.0016 -0.5237
  179SAPE   C2120392   0.030   6.940   2.529 -0.8355 -0.0542  0.2779
  179SAPE   O2220393   0.027   6.845   2.603  0.1093  0.8547 -0.7469
  179SAPE   C2220394  -0.066   7.055   2.523 -0.3353  0.5348 -0.4061
  179SAPE   H2R20395  -0.010   7.148   2.500  0.7753 -0.3438 -1.4131
  179SAPE   H2S20396  -0.133   7.040   2.436 -1.0952 -1.9247  0.5100
  179SAPE    C320397   0.340   6.853   2.500  0.4186  0.2026  0.1430
  179SAPE    HX20398   0.400   6.934   2.452  0.2386  0.1267 -0.2167
  179SAPE    HY20399   0.389   6.756   2.475 -0.5789  0.4535 -3.2941
  179SAPE   O3120400   0.325   6.875   2.639  0.1749 -0.1408  0.2762
  179SAPE   C3120401   0.292   6.992   2.682  0.1785 -0.5345  0.5171
  179SAPE   O3220402   0.279   7.096   2.611  0.3088  0.2984 -0.4391
  179SAPE   C3220403   0.267   6.988   2.829 -0.0694  0.1561 -0.4681
  179SAPE   H2X20404   0.365   6.975   2.878  0.5522  0.3832 -1.6303
  179SAPE   H2Y20405   0.203   6.900   2.853 -1.3493  1.0389 -0.4961
  179SAPE   C2320406  -0.148   7.088   2.651  0.3204  0.4276  0.0662
  179SAPE   H3R20407  -0.097   7.102   2.749 -1.2040 -1.9070  1.2843
  179SAPE   H3S20408  -0.214   7.003   2.679  2.3329 -1.0377  0.5052
  179SAPE   C2420409  -0.232   7.211   2.617 -0.1730 -0.5121 -0.0585
  179SAPE   H4R20410  -0.269   7.197   2.513  1.6706  0.5268 -0.9037
  179SAPE   H4S20411  -0.151   7.287   2.611  0.4571 -1.2401 -1.3803
  179SAPE   C2520412  -0.336   7.233   2.724 -0.1253 -0.0837 -0.2459
  179SAPE   H5R20413  -0.422   7.165   2.724 -0.6742  0.5750 -1.8430
  179SAPE   C2620414  -0.334   7.331   2.813 -0.7815 -0.9107  0.0233
  179SAPE   H6R20415  -0.414   7.336   2.888  1.0803 -0.0941  2.0579
  179SAPE   C2720416  -0.213   7.428   2.828  0.1726 -0.0680 -0.3922
  179SAPE   H7R20417  -0.167   7.449   2.729  1.5235 -0.0216  0.2273
  179SAPE   H7S20418  -0.142   7.376   2.895 -0.5035 -1.1036 -0.4655
  179SAPE   C2820419  -0.250   7.568   2.880 -0.3626 -0.4892 -0.5466
  179SAPE   H8R20420  -0.205   7.647   2.818  0.2478 -1.0855 -0.8747
  179SAPE   C2920421  -0.293   7.612   2.997  0.8386  0.2050  0.7633
  179SAPE   H9R20422  -0.296   7.720   3.014  0.8340  0.3857 -0.3175
  179SAPE  C21020423  -0.340   7.520   3.105  0.5754  0.4601  0.1067
  179SAPE  H10R20424  -0.327   7.414   3.077  0.0113  0.4468 -0.1246
  179SAPE  H10S20425  -0.449   7.532   3.124  0.4098 -0.1103 -0.4681
  179SAPE  C21120426  -0.270   7.552   3.234 -0.5166  0.0134 -0.3000
  179SAPE  H11R20427  -0.163   7.578   3.227 -0.7355  1.0266 -0.0691
  179SAPE  C21220428  -0.315   7.542   3.363  0.7362  0.2057 -0.6112
  179SAPE  H12R20429  -0.251   7.559   3.450  0.5933 -1.8196 -0.0663
  179SAPE  C21320430  -0.449   7.492   3.411  0.2880 -0.2678 -0.1796
  179SAPE  H13R20431  -0.433   7.406   3.479  0.5764  0.8279  1.1773
  179SAPE  H13S20432  -0.511   7.465   3.323  0.2038 -2.2802  0.4523
  179SAPE  C21420433  -0.518   7.603   3.487 -0.0699 -0.2537 -0.2681
  179SAPE  H14R20434  -0.526   7.699   3.433 -0.1109  0.0216  0.2206
  179SAPE  C21520435  -0.568   7.607   3.611 -0.2007 -1.0393  0.0146
  179SAPE  H15R20436  -0.600   7.705   3.649  1.7304 -0.0990 -0.6140
  179SAPE  C21620437  -0.579   7.498   3.710  0.6547  0.2522 -0.5301
  179SAPE  H16R20438  -0.499   7.421   3.707 -0.7154 -1.2366 -0.4512
  179SAPE  H16S20439  -0.670   7.438   3.687 -0.6892  1.7249  0.6697
  179SAPE  C21720440  -0.586   7.535   3.853 -0.0388 -0.4034  0.6126
  179SAPE  H17R20441  -0.671   7.606   3.842 -0.4129 -1.1427 -1.8373
  179SAPE  H17S20442  -0.497   7.589   3.892 -0.7229 -0.9286  3.0885
  179SAPE  C21820443  -0.621   7.426   3.956  0.2741  0.4917  0.4058
  179SAPE  H18R20444  -0.536   7.357   3.974  1.5535  2.3100  1.7491
  179SAPE  H18S20445  -0.705   7.376   3.904 -0.6576  2.5467 -0.1787
  179SAPE  C21920446  -0.674   7.489   4.087 -0.2627 -0.2262 -0.4741
  179SAPE  H19R20447  -0.755   7.553   4.047 -0.3303  1.4886  2.1736
  179SAPE  H19S20448  -0.593   7.554   4.126 -0.7842  1.1038 -1.5826
  179SAPE  C22020449  -0.730   7.385   4.184 -0.5277 -0.7194 -0.3390
  179SAPE  H20R20450  -0.642   7.326   4.217 -0.3728 -0.8490 -0.9693
  179SAPE  H20S20451  -0.810   7.318   4.146 -0.0611 -1.4533 -0.0385
  179SAPE  H20T20452  -0.759   7.446   4.273  1.3243  1.6376 -1.2300
  179SAPE   C3320453   0.193   7.104   2.892 -0.1109 -0.1648  0.6898
  179SAPE   H3X20454   0.104   7.125   2.828  1.9325  3.1261 -1.4109
  179SAPE   H3Y20455   0.257   7.195   2.885 -2.3893  1.4878  0.0828
  179SAPE   C3420456   0.144   7.084   3.028  0.0302  0.2154 -0.2040
  179SAPE   H4X20457   0.230   7.057   3.092 -0.5010  0.9125  0.8272
  179SAPE   H4Y20458   0.072   7.001   3.012 -2.1227  1.8774  0.3226
  179SAPE   C3520459   0.067   7.199   3.087 -0.6379  0.3135 -0.0182
  179SAPE   H5X20460  -0.020   7.200   3.018 -0.4339  1.2841 -0.2799
  179SAPE   H5Y20461   0.118   7.296   3.073 -0.7396  0.4653  0.5969
  179SAPE   C3620462   0.023   7.164   3.225  0.3440  0.1966  0.0068
  179SAPE   H6X20463   0.105   7.110   3.276  0.6271  1.2423  0.7016
  179SAPE   H6Y20464  -0.055   7.085   3.225  0.8927 -0.3679  1.2525
  179SAPE   C3720465  -0.034   7.271   3.308 -0.4543 -0.3979 -0.1039
  179SAPE   H7X20466  -0.139   7.296   3.281 -0.7259  1.3915  2.2602
  179SAPE   H7Y20467   0.020   7.365   3.281 -0.0439 -0.9115 -1.1522
  179SAPE   C3820468  -0.026   7.234   3.454 -0.6055  0.2832 -0.5871
  179SAPE   H8X20469   0.080   7.228   3.486 -1.0274 -1.1808  0.6276
  179SAPE   H8Y20470  -0.073   7.135   3.473  0.3589 -0.4433 -1.8131
  179SAPE   C3920471  -0.097   7.324   3.545  0.1782 -0.5235  0.2543
  179SAPE   H9X20472  -0.203   7.327   3.511 -0.1237  0.5536  1.2253
  179SAPE   H9Y20473  -0.063   7.430   3.538 -0.6486 -0.3732 -3.1744
  179SAPE  C31020474  -0.094   7.276   3.691  0.5263 -0.4786  0.8178
  179SAPE  H10X20475   0.013   7.253   3.712  1.2479 -0.0872 -2.0108
  179SAPE  H10Y20476  -0.161   7.188   3.706  0.1773 -0.6101 -1.1774
  179SAPE  C31120477  -0.147   7.377   3.795  0.5263 -0.1307  0.1286
  179SAPE  H11X20478  -0.248   7.405   3.760  1.1435 -0.8713 -2.4239
  179SAPE  H11Y20479  -0.081   7.465   3.811  0.2587  0.2317 -0.7236
  179SAPE  C31220480  -0.174   7.317   3.940  0.6787  0.6861  0.6550
  179SAPE  H12X20481  -0.069   7.296   3.969  0.6858  1.1085  0.9407
  179SAPE  H12Y20482  -0.231   7.222   3.935 -0.4708  1.3938 -4.3754
  179SAPE  C31320483  -0.232   7.424   4.040  0.1942 -0.3464  0.2381
  179SAPE  H13X20484  -0.328   7.463   4.000  0.4962  1.6041  1.3261
  179SAPE  H13Y20485  -0.156   7.505   4.032 -0.7094  0.8387  2.8140
  179SAPE  C31420486  -0.252   7.369   4.180 -0.9175 -0.0340 -0.9814
  179SAPE  H14X20487  -0.155   7.331   4.217 -1.0948  0.0939 -0.3707
  179SAPE  H14Y20488  -0.325   7.285   4.178  0.4412 -1.3540  1.2483
  179SAPE  C31520489  -0.285   7.483   4.276 -0.8044 -0.7375  0.3248
  179SAPE  H15X20490  -0.288   7.440   4.379  1.8280 -1.3876  0.1795
  179SAPE  H15Y20491  -0.386   7.522   4.249 -0.3058  0.1291 -0.3291
  179SAPE  C31620492  -0.186   7.604   4.279  0.1372  0.5772  0.1702
  179SAPE  H16X20493  -0.241   7.695   4.246  1.1139  0.9092 -0.5700
  179SAPE  H16Y20494  -0.103   7.587   4.207 -0.7482  0.7979 -0.9318
  179SAPE  C31720495  -0.131   7.612   4.422  0.1849  0.3776  1.2181
  179SAPE  H17X20496  -0.215   7.618   4.494 -0.6256  0.5167  0.2875
  179SAPE  H17Y20497  -0.094   7.717   4.426 -1.5829  1.1336 -0.4524
  179SAPE  C31820498  -0.012   7.517   4.457  0.5177  0.6244  0.0748
  179SAPE  H18X20499   0.063   7.537   4.378 -2.6550 -2.1081 -4.0749
  179SAPE  H18Y20500  -0.043   7.411   4.445  0.9819  0.5573 -0.5775
  179SAPE  H18Z20501   0.030   7.542   4.557 -0.2208  0.4932  0.4210
  180SAPE     N20502   1.286   5.884   2.437  0.0211  0.1109 -0.5566
  180SAPE   HN120503   1.209   5.856   2.501  0.5300  2.5280  1.2809
  180SAPE   HN220504   1.348   5.800   2.444 -0.5818 -0.3885 -1.0939
  180SAPE   HN320505   1.339   5.962   2.479 -0.8936  0.3653  0.1544
  180SAPE   C1220506   1.233   5.901   2.302 -0.0633 -0.3722  0.4002
  180SAPE  H12A20507   1.147   5.833   2.284 -1.3061  0.8775  1.3686
  180SAPE  H12B20508   1.309   5.881   2.224  0.1288 -0.8593  0.7084
  180SAPE   C1120509   1.188   6.044   2.295 -0.9138 -0.4284  0.8832
  180SAPE  H11A20510   1.121   6.066   2.381 -0.3952 -0.1905  1.2289
  180SAPE  H11B20511   1.121   6.053   2.207 -0.5205 -1.4496  0.4644
  180SAPE     P20512   1.327   6.226   2.415 -0.2602 -0.1697 -0.2056
  180SAPE   O1320513   1.370   6.135   2.519 -0.0230 -0.3513  0.0774
  180SAPE   O1420514   1.422   6.337   2.382 -0.1280 -0.0456  0.2456
  180SAPE   O1220515   1.303   6.135   2.289  0.0706 -0.0597  0.1456
  180SAPE   O1120516   1.191   6.287   2.456 -0.3276 -0.2180 -0.5256
  180SAPE    C120517   1.134   6.405   2.407 -0.1913 -0.1888  0.0241
  180SAPE    HA20518   1.165   6.424   2.302  0.0007 -0.0497  0.1067
  180SAPE    HB20519   1.023   6.398   2.402 -0.2824  0.6520  0.5811
  180SAPE    C220520   1.177   6.525   2.502 -0.0250 -0.2637 -0.4250
  180SAPE    HS20521   1.287   6.520   2.509 -0.0861  0.3289  1.4509
  180SAPE   O2120522   1.118   6.507   2.635  0.2071  0.7232 -0.2975
  180SAPE   C2120523   1.194   6.437   2.719  0.2732 -0.5901 -0.0062
  180SAPE   O2220524   1.311   6.434   2.719  0.3704 -0.0262  0.0733
  180SAPE   C2220525   1.109   6.357   2.828 -0.0809 -0.0378  0.4999
  180SAPE   H2R20526   1.163   6.354   2.926 -0.0322 -1.2754  0.4440
  180SAPE   H2S20527   1.007   6.399   2.838  0.3534  1.4360 -0.8172
  180SAPE    C320528   1.140   6.662   2.453 -0.8009  0.5623  0.2675
  180SAPE    HX20529   1.195   6.676   2.357 -2.1452  0.9570 -0.4614
  180SAPE    HY20530   1.184   6.741   2.517 -0.1348  1.5731 -1.3544
  180SAPE   O3120531   1.000   6.679   2.450  0.0023  0.2211 -0.0378
  180SAPE   C3120532   0.968   6.805   2.419 -0.1272 -0.1039  0.3913
  180SAPE   O3220533   1.036   6.906   2.434  0.5994 -0.1076  0.3630
  180SAPE   C3220534   0.822   6.819   2.366  0.5245  0.9137 -0.3586
  180SAPE   H2X20535   0.779   6.717   2.377  2.7851 -0.4256 -2.8304
  180SAPE   H2Y20536   0.836   6.847   2.259  4.3314  0.1171 -0.2266
  180SAPE   C2320537   1.097   6.205   2.789  0.1557  0.0537  0.0944
  180SAPE   H3R20538   1.195   6.156   2.806  0.0603 -0.3472 -0.4955
  180SAPE   H3S20539   1.078   6.204   2.680 -1.8408  3.4900  0.2394
  180SAPE   C2420540   0.977   6.125   2.853 -0.5976 -0.0641 -0.2470
  180SAPE   H4R20541   0.897   6.143   2.778  1.0044 -1.4390 -2.3996
  180SAPE   H4S20542   0.956   6.164   2.955  1.9505  0.7293  0.0448
  180SAPE   C2520543   0.999   5.975   2.860 -0.4899 -0.5917  0.5774
  180SAPE   H5R20544   0.968   5.928   2.765  1.4298  0.2827 -0.5304
  180SAPE   C2620545   1.047   5.902   2.958  0.1050 -0.1628 -1.1900
  180SAPE   H6R20546   1.062   5.794   2.942  0.0585 -0.5997  1.3976
  180SAPE   C2720547   1.081   5.965   3.092  0.6089 -0.9938  0.3018
  180SAPE   H7R20548   0.993   5.951   3.158  0.7591 -2.3756  0.2396
  180SAPE   H7S20549   1.102   6.074   3.086 -0.2805 -0.7899  0.7044
  180SAPE   C2820550   1.201   5.906   3.146  0.0208 -0.8729  0.0562
  180SAPE   H8R20551   1.278   5.893   3.068  0.6560 -2.1033  0.8614
  180SAPE   C2920552   1.222   5.880   3.276  0.1001 -0.2873 -0.2713
  180SAPE   H9R20553   1.312   5.821   3.299 -0.1761 -1.3495 -1.7640
  180SAPE  C21020554   1.139   5.918   3.397  0.4655  0.3004 -0.2434
  180SAPE  H10R20555   1.055   5.984   3.369 -0.0883 -0.1697  0.2699
  180SAPE  H10S20556   1.206   5.979   3.461  0.6144 -0.6450  0.5369
  180SAPE  C21120557   1.069   5.812   3.472  0.3934  0.1584  0.4064
  180SAPE  H11R20558   1.071   5.713   3.425 -0.5980  0.7743 -0.9849
  180SAPE  C21220559   1.013   5.828   3.595 -0.5021  0.3220 -0.2785
  180SAPE  H12R20560   0.963   5.745   3.648  0.6985  0.4572  1.1109
  180SAPE  C21320561   1.024   5.956   3.680 -0.7662  0.1821 -0.8404
  180SAPE  H13R20562   0.928   5.994   3.719 -0.9211 -1.3516  0.4239
  180SAPE  H13S20563   1.060   6.041   3.619 -0.9746  0.8241 -0.0857
  180SAPE  C21420564   1.116   5.924   3.798  0.7403 -0.1024  0.3353
  180SAPE  H14R20565   1.217   5.898   3.766  0.1051 -1.2111 -0.8807
  180SAPE  C21520566   1.091   5.937   3.928 -0.4797 -0.6654  0.4175
  180SAPE  H15R20567   1.172   5.913   3.999 -1.5514 -2.3514  1.1644
  180SAPE  C21620568   0.959   5.968   3.989 -0.0394  0.7201 -0.3308
  180SAPE  H16R20569   0.938   5.881   4.054  1.9164  1.1949  1.0301
  180SAPE  H16S20570   0.872   5.977   3.921  0.3434  0.2318 -0.8927
  180SAPE  C21720571   0.974   6.096   4.068  0.3506  0.6036 -0.0715
  180SAPE  H17R20572   1.026   6.170   4.004  2.2069 -0.5117  0.0943
  180SAPE  H17S20573   1.049   6.073   4.146  0.0590 -2.0612 -0.4735
  180SAPE  C21820574   0.845   6.159   4.124  0.0060  0.6637 -0.4777
  180SAPE  H18R20575   0.806   6.090   4.201 -0.1155  0.6320 -0.5677
  180SAPE  H18S20576   0.771   6.172   4.042  0.2891 -0.0269 -0.8471
  180SAPE  C21920577   0.862   6.306   4.181  0.2798 -0.3069  0.1148
  180SAPE  H19R20578   0.867   6.358   4.082 -0.6514 -5.2737 -2.8733
  180SAPE  H19S20579   0.955   6.301   4.241  0.1239 -1.6968  0.2523
  180SAPE  C22020580   0.747   6.368   4.257 -0.6804 -0.1559  0.2007
  180SAPE  H20R20581   0.759   6.476   4.275 -0.4088  0.3259 -2.4751
  180SAPE  H20S20582   0.746   6.313   4.354  2.2889 -0.7346  0.0074
  180SAPE  H20T20583   0.652   6.365   4.200 -0.5488  2.0560 -0.1897
  180SAPE   C3320584   0.737   6.926   2.437 -0.0645  0.1463  0.2054
  180SAPE   H3X20585   0.638   6.948   2.391  0.1194 -0.1659 -0.3524
  180SAPE   H3Y20586   0.797   7.017   2.417  0.5765 -0.5602 -1.1904
  180SAPE   C3420587   0.709   6.901   2.588  0.3133  0.2375  1.2360
  180SAPE   H4X20588   0.812   6.874   2.617  0.7875 -0.0872 -0.5934
  180SAPE   H4Y20589   0.650   6.813   2.623 -2.0898  1.2615  0.0271
  180SAPE   C3520590   0.673   7.018   2.668  0.2601  0.2661  0.2608
  180SAPE   H5X20591   0.579   7.054   2.620 -1.9685 -1.8225  2.7395
  180SAPE   H5Y20592   0.747   7.101   2.663 -0.9931  1.3591 -1.2996
  180SAPE   C3620593   0.657   6.977   2.817  0.0820  0.7306 -0.1238
  180SAPE   H6X20594   0.754   6.935   2.853 -0.5160  0.9327  1.8879
  180SAPE   H6Y20595   0.581   6.896   2.823  1.7415 -0.8384  1.0218
  180SAPE   C3720596   0.612   7.090   2.909  0.5920 -0.3159 -0.9119
  180SAPE   H7X20597   0.518   7.142   2.880  0.5575 -1.3417 -2.7934
  180SAPE   H7Y20598   0.688   7.172   2.912 -0.0350  0.3144 -1.7891
  180SAPE   C3820599   0.598   7.049   3.057  0.3614  0.6606 -0.1823
  180SAPE   H8X20600   0.694   7.016   3.102  0.4126 -1.1595 -1.5095
  180SAPE   H8Y20601   0.533   6.959   3.058 -0.7296  1.3285 -2.7721
  180SAPE   C3920602   0.530   7.156   3.148 -0.2458 -0.1029 -0.4405
  180SAPE   H9X20603   0.422   7.161   3.126 -0.7212 -2.1565  1.0941
  180SAPE   H9Y20604   0.579   7.252   3.121  0.2180 -0.5478 -1.1959
  180SAPE  C31020605   0.542   7.122   3.300 -0.1824  0.0178  0.3595
  180SAPE  H10X20606   0.650   7.120   3.324 -0.2854 -0.5942  0.7851
  180SAPE  H10Y20607   0.499   7.020   3.310 -0.8838  0.2114 -0.5374
  180SAPE  C31120608   0.463   7.215   3.392 -0.0808  0.4924 -0.2954
  180SAPE  H11X20609   0.355   7.206   3.367  0.0306 -1.8282 -0.2394
  180SAPE  H11Y20610   0.501   7.317   3.373 -0.8908  1.2858  2.0132
  180SAPE  C31220611   0.471   7.180   3.548 -0.0075  0.1453  0.4579
  180SAPE  H12X20612   0.578   7.172   3.575  0.2094 -0.3252 -0.5007
  180SAPE  H12Y20613   0.431   7.077   3.561  1.7574 -0.2895  3.1193
  180SAPE  C31320614   0.392   7.273   3.643  0.1484 -0.0850 -0.0967
  180SAPE  H13X20615   0.282   7.259   3.634  0.1005  0.2253 -0.0232
  180SAPE  H13Y20616   0.424   7.379   3.631  2.1089 -0.7374 -1.0557
  180SAPE  C31420617   0.424   7.232   3.782 -0.0623 -0.1832 -0.4279
  180SAPE  H14X20618   0.529   7.253   3.810  0.1337 -0.9801 -0.5508
  180SAPE  H14Y20619   0.406   7.122   3.780 -0.2900 -0.1486 -0.3751
  180SAPE  C31520620   0.341   7.305   3.893 -0.0159  0.3726  0.3808
  180SAPE  H15X20621   0.237   7.315   3.856 -0.2961 -0.5895  0.8796
  180SAPE  H15Y20622   0.375   7.411   3.881 -1.6855  0.7116 -2.3587
  180SAPE  C31620623   0.347   7.249   4.031 -0.4240  0.2101 -0.3195
  180SAPE  H16X20624   0.453   7.229   4.058 -1.3827 -2.6527  1.9304
  180SAPE  H16Y20625   0.297   7.150   4.031  0.4395 -0.2502 -1.7389
  180SAPE  C31720626   0.288   7.346   4.141 -0.0426  0.5464  0.1402
  180SAPE  H17X20627   0.178   7.357   4.143  0.1669  3.1017  0.6009
  180SAPE  H17Y20628   0.328   7.449   4.135  1.0633  0.1550  0.4623
  180SAPE  C31820629   0.327   7.296   4.274 -0.1756 -0.0792  1.1813
  180SAPE  H18X20630   0.437   7.304   4.287  0.3220 -2.5112 -0.8634
  180SAPE  H18Y20631   0.290   7.193   4.295 -0.8512 -0.4863 -1.6280
  180SAPE  H18Z20632   0.286   7.360   4.355  0.0784  0.1596  1.1209
  181SAPE     N20633   3.847   0.766   2.294  0.0973  0.4893 -0.2797
  181SAPE   HN120634   3.933   0.824   2.297  0.6500 -0.2610 -1.1850
  181SAPE   HN220635   3.773   0.835   2.317  0.1166  0.2505  0.5444
  181SAPE   HN320636   3.847   0.704   2.378  0.4356  0.7305 -0.0982
  181SAPE   C1220637   3.820   0.695   2.163  0.0634 -0.0666 -0.2548
  181SAPE  H12A20638   3.817   0.776   2.088  2.2912  1.4030  1.1078
  181SAPE  H12B20639   3.731   0.628   2.165  0.1508 -0.2254 -1.1876
  181SAPE   C1120640   3.940   0.607   2.128 -0.0088 -0.4699 -0.4005
  181SAPE  H11A20641   4.031   0.671   2.135  0.2562 -0.8940  0.1426
  181SAPE  H11B20642   3.926   0.567   2.025  2.4801  0.5774 -1.2190
  181SAPE     P20643   3.883   0.373   2.223 -0.2315 -0.1862 -0.1166
  181SAPE   O1320644   3.755   0.389   2.149 -0.5424  0.5852  0.3564
  181SAPE   O1420645   3.979   0.269   2.181  0.6668  0.4376 -0.1112
  181SAPE   O1220646   3.956   0.510   2.227  0.0581 -0.1853 -0.2545
  181SAPE   O1120647   3.846   0.339   2.369  0.0952  0.3832  0.2635
  181SAPE    C120648   3.706   0.311   2.412  0.1150 -0.8907  0.1101
  181SAPE    HA20649   3.646   0.264   2.331  0.2747  3.3398 -2.8365
  181SAPE    HB20650   3.700   0.254   2.507  0.1959 -1.0141  0.0419
  181SAPE    C220651   3.625   0.445   2.449 -0.7905 -0.3546  0.6819
  181SAPE    HS20652   3.660   0.526   2.382 -1.8381 -0.3838  0.0693
  181SAPE   O2120653   3.651   0.478   2.586 -0.4068 -0.7046 -0.6274
  181SAPE   C2120654   3.621   0.608   2.622 -0.7852  0.2852 -0.0943
  181SAPE   O2220655   3.567   0.684   2.549  0.1885 -0.3348 -0.2702
  181SAPE   C2220656   3.635   0.634   2.779  0.3518  0.0980  0.0619
  181SAPE   H2R20657   3.534   0.671   2.803 -0.1167  0.3132 -2.0416
  181SAPE   H2S20658   3.668   0.539   2.828 -1.3840 -0.2448  0.6409
  181SAPE    C320659   3.472   0.437   2.426 -0.0765  1.3182 -0.2643
  181SAPE    HX20660   3.443   0.407   2.323 -2.6196  0.2524  0.6812
  181SAPE    HY20661   3.434   0.541   2.437  0.3008  1.6630 -1.9701
  181SAPE   O3120662   3.407   0.343   2.518 -0.2636 -0.1177  0.5521
  181SAPE   C3120663   3.393   0.217   2.484 -0.1307  0.1095  0.3489
  181SAPE   O3220664   3.424   0.167   2.374 -0.7396  0.7659  0.0816
  181SAPE   C3220665   3.344   0.137   2.602  0.7204 -0.7779 -0.1482
  181SAPE   H2X20666   3.402   0.175   2.689  1.0306 -0.6151 -0.4282
  181SAPE   H2Y20667   3.374   0.031   2.587  1.0165 -0.9354  1.3967
  181SAPE   C2320668   3.718   0.763   2.809 -0.2789  0.9948 -1.1219
  181SAPE   H3R20669   3.705   0.840   2.731  1.5768  0.8190 -1.6434
  181SAPE   H3S20670   3.827   0.749   2.826 -0.7503  0.0468  1.7431
  181SAPE   C2420671   3.677   0.824   2.944 -0.5219 -0.3031  0.5526
  181SAPE   H4R20672   3.663   0.746   3.022  0.9868  0.1984  1.3788
  181SAPE   H4S20673   3.580   0.873   2.923  0.7101  2.5953  1.0267
  181SAPE   C2520674   3.763   0.932   2.994  0.3246 -0.0851 -0.0298
  181SAPE   H5R20675   3.774   1.022   2.932  1.1216  0.0380  0.2724
  181SAPE   C2620676   3.825   0.929   3.118 -0.1589 -0.4310  0.0934
  181SAPE   H6R20677   3.894   1.011   3.143 -0.5112 -0.4095  1.0203
  181SAPE   C2720678   3.818   0.822   3.225  0.3306 -0.0561  0.7231
  181SAPE   H7R20679   3.770   0.727   3.194 -0.7744  0.4588  0.7822
  181SAPE   H7S20680   3.750   0.863   3.304 -0.1285 -2.5287  1.6998
  181SAPE   C2820681   3.951   0.795   3.282  0.2306  0.1483  0.9971
  181SAPE   H8R20682   4.008   0.714   3.232 -1.6619  0.0414 -1.1314
  181SAPE   C2920683   4.005   0.863   3.385  0.6007 -0.1437 -0.0455
  181SAPE   H9R20684   4.101   0.828   3.424  1.1725  0.4307 -0.8940
  181SAPE  C21020685   3.947   0.974   3.472  0.7328  0.1979 -0.9743
  181SAPE  H10R20686   3.885   1.038   3.406 -2.7063 -2.0857 -0.2349
  181SAPE  H10S20687   4.026   1.037   3.520  2.9757 -3.5918  0.8127
  181SAPE  C21120688   3.856   0.908   3.581 -0.1203 -0.2724 -0.0891
  181SAPE  H11R20689   3.858   0.798   3.577  2.3293 -0.2489 -3.1441
  181SAPE  C21220690   3.769   0.970   3.663 -0.4005 -0.0002 -0.5643
  181SAPE  H12R20691   3.711   0.912   3.735  0.3657  1.3497  1.2210
  181SAPE  C21320692   3.738   1.114   3.675  0.0337  0.2899 -0.2733
  181SAPE  H13R20693   3.681   1.135   3.767  2.0873  0.6924  0.9563
  181SAPE  H13S20694   3.665   1.132   3.593 -0.8982 -1.2230  0.1825
  181SAPE  C21420695   3.840   1.223   3.670  0.5749  0.3154  0.2538
  181SAPE  H14R20696   3.936   1.200   3.622 -0.4031 -2.2805 -0.6491
  181SAPE  C21520697   3.826   1.353   3.716  0.8243  0.7688  0.6437
  181SAPE  H15R20698   3.911   1.421   3.707  1.1881  0.1734 -0.6666
  181SAPE  C21620699   3.702   1.397   3.796 -0.0651 -0.2410 -0.0463
  181SAPE  H16R20700   3.616   1.326   3.803 -0.5344  0.3402  0.2420
  181SAPE  H16S20701   3.659   1.483   3.739  2.0433 -0.1677 -1.6081
  181SAPE  C21720702   3.740   1.447   3.936 -0.2088 -0.0014  0.0826
  181SAPE  H17R20703   3.815   1.528   3.937 -1.8106  1.6110  3.2216
  181SAPE  H17S20704   3.788   1.363   3.992  1.7972  0.3619 -1.0051
  181SAPE  C21820705   3.620   1.495   4.020 -0.3330  0.0673  0.5066
  181SAPE  H18R20706   3.539   1.419   4.021  0.4391 -0.7868  0.4827
  181SAPE  H18S20707   3.579   1.570   3.950 -0.3478 -2.2592 -2.1656
  181SAPE  C21920708   3.650   1.555   4.156  0.0483  0.4010 -0.0781
  181SAPE  H19R20709   3.568   1.617   4.197 -2.1863 -0.6397 -2.6064
  181SAPE  H19S20710   3.746   1.610   4.146  0.9847 -1.3519 -1.3472
  181SAPE  C22020711   3.665   1.451   4.269 -0.6072  0.0212  0.2402
  181SAPE  H20R20712   3.681   1.503   4.365  1.7392 -0.9483  0.4606
  181SAPE  H20S20713   3.746   1.375   4.258 -0.8823 -0.0498 -1.7099
  181SAPE  H20T20714   3.573   1.389   4.261 -0.7184  0.1957  0.1622
  181SAPE   C3320715   3.190   0.153   2.623 -0.4210  0.6375  0.4379
  181SAPE   H3X20716   3.152   0.081   2.700  0.1197  0.2626  0.3609
  181SAPE   H3Y20717   3.134   0.123   2.532 -1.9466  0.6345  1.3382
  181SAPE   C3420718   3.142   0.289   2.661 -0.0506 -1.6394  0.3404
  181SAPE   H4X20719   3.032   0.306   2.656  0.2220  0.2225 -0.0980
  181SAPE   H4Y20720   3.199   0.355   2.592 -1.6245 -1.5310 -0.9231
  181SAPE   C3520721   3.184   0.327   2.806 -0.5326 -0.6821 -0.6248
  181SAPE   H5X20722   3.149   0.432   2.818  2.3690  0.2540  0.6485
  181SAPE   H5Y20723   3.294   0.323   2.824 -0.8449  0.8630  2.0692
  181SAPE   C3620724   3.093   0.253   2.910 -0.7891  0.2306 -0.3806
  181SAPE   H6X20725   3.113   0.144   2.901 -2.5968 -0.2222  0.5630
  181SAPE   H6Y20726   2.984   0.274   2.901 -0.7927  0.6813  0.6489
  181SAPE   C3720727   3.138   0.288   3.054  0.0489  0.0604  0.2168
  181SAPE   H7X20728   3.080   0.367   3.106 -0.6150 -1.4020  1.7965
  181SAPE   H7Y20729   3.239   0.332   3.043 -0.2816  0.7506 -0.1024
  181SAPE   C3820730   3.118   0.187   3.165 -0.0433  0.2290 -0.0480
  181SAPE   H8X20731   3.183   0.100   3.142 -0.7923 -0.3414 -0.0358
  181SAPE   H8Y20732   3.014   0.148   3.166  0.2998 -0.8301 -1.6856
  181SAPE   C3920733   3.154   0.245   3.304 -0.3621 -0.6214 -0.3992
  181SAPE   H9X20734   3.093   0.331   3.339  1.8560 -0.5067  3.8113
  181SAPE   H9Y20735   3.258   0.285   3.299 -0.9733  1.0997 -0.1458
  181SAPE  C31020736   3.149   0.135   3.418  0.0721  0.4707  0.2286
  181SAPE  H10X20737   3.209   0.047   3.387 -0.7248 -0.7060  1.9287
  181SAPE  H10Y20738   3.045   0.098   3.426 -0.3072  1.7390  1.5350
  181SAPE  C31120739   3.194   0.194   3.551 -0.9479  0.3253  0.1151
  181SAPE  H11X20740   3.134   0.284   3.578 -3.4358  0.0326 -3.6332
  181SAPE  H11Y20741   3.300   0.227   3.549 -0.8397 -0.0440 -0.8365
  181SAPE  C31220742   3.167   0.096   3.667  0.0336  0.3570  0.8593
  181SAPE  H12X20743   3.231   0.007   3.652 -1.8104 -1.3055  2.2068
  181SAPE  H12Y20744   3.060   0.067   3.668  0.1476 -0.0694  1.7611
  181SAPE  C31320745   3.197   0.150   3.807 -0.0711 -0.0101  0.3662
  181SAPE  H13X20746   3.129   0.230   3.844  0.7426  0.7753  0.2255
  181SAPE  H13Y20747   3.297   0.199   3.803  1.0191 -2.2096 -1.2160
  181SAPE  C31420748   3.201   0.038   3.914 -0.3210  1.0826  0.2159
  181SAPE  H14X20749   3.255  -0.053   3.880 -0.3169  1.3545 -0.5041
  181SAPE  H14Y20750   3.098  -0.003   3.928 -0.0370 -0.1370 -1.0662
  181SAPE  C31520751   3.263   0.094   4.045  0.1628  0.3448  0.8937
  181SAPE  H15X20752   3.209   0.184   4.081  0.0104  0.6977 -0.1957
  181SAPE  H15Y20753   3.371   0.119   4.032 -0.0799  0.3410 -1.5145
  181SAPE  C31620754   3.240   0.008   4.172  0.7178  0.4476  0.5116
  181SAPE  H16X20755   3.279  -0.093   4.147  0.3834  0.6971 -1.0819
  181SAPE  H16Y20756   3.131   0.005   4.191  0.8685 -1.1304  1.3412
  181SAPE  C31720757   3.304   0.051   4.301  0.0327 -0.0361  0.0887
  181SAPE  H17X20758   3.259   0.142   4.346  0.2438  1.3793 -2.4110
  181SAPE  H17Y20759   3.408   0.077   4.273 -0.3439  2.7119  1.0177
  181SAPE  C31820760   3.301  -0.054   4.418 -0.7713  0.0347 -0.6012
  181SAPE  H18X20761   3.351  -0.002   4.503 -2.0223  2.4558 -1.2509
  181SAPE  H18Y20762   3.366  -0.140   4.394  2.8371  2.8964 -1.9983
  181SAPE  H18Z20763   3.199  -0.081   4.452 -1.0093  2.9542  1.4225
  182SAPE     N20764   0.448   0.795   2.017  0.0707  0.2536 -0.1326
  182SAPE   HN120765   0.373   0.820   2.086 -1.3132 -0.0326 -1.4760
  182SAPE   HN220766   0.421   0.700   1.985  0.6146  0.2040 -0.4496
  182SAPE   HN320767   0.544   0.791   2.056  0.8793 -1.8820 -2.1460
  182SAPE   C1220768   0.430   0.897   1.920 -0.1328 -0.8979  0.4478
  182SAPE  H12A20769   0.456   0.857   1.819 -1.4108  1.3713 -0.8790
  182SAPE  H12B20770   0.501   0.982   1.933 -0.7303 -0.3481  0.1849
  182SAPE   C1120771   0.283   0.948   1.927  0.5570  0.4803 -0.1576
  182SAPE  H11A20772   0.209   0.870   1.899  0.7262  0.8830 -1.8554
  182SAPE  H11B20773   0.288   1.037   1.860  1.9139 -0.6332 -1.5841
  182SAPE     P20774   0.159   0.964   2.157 -0.3583  0.5437  0.4288
  182SAPE   O1320775   0.165   1.055   2.276  0.5368  0.3880 -0.7126
  182SAPE   O1420776   0.033   0.943   2.078 -0.2300 -0.7222 -0.5697
  182SAPE   O1220777   0.277   0.997   2.061  0.1693  0.2286  0.6609
  182SAPE   O1120778   0.234   0.829   2.198  0.4380 -0.3220 -0.3214
  182SAPE    C120779   0.159   0.705   2.223  0.0341  0.4034 -0.2694
  182SAPE    HA20780   0.055   0.701   2.184 -0.8535  0.8472  1.8702
  182SAPE    HB20781   0.210   0.621   2.171  0.4490 -0.7364  1.8222
  182SAPE    C220782   0.143   0.683   2.377  0.4636 -0.5774 -0.4003
  182SAPE    HS20783   0.120   0.575   2.390  1.0010 -0.6864 -0.3325
  182SAPE   O2120784   0.026   0.763   2.425 -0.5332  0.5191  0.4141
  182SAPE   C2120785  -0.093   0.717   2.392 -1.2069 -0.1564  0.0756
  182SAPE   O2220786  -0.115   0.606   2.347 -0.2725  0.0469 -0.3934
  182SAPE   C2220787  -0.197   0.812   2.438 -0.9884  0.1875 -0.0814
  182SAPE   H2R20788  -0.190   0.830   2.548 -2.6374  0.4540  0.0033
  182SAPE   H2S20789  -0.175   0.907   2.384  0.2105 -0.1112 -0.1550
  182SAPE    C320790   0.278   0.722   2.448 -0.2435  0.5417 -1.2414
  182SAPE    HX20791   0.296   0.831   2.437 -1.8138  0.6695 -3.3693
  182SAPE    HY20792   0.344   0.656   2.387 -0.3585 -1.8584  1.0872
  182SAPE   O3120793   0.280   0.665   2.581 -0.3587 -0.3979 -0.3096
  182SAPE   C3120794   0.226   0.743   2.678  0.0143 -0.0471 -0.3901
  182SAPE   O3220795   0.199   0.862   2.664 -0.0208  0.0575  0.4577
  182SAPE   C3220796   0.182   0.667   2.797  0.0935  0.7876  0.4234
  182SAPE   H2X20797   0.261   0.601   2.838  0.4159 -0.4493 -1.9749
  182SAPE   H2Y20798   0.103   0.598   2.759  0.6944  0.5691 -0.4708
  182SAPE   C2320799  -0.336   0.764   2.411  1.0785 -0.1281  0.4209
  182SAPE   H3R20800  -0.337   0.676   2.478 -0.1165 -1.6811 -1.5138
  182SAPE   H3S20801  -0.348   0.726   2.307 -1.8416 -1.5803  1.1969
  182SAPE   C2420802  -0.448   0.861   2.436 -0.5429 -0.1564 -0.1998
  182SAPE   H4R20803  -0.544   0.805   2.438 -1.1835  0.9350  0.5303
  182SAPE   H4S20804  -0.440   0.934   2.353  0.1997  3.1439  2.5624
  182SAPE   C2520805  -0.438   0.933   2.569  0.8375 -0.9202  0.1070
  182SAPE   H5R20806  -0.384   1.029   2.565 -0.1449 -0.3794 -0.5539
  182SAPE   C2620807  -0.489   0.893   2.683  0.2979  0.4224 -0.2893
  182SAPE   H6R20808  -0.471   0.955   2.772 -0.1926 -0.5738  0.5134
  182SAPE   C2720809  -0.579   0.769   2.707 -0.3459  0.3433  1.0767
  182SAPE   H7R20810  -0.534   0.714   2.792  2.5221 -0.8170 -1.0035
  182SAPE   H7S20811  -0.572   0.692   2.627 -0.4794 -1.2151  2.5111
  182SAPE   C2820812  -0.731   0.799   2.707 -0.2046  0.0072  0.1978
  182SAPE   H8R20813  -0.784   0.818   2.613 -0.7720  1.2879  0.7489
  182SAPE   C2920814  -0.807   0.825   2.816  0.6926 -0.6187  0.9971
  182SAPE   H9R20815  -0.914   0.849   2.808  0.5116 -1.7711 -0.8878
  182SAPE  C21020816  -0.756   0.825   2.956  0.3439 -0.1147  0.2953
  182SAPE  H10R20817  -0.719   0.929   2.970  0.4919  0.5802 -3.9632
  182SAPE  H10S20818  -0.672   0.753   2.971  1.4261  1.3651  1.7448
  182SAPE  C21120819  -0.855   0.794   3.065 -0.2693  0.0649  0.5880
  182SAPE  H11R20820  -0.923   0.708   3.060 -0.2986  0.0283  1.4021
  182SAPE  C21220821  -0.846   0.856   3.191 -0.1520 -0.4030 -0.4038
  182SAPE  H12R20822  -0.917   0.828   3.271  0.3807  1.0317  0.6145
  182SAPE  C21320823  -0.739   0.954   3.243 -0.6985  0.3698  0.2341
  182SAPE  H13R20824  -0.646   0.935   3.185 -0.6020 -1.9554  1.0527
  182SAPE  H13S20825  -0.696   0.921   3.340  0.9004  0.8310 -0.2843
  182SAPE  C21420826  -0.766   1.104   3.238  0.4158  0.4067 -0.3919
  182SAPE  H14R20827  -0.765   1.143   3.136  0.0262 -1.4526 -1.1458
  182SAPE  C21520828  -0.784   1.188   3.341 -0.3434  0.0264  0.1579
  182SAPE  H15R20829  -0.799   1.296   3.327  1.8912  0.1360 -1.9008
  182SAPE  C21620830  -0.797   1.143   3.482 -0.1635  0.0804 -0.8361
  182SAPE  H16R20831  -0.753   1.043   3.501  1.6111  0.8150 -0.9182
  182SAPE  H16S20832  -0.908   1.140   3.488 -0.6326  2.9386 -4.5328
  182SAPE  C21720833  -0.727   1.252   3.569 -0.2750 -0.1291 -0.2981
  182SAPE  H17R20834  -0.769   1.355   3.560 -0.7676 -0.3484 -0.5450
  182SAPE  H17S20835  -0.617   1.255   3.555 -0.4451 -0.1870 -1.7470
  182SAPE  C21820836  -0.743   1.220   3.716  0.1227 -0.8703  0.1829
  182SAPE  H18R20837  -0.657   1.268   3.767 -0.7196  1.2583 -0.2903
  182SAPE  H18S20838  -0.729   1.110   3.720  1.4336 -0.7244 -0.0188
  182SAPE  C21920839  -0.874   1.276   3.776 -0.5950 -0.0973 -0.0554
  182SAPE  H19R20840  -0.965   1.225   3.739 -0.7925  0.4156 -0.2867
  182SAPE  H19S20841  -0.891   1.379   3.737 -0.4371 -0.5054 -1.2520
  182SAPE  C22020842  -0.883   1.277   3.926  0.1773 -0.2723 -0.0279
  182SAPE  H20R20843  -0.987   1.305   3.953  0.5987 -0.0635  1.4592
  182SAPE  H20S20844  -0.809   1.346   3.971  0.4577  0.1176 -1.0597
  182SAPE  H20T20845  -0.863   1.177   3.972  2.4908  0.1046 -0.0880
  182SAPE   C3320846   0.125   0.754   2.912 -0.7370 -0.2797 -0.4029
  182SAPE   H3X20847   0.067   0.692   2.983 -2.1605 -0.2280 -1.4884
  182SAPE   H3Y20848   0.046   0.817   2.866 -1.2189 -0.1709  0.5514
  182SAPE   C3420849   0.240   0.827   2.982  0.4848  0.3372 -0.0326
  182SAPE   H4X20850   0.290   0.899   2.914  1.3117  1.0828  1.3096
  182SAPE   H4Y20851   0.325   0.761   3.010  0.5571  1.2725  2.1632
  182SAPE   C3520852   0.188   0.892   3.110  1.0004 -0.2069  0.2440
  182SAPE   H5X20853   0.107   0.962   3.080  1.7517 -0.4114 -2.6092
  182SAPE   H5Y20854   0.269   0.958   3.147  0.4119  0.9772 -0.5240
  182SAPE   C3620855   0.130   0.794   3.216 -0.6070  0.4027  1.0688
  182SAPE   H6X20856   0.202   0.710   3.205  0.8623  1.6652  0.7238
  182SAPE   H6Y20857   0.037   0.762   3.165 -0.5127  1.2221  0.3597
  182SAPE   C3720858   0.111   0.861   3.358  1.1763 -0.2708 -0.0782
  182SAPE   H7X20859   0.045   0.787   3.407  1.1694 -2.5949 -3.2271
  182SAPE   H7Y20860   0.052   0.953   3.342 -0.0619 -0.5237  2.5766
  182SAPE   C3820861   0.232   0.883   3.449  0.3846 -0.3153 -0.4530
  182SAPE   H8X20862   0.270   0.985   3.426  0.3463 -0.0868  0.4603
  182SAPE   H8Y20863   0.309   0.809   3.420  1.4796  0.4967  0.2717
  182SAPE   C3920864   0.191   0.864   3.599 -0.0704 -0.2625 -0.0381
  182SAPE   H9X20865   0.158   0.762   3.631 -0.2932 -0.4487 -0.8422
  182SAPE   H9Y20866   0.112   0.938   3.620 -0.5962 -1.4507  2.5102
  182SAPE  C31020867   0.296   0.912   3.693 -0.3631 -0.0450  0.1764
  182SAPE  H10X20868   0.332   1.012   3.660 -1.0115  0.5190  1.1337
  182SAPE  H10Y20869   0.381   0.840   3.699 -0.9139 -0.5761  2.4337
  182SAPE  C31120870   0.234   0.929   3.834  0.2807  0.0522  0.0211
  182SAPE  H11X20871   0.190   0.832   3.865  0.5105 -0.3403 -0.8442
  182SAPE  H11Y20872   0.140   0.987   3.821  0.8252  0.7461 -0.9839
  182SAPE  C31220873   0.320   0.999   3.941  0.0562 -0.0901  0.1154
  182SAPE  H12X20874   0.361   1.093   3.896  1.2700 -0.0379  1.2555
  182SAPE  H12Y20875   0.410   0.940   3.971 -0.0404 -0.8644 -1.0563
  182SAPE  C31320876   0.236   1.031   4.075 -0.1751  0.0384  0.5909
  182SAPE  H13X20877   0.193   0.944   4.129  1.1674 -0.8056  0.3516
  182SAPE  H13Y20878   0.158   1.102   4.041 -0.1158  0.3699  1.1297
  182SAPE  C31420879   0.323   1.114   4.179  0.6369  0.2289  0.5765
  182SAPE  H14X20880   0.344   1.208   4.123 -0.2613  0.2320  0.2121
  182SAPE  H14Y20881   0.419   1.061   4.194  0.6828 -0.3668 -1.5155
  182SAPE  C31520882   0.239   1.143   4.302  0.1701  0.1590  0.3256
  182SAPE  H15X20883   0.240   1.049   4.361 -0.5899  1.1622  1.9854
  182SAPE  H15Y20884   0.134   1.174   4.284 -0.0309  0.8446  2.4505
  182SAPE  C31620885   0.302   1.246   4.399  0.2017  0.1091 -0.2738
  182SAPE  H16X20886   0.232   1.257   4.484 -1.5535 -0.4829 -1.5569
  182SAPE  H16Y20887   0.309   1.344   4.347  0.6979  0.0949 -0.2384
  182SAPE  C31720888   0.442   1.210   4.453 -0.2285 -0.4065  0.2521
  182SAPE  H17X20889   0.501   1.178   4.365  2.2254  0.7173  1.3777
  182SAPE  H17Y20890   0.421   1.128   4.525 -0.9955 -0.9162 -0.5409
  182SAPE  C31820891   0.510   1.323   4.528 -0.7986 -0.2589 -0.0066
  182SAPE  H18X20892   0.421   1.373   4.572 -0.5649 -0.0983  0.2907
  182SAPE  H18Y20893   0.549   1.402   4.461  0.7114 -0.2109  0.8885
  182SAPE  H18Z20894   0.579   1.291   4.609 -0.2907 -1.2295 -0.7962
  183SAPE     N20895   3.888   0.007   2.187  0.2940 -0.2371  0.6488
  183SAPE   HN120896   3.799   0.045   2.150  0.5566  0.1224  0.3718
  183SAPE   HN220897   3.960   0.081   2.176 -0.0913  0.1755  0.8873
  183SAPE   HN320898   3.904  -0.067   2.115 -0.1240 -0.1848  0.5016
  183SAPE   C1220899   3.865  -0.050   2.327  0.4905 -0.6669 -0.4230
  183SAPE  H12A20900   3.780  -0.122   2.317  0.2650 -0.8544  2.0705
  183SAPE  H12B20901   3.836   0.033   2.395 -0.7032 -1.3129 -0.1015
  183SAPE   C1120902   3.986  -0.125   2.379 -0.4774  0.2034  0.7432
  183SAPE  H11A20903   3.993  -0.220   2.322  1.5831  1.5861 -1.4699
  183SAPE  H11B20904   3.978  -0.135   2.489  0.0906 -0.8179  0.7029
  183SAPE     P20905   4.238  -0.064   2.411  0.4710  0.1687  0.1285
  183SAPE   O1320906   4.280  -0.206   2.399  0.4503  0.5755  0.4793
  183SAPE   O1420907   4.328   0.037   2.347 -0.6165  0.5410 -0.1744
  183SAPE   O1220908   4.100  -0.044   2.346  0.1553  0.1385 -0.2330
  183SAPE   O1120909   4.210  -0.022   2.557 -0.3573  0.2550  0.3196
  183SAPE    C120910   4.127   0.094   2.586  0.7850 -0.1787 -0.1514
  183SAPE    HA20911   4.031   0.104   2.531 -0.3893  0.9961  1.9688
  183SAPE    HB20912   4.084   0.081   2.688  0.3711  0.6348 -0.2160
  183SAPE    C220913   4.200   0.229   2.599 -0.7015  0.0966 -0.7384
  183SAPE    HS20914   4.212   0.265   2.494 -1.2459  0.3735 -0.7080
  183SAPE   O2120915   4.331   0.210   2.662  0.2323 -0.1011 -0.1833
  183SAPE   C2120916   4.417   0.310   2.640 -0.3717  0.3825  0.0308
  183SAPE   O2220917   4.401   0.395   2.554 -0.1015 -0.1462  0.1758
  183SAPE   C2220918   4.525   0.307   2.748  0.5421 -0.7599 -0.0834
  183SAPE   H2R20919   4.502   0.216   2.808  2.4755 -0.1571  1.6519
  183SAPE   H2S20920   4.622   0.297   2.695  0.7338  1.5815 -0.2478
  183SAPE    C320921   4.105   0.342   2.662 -0.4381  0.1386  0.5249
  183SAPE    HX20922   4.021   0.348   2.589  2.3814  1.8391 -2.8446
  183SAPE    HY20923   4.154   0.441   2.651 -0.7459  0.1282 -1.2431
  183SAPE   O3120924   4.067   0.312   2.798  0.1629 -0.1314 -0.1037
  183SAPE   C3120925   3.995   0.398   2.861  0.8501 -0.2998 -0.1256
  183SAPE   O3220926   3.948   0.500   2.814  0.2392 -0.3943 -0.9105
  183SAPE   C3220927   3.974   0.350   3.007  0.0112  0.0416 -0.4261
  183SAPE   H2X20928   4.073   0.328   3.053 -0.8611  1.5786  2.4037
  183SAPE   H2Y20929   3.918   0.254   3.014  1.1437 -0.7057 -1.2237
  183SAPE   C2320930   4.505   0.430   2.842  0.1233  0.4032 -0.5093
  183SAPE   H3R20931   4.532   0.518   2.781  1.0397  0.1174 -0.5276
  183SAPE   H3S20932   4.573   0.432   2.930 -1.9070  3.5210  1.1623
  183SAPE   C2420933   4.371   0.450   2.902  0.3313  0.6792 -0.0773
  183SAPE   H4R20934   4.288   0.427   2.833 -1.6207  0.6190  2.1792
  183SAPE   H4S20935   4.362   0.558   2.926  2.4729  0.6304  1.2995
  183SAPE   C2520936   4.357   0.346   3.017  0.2001 -0.2267 -0.7126
  183SAPE   H5R20937   4.366   0.240   2.988  1.6533 -0.7588  1.4227
  183SAPE   C2620938   4.340   0.388   3.146  1.2402 -0.0116 -1.1532
  183SAPE   H6R20939   4.337   0.312   3.227  1.1095  1.5499  0.3572
  183SAPE   C2720940   4.320   0.528   3.203  0.8158 -0.5189  0.3044
  183SAPE   H7R20941   4.211   0.545   3.215  1.1183  1.2898  0.7410
  183SAPE   H7S20942   4.350   0.609   3.132 -1.3860 -0.5002 -0.6732
  183SAPE   C2820943   4.397   0.549   3.330 -0.8663 -0.9397 -0.0529
  183SAPE   H8R20944   4.501   0.582   3.314 -0.2396 -3.0654 -0.5646
  183SAPE   C2920945   4.367   0.511   3.457 -0.0138  0.5980  0.0035
  183SAPE   H9R20946   4.438   0.531   3.538 -0.8209 -0.5194  1.0056
  183SAPE  C21020947   4.239   0.443   3.501  1.1220  0.4910  0.7460
  183SAPE  H10R20948   4.170   0.426   3.416  1.9204  0.6122  0.0652
  183SAPE  H10S20949   4.186   0.513   3.569 -2.1087 -1.3105  0.2894
  183SAPE  C21120950   4.251   0.333   3.609 -0.1684  0.6472  0.0410
  183SAPE  H11R20951   4.224   0.237   3.563 -0.6069 -0.5436  2.6178
  183SAPE  C21220952   4.266   0.340   3.741 -1.0258  0.0507 -0.1848
  183SAPE  H12R20953   4.259   0.249   3.802  1.4842  0.3002  0.6004
  183SAPE  C21320954   4.307   0.471   3.817  0.0648 -0.0265  0.2358
  183SAPE  H13R20955   4.319   0.557   3.749  0.3380 -0.7455 -0.6425
  183SAPE  H13S20956   4.410   0.458   3.859 -0.0159 -1.6900 -0.0120
  183SAPE  C21420957   4.210   0.500   3.931  0.6216 -1.2205 -0.0824
  183SAPE  H14R20958   4.191   0.413   3.996  2.5661 -1.4507  0.2672
  183SAPE  C21520959   4.173   0.622   3.974 -0.0626  0.2423  0.2335
  183SAPE  H15R20960   4.114   0.626   4.066 -0.8220 -0.0753 -0.2310
  183SAPE  C21620961   4.219   0.753   3.914  0.1973  1.1498  0.1327
  183SAPE  H16R20962   4.157   0.762   3.822 -0.2747 -2.3097 -0.0256
  183SAPE  H16S20963   4.324   0.752   3.879 -0.3718  1.7941 -1.7376
  183SAPE  C21720964   4.187   0.883   3.998 -0.3969  0.0772  0.0665
  183SAPE  H17R20965   4.248   0.966   3.956 -0.4239  0.1536  0.1755
  183SAPE  H17S20966   4.211   0.867   4.106  1.5401  2.3511  0.0605
  183SAPE  C21820967   4.037   0.907   3.982 -0.5962  0.4118 -0.2046
  183SAPE  H18R20968   3.985   0.810   4.001  1.2738 -0.2170  2.4301
  183SAPE  H18S20969   4.030   0.941   3.877  1.1638  0.6746 -0.2711
  183SAPE  C21920970   3.986   1.014   4.081  0.1762 -0.1102  0.0400
  183SAPE  H19R20971   4.017   1.105   4.025 -0.9494  0.5341  0.4534
  183SAPE  H19S20972   4.045   1.000   4.174 -1.3674  1.4386  1.3213
  183SAPE  C22020973   3.839   1.015   4.102 -0.0439  0.0049  0.1064
  183SAPE  H20R20974   3.796   1.035   4.001 -0.7499  0.6801  0.5270
  183SAPE  H20S20975   3.800   1.099   4.165  0.2794 -0.1401  0.5013
  183SAPE  H20T20976   3.803   0.919   4.144  0.2920  0.2702  1.0248
  183SAPE   C3320977   3.902   0.448   3.094 -0.1658  0.2827 -0.3822
  183SAPE   H3X20978   3.797   0.455   3.058 -0.7326 -1.9642  0.6658
  183SAPE   H3Y20979   3.946   0.550   3.098 -1.8347  1.0173  0.4909
  183SAPE   C3420980   3.877   0.385   3.229  0.8738 -0.1078 -0.4549
  183SAPE   H4X20981   3.968   0.379   3.293  0.2317 -0.5112  0.4403
  183SAPE   H4Y20982   3.831   0.284   3.226  3.1262 -1.1961 -0.3449
  183SAPE   C3520983   3.783   0.471   3.320  0.2062 -0.1115 -0.6620
  183SAPE   H5X20984   3.700   0.519   3.265  2.6700  2.3800 -2.4908
  183SAPE   H5Y20985   3.851   0.557   3.339  2.6389 -2.2944  1.3956
  183SAPE   C3620986   3.749   0.403   3.455  0.3134 -0.2780 -0.1425
  183SAPE   H6X20987   3.827   0.325   3.464 -1.4912 -2.2404 -0.6444
  183SAPE   H6Y20988   3.652   0.348   3.458 -1.1044  2.0593  3.4969
  183SAPE   C3720989   3.762   0.489   3.579 -0.0138 -0.2011 -0.7415
  183SAPE   H7X20990   3.693   0.576   3.580 -1.0793 -1.0043  0.9327
  183SAPE   H7Y20991   3.866   0.526   3.573 -0.1526  0.0058 -2.1021
  183SAPE   C3820992   3.748   0.398   3.703 -0.0825 -0.6508  0.5563
  183SAPE   H8X20993   3.808   0.308   3.676  0.6182  0.0894 -0.4213
  183SAPE   H8Y20994   3.647   0.370   3.739 -0.2917  0.8682  1.2084
  183SAPE   C3920995   3.811   0.450   3.836  0.3753  0.0642  0.2839
  183SAPE   H9X20996   3.756   0.544   3.857  0.3176  0.3125 -0.8974
  183SAPE   H9Y20997   3.922   0.456   3.825  0.2353  0.0360 -1.5213
  183SAPE  C31020998   3.787   0.360   3.968 -0.5205 -0.1802  0.0890
  183SAPE  H10X20999   3.698   0.295   3.969 -0.4508 -0.2898 -0.4834
  183SAPE  H10Y21000   3.769   0.426   4.056  3.4669  0.7097  0.4729
  183SAPE  C31121001   3.904   0.277   4.012 -0.6043 -0.1399 -0.4123
  183SAPE  H11X21002   3.993   0.344   4.008  1.2916 -2.5329 -0.9064
  183SAPE  H11Y21003   3.925   0.210   3.926  0.2194  0.1194 -0.4220
  183SAPE  C31221004   3.891   0.202   4.144 -0.4231 -0.4841 -0.4115
  183SAPE  H12X21005   3.810   0.127   4.144 -0.1139 -0.8551  1.4535
  183SAPE  H12Y21006   3.886   0.278   4.224  0.7950  0.3170 -1.0503
  183SAPE  C31321007   4.023   0.117   4.153  0.2840 -0.9095  0.1847
  183SAPE  H13X21008   4.110   0.181   4.175  1.1079 -1.7055 -0.6518
  183SAPE  H13Y21009   4.051   0.069   4.057  1.6313 -0.3355  0.2795
  183SAPE  C31421010   4.022   0.017   4.277  0.1156  0.1127 -0.0039
  183SAPE  H14X21011   4.014  -0.085   4.235 -1.7503  0.2082  0.0376
  183SAPE  H14Y21012   3.934   0.050   4.335 -0.5104 -3.2581  1.1601
  183SAPE  C31521013   4.149   0.029   4.362  0.1846 -0.3045  0.1072
  183SAPE  H15X21014   4.155   0.123   4.422  2.6184 -1.0782  1.2267
  183SAPE  H15Y21015   4.240   0.036   4.298  0.0449 -0.4438 -0.1060
  183SAPE  C31621016   4.170  -0.089   4.442 -0.3787  0.1492 -0.0316
  183SAPE  H16X21017   4.163  -0.181   4.382  1.4875  0.6742 -1.1088
  183SAPE  H16Y21018   4.107  -0.100   4.533  1.1432 -1.9510  0.8337
  183SAPE  C31721019   4.308  -0.095   4.514 -0.1367  0.0900  0.6256
  183SAPE  H17X21020   4.314  -0.004   4.577  0.1575 -0.0401  0.7877
  183SAPE  H17Y21021   4.396  -0.090   4.445 -0.0535 -1.8970  0.5274
  183SAPE  C31821022   4.327  -0.229   4.586  0.4506  0.0521 -0.3133
  183SAPE  H18X21023   4.266  -0.221   4.679  1.4046 -2.9743  0.6936
  183SAPE  H18Y21024   4.429  -0.242   4.628  0.1404  0.8774  0.7677
  183SAPE  H18Z21025   4.293  -0.319   4.530  1.3494 -0.6952  0.2994
  184SAPE     N21026   4.448   0.493   2.277  0.3627 -0.4981  0.2345
  184SAPE   HN121027   4.477   0.438   2.360 -0.4143  1.1840  1.6685
  184SAPE   HN221028   4.476   0.439   2.192 -1.6250 -1.4039  0.0865
  184SAPE   HN321029   4.498   0.583   2.287 -1.2670  0.2098  3.1183
  184SAPE   C1221030   4.297   0.506   2.278  0.0918 -0.2096 -0.1022
  184SAPE  H12A21031   4.253   0.404   2.281  1.0839 -0.6858 -1.0494
  184SAPE  H12B21032   4.259   0.541   2.179 -1.0058  0.6631  0.6026
  184SAPE   C1121033   4.248   0.612   2.382 -0.5099  0.0256  0.6892
  184SAPE  H11A21034   4.285   0.593   2.485  1.1311 -0.6331 -0.0024
  184SAPE  H11B21035   4.137   0.606   2.373 -0.3013 -1.0859 -2.8766
  184SAPE     P21036   4.233   0.874   2.322  0.3238 -0.1060  0.2842
  184SAPE   O1321037   4.310   0.934   2.213  0.3484 -0.7494 -0.0780
  184SAPE   O1421038   4.089   0.855   2.293  0.4112 -0.0939  0.1733
  184SAPE   O1221039   4.301   0.743   2.346  0.2346  0.2892  0.0385
  184SAPE   O1121040   4.248   0.949   2.459 -0.0939  0.1146  0.3603
  184SAPE    C121041   4.233   0.890   2.587  0.0149 -0.2858 -0.3173
  184SAPE    HA21042   4.249   0.780   2.588 -1.7966 -0.5838  0.8749
  184SAPE    HB21043   4.307   0.931   2.658  1.5470  1.7556 -2.9000
  184SAPE    C221044   4.096   0.925   2.643 -0.3657  0.6313 -0.0113
  184SAPE    HS21045   4.023   0.900   2.564  3.6722 -1.9269 -3.3711
  184SAPE   O2121046   4.095   1.068   2.669  0.0641 -0.2431 -0.1608
  184SAPE   C2121047   3.976   1.117   2.684 -0.2601 -0.6040  0.0927
  184SAPE   O2221048   3.872   1.059   2.680 -0.2465 -0.3110 -0.6093
  184SAPE   C2221049   3.988   1.264   2.723 -0.2840 -0.5013 -0.4131
  184SAPE   H2R21050   4.007   1.274   2.832  3.3423 -0.0338 -0.9357
  184SAPE   H2S21051   4.073   1.304   2.662 -0.6576  1.2936  0.1848
  184SAPE    C321052   4.079   0.846   2.774  0.7636  0.2933  0.0436
  184SAPE    HX21053   4.061   0.738   2.756 -0.4820  0.1580  1.9096
  184SAPE    HY21054   3.989   0.886   2.826  0.7773  0.7995 -0.3090
  184SAPE   O3121055   4.196   0.849   2.858  0.2891 -0.5384 -0.3685
  184SAPE   C3121056   4.193   0.947   2.953  1.2135 -0.2835 -0.2728
  184SAPE   O3221057   4.104   1.031   2.966 -0.7154  0.4574 -0.0967
  184SAPE   C3221058   4.323   0.947   3.033 -0.4242 -0.1197  0.5667
  184SAPE   H2X21059   4.403   1.021   3.009  0.3342 -1.2932 -0.7001
  184SAPE   H2Y21060   4.367   0.846   3.018 -1.4315 -0.2734 -1.6323
  184SAPE   C2321061   3.864   1.344   2.691  1.3476  0.3521  0.1653
  184SAPE   H3R21062   3.803   1.361   2.782 -0.9149  2.2910 -1.5793
  184SAPE   H3S21063   3.794   1.286   2.627  0.5866  1.4375 -0.0129
  184SAPE   C2421064   3.894   1.484   2.613 -0.6713  0.4317 -0.2335
  184SAPE   H4R21065   3.915   1.445   2.511  2.3587 -0.7984  0.7468
  184SAPE   H4S21066   3.986   1.534   2.650 -1.0458 -0.0705  1.4961
  184SAPE   C2521067   3.785   1.593   2.593  0.3036 -0.5075  0.1466
  184SAPE   H5R21068   3.744   1.599   2.491  0.1585 -1.1875  0.1561
  184SAPE   C2621069   3.734   1.665   2.690  0.6296 -0.1855  0.1912
  184SAPE   H6R21070   3.656   1.739   2.668  1.9518  1.6611  1.4114
  184SAPE   C2721071   3.781   1.657   2.835 -0.5940  0.6487 -0.4055
  184SAPE   H7R21072   3.870   1.591   2.841  0.7229  2.4700  1.3219
  184SAPE   H7S21073   3.711   1.601   2.900  1.1496 -1.0646  0.0683
  184SAPE   C2821074   3.791   1.792   2.900  0.3863  0.2725 -0.3899
  184SAPE   H8R21075   3.815   1.868   2.825  2.6607 -0.2143 -0.2367
  184SAPE   C2921076   3.778   1.828   3.029  0.7215 -0.0348 -0.2002
  184SAPE   H9R21077   3.777   1.934   3.057 -0.0733  0.6235 -2.4810
  184SAPE  C21021078   3.774   1.734   3.145  0.9576  0.1651 -0.1902
  184SAPE  H10R21079   3.862   1.667   3.135  0.9319  0.3316 -1.6158
  184SAPE  H10S21080   3.685   1.669   3.135  0.4470  0.1836  3.0405
  184SAPE  C21121081   3.760   1.788   3.287  0.8349 -0.4099 -0.2104
  184SAPE  H11R21082   3.675   1.855   3.306  0.5768 -0.9653  0.6751
  184SAPE  C21221083   3.834   1.746   3.393  0.2197  0.0615  0.5107
  184SAPE  H12R21084   3.830   1.788   3.494  4.6150 -1.4341  1.5224
  184SAPE  C21321085   3.932   1.636   3.396  0.4789 -0.5242  0.1212
  184SAPE  H13R21086   3.971   1.616   3.294 -1.3405 -0.7804 -0.5568
  184SAPE  H13S21087   3.870   1.552   3.431 -1.0055 -0.2906 -1.7750
  184SAPE  C21421088   4.053   1.669   3.477 -0.1372 -0.6426  0.3985
  184SAPE  H14R21089   4.141   1.688   3.414 -0.3857 -1.5040 -0.2154
  184SAPE  C21521090   4.067   1.691   3.608 -0.3817 -0.1946  0.4827
  184SAPE  H15R21091   4.171   1.716   3.635  0.0376  0.8304 -1.8911
  184SAPE  C21621092   3.958   1.685   3.714  0.1894 -0.3371 -0.6404
  184SAPE  H16R21093   3.983   1.609   3.790 -0.0326  0.1514 -0.0663
  184SAPE  H16S21094   3.866   1.653   3.661 -2.1308  0.4174  2.6115
  184SAPE  C21721095   3.921   1.818   3.784 -0.3260  0.2119  0.2998
  184SAPE  H17R21096   3.818   1.807   3.824 -0.2701  0.9900  0.6710
  184SAPE  H17S21097   3.915   1.899   3.708 -0.9768 -0.1041  0.0107
  184SAPE  C21821098   4.017   1.865   3.890  0.4633  0.0999 -0.5650
  184SAPE  H18R21099   4.107   1.915   3.849  1.5156 -2.1020 -1.1014
  184SAPE  H18S21100   4.053   1.774   3.944 -0.7620 -0.8388 -1.2524
  184SAPE  C21921101   3.947   1.953   3.991 -0.3483 -0.0533  0.0340
  184SAPE  H19R21102   3.842   1.919   4.004 -1.3149  2.7588  0.1474
  184SAPE  H19S21103   3.943   2.051   3.939  0.2871 -0.6302 -1.1440
  184SAPE  C22021104   4.022   1.974   4.115  0.7492  0.1475 -0.7856
  184SAPE  H20R21105   3.967   2.040   4.185 -0.4675 -2.5342  0.9239
  184SAPE  H20S21106   4.119   2.025   4.097 -0.1716  1.2364 -3.0259
  184SAPE  H20T21107   4.037   1.881   4.175 -2.3392 -2.3312 -3.5271
  184SAPE   C3321108   4.292   0.948   3.187 -0.3769 -0.1384  0.4043
  184SAPE   H3X21109   4.204   0.881   3.198 -0.0578 -0.9496 -1.5598
  184SAPE   H3Y21110   4.263   1.053   3.206 -0.4785 -0.3517  1.4751
  184SAPE   C3421111   4.416   0.914   3.270 -0.4101 -0.3377 -0.4334
  184SAPE   H4X21112   4.492   0.990   3.243 -0.2767  0.8876  2.9062
  184SAPE   H4Y21113   4.462   0.818   3.237 -2.2878 -1.2707 -0.5055
  184SAPE   C3521114   4.402   0.918   3.417  0.2950 -0.3084 -0.3265
  184SAPE   H5X21115   4.316   0.858   3.456  0.8132 -0.3712  0.7769
  184SAPE   H5Y21116   4.381   1.021   3.454 -0.0492 -1.4140  2.9180
  184SAPE   C3621117   4.524   0.859   3.483  0.7969  0.1208 -0.1394
  184SAPE   H6X21118   4.606   0.933   3.474  1.5103 -0.8911 -3.8672
  184SAPE   H6Y21119   4.559   0.764   3.438 -0.4453 -0.0092 -0.8828
  184SAPE   C3721120   4.499   0.826   3.638 -0.6193 -0.1677 -0.1815
  184SAPE   H7X21121   4.414   0.755   3.647 -1.2902  0.7731  1.1747
  184SAPE   H7Y21122   4.477   0.920   3.692  2.0759  1.7305 -2.0667
  184SAPE   C3821123   4.626   0.761   3.698 -0.5278  0.3541 -0.7692
  184SAPE   H8X21124   4.712   0.831   3.693  0.1244 -0.4964 -2.0528
  184SAPE   H8Y21125   4.654   0.671   3.640  1.3296  0.2860  0.1577
  184SAPE   C3921126   4.606   0.720   3.845 -0.3170  0.7324  0.1588
  184SAPE   H9X21127   4.517   0.653   3.842 -0.8391  1.4254 -0.5087
  184SAPE   H9Y21128   4.592   0.809   3.909  1.0104  0.3501  0.9985
  184SAPE  C31021129   4.725   0.640   3.901  0.1644 -0.1796 -0.1458
  184SAPE  H10X21130   4.814   0.706   3.887 -1.0087  1.1215 -1.9365
  184SAPE  H10Y21131   4.730   0.544   3.845 -2.8743 -0.6416  0.2396
  184SAPE  C31121132   4.689   0.602   4.046  0.0801 -0.5684 -0.1975
  184SAPE  H11X21133   4.613   0.521   4.044  0.5344 -1.0384  0.5962
  184SAPE  H11Y21134   4.650   0.700   4.080 -0.0675 -0.1321 -1.6072
  184SAPE  C31221135   4.802   0.557   4.136 -0.8427 -0.4280 -0.0160
  184SAPE  H12X21136   4.888   0.626   4.129 -0.7856 -0.6399 -2.3874
  184SAPE  H12Y21137   4.849   0.466   4.094 -1.3013 -1.0661  0.8098
  184SAPE  C31321138   4.763   0.521   4.280  0.7609  0.7383 -0.0816
  184SAPE  H13X21139   4.676   0.451   4.278  0.4577  1.0980 -2.4185
  184SAPE  H13Y21140   4.743   0.614   4.338  2.3733 -0.4146  2.5213
  184SAPE  C31421141   4.884   0.450   4.358  0.0347  0.8721  0.8121
  184SAPE  H14X21142   4.851   0.432   4.462 -2.1306  0.0626  0.0418
  184SAPE  H14Y21143   4.966   0.525   4.366 -0.0253  1.0302  0.0607
  184SAPE  C31521144   4.928   0.324   4.288 -0.1197  0.0338 -0.1291
  184SAPE  H15X21145   4.951   0.330   4.179 -2.6093  0.0820 -0.6970
  184SAPE  H15Y21146   4.845   0.250   4.293  2.4370 -3.0148  1.2927
  184SAPE  C31621147   5.053   0.263   4.355 -0.2053  0.0666  0.0732
  184SAPE  H16X21148   5.129   0.343   4.361 -0.3774  0.5207 -2.7155
  184SAPE  H16Y21149   5.091   0.188   4.282 -1.6234 -1.0837  0.4566
  184SAPE  C31721150   5.012   0.190   4.492  0.0123 -0.0962 -0.7851
  184SAPE  H17X21151   4.931   0.121   4.461 -0.0266 -0.4626  0.0841
  184SAPE  H17Y21152   4.962   0.259   4.563  1.7804  0.9833 -0.5215
  184SAPE  C31821153   5.127   0.127   4.567 -0.0692  0.5247 -0.0639
  184SAPE  H18X21154   5.213   0.195   4.547  0.4611 -0.7335 -2.4496
  184SAPE  H18Y21155   5.151   0.032   4.513  1.7352  0.9343 -0.0361
  184SAPE  H18Z21156   5.111   0.107   4.675  1.6087 -1.6008 -0.1233
  185SAPE     N21157   3.212   4.645   2.034  0.2449  0.2696  0.0066
  185SAPE   HN121158   3.311   4.612   2.033 -0.1383 -1.5675  3.7962
  185SAPE   HN221159   3.215   4.717   2.108  0.2072 -1.3219  1.6423
  185SAPE   HN321160   3.167   4.560   2.075  1.6139  0.1108  1.2961
  185SAPE   C1221161   3.172   4.701   1.899 -0.1765  0.0712 -0.2643
  185SAPE  H12A21162   3.162   4.617   1.827 -0.5383 -1.5278  1.5761
  185SAPE  H12B21163   3.243   4.776   1.858  0.4813 -1.0170 -1.1946
  185SAPE   C1121164   3.040   4.772   1.911  0.1347 -0.2537  0.3341
  185SAPE  H11A21165   3.024   4.809   1.807  0.2190  2.9886  1.3362
  185SAPE  H11B21166   3.059   4.854   1.984 -2.9908  1.9748 -1.0968
  185SAPE     P21167   2.788   4.720   1.945  0.5140 -0.4126  0.2260
  185SAPE   O1321168   2.765   4.760   1.802 -0.1654 -0.1626 -0.6319
  185SAPE   O1421169   2.708   4.604   1.997  0.0613  0.3145 -0.3729
  185SAPE   O1221170   2.933   4.681   1.950  0.1279  0.0080 -0.0441
  185SAPE   O1121171   2.786   4.845   2.043  0.0568  0.5456  0.1614
  185SAPE    C121172   2.758   4.829   2.180 -0.0101  0.1561  0.7250
  185SAPE    HA21173   2.670   4.889   2.211  0.3097  1.9078 -1.4868
  185SAPE    HB21174   2.734   4.726   2.213 -0.7484  0.5814  1.5598
  185SAPE    C221175   2.871   4.890   2.263  0.5977 -0.2553 -0.0300
  185SAPE    HS21176   2.964   4.831   2.247  1.1124  0.8511 -1.2726
  185SAPE   O2121177   2.834   4.897   2.406 -0.1466  0.1367 -0.5037
  185SAPE   C2121178   2.827   4.768   2.458 -0.9001  0.3766  0.4734
  185SAPE   O2221179   2.869   4.665   2.405 -0.5978 -0.6062 -0.1842
  185SAPE   C2221180   2.770   4.773   2.592  0.3492 -0.0176  0.3710
  185SAPE   H2R21181   2.734   4.873   2.623 -4.5094 -1.9189  1.8346
  185SAPE   H2S21182   2.687   4.700   2.592  0.9441 -0.8582 -3.0643
  185SAPE    C321183   2.904   5.042   2.210 -0.2308 -0.8776  0.1427
  185SAPE    HX21184   2.805   5.093   2.208  0.3181  0.1974 -1.6844
  185SAPE    HY21185   2.938   5.042   2.105  0.2835  2.0438  0.2273
  185SAPE   O3121186   3.003   5.105   2.289 -0.1394 -0.0178 -0.7525
  185SAPE   C3121187   2.958   5.196   2.381 -0.3119 -1.1070  0.5396
  185SAPE   O3221188   2.844   5.237   2.386 -0.3704  0.1682 -0.1080
  185SAPE   C3221189   3.071   5.238   2.471 -0.5554 -0.0454  0.1325
  185SAPE   H2X21190   3.036   5.325   2.532  0.2719  0.7022 -0.4466
  185SAPE   H2Y21191   3.154   5.268   2.404  1.2096 -1.8499  1.3834
  185SAPE   C2321192   2.874   4.732   2.699 -0.0387 -0.4605  0.9248
  185SAPE   H3R21193   2.958   4.803   2.714 -0.8252  1.0741 -1.4290
  185SAPE   H3S21194   2.938   4.649   2.660 -0.6774 -0.6063  0.1703
  185SAPE   C2421195   2.813   4.686   2.828  0.1217 -0.2512 -0.3651
  185SAPE   H4R21196   2.879   4.610   2.876 -1.1680 -1.0091  0.3112
  185SAPE   H4S21197   2.720   4.629   2.805 -0.6869  0.1957  1.5678
  185SAPE   C2521198   2.778   4.814   2.912 -0.9836  1.1604  0.4953
  185SAPE   H5R21199   2.870   4.853   2.958  1.8517 -1.4854 -2.4308
  185SAPE   C2621200   2.655   4.844   2.952 -0.9704 -0.6699  0.2071
  185SAPE   H6R21201   2.637   4.926   3.023 -2.1528  1.7539 -2.6834
  185SAPE   C2721202   2.517   4.776   2.915 -0.4486 -0.9630  0.5552
  185SAPE   H7R21203   2.538   4.671   2.887  3.0855 -0.0518 -0.7402
  185SAPE   H7S21204   2.493   4.828   2.819  1.5419 -0.0952  0.4687
  185SAPE   C2821205   2.390   4.776   2.997  0.1277 -0.8340  0.2444
  185SAPE   H8R21206   2.312   4.730   2.934  1.5900 -1.2218 -1.3595
  185SAPE   C2921207   2.350   4.825   3.121  0.0563  0.1976  0.2664
  185SAPE   H9R21208   2.243   4.821   3.146 -0.5909 -0.9832 -2.3387
  185SAPE  C21021209   2.436   4.907   3.214  0.0617  0.1707 -0.0342
  185SAPE  H10R21210   2.545   4.902   3.193 -0.1281  0.1637 -1.0796
  185SAPE  H10S21211   2.426   4.866   3.317  0.2383  0.3900  0.0714
  185SAPE  C21121212   2.397   5.051   3.220 -0.2717 -0.0201 -0.1108
  185SAPE  H11R21213   2.370   5.102   3.127 -0.2659  1.8012  0.8420
  185SAPE  C21221214   2.419   5.128   3.326  1.0600  0.7137 -0.8469
  185SAPE  H12R21215   2.399   5.236   3.319 -0.0184  0.4771 -1.6597
  185SAPE  C21321216   2.457   5.077   3.462 -0.1591  0.2871 -0.1214
  185SAPE  H13R21217   2.487   5.166   3.521 -0.1760 -0.3485  0.8642
  185SAPE  H13S21218   2.555   5.025   3.472  0.3458  1.3839  0.8875
  185SAPE  C21421219   2.346   5.004   3.525  0.4184 -0.3046 -0.1398
  185SAPE  H14R21220   2.282   4.954   3.452  0.7907 -0.4266 -0.3863
  185SAPE  C21521221   2.319   4.994   3.659 -0.3808 -0.6063 -0.2959
  185SAPE  H15R21222   2.237   4.929   3.690  0.0500 -1.4517 -0.8936
  185SAPE  C21621223   2.393   5.074   3.766  0.2065  0.1161  0.2017
  185SAPE  H16R21224   2.482   5.128   3.730  1.8101 -2.6004 -0.2195
  185SAPE  H16S21225   2.425   5.005   3.846  2.6219 -0.8674 -1.5003
  185SAPE  C21721226   2.307   5.183   3.822 -0.3931  0.8146  0.3076
  185SAPE  H17R21227   2.206   5.152   3.858 -1.6382  2.7426 -1.3032
  185SAPE  H17S21228   2.286   5.262   3.747  0.5188  0.5589 -0.2288
  185SAPE  C21821229   2.371   5.265   3.942 -0.2541  0.0923  0.2809
  185SAPE  H18R21230   2.479   5.275   3.920 -0.5068  1.2928 -0.4980
  185SAPE  H18S21231   2.354   5.210   4.037 -0.5568 -2.8541 -1.3634
  185SAPE  C21921232   2.311   5.403   3.958 -0.3606 -0.4565  0.4855
  185SAPE  H19R21233   2.354   5.457   3.870 -1.3600  2.0651  1.4303
  185SAPE  H19S21234   2.351   5.443   4.054 -0.1366 -1.5785  0.8648
  185SAPE  C22021235   2.158   5.398   3.971 -0.1044  0.8217  0.0322
  185SAPE  H20R21236   2.130   5.498   4.009 -0.2564  1.4462 -1.6110
  185SAPE  H20S21237   2.111   5.318   4.033  1.1221  1.3153  1.6531
  185SAPE  H20T21238   2.111   5.373   3.873  1.9121 -2.8271 -0.1862
  185SAPE   C3321239   3.126   5.127   2.561 -0.0940 -0.6220 -0.2837
  185SAPE   H3X21240   3.201   5.062   2.513  0.1629 -2.3061  2.2195
  185SAPE   H3Y21241   3.040   5.063   2.591 -0.6005 -0.2554 -0.9237
  185SAPE   C3421242   3.182   5.191   2.684 -0.2995  0.5155  0.0151
  185SAPE   H4X21243   3.102   5.255   2.727 -2.2924 -1.9129  0.1521
  185SAPE   H4Y21244   3.269   5.255   2.656 -0.3716  1.2421  1.3682
  185SAPE   C3521245   3.231   5.086   2.786 -0.1018 -0.0753  0.3434
  185SAPE   H5X21246   3.303   5.023   2.729 -1.4852 -0.0352 -1.5219
  185SAPE   H5Y21247   3.145   5.020   2.806 -2.3511  2.2514 -1.0227
  185SAPE   C3621248   3.278   5.144   2.923 -0.9540  0.1145  0.3008
  185SAPE   H6X21249   3.226   5.234   2.963 -2.3824 -0.0600 -1.1031
  185SAPE   H6Y21250   3.384   5.178   2.912 -1.2366  1.0332  0.3192
  185SAPE   C3721251   3.284   5.043   3.038  0.1820 -0.0306  0.5169
  185SAPE   H7X21252   3.343   4.956   3.002  0.9485  0.2394  1.0974
  185SAPE   H7Y21253   3.181   5.010   3.063  0.8641 -0.9163  2.3520
  185SAPE   C3821254   3.348   5.092   3.169  0.4254 -0.7169  0.1768
  185SAPE   H8X21255   3.289   5.185   3.186  0.3771 -0.5387 -0.8778
  185SAPE   H8Y21256   3.456   5.114   3.157  0.4218 -1.2040 -0.8862
  185SAPE   C3921257   3.342   4.997   3.289  0.0647  0.1499 -0.3519
  185SAPE   H9X21258   3.401   4.907   3.261  1.4970  1.4559 -1.7266
  185SAPE   H9Y21259   3.237   4.972   3.314 -0.6981  1.7546 -1.7782
  185SAPE  C31021260   3.403   5.055   3.418 -0.9468 -0.3032  0.5189
  185SAPE  H10X21261   3.492   5.102   3.371 -1.8116  1.0318  0.1244
  185SAPE  H10Y21262   3.422   4.976   3.493  1.4576 -1.9935 -1.7085
  185SAPE  C31121263   3.307   5.162   3.472  0.6146  0.8299 -0.2745
  185SAPE  H11X21264   3.220   5.100   3.503  2.8216 -2.0832  0.4844
  185SAPE  H11Y21265   3.269   5.229   3.391  0.7321 -1.3927 -2.2581
  185SAPE  C31221266   3.367   5.235   3.597 -0.2852 -0.6265 -0.4203
  185SAPE  H12X21267   3.283   5.291   3.642 -0.4641 -0.7685 -0.5799
  185SAPE  H12Y21268   3.448   5.300   3.556  1.8065 -0.1749  3.8582
  185SAPE  C31321269   3.427   5.162   3.714 -0.1114  0.1427  0.3614
  185SAPE  H13X21270   3.448   5.232   3.797  2.4354 -0.1179  0.0170
  185SAPE  H13Y21271   3.524   5.118   3.681  0.7248  1.5694  0.8636
  185SAPE  C31421272   3.342   5.044   3.764 -0.3338  0.4117  0.0762
  185SAPE  H14X21273   3.303   4.991   3.674  0.5193 -0.2338  0.0656
  185SAPE  H14Y21274   3.252   5.072   3.822 -1.7603 -3.5305  0.0896
  185SAPE  C31521275   3.410   4.939   3.857 -0.7274  0.8391 -1.3953
  185SAPE  H15X21276   3.495   4.889   3.807  1.1301  1.1729  1.2392
  185SAPE  H15Y21277   3.337   4.856   3.872 -0.0223  0.4233 -0.1068
  185SAPE  C31621278   3.442   4.991   3.995 -0.0982  0.0066 -0.7422
  185SAPE  H16X21279   3.352   5.032   4.046 -0.3663 -0.5871 -0.7287
  185SAPE  H16Y21280   3.508   5.079   3.983 -0.8638  0.7685  0.3687
  185SAPE  C31721281   3.524   4.887   4.078  0.3186 -0.1912 -0.2342
  185SAPE  H17X21282   3.573   4.936   4.165 -1.5679 -0.1134  0.8577
  185SAPE  H17Y21283   3.607   4.850   4.014  1.5920 -0.0295  1.2632
  185SAPE  C31821284   3.440   4.772   4.141 -0.5814  0.7092  0.1157
  185SAPE  H18X21285   3.394   4.705   4.066 -0.7225  1.7324 -0.7416
  185SAPE  H18Y21286   3.352   4.807   4.199 -1.2262  0.8302 -0.9130
  185SAPE  H18Z21287   3.517   4.717   4.199 -0.8178  2.3372  2.1165
  186SAPE     N21288   5.417   0.008   2.050 -0.6203  0.5499 -0.4337
  186SAPE   HN121289   5.390  -0.024   1.955  0.3097  1.7361 -1.1368
  186SAPE   HN221290   5.502  -0.042   2.084 -0.9159  0.8944  0.8499
  186SAPE   HN321291   5.334  -0.014   2.108  0.1456 -1.8542 -0.1480
  186SAPE   C1221292   5.438   0.155   2.052  0.4772 -0.5130  0.0148
  186SAPE  H12A21293   5.529   0.171   1.990  1.3913  0.0817  1.4445
  186SAPE  H12B21294   5.451   0.194   2.155 -0.0321  1.9970 -0.7816
  186SAPE   C1121295   5.328   0.238   1.982  0.3821 -0.2938  0.1982
  186SAPE  H11A21296   5.333   0.206   1.875  0.5893 -1.2725  0.4906
  186SAPE  H11B21297   5.351   0.347   1.983  0.0874 -0.2007 -1.1598
  186SAPE     P21298   5.163   0.276   2.175  0.2651  0.0090 -0.4683
  186SAPE   O1321299   5.017   0.274   2.196  0.1762 -1.0325 -0.2141
  186SAPE   O1421300   5.250   0.196   2.269 -0.2028 -0.3345 -0.6351
  186SAPE   O1221301   5.199   0.220   2.035  0.2628  0.7103 -0.1928
  186SAPE   O1121302   5.208   0.429   2.169 -0.0952  0.3411 -0.7586
  186SAPE    C121303   5.303   0.485   2.267  0.8824 -0.3507 -0.2579
  186SAPE    HA21304   5.362   0.404   2.314 -0.3256 -0.1297  1.7449
  186SAPE    HB21305   5.377   0.548   2.212  0.1015  0.9572  0.1260
  186SAPE    C221306   5.233   0.583   2.370 -0.3593  0.0596  0.3034
  186SAPE    HS21307   5.321   0.631   2.418 -1.1214  2.9709 -0.9133
  186SAPE   O2121308   5.140   0.517   2.458  0.7896  0.1235  0.1071
  186SAPE   C2121309   5.192   0.430   2.542  0.2283 -0.2445  0.3486
  186SAPE   O2221310   5.310   0.422   2.570  0.0992  0.0799 -0.6430
  186SAPE   C2221311   5.073   0.349   2.599  0.2561  0.1960  0.3207
  186SAPE   H2R21312   4.978   0.385   2.554  0.6499  0.9870  0.0916
  186SAPE   H2S21313   5.084   0.247   2.556  0.6819  0.7948 -1.0700
  186SAPE    C321314   5.159   0.695   2.302  0.6332  0.5669  0.6628
  186SAPE    HX21315   5.075   0.659   2.238  0.8585 -0.1670  0.7727
  186SAPE    HY21316   5.236   0.729   2.230  0.1048 -0.4256 -0.4105
  186SAPE   O3121317   5.134   0.800   2.394 -0.0420  0.0007 -0.0181
  186SAPE   C3121318   5.012   0.806   2.444  0.3270  0.6362  0.1381
  186SAPE   O3221319   4.916   0.741   2.401 -0.4337  0.4393 -0.1601
  186SAPE   C3221320   5.000   0.912   2.552 -1.2708 -0.1588  0.6265
  186SAPE   H2X21321   4.925   0.881   2.628 -1.5561  0.7638  0.7382
  186SAPE   H2Y21322   4.952   1.000   2.503  0.5209  0.8170  0.5500
  186SAPE   C2321323   5.078   0.361   2.751 -0.3590  0.1040  0.0599
  186SAPE   H3R21324   5.169   0.311   2.790  0.0227  1.7000  1.3280
  186SAPE   H3S21325   4.990   0.302   2.787 -0.2612  0.4755  0.9246
  186SAPE   C2421326   5.067   0.507   2.800  0.1832 -0.6656  0.1759
  186SAPE   H4R21327   5.156   0.569   2.774  1.3684 -2.0808  0.6824
  186SAPE   H4S21328   5.074   0.502   2.911 -3.8557 -0.9296  0.5349
  186SAPE   C2521329   4.934   0.571   2.769  0.6491  0.6086  0.1179
  186SAPE   H5R21330   4.890   0.544   2.672  2.8138  0.8871 -1.0039
  186SAPE   C2621331   4.856   0.636   2.863 -0.3433  0.1870 -0.0830
  186SAPE   H6R21332   4.753   0.666   2.836 -0.2468 -0.0397 -0.6995
  186SAPE   C2721333   4.890   0.670   3.004 -0.0966  0.2583 -0.2470
  186SAPE   H7R21334   4.857   0.773   3.030  0.1374  0.4800 -0.8056
  186SAPE   H7S21335   5.000   0.675   3.020 -0.2898  2.1412  0.7910
  186SAPE   C2821336   4.828   0.574   3.107 -0.0226  0.4258  0.3825
  186SAPE   H8R21337   4.816   0.468   3.081  1.0714  0.2956  0.3276
  186SAPE   C2921338   4.813   0.601   3.235 -0.4589 -0.2755  0.7885
  186SAPE   H9R21339   4.771   0.520   3.296  1.1959 -2.4425 -0.7996
  186SAPE  C21021340   4.828   0.740   3.296  0.2840 -0.5883 -0.0047
  186SAPE  H10R21341   4.790   0.747   3.400  2.2404  0.7719  0.6764
  186SAPE  H10S21342   4.775   0.818   3.237 -2.1936 -0.1516  2.5894
  186SAPE  C21121343   4.967   0.799   3.300 -0.0078  0.4247 -0.0849
  186SAPE  H11R21344   5.035   0.772   3.218 -1.8462 -1.5037 -1.0686
  186SAPE  C21221345   5.026   0.870   3.400 -0.5345  0.1236 -0.4307
  186SAPE  H12R21346   5.132   0.895   3.382 -0.5584  0.5474 -0.0093
  186SAPE  C21321347   4.952   0.931   3.513 -0.3187  0.3220  0.5229
  186SAPE  H13R21348   4.932   0.860   3.596 -2.8746 -0.4416 -0.6545
  186SAPE  H13S21349   4.851   0.957   3.475  0.1426 -0.7122 -1.5874
  186SAPE  C21421350   5.031   1.043   3.570 -0.6588  0.1504 -0.1476
  186SAPE  H14R21351   5.072   1.116   3.499 -1.2572  1.6834  1.0321
  186SAPE  C21521352   5.042   1.090   3.696 -0.7189 -0.0080 -0.4618
  186SAPE  H15R21353   5.095   1.185   3.714  0.5553 -1.0975  1.9615
  186SAPE  C21621354   4.983   1.018   3.815  0.5489 -0.3359  0.1638
  186SAPE  H16R21355   5.054   0.954   3.872  0.0722 -0.5271  0.5512
  186SAPE  H16S21356   4.904   0.944   3.790 -0.1627 -0.1731  1.7746
  186SAPE  C21721357   4.927   1.128   3.907  0.1890 -0.2856  0.5509
  186SAPE  H17R21358   4.856   1.195   3.854 -0.6075 -1.6416 -0.1832
  186SAPE  H17S21359   5.016   1.180   3.947  0.0015  1.8162 -1.5520
  186SAPE  C21821360   4.848   1.060   4.023 -0.2722 -0.4676  0.1843
  186SAPE  H18R21361   4.760   1.009   3.978  0.1352 -2.3661  1.4216
  186SAPE  H18S21362   4.820   1.146   4.087 -1.9921 -0.6586 -0.2448
  186SAPE  C21921363   4.926   0.952   4.112  0.0968  0.4406 -0.7012
  186SAPE  H19R21364   5.029   0.977   4.144 -0.2366  0.7263  0.1896
  186SAPE  H19S21365   4.944   0.870   4.040  0.8439  0.9359 -1.0889
  186SAPE  C22021366   4.844   0.898   4.234  0.2037  0.4955  0.0538
  186SAPE  H20R21367   4.822   0.973   4.312  2.0504  3.2042 -1.8729
  186SAPE  H20S21368   4.904   0.819   4.284 -1.2777 -0.3456  0.5804
  186SAPE  H20T21369   4.746   0.855   4.203  0.8822 -0.6510 -0.5995
  186SAPE   C3321370   5.125   0.969   2.618  0.0507 -0.0401  0.0175
  186SAPE   H3X21371   5.146   1.060   2.558 -4.5023  0.5142 -1.1323
  186SAPE   H3Y21372   5.207   0.895   2.621  0.6695  0.5500 -1.5079
  186SAPE   C3421373   5.087   1.014   2.751 -0.2127  0.1786  0.1157
  186SAPE   H4X21374   5.058   0.933   2.822  0.3385 -0.1090  0.0224
  186SAPE   H4Y21375   5.002   1.082   2.729 -0.6107 -0.5356 -0.6397
  186SAPE   C3521376   5.190   1.099   2.831  0.2422  0.4764 -0.0508
  186SAPE   H5X21377   5.221   1.182   2.764 -0.6678  1.9561  1.2853
  186SAPE   H5Y21378   5.274   1.027   2.843  0.3540  0.6475  0.2106
  186SAPE   C3621379   5.132   1.153   2.965 -0.4273  0.6423 -0.6162
  186SAPE   H6X21380   5.094   1.067   3.024  2.5210  1.2833  2.4837
  186SAPE   H6Y21381   5.044   1.218   2.946 -2.2286 -1.4040  0.2358
  186SAPE   C3721382   5.227   1.229   3.066 -0.3870 -0.5925 -0.0649
  186SAPE   H7X21383   5.281   1.315   3.020 -3.1532  1.5252  0.3775
  186SAPE   H7Y21384   5.306   1.155   3.091  1.5650  0.8778 -1.5997
  186SAPE   C3821385   5.146   1.266   3.190 -0.1157 -0.7809 -0.7336
  186SAPE   H8X21386   5.113   1.178   3.249  1.0062 -0.0231  1.0963
  186SAPE   H8Y21387   5.058   1.329   3.163 -1.6212 -1.3251  2.4428
  186SAPE   C3921388   5.227   1.359   3.288  0.1004  0.2901 -0.0776
  186SAPE   H9X21389   5.279   1.444   3.240  0.0922  0.5196  0.3151
  186SAPE   H9Y21390   5.305   1.294   3.334  1.1432  0.3834 -1.6492
  186SAPE  C31021391   5.148   1.413   3.405 -0.2291  0.1732 -0.5666
  186SAPE  H10X21392   5.062   1.343   3.413 -1.0848  1.2779  0.4470
  186SAPE  H10Y21393   5.108   1.515   3.386 -2.1051 -0.1971  1.0430
  186SAPE  C31121394   5.223   1.418   3.537  0.7783 -0.3755 -0.3061
  186SAPE  H11X21395   5.315   1.477   3.517  1.7541 -1.5649  0.4744
  186SAPE  H11Y21396   5.257   1.315   3.561  1.3759 -0.4816 -1.5167
  186SAPE  C31221397   5.145   1.477   3.654 -0.8545  0.3410  0.2996
  186SAPE  H12X21398   5.104   1.388   3.706  0.6934 -0.5709  0.0175
  186SAPE  H12Y21399   5.069   1.544   3.609 -1.8189  2.1825  4.2341
  186SAPE  C31321400   5.225   1.565   3.750  0.6941  0.3304  0.0423
  186SAPE  H13X21401   5.223   1.665   3.703  1.1503  0.4530  0.2731
  186SAPE  H13Y21402   5.328   1.527   3.771 -0.6547 -3.4051  0.7944
  186SAPE  C31421403   5.168   1.583   3.898  0.3620 -0.5211  0.0601
  186SAPE  H14X21404   5.061   1.607   3.876  0.6696 -0.3131 -1.2779
  186SAPE  H14Y21405   5.210   1.675   3.945 -1.0925 -0.0511  0.4963
  186SAPE  C31521406   5.165   1.469   3.998 -0.5959 -0.4969  0.0548
  186SAPE  H15X21407   5.263   1.438   4.039 -1.0701 -1.6171  0.3628
  186SAPE  H15Y21408   5.132   1.381   3.938  0.1613 -0.6307 -0.1763
  186SAPE  C31621409   5.060   1.497   4.106 -0.1576  0.1482 -0.1994
  186SAPE  H16X21410   4.976   1.555   4.062 -0.5005 -0.1332  0.0774
  186SAPE  H16Y21411   5.109   1.563   4.181 -0.7354  0.5872 -0.2024
  186SAPE  C31721412   5.004   1.366   4.152 -0.3615 -0.2798 -0.3242
  186SAPE  H17X21413   5.085   1.290   4.155 -1.1257 -1.1888 -1.6610
  186SAPE  H17Y21414   4.933   1.325   4.077 -1.4866  0.3404  0.3840
  186SAPE  C31821415   4.940   1.392   4.288  0.3985  0.1303  0.1830
  186SAPE  H18X21416   4.992   1.467   4.352 -2.4500  0.5791  2.1858
  186SAPE  H18Y21417   4.941   1.299   4.348  0.5347 -0.0863 -0.1513
  186SAPE  H18Z21418   4.831   1.410   4.279  0.7730  1.7126 -1.9487
  187SAPE     N21419   5.107   3.583   1.926  0.1848  0.3631  0.5182
  187SAPE   HN121420   5.197   3.532   1.941  0.3629  0.6277  0.3547
  187SAPE   HN221421   5.039   3.544   1.858 -0.1513  1.1754  0.3784
  187SAPE   HN321422   5.134   3.678   1.894 -1.5940  1.7858  2.9114
  187SAPE   C1221423   5.041   3.622   2.051  0.1218 -0.4891  0.0131
  187SAPE  H12A21424   5.021   3.531   2.111  1.2882 -0.3661  0.6192
  187SAPE  H12B21425   4.947   3.670   2.017  0.8730 -0.3917 -2.0839
  187SAPE   C1121426   5.127   3.714   2.139  0.6057 -0.0938 -0.7958
  187SAPE  H11A21427   5.218   3.670   2.185  1.7405  0.8817 -2.0195
  187SAPE  H11B21428   5.070   3.750   2.228 -0.6746 -2.2021 -0.6777
  187SAPE     P21429   5.266   3.946   2.119  0.4568 -0.4077  0.2107
  187SAPE   O1321430   5.402   3.884   2.152  0.4032  0.1926  1.0354
  187SAPE   O1421431   5.261   4.062   2.020 -0.0123  0.6953  0.0736
  187SAPE   O1221432   5.171   3.828   2.072 -0.5476  0.7229 -0.2252
  187SAPE   O1121433   5.205   3.988   2.251 -0.9510 -0.2525  0.2799
  187SAPE    C121434   5.097   4.082   2.252 -0.2893  0.3108 -0.2255
  187SAPE    HA21435   5.141   4.181   2.226 -2.5292  1.6721  0.9012
  187SAPE    HB21436   5.016   4.053   2.181  1.0338  0.4700 -1.8702
  187SAPE    C221437   5.023   4.088   2.389  0.2116  0.3495 -0.3353
  187SAPE    HS21438   4.932   4.150   2.376  1.0038  1.4176 -1.0173
  187SAPE   O2121439   5.103   4.162   2.485  0.3811  0.4368  0.3225
  187SAPE   C2121440   5.087   4.294   2.493 -0.6483 -0.1504 -0.8437
  187SAPE   O2221441   4.999   4.363   2.442 -0.6045  0.6525 -0.4134
  187SAPE   C2221442   5.184   4.347   2.595  0.7155  0.0500  0.0166
  187SAPE   H2R21443   5.236   4.268   2.654 -0.4847  0.1921  1.3198
  187SAPE   H2S21444   5.267   4.398   2.540  0.2810  2.9672  1.8297
  187SAPE    C321445   4.968   3.950   2.445  0.4779 -0.1087  1.1425
  187SAPE    HX21446   5.047   3.873   2.435 -0.7187 -1.0559 -2.0795
  187SAPE    HY21447   4.890   3.914   2.374  1.9190  0.5245 -0.8438
  187SAPE   O3121448   4.905   3.960   2.574  0.4024 -0.2198 -0.4745
  187SAPE   C3121449   4.901   3.847   2.646 -0.0245 -0.5230  0.0683
  187SAPE   O3221450   4.949   3.743   2.612 -0.3480  0.1152 -0.2026
  187SAPE   C3221451   4.848   3.879   2.777  0.3569 -0.0567 -0.1931
  187SAPE   H2X21452   4.741   3.849   2.778  0.4358 -0.4113 -1.2366
  187SAPE   H2Y21453   4.850   3.988   2.797  0.2689 -0.1421  0.3170
  187SAPE   C2321454   5.120   4.445   2.703 -0.0498 -0.2268 -0.3006
  187SAPE   H3R21455   5.083   4.543   2.666  0.7597 -0.2512 -1.1935
  187SAPE   H3S21456   5.199   4.474   2.776 -1.4135  1.1004  0.7100
  187SAPE   C2421457   5.010   4.378   2.789 -0.0417  0.0845  0.1802
  187SAPE   H4R21458   4.915   4.366   2.733 -1.0614 -0.7926  2.0076
  187SAPE   H4S21459   4.976   4.448   2.869  0.3015  0.5589 -0.0875
  187SAPE   C2521460   5.042   4.240   2.840  0.6726 -0.3311 -0.3083
  187SAPE   H5R21461   5.048   4.156   2.769 -0.9267 -0.3982 -0.3995
  187SAPE   C2621462   5.069   4.212   2.970 -0.1220  0.1778 -0.4863
  187SAPE   H6R21463   5.069   4.106   3.002 -0.6421  0.8043  1.7419
  187SAPE   C2721464   5.079   4.306   3.086 -0.6604 -0.4270 -0.0762
  187SAPE   H7R21465   5.055   4.408   3.050  3.8386  0.1315 -2.1087
  187SAPE   H7S21466   5.188   4.306   3.108 -0.3969  0.2341 -1.2730
  187SAPE   C2821467   5.009   4.267   3.213 -0.3556 -0.0512 -0.0143
  187SAPE   H8R21468   4.934   4.343   3.241 -0.6601 -0.2897 -0.1718
  187SAPE   C2921469   5.050   4.183   3.313 -0.3437  0.1940  0.1165
  187SAPE   H9R21470   4.991   4.176   3.406 -1.5558  0.8028 -0.5791
  187SAPE  C21021471   5.180   4.097   3.312 -0.9354 -1.0733  0.9336
  187SAPE  H10R21472   5.214   4.105   3.207 -1.2069 -0.5328  0.8838
  187SAPE  H10S21473   5.149   3.991   3.331  0.5904 -2.3117 -2.6394
  187SAPE  C21121474   5.283   4.150   3.411  0.3104 -0.3645 -0.9641
  187SAPE  H11R21475   5.299   4.259   3.403  0.0838 -0.3598 -1.3728
  187SAPE  C21221476   5.352   4.085   3.496 -0.0109 -0.1594  0.0070
  187SAPE  H12R21477   5.425   4.133   3.561 -0.4384  0.6682 -0.1115
  187SAPE  C21321478   5.352   3.937   3.522 -0.2235 -0.0067  0.2444
  187SAPE  H13R21479   5.333   3.883   3.427 -0.7480  1.4947 -0.5226
  187SAPE  H13S21480   5.265   3.895   3.578  0.6482 -2.2480  0.0274
  187SAPE  C21421481   5.478   3.881   3.581 -0.3581 -0.7775 -0.4709
  187SAPE  H14R21482   5.548   3.843   3.505  3.0202  1.7856  1.0993
  187SAPE  C21521483   5.514   3.873   3.710 -0.3680  0.2575 -0.8347
  187SAPE  H15R21484   5.611   3.828   3.735 -1.0008 -2.2954 -2.5685
  187SAPE  C21621485   5.438   3.913   3.824 -0.0506 -0.1684 -0.1378
  187SAPE  H16R21486   5.334   3.949   3.805 -0.2207 -1.7912 -2.8199
  187SAPE  H16S21487   5.485   3.996   3.880 -1.9383 -0.7042  2.4103
  187SAPE  C21721488   5.422   3.803   3.931  0.6345  0.2585 -0.4554
  187SAPE  H17R21489   5.518   3.749   3.942  0.8987  0.8738  0.3071
  187SAPE  H17S21490   5.346   3.729   3.896  1.0643  0.0285 -0.9058
  187SAPE  C21821491   5.383   3.857   4.071 -0.4549  0.2622  0.0215
  187SAPE  H18R21492   5.281   3.895   4.053 -1.0917  0.3668  3.2918
  187SAPE  H18S21493   5.457   3.936   4.098  0.4037 -0.4740 -0.1111
  187SAPE  C21921494   5.368   3.748   4.177  0.6622  0.2112  0.0697
  187SAPE  H19R21495   5.468   3.703   4.194  0.7731  0.8560  1.2083
  187SAPE  H19S21496   5.300   3.668   4.143 -1.8097  1.7438  1.1487
  187SAPE  C22021497   5.297   3.808   4.299 -0.3587 -0.5494 -0.9961
  187SAPE  H20R21498   5.366   3.893   4.316 -0.3381 -0.4854 -1.3882
  187SAPE  H20S21499   5.301   3.743   4.389  1.0764  2.2785  1.1326
  187SAPE  H20T21500   5.194   3.845   4.281 -0.1807  1.2196  1.1381
  187SAPE   C3321501   4.910   3.795   2.898  0.3551  0.2913  0.6331
  187SAPE   H3X21502   5.017   3.820   2.878 -0.2080  3.3132  0.8618
  187SAPE   H3Y21503   4.898   3.689   2.869 -1.2686  0.0294  2.1449
  187SAPE   C3421504   4.862   3.822   3.037 -0.3282 -0.4090  0.5687
  187SAPE   H4X21505   4.751   3.823   3.039 -0.3644  0.6148 -0.4579
  187SAPE   H4Y21506   4.886   3.920   3.085 -2.8650  0.4039  0.3372
  187SAPE   C3521507   4.901   3.710   3.134  0.9301 -0.4302  0.0693
  187SAPE   H5X21508   5.011   3.693   3.141  0.6744 -1.5451  2.4667
  187SAPE   H5Y21509   4.859   3.615   3.096  0.2872  0.5125 -1.6601
  187SAPE   C3621510   4.839   3.735   3.272 -0.0875 -0.1898  0.3647
  187SAPE   H6X21511   4.731   3.713   3.267  0.6176 -4.1434 -2.3298
  187SAPE   H6Y21512   4.867   3.837   3.306  0.4956  0.1701 -1.0921
  187SAPE   C3721513   4.884   3.635   3.384  0.2716 -0.4880  0.2203
  187SAPE   H7X21514   4.994   3.623   3.385  0.2310 -1.6675 -2.2923
  187SAPE   H7Y21515   4.836   3.538   3.361  0.3698 -0.0903 -1.8273
  187SAPE   C3821516   4.833   3.692   3.519  0.2575  0.1570 -0.0961
  187SAPE   H8X21517   4.847   3.802   3.527 -0.5531  0.2341  0.3593
  187SAPE   H8Y21518   4.905   3.651   3.593  0.5307 -1.0831 -1.0061
  187SAPE   C3921519   4.696   3.633   3.553  0.2227  0.8144 -0.0339
  187SAPE   H9X21520   4.703   3.523   3.537 -0.4779  0.6216  0.8996
  187SAPE   H9Y21521   4.623   3.665   3.476 -1.6077 -0.1396  1.2399
  187SAPE  C31021522   4.644   3.667   3.694  0.1312  0.1774  0.5412
  187SAPE  H10X21523   4.732   3.696   3.755  0.6639  0.7996 -0.5113
  187SAPE  H10Y21524   4.583   3.584   3.737 -0.4318  1.7966  3.0897
  187SAPE  C31121525   4.558   3.793   3.699 -0.6657 -0.1437 -0.6733
  187SAPE  H11X21526   4.483   3.786   3.617  1.1698 -1.4097 -2.3300
  187SAPE  H11Y21527   4.618   3.886   3.685  0.9928 -0.9119  0.8876
  187SAPE  C31221528   4.477   3.809   3.831  0.3276  0.4369 -0.1555
  187SAPE  H12X21529   4.539   3.785   3.920 -0.4526  3.1594  1.2426
  187SAPE  H12Y21530   4.395   3.735   3.839  0.8440 -0.0550  0.7700
  187SAPE  C31321531   4.418   3.951   3.841  0.6629  0.2304 -0.2940
  187SAPE  H13X21532   4.353   3.975   3.753  0.0087  1.3494  0.4650
  187SAPE  H13Y21533   4.503   4.023   3.838  1.3337 -0.5679 -2.2482
  187SAPE  C31421534   4.332   3.970   3.969 -0.3689 -0.0995 -0.5681
  187SAPE  H14X21535   4.284   3.871   3.980  0.8759 -0.4867  2.6540
  187SAPE  H14Y21536   4.251   4.046   3.967 -1.6143 -1.3570  0.4213
  187SAPE  C31521537   4.416   3.998   4.101 -0.3224  0.3347 -0.3474
  187SAPE  H15X21538   4.448   4.104   4.113  2.8330 -0.6634  1.0312
  187SAPE  H15Y21539   4.500   3.930   4.076  0.2401 -0.2424  2.6307
  187SAPE  C31621540   4.345   3.952   4.233 -0.4422 -0.7417  0.2312
  187SAPE  H16X21541   4.244   3.997   4.245 -0.0789 -0.1882  1.3617
  187SAPE  H16Y21542   4.419   3.970   4.314  0.8496  0.1412 -1.0899
  187SAPE  C31721543   4.317   3.800   4.215  0.0996 -0.0580 -0.1471
  187SAPE  H17X21544   4.395   3.763   4.144  1.3161  1.3793  0.3879
  187SAPE  H17Y21545   4.217   3.772   4.177 -0.8071 -0.0518  2.0834
  187SAPE  C31821546   4.328   3.720   4.347 -0.2454  0.0874  0.8080
  187SAPE  H18X21547   4.285   3.618   4.338 -0.7612  0.1951  1.9674
  187SAPE  H18Y21548   4.279   3.768   4.434 -1.1364 -1.9296  1.4749
  187SAPE  H18Z21549   4.435   3.693   4.364  0.0758 -0.5942 -1.8679
  188SAPE     N21550   5.041   5.729   1.961 -0.1208  0.1532 -0.1540
  188SAPE   HN121551   4.964   5.799   1.968 -1.4474 -1.2486 -0.1734
  188SAPE   HN221552   5.117   5.733   2.032  0.2326 -1.7414 -0.3840
  188SAPE   HN321553   5.086   5.747   1.869 -0.0666 -0.7187 -0.3062
  188SAPE   C1221554   5.000   5.584   1.962  0.1799  0.7873  0.6195
  188SAPE  H12A21555   4.946   5.562   1.867  0.2630  1.7750  0.3376
  188SAPE  H12B21556   4.931   5.586   2.049  2.4552 -0.3634  2.5610
  188SAPE   C1121557   5.129   5.502   1.972  0.0635 -0.2490  0.0186
  188SAPE  H11A21558   5.185   5.529   1.880 -0.6211  1.6211  0.1083
  188SAPE  H11B21559   5.111   5.393   1.960  0.2829 -0.5024  1.7119
  188SAPE     P21560   5.256   5.440   2.191 -0.1395  0.2527  0.2638
  188SAPE   O1321561   5.352   5.350   2.127 -0.5806 -0.7484  0.6312
  188SAPE   O1421562   5.304   5.516   2.310  0.5435 -0.3734  0.4149
  188SAPE   O1221563   5.214   5.543   2.083  0.5289 -0.2643 -0.2113
  188SAPE   O1121564   5.118   5.360   2.216  0.1253  0.4394  0.3092
  188SAPE    C121565   5.032   5.388   2.328 -0.3098  0.3041  0.0667
  188SAPE    HA21566   5.028   5.493   2.364 -0.3194  0.0565  0.8135
  188SAPE    HB21567   4.935   5.355   2.286  1.0035 -0.2336 -2.7832
  188SAPE    C221568   5.063   5.301   2.448 -0.7672  1.0479  0.1354
  188SAPE    HS21569   4.983   5.317   2.523 -0.2793 -1.3367  1.2602
  188SAPE   O2121570   5.195   5.329   2.503 -0.0116  0.8015 -0.3923
  188SAPE   C2121571   5.216   5.434   2.571  0.2253 -0.2086 -0.3202
  188SAPE   O2221572   5.137   5.524   2.604 -0.0393 -0.0863  0.2027
  188SAPE   C2221573   5.365   5.454   2.613 -0.7540 -0.1405  0.7934
  188SAPE   H2R21574   5.422   5.370   2.569 -1.9186 -0.5504  0.0424
  188SAPE   H2S21575   5.410   5.545   2.567  0.1522 -1.5678 -1.2798
  188SAPE    C321576   5.060   5.142   2.416 -0.2518 -0.8541  0.5139
  188SAPE    HX21577   5.137   5.107   2.343 -1.6128 -0.3364 -1.2187
  188SAPE    HY21578   4.959   5.135   2.371 -0.1701 -1.6237  0.4348
  188SAPE   O3121579   5.050   5.067   2.542 -0.4030 -0.4246 -0.5388
  188SAPE   C3121580   5.151   4.992   2.578 -0.0116 -0.4818 -0.2376
  188SAPE   O3221581   5.257   4.973   2.521 -1.0693 -0.1738  0.1405
  188SAPE   C3221582   5.114   4.927   2.715  0.4636  0.6134  0.3245
  188SAPE   H2X21583   5.214   4.911   2.760  0.3501  0.6053  0.5741
  188SAPE   H2Y21584   5.065   4.827   2.703 -0.1764  0.8969  0.5207
  188SAPE   C2321585   5.397   5.464   2.766 -0.3989 -0.2058  0.0533
  188SAPE   H3R21586   5.345   5.552   2.809 -1.0345  0.0503 -1.2018
  188SAPE   H3S21587   5.505   5.487   2.774 -0.2243 -0.3028 -1.6427
  188SAPE   C2421588   5.367   5.348   2.854  0.1867 -0.0594  0.4884
  188SAPE   H4R21589   5.257   5.335   2.867  0.2069 -0.6861  0.1101
  188SAPE   H4S21590   5.407   5.388   2.950 -0.0720 -0.2533  0.6796
  188SAPE   C2521591   5.423   5.211   2.814  0.2143  0.5971  0.1011
  188SAPE   H5R21592   5.419   5.177   2.710  2.4297  0.6694 -0.0673
  188SAPE   C2621593   5.486   5.131   2.898  0.3141 -0.1715  0.1079
  188SAPE   H6R21594   5.530   5.040   2.855  0.0111 -0.9185  1.3278
  188SAPE   C2721595   5.514   5.146   3.047 -0.2319 -0.6374  0.7634
  188SAPE   H7R21596   5.477   5.247   3.076  1.0361 -0.1292  0.6576
  188SAPE   H7S21597   5.623   5.157   3.066  0.2995  2.7217 -2.9391
  188SAPE   C2821598   5.443   5.038   3.130 -0.8356  0.0638  0.1186
  188SAPE   H8R21599   5.399   4.953   3.075 -1.3067 -0.7053  1.6386
  188SAPE   C2921600   5.409   5.057   3.255 -0.5656  0.1097 -0.0918
  188SAPE   H9R21601   5.364   4.972   3.309 -1.6375  1.0057  0.4849
  188SAPE  C21021602   5.457   5.174   3.341 -0.3137  0.8912  0.6248
  188SAPE  H10R21603   5.389   5.178   3.430 -0.3973  1.2281  0.5468
  188SAPE  H10S21604   5.436   5.272   3.295 -1.7688  0.0390 -0.6280
  188SAPE  C21121605   5.608   5.151   3.375  0.1848 -0.0007 -0.2026
  188SAPE  H11R21606   5.671   5.158   3.285  3.9880 -0.4289  2.1914
  188SAPE  C21221607   5.670   5.128   3.498 -0.0397 -0.6906  0.6198
  188SAPE  H12R21608   5.778   5.108   3.500  0.3772  1.2312 -0.1544
  188SAPE  C21321609   5.607   5.126   3.633  0.4713 -0.0877  0.3578
  188SAPE  H13R21610   5.638   5.028   3.676  0.2830 -1.3996 -2.2944
  188SAPE  H13S21611   5.498   5.127   3.613  0.1141  1.4700  2.1069
  188SAPE  C21421612   5.652   5.230   3.727  0.4581 -0.5988  0.4220
  188SAPE  H14R21613   5.660   5.329   3.679  2.9030 -0.9980 -0.1112
  188SAPE  C21521614   5.651   5.230   3.859 -0.2423  0.6495 -0.5503
  188SAPE  H15R21615   5.667   5.324   3.913  0.1279 -0.6046  1.6063
  188SAPE  C21621616   5.623   5.109   3.945 -0.1583  0.8227  0.9991
  188SAPE  H16R21617   5.626   5.019   3.880 -2.7075  0.9360  0.6220
  188SAPE  H16S21618   5.518   5.111   3.982 -1.7174  2.8757 -2.8916
  188SAPE  C21721619   5.717   5.086   4.059 -0.6738 -0.2153 -0.0362
  188SAPE  H17R21620   5.821   5.097   4.020 -1.1590  0.1590 -1.2796
  188SAPE  H17S21621   5.715   4.977   4.084  1.2264  0.0051  1.3261
  188SAPE  C21821622   5.688   5.176   4.180  0.0332  0.4238 -1.0108
  188SAPE  H18R21623   5.583   5.187   4.216  1.0624  2.2836  1.8819
  188SAPE  H18S21624   5.717   5.281   4.157 -0.5814  0.9894  0.5703
  188SAPE  C21921625   5.767   5.146   4.309 -0.5121  0.2052  0.1235
  188SAPE  H19R21626   5.875   5.147   4.285 -0.4856  1.4102  0.2524
  188SAPE  H19S21627   5.741   5.042   4.341  0.1133  0.3962  1.3252
  188SAPE  C22021628   5.729   5.234   4.426 -0.3834 -0.1635  0.8839
  188SAPE  H20R21629   5.778   5.207   4.522 -0.0208  1.1690  1.1021
  188SAPE  H20S21630   5.621   5.220   4.448 -0.3828 -1.7826 -0.0124
  188SAPE  H20T21631   5.741   5.342   4.401 -1.3036 -0.4540 -0.9593
  188SAPE   C3321632   5.047   5.023   2.812  0.4947  0.0409 -0.0616
  188SAPE   H3X21633   4.939   5.028   2.787 -0.1378 -0.4711  2.3323
  188SAPE   H3Y21634   5.092   5.124   2.795 -1.2316  0.9545  0.5676
  188SAPE   C3421635   5.068   4.999   2.960  0.1551 -0.4978 -0.1585
  188SAPE   H4X21636   5.003   5.067   3.018  1.5153  0.9903 -0.3284
  188SAPE   H4Y21637   5.175   5.027   2.971  0.8693 -2.9230 -0.2491
  188SAPE   C3521638   5.043   4.858   3.015  0.7160  0.2419 -0.3797
  188SAPE   H5X21639   5.114   4.791   2.962  1.0026  0.8328 -0.7590
  188SAPE   H5Y21640   4.936   4.831   3.001  0.7724  0.6918 -1.9162
  188SAPE   C3621641   5.089   4.852   3.161 -0.3303 -0.1206  0.0051
  188SAPE   H6X21642   5.011   4.908   3.217 -0.0475  1.4857 -1.1401
  188SAPE   H6Y21643   5.185   4.908   3.171 -0.5368  0.3240 -0.4876
  188SAPE   C3721644   5.090   4.716   3.218 -0.3124 -0.2721 -0.0896
  188SAPE   H7X21645   5.162   4.655   3.160  0.6983 -1.0075  1.8633
  188SAPE   H7Y21646   4.990   4.671   3.201  0.1085 -1.4343  0.4100
  188SAPE   C3821647   5.133   4.718   3.361  0.1621 -0.4158  0.2918
  188SAPE   H8X21648   5.065   4.788   3.414 -0.4030 -0.9653  0.2916
  188SAPE   H8Y21649   5.234   4.764   3.371  0.7039 -1.9047  2.2824
  188SAPE   C3921650   5.134   4.584   3.433  0.0457 -0.3205 -0.0772
  188SAPE   H9X21651   5.197   4.510   3.380 -0.6246 -1.5954  0.8448
  188SAPE   H9Y21652   5.037   4.531   3.418 -2.0149  3.3662 -1.2331
  188SAPE  C31021653   5.181   4.581   3.581 -0.1561 -0.5835  0.5169
  188SAPE  H10X21654   5.124   4.652   3.645  0.4363  0.1060  0.2939
  188SAPE  H10Y21655   5.288   4.611   3.582 -0.0300 -0.9823  2.2149
  188SAPE  C31121656   5.169   4.434   3.635  0.2022  0.2756 -0.0563
  188SAPE  H11X21657   5.244   4.363   3.595  2.4960  0.6473  3.1712
  188SAPE  H11Y21658   5.067   4.393   3.623  0.5794 -0.2905 -1.5216
  188SAPE  C31221659   5.185   4.428   3.790 -0.4783 -0.6280 -0.0795
  188SAPE  H12X21660   5.112   4.501   3.831 -0.8764 -1.2333  0.2948
  188SAPE  H12Y21661   5.280   4.479   3.816 -0.9231  0.6656 -0.8934
  188SAPE  C31321662   5.174   4.291   3.859 -0.0786  0.1829  0.5099
  188SAPE  H13X21663   5.221   4.215   3.793  0.9789  1.4683 -0.2720
  188SAPE  H13Y21664   5.066   4.272   3.845  0.2124 -0.9410 -0.3652
  188SAPE  C31421665   5.223   4.298   4.004  0.0448 -0.2236  0.2136
  188SAPE  H14X21666   5.202   4.199   4.049  1.4794 -0.4577  0.4415
  188SAPE  H14Y21667   5.162   4.379   4.049 -0.1440  0.4702 -1.2457
  188SAPE  C31521668   5.373   4.319   4.026 -0.1943  0.6542 -0.0327
  188SAPE  H15X21669   5.416   4.399   3.962  0.8728  0.1667  0.0495
  188SAPE  H15Y21670   5.429   4.226   4.000 -0.3950  0.5998 -0.2832
  188SAPE  C31621671   5.408   4.365   4.173  0.0765 -0.7526 -0.1661
  188SAPE  H16X21672   5.517   4.386   4.181  0.3084 -1.3836 -1.3984
  188SAPE  H16Y21673   5.375   4.295   4.252  3.5373 -3.0105 -0.5201
  188SAPE  C31721674   5.333   4.494   4.211  0.0830  0.2270  1.0193
  188SAPE  H17X21675   5.224   4.477   4.220 -0.3470  2.4783  0.8090
  188SAPE  H17Y21676   5.343   4.564   4.125 -1.0232 -2.7170 -1.6824
  188SAPE  C31821677   5.386   4.571   4.339  0.0179  0.7517  0.1080
  188SAPE  H18X21678   5.361   4.514   4.431 -0.3892 -0.1354 -0.5411
  188SAPE  H18Y21679   5.331   4.668   4.331 -0.3574  0.5723  0.5152
  188SAPE  H18Z21680   5.494   4.596   4.328  1.0758 -2.3068  2.2040
  189SAPI   C1221681   4.755   6.388   6.423 -0.4620  0.6307 -0.1527
  189SAPI    H221682   4.754   6.432   6.321  2.0660 -1.3213 -1.1327
  189SAPI    O221683   4.626   6.339   6.458 -0.4052  0.0821 -0.0611
  189SAPI   HO221684   4.578   6.395   6.520 -0.3816 -2.6357  2.6355
  189SAPI   C1321685   4.859   6.278   6.402 -0.6865 -0.0213  0.2957
  189SAPI    H321686   4.949   6.331   6.364 -0.1296 -1.0293  0.1927
  189SAPI    O321687   4.826   6.182   6.298 -0.0661 -0.0165 -0.2246
  189SAPI   HO321688   4.731   6.169   6.294  0.1319 -1.4855 -1.4919
  189SAPI   C1421689   4.900   6.211   6.531 -0.0364  0.0369 -0.0662
  189SAPI    H421690   4.819   6.142   6.562  0.6044 -0.3061  0.9130
  189SAPI    O421691   5.014   6.130   6.504 -0.2171 -0.3824  0.0911
  189SAPI   HO421692   4.979   6.043   6.483  1.4824 -2.1662  3.7541
  189SAPI   C1521693   4.919   6.297   6.653  0.0392 -0.0385  0.0874
  189SAPI    H521694   5.021   6.340   6.650 -0.5762  1.5041  0.1032
  189SAPI    O521695   4.911   6.230   6.778 -0.3090  0.4186 -0.1639
  189SAPI   HO521696   4.988   6.174   6.781  0.2469  0.8340 -3.2438
  189SAPI   C1621697   4.831   6.420   6.662 -0.5709  0.3809  0.4551
  189SAPI    H621698   4.732   6.384   6.698 -1.1114  1.1883 -0.1877
  189SAPI    O621699   4.885   6.513   6.759 -0.0082 -0.6384 -0.1593
  189SAPI   HO621700   4.968   6.544   6.720 -0.3321 -1.2866 -1.4071
  189SAPI   C1121701   4.794   6.492   6.535 -0.2888 -0.3453  0.3490
  189SAPI    H121702   4.891   6.533   6.501  0.1859 -0.3961  1.6233
  189SAPI     P21703   4.722   6.751   6.504 -0.2911 -0.9022  0.3227
  189SAPI   O1321704   4.853   6.775   6.565  0.1742  0.6795  0.5180
  189SAPI   O1421705   4.609   6.826   6.562  0.7346 -0.1647 -0.2569
  189SAPI   O1221706   4.688   6.594   6.543 -0.0140  0.2027 -0.0193
  189SAPI   O1121707   4.720   6.744   6.347 -0.1462  0.5274  0.2090
  189SAPI    C121708   4.600   6.702   6.279 -0.4379  0.1105 -0.5680
  189SAPI    HA21709   4.581   6.596   6.307 -0.2224  0.3423  0.4914
  189SAPI    HB21710   4.511   6.753   6.323 -0.5728  1.1962 -2.0231
  189SAPI    C221711   4.606   6.709   6.128  0.0406  0.1304 -0.3027
  189SAPI    HS21712   4.501   6.716   6.093 -0.0189  0.0886 -0.1339
  189SAPI   O2121713   4.677   6.592   6.079  0.1746  0.3859 -0.5245
  189SAPI   C2121714   4.597   6.481   6.055  0.2565 -0.3035 -0.3638
  189SAPI   O2221715   4.477   6.478   6.081 -0.0622 -0.1662 -0.3421
  189SAPI   C2221716   4.673   6.368   5.984 -0.0680 -0.2298  0.2688
  189SAPI   H2R21717   4.751   6.406   5.915 -0.5160 -0.9693 -0.6757
  189SAPI   H2S21718   4.726   6.312   6.064 -1.5229 -0.1210  1.3331
  189SAPI    C321719   4.675   6.840   6.074  0.1814 -0.4011  0.0796
  189SAPI    HX21720   4.777   6.846   6.116  0.6041 -0.2248 -0.9354
  189SAPI    HY21721   4.623   6.926   6.120  1.3540 -0.2247  1.1191
  189SAPI   O3121722   4.667   6.829   5.930 -0.2312  0.2421  0.6393
  189SAPI   C3121723   4.779   6.793   5.869  0.5408 -0.7997 -0.7100
  189SAPI   O3221724   4.889   6.790   5.917 -0.1079  0.4444  0.2290
  189SAPI   C3221725   4.742   6.748   5.722  0.0947 -0.2746 -0.2360
  189SAPI   H2X21726   4.726   6.847   5.672  1.7755  1.5158  2.4872
  189SAPI   H2Y21727   4.652   6.684   5.717  0.7102 -1.1359 -0.4179
  189SAPI   C2321728   4.578   6.270   5.913  0.4191 -0.2099  0.2348
  189SAPI   H3R21729   4.512   6.323   5.841  0.6378 -0.8453 -0.4490
  189SAPI   H3S21730   4.519   6.231   5.999  2.2839 -1.3336  1.0759
  189SAPI   C2421731   4.643   6.150   5.854  0.3104 -0.4015 -0.5160
  189SAPI   H4R21732   4.569   6.068   5.851 -1.3074  0.9334  0.9617
  189SAPI   H4S21733   4.720   6.102   5.918  0.3425  0.3798  0.0476
  189SAPI   C2521734   4.715   6.189   5.726 -0.1592  0.6997 -0.0618
  189SAPI   H5R21735   4.723   6.296   5.703 -0.0976  0.0485 -3.6884
  189SAPI   C2621736   4.771   6.103   5.634  0.1286  0.0554  0.2200
  189SAPI   H6R21737   4.802   6.139   5.535  1.9885 -1.9040 -0.0063
  189SAPI   C2721738   4.782   5.955   5.650 -0.2251  0.4322 -0.0490
  189SAPI   H7R21739   4.785   5.935   5.759  1.8803 -3.7309 -0.6447
  189SAPI   H7S21740   4.879   5.912   5.616  0.0126 -0.4572  1.6562
  189SAPI   C2821741   4.660   5.886   5.590 -1.2960  0.9993 -0.0335
  189SAPI   H8R21742   4.587   5.851   5.664  0.5419  0.4008  1.5788
  189SAPI   C2921743   4.639   5.865   5.457  0.1645 -0.2063  0.4640
  189SAPI   H9R21744   4.563   5.790   5.431  0.6645 -0.7670  0.6014
  189SAPI  C21021745   4.727   5.903   5.346 -0.1922  0.2165  0.9384
  189SAPI  H10R21746   4.811   5.963   5.385  0.4136 -1.2689  2.0116
  189SAPI  H10S21747   4.681   5.982   5.282  0.2560  0.5048  0.9677
  189SAPI  C21121748   4.793   5.788   5.275  0.7655  0.2888  0.2978
  189SAPI  H11R21749   4.872   5.741   5.335  1.9756  0.3670 -1.1800
  189SAPI  C21221750   4.788   5.757   5.142  0.9264  0.2159  0.0697
  189SAPI  H12R21751   4.853   5.677   5.106  1.5475  0.5071  0.5252
  189SAPI  C21321752   4.710   5.840   5.037  0.1335  0.4614 -0.3327
  189SAPI  H13R21753   4.737   5.947   5.053  2.1440 -0.4145  3.0914
  189SAPI  H13S21754   4.600   5.826   5.034  0.0864  0.8946 -1.0269
  189SAPI  C21421755   4.772   5.801   4.904 -0.2847  0.4371 -0.0271
  189SAPI  H14R21756   4.879   5.777   4.901 -0.8816 -2.6879  0.1736
  189SAPI  C21521757   4.706   5.792   4.789  0.4555  0.4366  0.1312
  189SAPI  H15R21758   4.765   5.779   4.697  0.5722  1.9728 -0.0530
  189SAPI  C21621759   4.557   5.810   4.774 -0.5512  0.3735 -0.3690
  189SAPI  H16R21760   4.528   5.873   4.687  0.9796 -0.0642 -1.2472
  189SAPI  H16S21761   4.516   5.859   4.864 -0.9224  0.0878 -0.3805
  189SAPI  C21721762   4.495   5.673   4.754 -0.0554  0.3339  0.5601
  189SAPI  H17R21763   4.389   5.685   4.721  0.3645  2.4847 -0.1441
  189SAPI  H17S21764   4.495   5.609   4.845 -0.0041 -0.0352  0.3019
  189SAPI  C21821765   4.562   5.605   4.629 -0.2240 -0.3319 -0.1326
  189SAPI  H18R21766   4.666   5.586   4.666 -0.5684 -0.7598  0.6367
  189SAPI  H18S21767   4.573   5.685   4.553  1.4335  2.9049  3.1749
  189SAPI  C21921768   4.494   5.480   4.577  0.3656 -0.3494  0.2265
  189SAPI  H19R21769   4.390   5.516   4.559  0.1306 -0.5242  1.1867
  189SAPI  H19S21770   4.500   5.407   4.660  0.5446  0.5060  0.9801
  189SAPI  C22021771   4.556   5.422   4.450 -0.1662  0.4104 -0.1832
  189SAPI  H20R21772   4.588   5.508   4.388  0.0250  0.2217 -0.3518
  189SAPI  H20S21773   4.487   5.352   4.396  1.5253 -1.7616  0.3246
  189SAPI  H20T21774   4.634   5.348   4.478  0.9528  1.5105 -0.3555
  189SAPI   C3321775   4.866   6.686   5.639  0.1706  0.3229 -0.6531
  189SAPI   H3X21776   4.872   6.576   5.652  1.9752  0.6422  1.9278
  189SAPI   H3Y21777   4.953   6.723   5.698 -0.5985 -0.3426  0.9699
  189SAPI   C3421778   4.862   6.727   5.493  0.4115  0.2498 -0.1068
  189SAPI   H4X21779   4.962   6.729   5.445  0.9969  0.0014  1.0611
  189SAPI   H4Y21780   4.837   6.835   5.486 -0.1644  0.0797 -0.7207
  189SAPI   C3521781   4.754   6.646   5.411 -0.9842 -0.0609  0.7356
  189SAPI   H5X21782   4.757   6.688   5.308 -0.7256 -0.9293  0.3814
  189SAPI   H5Y21783   4.648   6.651   5.446 -2.4971 -1.1176 -3.1653
  189SAPI   C3621784   4.792   6.496   5.392 -0.2991 -0.0866  0.2975
  189SAPI   H6X21785   4.752   6.429   5.470 -0.8965 -0.9033 -0.6811
  189SAPI   H6Y21786   4.902   6.495   5.382 -0.2511  2.9230 -0.4629
  189SAPI   C3721787   4.725   6.438   5.271 -0.0357  0.2798  0.0556
  189SAPI   H7X21788   4.759   6.480   5.174  3.8244 -3.6976 -0.6327
  189SAPI   H7Y21789   4.614   6.441   5.272 -0.0541 -0.4029  0.5365
  189SAPI   C3821790   4.749   6.284   5.255  0.4456  0.3913  0.3246
  189SAPI   H8X21791   4.677   6.227   5.317  1.0417  0.4097  1.0477
  189SAPI   H8Y21792   4.856   6.268   5.279  0.3689 -1.7351 -0.5576
  189SAPI   C3921793   4.720   6.246   5.107 -0.3361  0.1243 -0.0628
  189SAPI   H9X21794   4.747   6.139   5.118 -2.4500 -0.3529  0.8684
  189SAPI   H9Y21795   4.790   6.302   5.041  1.3001 -1.6429  0.0940
  189SAPI  C31021796   4.574   6.258   5.063  0.7135 -0.1003  0.3084
  189SAPI  H10X21797   4.557   6.362   5.026 -0.6009  0.3664  2.0590
  189SAPI  H10Y21798   4.505   6.227   5.144 -0.0881 -0.1008 -0.3527
  189SAPI  C31121799   4.554   6.177   4.934 -0.3420  0.4453  0.0158
  189SAPI  H11X21800   4.564   6.068   4.958  0.4284  0.3679 -0.6330
  189SAPI  H11Y21801   4.633   6.209   4.863 -0.2043  0.0027 -0.0333
  189SAPI  C31221802   4.412   6.203   4.879 -0.4290 -0.1067 -0.7491
  189SAPI  H12X21803   4.402   6.313   4.867 -2.3316 -0.0898  0.5107
  189SAPI  H12Y21804   4.340   6.175   4.958  1.0313 -1.0415  0.3052
  189SAPI  C31321805   4.370   6.128   4.755 -0.9833  0.2905 -0.4206
  189SAPI  H13X21806   4.349   6.020   4.774  2.9252 -0.8233 -1.3458
  189SAPI  H13Y21807   4.444   6.137   4.672 -1.9768  2.4445 -1.1316
  189SAPI  C31421808   4.243   6.186   4.701  0.0876 -0.6476 -0.5435
  189SAPI  H14X21809   4.259   6.296   4.693  0.3745 -0.5065  1.4078
  189SAPI  H14Y21810   4.164   6.175   4.778  0.7926  0.6555  0.3969
  189SAPI  C31521811   4.186   6.143   4.565  0.0935 -0.0151 -0.7851
  189SAPI  H15X21812   4.146   6.039   4.564  2.1638 -0.9857  2.5148
  189SAPI  H15Y21813   4.274   6.138   4.498  1.3951  1.1940  0.7577
  189SAPI  C31621814   4.094   6.250   4.512  0.9178  0.1292 -0.4960
  189SAPI  H16X21815   4.092   6.234   4.402  0.4241  0.8112 -0.5883
  189SAPI  H16Y21816   4.120   6.356   4.534  0.4758  1.0470 -3.7411
  189SAPI  C31721817   3.954   6.227   4.571 -0.3287 -0.1429  0.2490
  189SAPI  H17X21818   3.916   6.330   4.589  0.5240  0.0608  0.9569
  189SAPI  H17Y21819   3.991   6.190   4.669  2.4480  2.0610  0.1861
  189SAPI  C31821820   3.870   6.123   4.489 -0.3495 -0.2651 -0.5863
  189SAPI  H18X21821   3.938   6.055   4.435  1.3696  1.4332 -0.6685
  189SAPI  H18Y21822   3.813   6.180   4.412 -0.7185  1.2874  0.7763
  189SAPI  H18Z21823   3.805   6.060   4.553 -1.3941  1.2030 -0.1459
  190SAPI   C1221824   6.210   3.991   6.718 -0.5156 -0.2115  0.1395
  190SAPI    H221825   6.285   4.018   6.642  1.2243 -1.2883  1.4050
  190SAPI    O221826   6.244   4.066   6.840 -0.1145  0.0343  0.4715
  190SAPI   HO221827   6.338   4.090   6.842 -0.5622  1.9764  0.5742
  190SAPI   C1321828   6.077   4.037   6.656  0.4181 -0.1674 -0.1767
  190SAPI    H321829   6.044   3.984   6.564 -0.0240  0.4994 -0.4144
  190SAPI    O321830   6.094   4.171   6.611 -0.0967 -0.0626 -0.0286
  190SAPI   HO321831   6.076   4.226   6.688 -3.2431 -0.6975 -0.1855
  190SAPI   C1421832   5.964   4.015   6.755 -0.3982 -0.0861  0.1040
  190SAPI    H421833   5.997   4.079   6.840  0.8549  1.3995 -1.4527
  190SAPI    O421834   5.841   4.072   6.717  0.2388 -0.0897 -0.0017
  190SAPI   HO421835   5.806   4.020   6.644 -1.8223  1.3185 -0.0973
  190SAPI   C1521836   5.951   3.876   6.809 -0.1583  1.1509 -0.3196
  190SAPI    H521837   5.902   3.810   6.735  0.7264  1.1132 -0.8806
  190SAPI    O521838   5.872   3.874   6.925 -0.0670 -0.1214 -0.0650
  190SAPI   HO521839   5.866   3.787   6.965  0.5058 -0.8493 -1.5063
  190SAPI   C1621840   6.086   3.803   6.827 -0.2254  0.1364  0.4447
  190SAPI    H621841   6.118   3.821   6.932 -1.3666  1.9508  0.5294
  190SAPI    O621842   6.064   3.658   6.831  0.2139 -0.6706  0.0095
  190SAPI   HO621843   6.151   3.618   6.835  1.2085  1.2576 -1.1360
  190SAPI   C1121844   6.204   3.843   6.735 -0.0653 -0.4023  0.3927
  190SAPI    H121845   6.179   3.797   6.638  1.3949 -0.2746 -0.0672
  190SAPI     P21846   6.450   3.757   6.672  0.0151  0.1961 -0.4253
  190SAPI   O1321847   6.556   3.681   6.752  0.2504 -0.4357 -0.2712
  190SAPI   O1421848   6.490   3.882   6.608 -0.2971  0.0544  0.5103
  190SAPI   O1221849   6.320   3.780   6.774 -0.4625 -0.1351 -0.1006
  190SAPI   O1121850   6.394   3.675   6.552 -0.6832 -0.6344  0.2563
  190SAPI    C121851   6.304   3.569   6.544  0.7318  0.3413 -0.6462
  190SAPI    HA21852   6.318   3.500   6.630 -2.6068 -0.0963 -0.3212
  190SAPI    HB21853   6.198   3.603   6.549  0.1069 -1.5166 -0.6997
  190SAPI    C221854   6.322   3.500   6.406 -0.1061 -0.3799  0.6515
  190SAPI    HS21855   6.430   3.506   6.380 -0.5140  0.6675 -0.8524
  190SAPI   O2121856   6.245   3.583   6.313  0.8271  0.0655  0.2979
  190SAPI   C2121857   6.263   3.553   6.185  0.0294 -0.4422 -0.0028
  190SAPI   O2221858   6.350   3.480   6.137  0.1967 -0.3062  0.3548
  190SAPI   C2221859   6.146   3.608   6.112  0.7755  0.5160 -0.3134
  190SAPI   H2R21860   6.052   3.552   6.132  0.0644  1.5696 -0.6302
  190SAPI   H2S21861   6.121   3.710   6.149 -1.2562 -0.3930  1.0552
  190SAPI    C321862   6.271   3.352   6.417 -0.4325 -0.5321  0.3235
  190SAPI    HX21863   6.162   3.360   6.440 -0.5799 -1.5180  0.0119
  190SAPI    HY21864   6.325   3.308   6.504 -1.5383  2.5265  2.7688
  190SAPI   O3121865   6.281   3.280   6.300 -0.5358  0.3321  0.1459
  190SAPI   C3121866   6.402   3.225   6.281  0.6524 -0.1407  0.1938
  190SAPI   O3221867   6.496   3.228   6.356 -0.2958 -0.1858 -0.0693
  190SAPI   C3221868   6.398   3.150   6.145 -0.1713  0.2105  0.6259
  190SAPI   H2X21869   6.317   3.187   6.080 -0.7090 -5.0096 -2.2301
  190SAPI   H2Y21870   6.359   3.049   6.172 -3.9739  1.0271 -1.1560
  190SAPI   C2321871   6.167   3.618   5.962 -0.5818  0.0935  0.4341
  190SAPI   H3R21872   6.073   3.619   5.903  0.5126  1.6722 -1.4226
  190SAPI   H3S21873   6.231   3.537   5.919 -0.2162  0.7803 -0.3676
  190SAPI   C2421874   6.236   3.748   5.933  0.0930 -0.4700 -0.1748
  190SAPI   H4R21875   6.271   3.736   5.828 -0.1492 -3.3207 -0.0211
  190SAPI   H4S21876   6.328   3.749   5.995 -1.1732 -0.5793  1.7803
  190SAPI   C2521877   6.155   3.874   5.932  0.2209 -0.4658  0.3640
  190SAPI   H5R21878   6.157   3.915   6.035  0.4986  0.6385 -0.0682
  190SAPI   C2621879   6.092   3.933   5.826 -0.2970  0.4767  0.4730
  190SAPI   H6R21880   6.012   4.006   5.847 -1.4175 -0.3974 -0.6116
  190SAPI   C2721881   6.095   3.903   5.677 -0.3267 -0.3856 -0.1874
  190SAPI   H7R21882   6.202   3.879   5.658  0.1550  2.1931 -1.0709
  190SAPI   H7S21883   6.081   4.000   5.626  1.2980 -0.7516 -1.4396
  190SAPI   C2821884   6.006   3.800   5.619  0.1561 -0.7528  0.6230
  190SAPI   H8R21885   5.899   3.819   5.637 -0.3861 -3.9219  1.3538
  190SAPI   C2921886   6.031   3.689   5.554 -0.3512 -0.4848  0.1047
  190SAPI   H9R21887   5.950   3.637   5.500 -0.5967  0.1188 -0.1073
  190SAPI  C21021888   6.175   3.647   5.511 -0.7627  0.0722  0.1001
  190SAPI  H10R21889   6.205   3.579   5.593 -0.8255  2.3797  2.1549
  190SAPI  H10S21890   6.251   3.727   5.499  0.1964 -0.7438  0.5360
  190SAPI  C21121891   6.164   3.561   5.386 -0.5079 -0.3421 -0.2170
  190SAPI  H11R21892   6.084   3.486   5.392 -1.4903  0.6890 -0.0647
  190SAPI  C21221893   6.245   3.554   5.282  0.0194 -0.5604  0.0691
  190SAPI  H12R21894   6.207   3.495   5.198  0.2884 -2.2913  1.1135
  190SAPI  C21321895   6.366   3.649   5.263  0.0454 -0.5062  0.0343
  190SAPI  H13R21896   6.395   3.699   5.358 -2.1042  1.2055 -0.1202
  190SAPI  H13S21897   6.337   3.727   5.190 -0.5574 -0.2357  0.5464
  190SAPI  C21421898   6.487   3.573   5.221 -0.0503 -0.5932 -0.5501
  190SAPI  H14R21899   6.544   3.511   5.291  2.2691  1.8351 -0.1257
  190SAPI  C21521900   6.540   3.564   5.098 -0.8151  0.1995  0.3445
  190SAPI  H15R21901   6.628   3.499   5.083 -1.0326 -0.7053  2.5929
  190SAPI  C21621902   6.492   3.634   4.971  0.4714  0.0834 -0.0615
  190SAPI  H16R21903   6.392   3.679   4.989 -0.3346 -0.7554 -2.1104
  190SAPI  H16S21904   6.478   3.557   4.892 -0.8628 -0.8541  1.0564
  190SAPI  C21721905   6.588   3.742   4.913  0.2405  0.3223 -0.1681
  190SAPI  H17R21906   6.693   3.706   4.916  0.7415  1.7232  2.8112
  190SAPI  H17S21907   6.597   3.827   4.984  1.6510  0.3080 -0.2991
  190SAPI  C21821908   6.533   3.809   4.787  0.3088 -0.0364  0.0819
  190SAPI  H18R21909   6.528   3.722   4.718 -1.6173  1.0925 -1.2807
  190SAPI  H18S21910   6.615   3.879   4.759  0.0419  0.7875  1.3032
  190SAPI  C21921911   6.397   3.879   4.787  0.0991  0.4573  0.3500
  190SAPI  H19R21912   6.397   3.948   4.875  1.3108  1.5030 -0.4281
  190SAPI  H19S21913   6.310   3.810   4.797 -3.0841  3.4612 -3.1095
  190SAPI  C22021914   6.372   3.946   4.657 -1.2284  0.1227 -0.1936
  190SAPI  H20R21915   6.397   3.877   4.574 -2.3887 -1.8387  0.9993
  190SAPI  H20S21916   6.441   4.032   4.644 -0.2261 -0.7376 -0.7073
  190SAPI  H20T21917   6.265   3.974   4.642 -1.8698 -0.8546  2.0776
  190SAPI   C3321918   6.530   3.121   6.075 -0.0803 -0.0789  0.0436
  190SAPI   H3X21919   6.517   3.033   6.008 -0.3500 -1.2529  1.5783
  190SAPI   H3Y21920   6.607   3.102   6.153  1.2938  2.0118 -0.7356
  190SAPI   C3421921   6.589   3.239   5.993 -0.4399 -0.1538 -0.0677
  190SAPI   H4X21922   6.695   3.234   5.963 -0.5593  0.4671 -0.6210
  190SAPI   H4Y21923   6.592   3.329   6.058 -1.4540 -1.0739  1.3041
  190SAPI   C3521924   6.500   3.265   5.874  0.2986 -0.4152  0.1621
  190SAPI   H5X21925   6.412   3.309   5.925  1.4290  0.7924  1.1402
  190SAPI   H5Y21926   6.483   3.170   5.818  2.6792 -1.3649  0.9125
  190SAPI   C3621927   6.552   3.375   5.776  0.5413  0.7439  0.5319
  190SAPI   H6X21928   6.596   3.453   5.842  0.9814 -0.2282  1.4179
  190SAPI   H6Y21929   6.468   3.420   5.719  0.0516 -0.9281 -0.1374
  190SAPI   C3721930   6.652   3.323   5.673 -0.6616 -0.4158  0.6033
  190SAPI   H7X21931   6.623   3.227   5.626  2.6073 -1.2758  0.1134
  190SAPI   H7Y21932   6.736   3.292   5.739  0.1706  0.7308  0.1236
  190SAPI   C3821933   6.693   3.423   5.558  0.0369 -0.1900  0.0741
  190SAPI   H8X21934   6.729   3.520   5.600 -0.2112  0.5514 -1.3793
  190SAPI   H8Y21935   6.599   3.449   5.506  1.7824 -0.0001 -3.2462
  190SAPI   C3921936   6.803   3.374   5.470 -0.2836 -0.3268 -0.3766
  190SAPI   H9X21937   6.764   3.286   5.413 -0.0546 -1.0328  0.5360
  190SAPI   H9Y21938   6.895   3.333   5.517  0.0218  0.9753  0.1985
  190SAPI  C31021939   6.855   3.480   5.370 -0.1092  0.7992  0.6722
  190SAPI  H10X21940   6.918   3.550   5.429 -0.8440  1.1020  1.1062
  190SAPI  H10Y21941   6.764   3.538   5.340 -1.1709 -1.4462 -0.7261
  190SAPI  C31121942   6.918   3.421   5.246  0.5258  0.5765  0.0207
  190SAPI  H11X21943   6.848   3.349   5.199 -0.2059  0.6125  1.0045
  190SAPI  H11Y21944   7.010   3.369   5.280  3.3652  3.8126 -2.0372
  190SAPI  C31221945   6.970   3.525   5.150  0.3952 -0.4054 -0.0889
  190SAPI  H12X21946   7.066   3.569   5.185 -0.4231  0.5633  0.9774
  190SAPI  H12Y21947   6.899   3.609   5.141  1.2263  0.4257  0.7988
  190SAPI  C31321948   6.992   3.472   5.005  0.6042 -0.1373 -0.8200
  190SAPI  H13X21949   6.909   3.412   4.964  1.0890  0.3501 -2.6167
  190SAPI  H13Y21950   7.075   3.398   5.003  0.4647 -0.5307  2.5629
  190SAPI  C31421951   7.018   3.590   4.906 -0.1295  0.0518 -0.1466
  190SAPI  H14X21952   7.123   3.623   4.924 -0.5243  0.5607  1.3904
  190SAPI  H14Y21953   6.947   3.669   4.937  1.7733  1.4015  1.0435
  190SAPI  C31521954   7.012   3.552   4.755 -0.1261 -0.2268 -0.2491
  190SAPI  H15X21955   6.904   3.536   4.738 -0.4185 -2.2815  2.7046
  190SAPI  H15Y21956   7.049   3.453   4.722 -2.3745 -1.4681  0.7211
  190SAPI  C31621957   7.076   3.665   4.666 -0.4575 -0.2805 -0.9421
  190SAPI  H16X21958   7.171   3.700   4.713 -1.2671  0.9774 -0.2072
  190SAPI  H16Y21959   7.014   3.757   4.671 -1.9875 -1.3539  0.3742
  190SAPI  C31721960   7.114   3.638   4.520  0.1081  0.3896  0.4272
  190SAPI  H17X21961   7.059   3.545   4.492  0.6490 -0.3652  1.8178
  190SAPI  H17Y21962   7.220   3.607   4.519 -0.0344 -0.2662 -1.9341
  190SAPI  C31821963   7.092   3.747   4.420  0.1844 -0.4224 -0.1583
  190SAPI  H18X21964   7.133   3.845   4.450 -1.3723  0.3413 -0.4517
  190SAPI  H18Y21965   6.983   3.760   4.405  0.1823 -0.7199 -0.4154
  190SAPI  H18Z21966   7.133   3.723   4.319  0.9719 -1.0658  0.2993
  191SAPI   C1221967   6.217   1.070   1.704  1.0475  0.2210 -0.4819
  191SAPI    H221968   6.175   1.172   1.723  1.2434  0.3998 -1.0042
  191SAPI    O221969   6.134   0.984   1.779 -0.1852  0.6016 -0.2818
  191SAPI   HO221970   6.131   1.005   1.873  0.4671 -1.0787  0.1603
  191SAPI   C1321971   6.215   1.029   1.563  0.1116  0.1788 -0.2134
  191SAPI    H321972   6.280   1.097   1.504 -2.0527  1.6534 -1.0110
  191SAPI    O321973   6.081   1.045   1.504 -0.3455  0.2176  0.6721
  191SAPI   HO321974   6.020   0.993   1.556  1.1791 -0.3582  1.9503
  191SAPI   C1421975   6.267   0.880   1.545 -0.1182  0.1067 -0.3594
  191SAPI    H421976   6.184   0.817   1.582 -0.2263 -1.2713 -2.7450
  191SAPI    O421977   6.291   0.844   1.410 -0.4407  0.2934 -0.1254
  191SAPI   HO421978   6.378   0.884   1.399 -0.7147  0.6242 -1.1992
  191SAPI   C1521979   6.391   0.852   1.633 -0.5681  0.1613  0.0354
  191SAPI    H521980   6.477   0.899   1.581 -1.7406  1.3992 -0.8592
  191SAPI    O521981   6.416   0.710   1.645  0.5653 -0.1626  0.1352
  191SAPI   HO521982   6.338   0.670   1.684 -2.1606  2.0171 -2.5792
  191SAPI   C1621983   6.380   0.915   1.777  0.2553 -0.2208 -0.2033
  191SAPI    H621984   6.313   0.853   1.840  1.2306 -1.3408 -0.2352
  191SAPI    O621985   6.498   0.896   1.849  0.5234 -0.4813  0.0949
  191SAPI   HO621986   6.504   0.976   1.901 -1.9097  0.8771 -1.4738
  191SAPI   C1121987   6.353   1.066   1.770  0.2230  0.5783 -0.4667
  191SAPI    H121988   6.438   1.112   1.715  1.8159  3.3191  3.8183
  191SAPI     P21989   6.385   1.284   1.921  0.4413 -0.0368  0.1159
  191SAPI   O1321990   6.287   1.365   1.843 -0.4907  0.0000  0.2311
  191SAPI   O1421991   6.528   1.306   1.884  0.0702 -0.0758 -0.8059
  191SAPI   O1221992   6.355   1.121   1.895  0.6672  0.2592 -0.9898
  191SAPI   O1121993   6.350   1.296   2.070  0.0285 -0.5028 -0.5612
  191SAPI    C121994   6.238   1.234   2.132 -0.0860 -0.4068  0.1550
  191SAPI    HA21995   6.151   1.253   2.065 -0.5561 -2.1523  0.2229
  191SAPI    HB21996   6.256   1.124   2.138  0.3436 -0.2648  2.0853
  191SAPI    C221997   6.220   1.276   2.278 -0.3157  0.0920 -0.0003
  191SAPI    HS21998   6.173   1.376   2.276  0.7121  0.5982  0.3341
  191SAPI   O2121999   6.346   1.299   2.337  0.6474 -0.0634  0.5590
  191SAPI   C2122000   6.345   1.379   2.446  0.4198  0.1947 -0.8707
  191SAPI   O2222001   6.248   1.439   2.487 -0.1713  0.3096 -0.0910
  191SAPI   C2222002   6.489   1.393   2.509 -1.1385  0.7087  0.2621
  191SAPI   H2R22003   6.540   1.300   2.476  0.2003  1.7178 -0.5843
  191SAPI   H2S22004   6.534   1.483   2.462 -0.7571 -0.3563 -1.4900
  191SAPI    C322005   6.136   1.180   2.362 -0.3259  0.6582 -0.5925
  191SAPI    HX22006   6.164   1.075   2.341 -1.5808 -0.1192  1.3535
  191SAPI    HY22007   6.030   1.189   2.328 -0.0038  0.7231 -1.6193
  191SAPI   O3122008   6.146   1.192   2.511 -0.2215 -0.2053 -0.0861
  191SAPI   C3122009   6.034   1.231   2.574 -0.4111 -0.7135  0.0725
  191SAPI   O3222010   5.922   1.236   2.524 -0.0574  0.6069 -0.5091
  191SAPI   C3222011   6.063   1.258   2.721 -0.0723  0.3716  0.0176
  191SAPI   H2X22012   6.173   1.252   2.737 -0.0743  1.4282  0.4878
  191SAPI   H2Y22013   6.010   1.175   2.772 -0.5889 -0.3328 -1.6160
  191SAPI   C2322014   6.479   1.398   2.661  0.3144  1.0366  0.2166
  191SAPI   H3R22015   6.404   1.320   2.691 -2.0535  2.8680 -0.6054
  191SAPI   H3S22016   6.429   1.496   2.679 -0.8290  0.6161 -0.5450
  191SAPI   C2422017   6.613   1.381   2.747  0.0618 -0.0858 -0.2446
  191SAPI   H4R22018   6.585   1.390   2.854  0.5293 -0.7368 -0.0589
  191SAPI   H4S22019   6.683   1.460   2.714 -3.5601  2.2936 -3.0959
  191SAPI   C2522020   6.684   1.255   2.730 -0.6279  1.0566 -0.6732
  191SAPI   H5R22021   6.744   1.256   2.638  0.5978  0.8284  0.1067
  191SAPI   C2622022   6.693   1.154   2.820  0.3109 -0.2792  0.1491
  191SAPI   H6R22023   6.760   1.070   2.799  0.0945  0.0424 -2.0301
  191SAPI   C2722024   6.620   1.148   2.958  0.0594  0.4893  1.1020
  191SAPI   H7R22025   6.656   1.235   3.017  3.4854 -0.2095  0.2654
  191SAPI   H7S22026   6.656   1.061   3.016  1.4820 -0.6542 -1.3179
  191SAPI   C2822027   6.467   1.158   2.943  0.1229  0.6919 -0.0640
  191SAPI   H8R22028   6.428   1.165   2.841  1.7711 -0.4778 -0.8248
  191SAPI   C2922029   6.382   1.151   3.048  0.7548 -0.1874 -0.0718
  191SAPI   H9R22030   6.273   1.154   3.031  1.1127  2.1660 -2.7449
  191SAPI  C21022031   6.423   1.135   3.192  0.7901 -0.2201 -0.1463
  191SAPI  H10R22032   6.507   1.064   3.203  0.0054 -1.0594  0.6188
  191SAPI  H10S22033   6.336   1.087   3.242  0.9649 -1.3689 -0.9076
  191SAPI  C21122034   6.468   1.262   3.256 -0.0116  0.1033  0.3691
  191SAPI  H11R22035   6.489   1.346   3.187 -0.8863 -0.3517 -0.4816
  191SAPI  C21222036   6.490   1.281   3.386  0.9453  0.2540 -0.3701
  191SAPI  H12R22037   6.506   1.382   3.427  0.3474  0.0103  0.5072
  191SAPI  C21322038   6.447   1.171   3.482 -1.0268 -0.3165 -0.0251
  191SAPI  H13R22039   6.357   1.120   3.442 -1.5205  1.1571 -0.8524
  191SAPI  H13S22040   6.417   1.227   3.573  0.9723 -0.4686  0.7970
  191SAPI  C21422041   6.566   1.082   3.516 -0.1372  1.0096  0.3237
  191SAPI  H14R22042   6.600   1.028   3.427 -2.1829  0.5375 -0.2365
  191SAPI  C21522043   6.624   1.046   3.628 -0.3195  0.4282 -0.5491
  191SAPI  H15R22044   6.710   0.980   3.614 -0.9668  0.1194 -3.8261
  191SAPI  C21622045   6.589   1.101   3.768 -0.1970 -0.2230  0.3607
  191SAPI  H16R22046   6.598   1.209   3.745 -0.4678 -0.3446 -0.3393
  191SAPI  H16S22047   6.666   1.063   3.838  0.5606 -1.5672 -1.1112
  191SAPI  C21722048   6.448   1.068   3.820  0.3801  0.3623 -0.6025
  191SAPI  H17R22049   6.430   0.958   3.813  2.1133 -0.0582  0.8092
  191SAPI  H17S22050   6.363   1.121   3.772 -1.5826 -0.6177  1.5704
  191SAPI  C21822051   6.439   1.096   3.974  0.0370 -0.2342  0.1501
  191SAPI  H18R22052   6.476   1.201   3.981  0.7649 -0.4735  0.0056
  191SAPI  H18S22053   6.509   1.034   4.033 -1.3430 -0.9064  1.1118
  191SAPI  C21922054   6.297   1.085   4.024  0.0082  0.2924  0.2347
  191SAPI  H19R22055   6.266   0.990   3.976  1.9189 -0.2952  0.1069
  191SAPI  H19S22056   6.250   1.177   3.983  0.4941  0.8059  0.8142
  191SAPI  C22022057   6.285   1.079   4.178  0.2159  0.1308  0.3356
  191SAPI  H20R22058   6.312   0.983   4.228 -3.0819 -1.0808  0.0908
  191SAPI  H20S22059   6.184   1.107   4.215  1.0018  5.2656 -0.7201
  191SAPI  H20T22060   6.348   1.162   4.214  0.1610  0.0078  0.7124
  191SAPI   C3322061   6.014   1.399   2.773 -0.5080  0.0378 -0.2498
  191SAPI   H3X22062   5.904   1.408   2.758 -0.4191  0.8557 -0.4937
  191SAPI   H3Y22063   6.065   1.487   2.728 -0.2558  1.6697  2.8995
  191SAPI   C3422064   6.051   1.409   2.921 -0.3157  0.0081  0.7818
  191SAPI   H4X22065   6.158   1.384   2.933 -0.7284 -1.2869  2.0878
  191SAPI   H4Y22066   5.995   1.332   2.979 -0.5782 -1.5612 -1.4151
  191SAPI   C3522067   6.032   1.552   2.971  0.0965 -0.0961 -0.3218
  191SAPI   H5X22068   5.925   1.579   2.955  0.5454  2.8430  0.9534
  191SAPI   H5Y22069   6.083   1.632   2.913  1.0947 -0.1956  0.3953
  191SAPI   C3622070   6.062   1.564   3.117  0.5856  0.5423  0.3601
  191SAPI   H6X22071   6.165   1.536   3.147  0.0020 -2.3279 -0.0363
  191SAPI   H6Y22072   5.991   1.497   3.171 -0.5261  1.6999  0.3714
  191SAPI   C3722073   6.042   1.708   3.175 -0.5336 -0.5278 -0.2553
  191SAPI   H7X22074   5.942   1.751   3.157  0.9019  2.7574 -1.1614
  191SAPI   H7Y22075   6.110   1.775   3.118 -0.1145  0.0438  0.8762
  191SAPI   C3822076   6.081   1.719   3.326 -0.3166 -0.2451  0.1814
  191SAPI   H8X22077   6.117   1.820   3.355  1.0546 -0.0595 -1.9207
  191SAPI   H8Y22078   6.160   1.642   3.340 -1.4479 -1.4674  0.0301
  191SAPI   C3922079   5.968   1.693   3.427  0.2632 -0.1368  0.5819
  191SAPI   H9X22080   5.915   1.601   3.396  0.9102  0.2315 -1.8361
  191SAPI   H9Y22081   5.892   1.773   3.410  0.9630  0.4444  0.0958
  191SAPI  C31022082   6.007   1.697   3.578 -0.5886 -0.0898  1.2270
  191SAPI  H10X22083   6.055   1.797   3.589 -1.7827  0.6442  0.0761
  191SAPI  H10Y22084   6.075   1.613   3.603 -3.7424 -2.8253  1.2903
  191SAPI  C31122085   5.887   1.671   3.682 -0.0907 -0.5656  0.2019
  191SAPI  H11X22086   5.840   1.571   3.674 -0.0653 -0.4839 -1.3270
  191SAPI  H11Y22087   5.804   1.744   3.675 -0.8986 -1.4974 -0.1401
  191SAPI  C31222088   5.931   1.686   3.827 -0.3813  0.3125 -0.2426
  191SAPI  H12X22089   5.952   1.792   3.853 -2.4414  0.9269 -0.8577
  191SAPI  H12Y22090   6.028   1.633   3.823 -1.0334 -0.9109 -0.4131
  191SAPI  C31322091   5.841   1.626   3.933  0.2547  0.0806 -0.3759
  191SAPI  H13X22092   5.890   1.652   4.030 -0.5168 -0.9645  0.3273
  191SAPI  H13Y22093   5.836   1.516   3.919  1.2603 -0.0474  0.1781
  191SAPI  C31422094   5.700   1.693   3.933 -0.0259 -0.3953 -0.3300
  191SAPI  H14X22095   5.657   1.680   3.832 -0.5950 -0.9895 -0.0153
  191SAPI  H14Y22096   5.723   1.802   3.937 -0.0784 -0.4109  3.0682
  191SAPI  C31522097   5.588   1.663   4.034 -0.2015  0.7681  0.3996
  191SAPI  H15X22098   5.577   1.553   4.031  1.2006  0.5464  1.8587
  191SAPI  H15Y22099   5.490   1.699   3.996  0.6487  0.1498 -2.6209
  191SAPI  C31622100   5.613   1.720   4.176 -1.1184  0.3544  0.1882
  191SAPI  H16X22101   5.579   1.825   4.181 -0.3632  0.6282 -0.2731
  191SAPI  H16Y22102   5.723   1.717   4.191 -0.8400 -0.3732 -1.6620
  191SAPI  C31722103   5.548   1.642   4.287  0.0822 -0.2029 -0.0295
  191SAPI  H17X22104   5.580   1.693   4.380  2.8418 -2.1914  0.2082
  191SAPI  H17Y22105   5.593   1.541   4.298  0.6650  0.2068  1.5960
  191SAPI  C31822106   5.396   1.632   4.263  0.1309  0.0070 -0.0178
  191SAPI  H18X22107   5.385   1.554   4.185 -0.1382 -0.5368  0.5615
  191SAPI  H18Y22108   5.341   1.728   4.250  0.3042 -0.0559 -1.2874
  191SAPI  H18Z22109   5.360   1.600   4.363 -1.1782  1.5017  0.0302
  192SAPI   C1222110   5.094   6.622   2.042 -0.5396  0.3464 -0.5774
  192SAPI    H222111   5.138   6.681   2.125 -0.2363 -1.4519  0.5955
  192SAPI    O222112   5.096   6.691   1.918 -0.2622 -0.4684  0.9455
  192SAPI   HO222113   5.042   6.771   1.919 -1.1332 -1.0404  1.8234
  192SAPI   C1322114   5.173   6.493   2.038 -0.2038 -0.1207 -0.5508
  192SAPI    H322115   5.148   6.434   2.129 -0.3870  1.4689  0.4818
  192SAPI    O322116   5.308   6.525   2.042  0.0474  0.1629  0.5167
  192SAPI   HO322117   5.366   6.451   2.064  0.9201 -0.2649 -2.6444
  192SAPI   C1422118   5.140   6.421   1.915 -0.4160  1.2121  0.1295
  192SAPI    H422119   5.165   6.481   1.825 -0.8402  1.0553 -0.0971
  192SAPI    O422120   5.216   6.297   1.907  0.0872 -0.0728 -0.7111
  192SAPI   HO422121   5.167   6.222   1.940 -0.1828  1.6048  3.1503
  192SAPI   C1522122   4.991   6.397   1.909  0.1839 -0.1717  0.4951
  192SAPI    H522123   4.968   6.324   1.990 -0.3014 -0.0625  0.4586
  192SAPI    O522124   4.945   6.340   1.789 -0.3916  0.5088 -0.7002
  192SAPI   HO522125   4.920   6.254   1.823  1.1951 -0.2507 -1.3551
  192SAPI   C1622126   4.906   6.515   1.948 -0.6712  0.7416  0.3415
  192SAPI    H622127   4.891   6.583   1.862  0.6251  0.0868 -0.4293
  192SAPI    O622128   4.771   6.480   1.967  0.0980  0.0358 -0.2672
  192SAPI   HO622129   4.734   6.542   2.030 -5.0811 -1.6665 -1.1670
  192SAPI   C1122130   4.952   6.590   2.075 -0.3640 -0.5114  0.0239
  192SAPI    H122131   4.943   6.539   2.173 -0.8657  1.0163  0.8014
  192SAPI     P22132   4.750   6.742   2.176  0.0813  0.1711  0.3667
  192SAPI   O1322133   4.653   6.634   2.137 -0.2071 -1.1456 -0.1768
  192SAPI   O1422134   4.707   6.882   2.152 -0.5053  0.2863 -0.1704
  192SAPI   O1222135   4.889   6.717   2.097  0.0964  0.5982  0.5334
  192SAPI   O1122136   4.788   6.723   2.328 -0.0086 -0.5381  0.7593
  192SAPI    C122137   4.914   6.783   2.369  0.1030  0.0740 -0.2528
  192SAPI    HA22138   5.004   6.722   2.346  1.7009  1.4231  1.9659
  192SAPI    HB22139   4.924   6.890   2.340 -0.9987 -0.0392 -1.1257
  192SAPI    C222140   4.914   6.799   2.525  0.6197 -0.5132  0.0977
  192SAPI    HS22141   5.000   6.864   2.553 -0.0405  0.5767 -0.3105
  192SAPI   O2122142   4.905   6.675   2.592  0.5653 -0.1062  0.2425
  192SAPI   C2122143   5.024   6.626   2.608 -0.2065  0.1049 -0.0962
  192SAPI   O2222144   5.124   6.667   2.559  0.2952 -0.3632  0.1081
  192SAPI   C2222145   5.021   6.499   2.699 -0.2004 -0.2971 -0.3491
  192SAPI   H2R22146   4.926   6.490   2.755  0.4198  0.4526  0.8534
  192SAPI   H2S22147   5.038   6.413   2.630 -2.0271 -0.8496 -0.1540
  192SAPI    C322148   4.789   6.881   2.579 -0.1470  0.6315 -0.8049
  192SAPI    HX22149   4.696   6.825   2.559 -0.5362  1.8006 -2.4757
  192SAPI    HY22150   4.771   6.972   2.519 -0.5611  1.5696  0.6830
  192SAPI   O3122151   4.812   6.925   2.717 -0.1673  0.1551 -0.8684
  192SAPI   C3122152   4.725   6.871   2.806 -0.7147  0.5962 -0.8295
  192SAPI   O3222153   4.615   6.826   2.778 -0.2826  0.3800 -0.0025
  192SAPI   C3222154   4.776   6.889   2.949 -0.0807 -0.5845 -0.8499
  192SAPI   H2X22155   4.782   6.998   2.971  1.6643 -0.2242 -2.7321
  192SAPI   H2Y22156   4.876   6.841   2.961 -0.1009 -0.0792  1.8793
  192SAPI   C2322157   5.145   6.494   2.790 -0.0011 -0.7817 -0.0311
  192SAPI   H3R22158   5.238   6.499   2.729  0.4486 -1.3541  0.5926
  192SAPI   H3S22159   5.135   6.402   2.850 -1.1263 -0.4043  0.3771
  192SAPI   C2422160   5.144   6.606   2.910  1.1730  0.0985  0.2164
  192SAPI   H4R22161   5.129   6.700   2.851 -2.2125 -0.4632  0.0367
  192SAPI   H4S22162   5.235   6.616   2.973  0.0671  1.2540  1.7015
  192SAPI   C2522163   5.023   6.590   3.002 -1.0660 -0.0151  0.5419
  192SAPI   H5R22164   4.936   6.535   2.962 -0.2900 -0.9412  0.0961
  192SAPI   C2622165   5.021   6.652   3.117 -0.2156 -0.1019 -0.4743
  192SAPI   H6R22166   4.929   6.650   3.177 -0.6270  1.3103 -1.0192
  192SAPI   C2722167   5.127   6.750   3.175  0.5102  0.3219 -0.5927
  192SAPI   H7R22168   5.224   6.747   3.122  3.1297  1.9297  3.5799
  192SAPI   H7S22169   5.147   6.722   3.280 -2.2880 -1.4214 -0.4282
  192SAPI   C2822170   5.087   6.899   3.163 -0.2422  0.7332 -0.7696
  192SAPI   H8R22171   5.039   6.922   3.067  1.6713  1.1352 -1.6817
  192SAPI   C2922172   5.112   6.993   3.250 -0.0163 -0.2954 -0.3668
  192SAPI   H9R22173   5.082   7.096   3.224 -1.2754 -0.8187 -1.0641
  192SAPI  C21022174   5.191   6.979   3.381  0.1463 -0.2122 -0.0466
  192SAPI  H10R22175   5.265   6.896   3.381  0.1335 -0.2464  1.2786
  192SAPI  H10S22176   5.115   6.955   3.458  1.3469 -0.6606  1.0282
  192SAPI  C21122177   5.251   7.114   3.416 -0.1916  0.4070  0.4465
  192SAPI  H11R22178   5.345   7.132   3.362 -0.1882  1.7806  0.8816
  192SAPI  C21222179   5.196   7.205   3.498 -0.1134 -0.5455 -0.1690
  192SAPI  H12R22180   5.264   7.286   3.529 -0.5878 -0.4948  0.7770
  192SAPI  C21322181   5.070   7.210   3.579 -0.4316 -0.0727 -0.1795
  192SAPI  H13R22182   5.065   7.155   3.675  0.2857  2.3715  1.3390
  192SAPI  H13S22183   4.994   7.147   3.527 -0.0822 -0.2222 -0.5136
  192SAPI  C21422184   5.027   7.352   3.614 -0.4365 -0.0190 -0.5648
  192SAPI  H14R22185   4.956   7.408   3.551  0.2193  2.7452  0.9853
  192SAPI  C21522186   5.088   7.423   3.710 -0.1214 -0.5110  0.0537
  192SAPI  H15R22187   5.052   7.522   3.741 -1.9472 -0.9001 -0.6439
  192SAPI  C21622188   5.180   7.375   3.818  0.4455  0.5822  0.1442
  192SAPI  H16R22189   5.286   7.391   3.790 -0.4490  2.1231 -2.8495
  192SAPI  H16S22190   5.157   7.267   3.831 -1.8385  0.7009 -2.1748
  192SAPI  C21722191   5.153   7.430   3.961  0.1081 -0.0282  0.3605
  192SAPI  H17R22192   5.055   7.397   4.002  0.3128 -0.3913  0.5561
  192SAPI  H17S22193   5.154   7.540   3.942 -0.7379 -0.1236 -0.3109
  192SAPI  C21822194   5.272   7.389   4.051  0.3566  0.0381  0.6223
  192SAPI  H18R22195   5.354   7.457   4.021 -0.8020  0.6100 -1.5066
  192SAPI  H18S22196   5.305   7.286   4.025 -2.3384 -0.6211 -0.5689
  192SAPI  C21922197   5.243   7.397   4.204 -1.1169 -0.1455  0.4144
  192SAPI  H19R22198   5.149   7.342   4.226 -0.9831 -0.8043 -0.6222
  192SAPI  H19S22199   5.216   7.502   4.227 -1.2261  0.1629 -1.0253
  192SAPI  C22022200   5.363   7.364   4.297 -0.2962  0.5219 -0.2389
  192SAPI  H20R22201   5.377   7.255   4.312  0.8933  0.8338  1.0084
  192SAPI  H20S22202   5.347   7.403   4.400  0.3229  0.4709 -0.1222
  192SAPI  H20T22203   5.464   7.392   4.260  1.5588 -1.1503  3.1019
  192SAPI   C3322204   4.682   6.814   3.048  0.8359  0.3536  0.2459
  192SAPI   H3X22205   4.687   6.705   3.027  0.9017  0.4759 -0.4111
  192SAPI   H3Y22206   4.577   6.842   3.030  1.1853  1.6254  0.1154
  192SAPI   C3422207   4.711   6.876   3.189  0.2409 -0.1906  0.3739
  192SAPI   H4X22208   4.818   6.900   3.203  0.0964  1.4469 -0.9569
  192SAPI   H4Y22209   4.662   6.803   3.257 -0.1581  1.6199  2.1054
  192SAPI   C3522210   4.644   7.011   3.211  0.4172  0.8219 -0.0320
  192SAPI   H5X22211   4.537   6.982   3.220  0.3314 -0.1300 -2.9504
  192SAPI   H5Y22212   4.656   7.070   3.118  0.0970 -0.5394 -0.9769
  192SAPI   C3622213   4.687   7.086   3.329  0.2937  0.2251  0.1816
  192SAPI   H6X22214   4.624   7.177   3.334 -0.2426 -0.0362 -1.2915
  192SAPI   H6Y22215   4.794   7.114   3.335 -0.3568  2.6841  1.6187
  192SAPI   C3722216   4.653   7.015   3.459  0.3467 -0.2354 -0.3826
  192SAPI   H7X22217   4.705   6.917   3.466  0.2173 -0.2412  0.6909
  192SAPI   H7Y22218   4.543   6.996   3.464  0.3705 -0.2256  0.2248
  192SAPI   C3822219   4.678   7.088   3.591 -0.3302  0.2473 -0.4027
  192SAPI   H8X22220   4.633   7.190   3.594 -0.0869  0.3484  1.7900
  192SAPI   H8Y22221   4.788   7.082   3.606 -0.3739  0.6194  0.1092
  192SAPI   C3922222   4.613   7.002   3.703 -0.1999 -0.0139  0.0862
  192SAPI   H9X22223   4.666   6.904   3.710  0.5670  0.2782 -1.2805
  192SAPI   H9Y22224   4.508   7.001   3.666 -0.8113 -0.8397  1.7079
  192SAPI  C31022225   4.620   7.067   3.844  0.4680  0.2533  0.4107
  192SAPI  H10X22226   4.599   7.176   3.840 -0.3215  0.1728  1.6882
  192SAPI  H10Y22227   4.724   7.050   3.878  0.0529 -1.9082  0.7594
  192SAPI  C31122228   4.535   6.997   3.954  0.0649 -0.1670 -0.0005
  192SAPI  H11X22229   4.572   6.894   3.969 -1.3610 -1.6144 -4.5557
  192SAPI  H11Y22230   4.431   6.988   3.916  0.5658  0.9219 -1.7442
  192SAPI  C31222231   4.537   7.081   4.083  0.5102 -0.0893  1.1840
  192SAPI  H12X22232   4.506   7.185   4.057  2.8665  0.2538 -0.6517
  192SAPI  H12Y22233   4.639   7.082   4.128 -0.4693  0.0678  3.5095
  192SAPI  C31322234   4.458   7.010   4.192 -0.0939  0.3389 -0.1137
  192SAPI  H13X22235   4.516   6.916   4.202  2.1527  1.8074  1.9071
  192SAPI  H13Y22236   4.356   6.979   4.161 -1.5410  1.7660  2.8293
  192SAPI  C31422237   4.445   7.088   4.326 -0.0811  0.3041  0.2625
  192SAPI  H14X22238   4.547   7.110   4.363 -0.0629 -1.4136  1.3485
  192SAPI  H14Y22239   4.390   7.032   4.405 -1.7066  2.1233  0.5105
  192SAPI  C31522240   4.380   7.231   4.297  0.0927 -0.2135 -0.1079
  192SAPI  H15X22241   4.301   7.227   4.219  1.5054  1.0949 -1.6948
  192SAPI  H15Y22242   4.455   7.302   4.258 -0.2299 -0.3824 -1.0603
  192SAPI  C31622243   4.328   7.291   4.424  0.1857  0.4923  0.4473
  192SAPI  H16X22244   4.412   7.313   4.494 -0.2834  0.2680  1.0949
  192SAPI  H16Y22245   4.255   7.228   4.479 -0.3254  0.7692  0.0959
  192SAPI  C31722246   4.250   7.420   4.379 -0.6995  0.4227  0.0519
  192SAPI  H17X22247   4.175   7.407   4.297  0.0932  1.8711 -0.9574
  192SAPI  H17Y22248   4.315   7.502   4.341  0.7291 -0.3135  0.8623
  192SAPI  C31822249   4.184   7.496   4.494  0.1695 -0.3140 -0.0813
  192SAPI  H18X22250   4.115   7.578   4.465  0.9780  0.6981  0.7718
  192SAPI  H18Y22251   4.250   7.535   4.574 -0.0916  0.6572 -0.3236
  192SAPI  H18Z22252   4.125   7.413   4.538  3.7633 -2.1671  1.6669
  193POT    POT22253   1.983   6.211   8.379 -0.0160 -0.5368 -0.1378
  194POT    POT22254   2.524   4.844   7.861  0.1082 -0.1158  0.1049
  195POT    POT22255   5.184   4.821   7.760 -0.1573  0.0745  0.0973
  196POT    POT22256   2.545   1.273   7.641 -0.2839  0.4843  0.5547
  197POT    POT22257   3.434   6.451   7.629  0.1881  0.1548 -0.0704
  198POT    POT22258   2.554   0.029   0.638  0.0598  0.3188 -0.1991
  199POT    POT22259   4.765   0.672   6.988  0.1429  0.1646  0.6829
  200POT    POT22260   3.740   4.205   1.121  0.1251  0.3114 -0.2368
  201POT    POT22261   1.869   4.304   1.101  0.1794  0.1553  0.0410
  202POT    POT22262   5.175   2.470   6.275  0.2079 -0.2542 -0.1909
  203POT    POT22263   1.378   2.306   8.214 -0.1818  0.2231  0.2317
  204POT    POT22264   6.727   1.750   1.320 -0.2666 -0.2388 -0.2360
  205POT    POT22265   1.695   6.736   2.333  0.0305 -0.0889  0.1728
  206POT    POT22266   0.648   3.181   7.359  0.4196  0.2286  0.3976
  207POT    POT22267   4.855   6.561   7.861 -0.0313 -0.1605 -0.4896
  208POT    POT22268   6.293   2.139   1.448  0.0174 -0.4221 -0.1926
  209POT    POT22269   4.461   4.302   7.891  0.2612 -0.0331  0.0118
  210POT    POT22270   2.813   3.738   1.899  0.2164  0.1463  0.2238
  211POT    POT22271   0.791   3.685   0.399 -0.1337  0.1253 -0.4655
  212POT    POT22272   4.353   2.764   1.958 -0.0748  0.1788 -0.0925
  213POT    POT22273   1.938   0.054   7.755  0.1065 -0.0863  0.0339
  214POT    POT22274   5.426   0.894   0.516  0.0929 -0.1339  0.0752
  215POT    POT22275   5.259   0.033   1.299  0.1460  0.0140 -0.0538
  216POT    POT22276   3.731   3.270   8.338  0.2855  0.3764  0.1165
  217POT    POT22277   1.958   5.274   0.705  0.6592 -0.3477  0.7678
  218POT    POT22278   4.202   6.195   8.587  0.0932 -0.2524  0.4854
  219POT    POT22279   2.428   3.896   0.406  0.1819 -0.1917  0.1945
  220POT    POT22280   6.015   5.159   7.384 -0.5069  0.3969 -0.3721
  221POT    POT22281   4.945   0.868   1.478  0.2300  0.0776  0.7566
  222POT    POT22282   2.411   2.448   6.744  0.2518  0.0279  0.1800
  223POT    POT22283   1.421   2.139   1.512  0.0619  0.2495  0.5335
  224POT    POT22284   5.666   3.917   1.778  0.0658 -0.2393  0.3714
  225POT    POT22285   6.393   2.718   0.451  0.0221 -0.0620 -0.2339
  226POT    POT22286   6.074   3.223   0.385 -0.0348  0.5205  0.1047
  227POT    POT22287   6.631   5.819   1.396 -0.0646 -0.1056 -0.1836
  228POT    POT22288   6.570   4.069   7.334  0.0267  0.3217  0.4396
  229POT    POT22289   5.723   2.043   7.564  0.1577  0.2842 -0.6531
  230POT    POT22290   0.196   4.995   7.059  0.0269 -0.1391  0.0383
  231POT    POT22291   3.561   1.255   1.766 -0.0855 -0.0022 -0.1123
  232POT    POT22292   5.052   4.832   8.495  0.4401  0.1407 -0.4998
  233CLA    CLA22293   6.464   6.301   0.487  0.3504 -0.1359 -0.0557
  234CLA    CLA22294   0.055   5.031   0.006  0.1168  0.1318  0.0129
  235CLA    CLA22295   5.889   0.274   1.277 -0.2959  0.2948 -0.2898
  236CLA    CLA22296   2.385   0.589   0.695  0.0472 -0.4299  0.0405
  237CLA    CLA22297   3.345   4.878   0.786  0.0147 -0.0224  0.2332
  238CLA    CLA22298   2.462   6.507   7.505  0.4322 -0.2214 -0.1782
  239CLA    CLA22299   1.638   2.153   8.248  0.2881  0.2593  0.2105
  240CLA    CLA22300   1.033   3.667   0.621 -0.1366 -0.2599 -0.1983
  241CLA    CLA22301   4.645   1.281   8.227  0.1549  0.0996 -0.3140
  242CLA    CLA22302   5.587   2.331   7.599 -0.2083  0.4893  0.1566
  243CLA    CLA22303   3.730   4.549   1.387  0.1233 -0.1849  0.0647
  244CLA    CLA22304   2.332   3.706   8.690  0.0285 -0.1160 -0.3040
  245CLA    CLA22305   3.001   3.648   0.608 -0.1777 -0.0961  0.2733
  246CLA    CLA22306   3.504   5.302   8.363 -0.4364  0.3182 -0.1430
  247CLA    CLA22307   0.151   2.498   0.227  0.0904 -0.1468  0.2619
  248CLA    CLA22308   0.149   6.591   0.856 -0.0569 -0.1693 -0.3719
  249TIP3   OH222309   5.754   1.808   0.210  0.0835 -0.1278 -0.0346
  249TIP3    H122310   5.754   1.835   0.302 -1.2293 -0.1464 -0.0088
  249TIP3    H222311   5.788   1.718   0.211  2.2504  0.6348  0.1423
  250TIP3   OH222312   5.111   1.298   0.995  0.0015  0.2777  0.4164
  250TIP3    H122313   5.164   1.334   1.066 -0.3687 -1.1474  1.4680
  250TIP3    H222314   5.170   1.295   0.920  1.0923 -0.2038  1.2561
  251TIP3   OH222315   6.311   2.367   0.140 -0.4234 -0.7849  0.6063
  251TIP3    H122316   6.332   2.402   0.226 -1.1653 -0.9884  0.8817
  251TIP3    H222317   6.395   2.339   0.103 -0.0773 -0.4921  1.1714
  252TIP3   OH222318   2.200   6.393   7.623 -0.4941 -0.3935 -0.0541
  252TIP3    H122319   2.274   6.419   7.568 -0.8903 -0.0195 -0.4166
  252TIP3    H222320   2.238   6.379   7.710 -0.1830  0.8885  0.0293
  253TIP3   OH222321   3.989   5.883   8.155  0.2475  0.1641  0.1328
  253TIP3    H122322   4.031   5.965   8.130  1.1689 -0.2011  0.4371
  253TIP3    H222323   3.903   5.909   8.188 -0.0840  0.8614 -1.1987
  254TIP3   OH222324   2.676   1.797   7.914  0.1219  0.1883 -0.0129
  254TIP3    H122325   2.610   1.752   7.861 -0.4012  0.4020  0.4575
  254TIP3    H222326   2.634   1.814   7.997  1.1529 -0.7163  0.7282
  255TIP3   OH222327   1.863   1.932   1.160  0.0200  0.4826 -0.5151
  255TIP3    H122328   1.783   1.982   1.175  1.6741  2.4431  2.9452
  255TIP3    H222329   1.891   1.904   1.247  3.1735 -0.0081 -1.5698
  256TIP3   OH222330   5.656   0.013   0.934  0.5796 -0.5601 -0.0568
  256TIP3    H122331   5.745  -0.020   0.943  0.4406 -1.0367 -0.3665
  256TIP3    H222332   5.626  -0.022   0.850  0.8778  1.4218 -1.0535
  257TIP3   OH222333   6.617   6.258   8.095  0.1633  0.2872 -0.0558
  257TIP3    H122334   6.574   6.175   8.115  0.5677 -0.0830 -0.7088
  257TIP3    H222335   6.702   6.233   8.059 -0.0249  0.9667 -0.9865
  258TIP3   OH222336   4.154   3.445   0.304  0.0561 -0.3054 -0.2558
  258TIP3    H122337   4.089   3.391   0.350  0.1226 -0.7681 -0.7040
  258TIP3    H222338   4.180   3.510   0.369  0.4330 -1.1877  0.4954
  259TIP3   OH222339   4.249   5.192   0.015  0.0076 -0.7323  0.7461
  259TIP3    H122340   4.215   5.281   0.023  3.1386  0.5677  0.9297
  259TIP3    H222341   4.214   5.147   0.093 -2.0062  0.1184  0.4060
  260TIP3   OH222342   4.100   3.066   1.489  1.0458  0.8906 -0.2060
  260TIP3    H122343   4.157   3.132   1.527  0.7987  0.6349  0.6209
  260TIP3    H222344   4.124   2.985   1.534  0.4845  0.6560 -0.3203
  261TIP3   OH222345   4.848   2.948   1.978 -0.1397 -0.0312  0.2023
  261TIP3    H122346   4.841   3.043   1.974 -1.5318 -0.0975  0.3647
  261TIP3    H222347   4.789   2.922   2.049 -1.2090 -1.1073 -0.9975
  262TIP3   OH222348   1.962   3.161   8.131 -0.2730 -0.2837 -0.0610
  262TIP3    H122349   1.902   3.094   8.098  1.1924 -0.7787 -1.8126
  262TIP3    H222350   1.975   3.221   8.058  2.1271 -0.7436 -0.0927
  263TIP3   OH222351   4.895   4.605   1.371  0.7026  0.3751  0.7278
  263TIP3    H122352   4.956   4.676   1.392 -0.5016  1.1015  1.9826
  263TIP3    H222353   4.815   4.650   1.344  0.1434 -0.5151  0.8684
  264TIP3   OH222354   0.414   0.740   0.956 -0.0829  0.3631  0.2768
  264TIP3    H122355   0.397   0.717   1.048 -1.1419 -2.4595 -0.4983
  264TIP3    H222356   0.454   0.661   0.919  1.0074  1.7012 -1.5525
  265TIP3   OH222357   2.007   0.509   0.915  0.4345 -0.5155  0.4174
  265TIP3    H122358   2.013   0.478   0.824  1.4461  1.2320 -0.1626
  265TIP3    H222359   1.916   0.534   0.926  0.8132  1.7790 -1.0568
  266TIP3   OH222360   5.935   0.587   0.316 -0.2137  0.0732  0.3699
  266TIP3    H122361   5.927   0.499   0.352  0.9036 -0.0202  0.4117
  266TIP3    H222362   5.886   0.583   0.234 -0.4594 -0.4840  0.5357
  267TIP3   OH222363   4.001   1.516   8.385  0.0677  0.3184 -0.5505
  267TIP3    H122364   4.042   1.599   8.410  0.3653  0.4319 -1.3671
  267TIP3    H222365   3.945   1.538   8.310  1.7562 -0.5395 -2.1594
  268TIP3   OH222366   2.311   5.261   6.716 -0.2811 -0.6506  0.5018
  268TIP3    H122367   2.343   5.314   6.789  2.6569 -0.0347 -1.0909
  268TIP3    H222368   2.271   5.324   6.656 -1.0283 -0.9175  0.7014
  269TIP3   OH222369   1.469   2.243   6.203 -0.3022 -0.1327 -0.1622
  269TIP3    H122370   1.455   2.150   6.220  0.8391 -0.3942 -0.5040
  269TIP3    H222371   1.564   2.255   6.213 -0.5873  1.2729  1.1368
  270TIP3   OH222372   3.246   0.632   6.842  0.0283 -0.2166 -0.0851
  270TIP3    H122373   3.163   0.611   6.800 -0.9477  1.8848  0.6419
  270TIP3    H222374   3.253   0.727   6.836  2.0607 -0.2692  0.4923
  271TIP3   OH222375   3.581   5.087   0.839 -0.2080  0.0116 -0.2431
  271TIP3    H122376   3.517   5.016   0.848 -0.9215  0.6073 -0.5453
  271TIP3    H222377   3.663   5.050   0.873 -0.9206 -0.4590  1.0284
  272TIP3   OH222378   3.062   1.386   0.771  0.1907  0.1780 -0.8125
  272TIP3    H122379   3.008   1.354   0.698  1.9071  1.2846 -2.6846
  272TIP3    H222380   3.088   1.306   0.817 -2.1362 -0.4470 -0.4413
  273TIP3   OH222381   0.282   6.033   1.122 -0.0236 -0.2159  0.6216
  273TIP3    H122382   0.295   5.944   1.088 -1.8746 -0.5922  0.7563
  273TIP3    H222383   0.271   6.087   1.044 -0.1746 -0.3430  0.5535
  274TIP3   OH222384   6.281   2.169   1.036 -0.1166 -0.4454 -0.6911
  274TIP3    H122385   6.375   2.149   1.037 -0.2638 -1.2815 -1.5998
  274TIP3    H222386   6.240   2.092   1.075 -0.3946  0.1937  0.3056
  275TIP3   OH222387   3.423   1.787   8.161  0.1988  0.2379  0.2252
  275TIP3    H122388   3.405   1.695   8.178  0.0505  0.0810 -0.7303
  275TIP3    H222389   3.413   1.797   8.066  0.0632  1.2675  0.3331
  276TIP3   OH222390   2.911   6.296   0.783 -0.6011  0.5029 -0.3777
  276TIP3    H122391   2.975   6.340   0.840  0.3601  0.3159 -1.2866
  276TIP3    H222392   2.826   6.329   0.813 -0.1367  0.3118  1.2394
  277TIP3   OH222393   3.933   0.222   8.615 -0.5793 -0.3317  0.1847
  277TIP3    H122394   4.028   0.215   8.626 -0.4420  2.0206  1.0740
  277TIP3    H222395   3.897   0.182   8.694 -0.3209 -1.0873 -0.0785
  278TIP3   OH222396   4.636   2.281   0.565 -0.3087  0.3814  0.3052
  278TIP3    H122397   4.715   2.256   0.517 -0.3642 -0.7442  0.7615
  278TIP3    H222398   4.565   2.268   0.502 -0.1945  0.7662  0.0958
  279TIP3   OH222399   5.982   3.822   1.275 -0.2709  0.1297 -0.0756
  279TIP3    H122400   6.076   3.816   1.256  0.0299  1.0668  0.9920
  279TIP3    H222401   5.973   3.779   1.360 -1.0475 -1.1084 -0.7516
  280TIP3   OH222402   1.810   2.422   8.054  0.7661 -0.9731  0.6757
  280TIP3    H122403   1.774   2.349   8.105  0.5570 -0.1823  1.7140
  280TIP3    H222404   1.834   2.487   8.120 -1.2579  0.8941 -0.2909
  281TIP3   OH222405   4.225   2.812   8.061  0.5071 -0.0254  0.3627
  281TIP3    H122406   4.246   2.722   8.036 -0.2260  0.1833 -1.0827
  281TIP3    H222407   4.302   2.863   8.033  0.7304 -0.1265  0.7789
  282TIP3   OH222408   5.436   3.478   6.888 -0.2990 -0.1192  0.5068
  282TIP3    H122409   5.532   3.476   6.879 -0.4420 -1.6447 -1.2108
  282TIP3    H222410   5.407   3.533   6.815 -0.7141  1.7623  1.9912
  283TIP3   OH222411   3.156   5.346   1.220  0.0754  0.4387 -0.4249
  283TIP3    H122412   3.099   5.297   1.279  0.6856  2.2167  1.7762
  283TIP3    H222413   3.195   5.279   1.164  1.5515 -1.8599  2.9790
  284TIP3   OH222414   5.565   1.550   6.257 -0.2449  0.4575  0.1444
  284TIP3    H122415   5.479   1.550   6.216  0.2812 -0.0695 -0.9956
  284TIP3    H222416   5.606   1.632   6.227  0.5185 -0.4009 -1.2466
  285TIP3   OH222417   1.090   6.797   0.367  0.2825  0.2226  0.0602
  285TIP3    H122418   1.056   6.712   0.395 -1.0008 -0.3590 -2.9003
  285TIP3    H222419   1.179   6.779   0.337 -0.0563 -0.1302 -0.7447
  286TIP3   OH222420   3.251   6.669   8.442  0.3268 -0.1482  0.4044
  286TIP3    H122421   3.284   6.579   8.433  1.0540  0.0804  0.6884
  286TIP3    H222422   3.324   6.724   8.414 -0.7452  0.3317 -1.5846
  287TIP3   OH222423   2.358   3.913   8.057  0.0791 -0.1131 -0.0555
  287TIP3    H122424   2.416   3.932   8.131  0.5974 -1.1155 -0.1877
  287TIP3    H222425   2.368   3.818   8.043 -2.3257 -0.5092  0.5455
  288TIP3   OH222426   1.331   1.894   2.283  0.0118  0.2192  0.3531
  288TIP3    H122427   1.277   1.973   2.279  0.2480  0.5875  2.7154
  288TIP3    H222428   1.271   1.822   2.267 -0.8701  0.7285  1.2532
  289TIP3   OH222429   2.250   1.656   6.934  0.2011 -0.1070  0.0063
  289TIP3    H122430   2.247   1.743   6.975 -1.2818 -0.2374  0.2143
  289TIP3    H222431   2.223   1.596   7.003 -2.9557 -0.2706 -1.2083
  290TIP3   OH222432   0.829   2.444   0.072  0.1092  0.2367  0.1914
  290TIP3    H122433   0.841   2.464  -0.021 -2.1543 -0.7599 -0.3836
  290TIP3    H222434   0.844   2.528   0.116 -0.0270  1.0273 -1.2025
  291TIP3   OH222435   0.034   2.890   8.600  0.3273  0.1348  0.2667
  291TIP3    H122436  -0.022   2.837   8.543  2.2684 -2.1564  0.2828
  291TIP3    H222437   0.008   2.865   8.689  0.2381  0.3162  0.2891
  292TIP3   OH222438   5.369   1.997   0.771  0.3226  0.8522  0.0500
  292TIP3    H122439   5.370   1.925   0.834  0.7479  1.2244  0.4796
  292TIP3    H222440   5.461   2.025   0.766  0.0828  1.6945  0.2784
  293TIP3   OH222441   1.634   1.911   6.653  0.5318  0.2082 -0.3715
  293TIP3    H122442   1.643   1.991   6.601  0.7745  0.2112 -0.3264
  293TIP3    H222443   1.724   1.882   6.668  0.4749  0.3824  0.3151
  294TIP3   OH222444   1.235   0.156   1.920  0.5698 -0.4522  0.1434
  294TIP3    H122445   1.145   0.140   1.949 -0.2349 -2.6357 -3.0032
  294TIP3    H222446   1.282   0.181   2.000 -2.3695 -1.1991  2.2765
  295TIP3   OH222447   4.452   1.959   0.463 -0.1301  0.3186  0.0071
  295TIP3    H122448   4.490   1.985   0.379  0.5073  2.6798  0.9489
  295TIP3    H222449   4.515   1.897   0.499  0.8572  1.1513 -0.2229
  296TIP3   OH222450   1.865   6.581   1.728  0.0552  0.5365  0.3782
  296TIP3    H122451   1.861   6.668   1.687  0.4305  0.0833 -0.6483
  296TIP3    H222452   1.893   6.598   1.817  0.0459  1.4827  0.2106
  297TIP3   OH222453   1.104   0.387   0.903  0.1263  0.0632 -0.3094
  297TIP3    H122454   1.121   0.318   0.967 -2.7262  0.7634  1.3854
  297TIP3    H222455   1.147   0.465   0.939  1.0758 -0.1788 -0.8652
  298TIP3   OH222456   5.366   5.369   6.981  0.3159  0.0359 -0.0726
  298TIP3    H122457   5.414   5.311   6.922  1.3164  0.6600  0.1011
  298TIP3    H222458   5.347   5.447   6.928  1.7059  0.8343  0.5425
  299TIP3   OH222459   4.339   0.569   7.168  0.2996  0.3002 -0.5610
  299TIP3    H122460   4.321   0.544   7.259  1.7145 -0.1715 -0.3741
  299TIP3    H222461   4.335   0.665   7.168 -0.4514  0.2731 -0.1769
  300TIP3   OH222462   6.052   6.668   7.314  0.0312  0.3151 -0.4388
  300TIP3    H122463   6.041   6.592   7.256 -0.9518 -0.2235  0.4254
  300TIP3    H222464   6.106   6.637   7.386 -0.2283  0.4831 -0.1680
  301TIP3   OH222465   0.710   1.148   8.420 -0.0762 -0.1200 -0.3220
  301TIP3    H122466   0.763   1.217   8.459 -0.5332  0.6509 -1.0376
  301TIP3    H222467   0.624   1.156   8.463  0.0137 -0.5781 -0.0442
  302TIP3   OH222468   2.978   0.056   8.146  0.2887 -0.3726 -0.6129
  302TIP3    H122469   3.073   0.071   8.149  0.4642 -1.5025  1.5785
  302TIP3    H222470   2.966  -0.024   8.197 -2.0335  0.7325  0.7019
  303TIP3   OH222471   1.275   0.200   2.362  0.1854  0.2039  0.1654
  303TIP3    H122472   1.284   0.294   2.378  1.1453  0.2142 -0.3165
  303TIP3    H222473   1.188   0.178   2.394  0.4294  1.0055  1.4759
  304TIP3   OH222474   1.960   6.305   7.475  0.3429 -0.8885 -0.3391
  304TIP3    H122475   1.968   6.210   7.476  0.9358 -0.9121  2.2658
  304TIP3    H222476   2.030   6.335   7.534  0.6011  1.2136 -1.6169
  305TIP3   OH222477   3.467   0.041   1.815  0.4042  0.5381 -0.0479
  305TIP3    H122478   3.413  -0.024   1.858  1.3042 -1.2696 -1.4994
  305TIP3    H222479   3.405   0.095   1.766 -0.2168 -0.4554 -0.3785
  306TIP3   OH222480   3.628   5.083   1.846  0.3583 -0.5129  0.7349
  306TIP3    H122481   3.568   5.128   1.906 -0.3258  0.0968 -0.3713
  306TIP3    H222482   3.592   4.995   1.838  0.1847 -0.4516  0.8404
  307TIP3   OH222483   0.002   0.226   8.046 -0.8222 -0.4307 -0.1071
  307TIP3    H122484  -0.088   0.199   8.032 -0.2914 -2.1049 -0.4727
  307TIP3    H222485   0.054   0.149   8.026  0.6471  0.2130  1.0141
  308TIP3   OH222486   6.103   0.744   0.779 -0.1503  0.5021 -0.2953
  308TIP3    H122487   6.132   0.694   0.702 -1.4161 -1.0479  0.1789
  308TIP3    H222488   6.180   0.749   0.835  0.5802  0.9956 -1.3002
  309TIP3   OH222489   0.718   4.482   7.447  0.4896 -0.2209  0.6895
  309TIP3    H122490   0.654   4.553   7.459  0.7911  0.1450  0.1976
  309TIP3    H222491   0.699   4.447   7.360  1.5108  0.4788  0.1636
  310TIP3   OH222492   3.947   1.811   7.632  0.4190  0.4729 -0.4121
  310TIP3    H122493   3.952   1.869   7.708 -0.9418 -0.9880  0.8623
  310TIP3    H222494   4.018   1.749   7.646  0.0772  0.1172 -0.2433
  311TIP3   OH222495   4.749   3.154   1.071 -0.1358 -0.0480 -0.1615
  311TIP3    H122496   4.715   3.083   1.017  0.1493  0.0062 -0.4167
  311TIP3    H222497   4.814   3.111   1.129  0.6681  0.1374 -0.9059
  312TIP3   OH222498   1.011   2.298   8.589  0.0524 -0.2729 -0.2718
  312TIP3    H122499   1.002   2.237   8.662 -0.9625  1.8486  1.4828
  312TIP3    H222500   0.922   2.311   8.557  0.2307  0.3858 -0.5223
  313TIP3   OH222501   6.245   2.418   0.889 -0.2724  0.5067 -0.0433
  313TIP3    H122502   6.335   2.399   0.915  0.0287  2.1491  0.2162
  313TIP3    H222503   6.191   2.379   0.958  0.1544 -1.3464 -0.7026
  314TIP3   OH222504   2.862   0.645   0.362  0.3684  0.4409  0.0509
  314TIP3    H122505   2.773   0.625   0.389  0.2568  0.8028 -0.0405
  314TIP3    H222506   2.857   0.734   0.328  0.9980  0.9232  1.1739
  315TIP3   OH222507   3.817   4.137   7.772 -0.0868 -0.2569  0.2604
  315TIP3    H122508   3.758   4.203   7.810  0.2615 -1.3822  3.0019
  315TIP3    H222509   3.758   4.069   7.740 -0.5040  1.5834 -3.3963
  316TIP3   OH222510   0.393   0.530   6.642 -0.0235 -0.6818  0.3433
  316TIP3    H122511   0.392   0.436   6.659 -1.9710 -0.6726  0.4607
  316TIP3    H222512   0.334   0.567   6.707 -1.1860  0.3226 -1.2210
  317TIP3   OH222513   4.233   0.965   7.473 -0.0421  0.1495  0.0612
  317TIP3    H122514   4.206   1.038   7.529 -0.1725  0.9250 -0.9827
  317TIP3    H222515   4.176   0.971   7.396 -0.1733 -1.1698  0.0268
  318TIP3   OH222516   0.244   2.476   1.540 -0.1187  0.2540 -0.4112
  318TIP3    H122517   0.259   2.553   1.594 -1.0192  0.8465 -0.9771
  318TIP3    H222518   0.311   2.481   1.472 -0.3304  0.6658 -0.5882
  319TIP3   OH222519   5.186   2.867   0.364 -0.3834 -0.5993  0.4227
  319TIP3    H122520   5.148   2.779   0.369  0.6261 -0.9961  4.2226
  319TIP3    H222521   5.130   2.919   0.422  0.4394  0.6616  0.1006
  320TIP3   OH222522   4.770   4.128   8.635 -0.2830  0.1312  0.2577
  320TIP3    H122523   4.715   4.049   8.627  1.9529 -1.4995  0.0114
  320TIP3    H222524   4.762   4.153   8.727  0.2883 -1.4511  0.7761
  321TIP3   OH222525   1.359   5.745   8.663 -0.2694 -0.6643 -0.9411
  321TIP3    H122526   1.291   5.783   8.606  0.1527 -0.1805 -1.1266
  321TIP3    H222527   1.343   5.651   8.658  0.9987 -0.8451 -3.5277
  322TIP3   OH222528   0.840   5.885   8.088 -0.0066 -0.3699  0.0405
  322TIP3    H122529   0.748   5.909   8.094  0.1207  0.7738 -1.7425
  322TIP3    H222530   0.852   5.817   8.155 -2.4017 -1.3614 -0.4236
  323TIP3   OH222531   2.603   0.089   0.294  0.1978 -0.1007  0.2189
  323TIP3    H122532   2.528   0.147   0.305 -0.0105 -0.5763  1.3776
  323TIP3    H222533   2.576   0.029   0.225 -1.7583 -2.1844  2.6105
  324TIP3   OH222534   4.943   0.256   0.710  0.3124 -0.7744 -0.5763
  324TIP3    H122535   4.880   0.185   0.720 -0.3310 -0.1064  0.3351
  324TIP3    H222536   4.976   0.270   0.799  0.6375 -0.1251 -0.7964
  325TIP3   OH222537   0.331   6.058   7.870 -0.4086 -0.0817 -0.4538
  325TIP3    H122538   0.270   6.056   7.944  0.4767  0.0951  0.3036
  325TIP3    H222539   0.306   5.982   7.817 -1.0908 -0.1815 -0.0096
  326TIP3   OH222540   0.535   5.809   1.226  0.3742  0.3215 -0.6104
  326TIP3    H122541   0.499   5.769   1.146 -0.6020 -1.4082  0.6192
  326TIP3    H222542   0.601   5.746   1.256  0.5238  0.8131  0.1165
  327TIP3   OH222543   0.724   1.998   8.480 -0.1704  0.2258 -0.1325
  327TIP3    H122544   0.737   2.093   8.484  1.9892  0.1196 -2.3809
  327TIP3    H222545   0.686   1.983   8.393 -1.9345 -0.8938  0.7791
  328TIP3   OH222546   5.080   4.207   0.661 -0.1563 -0.3657 -0.7937
  328TIP3    H122547   5.068   4.302   0.665 -2.0213 -0.6048  0.8661
  328TIP3    H222548   4.994   4.173   0.638 -0.0708 -1.7597  0.7875
  329TIP3   OH222549   1.348   4.279   8.588  0.1519 -0.0844 -0.6643
  329TIP3    H122550   1.400   4.252   8.664 -0.2337 -2.0373 -1.0491
  329TIP3    H222551   1.413   4.303   8.522  0.4917  1.8954  0.3173
  330TIP3   OH222552   6.191   4.368   2.215 -0.3794  0.1926  0.2510
  330TIP3    H122553   6.286   4.371   2.203 -0.4271 -0.9629 -0.6951
  330TIP3    H222554   6.177   4.396   2.305  0.7915  1.0742  0.1842
  331TIP3   OH222555   2.884   5.105   1.015 -0.3569  0.0014  0.1412
  331TIP3    H122556   2.950   5.039   0.993 -2.3453 -2.1742  0.3333
  331TIP3    H222557   2.852   5.136   0.930 -0.1720 -0.0780  0.0433
  332TIP3   OH222558   3.443   4.427   6.267  0.5979 -0.1302 -0.3905
  332TIP3    H122559   3.431   4.383   6.351 -1.8393  3.0477  1.1567
  332TIP3    H222560   3.377   4.387   6.210  1.3705 -1.4084 -0.4120
  333TIP3   OH222561   4.503   6.299   1.588 -0.2685  0.5535  0.2257
  333TIP3    H122562   4.556   6.378   1.597 -0.9446  1.2657 -1.5458
  333TIP3    H222563   4.566   6.229   1.568  0.0652  1.4331 -2.1256
  334TIP3   OH222564   5.931   5.116   2.288  0.3073 -0.0837 -0.7234
  334TIP3    H122565   5.971   5.056   2.352 -0.0803  1.9168  1.5330
  334TIP3    H222566   6.004   5.170   2.257  0.1288  0.5648 -0.0536
  335TIP3   OH222567   3.143   3.097   6.818  0.7493  0.4669 -0.2393
  335TIP3    H122568   3.157   3.040   6.742 -1.0260  0.5163 -0.6468
  335TIP3    H222569   3.108   3.178   6.781  1.4875  1.1441  0.5038
  336TIP3   OH222570   4.128   2.773   7.110 -0.2567  0.3423 -0.8232
  336TIP3    H122571   4.145   2.793   7.018  0.4401  0.4974 -0.6647
  336TIP3    H222572   4.207   2.728   7.140 -0.6544 -0.0886 -0.4108
  337TIP3   OH222573   4.373   4.431   0.097  0.2822 -0.0572  0.3649
  337TIP3    H122574   4.314   4.358   0.085  1.3291 -0.7371 -0.9075
  337TIP3    H222575   4.328   4.489   0.158 -1.6442 -0.5723 -0.5100
  338TIP3   OH222576   6.282   2.344   7.009 -0.4047 -0.5266  0.1373
  338TIP3    H122577   6.199   2.326   7.052 -1.1894  1.6531 -0.3395
  338TIP3    H222578   6.269   2.316   6.918 -0.8579  0.3787 -0.0862
  339TIP3   OH222579   4.361   4.843   0.053 -0.0956  0.4557 -0.4956
  339TIP3    H122580   4.280   4.858   0.004  0.1276  2.3946 -0.3828
  339TIP3    H222581   4.426   4.821  -0.013 -0.5674 -0.5067 -0.6533
  340TIP3   OH222582   6.630   1.531   1.993  0.2577 -0.0581  0.3605
  340TIP3    H122583   6.613   1.439   1.974  0.6613 -0.2312  0.8376
  340TIP3    H222584   6.714   1.549   1.952  0.4627 -0.0601  0.7775
  341TIP3   OH222585   2.005   2.017   7.554  0.1342  0.4239 -0.2682
  341TIP3    H122586   1.934   1.957   7.530  0.0082  0.4748 -0.0354
  341TIP3    H222587   1.987   2.096   7.503 -0.0506  0.4812 -0.1195
  342TIP3   OH222588   1.645   1.844   8.203  0.1481 -0.4848 -0.6979
  342TIP3    H122589   1.670   1.935   8.187 -1.0527 -0.4742 -2.9026
  342TIP3    H222590   1.693   1.819   8.283 -0.3164  2.3606  0.5657
  343TIP3   OH222591   2.254   0.154   8.815 -0.3505  0.2078 -0.7521
  343TIP3    H122592   2.283   0.243   8.794  1.1303 -0.0157  0.1277
  343TIP3    H222593   2.241   0.112   8.730  0.7705  0.7250 -1.2085
  344TIP3   OH222594   6.275   4.978   8.077 -0.4288 -0.2703  0.4756
  344TIP3    H122595   6.369   4.966   8.090 -0.5717  0.1659  2.2587
  344TIP3    H222596   6.250   5.043   8.144 -1.5470  1.5901 -1.6135
  345TIP3   OH222597   5.743   1.571   8.569 -0.0199 -0.1328  0.5615
  345TIP3    H122598   5.752   1.481   8.539  0.5638  0.5475 -1.4488
  345TIP3    H222599   5.819   1.585   8.627  0.5282 -0.6018 -0.0330
  346TIP3   OH222600   5.032   3.001   2.707 -0.4162 -0.2453  0.7301
  346TIP3    H122601   4.943   3.031   2.692  0.0022  0.5983 -0.1564
  346TIP3    H222602   5.086   3.059   2.654  0.5197 -1.9416 -0.2507
  347TIP3   OH222603   5.760   6.314   8.585 -0.4475  0.1670 -0.0944
  347TIP3    H122604   5.747   6.384   8.522  0.4590 -0.3601 -0.8934
  347TIP3    H222605   5.774   6.358   8.668 -0.4928  0.9082 -0.4729
  348TIP3   OH222606   6.154   2.073   8.784 -0.4127 -0.2313  0.1502
  348TIP3    H122607   6.163   2.048   8.692 -0.0296  0.3615  0.0260
  348TIP3    H222608   6.070   2.034   8.811 -1.1803  0.6890 -0.8132
  349TIP3   OH222609   5.240   1.338   1.811  1.0145 -0.2525 -0.3230
  349TIP3    H122610   5.267   1.384   1.732 -4.4619 -1.2151 -3.2506
  349TIP3    H222611   5.216   1.408   1.872 -2.6557  1.1233 -2.9467
  350TIP3   OH222612   3.491   5.036   0.215 -0.3799  0.0553 -0.5553
  350TIP3    H122613   3.463   4.986   0.138 -1.6844  0.2372 -0.2265
  350TIP3    H222614   3.447   4.993   0.289 -0.7766  1.1082 -0.1586
  351TIP3   OH222615   1.179   4.486   1.400  0.2965 -0.0267 -0.1349
  351TIP3    H122616   1.205   4.532   1.320 -0.0566 -0.5649 -0.5640
  351TIP3    H222617   1.180   4.554   1.468  1.2491  0.2974 -0.4573
  352TIP3   OH222618   0.730   4.542   8.722  0.3150  0.2607  0.1501
  352TIP3    H122619   0.772   4.487   8.657  0.2388  1.4158 -0.9044
  352TIP3    H222620   0.802   4.576   8.775  0.4816  0.2521 -0.0697
  353TIP3   OH222621   4.387   1.481   8.179 -0.1327  0.2389 -0.1537
  353TIP3    H122622   4.453   1.412   8.172 -1.4966 -1.3486  1.2877
  353TIP3    H222623   4.430   1.551   8.227  0.7863 -0.3837 -0.0477
  354TIP3   OH222624   0.488   0.708   6.468  0.5296 -0.9453  0.2757
  354TIP3    H122625   0.433   0.636   6.498 -2.6807  1.6694  1.2221
  354TIP3    H222626   0.534   0.737   6.546 -1.9031  0.9475  1.1293
  355TIP3   OH222627   3.546   6.221   7.204  0.5096  0.2618 -0.3595
  355TIP3    H122628   3.515   6.136   7.173 -0.1828 -0.0682  1.1878
  355TIP3    H222629   3.499   6.285   7.149 -0.0870 -0.3154 -0.5313
  356TIP3   OH222630   4.872   0.005   0.223  0.5336  0.3269  0.5301
  356TIP3    H122631   4.820   0.081   0.250  0.8637  1.7958 -2.5260
  356TIP3    H222632   4.834  -0.022   0.140  2.0471 -1.2648  0.2873
  357TIP3   OH222633   2.215   0.955   7.689 -0.1615 -1.2752  0.8335
  357TIP3    H122634   2.184   0.969   7.779 -2.3136 -0.7681  0.0595
  357TIP3    H222635   2.145   0.990   7.634  1.8878  0.1105 -1.0624
  358TIP3   OH222636   2.556   1.363   0.397  0.4334 -0.3293 -0.0051
  358TIP3    H122637   2.578   1.378   0.305 -1.4936  0.7694 -0.3542
  358TIP3    H222638   2.625   1.407   0.447  0.2162  1.1535 -0.9721
  359TIP3   OH222639   5.392   3.854   7.223  0.7634 -0.0078  0.1237
  359TIP3    H122640   5.466   3.797   7.243  0.1057 -1.3766 -1.2008
  359TIP3    H222641   5.328   3.797   7.180 -0.5601  1.4071  0.1225
  360TIP3   OH222642   1.172   1.998   1.997  0.2971 -0.1890 -0.2475
  360TIP3    H122643   1.120   2.021   2.075  0.3313  1.3945 -0.6517
  360TIP3    H222644   1.154   1.905   1.983 -1.2510 -0.0477  0.5228
  361TIP3   OH222645   6.814   6.060   0.820  0.2353  0.5409  0.2519
  361TIP3    H122646   6.798   6.089   0.910 -0.5832 -0.3255  0.3947
  361TIP3    H222647   6.735   6.085   0.773 -0.2232 -0.8854  0.2394
  362TIP3   OH222648   6.757   3.036   0.981 -0.4482  0.5613  0.4429
  362TIP3    H122649   6.733   2.978   0.908  3.2997 -0.4573 -0.2078
  362TIP3    H222650   6.709   3.001   1.056 -0.5031 -1.6549 -0.5308
  363TIP3   OH222651   3.340   4.815   1.121 -0.0308 -0.2296  0.6752
  363TIP3    H122652   3.346   4.910   1.134 -2.0237  0.0952 -0.2658
  363TIP3    H222653   3.337   4.804   1.026  2.7314 -1.5069  0.6668
  364TIP3   OH222654   5.840   2.261   8.641  0.3000 -0.1957 -0.4327
  364TIP3    H122655   5.778   2.228   8.706 -2.0917  1.5659 -1.6693
  364TIP3    H222656   5.850   2.189   8.579 -0.2329 -0.6376 -0.0145
  365TIP3   OH222657   6.679   2.028   7.212 -0.3625  0.4085 -0.4861
  365TIP3    H122658   6.719   2.104   7.255  0.3386  1.3184 -2.6332
  365TIP3    H222659   6.623   2.065   7.144 -1.5273 -0.9865 -0.3507
  366TIP3   OH222660   0.428   4.463   1.980  0.8355 -0.7512 -0.2840
  366TIP3    H122661   0.367   4.413   2.034 -0.0977  0.0623 -0.5597
  366TIP3    H222662   0.503   4.480   2.038  0.2768 -0.7279  0.4459
  367TIP3   OH222663   5.619   4.193   8.401 -0.2695 -0.3456 -0.1699
  367TIP3    H122664   5.570   4.144   8.467  0.8028  0.2729  1.1441
  367TIP3    H222665   5.707   4.155   8.405  0.9964  2.4804  1.8842
  368TIP3   OH222666   0.688   3.028   1.043 -0.0844 -0.5281 -0.4903
  368TIP3    H122667   0.609   2.977   1.027 -1.0570  1.3027 -1.9522
  368TIP3    H222668   0.760   2.974   1.010 -0.8831 -1.6125 -0.4823
  369TIP3   OH222669   2.694   4.116   7.946  0.2355 -0.1387 -0.5049
  369TIP3    H122670   2.763   4.179   7.968  0.5099 -0.5094 -0.2857
  369TIP3    H222671   2.620   4.170   7.919 -0.0230  0.3467  1.0574
  370TIP3   OH222672   6.766   3.642   6.377 -0.5397  0.2226 -0.1839
  370TIP3    H122673   6.776   3.553   6.411 -1.1691  0.0993 -0.3090
  370TIP3    H222674   6.708   3.633   6.301  0.3651  0.5813 -0.9353
  371TIP3   OH222675   6.802   4.443   7.171  0.9289 -0.1202  0.4576
  371TIP3    H122676   6.756   4.440   7.087  0.5991 -0.9890  0.6532
  371TIP3    H222677   6.774   4.363   7.216 -0.7539  1.4701  2.4022
  372TIP3   OH222678   0.464   5.846   7.742 -0.1747 -0.1561 -0.0054
  372TIP3    H122679   0.517   5.861   7.663 -0.6440 -0.7617 -0.4471
  372TIP3    H222680   0.509   5.776   7.788  0.7011  0.9358  0.8345
  373TIP3   OH222681   6.651   3.531   7.649  0.0711  0.2234  0.1391
  373TIP3    H122682   6.648   3.436   7.639  2.7555  0.2200 -1.6393
  373TIP3    H222683   6.566   3.554   7.687 -1.5874 -2.6330 -1.4625
  374TIP3   OH222684   0.676   0.560   0.403 -0.4634 -0.0828 -0.7387
  374TIP3    H122685   0.707   0.491   0.462 -0.9386 -0.4422 -0.9038
  374TIP3    H222686   0.728   0.637   0.427 -1.5698  0.1545  1.0601
  375TIP3   OH222687   4.685   6.480   7.169  0.2007 -0.3125  0.3989
  375TIP3    H122688   4.774   6.464   7.137  0.2093 -0.1975  0.3646
  375TIP3    H222689   4.695   6.557   7.226  0.2703 -0.7907  1.0406
  376TIP3   OH222690   2.341   4.476   7.537 -0.5503  0.2326  0.0198
  376TIP3    H122691   2.399   4.548   7.560 -1.7661  1.1674  0.2685
  376TIP3    H222692   2.318   4.435   7.621 -0.0647 -0.2987 -0.0989
  377TIP3   OH222693   5.037   4.441   6.049  0.3257  0.2090 -0.3432
  377TIP3    H122694   5.072   4.459   5.962  0.7731 -0.8062 -0.3864
  377TIP3    H222695   5.070   4.512   6.104  1.4541 -0.0684 -0.6501
  378TIP3   OH222696   6.811   1.837   7.706 -0.0782 -0.2376  0.0612
  378TIP3    H122697   6.873   1.840   7.633 -0.9043  1.3628 -0.6078
  378TIP3    H222698   6.757   1.760   7.688  0.2394 -0.3145 -0.5754
  379TIP3   OH222699   0.380   2.238   2.520  0.1503 -0.1796 -0.4627
  379TIP3    H122700   0.385   2.142   2.519  0.0302 -0.1860 -0.4885
  379TIP3    H222701   0.298   2.257   2.566  0.6180 -0.0746  0.3520
  380TIP3   OH222702   3.692   0.044   7.092  0.1234  0.0340 -0.2313
  380TIP3    H122703   3.722   0.132   7.069 -0.1219 -0.1532 -1.3428
  380TIP3    H222704   3.764  -0.013   7.065  0.3549 -0.0988  0.6510
  381TIP3   OH222705   1.729   2.841   0.073  0.1649  0.0810 -0.6959
  381TIP3    H122706   1.818   2.812   0.054 -0.0465 -1.2803  0.2754
  381TIP3    H222707   1.680   2.760   0.086 -0.6807  0.8499  1.1364
  382TIP3   OH222708   6.194   0.807   8.474  0.5305  0.5855  0.3851
  382TIP3    H122709   6.194   0.896   8.509  0.3616  1.1177 -0.9013
  382TIP3    H222710   6.280   0.773   8.498  1.1452  1.6018 -0.2736
  383TIP3   OH222711   5.330   0.115   7.237 -0.0351  0.8029 -0.3295
  383TIP3    H122712   5.333   0.114   7.141 -0.6097  1.4488 -0.3600
  383TIP3    H222713   5.355   0.026   7.263 -0.2213  0.5257 -1.0854
  384TIP3   OH222714   3.091   4.394   8.795  0.4198 -0.5676  0.8912
  384TIP3    H122715   3.058   4.474   8.836 -1.3614 -1.7289  1.8465
  384TIP3    H222716   3.098   4.331   8.867  1.8672 -1.2648  0.1802
  385TIP3   OH222717   1.898   2.609   1.461 -0.2928 -0.0446  0.2490
  385TIP3    H122718   1.978   2.565   1.488 -0.0756  0.1469 -0.0797
  385TIP3    H222719   1.917   2.643   1.373 -0.0874  1.6371  0.9198
  386TIP3   OH222720   3.005   0.828   1.945 -0.7148 -0.1825 -0.1795
  386TIP3    H122721   2.949   0.899   1.913 -1.6116 -0.2380  1.1820
  386TIP3    H222722   2.955   0.749   1.925 -0.1101 -0.3885 -0.9089
  387TIP3   OH222723   5.661   4.598   0.752 -0.7867 -0.3537 -0.1803
  387TIP3    H122724   5.655   4.580   0.658  1.3513 -0.7133 -0.2869
  387TIP3    H222725   5.753   4.582   0.774 -0.6809  2.0350  1.4885
  388TIP3   OH222726   6.603   6.579   7.912 -0.0319 -0.5334 -0.1072
  388TIP3    H122727   6.585   6.573   8.005 -1.3851  0.2149 -0.2888
  388TIP3    H222728   6.563   6.662   7.885 -1.4827 -1.6788 -1.7298
  389TIP3   OH222729   6.368   2.965   7.418 -0.5114  0.0397  0.7675
  389TIP3    H122730   6.350   3.048   7.374  0.0546  1.2105  2.6237
  389TIP3    H222731   6.411   2.911   7.351 -1.1481  1.1164 -0.5592
  390TIP3   OH222732   1.342   6.780   1.263 -0.1154 -0.2300  0.2945
  390TIP3    H122733   1.400   6.721   1.312 -2.3993 -1.3405  1.8364
  390TIP3    H222734   1.274   6.723   1.227  0.3823  0.8477 -2.6235
  391TIP3   OH222735   3.997   5.143   7.156 -0.0218 -0.3458 -0.4810
  391TIP3    H122736   4.006   5.097   7.072 -0.3783 -1.6419  0.1690
  391TIP3    H222737   4.033   5.083   7.221 -2.1000 -0.5016  0.6206
  392TIP3   OH222738   2.411   4.167   7.462 -0.1165 -0.0609 -0.0070
  392TIP3    H122739   2.353   4.242   7.473 -0.1006  0.0732 -0.7602
  392TIP3    H222740   2.399   4.142   7.370 -1.2404 -1.8916  0.5777
  393TIP3   OH222741   5.796   3.881   1.082  0.4628  0.6935 -0.3797
  393TIP3    H122742   5.848   3.856   1.159  0.2713  0.0101 -0.4741
  393TIP3    H222743   5.720   3.927   1.119  0.3144  0.2681 -0.1560
  394TIP3   OH222744   0.878   2.188   2.056 -0.2499 -0.1451 -0.4784
  394TIP3    H122745   0.859   2.162   2.146 -2.1675  1.6763 -0.2725
  394TIP3    H222746   0.850   2.114   2.002 -0.3054 -0.7233  0.3389
  395TIP3   OH222747   0.873   0.356   6.864 -0.2125 -0.0849  0.3893
  395TIP3    H122748   0.784   0.389   6.876 -0.0075  0.0735  1.5597
  395TIP3    H222749   0.903   0.399   6.784 -1.3636 -0.5601 -0.3287
  396TIP3   OH222750   6.258   0.147   0.342  0.1674 -0.2250  0.0125
  396TIP3    H122751   6.289   0.200   0.415 -0.3295  0.2707 -0.1289
  396TIP3    H222752   6.337   0.106   0.307  0.8030  1.5301 -0.7622
  397TIP3   OH222753   0.783   2.993   7.525  0.1702 -0.7079  0.5435
  397TIP3    H122754   0.797   2.935   7.600  1.5308 -1.7819 -0.4698
  397TIP3    H222755   0.870   3.001   7.485 -0.3812  0.4375 -0.5099
  398TIP3   OH222756   1.312   5.039   1.423 -0.0944  0.0274  0.1145
  398TIP3    H122757   1.295   4.948   1.448  0.0246  0.1540  0.6754
  398TIP3    H222758   1.365   5.033   1.343 -0.0964 -0.3949  0.1420
  399TIP3   OH222759   2.290   6.367   7.877  0.8401 -0.0952  0.2618
  399TIP3    H122760   2.365   6.424   7.897  2.1899 -1.2732 -1.0855
  399TIP3    H222761   2.310   6.285   7.921 -0.3126 -0.0346  0.9230
  400TIP3   OH222762   4.685   1.698   7.022  0.4071 -0.1313 -0.0451
  400TIP3    H122763   4.593   1.675   7.028  0.9537 -2.2155  1.6350
  400TIP3    H222764   4.687   1.793   7.022 -1.6780 -0.0516  1.1631
  401TIP3   OH222765   0.319   6.182   0.901 -0.4316 -0.3769  0.5349
  401TIP3    H122766   0.411   6.171   0.876 -0.6179  1.9066 -1.5619
  401TIP3    H222767   0.270   6.155   0.823 -1.3687  1.2664  0.5068
  402TIP3   OH222768   3.559   3.430   7.424  0.3870 -0.0194 -0.1287
  402TIP3    H122769   3.569   3.515   7.380  1.4423  0.6030  1.2395
  402TIP3    H222770   3.465   3.410   7.415  0.3478  0.6729 -1.5375
  403TIP3   OH222771   1.549   4.845   7.741 -0.0171  0.1593  0.3715
  403TIP3    H122772   1.515   4.759   7.716  3.0879 -1.7392  2.0693
  403TIP3    H222773   1.510   4.862   7.827 -1.5304  1.1009 -0.4504
  404TIP3   OH222774   3.251   3.696   0.924  0.4663 -0.4154  0.2777
  404TIP3    H122775   3.289   3.726   0.841  2.7238 -1.2487  0.9173
  404TIP3    H222776   3.194   3.767   0.952 -0.2532 -0.0626 -1.9038
  405TIP3   OH222777   4.441   4.579   7.217  0.1594  0.0362  0.0073
  405TIP3    H122778   4.389   4.656   7.194  0.0684  0.5562  1.8427
  405TIP3    H222779   4.530   4.601   7.188  0.0130  0.5545 -0.0607
  406TIP3   OH222780   4.892   5.235   1.799  0.5371 -0.2501  0.0133
  406TIP3    H122781   4.975   5.279   1.817  0.5324 -0.0010 -0.5584
  406TIP3    H222782   4.846   5.237   1.883  1.6274 -1.5513  0.6934
  407TIP3   OH222783   5.476   6.685   8.130  0.3167  0.2218 -0.8364
  407TIP3    H122784   5.552   6.681   8.072  1.8641  2.1951  0.8757
  407TIP3    H222785   5.425   6.760   8.098  0.3046  0.3012 -0.6338
  408TIP3   OH222786   2.077   3.749   0.285 -0.1111 -0.7421  0.2411
  408TIP3    H122787   1.989   3.777   0.311 -0.0333 -1.5784  1.5471
  408TIP3    H222788   2.135   3.811   0.330  0.0148 -1.9617  1.8581
  409TIP3   OH222789   5.340   4.409   8.451 -0.0187 -0.9659  0.4058
  409TIP3    H122790   5.425   4.439   8.419 -0.0109 -1.1017  0.2984
  409TIP3    H222791   5.292   4.490   8.471 -0.2634 -0.8499 -0.5909
  410TIP3   OH222792   6.286   0.626   2.110 -0.0048  0.0499 -0.0274
  410TIP3    H122793   6.277   0.598   2.201 -1.0432 -1.6732 -0.6251
  410TIP3    H222794   6.370   0.590   2.081  0.3239  0.5952  0.2181
  411TIP3   OH222795   4.658   1.057   8.434  0.9040  0.5974  0.7316
  411TIP3    H122796   4.629   0.991   8.371  1.3005 -0.7863  1.9327
  411TIP3    H222797   4.658   1.139   8.385 -0.5999 -0.1112 -0.5347
  412TIP3   OH222798   5.550   4.565   8.356 -0.5795  0.3308 -0.0226
  412TIP3    H122799   5.574   4.646   8.401 -0.7164 -0.8939  2.4486
  412TIP3    H222800   5.633   4.524   8.334 -0.3983 -0.3418  1.7144
  413TIP3   OH222801   4.800   3.847   8.794  0.3967 -0.3429 -0.7612
  413TIP3    H122802   4.773   3.915   8.857 -1.6602 -0.1770 -1.7266
  413TIP3    H222803   4.879   3.882   8.753  0.3251  0.6926 -0.0546
  414TIP3   OH222804   5.116   4.303   8.331 -0.0087  0.1665 -0.2886
  414TIP3    H122805   5.053   4.326   8.400 -0.1248 -0.3688 -0.2146
  414TIP3    H222806   5.200   4.336   8.363 -0.2624  0.9550 -0.4222
  415TIP3   OH222807   1.858   0.457   8.762 -0.1357  0.1243  0.2641
  415TIP3    H122808   1.918   0.383   8.758  0.2112  0.4421 -0.9753
  415TIP3    H222809   1.875   0.506   8.682 -0.4168  1.5080  1.0158
  416TIP3   OH222810   1.030   6.711   2.150  0.4877  0.7316 -0.3088
  416TIP3    H122811   1.074   6.679   2.071  0.8186  1.8232 -0.5803
  416TIP3    H222812   0.952   6.655   2.158  1.8453 -1.2090  0.1600
  417TIP3   OH222813   3.096   1.644   0.353 -0.4611 -0.3342  0.2469
  417TIP3    H122814   3.153   1.613   0.282  0.0786  1.0362  0.0431
  417TIP3    H222815   3.126   1.596   0.430  0.3208 -0.3732 -0.0633
  418TIP3   OH222816   3.059   0.405   0.309  0.1329  0.3752  0.0394
  418TIP3    H122817   2.985   0.461   0.335 -0.4581  0.4807 -1.7315
  418TIP3    H222818   3.046   0.390   0.215  1.4708 -0.9764  0.0302
  419TIP3   OH222819   0.126   5.220   7.184 -0.1973 -0.1470 -0.5369
  419TIP3    H122820   0.031   5.228   7.179 -0.4111 -2.5118 -1.9793
  419TIP3    H222821   0.159   5.283   7.121 -0.6269  2.0512  1.3010
  420TIP3   OH222822   3.739   6.013   0.309 -0.0741 -0.4260  0.2960
  420TIP3    H122823   3.771   5.994   0.398  3.7056 -0.9493 -1.0151
  420TIP3    H222824   3.729   5.927   0.269 -1.2943 -0.1667 -0.0146
  421TIP3   OH222825   3.373   2.528   6.956 -0.0334 -0.5733 -0.2767
  421TIP3    H122826   3.294   2.520   6.902 -0.4999  0.9619  0.1341
  421TIP3    H222827   3.392   2.622   6.958  0.7864 -0.7345  1.0916
  422TIP3   OH222828   5.042   6.177   1.019  0.4432  0.2903 -0.1022
  422TIP3    H122829   5.016   6.254   1.070 -0.7786 -0.7396  0.8883
  422TIP3    H222830   4.974   6.112   1.036  0.7507 -0.5889 -1.9606
  423TIP3   OH222831   1.534   3.655   8.533  0.3509 -0.4150  0.5046
  423TIP3    H122832   1.493   3.646   8.620 -0.3552  1.9686  0.4926
  423TIP3    H222833   1.461   3.680   8.476  0.8124 -1.9554 -0.8183
  424TIP3   OH222834   2.646   6.030   0.434  0.0970 -0.2249  0.5177
  424TIP3    H122835   2.641   6.116   0.393  0.0375 -0.3812  0.1916
  424TIP3    H222836   2.734   6.026   0.472  0.6914 -0.6267 -0.8409
  425TIP3   OH222837   3.028   0.650   8.479 -0.2849  0.6605 -0.3823
  425TIP3    H122838   3.052   0.739   8.450 -1.0421  0.9449 -0.1540
  425TIP3    H222839   2.947   0.631   8.433 -0.6356  0.4675  0.3068
  426TIP3   OH222840   4.949   3.935   1.589 -0.7743 -0.2769  0.9156
  426TIP3    H122841   4.977   3.850   1.555 -0.9422 -0.3398  0.9334
  426TIP3    H222842   4.964   3.928   1.684  1.0512  0.4104  0.7131
  427TIP3   OH222843   6.652   3.276   1.657 -0.4519  0.0569 -0.1408
  427TIP3    H122844   6.577   3.336   1.664 -1.0303 -0.7742  1.3486
  427TIP3    H222845   6.650   3.227   1.739  0.4646 -1.4620 -0.9892
  428TIP3   OH222846   0.132   4.305   1.559 -0.2466  0.1354  0.3856
  428TIP3    H122847   0.095   4.366   1.623  0.7786  0.8659  0.3151
  428TIP3    H222848   0.211   4.271   1.601  0.3918  0.5584 -0.4512
  429TIP3   OH222849   1.327   2.585   0.218  0.6124  0.0440 -0.5112
  429TIP3    H122850   1.279   2.659   0.180 -0.7185  0.5738  1.9538
  429TIP3    H222851   1.276   2.508   0.192  0.0700  0.3292 -0.3160
  430TIP3   OH222852   3.367   0.751   0.458 -0.0309 -0.1982  0.0686
  430TIP3    H122853   3.289   0.722   0.411  0.7083  0.3173 -1.5501
  430TIP3    H222854   3.439   0.703   0.416  0.6554  0.2454  0.7176
  431TIP3   OH222855   5.671   4.750   6.914 -0.4860 -0.8910  0.0233
  431TIP3    H122856   5.628   4.735   6.998 -1.4684 -1.0063 -0.4841
  431TIP3    H222857   5.700   4.841   6.917 -1.0728 -0.7105  0.2425
  432TIP3   OH222858   4.581   3.188   7.095 -0.1544  0.0210  0.4238
  432TIP3    H122859   4.658   3.218   7.046  1.2308 -0.5360  2.1820
  432TIP3    H222860   4.537   3.269   7.121 -0.6811  0.3373 -1.2850
  433TIP3   OH222861   6.786   5.023   1.790  0.4754 -0.4638  0.6299
  433TIP3    H122862   6.794   4.927   1.793  0.1245 -0.4761  1.2599
  433TIP3    H222863   6.773   5.049   1.881  3.1793  0.4417  0.8512
  434TIP3   OH222864   0.859   3.797   7.088 -0.1621 -0.1379 -0.0831
  434TIP3    H122865   0.770   3.828   7.076 -1.5076 -3.2494  0.6774
  434TIP3    H222866   0.912   3.852   7.031 -2.4597  2.1046 -0.2380
  435TIP3   OH222867   3.234   0.088   6.962 -0.0822 -0.2589  0.1690
  435TIP3    H122868   3.212   0.150   6.893  0.2030  0.5167  0.7485
  435TIP3    H222869   3.323   0.059   6.941 -0.4472 -0.9599 -0.4427
  436TIP3   OH222870   5.389   2.568   8.173 -0.0905  0.4693  0.3168
  436TIP3    H122871   5.420   2.590   8.085  0.8703  1.4674  0.8807
  436TIP3    H222872   5.326   2.638   8.194 -2.1401 -1.0363 -0.4523
  437TIP3   OH222873   2.818   1.557   1.398 -0.4499 -0.3068  0.2888
  437TIP3    H122874   2.759   1.541   1.472 -0.6439 -1.1025 -0.0160
  437TIP3    H222875   2.905   1.539   1.432 -0.2670  1.6162  0.9543
  438TIP3   OH222876   4.728   2.373   7.107  0.2653 -0.4094  0.0877
  438TIP3    H122877   4.798   2.369   7.041  0.7413 -2.3160  0.6419
  438TIP3    H222878   4.650   2.342   7.061 -0.2138  1.4732 -0.4586
  439TIP3   OH222879   5.979   4.014   0.011  0.1949  0.4759  0.0781
  439TIP3    H122880   5.953   4.003  -0.081  0.3744  0.6479  0.0075
  439TIP3    H222881   5.987   4.109   0.022  0.6335  0.4297  0.1467
  440TIP3   OH222882   1.251   1.878   7.470 -0.1797  0.1272 -0.0590
  440TIP3    H122883   1.199   1.808   7.429  0.5157 -0.3203 -0.1864
  440TIP3    H222884   1.186   1.941   7.499 -0.8502 -0.7050  0.3024
  441TIP3   OH222885   6.564   5.984   8.106  0.6773 -0.0935 -0.7152
  441TIP3    H122886   6.609   5.944   8.179  1.0702 -0.1302 -0.9735
  441TIP3    H222887   6.543   5.912   8.047  0.6202 -0.0282 -0.7756
  442TIP3   OH222888   1.550   5.021   7.526  0.1099 -0.1954 -0.0754
  442TIP3    H122889   1.539   4.968   7.604 -1.8867  2.3686  1.5541
  442TIP3    H222890   1.642   5.045   7.525  0.2380 -0.5577  1.3340
  443TIP3   OH222891   4.480   2.907   2.468 -0.0114  0.6264 -0.3562
  443TIP3    H122892   4.410   2.848   2.497  1.0942  0.6554  2.7600
  443TIP3    H222893   4.451   2.994   2.495  0.4941  0.8435 -0.5022
  444TIP3   OH222894   6.731   0.198   1.288 -0.2568 -0.0991 -0.3794
  444TIP3    H122895   6.638   0.180   1.275 -0.5916  2.0296 -1.2705
  444TIP3    H222896   6.754   0.257   1.217  1.5800  0.0813  0.3208
  445TIP3   OH222897   4.751   2.074   0.255  0.0422  0.3688  0.5165
  445TIP3    H122898   4.688   2.004   0.238  1.1596 -0.7323  0.7630
  445TIP3    H222899   4.732   2.140   0.188 -0.4752 -0.5652 -0.2863
  446TIP3   OH222900   0.482   4.486   0.571 -0.5405  0.1049 -0.0306
  446TIP3    H122901   0.489   4.456   0.661 -0.0515  1.1836  0.3040
  446TIP3    H222902   0.397   4.454   0.541 -0.0013 -1.7386  0.2345
  447TIP3   OH222903   6.197   6.043   0.890 -0.2267 -0.3756  0.3459
  447TIP3    H122904   6.135   6.084   0.951  1.3163  0.7700  1.2193
  447TIP3    H222905   6.224   6.115   0.833 -0.5109 -1.1083 -0.7321
  448TIP3   OH222906   3.484   0.553   0.805  0.0631  0.3384  0.3559
  448TIP3    H122907   3.554   0.555   0.740  0.5020 -1.6352  0.7153
  448TIP3    H222908   3.494   0.469   0.849 -0.4705  1.4182  2.7239
  449TIP3   OH222909   3.414   1.860   2.064 -0.7592  0.0631 -0.3368
  449TIP3    H122910   3.363   1.825   1.991  0.0482 -1.4238 -0.2341
  449TIP3    H222911   3.378   1.947   2.080 -2.1017 -0.2777 -1.3727
  450TIP3   OH222912   0.484   3.908   2.307 -0.0520 -0.2082 -0.5340
  450TIP3    H122913   0.457   3.952   2.388  2.5604 -1.0678  0.9090
  450TIP3    H222914   0.450   3.965   2.237 -3.5504 -0.1252  1.0241
  451TIP3   OH222915   6.776   3.450   8.385  0.2050  0.1904  0.9884
  451TIP3    H122916   6.822   3.532   8.402 -1.1353  1.2426 -0.2165
  451TIP3    H222917   6.690   3.462   8.426  0.3392 -1.0530  1.6946
  452TIP3   OH222918   1.505   2.307   1.303 -0.2606  0.7593  0.8193
  452TIP3    H122919   1.472   2.253   1.231  1.5752 -0.3923  0.7880
  452TIP3    H222920   1.440   2.378   1.311 -1.4151 -0.0464 -0.7936
  453TIP3   OH222921   4.147   2.611   2.201 -0.3823 -0.3395 -0.1869
  453TIP3    H122922   4.119   2.694   2.161 -0.0598 -1.0306 -1.9182
  453TIP3    H222923   4.094   2.545   2.158  1.9210 -1.4053 -1.5843
  454TIP3   OH222924   2.105   5.903   1.411 -0.2796 -0.1480 -0.7063
  454TIP3    H122925   2.031   5.877   1.467 -0.5141  2.6241  0.4167
  454TIP3    H222926   2.145   5.820   1.385 -1.8023 -1.6382  1.3504
  455TIP3   OH222927   2.359   1.165   0.356  0.3194 -0.2307  0.2546
  455TIP3    H122928   2.423   1.237   0.352  0.2082 -0.1325  0.2142
  455TIP3    H222929   2.408   1.091   0.390  0.3621 -0.0545  0.5761
  456TIP3   OH222930   1.124   6.158   0.976 -0.0095 -0.4026  0.5565
  456TIP3    H122931   1.118   6.075   0.929  0.1165 -1.3417  2.1170
  456TIP3    H222932   1.212   6.190   0.958 -0.3536 -0.1254 -0.7679
  457TIP3   OH222933   6.636   1.524   0.494 -0.0468  0.5752  0.3560
  457TIP3    H122934   6.645   1.615   0.525  1.4524  0.4618  0.3519
  457TIP3    H222935   6.726   1.494   0.484 -0.5247 -1.2348  1.2365
  458TIP3   OH222936   3.924   0.706   1.480 -0.2907  0.1021 -0.1408
  458TIP3    H122937   3.897   0.732   1.392  0.0840 -1.1144 -0.6437
  458TIP3    H222938   3.852   0.732   1.537 -1.1945 -0.4138 -1.0320
  459TIP3   OH222939   2.290   4.723   1.693  0.2638  0.2360  0.5216
  459TIP3    H122940   2.357   4.664   1.659  0.1250 -0.8023  1.9643
  459TIP3    H222941   2.207   4.679   1.673  0.0234  1.2316 -0.7358
  460TIP3   OH222942   0.544   1.982   0.840  0.1696  0.2097 -0.3180
  460TIP3    H122943   0.508   2.005   0.926  0.1926 -1.4111  0.1713
  460TIP3    H222944   0.619   1.926   0.860  0.0211 -0.4017 -1.3907
  461TIP3   OH222945   1.964   1.612   7.519  0.4196  0.1828 -0.0839
  461TIP3    H122946   1.874   1.640   7.538  0.2653  0.8997 -1.7376
  461TIP3    H222947   2.005   1.603   7.605 -1.0419  0.4922  0.6696
  462TIP3   OH222948   3.890   5.830   7.855  0.8224  0.3194  0.0915
  462TIP3    H122949   3.909   5.750   7.905  0.1869  1.2627  1.9151
  462TIP3    H222950   3.967   5.885   7.868  0.4532  0.7597  0.4423
  463TIP3   OH222951   4.660   5.000   8.572 -0.0403 -0.2563 -0.2562
  463TIP3    H122952   4.577   5.045   8.591 -0.0452  0.4127 -1.7203
  463TIP3    H222953   4.727   5.055   8.611 -0.2076 -0.3288  0.1480
  464TIP3   OH222954   2.594   3.168   0.768  0.1018 -0.4883  0.2587
  464TIP3    H122955   2.572   3.243   0.713  1.2385  0.7206  1.4156
  464TIP3    H222956   2.540   3.097   0.732 -1.5680  1.0202 -0.4058
  465TIP3   OH222957   1.074   4.152   8.710 -0.4295  0.3475 -0.1019
  465TIP3    H122958   1.004   4.088   8.699 -2.8488  2.5727  1.2297
  465TIP3    H222959   1.080   4.196   8.625 -0.3246 -0.1347 -0.3478
  466TIP3   OH222960   2.807   5.483   1.387 -0.5737 -0.5713  0.0694
  466TIP3    H122961   2.792   5.440   1.302 -0.6406 -0.9856  0.2857
  466TIP3    H222962   2.875   5.548   1.369  1.0886 -2.1774  0.1389
  467TIP3   OH222963   2.927   2.425   8.059  0.1360  0.6175  0.0144
  467TIP3    H122964   2.948   2.336   8.032  1.4068  0.1609  2.2219
  467TIP3    H222965   2.887   2.415   8.145 -0.7336  2.1426 -0.1700
  468TIP3   OH222966   3.610   0.498   8.331 -0.0602 -0.0060  0.2798
  468TIP3    H122967   3.602   0.592   8.343 -0.4145 -0.0822  0.6497
  468TIP3    H222968   3.600   0.485   8.237  0.5333  0.3762  0.1568
  469TIP3   OH222969   5.541   5.903   1.608 -0.7167 -0.3265 -1.0782
  469TIP3    H122970   5.624   5.912   1.560 -1.0520 -0.9090 -1.7841
  469TIP3    H222971   5.476   5.885   1.540 -1.7027  1.5120 -0.7074
  470TIP3   OH222972   5.403   2.928   6.775  0.4707 -0.2120 -0.3063
  470TIP3    H122973   5.374   2.973   6.696 -1.1185 -1.0963 -0.2622
  470TIP3    H222974   5.439   2.845   6.743 -2.3176 -1.6549 -0.0645
  471TIP3   OH222975   2.998   5.660   2.057  0.4432  0.1174 -0.2164
  471TIP3    H122976   2.934   5.600   2.020 -0.7591  1.2659 -0.0821
  471TIP3    H222977   3.065   5.604   2.095 -0.3702 -1.1165 -0.5567
  472TIP3   OH222978   5.401   5.717   1.777 -0.0035 -0.4469  0.0560
  472TIP3    H122979   5.484   5.735   1.731  1.0666 -0.8755  1.7363
  472TIP3    H222980   5.422   5.643   1.834 -1.5407 -0.4817  0.5996
  473TIP3   OH222981   1.165   2.387   0.551 -0.3920  0.6427 -0.5568
  473TIP3    H122982   1.212   2.341   0.482  0.2472 -0.3552  0.5072
  473TIP3    H222983   1.231   2.442   0.593 -0.0187 -1.0462  1.1861
  474TIP3   OH222984   0.665   3.462   0.530  0.1817 -0.1525 -0.1384
  474TIP3    H122985   0.620   3.444   0.613  0.1489 -1.4178 -0.4038
  474TIP3    H222986   0.605   3.428   0.463  0.5575  0.1549 -0.6330
  475TIP3   OH222987   1.341   3.365   8.502  0.0723  0.7838 -0.1486
  475TIP3    H122988   1.383   3.348   8.587 -2.3074  0.7990  1.1055
  475TIP3    H222989   1.269   3.424   8.523 -0.4700  0.9342 -2.2464
  476TIP3   OH222990   2.375   1.670   7.353 -0.4589 -0.1757  0.8561
  476TIP3    H122991   2.412   1.732   7.290 -0.4171 -1.2281 -0.1790
  476TIP3    H222992   2.448   1.646   7.409 -0.2728  0.0175  0.6987
  477TIP3   OH222993   6.030   5.265   0.082  0.7721  0.3555 -0.5888
  477TIP3    H122994   6.124   5.253   0.070  0.6243  0.1773 -1.6796
  477TIP3    H222995   6.008   5.340   0.026  0.4524  1.1380  0.5508
  478TIP3   OH222996   2.161   5.592   1.825 -0.1216  0.7416 -0.5673
  478TIP3    H122997   2.184   5.607   1.917 -2.4713  0.0379  0.1969
  478TIP3    H222998   2.221   5.523   1.796 -0.1542  0.1017  0.8188
  479TIP3   OH222999   2.650   5.813   2.078 -0.0330  0.3328 -0.3598
  479TIP3    H123000   2.557   5.836   2.082 -0.0759  0.2564 -0.8779
  479TIP3    H223001   2.667   5.769   2.162 -0.4300  0.4630 -0.2069
  480TIP3   OH223002   0.191   5.493   0.329  0.0414 -0.2569  0.0038
  480TIP3    H123003   0.265   5.526   0.379 -0.2564 -0.9778  0.9584
  480TIP3    H223004   0.225   5.417   0.282  0.2105  0.1539 -0.5426
  481TIP3   OH223005   2.572   4.432   0.248 -0.2702 -0.6175  0.4630
  481TIP3    H123006   2.650   4.434   0.303  0.9640 -0.2891 -1.2404
  481TIP3    H223007   2.596   4.480   0.169 -1.5273 -2.1810 -0.9628
  482TIP3   OH223008   0.032   4.603   8.739 -0.4535  0.1364 -0.0925
  482TIP3    H123009   0.030   4.617   8.834 -0.5863 -1.2404  0.1267
  482TIP3    H223010  -0.019   4.676   8.703 -2.0896 -0.3794  1.0487
  483TIP3   OH223011   5.514   2.518   1.691  0.0870 -0.2886  0.2428
  483TIP3    H123012   5.477   2.490   1.775 -0.7778 -3.1779 -0.9478
  483TIP3    H223013   5.446   2.573   1.652  0.0046  0.1218  0.9467
  484TIP3   OH223014   6.665   2.524   8.450 -0.0710 -0.2302 -0.8665
  484TIP3    H123015   6.681   2.592   8.386  0.3303 -0.8434 -1.4279
  484TIP3    H223016   6.741   2.465   8.443  1.2599  0.9469  1.8452
  485TIP3   OH223017   4.079   0.395   0.307  0.5573 -0.2754 -0.3413
  485TIP3    H123018   4.097   0.302   0.291  1.2610 -0.3696  0.8160
  485TIP3    H223019   4.118   0.412   0.393 -0.6720  0.7878  0.0398
  486TIP3   OH223020   5.171   1.645   7.980 -0.0971 -0.0518  0.4293
  486TIP3    H123021   5.171   1.599   8.064 -0.4370 -0.9857 -0.0764
  486TIP3    H223022   5.125   1.727   7.998 -0.2735 -0.2987  1.1292
  487TIP3   OH223023   3.817   3.716   7.387 -0.0615 -0.2770  0.4194
  487TIP3    H123024   3.821   3.635   7.438 -1.5229  0.3405  1.6002
  487TIP3    H223025   3.897   3.763   7.412  0.5834 -1.1535  0.0505
  488TIP3   OH223026   1.604   3.067   1.448  0.3297 -0.3322 -1.1238
  488TIP3    H123027   1.530   3.016   1.414 -0.6377  0.4529 -0.2320
  488TIP3    H223028   1.680   3.032   1.400 -0.1247 -3.2892  0.0859
  489TIP3   OH223029   4.686   4.584   7.087 -0.0450 -0.0095  0.1403
  489TIP3    H123030   4.781   4.586   7.090 -0.0339  0.8333 -0.5372
  489TIP3    H223031   4.665   4.498   7.051  0.5644  0.7865 -2.2956
  490TIP3   OH223032   6.109   1.788   8.488  0.1713  0.1612 -0.1224
  490TIP3    H123033   6.123   1.717   8.550  4.5601 -0.1017 -1.1356
  490TIP3    H223034   6.084   1.745   8.406 -0.8524  0.1462  0.1819
  491TIP3   OH223035   6.385   0.927   7.337 -0.1811 -1.0139  0.4239
  491TIP3    H123036   6.386   0.902   7.430  0.4526 -0.0478  0.6931
  491TIP3    H223037   6.294   0.950   7.320 -0.2709 -1.0358  0.8471
  492TIP3   OH223038   5.227   5.793   7.006 -0.6744  0.4851 -0.0700
  492TIP3    H123039   5.225   5.856   6.933  1.0381  1.6345  0.7979
  492TIP3    H223040   5.291   5.727   6.978 -0.0174  0.9263  0.3685
  493TIP3   OH223041   1.660   3.145   8.238  0.5806  0.1906 -0.0106
  493TIP3    H123042   1.636   3.207   8.307 -0.9689 -0.1669 -0.1927
  493TIP3    H223043   1.733   3.096   8.276  0.7054  0.9619  0.8041
  494TIP3   OH223044   0.388   1.219   2.124 -0.1900  0.3320 -0.3754
  494TIP3    H123045   0.374   1.125   2.109 -1.8304  0.1444  1.8064
  494TIP3    H223046   0.351   1.261   2.046 -1.6951 -0.7758 -0.3144
  495TIP3   OH223047   1.686   2.016   7.693 -0.3264  0.3345  0.7263
  495TIP3    H123048   1.684   2.111   7.700  0.1596  0.3120  1.3123
  495TIP3    H223049   1.724   1.987   7.776 -0.4314 -0.3686  0.5365
  496TIP3   OH223050   2.739   2.045   7.809 -0.1199  0.4344 -0.3669
  496TIP3    H123051   2.660   2.059   7.863  1.0027 -0.3551  1.5982
  496TIP3    H223052   2.763   1.954   7.826  2.2685  1.1767  0.5828
  497TIP3   OH223053   6.011   1.955   7.180  0.2863  0.5460  0.0755
  497TIP3    H123054   6.094   1.999   7.195  0.3919  1.8393 -3.3921
  497TIP3    H223055   6.018   1.919   7.091 -2.1866 -0.9604  0.3767
  498TIP3   OH223056   2.930   6.236   1.648 -0.1195  0.0446 -0.6481
  498TIP3    H123057   2.898   6.226   1.558 -0.7042  0.2528 -0.4640
  498TIP3    H223058   3.017   6.195   1.646 -0.2796 -0.2903 -1.2149
  499TIP3   OH223059   1.547   4.438   8.413  0.0042  0.1064  0.3943
  499TIP3    H123060   1.547   4.505   8.481 -0.8030  1.2310 -0.6734
  499TIP3    H223061   1.595   4.476   8.340 -3.1247  0.9226 -1.4446
  500TIP3   OH223062   0.566   0.881   7.877 -0.1787 -0.3052  0.2144
  500TIP3    H123063   0.647   0.831   7.887  0.9844  1.5121  0.3008
  500TIP3    H223064   0.552   0.922   7.962 -0.3663  0.5802 -0.2302
  501TIP3   OH223065   2.273   4.367   0.504 -0.6588 -0.0541  0.0236
  501TIP3    H123066   2.299   4.437   0.563 -0.2806  0.0835 -0.3016
  501TIP3    H223067   2.224   4.305   0.559 -0.3986  0.1239  0.4523
  502TIP3   OH223068   3.569   5.937   7.134 -0.6796  0.4527  0.3361
  502TIP3    H123069   3.621   5.884   7.074  0.8153  0.4916  1.5404
  502TIP3    H223070   3.484   5.893   7.137 -0.1116 -0.7309 -0.2043
  503TIP3   OH223071   2.648   1.748   7.573  0.4073 -0.3615  0.2035
  503TIP3    H123072   2.615   1.791   7.652  1.3154 -0.2007  0.5100
  503TIP3    H223073   2.706   1.813   7.533 -1.9479  0.5676 -2.0051
  504TIP3   OH223074   6.217   2.747   1.179  0.7921  0.2921  0.3192
  504TIP3    H123075   6.126   2.728   1.203  0.0240  1.3892 -1.4968
  504TIP3    H223076   6.225   2.716   1.089  2.0517  0.7310  0.2559
  505TIP3   OH223077   6.059   2.254   0.179  0.0454 -0.6416 -0.4779
  505TIP3    H123078   6.149   2.281   0.161 -0.1396  0.0193 -0.4608
  505TIP3    H223079   6.057   2.161   0.160  0.8457 -0.7524 -0.0655
  506TIP3   OH223080   6.617   0.625   6.706  0.4521  0.1881  0.1318
  506TIP3    H123081   6.541   0.567   6.714 -0.0113  0.7512 -0.1028
  506TIP3    H223082   6.586   0.709   6.741  0.8613  0.5156 -0.2906
  507TIP3   OH223083   3.837   4.607   0.534  0.2410 -0.5456 -0.0778
  507TIP3    H123084   3.821   4.560   0.452 -0.7188 -0.0741 -0.1739
  507TIP3    H223085   3.825   4.700   0.511  0.4989 -0.3743  0.4748
  508TIP3   OH223086   1.395   2.732   0.469  0.0741  0.4904 -0.2615
  508TIP3    H123087   1.377   2.688   0.387 -2.7548  1.5528 -0.3485
  508TIP3    H223088   1.461   2.798   0.447 -1.9847  2.0572 -2.2546
  509TIP3   OH223089   0.558   2.721   7.931  0.5606 -0.0249 -0.4598
  509TIP3    H123090   0.498   2.679   7.992  1.4722 -1.2299 -0.3526
  509TIP3    H223091   0.531   2.813   7.929 -0.6371 -0.3466  0.3351
  510TIP3   OH223092   3.991   3.319   0.512  0.4058  0.3113  0.2555
  510TIP3    H123093   4.000   3.228   0.539  0.6703  0.1651 -0.3121
  510TIP3    H223094   4.050   3.367   0.570  0.6157  0.0589  0.2561
  511TIP3   OH223095   0.733   5.539   0.741  0.0194 -0.1473  0.0493
  511TIP3    H123096   0.782   5.621   0.752 -0.2360  0.1543 -0.9295
  511TIP3    H223097   0.649   5.556   0.784 -0.2306  0.3028 -0.5963
  512TIP3   OH223098   6.440   2.376   8.247 -0.2629 -0.4950  0.8485
  512TIP3    H123099   6.522   2.335   8.271 -0.9100 -1.7540  0.9802
  512TIP3    H223100   6.465   2.459   8.207  1.0242 -0.5213  1.5744
  513TIP3   OH223101   0.492   2.829   1.021 -0.0105 -0.1915  0.5965
  513TIP3    H123102   0.498   2.767   1.094 -1.2094 -0.2613  0.6561
  513TIP3    H223103   0.398   2.835   1.002  0.2190  0.4332 -0.4230
  514TIP3   OH223104   6.457   4.478   2.026 -0.0708  0.0763 -0.2017
  514TIP3    H123105   6.439   4.571   2.010 -0.5012  0.0869  0.2988
  514TIP3    H223106   6.403   4.432   1.963  1.4381  0.1801 -1.6341
  515TIP3   OH223107   0.583   6.241   1.689  0.4080  0.3741  0.4541
  515TIP3    H123108   0.494   6.226   1.659  0.0372  4.3614 -0.9881
  515TIP3    H223109   0.638   6.217   1.614  0.2492  1.0512  0.1131
  516TIP3   OH223110   3.120   2.004   8.425  0.1886 -0.0262  0.2728
  516TIP3    H123111   3.092   1.939   8.361 -1.3310  0.9785 -0.1506
  516TIP3    H223112   3.069   1.986   8.503  1.0381 -0.3972  0.7594
  517TIP3   OH223113   3.102   5.123   0.107 -0.1846  0.2034  0.2907
  517TIP3    H123114   3.118   5.129   0.202 -0.3698 -3.1614  0.6487
  517TIP3    H223115   3.185   5.149   0.067  1.5463 -2.7353  1.6301
  518TIP3   OH223116   5.797   0.185   7.900 -0.1186  0.2786 -0.3874
  518TIP3    H123117   5.713   0.230   7.898 -0.7050 -0.7430  0.3067
  518TIP3    H223118   5.855   0.240   7.848 -1.2847  0.8540 -1.1144
  519TIP3   OH223119   0.286   0.633   0.606 -0.5268  0.3378  1.0066
  519TIP3    H123120   0.322   0.671   0.526 -1.3067 -0.9995 -0.0110
  519TIP3    H223121   0.363   0.618   0.662  0.0982  0.6944  0.2604
  520TIP3   OH223122   4.140   4.313   1.741 -0.0618 -0.0563  0.2386
  520TIP3    H123123   4.173   4.224   1.728 -2.0686 -0.9043  0.5987
  520TIP3    H223124   4.084   4.307   1.819 -1.8811  0.9981 -0.9102
  521TIP3   OH223125   1.188   5.316   0.308  0.1521 -0.0782 -0.4376
  521TIP3    H123126   1.189   5.286   0.398  2.1873  0.5750 -0.1934
  521TIP3    H223127   1.096   5.313   0.282 -0.7682  1.5819  2.2657
  522TIP3   OH223128   5.987   6.209   6.942 -0.1457  0.8243 -0.1937
  522TIP3    H123129   6.064   6.169   6.902 -0.2797 -1.7627  1.8841
  522TIP3    H223130   5.919   6.200   6.876  0.1811 -1.2946 -0.3060
  523TIP3   OH223131   2.507   2.092   7.112 -0.5755  0.0509  0.8171
  523TIP3    H123132   2.575   2.156   7.134  0.3852 -0.0833 -1.4960
  523TIP3    H223133   2.427   2.144   7.106 -0.0498  0.8221  0.2464
  524TIP3   OH223134   3.442   3.922   8.665 -0.0708  0.4879  0.6954
  524TIP3    H123135   3.408   3.838   8.696 -0.2655  1.2006  2.5448
  524TIP3    H223136   3.378   3.987   8.695  0.7684  1.4240  0.5160
  525TIP3   OH223137   3.444   5.324   0.350 -0.6236  0.1462 -0.0508
  525TIP3    H123138   3.467   5.260   0.282 -1.9570 -1.0800  0.6114
  525TIP3    H223139   3.456   5.277   0.432  1.0178  1.6319  0.6378
  526TIP3   OH223140   3.690   4.262   7.411  0.6312  0.3216  0.0547
  526TIP3    H123141   3.642   4.205   7.471 -0.6384  0.7770 -0.4994
  526TIP3    H223142   3.780   4.263   7.445  1.0013 -2.8591 -0.5201
  527TIP3   OH223143   6.056   0.002   8.557  0.4433 -0.8843 -0.0479
  527TIP3    H123144   6.102   0.032   8.478  2.4852 -0.5987  1.2027
  527TIP3    H223145   6.012   0.080   8.590 -0.8657 -1.1161 -1.1367
  528TIP3   OH223146   5.888   6.647   1.091  0.8091  0.0728  0.2650
  528TIP3    H123147   5.946   6.721   1.103 -0.4905  0.8967  1.8149
  528TIP3    H223148   5.943   6.579   1.051  2.2861  1.4787 -0.1767
  529TIP3   OH223149   0.575   0.341   0.589  0.1032 -0.5944 -0.0080
  529TIP3    H123150   0.570   0.375   0.678  0.3249 -1.4698  0.3450
  529TIP3    H223151   0.633   0.265   0.595 -1.5303 -1.9423 -0.4729
  530TIP3   OH223152   5.438   3.608   0.571  0.0232  0.2708  0.2280
  530TIP3    H123153   5.352   3.569   0.554  0.4971 -0.3156 -0.9213
  530TIP3    H223154   5.500   3.546   0.533  1.0814 -0.1859  2.5359
  531TIP3   OH223155   4.354   5.271   1.564 -0.1516  0.1490 -0.1520
  531TIP3    H123156   4.375   5.187   1.606 -0.4922 -1.7164 -3.3089
  531TIP3    H223157   4.438   5.315   1.554  0.6385 -1.5696 -1.6698
  532TIP3   OH223158   5.012   1.604   0.122  0.0189  0.2553 -0.6235
  532TIP3    H123159   5.036   1.602   0.030 -1.5373  1.2779 -1.1036
  532TIP3    H223160   5.072   1.667   0.161  2.3886 -2.0406 -0.3249
  533TIP3   OH223161   4.591   6.564   7.963  0.1615 -0.5031  0.1935
  533TIP3    H123162   4.517   6.568   7.902  1.1533 -2.5709 -1.2772
  533TIP3    H223163   4.555   6.527   8.043 -1.0202  1.5850  0.7006
  534TIP3   OH223164   1.096   2.045   1.565  0.0192  0.4507  0.0398
  534TIP3    H123165   1.100   2.114   1.632  0.7843  1.1470 -0.7086
  534TIP3    H223166   1.124   2.087   1.485 -2.7270  0.1423 -1.2000
  535TIP3   OH223167   3.793   2.439   7.136  0.9763  0.5744  0.5007
  535TIP3    H123168   3.741   2.407   7.063  0.8153  1.7845  0.0640
  535TIP3    H223169   3.728   2.467   7.201  1.1088  0.6577  0.5975
  536TIP3   OH223170   2.880   4.739   7.269  0.3126  0.2946 -0.1350
  536TIP3    H123171   2.937   4.683   7.217  0.2219 -0.1030  0.1923
  536TIP3    H223172   2.925   4.823   7.271  1.3509 -0.2644  0.8820
  537TIP3   OH223173   5.836   1.741   0.656  0.0431 -0.5673 -0.2607
  537TIP3    H123174   5.905   1.792   0.698  0.3820  0.2529 -1.7416
  537TIP3    H223175   5.826   1.663   0.711  2.2742 -0.7933 -0.1126
  538TIP3   OH223176   1.892   2.697   0.750 -0.0327 -0.5098  0.3919
  538TIP3    H123177   1.961   2.651   0.703  2.0180  1.5087  1.2498
  538TIP3    H223178   1.850   2.753   0.684 -0.2990 -1.1094  0.0474
  539TIP3   OH223179   4.325   6.726   8.582  0.0693 -0.1078  0.1927
  539TIP3    H123180   4.232   6.735   8.603 -0.2631 -1.9060 -0.3624
  539TIP3    H223181   4.368   6.727   8.668 -0.7430 -1.9197  0.6756
  540TIP3   OH223182   5.353   3.759   1.425 -0.0353  0.5561  0.3072
  540TIP3    H123183   5.329   3.683   1.373 -0.6951 -0.2122  1.6811
  540TIP3    H223184   5.288   3.826   1.402 -0.0844  0.3546 -0.1381
  541TIP3   OH223185   4.516   4.502   1.827 -0.0541  0.7281 -0.4121
  541TIP3    H123186   4.498   4.585   1.871 -0.1461  0.8553 -0.6885
  541TIP3    H223187   4.611   4.502   1.815 -0.0592  0.8131 -0.4531
  542TIP3   OH223188   4.879   3.846   0.354  0.1813 -0.0184  0.1614
  542TIP3    H123189   4.896   3.787   0.428 -0.7759 -1.2880 -0.5824
  542TIP3    H223190   4.883   3.790   0.277 -3.5015  0.2198 -0.3805
  543TIP3   OH223191   2.145   2.320   7.881 -0.2995 -0.0727 -0.2059
  543TIP3    H123192   2.161   2.225   7.876  3.3392  0.3022  1.4375
  543TIP3    H223193   2.125   2.336   7.973 -0.0249  0.8588 -0.3015
  544TIP3   OH223194   2.849   6.738   6.561  0.3809 -0.5228 -0.0340
  544TIP3    H123195   2.849   6.833   6.566  0.9500 -0.5192 -0.1050
  544TIP3    H223196   2.766   6.716   6.517  0.0654 -0.0859  0.3407
  545TIP3   OH223197   3.906   0.774   7.080  0.2872 -0.7329 -0.5576
  545TIP3    H123198   3.992   0.765   7.122 -1.3137  0.4142  3.4141
  545TIP3    H223199   3.910   0.859   7.036  1.6330 -1.3957 -1.7995
  546TIP3   OH223200   4.773   4.603   0.391  0.6490  0.4968 -0.0611
  546TIP3    H123201   4.703   4.666   0.408 -1.1981 -0.6507 -2.7473
  546TIP3    H223202   4.740   4.520   0.425  1.9015  0.4247  1.0417
  547TIP3   OH223203   4.664   3.327   7.350 -0.6513 -0.4398  0.6143
  547TIP3    H123204   4.742   3.273   7.366 -0.3187  0.2766  1.4654
  547TIP3    H223205   4.689   3.383   7.276 -0.8419 -1.1227  0.0184
  548TIP3   OH223206   3.654   1.966   8.101 -0.6853  0.2603 -0.0165
  548TIP3    H123207   3.577   1.933   8.147 -0.9374  0.2365 -0.4586
  548TIP3    H223208   3.669   1.904   8.030 -0.2960  0.2991  0.0277
  549TIP3   OH223209   4.658   3.264   7.636  0.2475 -0.5561 -0.6285
  549TIP3    H123210   4.603   3.188   7.654 -0.5029  0.1582  0.1405
  549TIP3    H223211   4.648   3.279   7.542 -3.0623  1.1636 -0.1508
  550TIP3   OH223212   4.964   3.780   6.135  0.4708  0.5510  0.1231
  550TIP3    H123213   4.952   3.844   6.206  0.4893  1.1332 -0.3940
  550TIP3    H223214   4.994   3.701   6.180 -0.0015  0.7532  0.8257
  551TIP3   OH223215   4.886   0.386   8.108  0.1572  0.0389 -0.7346
  551TIP3    H123216   4.844   0.309   8.148  0.0065 -0.4086 -1.7243
  551TIP3    H223217   4.813   0.437   8.072  0.3708 -0.2085 -1.5363
  552TIP3   OH223218   4.021   3.606   1.933 -0.0614  1.0341  0.3583
  552TIP3    H123219   4.022   3.627   2.026 -1.1259 -0.7649  0.8296
  552TIP3    H223220   4.108   3.571   1.915 -0.0642  0.7808  0.8384
  553TIP3   OH223221   2.760   1.710   6.496  0.4210  0.3531  0.0896
  553TIP3    H123222   2.692   1.750   6.442  1.6591  1.3240 -0.8315
  553TIP3    H223223   2.787   1.779   6.557  1.7757  0.6084 -0.7412
  554TIP3   OH223224   2.114   2.731   7.565  0.2916 -0.2123  0.2150
  554TIP3    H123225   2.022   2.726   7.538  0.1660 -0.3249  0.6595
  554TIP3    H223226   2.127   2.654   7.621  1.0046 -0.9244 -0.8843
  555TIP3   OH223227   1.128   4.992   7.612  0.5411 -0.4551 -0.1327
  555TIP3    H123228   1.043   4.976   7.653  1.1122  0.7848  1.6837
  555TIP3    H223229   1.192   4.966   7.678  1.5664 -0.7164 -1.2000
  556TIP3   OH223230   6.162   1.758   7.646 -0.1777 -0.0399 -0.5136
  556TIP3    H123231   6.252   1.787   7.660  0.4985 -1.3754 -1.7849
  556TIP3    H223232   6.169   1.663   7.633 -1.8691 -0.2879  0.1313
  557TIP3   OH223233   3.128   4.760   7.564  0.1107  0.8562 -0.4586
  557TIP3    H123234   3.113   4.816   7.488 -0.5667  0.5928 -0.5219
  557TIP3    H223235   3.221   4.772   7.584  0.5672  0.1085 -1.9932
  558TIP3   OH223236   6.526   5.280   8.451  0.2161  0.5946  0.1024
  558TIP3    H123237   6.507   5.295   8.544  1.2864  0.4245  0.3626
  558TIP3    H223238   6.496   5.359   8.408 -1.5328  0.1420  0.3970
  559TIP3   OH223239   6.046   5.792   0.148  0.3171 -0.6773 -0.4559
  559TIP3    H123240   6.061   5.886   0.144  1.7425 -0.8372  0.5822
  559TIP3    H223241   5.965   5.783   0.199  0.5503 -0.0371  0.0448
  560TIP3   OH223242   1.332   2.050   0.697 -0.0306 -0.8779 -0.0424
  560TIP3    H123243   1.412   2.103   0.694 -0.3117 -0.4976 -0.9891
  560TIP3    H223244   1.267   2.108   0.738 -0.3457 -0.4484 -1.1035
  561TIP3   OH223245   6.216   4.938   0.041  0.4147  0.3825 -0.6164
  561TIP3    H123246   6.227   5.032   0.025 -0.2436  0.9478  1.7292
  561TIP3    H223247   6.251   4.925   0.130  1.5430 -1.8401 -1.3065
  562TIP3   OH223248   4.048   6.743   8.595 -0.6028 -0.0856 -0.2391
  562TIP3    H123249   3.989   6.736   8.519  0.4289 -0.0894 -1.0583
  562TIP3    H223250   3.990   6.762   8.668 -1.6077  0.1254 -1.0657
  563TIP3   OH223251   0.195   3.146   1.186  0.0491  0.2404 -0.4298
  563TIP3    H123252   0.149   3.196   1.254  0.6789  0.0193  0.1834
  563TIP3    H223253   0.129   3.087   1.150 -0.5986  1.1957 -0.8616
  564TIP3   OH223254   0.689   5.284   8.091  0.0475  0.3902  0.3997
  564TIP3    H123255   0.697   5.191   8.108 -1.1681  0.1547 -0.2047
  564TIP3    H223256   0.604   5.309   8.127 -0.1607  1.0036 -0.4510
  565TIP3   OH223257   4.229   0.777   0.204  0.0453  0.4774  0.7126
  565TIP3    H123258   4.234   0.873   0.207  0.0088  0.5641 -1.0756
  565TIP3    H223259   4.283   0.753   0.129  0.0922 -0.9239  1.1728
  566TIP3   OH223260   6.688   3.129   0.275 -0.7393  0.4110  0.0998
  566TIP3    H123261   6.742   3.193   0.322 -0.4354  0.9075 -0.8858
  566TIP3    H223262   6.750   3.061   0.247 -0.6287  0.8946 -0.8829
  567TIP3   OH223263   3.844   3.333   0.276 -0.2293  0.7732  0.0885
  567TIP3    H123264   3.866   3.280   0.199  1.0028  1.0412  0.2363
  567TIP3    H223265   3.880   3.283   0.350 -1.9463  0.1999  0.5903
  568TIP3   OH223266   6.736   0.686   8.198 -1.0990  0.0030  0.3437
  568TIP3    H123267   6.783   0.749   8.252  0.7146 -0.0500 -1.0613
  568TIP3    H223268   6.707   0.737   8.122 -0.6498 -0.5620 -0.2292
  569TIP3   OH223269   2.051   4.607   1.611  0.0489  0.4779  0.0329
  569TIP3    H123270   1.995   4.568   1.543  1.8987 -1.0722 -0.6805
  569TIP3    H223271   2.007   4.584   1.693  0.2926 -1.9440 -0.4341
  570TIP3   OH223272   5.475   4.187   1.451 -0.2314  0.1344 -0.5019
  570TIP3    H123273   5.523   4.223   1.526 -0.2988 -0.4336 -0.1805
  570TIP3    H223274   5.400   4.244   1.440 -0.8152 -0.4111  0.5587
  571TIP3   OH223275   6.141   3.786   1.950 -0.0441 -0.0885  0.2704
  571TIP3    H123276   6.215   3.844   1.971  2.0994 -2.8359  0.8786
  571TIP3    H223277   6.174   3.731   1.879 -0.7913 -2.5967  1.7633
  572TIP3   OH223278   4.420   2.509   1.686 -0.3081 -0.5013 -0.0818
  572TIP3    H123279   4.492   2.505   1.748 -1.2167 -1.1088  0.9652
  572TIP3    H223280   4.457   2.477   1.604  1.0050  0.6581  0.0165
  573TIP3   OH223281   3.317   3.364   1.364 -0.1776 -0.0627 -0.1265
  573TIP3    H123282   3.279   3.416   1.435 -1.5239 -1.1046 -0.0433
  573TIP3    H223283   3.279   3.401   1.284  0.3678  0.3075 -0.2187
  574TIP3   OH223284   4.522   4.090   0.523  0.0599 -0.3823  0.0807
  574TIP3    H123285   4.501   4.119   0.435 -1.2150 -0.2088  0.4174
  574TIP3    H223286   4.525   3.995   0.518 -1.1437 -0.4312  0.0682
  575TIP3   OH223287   0.149   5.923   8.066  0.4998 -0.4799  0.6774
  575TIP3    H123288   0.171   5.832   8.084  2.6360 -0.0189  0.6585
  575TIP3    H223289   0.144   5.965   8.152  0.9320 -0.3279  0.6312
  576TIP3   OH223290   5.350   0.542   8.588  0.0891 -0.7647  0.1817
  576TIP3    H123291   5.313   0.550   8.501  0.0373  1.6411  0.3435
  576TIP3    H223292   5.434   0.589   8.583 -1.3078  2.2560  2.0821
  577TIP3   OH223293   5.096   0.960   7.808 -0.3139  0.0288 -0.0051
  577TIP3    H123294   5.089   1.024   7.879 -0.4392 -0.5991  0.5572
  577TIP3    H223295   5.082   0.875   7.850 -0.9099 -0.3192 -0.8709
  578TIP3   OH223296   3.550   5.602   8.409 -0.5756 -0.5699  0.3723
  578TIP3    H123297   3.522   5.511   8.415 -0.4448 -0.5864  0.8087
  578TIP3    H223298   3.599   5.608   8.327 -0.4984 -0.9142  0.3951
  579TIP3   OH223299   4.318   3.845   7.444 -0.0230  0.4883 -0.5280
  579TIP3    H123300   4.400   3.853   7.395  0.2740  0.0910 -0.1073
  579TIP3    H223301   4.281   3.761   7.414 -0.1268  0.5240 -0.4994
  580TIP3   OH223302   1.547   3.090   2.409  0.0559  0.3900 -0.9194
  580TIP3    H123303   1.621   3.150   2.421  1.1736 -1.0222 -0.4797
  580TIP3    H223304   1.505   3.086   2.495 -1.2037  1.9516 -1.3959
  581TIP3   OH223305   6.492   2.222   8.793  0.0681  0.5713  0.8396
  581TIP3    H123306   6.445   2.253   8.716 -0.7216  3.0019  2.2037
  581TIP3    H223307   6.584   2.223   8.767 -0.3375 -1.6398 -0.9931
  582TIP3   OH223308   0.862   6.479   0.581  0.4933 -0.4389  0.6586
  582TIP3    H123309   0.901   6.394   0.600  0.2441 -0.6776  0.1150
  582TIP3    H223310   0.784   6.459   0.529  1.9281  0.2801 -1.9054
  583TIP3   OH223311   2.887   5.573   0.200  0.6086 -0.3155 -0.1017
  583TIP3    H123312   2.915   5.510   0.267  0.7971 -2.1267 -1.7904
  583TIP3    H223313   2.912   5.532   0.117  0.8261  2.0700 -1.2931
  584TIP3   OH223314   5.486   4.089   1.890  0.1112  0.0230  0.4237
  584TIP3    H123315   5.531   4.154   1.943 -0.9564 -0.3970  1.9160
  584TIP3    H223316   5.407   4.068   1.940  0.8016 -3.0050  0.4143
  585TIP3   OH223317   5.933   6.269   0.189 -0.2166 -0.2706 -0.1017
  585TIP3    H123318   6.018   6.246   0.150 -0.4749 -2.0746  0.3223
  585TIP3    H223319   5.955   6.332   0.257  0.7266 -0.3085 -0.3510
  586TIP3   OH223320   3.509   5.182   6.784 -0.1597  0.5332 -0.0769
  586TIP3    H123321   3.592   5.197   6.829  0.2551 -0.8629 -0.3301
  586TIP3    H223322   3.529   5.196   6.691 -0.4922  1.2833 -0.0444
  587TIP3   OH223323   3.511   1.717   0.444 -0.1823  0.2463 -0.1581
  587TIP3    H123324   3.457   1.764   0.381  0.0738  1.0481  0.2040
  587TIP3    H223325   3.531   1.634   0.401  1.2462  1.3572 -1.8072
  588TIP3   OH223326   2.359   5.859   2.528  0.1335  0.1198  0.3883
  588TIP3    H123327   2.268   5.864   2.557  0.5037 -0.0339  1.6385
  588TIP3    H223328   2.388   5.773   2.555  0.6952  0.2097  0.0894
  589TIP3   OH223329   0.885   2.307   0.922  0.6497 -0.1138  0.4718
  589TIP3    H123330   0.858   2.286   0.832 -0.1825 -0.7410  0.8584
  589TIP3    H223331   0.867   2.227   0.971  2.1284 -0.1563  0.9923
  590TIP3   OH223332   3.062   0.280   1.620 -0.6346  0.5792  0.2755
  590TIP3    H123333   3.001   0.242   1.557 -0.0992  0.0635  0.0589
  590TIP3    H223334   3.090   0.362   1.580  0.6266 -0.3045 -0.7469
  591TIP3   OH223335   0.724   2.113   2.287 -0.3510  0.6855  0.0630
  591TIP3    H123336   0.671   2.053   2.340 -0.3585 -0.1024 -0.8056
  591TIP3    H223337   0.811   2.074   2.287  0.2836  1.9996  1.5247
  592TIP3   OH223338   1.006   3.514   7.753  0.0079 -0.7614 -0.4769
  592TIP3    H123339   0.918   3.550   7.759 -0.2385 -1.0891 -1.7220
  592TIP3    H223340   1.064   3.589   7.771 -0.5200 -0.3918 -0.2925
  593TIP3   OH223341   5.464   5.115   8.537 -0.2362  0.1492  0.4266
  593TIP3    H123342   5.480   5.088   8.627 -0.5593  1.2568  0.8317
  593TIP3    H223343   5.497   5.204   8.532 -0.1210  0.0667 -0.5923
  594TIP3   OH223344   3.221   3.640   7.278 -0.2333 -0.1398  0.2337
  594TIP3    H123345   3.155   3.572   7.290  1.2971 -1.2879  2.8713
  594TIP3    H223346   3.171   3.722   7.277 -1.9607 -1.1253 -1.4648
  595TIP3   OH223347   3.520   4.641   6.996  0.9961 -0.2619 -0.3078
  595TIP3    H123348   3.521   4.664   7.089  0.7908 -0.4413 -0.2613
  595TIP3    H223349   3.427   4.645   6.971  1.1700  1.2382 -0.8655
  596TIP3   OH223350   1.764   5.911   6.936  0.0783  0.0386  0.2967
  596TIP3    H123351   1.768   5.958   6.853  1.3302 -0.7063 -0.1000
  596TIP3    H223352   1.800   5.972   7.000 -0.3921  0.4201  0.2057
  597TIP3   OH223353   2.999   3.122   2.179 -0.1421 -0.0254 -0.6393
  597TIP3    H123354   2.940   3.155   2.247 -0.5213  0.6226 -1.2777
  597TIP3    H223355   2.941   3.081   2.115  0.1013  0.5164 -1.2153
  598TIP3   OH223356   5.291   1.109   0.425  0.2540 -0.5180  0.3918
  598TIP3    H123357   5.219   1.072   0.374  0.9790 -0.9463 -0.3440
  598TIP3    H223358   5.329   1.175   0.367 -1.0761  1.5526  1.7059
  599TIP3   OH223359   2.872   3.344   7.054  0.3318  0.0306  0.2588
  599TIP3    H123360   2.821   3.425   7.066  0.2570  0.0594 -0.2615
  599TIP3    H223361   2.812   3.285   7.009  0.1088 -0.6024  1.3382
  600TIP3   OH223362   6.580   3.149   7.866 -0.3682  0.1252  0.1830
  600TIP3    H123363   6.620   3.179   7.784  0.9433  0.8793  1.0500
  600TIP3    H223364   6.581   3.227   7.923 -2.4435 -0.0347  0.5046
  601TIP3   OH223365   0.782   0.047   1.792 -0.0025  0.9991 -0.9122
  601TIP3    H123366   0.771  -0.024   1.855 -0.9656  2.0651  0.1694
  601TIP3    H223367   0.816   0.004   1.713  0.3457 -0.5006  0.0160
  602TIP3   OH223368   4.920   1.542   6.899 -0.2745 -0.3487  0.1446
  602TIP3    H123369   4.835   1.558   6.941  0.3898 -1.0690  1.8251
  602TIP3    H223370   4.935   1.621   6.846 -1.7652 -0.0072  0.1825
  603TIP3   OH223371   1.342   0.150   7.240  0.5846  0.0565  0.3417
  603TIP3    H123372   1.267   0.091   7.232 -0.0261  0.8816 -0.2000
  603TIP3    H223373   1.305   0.233   7.269  1.2496  0.5614 -0.2160
  604TIP3   OH223374   0.617   3.756   1.595 -0.0726 -0.0025 -0.3554
  604TIP3    H123375   0.660   3.806   1.525 -0.2156  1.1309  0.3357
  604TIP3    H223376   0.667   3.779   1.674 -0.3049 -0.7629  0.0199
  605TIP3   OH223377   4.689   2.126   7.976 -0.4693  0.0658  0.0607
  605TIP3    H123378   4.614   2.178   8.006 -0.2114  1.3259 -1.3613
  605TIP3    H223379   4.766   2.177   8.003 -0.1247 -0.7560  0.6833
  606TIP3   OH223380   3.624   2.377   0.481 -0.1094 -0.2237 -0.1665
  606TIP3    H123381   3.640   2.414   0.568  1.9238 -0.1452 -0.5211
  606TIP3    H223382   3.644   2.284   0.491  0.5045 -0.1464 -0.6080
  607TIP3   OH223383   3.182   5.692   7.745 -0.1159  0.0363 -0.4086
  607TIP3    H123384   3.269   5.721   7.715  0.1508 -1.2630 -0.9502
  607TIP3    H223385   3.199   5.610   7.792 -1.0371 -0.1800 -0.4334
  608TIP3   OH223386   0.116   1.806   8.274 -0.5995  0.0470  0.1101
  608TIP3    H123387   0.058   1.825   8.348 -0.3939 -0.2180  0.3425
  608TIP3    H223388   0.066   1.747   8.219 -0.4613 -0.3820  0.4371
  609TIP3   OH223389   3.690   0.857   7.596 -0.2168  0.0784  0.5361
  609TIP3    H123390   3.757   0.865   7.664 -0.6606 -1.1050  1.1549
  609TIP3    H223391   3.738   0.864   7.514  0.6888 -0.8144  0.9644
  610TIP3   OH223392   4.719   6.167   1.470 -0.1438  0.1166 -0.0267
  610TIP3    H123393   4.686   6.206   1.389 -0.4773 -1.7728 -0.8556
  610TIP3    H223394   4.680   6.080   1.472  0.9759 -0.3930  1.4676
  611TIP3   OH223395   3.533   5.255   1.207  0.1722 -0.2519 -0.5360
  611TIP3    H123396   3.537   5.289   1.297  1.4916 -0.5020 -0.4746
  611TIP3    H223397   3.625   5.237   1.185 -0.1556 -0.3343 -1.8822
  612TIP3   OH223398   5.756   1.398   7.021 -0.2741  0.1033  0.4469
  612TIP3    H123399   5.796   1.337   6.959  1.7967  2.6445 -0.9263
  612TIP3    H223400   5.667   1.366   7.032 -0.4061 -1.0962 -3.0434
  613TIP3   OH223401   1.381   4.814   1.656 -0.2827 -0.1924  0.3567
  613TIP3    H123402   1.362   4.870   1.731  0.6538  0.9403 -0.2250
  613TIP3    H223403   1.475   4.796   1.663 -0.6879 -2.3750  0.9632
  614TIP3   OH223404   2.157   4.925   0.659  0.6989 -0.3345  0.4065
  614TIP3    H123405   2.101   4.963   0.591  0.6265 -0.0551  0.6199
  614TIP3    H223406   2.099   4.913   0.734  1.0308  0.4221  0.7976
  615TIP3   OH223407   2.070   0.429   1.297  0.5603  0.0896 -1.2512
  615TIP3    H123408   2.123   0.419   1.218  2.0763  1.0081 -0.3889
  615TIP3    H223409   1.980   0.420   1.266  1.1067  0.5269 -3.1054
  616TIP3   OH223410   3.210   3.125   8.779  0.2548 -0.5863  0.0561
  616TIP3    H123411   3.143   3.163   8.721 -0.9535 -2.2395  0.2800
  616TIP3    H223412   3.172   3.133   8.867  1.2981  0.3318  0.4324
  617TIP3   OH223413   6.750   3.279   8.192  0.0566 -0.2164  0.2039
  617TIP3    H123414   6.775   3.347   8.256 -2.1539 -0.9277  1.9584
  617TIP3    H223415   6.679   3.319   8.142  1.3261  0.0805 -1.4454
  618TIP3   OH223416   5.398   6.307   7.309 -0.3431 -0.0221 -0.2082
  618TIP3    H123417   5.399   6.212   7.297  1.3657  0.0118 -0.4632
  618TIP3    H223418   5.305   6.330   7.301 -0.8137 -1.6682 -0.0266
  619TIP3   OH223419   2.716   3.269   2.254 -0.0573  0.4639 -0.5290
  619TIP3    H123420   2.649   3.332   2.231  0.2072  0.7901 -0.4144
  619TIP3    H223421   2.797   3.320   2.260 -0.1960  0.5207  1.6333
  620TIP3   OH223422   3.648   0.542   8.724  0.4324  0.0335  0.3751
  620TIP3    H123423   3.572   0.530   8.780  0.2480  3.5004  1.1010
  620TIP3    H223424   3.720   0.502   8.773 -0.2981  0.1037  1.5473
  621TIP3   OH223425   1.149   1.807   8.528 -0.3953  0.0051 -0.2321
  621TIP3    H123426   1.209   1.773   8.461 -0.8000 -3.1406  0.7976
  621TIP3    H223427   1.207   1.836   8.599 -0.0283  1.7570 -1.1919
  622TIP3   OH223428   2.891   2.242   0.086 -0.3507 -0.4820  0.0653
  622TIP3    H123429   2.929   2.330   0.089 -1.0452  0.0979 -3.4932
  622TIP3    H223430   2.817   2.246   0.146 -1.4466  2.0336 -1.2785
  623TIP3   OH223431   6.556   0.094   7.054  0.2668  0.1185  0.3570
  623TIP3    H123432   6.572   0.003   7.030  0.5223  0.1448  0.4182
  623TIP3    H223433   6.514   0.090   7.140 -1.3641 -0.0077 -0.4135
  624TIP3   OH223434   5.785   1.406   0.078  0.1104  0.5097 -0.1499
  624TIP3    H123435   5.771   1.349   0.002 -0.9020 -0.3306  0.6302
  624TIP3    H223436   5.806   1.491   0.041 -0.7474  0.2101 -1.3795
  625TIP3   OH223437   3.275   1.943   0.909 -0.1297  0.3008 -0.2656
  625TIP3    H123438   3.315   1.856   0.908 -0.7210 -0.0087 -2.5515
  625TIP3    H223439   3.279   1.970   1.001  1.2097 -1.5899  0.2931
  626TIP3   OH223440   1.741   4.561   1.102 -0.2028 -0.2711 -0.1089
  626TIP3    H123441   1.713   4.644   1.064  0.6427  0.3135  0.5171
  626TIP3    H223442   1.689   4.552   1.182  1.4173  0.8826  1.1279
  627TIP3   OH223443   0.777   3.672   7.837  0.2556  0.0549  0.4667
  627TIP3    H123444   0.811   3.758   7.816  0.2768 -0.0693 -0.0093
  627TIP3    H223445   0.705   3.689   7.899  2.0079  0.2275  2.5626
  628TIP3   OH223446   0.214   1.042   7.613  0.5239  0.0484  0.2717
  628TIP3    H123447   0.266   1.114   7.576  1.0203 -0.4171  0.0339
  628TIP3    H223448   0.277   0.992   7.665  0.0703  0.0669  0.8350
  629TIP3   OH223449   3.785   1.836   0.097 -0.6098 -0.2379  0.1345
  629TIP3    H123450   3.835   1.767   0.053  0.4856  0.1311  0.7493
  629TIP3    H223451   3.848   1.876   0.157 -1.3392  1.0283  0.0890
  630TIP3   OH223452   0.559   0.060   7.504 -0.9164 -0.5435  0.3735
  630TIP3    H123453   0.463   0.063   7.500 -0.9115 -0.9483 -0.1762
  630TIP3    H223454   0.587   0.151   7.492 -1.2629 -0.1914  1.9763
  631TIP3   OH223455   1.187   3.444   8.081 -0.1224 -0.1716 -0.4884
  631TIP3    H123456   1.203   3.350   8.079 -2.7673 -0.6832 -1.6641
  631TIP3    H223457   1.093   3.453   8.068 -0.0878  2.6332  0.4986
  632TIP3   OH223458   5.378   1.919   1.088 -0.2247  0.2110  0.2127
  632TIP3    H123459   5.375   1.874   1.173 -0.3529  0.6375  0.4397
  632TIP3    H223460   5.352   1.852   1.025  1.8410 -0.6765  0.2480
  633TIP3   OH223461   0.713   3.895   8.397  0.4075  0.3380 -0.6152
  633TIP3    H123462   0.721   3.812   8.444  0.0897  1.2879  1.2210
  633TIP3    H223463   0.653   3.876   8.325 -1.0292 -0.6620  0.7690
  634TIP3   OH223464   1.972   1.926   7.230  0.5473 -0.6739  0.6388
  634TIP3    H123465   1.901   1.942   7.167  0.4462 -0.5249  0.7901
  634TIP3    H223466   1.928   1.894   7.309  0.7876 -2.2457  0.1682
  635TIP3   OH223467   6.142   4.508   7.253  0.4136  0.7496  0.3768
  635TIP3    H123468   6.226   4.490   7.209 -0.6543 -1.0994 -1.0501
  635TIP3    H223469   6.166   4.520   7.345  2.1652 -0.7967  0.2021
  636TIP3   OH223470   1.996   6.571   0.244 -1.1924  0.3784  0.0266
  636TIP3    H123471   1.972   6.653   0.287  0.8039  1.4927 -0.8115
  636TIP3    H223472   1.962   6.580   0.155 -1.0664  0.2566 -0.0339
  637TIP3   OH223473   2.050   3.774   1.168 -0.3992 -0.4172  0.2296
  637TIP3    H123474   1.991   3.770   1.244 -0.8556  1.1321 -0.0095
  637TIP3    H223475   2.137   3.760   1.204 -0.3701  2.2058  1.4143
  638TIP3   OH223476   4.949   0.118   1.927  0.8046 -0.3665 -0.0101
  638TIP3    H123477   4.873   0.100   1.982  0.2059  1.2191 -0.2617
  638TIP3    H223478   5.014   0.153   1.987  0.3255  0.8965 -0.1917
  639TIP3   OH223479   4.290   2.105   8.413  0.4995 -0.4753  0.0478
  639TIP3    H123480   4.232   2.035   8.443 -1.5061  0.8557 -0.5784
  639TIP3    H223481   4.262   2.124   8.324  1.8503  0.2809 -0.2433
  640TIP3   OH223482   3.368   5.426   7.683 -0.5758 -0.3989  0.1420
  640TIP3    H123483   3.306   5.377   7.737  0.4647 -1.8655  0.0717
  640TIP3    H223484   3.361   5.387   7.596  0.1496 -0.3225  0.0396
  641TIP3   OH223485   4.044   1.692   1.716  0.4600 -0.7756 -0.1647
  641TIP3    H123486   3.970   1.649   1.673 -0.6040 -1.2189  1.9744
  641TIP3    H223487   4.015   1.782   1.730  0.8195 -0.6201 -0.4017
  642TIP3   OH223488   5.006   1.070   8.597 -0.2029 -0.1867  0.4427
  642TIP3    H123489   4.936   1.086   8.533  0.0420  0.6278  0.3652
  642TIP3    H223490   4.979   0.991   8.642 -0.6796 -0.4476 -0.2732
  643TIP3   OH223491   4.121   4.190   1.238  0.4984 -0.0869 -0.2550
  643TIP3    H123492   4.063   4.185   1.315 -0.5078  0.2952 -0.9671
  643TIP3    H223493   4.196   4.240   1.269  0.5171 -0.6885  0.7235
  644TIP3   OH223494   3.192   6.677   8.708  0.1082  0.1944 -0.1362
  644TIP3    H123495   3.219   6.763   8.738 -0.7660 -0.0505  1.4230
  644TIP3    H223496   3.201   6.681   8.612  2.6289  1.1058  0.0636
  645TIP3   OH223497   4.958   1.838   0.924 -0.2295  0.0189 -0.3100
  645TIP3    H123498   4.924   1.843   0.834 -4.6268  1.4243  1.1546
  645TIP3    H223499   5.030   1.902   0.926 -0.1005  0.0459 -2.7613
  646TIP3   OH223500   6.271   4.841   6.778 -0.2517  0.1601  0.7327
  646TIP3    H123501   6.349   4.846   6.722  0.7824  0.6377  2.1449
  646TIP3    H223502   6.210   4.786   6.729  0.2103  1.3267 -1.2963
  647TIP3   OH223503   6.105   4.035   7.078  0.2804  0.4347  0.2525
  647TIP3    H123504   6.066   4.120   7.102 -0.5150 -0.1128  0.9748
  647TIP3    H223505   6.156   4.053   7.000 -2.0086  1.0778 -1.1740
  648TIP3   OH223506   1.897   1.215   7.177  0.8398  0.1897  0.1390
  648TIP3    H123507   1.809   1.243   7.151  0.3479 -1.3879  0.0513
  648TIP3    H223508   1.946   1.297   7.187  0.2305  1.0242 -2.7992
  649TIP3   OH223509   5.523   3.667   1.816 -0.4482 -0.2896 -0.4119
  649TIP3    H123510   5.611   3.637   1.839  0.3377  1.6293 -0.7180
  649TIP3    H223511   5.480   3.685   1.900  0.2988  0.9728 -0.2719
  650TIP3   OH223512   6.787   4.154   1.189  0.2560 -0.1032 -1.3048
  650TIP3    H123513   6.809   4.083   1.129  1.1134 -2.5465  1.6892
  650TIP3    H223514   6.855   4.151   1.256 -0.5469  2.6168 -0.2280
  651TIP3   OH223515   3.999   3.190   8.382  0.1848 -0.2600 -0.2560
  651TIP3    H123516   4.002   3.101   8.346 -4.7675 -1.8434  2.3234
  651TIP3    H223517   4.045   3.183   8.465 -0.0010 -0.3590 -0.1605
  652TIP3   OH223518   4.863   0.130   6.759  0.1454  0.3852 -0.2023
  652TIP3    H123519   4.954   0.104   6.774 -0.0233 -0.6035 -0.7657
  652TIP3    H223520   4.830   0.064   6.697 -0.6831  1.2554 -0.7092
  653TIP3   OH223521   5.429   3.353   6.447 -0.0678 -0.0009 -0.3734
  653TIP3    H123522   5.386   3.278   6.407 -0.4245  1.0946 -2.1388
  653TIP3    H223523   5.477   3.316   6.521 -0.5894 -1.8849 -0.9209
  654TIP3   OH223524   0.764   2.714   8.542  0.1456  0.0121  0.3670
  654TIP3    H123525   0.794   2.805   8.550 -0.8517  0.4294 -0.3785
  654TIP3    H223526   0.696   2.706   8.609  0.5554 -0.3462  0.7507
  655TIP3   OH223527   6.418   0.508   6.871  0.4621  0.4341 -0.0907
  655TIP3    H123528   6.411   0.474   6.960 -0.3823 -0.1138 -0.3533
  655TIP3    H223529   6.333   0.549   6.854  0.5561  0.3904 -0.7064
  656TIP3   OH223530   3.741   5.625   8.172 -0.8617 -0.4972  0.1742
  656TIP3    H123531   3.832   5.617   8.202 -0.8181  2.4753  1.2426
  656TIP3    H223532   3.744   5.605   8.079  0.7711 -1.0642  0.3151
  657TIP3   OH223533   4.016   5.677   7.146  0.2103  0.7625  0.2046
  657TIP3    H123534   4.064   5.635   7.218  0.0247  0.5261  0.1927
  657TIP3    H223535   3.973   5.604   7.101 -1.0419  1.0735  0.8588
  658TIP3   OH223536   1.189   4.976   8.394  0.3369 -0.6241 -0.5948
  658TIP3    H123537   1.229   4.959   8.309  0.1063 -2.1730 -0.4210
  658TIP3    H223538   1.097   4.951   8.382 -0.0315  0.5127 -0.2778
  659TIP3   OH223539   5.029   1.615   6.322  0.4310 -0.7079  0.1938
  659TIP3    H123540   4.967   1.681   6.351  0.2672 -1.9737  3.0546
  659TIP3    H223541   4.975   1.543   6.289  0.5814  0.0559 -1.8506
  660TIP3   OH223542   4.488   5.940   8.173  0.5435  0.5091 -0.1019
  660TIP3    H123543   4.453   5.856   8.144 -1.1126  0.8346  0.8657
  660TIP3    H223544   4.550   5.965   8.104  1.5530 -1.7583 -0.1239
  661TIP3   OH223545   6.455   5.864   8.518  0.0536 -0.0123  0.0380
  661TIP3    H123546   6.501   5.890   8.439  0.2023  0.9137  0.4142
  661TIP3    H223547   6.523   5.854   8.584 -0.1607  0.1963  0.2961
  662TIP3   OH223548   2.263   6.080   1.292 -0.1506 -0.2410 -0.0307
  662TIP3    H123549   2.191   6.025   1.325 -1.3906  1.7865  0.8198
  662TIP3    H223550   2.341   6.027   1.308 -1.2604 -1.7134  0.8783
  663TIP3   OH223551   5.815   2.149   6.274  0.2275 -0.5415 -0.1768
  663TIP3    H123552   5.752   2.215   6.305 -0.0173 -0.9674  0.2492
  663TIP3    H223553   5.877   2.140   6.347 -0.3014 -1.4893  0.1610
  664TIP3   OH223554   4.601   0.568   7.390 -0.3755 -0.2488 -0.6843
  664TIP3    H123555   4.560   0.488   7.422  0.8378  0.0469  1.8201
  664TIP3    H223556   4.682   0.537   7.349  1.0149 -0.2921  1.8837
  665TIP3   OH223557   1.569   6.443   2.819  0.3146 -0.3069  0.6557
  665TIP3    H123558   1.491   6.475   2.775  0.9938  1.6127  0.7588
  665TIP3    H223559   1.547   6.354   2.845 -0.8837 -0.7292 -1.5947
  666TIP3   OH223560   6.294   4.479   8.807  0.5055  0.3352 -0.2636
  666TIP3    H123561   6.378   4.522   8.795  0.1540  0.8256 -1.0488
  666TIP3    H223562   6.231   4.551   8.812 -0.0869 -0.0595 -1.5629
  667TIP3   OH223563   2.790   0.101   7.906  0.0301 -0.1238  0.2733
  667TIP3    H123564   2.849   0.061   7.970  0.2146  0.3313  0.3908
  667TIP3    H223565   2.812   0.057   7.824  2.4271  1.8162 -0.2631
  668TIP3   OH223566   2.435   2.710   2.048 -0.7375  0.6403 -0.4732
  668TIP3    H123567   2.351   2.690   2.007 -0.6235  0.3043 -0.5454
  668TIP3    H223568   2.490   2.634   2.028 -0.4603  0.7965 -0.3084
  669TIP3   OH223569   4.701   1.110   1.086  0.2103 -0.1047  0.0377
  669TIP3    H123570   4.707   1.035   1.028 -1.0647  0.8633 -1.4300
  669TIP3    H223571   4.609   1.112   1.113  0.9078 -1.0661  2.9414
  670TIP3   OH223572   0.252   2.008   2.002  0.1254  0.4537 -0.5927
  670TIP3    H123573   0.322   1.945   1.981 -1.8758 -2.1893  0.0894
  670TIP3    H223574   0.223   2.041   1.917  1.0024  0.2363 -0.9898
  671TIP3   OH223575   0.844   5.376   2.055 -0.2467 -0.3193  0.4745
  671TIP3    H123576   0.869   5.452   2.107  2.5515 -0.9784  0.2627
  671TIP3    H223577   0.881   5.392   1.969 -0.5607 -1.4386  0.1092
  672TIP3   OH223578   6.231   5.637   7.327  0.2563  0.1669 -0.8825
  672TIP3    H123579   6.307   5.657   7.382  1.6451 -0.5283 -2.4421
  672TIP3    H223580   6.213   5.719   7.281 -0.1962  0.4460 -0.2064
  673TIP3   OH223581   3.453   0.397   1.245 -0.0790  0.0291  0.0324
  673TIP3    H123582   3.527   0.457   1.243  0.9479 -1.1482 -2.6282
  673TIP3    H223583   3.475   0.329   1.181 -2.6132 -1.4315  0.5448
  674TIP3   OH223584   1.378   1.092   8.798 -0.4453  0.5951 -0.2254
  674TIP3    H123585   1.393   0.997   8.795 -0.4158  0.5948 -0.1014
  674TIP3    H223586   1.419   1.119   8.881  1.2012  1.0098 -1.1233
  675TIP3   OH223587   4.149   6.583   2.746 -0.0476 -0.0420 -0.0859
  675TIP3    H123588   4.121   6.651   2.808 -2.4360 -1.7021  0.7993
  675TIP3    H223589   4.208   6.629   2.686 -1.6197  2.8765  0.3680
  676TIP3   OH223590   5.377   6.428   0.978 -0.4058 -0.4325 -0.1915
  676TIP3    H123591   5.466   6.442   1.011 -1.2379  2.2673  1.2145
  676TIP3    H223592   5.338   6.368   1.042 -0.6225  1.2327  1.3394
  677TIP3   OH223593   0.278   6.575   1.727 -0.2697  0.4923  0.3999
  677TIP3    H123594   0.272   6.617   1.813  2.4625 -2.3082  2.1705
  677TIP3    H223595   0.196   6.527   1.718 -0.2963  0.2037  1.8473
  678TIP3   OH223596   4.964   4.451   0.227  0.2058 -0.2898  0.1009
  678TIP3    H123597   5.054   4.477   0.247  0.4891 -0.8196 -0.4493
  678TIP3    H223598   4.910   4.507   0.283  0.8961 -0.4150  0.9262
  679TIP3   OH223599   0.222   2.371   8.758 -0.0856 -0.2710 -0.3477
  679TIP3    H123600   0.199   2.409   8.843 -1.0138  2.6425 -1.7686
  679TIP3    H223601   0.304   2.415   8.734  0.7614 -1.8766 -0.5189
  680TIP3   OH223602   6.670   3.846   7.193  0.3713 -0.1623  0.4033
  680TIP3    H123603   6.652   3.779   7.259 -0.0744  0.8459  1.3369
  680TIP3    H223604   6.678   3.797   7.111 -2.3221 -1.1709  0.6346
  681TIP3   OH223605   1.712   1.220   2.174 -0.1968  0.1532 -0.3435
  681TIP3    H123606   1.686   1.312   2.179  2.1684  0.8417  0.3949
  681TIP3    H223607   1.723   1.194   2.265 -2.1771 -1.3533 -0.4548
  682TIP3   OH223608   5.822   5.907   7.162  0.6132 -0.4284 -0.3839
  682TIP3    H123609   5.912   5.938   7.174  0.6793 -0.6257 -0.3635
  682TIP3    H223610   5.828   5.844   7.090  0.3620  0.1308 -0.9066
  683TIP3   OH223611   2.256   1.100   8.040 -0.5445 -0.2282  0.3994
  683TIP3    H123612   2.169   1.084   8.004 -1.0707  2.0109  0.5290
  683TIP3    H223613   2.240   1.121   8.132  0.3821 -1.8948  0.9785
  684TIP3   OH223614   4.940   0.107   7.925  0.1915 -0.1122 -0.0142
  684TIP3    H123615   4.902   0.106   8.013  0.2607  1.3128  0.0496
  684TIP3    H223616   4.869   0.078   7.868  0.0278 -0.6653  0.4552
  685TIP3   OH223617   5.651   1.975   6.496  0.0782 -0.1628  0.0180
  685TIP3    H123618   5.628   1.905   6.558  1.1951 -1.4453 -0.9558
  685TIP3    H223619   5.649   2.055   6.549 -0.7756 -0.9670  1.2761
  686TIP3   OH223620   6.348   0.295   8.639  0.7345 -0.0127 -0.2932
  686TIP3    H123621   6.421   0.275   8.699  0.2577  0.8384  0.5994
  686TIP3    H223622   6.287   0.222   8.650  0.3073  0.4900  0.8391
  687TIP3   OH223623   2.108   0.392   8.609  0.1331  0.2864 -0.4794
  687TIP3    H123624   2.057   0.456   8.560  0.6192  0.2989 -0.9774
  687TIP3    H223625   2.125   0.322   8.546  1.7861  0.8482 -0.6981
  688TIP3   OH223626   6.797   4.170   0.846 -0.3309  0.0856  0.2185
  688TIP3    H123627   6.809   4.092   0.900 -4.2664 -0.6874  0.2459
  688TIP3    H223628   6.709   4.201   0.867  0.8064  4.2789 -0.2296
  689TIP3   OH223629   6.351   1.245   8.045  0.1141  0.3004 -1.1098
  689TIP3    H123630   6.388   1.284   7.966  1.7186 -0.2486 -0.6657
  689TIP3    H223631   6.350   1.151   8.027  1.9308  0.0029  0.0283
  690TIP3   OH223632   4.979   1.869   7.062 -0.0568  0.4649 -0.0657
  690TIP3    H123633   5.063   1.833   7.089  0.8912  1.6182 -1.3321
  690TIP3    H223634   4.914   1.810   7.100  1.3015 -0.3312  1.1217
  691TIP3   OH223635   2.743   1.795   0.858  0.5365 -0.3008  0.0905
  691TIP3    H123636   2.657   1.784   0.818  1.1467  1.4823 -1.8698
  691TIP3    H223637   2.794   1.721   0.826  0.6324  0.3945 -1.4298
  692TIP3   OH223638   4.410   2.567   6.391 -0.0404  0.0016  0.7415
  692TIP3    H123639   4.499   2.602   6.388 -0.0377 -0.0153  0.6154
  692TIP3    H223640   4.373   2.589   6.306  0.6451 -2.0882 -0.1470
  693TIP3   OH223641   5.873   5.572   0.887  0.6800  0.0317 -0.0593
  693TIP3    H123642   5.890   5.516   0.962  0.2327 -0.3792 -0.2597
  693TIP3    H223643   5.938   5.546   0.822  0.3542 -0.3910 -0.2205
  694TIP3   OH223644   1.166   1.268   2.466 -0.3754  0.4013  0.4583
  694TIP3    H123645   1.103   1.264   2.538  0.1458  0.6961  0.9376
  694TIP3    H223646   1.144   1.348   2.418 -2.0386 -0.8412 -0.9573
  695TIP3   OH223647   1.032   5.654   0.899 -0.3149  0.3528  0.2406
  695TIP3    H123648   1.059   5.578   0.848  0.3482  0.4202  0.4904
  695TIP3    H223649   0.996   5.715   0.834 -1.1270 -0.2832  0.0717
  696TIP3   OH223650   0.771   2.313   7.420 -0.2358  0.6673 -0.2901
  696TIP3    H123651   0.707   2.328   7.351  0.4342 -3.0695 -2.0022
  696TIP3    H223652   0.722   2.271   7.491 -0.1404  0.1887 -0.5044
  697TIP3   OH223653   1.904   3.121   2.174  0.1723 -0.1636  0.0661
  697TIP3    H123654   1.831   3.163   2.127  1.3699  0.8000 -0.9876
  697TIP3    H223655   1.930   3.184   2.240 -0.9813 -1.1908  1.5641
  698TIP3   OH223656   5.259   0.991   1.286 -0.1544 -0.3036  0.4741
  698TIP3    H123657   5.338   0.949   1.320 -0.2423 -1.1558 -0.3250
  698TIP3    H223658   5.261   0.971   1.192 -1.6297 -0.8621  0.5411
  699TIP3   OH223659   0.570   6.320   8.320 -0.2419  0.1814 -0.1293
  699TIP3    H123660   0.645   6.350   8.269 -0.6289 -2.2360 -2.3759
  699TIP3    H223661   0.609   6.273   8.394  0.3445  2.2734  0.9757
  700TIP3   OH223662   6.594   1.389   7.862 -0.0104 -0.1983  0.4296
  700TIP3    H123663   6.605   1.479   7.895 -1.6832 -0.1462  0.9465
  700TIP3    H223664   6.610   1.396   7.768  1.1117  0.3857  0.6433
  701TIP3   OH223665   6.531   2.595   8.150  0.2008  0.3669 -0.4365
  701TIP3    H123666   6.512   2.688   8.162 -0.3069  0.1550  0.5130
  701TIP3    H223667   6.594   2.592   8.079  1.7752  1.6015  0.8245
  702TIP3   OH223668   2.009   3.129   8.407 -0.1268  0.3824 -0.4204
  702TIP3    H123669   2.091   3.083   8.426  1.1468  1.9783 -1.7317
  702TIP3    H223670   2.008   3.137   8.312 -2.0624  0.0262 -0.4649
  703TIP3   OH223671   1.462   2.517   7.471 -0.0638 -0.3214 -0.5671
  703TIP3    H123672   1.389   2.555   7.520 -2.1617 -3.7233 -0.6891
  703TIP3    H223673   1.521   2.483   7.538 -0.1740 -0.2856 -0.4529
  704TIP3   OH223674   5.349   3.009   8.509  0.1436 -0.1149  0.2904
  704TIP3    H123675   5.298   3.071   8.560 -0.3796 -1.3848  1.3648
  704TIP3    H223676   5.304   2.926   8.520 -0.3627 -0.3673 -2.7841
  705TIP3   OH223677   1.840   6.786   6.341 -0.1592 -0.2404  0.1914
  705TIP3    H123678   1.907   6.846   6.307  0.8699 -1.0514  0.7324
  705TIP3    H223679   1.816   6.823   6.426 -0.5546  0.1558 -0.0871
  706TIP3   OH223680   2.683   6.496   1.816  0.7501  0.4289 -0.1151
  706TIP3    H123681   2.646   6.414   1.851  0.6935  1.3727  2.1813
  706TIP3    H223682   2.608   6.545   1.785  0.5964  0.3613  0.1514
  707TIP3   OH223683   4.502   1.720   8.371  0.1647 -0.4414  0.5671
  707TIP3    H123684   4.465   1.753   8.453 -2.2837 -1.2932 -0.1302
  707TIP3    H223685   4.595   1.741   8.378 -0.7081  4.4164  1.2497
  708TIP3   OH223686   6.313   1.934   2.081  0.7946 -0.0355  0.5842
  708TIP3    H123687   6.231   1.884   2.081  1.1470 -0.6280  0.1815
  708TIP3    H223688   6.329   1.954   2.173  0.2162  0.0536  0.6707
  709TIP3   OH223689   3.442   0.725   7.323  0.3537  0.5321  0.2354
  709TIP3    H123690   3.404   0.727   7.235 -1.4596  0.1488  0.9596
  709TIP3    H223691   3.532   0.755   7.311  0.7950 -1.3839 -2.0582
  710TIP3   OH223692   6.397   2.938   0.108  0.2615 -0.4028  0.8606
  710TIP3    H123693   6.448   2.942   0.027 -1.0555 -1.5976 -0.0907
  710TIP3    H223694   6.331   3.006   0.098  1.4766  1.0029  1.9969
  711TIP3   OH223695   3.917   3.193   0.902 -0.0074 -0.6950 -0.1566
  711TIP3    H123696   3.968   3.140   0.842  2.8666  0.9176  0.6585
  711TIP3    H223697   3.953   3.282   0.892 -0.1180 -0.1611  3.1066
  712TIP3   OH223698   4.850   0.920   7.197  0.0094  0.5639 -0.3830
  712TIP3    H123699   4.873   0.861   7.269 -0.4720  0.5519 -0.2363
  712TIP3    H223700   4.864   1.008   7.232 -1.1900  0.5890  0.0721
  713TIP3   OH223701   5.160   5.127   2.064 -0.5283 -0.5853 -0.1369
  713TIP3    H123702   5.127   5.195   2.123 -0.2768 -1.1843  0.7142
  713TIP3    H223703   5.226   5.171   2.011  0.3675 -0.3764  1.0987
  714TIP3   OH223704   0.364   1.314   0.863  0.2119 -0.1525 -0.3555
  714TIP3    H123705   0.383   1.260   0.940  0.3528 -0.5691 -0.6788
  714TIP3    H223706   0.423   1.281   0.795 -0.7520 -0.6032 -0.9943
  715TIP3   OH223707   6.533   5.777   7.288 -0.1802 -0.0863  0.3108
  715TIP3    H123708   6.444   5.812   7.295 -0.0754  0.6359 -1.4424
  715TIP3    H223709   6.584   5.830   7.349 -0.3169  1.9160 -1.2069
  716TIP3   OH223710   6.032   4.591   8.464  0.2528 -0.1023  0.0802
  716TIP3    H123711   6.076   4.526   8.518  0.5316  0.2212  0.2507
  716TIP3    H223712   6.054   4.568   8.374 -2.0173 -1.9790 -0.0955
  717TIP3   OH223713   4.505   3.210   2.547 -0.0258 -0.4398 -0.5512
  717TIP3    H123714   4.443   3.282   2.541  0.7647  0.2819 -0.2826
  717TIP3    H223715   4.572   3.230   2.482  1.9330  0.8462  1.6651
  718TIP3   OH223716   5.212   0.759   8.784 -0.2724  0.1508 -0.3525
  718TIP3    H123717   5.218   0.709   8.702  0.7679 -1.7850  0.8181
  718TIP3    H223718   5.132   0.727   8.826  0.2478 -0.3706  0.2713
  719TIP3   OH223719   1.094   1.173   7.775 -0.1263 -0.1226  0.0548
  719TIP3    H123720   1.100   1.143   7.866 -0.5705  0.7879  0.3939
  719TIP3    H223721   1.002   1.157   7.751  0.6997 -3.5306 -1.3925
  720TIP3   OH223722   5.617   1.168   6.963 -0.4562  0.4831  0.4880
  720TIP3    H123723   5.664   1.126   6.890 -2.0350 -1.8779  0.7330
  720TIP3    H223724   5.652   1.126   7.041 -1.1592  0.5719  0.8538
  721TIP3   OH223725   2.964   2.789   0.612 -0.1441 -0.2130  0.4972
  721TIP3    H123726   2.995   2.700   0.593  1.5164  0.4693 -0.2036
  721TIP3    H223727   3.042   2.843   0.605 -1.2133  1.3852  0.4232
  722TIP3   OH223728   1.672   1.022   1.282 -0.1156  0.2280 -0.3260
  722TIP3    H123729   1.654   1.101   1.333  0.5723  0.9456 -1.1641
  722TIP3    H223730   1.766   1.007   1.293 -0.5126 -1.5372  1.2838
  723TIP3   OH223731   4.596   5.977   0.651 -0.5875  0.2396  0.3425
  723TIP3    H123732   4.606   6.039   0.579 -0.6057 -0.9560 -0.7053
  723TIP3    H223733   4.539   6.022   0.713  0.9771  2.0876  0.5621
  724TIP3   OH223734   5.123   6.356   7.290  0.0951  0.0603 -0.4297
  724TIP3    H123735   5.062   6.314   7.229  0.4682  0.1516 -0.8739
  724TIP3    H223736   5.069   6.417   7.340 -0.8971 -2.3620  1.6905
  725TIP3   OH223737   6.189   2.450   6.703  0.4696 -0.1568 -0.0943
  725TIP3    H123738   6.152   2.423   6.619 -0.0828  0.0028  0.0901
  725TIP3    H223739   6.199   2.369   6.752 -0.5000 -0.1242  0.1871
  726TIP3   OH223740   3.615   4.104   0.580 -0.4074  0.1718  0.2467
  726TIP3    H123741   3.648   4.151   0.657 -2.3351  2.9050 -0.4757
  726TIP3    H223742   3.642   4.158   0.505 -0.9375 -0.9646 -0.7980
  727TIP3   OH223743   3.902   3.677   8.018  0.1270 -0.3909  0.0260
  727TIP3    H123744   3.887   3.739   7.947 -1.3997 -0.2845  0.3888
  727TIP3    H223745   3.996   3.678   8.033  0.2110  1.2781 -0.4799
  728TIP3   OH223746   6.532   1.125   7.820  0.2969  0.0895 -0.6766
  728TIP3    H123747   6.551   1.218   7.830  0.2666  0.0098  0.1991
  728TIP3    H223748   6.521   1.093   7.909  0.5676 -0.8134 -0.9570
  729TIP3   OH223749   2.488   6.101   2.143 -0.6444 -0.6769 -0.4208
  729TIP3    H123750   2.575   6.093   2.181 -0.3874  0.7514 -0.6462
  729TIP3    H223751   2.435   6.036   2.190 -0.0913  0.2754  1.6584
  730TIP3   OH223752   0.221   4.237   0.230  0.2098 -0.3961 -0.2663
  730TIP3    H123753   0.223   4.277   0.317 -1.0377 -2.0390  0.5676
  730TIP3    H223754   0.313   4.214   0.212  0.4555 -0.1723  0.6774
  731TIP3   OH223755   6.778   0.151   0.260 -0.9350  0.3691 -0.6983
  731TIP3    H123756   6.793   0.063   0.227 -0.4664 -0.3714  1.3715
  731TIP3    H223757   6.849   0.166   0.323  0.0224  2.9092 -2.2204
  732TIP3   OH223758   0.668   3.975   7.945  0.2327 -0.2066 -0.0375
  732TIP3    H123759   0.733   3.947   7.881  0.9773 -1.8502  1.3773
  732TIP3    H223760   0.719   4.019   8.013 -0.1581 -1.2027  0.9190
  733TIP3   OH223761   4.786   0.853   6.783  0.8305  0.3088  0.4221
  733TIP3    H123762   4.803   0.897   6.700  2.7982  0.6425  0.9721
  733TIP3    H223763   4.710   0.899   6.820 -0.9470 -0.6951 -1.7412
  734TIP3   OH223764   5.508   3.938   1.574  0.2594  0.3538 -0.1115
  734TIP3    H123765   5.514   3.880   1.498  1.6522 -0.3587  0.5071
  734TIP3    H223766   5.463   4.016   1.540 -2.0425 -1.1966 -0.8452
  735TIP3   OH223767   4.484   2.014   6.580  0.4152  0.1634 -0.1424
  735TIP3    H123768   4.394   2.000   6.550 -0.2131 -3.2422  2.7170
  735TIP3    H223769   4.529   1.932   6.561  2.1736  0.8385  0.8904
  736TIP3   OH223770   3.021   3.840   7.480  0.2435  0.0002  0.3975
  736TIP3    H123771   2.950   3.800   7.430  0.2428  1.3235 -0.7267
  736TIP3    H223772   3.075   3.884   7.414  0.6148  1.2463  1.4872
  737TIP3   OH223773   6.771   1.110   7.552  0.0622  0.2219 -0.5210
  737TIP3    H123774   6.806   1.104   7.463 -0.4401 -0.7400 -0.6646
  737TIP3    H223775   6.849   1.106   7.608  0.4409  1.5734 -0.9229
  738TIP3   OH223776   3.939   1.928   7.908 -0.1771 -0.4052 -0.5922
  738TIP3    H123777   3.949   1.833   7.900  0.8444 -0.2153 -2.0102
  738TIP3    H223778   3.989   1.950   7.987 -0.3413 -1.0340 -0.3033
  739TIP3   OH223779   4.820   4.938   1.002 -0.5719 -0.3776 -0.3631
  739TIP3    H123780   4.860   4.882   1.069 -0.4952  0.3525  0.2236
  739TIP3    H223781   4.860   4.910   0.920 -0.7778 -1.3939 -0.1252
  740TIP3   OH223782   0.505   2.424   0.962 -0.2841 -0.1399 -0.1734
  740TIP3    H123783   0.542   2.493   0.907 -0.4081  1.2185  1.3509
  740TIP3    H223784   0.561   2.424   1.040 -0.9395 -1.0284  0.3115
  741TIP3   OH223785   3.674   0.564   1.260  0.1331 -0.2459  0.3392
  741TIP3    H123786   3.712   0.648   1.285 -0.7893  0.4885 -0.6195
  741TIP3    H223787   3.725   0.536   1.184 -1.1637  0.7588 -0.9719
  742TIP3   OH223788   4.750   5.597   7.616  0.4030 -0.6636  0.0734
  742TIP3    H123789   4.702   5.522   7.580 -1.1070 -0.3400  1.3018
  742TIP3    H223790   4.739   5.666   7.551  2.1518 -1.5894 -1.2621
  743TIP3   OH223791   0.309   4.747   7.028  0.3736 -0.2736  0.1883
  743TIP3    H123792   0.272   4.673   6.978 -0.6427  0.0195  0.4734
  743TIP3    H223793   0.349   4.706   7.105 -1.2777 -0.4756  0.9987
  744TIP3   OH223794   5.464   0.491   0.729  0.1823 -0.6938 -0.0568
  744TIP3    H123795   5.451   0.401   0.761 -1.1252 -0.7487 -0.6610
  744TIP3    H223796   5.493   0.480   0.639  2.1206 -0.5081  0.4921
  745TIP3   OH223797   0.763   4.166   8.131  0.0179  0.2331 -0.0165
  745TIP3    H123798   0.715   4.144   8.212  0.1236 -0.1619 -0.0566
  745TIP3    H223799   0.855   4.156   8.155  0.0227 -2.1202 -0.7721
  746TIP3   OH223800   3.357   4.485   0.981 -0.6897 -0.6687 -0.0651
  746TIP3    H123801   3.323   4.405   1.023 -1.4380 -0.3478 -0.0430
  746TIP3    H223802   3.422   4.518   1.043 -1.1088 -0.7120  0.4054
  747TIP3   OH223803   4.056   6.552   0.899  0.5639  0.2607 -0.0376
  747TIP3    H123804   4.089   6.467   0.871 -0.0306  0.4335 -1.3424
  747TIP3    H223805   4.107   6.574   0.977  0.8490 -1.1939  0.2035
  748TIP3   OH223806   6.668   1.938   8.624  0.2679 -0.8711 -0.5527
  748TIP3    H123807   6.705   1.884   8.693 -0.3923 -0.7273 -0.0797
  748TIP3    H223808   6.742   1.988   8.590  1.1670 -2.9071 -1.8261
  749TIP3   OH223809   3.190   4.801   6.108 -0.2987  0.0917  0.5034
  749TIP3    H123810   3.250   4.790   6.181  0.3060  0.3843  0.0638
  749TIP3    H223811   3.247   4.814   6.032 -0.9178  0.7115  0.1324
  750TIP3   OH223812   1.623   6.507   1.613 -0.3076  0.2851  0.5164
  750TIP3    H123813   1.713   6.516   1.645 -0.2531 -0.5230  0.6164
  750TIP3    H223814   1.614   6.414   1.593 -1.1681  0.3290  0.6487
  751TIP3   OH223815   5.738   4.091   7.010 -0.3620 -0.2696  0.1100
  751TIP3    H123816   5.752   4.171   6.960 -2.3542 -0.2571 -0.5325
  751TIP3    H223817   5.781   4.022   6.960 -0.5091  0.0797 -0.5013
  752TIP3   OH223818   3.920   0.484   8.191 -0.3026  0.3602 -0.0454
  752TIP3    H123819   3.913   0.472   8.286 -0.9982 -1.2800 -0.2637
  752TIP3    H223820   3.998   0.434   8.166 -0.4970  0.2301 -0.4082
  753TIP3   OH223821   5.006   0.689   6.537  0.0293 -0.2105  0.5038
  753TIP3    H123822   4.923   0.734   6.553 -0.0572 -0.2707  0.2251
  753TIP3    H223823   4.985   0.620   6.474  0.4023  0.1690 -0.0531
  754TIP3   OH223824   1.005   0.257   6.600  0.2950  0.3290  0.0033
  754TIP3    H123825   0.961   0.341   6.613  0.3407  0.4376 -0.5106
  754TIP3    H223826   0.938   0.191   6.618  0.2710  0.4714  0.4522
  755TIP3   OH223827   2.094   5.207   7.809 -0.2982 -0.3332  0.3646
  755TIP3    H123828   2.146   5.270   7.760  0.8062 -0.4612  1.2964
  755TIP3    H223829   2.013   5.198   7.760  0.0445  0.8476 -0.4587
  756TIP3   OH223830   4.775   2.914   8.601  1.0098  0.6792 -0.0275
  756TIP3    H123831   4.749   2.823   8.616 -0.3970  0.4349 -3.1450
  756TIP3    H223832   4.699   2.965   8.627  1.3186  0.8787  0.5011
  757TIP3   OH223833   2.103   2.381   2.179 -0.4026  0.3914 -0.2687
  757TIP3    H123834   2.154   2.373   2.098 -0.1375 -1.9546  0.0765
  757TIP3    H223835   2.156   2.337   2.245 -1.8284 -0.0434  0.6221
  758TIP3   OH223836   3.233   2.024   0.058 -0.6574  0.3286 -0.2415
  758TIP3    H123837   3.237   2.107   0.011  3.0374  1.4011  1.5834
  758TIP3    H223838   3.270   1.961  -0.003  1.3048  1.1069  0.0859
  759TIP3   OH223839   6.724   5.294   1.866 -0.2663 -0.1730 -0.7412
  759TIP3    H123840   6.812   5.256   1.855  0.2976  0.5111  1.0216
  759TIP3    H223841   6.724   5.326   1.956 -3.0248 -1.8693 -0.0387
  760TIP3   OH223842   1.257   5.263   1.557 -0.0543 -0.1597 -0.7449
  760TIP3    H123843   1.300   5.187   1.517  0.6665 -0.2683  0.1984
  760TIP3    H223844   1.216   5.229   1.637  2.1478  0.7847  0.8954
  761TIP3   OH223845   5.971   3.465   0.450  0.7646 -0.2783 -0.1595
  761TIP3    H123846   5.924   3.526   0.508  0.7867 -1.6419  1.3936
  761TIP3    H223847   6.061   3.495   0.452  0.7562 -0.2678  0.5097
  762TIP3   OH223848   2.104   5.039   6.440 -0.3731  0.1138  0.6718
  762TIP3    H123849   2.122   4.968   6.378 -1.2238  0.3202  0.1876
  762TIP3    H223850   2.064   5.108   6.388 -2.1313 -0.1354  1.6089
  763TIP3   OH223851   3.356   2.891   0.188 -0.0439 -0.1497 -0.2351
  763TIP3    H123852   3.415   2.959   0.219 -0.2785 -0.0481 -0.0122
  763TIP3    H223853   3.369   2.818   0.248  0.7481 -0.5783 -0.9080
  764TIP3   OH223854   4.413   4.734   1.617 -0.1682 -0.1045 -0.2624
  764TIP3    H123855   4.406   4.643   1.648  2.1615  0.4047  2.1269
  764TIP3    H223856   4.507   4.748   1.604 -0.6044  1.5900 -1.9238
  765TIP3   OH223857   5.940   1.254   7.911 -0.9326 -0.3619  0.6718
  765TIP3    H123858   5.937   1.228   8.003  0.1215 -1.4699  0.4111
  765TIP3    H223859   5.964   1.174   7.864 -1.9172  0.0781 -0.6232
  766TIP3   OH223860   4.934   0.774   7.416  0.1446  0.3303  0.3576
  766TIP3    H123861   4.994   0.829   7.466 -0.3360  0.8020  0.4240
  766TIP3    H223862   4.847   0.799   7.447 -0.1583  0.5281 -0.6226
  767TIP3   OH223863   3.421   2.960   2.317  0.4435 -0.0977 -0.2817
  767TIP3    H123864   3.502   3.010   2.323  0.6333 -0.3817 -0.4400
  767TIP3    H223865   3.392   2.949   2.407  0.4239  0.2613 -0.2453
  768TIP3   OH223866   5.522   5.017   0.277 -0.4173 -0.0471  0.0015
  768TIP3    H123867   5.529   4.962   0.355  0.2918  1.5173  1.0988
  768TIP3    H223868   5.584   5.089   0.293 -1.8744  1.5053 -0.9874
  769TIP3   OH223869   5.814   2.400   7.269  0.0816  0.2928  0.0917
  769TIP3    H123870   5.839   2.480   7.223 -0.2209  0.1722 -0.2972
  769TIP3    H223871   5.721   2.412   7.289  0.0243  0.0215 -0.0071
  770TIP3   OH223872   2.760   1.132   7.565  0.1736 -0.0602 -0.1552
  770TIP3    H123873   2.804   1.127   7.480 -0.1279 -2.3585 -0.2432
  770TIP3    H223874   2.796   1.058   7.615 -0.0717  0.9052  1.5276
  771TIP3   OH223875   4.790   0.343   7.702 -0.8983 -0.1540  0.3367
  771TIP3    H123876   4.805   0.437   7.713 -0.3576  0.0483 -1.8207
  771TIP3    H223877   4.874   0.308   7.673 -0.7044 -1.5942  2.3762
  772TIP3   OH223878   3.692   6.247   1.841  0.7570 -0.0566  0.5998
  772TIP3    H123879   3.643   6.176   1.801  1.7513 -0.6558  0.4061
  772TIP3    H223880   3.742   6.205   1.911  1.5693  0.3827  0.3014
  773TIP3   OH223881   2.775   3.525   1.002 -0.1626  0.2426  0.1743
  773TIP3    H123882   2.754   3.600   0.947  4.2338  2.7257  1.4140
  773TIP3    H223883   2.825   3.467   0.945 -1.4981 -0.6378 -0.1430
  774TIP3   OH223884   1.898   0.697   6.438 -0.9361  0.4719  0.4098
  774TIP3    H123885   1.829   0.670   6.378  0.4174 -1.3770 -0.4301
  774TIP3    H223886   1.952   0.758   6.386 -0.5722 -0.0133  0.2070
  775TIP3   OH223887   5.545   2.700   8.813  0.0481 -0.0892 -0.3116
  775TIP3    H123888   5.564   2.781   8.860  0.7991 -0.6226  0.3319
  775TIP3    H223889   5.611   2.697   8.743  0.5269 -0.5224  0.1493
  776TIP3   OH223890   4.648   5.372   7.496  0.1936 -0.8240 -0.0918
  776TIP3    H123891   4.558   5.399   7.475 -0.2840 -0.2100  2.4477
  776TIP3    H223892   4.683   5.340   7.413 -0.9024  2.8241 -2.1975
  777TIP3   OH223893   4.564   4.210   8.104  0.1866 -0.4556  0.8050
  777TIP3    H123894   4.521   4.127   8.121  0.5355 -0.6242  0.8840
  777TIP3    H223895   4.587   4.243   8.191 -2.0479  0.8831  0.9593
  778TIP3   OH223896   0.645   3.373   0.095 -0.0370 -0.1126 -0.0210
  778TIP3    H123897   0.570   3.430   0.076 -0.8656 -0.0382  2.9700
  778TIP3    H223898   0.717   3.433   0.111 -0.2694 -0.0026  0.6392
  779TIP3   OH223899   2.357   2.870   1.007 -0.3763  0.1267  0.0863
  779TIP3    H123900   2.313   2.822   0.937 -1.0840 -0.3347  0.8266
  779TIP3    H223901   2.450   2.853   0.993 -0.5562 -0.6161 -0.2848
  780TIP3   OH223902   1.620   2.286   7.625 -0.0597  0.3362  0.1441
  780TIP3    H123903   1.706   2.322   7.646 -0.4682  1.5144 -0.0893
  780TIP3    H223904   1.617   2.286   7.530 -0.3705  0.4687  0.1513
  781TIP3   OH223905   2.142   5.760   6.782 -0.2407  0.0690  0.2069
  781TIP3    H123906   2.123   5.848   6.815  1.1211  0.6371 -0.4823
  781TIP3    H223907   2.075   5.746   6.715 -0.7034  0.4190  0.5821
  782TIP3   OH223908   0.984   2.927   6.708 -0.1553  0.1911 -0.7147
  782TIP3    H123909   0.923   2.996   6.684  0.9118  0.7018 -2.1555
  782TIP3    H223910   1.061   2.944   6.653  1.3990 -0.2543  1.2175
  783TIP3   OH223911   1.623   1.566   0.135 -0.5323  0.2482 -0.1670
  783TIP3    H123912   1.600   1.544   0.225 -0.5783  1.3930  0.1159
  783TIP3    H223913   1.544   1.603   0.098 -0.2168  0.7563 -0.3453
  784TIP3   OH223914   5.179   5.797   7.359  0.2929 -0.5227  0.1014
  784TIP3    H123915   5.246   5.745   7.315 -0.6033 -1.3070 -0.3637
  784TIP3    H223916   5.159   5.750   7.439  0.4921 -0.1391  0.3822
  785TIP3   OH223917   6.401   0.962   8.058  0.3120  0.0368 -0.6133
  785TIP3    H123918   6.320   0.932   8.017 -1.4414  2.8206  0.5358
  785TIP3    H223919   6.405   0.914   8.141  0.5342 -0.9979 -1.2064
  786TIP3   OH223920   1.462   1.670   2.043  0.1902 -0.2527 -0.0596
  786TIP3    H123921   1.497   1.598   2.096 -1.2586  0.4539  1.9830
  786TIP3    H223922   1.513   1.746   2.069  0.1068 -0.0787 -0.4017
  787TIP3   OH223923   2.073   3.635   8.171  0.0810 -0.2216 -0.0856
  787TIP3    H123924   2.010   3.575   8.211  1.8415 -1.9610  0.2730
  787TIP3    H223925   2.158   3.602   8.200  1.1633  2.5206  0.1581
  788TIP3   OH223926   0.323   0.386   2.355  0.4416  1.3347 -0.4187
  788TIP3    H123927   0.417   0.399   2.365  0.7052 -0.7265  0.3284
  788TIP3    H223928   0.291   0.374   2.444 -0.9113  3.8859 -0.4805
  789TIP3   OH223929   3.605   1.996   0.893  0.0407  0.0805  0.0504
  789TIP3    H123930   3.574   2.070   0.945 -2.2568 -0.7839  0.0407
  789TIP3    H223931   3.610   1.923   0.955  0.1064 -0.2753 -0.3652
  790TIP3   OH223932   3.901   3.391   1.726  0.0807 -0.5612  0.6728
  790TIP3    H123933   3.932   3.446   1.797  0.0353  1.5301 -0.8317
  790TIP3    H223934   3.813   3.423   1.707  0.5303 -0.2334 -1.0757
  791TIP3   OH223935   6.404   3.920   0.400 -0.0912 -0.4779  0.1345
  791TIP3    H123936   6.433   3.974   0.327 -1.0909  0.0314  0.0969
  791TIP3    H223937   6.309   3.914   0.390 -0.2852 -0.1616  1.5471
  792TIP3   OH223938   2.058   4.045   1.438  0.3682  0.2023 -0.0827
  792TIP3    H123939   2.131   3.985   1.454  2.4427  3.0428  2.2834
  792TIP3    H223940   1.999   4.031   1.512 -0.3682 -0.5190 -0.7928
  793TIP3   OH223941   4.110   2.699   0.192  0.3358  0.6252  0.2599
  793TIP3    H123942   4.128   2.695   0.098 -1.2433  0.8069 -0.0771
  793TIP3    H223943   4.049   2.772   0.202 -1.0516 -0.5884  1.1402
  794TIP3   OH223944   3.867   4.221   1.369  0.2142  0.0188 -0.2497
  794TIP3    H123945   3.887   4.309   1.401  0.5828 -0.4190  0.7557
  794TIP3    H223946   3.809   4.184   1.435  1.0993 -0.9476  0.0049
  795TIP3   OH223947   1.281   5.777   0.515 -0.0970 -0.1957  0.4373
  795TIP3    H123948   1.221   5.713   0.552  1.2523 -0.9685  1.4179
  795TIP3    H223949   1.323   5.732   0.442  0.2111 -0.1437  0.5760
  796TIP3   OH223950   0.950   4.929   1.682 -0.3562  0.6595  0.2853
  796TIP3    H123951   0.908   4.979   1.612 -0.7483  0.3284  0.2810
  796TIP3    H223952   0.924   4.838   1.667  0.4436  0.4268  0.2242
  797TIP3   OH223953   6.002   1.107   8.192 -0.2078  0.1138 -0.2542
  797TIP3    H123954   6.048   1.025   8.212 -0.1703  0.1967  0.0047
  797TIP3    H223955   5.918   1.098   8.239 -0.3270  0.0956 -0.4704
  798TIP3   OH223956   1.474   3.889   8.782 -0.3607 -0.1738 -0.9345
  798TIP3    H123957   1.419   3.905   8.859 -0.2508 -0.5810 -0.7684
  798TIP3    H223958   1.509   3.801   8.796  0.6656  0.2362 -0.8205
  799TIP3   OH223959   4.992   1.379   8.666  0.0753 -0.3662 -0.3871
  799TIP3    H123960   4.954   1.301   8.706  2.1413 -0.9233  0.6476
  799TIP3    H223961   4.926   1.408   8.603 -1.5348 -1.8628  0.5031
  800TIP3   OH223962   6.381   4.167   7.170  0.0463 -0.7889  0.5151
  800TIP3    H123963   6.420   4.176   7.083 -0.7088 -2.4729 -0.0424
  800TIP3    H223964   6.292   4.202   7.160 -0.1102 -1.1721  0.5360
  801TIP3   OH223965   4.972   0.744   0.362 -0.5902  0.5475  0.3411
  801TIP3    H123966   4.967   0.664   0.415 -3.5685 -1.6395 -2.7895
  801TIP3    H223967   4.899   0.798   0.393  0.5024  1.4388  1.4460
  802TIP3   OH223968   5.542   1.574   0.316 -0.3241 -0.0420  0.2895
  802TIP3    H123969   5.632   1.583   0.346  0.0040 -1.6506 -0.1333
  802TIP3    H223970   5.493   1.549   0.394  0.2965 -2.8975 -0.1230
  803TIP3   OH223971   0.703   3.361   8.115  0.2693  0.1634  0.4672
  803TIP3    H123972   0.618   3.341   8.075  0.3728  0.7785 -0.0607
  803TIP3    H223973   0.721   3.285   8.170  0.0046 -0.5845 -0.4513
  804TIP3   OH223974   1.391   2.725   6.892 -0.1385 -0.2037 -0.1099
  804TIP3    H123975   1.483   2.699   6.889  0.1623  0.7564  0.2966
  804TIP3    H223976   1.355   2.695   6.809  0.7456  0.0910 -0.6163
  805TIP3   OH223977   6.448   5.763   1.817 -0.2288 -0.0557  0.1670
  805TIP3    H123978   6.415   5.802   1.898 -0.6779  0.5906 -0.3179
  805TIP3    H223979   6.491   5.835   1.771  0.7592 -0.6052  0.2013
  806TIP3   OH223980   3.593   4.280   7.810  0.2457  0.4489  0.2278
  806TIP3    H123981   3.595   4.276   7.906  0.3037 -2.0447  0.1710
  806TIP3    H223982   3.501   4.287   7.788  0.2122  0.7093  0.4319
  807TIP3   OH223983   2.864   5.687   8.203  0.1961  1.1339  0.1212
  807TIP3    H123984   2.944   5.694   8.151 -1.0824  0.3222 -2.0987
  807TIP3    H223985   2.847   5.593   8.209 -1.8820  1.2902 -1.7197
  808TIP3   OH223986   2.633   1.639   7.066 -0.5794 -0.2871  0.2267
  808TIP3    H123987   2.720   1.654   7.104 -0.8914 -2.6765  2.1408
  808TIP3    H223988   2.581   1.714   7.095  0.9056  1.5329 -1.5078
  809TIP3   OH223989   0.239   3.118   7.993 -0.1936 -0.0016  0.4705
  809TIP3    H123990   0.206   3.098   8.081 -0.2235 -1.1373  0.2124
  809TIP3    H223991   0.172   3.084   7.934 -0.8749  2.0086 -0.0099
  810TIP3   OH223992   4.514   1.319   8.499 -0.4967  0.0800 -0.6454
  810TIP3    H123993   4.563   1.309   8.417 -0.7679  2.1723 -1.1382
  810TIP3    H223994   4.425   1.343   8.471 -0.8722 -0.2103  0.2541
  811TIP3   OH223995   2.778   3.246   8.192 -0.3430  0.5101 -0.1741
  811TIP3    H123996   2.707   3.182   8.180 -0.3687  0.6349 -0.7280
  811TIP3    H223997   2.858   3.193   8.191 -0.3084  0.5554 -1.4529
  812TIP3   OH223998   5.134   1.621   7.714 -0.1034 -0.0180 -0.5040
  812TIP3    H123999   5.147   1.650   7.804 -0.5007 -1.0781 -0.0776
  812TIP3    H224000   5.154   1.527   7.717 -0.4575 -0.1317 -1.4478
  813TIP3   OH224001   5.600   5.100   6.714 -0.6502 -0.2229  0.1752
  813TIP3    H124002   5.614   5.012   6.681  0.9046 -0.5275  1.5478
  813TIP3    H224003   5.676   5.150   6.682 -0.5866  0.1575  0.8973
  814TIP3   OH224004   5.958   5.076   8.005  0.2067 -0.6422 -0.3089
  814TIP3    H124005   5.963   4.994   8.053  0.5668 -0.4701 -0.0443
  814TIP3    H224006   5.921   5.138   8.068  0.4817 -0.4657 -0.3193
  815TIP3   OH224007   6.751   0.570   7.897  0.7036  0.7056 -0.1412
  815TIP3    H124008   6.796   0.647   7.931  0.4352 -0.2093  2.4747
  815TIP3    H224009   6.821   0.505   7.885  0.7740  0.9719 -1.2282
  816TIP3   OH224010   6.494   3.382   0.276  0.6715 -0.0439 -0.1274
  816TIP3    H124011   6.499   3.424   0.190 -1.3910  0.0022 -0.2721
  816TIP3    H224012   6.529   3.294   0.261  0.5592  0.0387 -0.9505
  817TIP3   OH224013   0.606   0.426   2.283  0.2149  0.0385 -0.6424
  817TIP3    H124014   0.569   0.465   2.204 -0.8220 -0.6718 -0.5211
  817TIP3    H224015   0.677   0.369   2.250  1.1666  1.3131 -0.8789
  818TIP3   OH224016   2.512   5.663   8.134  0.1241  0.1036 -0.3817
  818TIP3    H124017   2.533   5.644   8.043  0.3053  0.6342 -0.4517
  818TIP3    H224018   2.543   5.585   8.182  1.3351  0.4193 -0.6049
  819TIP3   OH224019   5.182   6.221   0.771  0.1469  0.0784  0.3420
  819TIP3    H124020   5.152   6.186   0.854  1.9209 -0.9882  0.5973
  819TIP3    H224021   5.180   6.147   0.711  3.0513 -0.3560  0.6408
  820TIP3   OH224022   4.187   3.093   0.248  0.5200  0.2254 -0.3946
  820TIP3    H124023   4.146   3.162   0.195 -0.7288 -0.7662 -0.7976
  820TIP3    H224024   4.232   3.038   0.184 -1.2896 -1.1811 -0.5675
  821TIP3   OH224025   6.031   5.142   0.323  0.1299 -0.2606 -0.3722
  821TIP3    H124026   6.089   5.212   0.351 -2.2469  1.9598 -0.5604
  821TIP3    H224027   5.986   5.178   0.247 -2.0026 -1.4899  0.2190
  822TIP3   OH224028   4.029   3.505   0.054 -0.2289 -0.6974 -0.1653
  822TIP3    H124029   4.068   3.472   0.135  0.7627  0.0126 -0.3325
  822TIP3    H224030   3.935   3.509   0.072 -0.1116 -1.3503  0.6492
  823TIP3   OH224031   6.058   6.423   1.090  0.0202 -0.3383  0.1394
  823TIP3    H124032   6.070   6.402   1.183  0.1591  1.6357  0.5996
  823TIP3    H224033   6.131   6.380   1.046  0.7424 -0.1582  1.1289
  824TIP3   OH224034   5.077   3.436   0.754 -0.7345  0.5940  0.3517
  824TIP3    H124035   4.994   3.397   0.778 -0.5019 -0.2909 -0.2272
  824TIP3    H224036   5.100   3.492   0.828 -0.5943 -1.1496  1.6810
  825TIP3   OH224037   0.734   6.574   7.764 -0.2285 -0.5699 -0.1319
  825TIP3    H124038   0.652   6.525   7.762 -0.3056 -0.4443 -0.0756
  825TIP3    H224039   0.716   6.649   7.820 -0.1116 -0.4776 -0.2166
  826TIP3   OH224040   5.868   5.356   5.921 -0.0258  0.0404  0.2984
  826TIP3    H124041   5.929   5.385   5.988  0.2138  0.5512 -0.1331
  826TIP3    H224042   5.826   5.278   5.958  1.9643 -1.2547  0.0035
  827TIP3   OH224043   5.051   3.144   7.062  0.5569  0.2754  0.1556
  827TIP3    H124044   5.072   3.051   7.074  2.7726  0.9064  1.7581
  827TIP3    H224045   5.108   3.173   6.991  1.5052  0.8657  1.1294
  828TIP3   OH224046   2.285   2.273   7.138 -0.6390 -0.0731 -0.4990
  828TIP3    H124047   2.199   2.238   7.115 -0.8260 -1.1059  1.6154
  828TIP3    H224048   2.267   2.341   7.202  0.1096 -0.0905 -0.2647
  829TIP3   OH224049   6.570   1.199   8.750 -0.2531  0.1787 -0.3694
  829TIP3    H124050   6.592   1.192   8.657  1.0350 -1.4841  0.0028
  829TIP3    H224051   6.513   1.276   8.756  0.4526  0.9140 -2.3681
  830TIP3   OH224052   5.536   4.322   2.136 -0.0234  0.1712 -0.0698
  830TIP3    H124053   5.491   4.405   2.152 -1.6426 -0.9124  1.6146
  830TIP3    H224054   5.604   4.319   2.203 -0.2538 -0.0183  0.1617
  831TIP3   OH224055   1.067   4.032   8.270 -0.0330 -0.6512 -0.5327
  831TIP3    H124056   1.052   4.063   8.181 -1.8539 -3.4902 -1.3423
  831TIP3    H224057   1.099   3.942   8.259 -1.9331 -1.6997  1.6214
  832TIP3   OH224058   0.176   5.172   0.754  0.2365  0.8313  0.4423
  832TIP3    H124059   0.261   5.155   0.794  1.0338  1.4958 -0.8949
  832TIP3    H224060   0.164   5.102   0.690 -0.9125 -0.0739  1.5686
  833TIP3   OH224061   2.447   4.801   7.597  0.0668  0.8009  0.3491
  833TIP3    H124062   2.481   4.884   7.565 -0.3948  0.1293 -2.0885
  833TIP3    H224063   2.415   4.756   7.519 -3.3548 -0.0305  2.0349
  834TIP3   OH224064   3.487   6.121   1.516 -0.8074 -0.7033 -0.4971
  834TIP3    H124065   3.555   6.062   1.485 -0.6115 -0.6480 -0.1758
  834TIP3    H224066   3.526   6.209   1.507 -0.7031 -0.6954  0.0189
  835TIP3   OH224067   6.726   4.106   1.490 -0.2499 -0.1707 -0.0132
  835TIP3    H124068   6.746   4.199   1.504  1.7004 -0.5885  0.1944
  835TIP3    H224069   6.811   4.064   1.481 -1.1300 -1.6749 -2.1089
  836TIP3   OH224070   2.198   3.519   6.140  0.0237  0.2887 -0.1933
  836TIP3    H124071   2.198   3.612   6.118  0.0499  0.2055 -0.5547
  836TIP3    H224072   2.107   3.500   6.162 -0.0349  0.3396 -0.3868
  837TIP3   OH224073   2.622   3.468   1.962  0.1699  0.1196 -0.2685
  837TIP3    H124074   2.582   3.456   2.048 -0.9920  1.5540 -0.5686
  837TIP3    H224075   2.559   3.522   1.914  1.0332 -0.2309 -1.8531
  838TIP3   OH224076   1.577   2.555   7.752 -0.5547 -0.3454  0.1161
  838TIP3    H124077   1.502   2.525   7.802  0.7616  0.7733  2.9976
  838TIP3    H224078   1.649   2.498   7.778  0.2585  0.4849 -0.2247
  839TIP3   OH224079   0.430   3.911   8.063  0.1249  0.2239 -0.2436
  839TIP3    H124080   0.502   3.934   8.004 -0.2532 -1.2599 -1.3571
  839TIP3    H224081   0.418   3.817   8.050 -2.1632  0.4661 -0.2782
  840TIP3   OH224082   4.200   6.464   8.531 -0.4429  0.0577 -0.1896
  840TIP3    H124083   4.143   6.528   8.490 -1.0031  0.7588  1.5732
  840TIP3    H224084   4.259   6.516   8.586 -0.9886 -0.9076  1.3763
  841TIP3   OH224085   3.312   3.721   8.807 -0.0423  0.3001 -0.0443
  841TIP3    H124086   3.304   3.747   8.898 -0.8944 -1.9662  0.5835
  841TIP3    H224087   3.296   3.627   8.807  0.9447  0.0610 -2.4028
  842TIP3   OH224088   0.494   0.745   8.693 -0.7460  0.0963 -0.1959
  842TIP3    H124089   0.511   0.743   8.787  0.3902  0.1533 -0.3805
  842TIP3    H224090   0.449   0.828   8.678 -4.7519 -1.6235  0.8231
  843TIP3   OH224091   1.684   0.597   0.551  0.4636  0.3064  0.2557
  843TIP3    H124092   1.628   0.523   0.573 -2.1574  1.1729 -2.6229
  843TIP3    H224093   1.651   0.669   0.605 -0.4880  0.5241 -0.5811
  844TIP3   OH224094   5.828   1.730   1.033 -0.1579 -0.0457 -0.2940
  844TIP3    H124095   5.838   1.813   0.987  2.3201 -0.0445  0.1159
  844TIP3    H224096   5.880   1.668   0.982  0.6891 -0.5809  1.1537
  845TIP3   OH224097   4.039   5.598   0.868  0.0052 -0.2096 -0.1578
  845TIP3    H124098   3.979   5.548   0.923 -0.5663 -0.5400 -1.0669
  845TIP3    H224099   4.014   5.576   0.778  0.0843  1.3024 -0.5739
  846TIP3   OH224100   6.650   3.262   8.724  0.1959  0.2735 -0.3429
  846TIP3    H124101   6.557   3.241   8.718  0.4508 -1.2115  0.3979
  846TIP3    H224102   6.661   3.338   8.667 -1.7860  1.5724  0.8619
  847TIP3   OH224103   0.140   0.097   7.180  0.3908 -0.0577  0.1901
  847TIP3    H124104   0.207   0.133   7.237  0.0906 -0.1282  0.5966
  847TIP3    H224105   0.167   0.121   7.091 -0.2665  1.9958  0.4855
  848TIP3   OH224106   0.564   2.892   2.442  0.8787 -0.4547  0.4807
  848TIP3    H124107   0.530   2.837   2.512  1.0411 -0.2327  0.7352
  848TIP3    H224108   0.491   2.900   2.380  0.9944 -1.3130  0.2200
  849TIP3   OH224109   1.719   2.957   0.821 -0.2182  0.3910 -0.0649
  849TIP3    H124110   1.688   3.031   0.874  0.2005  0.1689  0.5018
  849TIP3    H224111   1.810   2.979   0.800 -0.6911  0.9886 -1.6250
  850TIP3   OH224112   2.625   2.877   6.241 -0.7989  0.3401 -0.6569
  850TIP3    H124113   2.694   2.818   6.211 -0.0477 -0.1645  1.8186
  850TIP3    H224114   2.544   2.838   6.208 -0.0335  0.3078 -2.6263
  851TIP3   OH224115   5.895   0.139   8.332 -0.6533 -0.0056 -0.4373
  851TIP3    H124116   5.932   0.156   8.419 -2.0509  2.4261 -0.2305
  851TIP3    H224117   5.803   0.167   8.339 -1.8076 -2.9811 -1.7733
  852TIP3   OH224118   6.525   2.269   0.736  0.1811  0.2469 -0.1531
  852TIP3    H124119   6.564   2.295   0.820 -2.4821  0.6908  1.0571
  852TIP3    H224120   6.541   2.343   0.678 -0.5653  1.2830  0.9198
  853TIP3   OH224121   4.801   4.456   1.585  0.1150  0.4058 -0.0902
  853TIP3    H124122   4.869   4.407   1.632 -0.0281 -0.5833 -0.8974
  853TIP3    H224123   4.849   4.518   1.530  0.3591 -0.1568 -0.5122
  854TIP3   OH224124   0.237   2.363   8.384  0.8820  0.2051 -0.2640
  854TIP3    H124125   0.159   2.313   8.409  0.2480  1.2841 -0.0201
  854TIP3    H224126   0.307   2.327   8.438  0.3870 -0.2631  0.0792
  855TIP3   OH224127   6.201   2.201   6.793 -0.6432  0.1865  0.0926
  855TIP3    H124128   6.109   2.176   6.788 -1.1310  1.9895 -0.8919
  855TIP3    H224129   6.247   2.131   6.748 -1.4098 -1.1676  1.3279
  856TIP3   OH224130   6.527   1.136   2.271 -0.2584 -0.5758 -0.4640
  856TIP3    H124131   6.444   1.178   2.253  0.2667  0.5630 -0.3314
  856TIP3    H224132   6.570   1.128   2.185 -0.4838 -1.1381 -0.5290
  857TIP3   OH224133   6.118   4.897   1.292  0.1600 -0.0491 -0.0341
  857TIP3    H124134   6.160   4.915   1.376  0.8899 -1.9002  0.0534
  857TIP3    H224135   6.026   4.880   1.314  0.4612 -1.0707  0.4932
  858TIP3   OH224136   0.741   1.524   6.906 -0.0691  0.2053  0.0679
  858TIP3    H124137   0.705   1.439   6.882 -0.9956  0.3517  0.8591
  858TIP3    H224138   0.777   1.512   6.994  1.7265  0.1106 -0.6376
  859TIP3   OH224139   4.788   2.033   1.060 -0.8554 -0.1786 -0.3802
  859TIP3    H124140   4.707   2.039   1.111 -0.1309  1.0385  0.6977
  859TIP3    H224141   4.798   1.940   1.040 -0.9376 -0.7942  2.1462
  860TIP3   OH224142   1.466   3.215   0.158  0.4226 -0.4048 -0.1999
  860TIP3    H124143   1.531   3.151   0.127  0.2142 -0.0753 -1.3753
  860TIP3    H224144   1.396   3.161   0.195 -1.1140 -1.1433 -3.7314
  861TIP3   OH224145   4.749   3.729   2.280  0.1213  0.4610 -0.0118
  861TIP3    H124146   4.789   3.643   2.267 -0.6884 -0.0320  0.5979
  861TIP3    H224147   4.709   3.723   2.367 -2.0360  0.5748 -0.9132
  862TIP3   OH224148   4.192   2.525   7.944  0.1625  0.3793  0.3220
  862TIP3    H124149   4.234   2.514   7.858 -1.5944  0.6303 -0.6177
  862TIP3    H224150   4.149   2.440   7.960 -1.0988  0.9409  0.0293
  863TIP3   OH224151   1.760   3.947   0.589  0.4203  0.0032 -0.2482
  863TIP3    H124152   1.665   3.934   0.584  0.4589 -0.3978 -0.0044
  863TIP3    H224153   1.776   4.026   0.538 -0.2946  1.2601  1.3660
  864TIP3   OH224154   3.822   1.887   0.743  0.4621 -0.6200  0.1350
  864TIP3    H124155   3.777   1.971   0.758 -0.2008 -0.7836 -0.8348
  864TIP3    H224156   3.767   1.823   0.788 -1.0056 -0.9825 -2.0219
  865TIP3   OH224157   5.395   6.711   6.860  0.0960  0.6342 -0.2093
  865TIP3    H124158   5.404   6.725   6.766 -0.9840 -1.3722 -0.6758
  865TIP3    H224159   5.435   6.626   6.876 -2.0830 -0.3167  0.6271
  866TIP3   OH224160   4.702   2.271   8.607 -0.1475  0.9063 -0.2982
  866TIP3    H124161   4.632   2.223   8.562  0.4114  1.3531 -1.6699
  866TIP3    H224162   4.732   2.336   8.544  2.2091  0.0622 -0.1459
  867TIP3   OH224163   3.601   4.721   0.233  0.1485  0.3286  0.4108
  867TIP3    H124164   3.612   4.712   0.328  1.3856  0.5698  0.3018
  867TIP3    H224165   3.652   4.649   0.196 -1.0153 -0.2900 -0.0746
  868TIP3   OH224166   4.974   0.686   0.093  0.2962 -0.1394 -0.1478
  868TIP3    H124167   4.968   0.734   0.176  0.4499 -0.9004  0.3100
  868TIP3    H224168   4.935   0.601   0.111 -1.7015  0.4396 -1.4778
  869TIP3   OH224169   1.658   5.816   6.506  0.2849  0.0444  0.2115
  869TIP3    H124170   1.683   5.886   6.446 -0.7527  0.4396  0.2282
  869TIP3    H224171   1.602   5.759   6.454 -2.9986  1.8815  1.4877
  870TIP3   OH224172   2.084   6.660   1.027 -0.3878 -0.6259  0.0992
  870TIP3    H124173   2.066   6.643   1.119 -2.6027 -0.8878 -0.3334
  870TIP3    H224174   2.090   6.755   1.020 -0.3150 -0.6021  0.4973
  871TIP3   OH224175   6.199   2.129   0.754  0.2541  0.1389  0.5365
  871TIP3    H124176   6.129   2.191   0.737  0.4878  0.3295  0.2633
  871TIP3    H224177   6.247   2.166   0.828  1.7586  1.4679 -1.0203
  872TIP3   OH224178   1.286   1.490   7.701  0.7423 -0.6622  0.2894
  872TIP3    H124179   1.233   1.435   7.643  0.1222  0.1995  0.0217
  872TIP3    H224180   1.363   1.512   7.649  0.5811 -0.5678  0.0900
  873TIP3   OH224181   1.821   6.366   1.256 -0.1247  0.5285 -0.2211
  873TIP3    H124182   1.761   6.300   1.290  0.0051 -0.0491 -1.0822
  873TIP3    H224183   1.907   6.340   1.289 -0.0263  0.0691 -0.8046
  874TIP3   OH224184   2.185   3.317   7.954  0.0580  0.2849  0.4628
  874TIP3    H124185   2.112   3.355   8.004  0.3929  1.0857  0.3586
  874TIP3    H224186   2.174   3.352   7.866  1.1881  1.2962  0.7083
  875TIP3   OH224187   0.529   4.486   1.669 -0.7208 -0.4636 -0.2519
  875TIP3    H124188   0.481   4.405   1.687 -2.1602  0.3339 -0.2949
  875TIP3    H224189   0.603   4.484   1.730 -0.7838 -1.7623 -0.1909
  876TIP3   OH224190   3.703   0.835   7.289 -0.1369  0.4148 -1.0656
  876TIP3    H124191   3.772   0.878   7.238  0.3461 -0.9234 -1.6010
  876TIP3    H224192   3.734   0.745   7.299 -0.8999  0.2870  0.3956
  877TIP3   OH224193   1.776   5.632   0.350 -0.0650  0.2472  0.0421
  877TIP3    H124194   1.744   5.655   0.263 -1.7224 -1.0916  0.2412
  877TIP3    H224195   1.728   5.690   0.409  0.3111  0.4626  0.1393
  878TIP3   OH224196   1.128   2.145   0.913 -0.1394 -0.2225  0.7373
  878TIP3    H124197   1.083   2.077   0.963 -1.4650  0.4967  0.5731
  878TIP3    H224198   1.110   2.226   0.961  0.0800  0.2216  0.0791
  879TIP3   OH224199   2.152   3.559   0.591 -0.1150  0.3908 -0.6168
  879TIP3    H124200   2.222   3.588   0.533 -0.2777  0.6825 -0.6726
  879TIP3    H224201   2.092   3.634   0.595  0.2340  0.6321  0.4661
  880TIP3   OH224202   5.484   5.496   1.906  0.1495  0.2666 -0.2236
  880TIP3    H124203   5.443   5.450   1.978 -0.6652 -1.5766 -1.7693
  880TIP3    H224204   5.578   5.490   1.924 -0.0632  2.5495  2.1856
  881TIP3   OH224205   4.472   0.267   6.275  0.1735  0.4396  0.2714
  881TIP3    H124206   4.547   0.324   6.290 -0.1760  0.7445  0.9257
  881TIP3    H224207   4.409   0.323   6.229  1.2105 -0.4695 -2.4483
  882TIP3   OH224208   2.653   5.428   0.319 -0.4381  0.1215  0.0340
  882TIP3    H124209   2.748   5.439   0.315 -0.5104  0.3722 -2.7871
  882TIP3    H224210   2.641   5.341   0.356  0.9216 -0.2056 -0.2366
  883TIP3   OH224211   6.240   2.919   7.623 -0.8734  0.1175 -0.5285
  883TIP3    H124212   6.296   2.946   7.550 -0.4849  1.0911  0.1066
  883TIP3    H224213   6.215   3.001   7.665  1.1236 -0.4608  2.0595
  884TIP3   OH224214   0.334   6.338   7.806 -0.0135  0.1345  0.3975
  884TIP3    H124215   0.350   6.250   7.774  0.4154  0.3656 -0.0285
  884TIP3    H224216   0.359   6.335   7.899 -1.0818 -0.4838  0.6761
  885TIP3   OH224217   5.317   5.536   8.304 -0.6800  0.3790  0.2188
  885TIP3    H124218   5.369   5.615   8.320 -0.2658  0.1312  0.1101
  885TIP3    H224219   5.271   5.553   8.222  0.0539  0.1739 -0.2394
  886TIP3   OH224220   3.791   4.498   6.540  0.1707  0.3256  0.8058
  886TIP3    H124221   3.775   4.509   6.446  1.7839 -0.9317  0.3480
  886TIP3    H224222   3.714   4.450   6.572  0.3439 -0.6550 -0.2038
  887TIP3   OH224223   1.797   0.405   1.245 -0.0232 -0.1331  0.2562
  887TIP3    H124224   1.720   0.359   1.278 -0.4292 -0.1139 -0.6350
  887TIP3    H224225   1.812   0.476   1.308 -0.3899 -0.4775  0.7342
  888TIP3   OH224226   5.239   5.944   0.121 -0.2373 -0.4647 -0.0490
  888TIP3    H124227   5.290   6.022   0.102 -1.0661  0.4015  1.0896
  888TIP3    H224228   5.300   5.886   0.166 -0.4085  0.9545  2.2031
  889TIP3   OH224229   3.663   4.997   1.476 -0.7480 -0.3116 -0.2857
  889TIP3    H124230   3.725   5.024   1.544 -0.6163 -0.9834 -0.1352
  889TIP3    H224231   3.688   5.049   1.399  0.4381 -1.0533 -0.4238
  890TIP3   OH224232   1.262   3.766   0.214  0.5737 -0.3051  0.4231
  890TIP3    H124233   1.282   3.674   0.233 -1.5159 -0.8385  0.3468
  890TIP3    H224234   1.265   3.809   0.300 -0.5065 -0.9268  0.8010
  891TIP3   OH224235   4.248   5.515   6.314 -0.4480 -0.5968 -0.2773
  891TIP3    H124236   4.270   5.604   6.286  2.0642 -0.9046  0.4213
  891TIP3    H224237   4.196   5.480   6.242  0.4759  0.6891 -1.6526
  892TIP3   OH224238   4.261   3.660   7.740 -0.7081  0.3038 -0.8282
  892TIP3    H124239   4.169   3.675   7.716 -0.1132  0.9539 -2.9240
  892TIP3    H224240   4.291   3.594   7.677  0.1094 -0.3774  0.2543
  893TIP3   OH224241   3.766   2.487   6.262 -0.5722  0.2893 -0.0518
  893TIP3    H124242   3.675   2.485   6.232 -0.1763 -1.2385 -1.2938
  893TIP3    H224243   3.785   2.397   6.288  0.8750  0.3603 -0.7659
  894TIP3   OH224244   5.650   4.001   7.685 -0.0611  0.2762  0.0210
  894TIP3    H124245   5.565   3.978   7.724  0.1130  0.0264  0.2602
  894TIP3    H224246   5.687   3.917   7.656  1.0268  0.0763  1.8054
  895TIP3   OH224247   6.465   3.518   1.650  0.0269  0.5214  0.2858
  895TIP3    H124248   6.518   3.589   1.616 -0.2056  0.4194 -0.3002
  895TIP3    H224249   6.383   3.524   1.601  0.5238 -1.0133 -0.7973
  896TIP3   OH224250   6.249   0.826   1.126  0.6072 -0.3261 -0.5140
  896TIP3    H124251   6.259   0.848   1.218 -0.0732  1.1780 -0.7775
  896TIP3    H224252   6.206   0.740   1.126  0.5331 -0.2943  0.5630
  897TIP3   OH224253   0.891   3.921   7.739 -0.0453 -0.7011 -0.3001
  897TIP3    H124254   0.893   4.013   7.715  2.6343  0.0489  2.1665
  897TIP3    H224255   0.934   3.875   7.667 -1.3841 -0.0683 -1.5350
  898TIP3   OH224256   5.374   3.561   8.311 -0.3338 -0.1522 -0.0301
  898TIP3    H124257   5.301   3.585   8.368 -1.0503  0.3330 -1.1333
  898TIP3    H224258   5.449   3.554   8.371 -0.9748  0.7580  0.9147
  899TIP3   OH224259   0.173   1.180   7.879 -0.2590 -0.2878 -0.1477
  899TIP3    H124260   0.195   1.127   7.956  1.5583 -1.6146 -1.4962
  899TIP3    H224261   0.152   1.115   7.811  0.9463  0.7248 -1.5455
  900TIP3   OH224262   5.276   3.291   8.251  0.3737  0.0944 -0.0574
  900TIP3    H124263   5.311   3.380   8.252 -0.3050  0.3686  0.2177
  900TIP3    H224264   5.353   3.235   8.259  0.8636  0.6290 -0.8697
  901TIP3   OH224265   3.112   6.604   2.322 -0.1277 -0.4346  0.0846
  901TIP3    H124266   3.189   6.657   2.301  0.3024 -0.3506  1.7532
  901TIP3    H224267   3.121   6.525   2.268  0.6066  0.0073 -0.4497
  902TIP3   OH224268   0.779   6.128   0.272 -0.5364 -0.4590  0.3519
  902TIP3    H124269   0.820   6.211   0.248 -0.8923 -0.2758  0.3672
  902TIP3    H224270   0.685   6.147   0.272 -0.5926 -0.7091  0.9176
  903TIP3   OH224271   0.949   0.973   1.259 -0.2227  0.5258  0.3393
  903TIP3    H124272   0.879   0.917   1.226 -1.0126  1.5202  0.2481
  903TIP3    H224273   0.939   1.055   1.209  2.9171 -0.2816 -1.9025
  904TIP3   OH224274   3.398   4.947   0.476  0.1539  1.0116  0.0609
  904TIP3    H124275   3.467   4.880   0.480  0.7695  1.7010  1.5660
  904TIP3    H224276   3.368   4.956   0.566 -1.1018  1.5770 -0.3909
  905TIP3   OH224277   4.962   2.323   7.702 -0.4268 -0.2771 -0.2858
  905TIP3    H124278   4.925   2.261   7.638 -1.0684  0.2986 -0.4850
  905TIP3    H224279   4.994   2.396   7.649  1.3513 -0.9235 -0.1435
  906TIP3   OH224280   4.963   2.877   1.732 -0.8263  0.0038  0.0878
  906TIP3    H124281   4.957   2.795   1.782 -3.9210  0.1916  0.2223
  906TIP3    H224282   4.913   2.940   1.784  3.3489  2.7949  1.2175
  907TIP3   OH224283   1.751   3.675   7.023  0.4818 -0.4849 -0.3143
  907TIP3    H124284   1.800   3.701   6.945  1.0347 -0.8196 -0.0839
  907TIP3    H224285   1.796   3.718   7.095 -0.6346  0.6535 -0.2568
  908TIP3   OH224286   0.029   0.541   1.896 -0.1288 -0.7680 -0.0976
  908TIP3    H124287  -0.002   0.533   1.986  1.2323 -0.5873  0.4080
  908TIP3    H224288   0.023   0.634   1.876 -0.3755 -0.8001 -0.1725
  909TIP3   OH224289   6.529   1.827   1.498  0.0133 -0.1903 -0.3424
  909TIP3    H124290   6.505   1.891   1.431  3.4193  0.0579 -1.5172
  909TIP3    H224291   6.509   1.870   1.581  0.4889  1.6653 -1.1465
  910TIP3   OH224292   6.533   3.149   2.309  1.0597 -0.3504 -0.3073
  910TIP3    H124293   6.461   3.132   2.249 -0.4394  0.5910  1.1208
  910TIP3    H224294   6.546   3.243   2.305  0.8121 -0.2448  0.9347
  911TIP3   OH224295   2.021   2.599   7.284 -0.0399  0.2096 -0.1240
  911TIP3    H124296   1.950   2.633   7.339  0.1030 -1.3814  1.1096
  911TIP3    H224297   2.003   2.636   7.198 -1.8869  0.5312  0.3393
  912TIP3   OH224298   6.385   0.324   1.571  0.3534 -0.1625  0.6144
  912TIP3    H124299   6.304   0.321   1.622 -0.2028  0.0770 -0.2287
  912TIP3    H224300   6.420   0.236   1.576  0.5096 -0.0551  1.7140
  913TIP3   OH224301   1.712   6.177   8.462 -0.3894  0.3155 -0.3080
  913TIP3    H124302   1.692   6.136   8.378 -0.4584 -1.5978  0.5998
  913TIP3    H224303   1.677   6.117   8.527 -1.0918  2.1663  1.1125
  914TIP3   OH224304   1.216   2.317   0.105  0.4071 -0.0374  0.0716
  914TIP3    H124305   1.257   2.262   0.172  1.5306  0.1023 -0.4820
  914TIP3    H224306   1.154   2.259   0.061 -0.1860 -0.1885  1.0742
  915TIP3   OH224307   0.628   0.972   8.134 -0.3333 -0.3200 -0.0259
  915TIP3    H124308   0.700   1.034   8.143  0.4009 -0.4145 -3.7005
  915TIP3    H224309   0.659   0.892   8.176  0.4879  0.4948  0.9563
  916TIP3   OH224310   4.745   0.437   8.781  0.2971 -0.2883  0.2869
  916TIP3    H124311   4.840   0.435   8.791  0.4572 -0.9888 -1.1801
  916TIP3    H224312   4.718   0.346   8.794  0.1533 -0.6033 -1.8743
  917TIP3   OH224313   1.014   4.944   6.944 -0.5392  0.2911  0.1527
  917TIP3    H124314   1.034   4.911   6.856  0.2685  2.1787 -0.4367
  917TIP3    H224315   0.925   4.915   6.961 -0.9833  0.4943 -1.6281
  918TIP3   OH224316   1.331   6.237   7.299 -0.0103  0.2865  0.1118
  918TIP3    H124317   1.271   6.309   7.278 -0.9453 -0.1829  1.0839
  918TIP3    H224318   1.417   6.269   7.272 -0.8587  0.3600 -2.8205
  919TIP3   OH224319   6.152   1.200   6.833 -0.2267 -0.0594 -0.7204
  919TIP3    H124320   6.188   1.259   6.767 -0.6398 -0.3497 -1.2131
  919TIP3    H224321   6.225   1.142   6.856  0.2244  0.7106 -0.1316
  920TIP3   OH224322   1.833   5.070   7.598 -0.1625 -0.0883  0.4661
  920TIP3    H124323   1.834   4.993   7.540  0.2313 -2.0268  2.8559
  920TIP3    H224324   1.873   5.139   7.547  0.7662 -1.8684 -1.3593
  921TIP3   OH224325   0.670   4.711   8.217  0.2190  0.0361  0.4410
  921TIP3    H124326   0.592   4.762   8.241  0.1669 -0.1745  0.7135
  921TIP3    H224327   0.637   4.622   8.204  0.5459 -0.2152  1.3072
  922TIP3   OH224328   1.453   4.649   6.553 -0.4105 -0.6471  0.0499
  922TIP3    H124329   1.489   4.713   6.614 -0.5692 -0.4304 -0.0823
  922TIP3    H224330   1.521   4.583   6.544 -0.2602 -0.5146  0.2140
  923TIP3   OH224331   6.577   0.665   0.015  0.0103  0.1051  0.1707
  923TIP3    H124332   6.577   0.677   0.110 -0.0392  0.7459  0.0953
  923TIP3    H224333   6.545   0.748  -0.019  1.8191  0.5746 -0.4951
  924TIP3   OH224334   1.386   0.696   6.650  0.3717  0.7143  0.2705
  924TIP3    H124335   1.297   0.674   6.623  0.8087  0.1096 -0.7588
  924TIP3    H224336   1.440   0.672   6.574  1.6976 -1.2297  1.7430
  925TIP3   OH224337   4.092   2.418   0.234  0.4723  0.4065 -0.2703
  925TIP3    H124338   4.065   2.503   0.200 -1.5863 -0.0390  0.1292
  925TIP3    H224339   4.097   2.429   0.329  1.8094  0.4815 -0.3306
  926TIP3   OH224340   2.037   1.897   8.483 -0.1460 -0.3886  0.4102
  926TIP3    H124341   2.099   1.958   8.443  0.7202 -2.3239 -1.4172
  926TIP3    H224342   1.952   1.940   8.475  0.4042  0.4997 -1.0075
  927TIP3   OH224343   5.300   2.670   1.309 -0.0297  0.0195  0.1229
  927TIP3    H124344   5.212   2.662   1.272  0.4214 -1.0886 -0.7982
  927TIP3    H224345   5.329   2.757   1.283 -0.3080 -0.1655 -0.8516
  928TIP3   OH224346   2.907   6.264   1.215  0.2241  0.1071  0.1990
  928TIP3    H124347   2.888   6.315   1.294 -1.6787 -2.3115  1.4308
  928TIP3    H224348   2.823   6.223   1.192  0.5723  1.0649 -3.4253
  929TIP3   OH224349   6.594   3.444   7.132  0.2381  0.3545  0.1688
  929TIP3    H124350   6.591   3.533   7.097  0.7447  0.3066 -0.0018
  929TIP3    H224351   6.678   3.409   7.102  1.0025  0.5338  1.9876
  930TIP3   OH224352   6.719   6.193   2.403 -0.3541  0.3970  0.0933
  930TIP3    H124353   6.808   6.228   2.395  0.2371 -0.6398  1.7900
  930TIP3    H224354   6.669   6.263   2.445 -0.4085  1.0440 -1.0126
  931TIP3   OH224355   2.660   3.504   0.708  0.3168  0.2929 -0.1553
  931TIP3    H124356   2.712   3.488   0.628 -1.6553 -1.1275 -1.2296
  931TIP3    H224357   2.696   3.586   0.743  3.3937 -0.6893 -0.6900
  932TIP3   OH224358   6.693   6.490   0.794 -0.5184  0.1907 -0.1348
  932TIP3    H124359   6.784   6.513   0.816 -0.5620  0.2389 -0.0045
  932TIP3    H224360   6.649   6.575   0.787 -0.4257  0.1946 -0.7523
  933TIP3   OH224361   4.105   2.083   7.743 -0.4685 -0.4557  0.1831
  933TIP3    H124362   4.049   2.032   7.801 -1.7193 -0.6903 -1.1759
  933TIP3    H224363   4.047   2.148   7.704  0.5719  0.3919 -0.0158
  934TIP3   OH224364   2.072   6.580   7.339  0.3483 -0.2972  0.1899
  934TIP3    H124365   2.060   6.492   7.376 -0.0474  0.4477  1.9357
  934TIP3    H224366   1.995   6.629   7.368  0.2583  0.4793 -1.2798
  935TIP3   OH224367   1.066   2.470   1.361  0.0372 -0.5140  0.0579
  935TIP3    H124368   1.033   2.504   1.444  1.1717  1.0775 -0.0924
  935TIP3    H224369   0.989   2.437   1.316 -0.8442  0.1021  1.0690
  936TIP3   OH224370   4.340   4.896   7.960 -0.0220 -0.4759 -0.4033
  936TIP3    H124371   4.281   4.890   8.035  0.1707 -0.9706 -0.2915
  936TIP3    H224372   4.423   4.859   7.991 -0.4057 -2.2060 -1.3442
  937TIP3   OH224373   6.299   6.466   0.048  0.2893 -0.2795 -0.5619
  937TIP3    H124374   6.365   6.405   0.014 -0.0615 -1.3130  0.5478
  937TIP3    H224375   6.264   6.509  -0.030 -0.1687 -2.2405 -1.4938
  938TIP3   OH224376   2.030   1.441   7.292 -0.0696  0.4860 -0.5620
  938TIP3    H124377   2.041   1.512   7.229  0.6319  1.4016  0.5450
  938TIP3    H224378   1.992   1.483   7.369  1.1745 -0.1419  0.4325
  939TIP3   OH224379   4.943   5.928   6.751 -0.7980  0.6277 -0.0898
  939TIP3    H124380   5.026   5.972   6.734  0.3880 -1.4168  0.1434
  939TIP3    H224381   4.879   5.999   6.755  0.9487  2.2755 -0.0598
  940TIP3   OH224382   4.504   0.836   1.236 -0.0138 -0.4154 -0.2205
  940TIP3    H124383   4.420   0.817   1.275 -0.5071 -0.2640 -1.1665
  940TIP3    H224384   4.495   0.925   1.201 -0.3407 -1.2727 -2.5096
  941TIP3   OH224385   4.944   5.135   0.532 -0.2080  0.0912 -0.0298
  941TIP3    H124386   4.908   5.094   0.454  1.6027  1.0520 -1.4531
  941TIP3    H224387   5.029   5.092   0.544 -0.1444  0.4661  0.9882
  942TIP3   OH224388   3.929   3.402   6.915 -0.2472  0.1998 -0.6495
  942TIP3    H124389   3.980   3.453   6.978 -0.4999  0.7359 -0.8679
  942TIP3    H224390   3.934   3.454   6.834  0.6912 -0.8335 -1.2850
  943TIP3   OH224391   2.594   3.585   8.578  0.7673 -0.0934  0.0389
  943TIP3    H124392   2.640   3.667   8.558 -0.1793  0.3641 -0.3181
  943TIP3    H224393   2.519   3.612   8.631  1.2680 -0.9080  1.2000
  944TIP3   OH224394   2.372   2.993   8.545 -0.7956 -0.6351  0.8971
  944TIP3    H124395   2.448   2.957   8.590  1.4727  1.1567 -1.2065
  944TIP3    H224396   2.344   3.066   8.600  0.3968 -0.0005  0.7025
  945TIP3   OH224397   4.631   5.225   0.791  0.6158  0.5041  0.3489
  945TIP3    H124398   4.563   5.192   0.849  1.7168  0.8690  1.9182
  945TIP3    H224399   4.647   5.315   0.821  0.8919  0.8664 -0.8369
  946TIP3   OH224400   4.050   5.564   7.744  0.3501  0.3592  0.1745
  946TIP3    H124401   4.029   5.471   7.759 -1.2512  0.8401  1.1440
  946TIP3    H224402   4.127   5.580   7.799 -0.9113  0.2114  2.0752
  947TIP3   OH224403   4.396   2.797   8.608 -0.3448  0.3268 -0.0040
  947TIP3    H124404   4.431   2.797   8.519 -0.5443  3.6978 -0.2150
  947TIP3    H224405   4.327   2.731   8.606  0.3819 -0.4537 -2.0200
  948TIP3   OH224406   2.616   4.327   1.221 -0.5170 -0.1682  0.2312
  948TIP3    H124407   2.606   4.418   1.247 -1.5642 -1.0745  3.3357
  948TIP3    H224408   2.536   4.307   1.172 -0.6017  0.3450  0.1507
  949TIP3   OH224409   3.022   0.347   0.016 -0.1184 -0.4366  0.1712
  949TIP3    H124410   2.948   0.403  -0.005 -0.1145 -0.0972  1.0632
  949TIP3    H224411   3.005   0.266  -0.033 -0.7614 -0.1350 -0.1118
  950TIP3   OH224412   4.690   4.982   7.104  0.3691 -0.4859 -0.3478
  950TIP3    H124413   4.649   4.935   7.031  0.2827 -0.7915 -0.1028
  950TIP3    H224414   4.748   5.046   7.061  0.4144 -0.7482 -0.6834
  951TIP3   OH224415   0.561   2.392   7.230 -0.6422 -0.0109 -0.6409
  951TIP3    H124416   0.551   2.300   7.206 -0.0494  0.0128 -1.0126
  951TIP3    H224417   0.513   2.439   7.162  0.9946  0.0525 -1.8403
  952TIP3   OH224418   4.380   2.718   6.740  0.4652  0.0812 -0.2796
  952TIP3    H124419   4.416   2.804   6.763  0.5808  0.1266 -0.6150
  952TIP3    H224420   4.355   2.727   6.647 -0.8419  0.1950  0.0618
  953TIP3   OH224421   2.764   1.075   0.322  0.1610  0.4024 -0.2717
  953TIP3    H124422   2.692   1.100   0.380 -0.0291 -1.3221  0.2758
  953TIP3    H224423   2.820   1.020   0.375 -0.2060 -1.5431 -1.7814
  954TIP3   OH224424   3.668   4.567   6.300  0.4044  0.3099  0.3065
  954TIP3    H124425   3.606   4.509   6.256  1.2754 -1.1766  0.9583
  954TIP3    H224426   3.621   4.595   6.380 -0.1056  0.7189 -0.1255
  955TIP3   OH224427   0.914   3.640   1.324  0.2630  0.3202  0.1887
  955TIP3    H124428   0.864   3.587   1.260  2.6509 -1.8853 -0.0248
  955TIP3    H224429   0.942   3.717   1.275  0.8402 -0.6439 -1.0516
  956TIP3   OH224430   3.254   3.910   1.417 -0.0265 -0.0766 -0.4826
  956TIP3    H124431   3.237   3.950   1.502 -0.1031 -2.9899  1.0082
  956TIP3    H224432   3.169   3.877   1.388  0.3082 -0.6858 -0.7954
  957TIP3   OH224433   0.247   3.408   1.787  0.6754 -0.9930  0.3691
  957TIP3    H124434   0.217   3.345   1.721 -0.1360  3.1972 -3.8114
  957TIP3    H224435   0.172   3.419   1.845 -0.4670 -1.3815 -0.9765
  958TIP3   OH224436   3.537   0.305   8.521  0.0093  0.1592  0.2620
  958TIP3    H124437   3.531   0.333   8.612  3.4064  0.3883  0.5624
  958TIP3    H224438   3.558   0.385   8.473  1.1838 -0.4108 -0.2186
  959TIP3   OH224439   0.853   4.622   0.473 -0.1457 -0.3360 -0.2546
  959TIP3    H124440   0.870   4.533   0.444 -1.1044 -0.6007 -0.0453
  959TIP3    H224441   0.880   4.623   0.565  2.3216  0.3354 -0.9196
  960TIP3   OH224442   1.398   4.588   7.439  0.1133  0.1398  0.1353
  960TIP3    H124443   1.352   4.668   7.413 -1.0844 -0.4474  0.3921
  960TIP3    H224444   1.377   4.578   7.532  0.2849 -0.4593  0.1120
  961TIP3   OH224445   0.952   3.593   8.274 -0.0744 -0.5524 -0.3599
  961TIP3    H124446   1.024   3.656   8.272 -2.4794  2.6115  1.9328
  961TIP3    H224447   0.921   3.590   8.184  0.5415  1.1079 -0.6757
  962TIP3   OH224448   5.338   4.175   0.538  0.2432  0.5502  0.6366
  962TIP3    H124449   5.257   4.129   0.519  0.9253 -0.0376 -1.0681
  962TIP3    H224450   5.375   4.130   0.613 -0.6210  0.3396  0.9465
  963TIP3   OH224451   0.067   1.429   7.995 -0.5283 -0.3468  0.6565
  963TIP3    H124452   0.114   1.351   7.965 -0.6256  0.4988 -1.9304
  963TIP3    H224453  -0.025   1.407   7.981 -0.5123  0.6322 -1.4021
  964TIP3   OH224454   3.618   4.719   0.853 -0.9761  0.0640  0.6861
  964TIP3    H124455   3.591   4.629   0.835 -1.6455 -0.0675  2.1417
  964TIP3    H224456   3.541   4.772   0.831 -0.3441  0.3976 -0.8609
  965TIP3   OH224457   5.677   3.651   1.144 -0.3251  0.1388  0.1497
  965TIP3    H124458   5.625   3.621   1.069 -0.2868 -1.6770  0.8017
  965TIP3    H224459   5.730   3.723   1.109  0.2803 -1.1743 -1.7790
  966TIP3   OH224460   5.927   5.086   7.114 -0.3218 -0.1117  0.3707
  966TIP3    H124461   5.899   5.125   7.031 -0.2895 -0.1728  0.3312
  966TIP3    H224462   5.995   5.023   7.090 -0.2319 -0.0497  0.4532
  967TIP3   OH224463   0.225   4.249   1.302 -0.4013 -0.2888 -0.4089
  967TIP3    H124464   0.197   4.269   1.391 -0.4833 -0.7287 -0.3373
  967TIP3    H224465   0.320   4.243   1.307 -0.5111 -2.2518  0.0531
  968TIP3   OH224466   5.211   2.148   1.673 -0.1112  0.4584  0.2682
  968TIP3    H124467   5.282   2.156   1.609 -0.0022 -1.9399 -0.0141
  968TIP3    H224468   5.217   2.227   1.726  0.4354  2.0568 -2.0318
  969TIP3   OH224469   6.425   6.369   2.259 -0.4944 -0.0291  0.2364
  969TIP3    H124470   6.519   6.376   2.246 -0.1965 -3.4354 -0.1215
  969TIP3    H224471   6.395   6.460   2.263  2.3839  1.2164 -2.4668
  970TIP3   OH224472   0.861   3.582   2.029  0.2076 -0.3138 -0.1319
  970TIP3    H124473   0.864   3.488   2.014  1.3350 -0.0707 -1.8274
  970TIP3    H224474   0.952   3.610   2.018 -0.1347  0.9882  0.2123
  971TIP3   OH224475   6.091   5.997   7.495  0.0880 -0.4714  0.2337
  971TIP3    H124476   6.060   6.086   7.477  1.7493 -0.1435 -1.2940
  971TIP3    H224477   6.127   6.002   7.583  1.2748  0.7443 -0.2791
  972TIP3   OH224478   5.696   1.075   1.420 -0.4519  0.4359 -0.5163
  972TIP3    H124479   5.616   1.025   1.435 -0.4585  0.5126 -0.2942
  972TIP3    H224480   5.697   1.089   1.325 -0.4513  0.0221 -0.5781
  973TIP3   OH224481   1.058   6.595   1.903 -0.0520  0.3758 -0.1874
  973TIP3    H124482   1.039   6.652   1.829 -1.6346 -1.3856 -1.2183
  973TIP3    H224483   1.027   6.508   1.876  3.5864 -1.4105  0.6889
  974TIP3   OH224484   6.664   5.754   2.419 -0.2254  0.5967  0.7410
  974TIP3    H124485   6.577   5.720   2.397 -0.6170  1.8486  0.2713
  974TIP3    H224486   6.648   5.820   2.487  0.4774  0.1144  1.3963
  975TIP3   OH224487   1.941   5.430   1.970  0.8435  0.0259  0.7229
  975TIP3    H124488   1.958   5.480   1.890 -0.1636 -1.0128 -0.1659
  975TIP3    H224489   2.024   5.386   1.988  0.5832 -1.2512 -0.8833
  976TIP3   OH224490   4.229   3.059   1.240  0.1574  0.6218  0.3753
  976TIP3    H124491   4.191   3.095   1.321  1.4839 -0.3084  1.4682
  976TIP3    H224492   4.269   2.977   1.268  1.0572  0.5136 -1.1580
  977TIP3   OH224493   2.291   6.104   7.341 -0.4407  0.5659  0.6391
  977TIP3    H124494   2.352   6.177   7.335  0.1535  0.0921  0.8824
  977TIP3    H224495   2.319   6.055   7.419 -0.5133 -0.2064  0.1877
  978TIP3   OH224496   6.656   2.097   0.504 -0.1308 -0.6362 -0.3054
  978TIP3    H124497   6.603   2.175   0.520  0.1994 -0.6000  0.6546
  978TIP3    H224498   6.662   2.092   0.408 -0.5981  0.2133 -0.3925
  979TIP3   OH224499   3.201   5.915   1.082 -0.1098  0.1073 -0.4766
  979TIP3    H124500   3.211   5.823   1.103  1.5114  0.0839 -1.1967
  979TIP3    H224501   3.241   5.962   1.155 -2.7690  0.3875  0.9408
  980TIP3   OH224502   0.356   3.829   6.514  0.4247 -0.3268 -0.5723
  980TIP3    H124503   0.353   3.917   6.476 -2.2039  0.7247  1.7180
  980TIP3    H224504   0.300   3.776   6.457 -1.0848  0.5055  0.0572
  981TIP3   OH224505   2.597   1.533   1.013 -0.4127 -0.6645 -0.4706
  981TIP3    H124506   2.527   1.472   1.037 -0.1299 -1.0751 -0.6769
  981TIP3    H224507   2.578   1.612   1.063  0.3906 -1.6407  1.5014
  982TIP3   OH224508   0.047   0.530   8.394 -0.8058 -0.4677 -0.0982
  982TIP3    H124509   0.084   0.450   8.359 -1.6584 -1.2162  0.6440
  982TIP3    H224510  -0.013   0.561   8.326 -0.0329 -0.1256 -0.6312
  983TIP3   OH224511   3.751   4.866   7.655 -0.3261  0.1833 -0.0789
  983TIP3    H124512   3.770   4.826   7.571 -0.0846  1.2878 -0.5663
  983TIP3    H224513   3.837   4.880   7.696 -0.1399  2.6962 -1.1216
  984TIP3   OH224514   0.625   2.509   2.097  0.2136 -0.0150  0.3504
  984TIP3    H124515   0.635   2.596   2.136 -0.8386  1.0801 -1.6603
  984TIP3    H224516   0.603   2.452   2.170 -0.8297  1.7568  1.4870
  985TIP3   OH224517   6.060   1.812   2.129 -0.6405  0.1036  0.4963
  985TIP3    H124518   5.985   1.864   2.156 -0.8269 -0.6222  1.4121
  985TIP3    H224519   6.030   1.721   2.137  0.0737 -0.1734  0.0924
  986TIP3   OH224520   1.589   5.964   8.612  0.0760 -0.8397  0.3768
  986TIP3    H124521   1.513   5.906   8.608 -1.3124  0.9381 -0.5485
  986TIP3    H224522   1.660   5.913   8.572 -1.2292 -1.7078 -0.9563
  987TIP3   OH224523   1.955   3.740   1.418  0.1707  0.8856 -0.0376
  987TIP3    H124524   1.989   3.761   1.505 -0.0577 -0.2167  0.3386
  987TIP3    H224525   1.865   3.712   1.434  0.9587 -2.1566 -0.1738
  988TIP3   OH224526   6.019   6.179   1.469  0.1760  0.1466  0.7942
  988TIP3    H124527   5.936   6.217   1.499  0.1005  1.3130 -0.7942
  988TIP3    H224528   6.044   6.232   1.393  1.1132 -1.7438 -0.2771
  989TIP3   OH224529   3.099   5.053   7.682  0.0075  0.6431 -0.2276
  989TIP3    H124530   3.120   4.965   7.714 -0.0451  0.2613 -1.1983
  989TIP3    H224531   3.166   5.109   7.720  1.0848 -0.0968 -0.9460
  990TIP3   OH224532   2.442   4.479   2.252 -0.3049  0.4155 -0.2444
  990TIP3    H124533   2.464   4.559   2.300 -0.3955 -0.5794  1.5430
  990TIP3    H224534   2.347   4.471   2.262 -0.0044 -1.2080  1.7896
  991TIP3   OH224535   2.112   5.463   1.158 -0.4084 -0.2538 -0.6481
  991TIP3    H124536   2.160   5.524   1.103  0.9380  0.1847  0.9223
  991TIP3    H224537   2.031   5.509   1.181 -0.3701  0.0772 -1.1678
  992TIP3   OH224538   6.440   1.825   0.332  0.1071  0.1726 -0.1239
  992TIP3    H124539   6.445   1.913   0.297 -1.0655  0.3293  0.0474
  992TIP3    H224540   6.383   1.778   0.271 -1.1147  0.1722  0.9514
  993TIP3   OH224541   1.542   2.807   7.632  0.1195 -0.2838 -0.1634
  993TIP3    H124542   1.522   2.834   7.721  1.6889  1.0210 -0.1719
  993TIP3    H224543   1.570   2.716   7.640 -0.6214 -0.4640  0.5270
  994TIP3   OH224544   0.053   5.708   7.433  0.1769  0.2382 -0.3040
  994TIP3    H124545   0.097   5.708   7.348  0.5783 -2.7065 -0.1929
  994TIP3    H224546   0.112   5.660   7.491 -1.9476 -1.5988  0.4970
  995TIP3   OH224547   1.849   2.612   8.251  0.2135 -0.4335 -0.5581
  995TIP3    H124548   1.892   2.604   8.336  0.7318  0.9012 -0.6782
  995TIP3    H224549   1.781   2.678   8.264 -0.2619 -0.8259 -0.9764
  996TIP3   OH224550   5.098   3.335   1.046  0.0295 -0.5880 -0.2701
  996TIP3    H124551   5.013   3.368   1.016 -0.9020 -0.5251  2.2128
  996TIP3    H224552   5.148   3.413   1.067  1.2076 -0.5690 -2.6970
  997TIP3   OH224553   2.131   6.459   1.516 -0.5285 -0.2546 -0.2779
  997TIP3    H124554   2.183   6.412   1.581 -1.2197  1.1488  1.3743
  997TIP3    H224555   2.091   6.391   1.462  2.0934 -1.4142 -0.9300
  998TIP3   OH224556   0.491   1.718   1.558  0.4019  0.0139  0.2303
  998TIP3    H124557   0.476   1.741   1.467 -2.0276 -1.0715  0.2816
  998TIP3    H224558   0.556   1.647   1.554 -1.3792 -1.6617 -0.9163
  999TIP3   OH224559   5.017   4.335   6.313  0.1012 -0.5481  0.7115
  999TIP3    H124560   4.994   4.318   6.222 -2.8176 -0.2987  1.3166
  999TIP3    H224561   5.035   4.429   6.316 -3.0333  0.1442  0.8905
 1000TIP3   OH224562   3.797   0.523   6.349  0.2471 -0.4622 -0.3803
 1000TIP3    H124563   3.803   0.617   6.331 -0.7079  0.3032  2.6790
 1000TIP3    H224564   3.885   0.489   6.330  1.3830  1.5897  0.8671
 1001TIP3   OH224565   6.343   6.289   8.275 -0.8495  0.5288  0.0927
 1001TIP3    H124566   6.253   6.321   8.266 -0.7820  0.4513 -0.9894
 1001TIP3    H224567   6.350   6.219   8.210 -0.0419  0.4651  0.2434
 1002TIP3   OH224568   4.288   4.739   1.364  0.5664  0.2749  0.4444
 1002TIP3    H124569   4.345   4.694   1.301  0.3473  1.6469 -0.8090
 1002TIP3    H224570   4.338   4.742   1.445  1.0494 -1.1472  0.2258
 1003TIP3   OH224571   4.256   0.988   6.647 -0.1768 -0.2849  0.0953
 1003TIP3    H124572   4.338   0.950   6.679 -0.4001  0.2804  1.3987
 1003TIP3    H224573   4.216   0.918   6.594  0.4867 -1.0508  0.5850
 1004TIP3   OH224574   4.164   1.013   6.249 -0.2205  0.4026 -0.0308
 1004TIP3    H124575   4.104   1.001   6.176 -0.1168  0.6609 -0.1580
 1004TIP3    H224576   4.110   1.054   6.317 -0.5154 -0.5397  0.3188
 1005TIP3   OH224577   3.981   3.827   2.441  0.2626  0.1109 -0.0999
 1005TIP3    H124578   3.934   3.876   2.374 -1.8614 -0.0946  1.1456
 1005TIP3    H224579   3.985   3.886   2.516  1.4533 -0.1261  0.0434
 1006TIP3   OH224580   4.029   4.934   8.470  0.3250  0.1685 -0.2994
 1006TIP3    H124581   3.958   4.888   8.515  1.4987 -0.2264  1.2590
 1006TIP3    H224582   3.992   4.958   8.385 -2.0013  0.9042  0.8313
 1007TIP3   OH224583   5.074   3.939   1.841 -0.4280  0.0694  0.0336
 1007TIP3    H124584   5.147   3.893   1.799 -0.1331  0.0927  0.5102
 1007TIP3    H224585   5.116   3.991   1.910 -0.8908  0.1483  0.2557
 1008TIP3   OH224586   6.216   3.422   0.285  0.3836 -0.0215  0.6608
 1008TIP3    H124587   6.215   3.505   0.238 -0.3417 -0.1016  0.5277
 1008TIP3    H224588   6.309   3.398   0.289  0.6881  1.1922  1.4126
 1009TIP3   OH224589   1.983   5.201   0.295  0.0703 -0.4454  0.3698
 1009TIP3    H124590   1.963   5.291   0.324 -2.1804 -1.4321  2.1621
 1009TIP3    H224591   2.035   5.213   0.215 -1.9330  2.4541 -0.6706
 1010TIP3   OH224592   6.799   2.526   7.083 -0.4826 -0.1489 -0.6928
 1010TIP3    H124593   6.874   2.538   7.025 -0.3698  2.7688 -0.0707
 1010TIP3    H224594   6.733   2.587   7.051 -1.5234 -0.6025  0.5082
 1011TIP3   OH224595   1.452   0.941   1.032 -0.3613 -0.1127 -0.0369
 1011TIP3    H124596   1.507   1.019   1.024  0.2044 -0.6210 -1.2209
 1011TIP3    H224597   1.420   0.944   1.123 -0.8920  1.8413 -0.2294
 1012TIP3   OH224598   1.512   3.758   0.785 -0.2080 -0.0840 -0.3294
 1012TIP3    H124599   1.561   3.685   0.822 -0.5807 -1.0190 -1.6130
 1012TIP3    H224600   1.574   3.830   0.782 -0.1993  0.0756  2.1605
 1013TIP3   OH224601   0.592   4.499   0.300  0.0948  0.1745 -0.2534
 1013TIP3    H124602   0.555   4.467   0.382 -1.0807 -2.9594 -1.8697
 1013TIP3    H224603   0.686   4.485   0.309 -0.1241 -1.0513  0.2187
 1014TIP3   OH224604   5.349   2.310   8.267  0.0632  0.1504  0.6149
 1014TIP3    H124605   5.270   2.312   8.213 -0.2129 -0.1235  1.0064
 1014TIP3    H224606   5.383   2.400   8.262 -1.2555  0.7673  1.8706
 1015TIP3   OH224607   5.951   0.844   7.498 -0.3779  0.0309 -0.4529
 1015TIP3    H124608   5.857   0.844   7.512 -0.2895 -3.2900  0.9378
 1015TIP3    H224609   5.962   0.825   7.405 -0.9859  1.7266 -0.9198
 1016TIP3   OH224610   6.505   3.019   1.757  0.4255 -0.0379  0.5580
 1016TIP3    H124611   6.466   3.052   1.838  1.5310  0.1895  1.0246
 1016TIP3    H224612   6.462   3.069   1.687  1.5219  1.9096  1.2031
 1017TIP3   OH224613   1.441   4.781   6.265  0.2676  0.4421  0.5703
 1017TIP3    H124614   1.536   4.773   6.262  0.4122  1.9989  0.0611
 1017TIP3    H224615   1.414   4.730   6.341  1.3247 -1.4182 -0.2271
 1018TIP3   OH224616   1.888   4.478   0.078  0.5206 -0.5109 -0.3674
 1018TIP3    H124617   1.905   4.538   0.150  1.2439  0.0703 -1.0034
 1018TIP3    H224618   1.818   4.520   0.027 -0.8574 -1.4970  0.6277
 1019TIP3   OH224619   3.939   3.990   1.625 -0.4005 -0.1955 -0.2027
 1019TIP3    H124620   3.885   4.033   1.691  0.8364 -0.5839  1.1118
 1019TIP3    H224621   4.015   4.048   1.615 -0.0052 -0.7416 -0.3988
 1020TIP3   OH224622   0.214   6.626   8.416 -0.0450 -0.4600 -0.4222
 1020TIP3    H124623   0.164   6.622   8.335 -0.3711 -1.7640 -0.1718
 1020TIP3    H224624   0.148   6.644   8.484  0.3811  1.9448 -0.5516
 1021TIP3   OH224625   4.505   2.263   1.059  0.0402 -0.0507  0.5224
 1021TIP3    H124626   4.570   2.284   1.126  1.5074  0.4428 -0.9929
 1021TIP3    H224627   4.552   2.273   0.976 -1.7089 -0.6684 -0.5908
 1022TIP3   OH224628   0.444   5.096   7.793 -0.0229  0.0786  0.0604
 1022TIP3    H124629   0.391   5.096   7.714  0.4852  1.4228 -0.3084
 1022TIP3    H224630   0.460   5.189   7.811  1.4754 -0.2676  0.6401
 1023TIP3   OH224631   4.639   4.473   0.116 -0.8058 -0.0163 -0.2726
 1023TIP3    H124632   4.643   4.475   0.212 -2.5015  3.9501 -0.0973
 1023TIP3    H224633   4.546   4.473   0.096 -0.4913  0.8667 -1.8684
 1024TIP3   OH224634   3.161   6.039   8.665  0.0711  0.5625 -0.5959
 1024TIP3    H124635   3.197   6.112   8.716 -0.8947  1.5615 -1.3039
 1024TIP3    H224636   3.105   5.992   8.727  0.6946  0.3976 -0.1404
 1025TIP3   OH224637   6.404   1.902   8.708 -0.0839 -0.7133  0.3386
 1025TIP3    H124638   6.371   1.988   8.682 -0.1093 -1.4662 -2.3860
 1025TIP3    H224639   6.498   1.906   8.689  0.1426 -0.9047  1.3692
 1026TIP3   OH224640   6.431   0.007   8.627 -0.8278 -0.3702 -0.0898
 1026TIP3    H124641   6.426   0.070   8.699  0.2109 -1.2344  0.7656
 1026TIP3    H224642   6.476  -0.068   8.664 -1.0106 -1.1669 -1.4259
 1027TIP3   OH224643   3.587   5.696   7.449  0.0924 -1.2016  0.8613
 1027TIP3    H124644   3.640   5.675   7.525  0.3034 -2.0844  0.4797
 1027TIP3    H224645   3.598   5.621   7.390  0.9217 -0.0253 -0.5775
 1028TIP3   OH224646   1.217   2.627   6.497 -0.7974 -0.7617 -0.2542
 1028TIP3    H124647   1.271   2.603   6.422 -2.7499  0.3998 -2.1483
 1028TIP3    H224648   1.215   2.723   6.495 -0.4998 -0.6788  1.6307
 1029TIP3   OH224649   5.553   0.456   8.316  0.5502  0.3427 -0.3866
 1029TIP3    H124650   5.457   0.460   8.320  0.3271 -3.0051  0.2102
 1029TIP3    H224651   5.576   0.383   8.374  3.4264  0.6301 -1.0496
 1030TIP3   OH224652   5.451   1.192   8.804  0.6832 -0.5551  0.1673
 1030TIP3    H124653   5.366   1.159   8.833  1.3911 -1.5917  1.1535
 1030TIP3    H224654   5.492   1.226   8.884  0.6287  1.3079 -0.5445
 1031TIP3   OH224655   3.179   1.137   1.192  0.7414  0.3189 -0.1148
 1031TIP3    H124656   3.125   1.205   1.233  0.7335 -0.4850  1.2729
 1031TIP3    H224657   3.238   1.108   1.262  1.4239 -0.4039 -0.9701
 1032TIP3   OH224658   6.160   6.545   7.539  0.3588  0.4478 -0.0203
 1032TIP3    H124659   6.144   6.634   7.569 -0.5745  0.3009 -0.0586
 1032TIP3    H224660   6.250   6.546   7.507 -0.2508  1.9150 -1.8851
 1033TIP3   OH224661   4.180   3.660   8.093  0.3411 -0.1405  0.2375
 1033TIP3    H124662   4.265   3.662   8.050 -0.0006 -0.0363 -0.4463
 1033TIP3    H224663   4.167   3.568   8.118 -0.1752 -0.5282 -1.3625
 1034TIP3   OH224664   5.406   4.577   1.271  0.3053 -0.2568 -0.6328
 1034TIP3    H124665   5.395   4.546   1.360 -0.7263 -2.2085 -1.3765
 1034TIP3    H224666   5.484   4.633   1.274  0.2712 -0.2473  1.4624
 1035TIP3   OH224667   0.275   5.340   7.475 -0.5214  0.3448 -0.5233
 1035TIP3    H124668   0.293   5.357   7.383 -0.4842  1.4151 -0.3235
 1035TIP3    H224669   0.204   5.399   7.498  0.6524  1.3881  0.5842
 1036TIP3   OH224670   3.431   2.721   6.382  0.3997  0.1807  0.3568
 1036TIP3    H124671   3.361   2.670   6.422  1.8090 -1.3536  1.0019
 1036TIP3    H224672   3.398   2.811   6.380 -2.3932 -0.7561 -1.3016
 1037TIP3   OH224673   0.090   4.381   8.325  0.1047 -0.1092  0.4654
 1037TIP3    H124674   0.087   4.464   8.372 -0.2152 -0.9015  1.9279
 1037TIP3    H224675   0.153   4.328   8.374 -1.1838 -1.4066  0.8101
 1038TIP3   OH224676   4.956   2.415   0.236 -0.2314  0.2349  0.1632
 1038TIP3    H124677   4.882   2.404   0.296 -0.8978  1.1642 -0.4609
 1038TIP3    H224678   4.940   2.352   0.166 -0.1904  0.1391  0.2381
 1039TIP3   OH224679   6.156   3.067   0.588 -0.1789  0.6723 -0.3620
 1039TIP3    H124680   6.113   3.072   0.674 -1.5848  0.3780 -1.0224
 1039TIP3    H224681   6.248   3.051   0.609 -0.7075 -0.8679  1.0967
 1040TIP3   OH224682   2.670   5.362   1.567  0.3270  0.5522 -0.6450
 1040TIP3    H124683   2.729   5.407   1.507  1.1691  1.5762  0.8949
 1040TIP3    H224684   2.609   5.429   1.597  1.3174  0.6422  1.3362
 1041TIP3   OH224685   4.943   4.001   8.442 -0.0867  0.0904  0.2636
 1041TIP3    H124686   4.875   4.021   8.378 -1.7676 -0.7795  1.7037
 1041TIP3    H224687   4.923   4.057   8.517  0.1258 -0.9384  1.1174
 1042TIP3   OH224688   4.682   1.695   7.806 -0.5508  0.0480  0.0165
 1042TIP3    H124689   4.681   1.622   7.868  0.3299 -1.0475 -1.2047
 1042TIP3    H224690   4.772   1.697   7.774 -0.3934  2.0976  0.4956
 1043TIP3   OH224691   2.075   1.009   7.150 -0.6299  0.1880  0.9685
 1043TIP3    H124692   2.072   0.947   7.222 -1.2316 -0.9066  0.0417
 1043TIP3    H224693   2.008   1.073   7.171 -0.7329 -0.0630  1.4260
 1044TIP3   OH224694   3.939   2.591   0.712  0.1188 -0.1104  0.0271
 1044TIP3    H124695   4.027   2.619   0.737  0.7987 -2.5388  0.5814
 1044TIP3    H224696   3.887   2.601   0.791  0.0921  0.4850 -0.0583
 1045TIP3   OH224697   0.410   3.786   0.528  0.4065  0.1221 -0.1785
 1045TIP3    H124698   0.387   3.819   0.441 -1.9886 -1.7706 -0.3538
 1045TIP3    H224699   0.359   3.706   0.539  0.7180  0.1994  2.9418
 1046TIP3   OH224700   0.296   1.334   1.347 -0.7886 -0.3270 -0.2644
 1046TIP3    H124701   0.227   1.354   1.283  0.1465 -1.3139 -1.6465
 1046TIP3    H224702   0.265   1.372   1.429 -2.0547  0.9605 -1.2914
 1047TIP3   OH224703   3.916   0.779   1.866 -0.2263  0.4317 -0.1538
 1047TIP3    H124704   3.842   0.798   1.808  0.5032  1.1509 -0.8800
 1047TIP3    H224705   3.937   0.863   1.907 -0.4238  0.0294  0.8023
 1048TIP3   OH224706   5.142   3.984   7.793 -0.0215  0.1697  0.3169
 1048TIP3    H124707   5.169   4.049   7.857  1.0741 -0.2639  0.3120
 1048TIP3    H224708   5.050   4.005   7.774  0.3603  1.7902  0.1954
 1049TIP3   OH224709   4.529   3.024   0.184 -0.3516  0.0569  0.2534
 1049TIP3    H124710   4.494   2.948   0.231  0.8831 -0.7982 -0.1536
 1049TIP3    H224711   4.558   3.084   0.254 -0.3567 -0.3264  0.5902
 1050TIP3   OH224712   5.819   0.654   6.861 -0.8716  0.1488  0.4022
 1050TIP3    H124713   5.740   0.698   6.831 -0.1640  1.2826  0.1350
 1050TIP3    H224714   5.803   0.561   6.844 -2.4410  0.2614  1.0867
 1051TIP3   OH224715   6.666   0.361   8.725  0.8908  0.1492  0.1742
 1051TIP3    H124716   6.723   0.367   8.648 -0.8910  1.1490 -1.1464
 1051TIP3    H224717   6.655   0.451   8.754  0.8859 -0.1466  1.1185
 1052TIP3   OH224718   2.158   1.198   7.381  0.6404 -0.2159 -0.4245
 1052TIP3    H124719   2.108   1.276   7.359  0.2012 -1.4390 -4.6618
 1052TIP3    H224720   2.111   1.160   7.456 -0.0438  2.6282  0.7300
 1053TIP3   OH224721   6.484   6.014   0.175 -0.0780  0.6485  0.5981
 1053TIP3    H124722   6.393   5.988   0.188  0.0758  0.4933  1.4322
 1053TIP3    H224723   6.536   5.941   0.208  0.3508  1.3721  1.5859
 1054TIP3   OH224724   6.346   6.076   8.709 -0.3746 -0.3688 -0.6637
 1054TIP3    H124725   6.368   6.068   8.616  0.5592 -1.6678 -0.3607
 1054TIP3    H224726   6.395   6.005   8.751 -0.8210  0.1708  0.8165
 1055TIP3   OH224727   2.462   5.424   8.450 -0.0292 -0.4986  0.3092
 1055TIP3    H124728   2.391   5.389   8.397 -0.0784 -0.0210  0.0546
 1055TIP3    H224729   2.533   5.440   8.388 -0.8386  2.2073 -0.0724
 1056TIP3   OH224730   0.649   4.452   8.367  0.4266 -0.3782  0.0546
 1056TIP3    H124731   0.644   4.357   8.366 -0.2134 -0.3622  0.8594
 1056TIP3    H224732   0.737   4.472   8.336  0.2672 -1.1953 -0.9881
 1057TIP3   OH224733   3.654   0.773   8.412  0.3999  0.5263  0.0488
 1057TIP3    H124734   3.683   0.820   8.334  1.6217 -1.9178 -1.1065
 1057TIP3    H224735   3.729   0.778   8.472  0.8460 -0.5287 -0.3952
 1058TIP3   OH224736   0.425   1.835   7.362  0.0869  0.1066  0.8956
 1058TIP3    H124737   0.470   1.784   7.295 -0.4580 -0.8102  1.2090
 1058TIP3    H224738   0.359   1.884   7.313  0.6401  0.5571  0.5872
 1059TIP3   OH224739   1.162   1.476   8.720 -0.3514  0.4657 -0.5934
 1059TIP3    H124740   1.094   1.537   8.692 -0.2457  1.2240  0.7028
 1059TIP3    H224741   1.121   1.389   8.714 -1.3032  0.8754 -0.2210
 1060TIP3   OH224742   2.443   4.195   8.287  0.2573  0.3344  0.3043
 1060TIP3    H124743   2.508   4.228   8.349 -1.2324  0.2484  2.0089
 1060TIP3    H224744   2.439   4.101   8.303 -1.7248  0.5993  1.7629
 1061TIP3   OH224745   3.713   1.701   7.169  0.1756  0.1406  0.1253
 1061TIP3    H124746   3.764   1.712   7.089 -0.6100  1.5088 -0.2167
 1061TIP3    H224747   3.648   1.635   7.147  0.1728  0.2686 -0.2572
 1062TIP3   OH224748   0.814   1.244   0.893 -0.1573  0.0153 -0.2187
 1062TIP3    H124749   0.752   1.173   0.907 -0.2301  0.2266  0.5523
 1062TIP3    H224750   0.837   1.274   0.981  1.7219 -0.6526 -0.4426
 1063TIP3   OH224751   4.091   6.139   1.328  0.1249  0.3805 -0.1585
 1063TIP3    H124752   4.007   6.098   1.307  0.5572  0.1228 -1.4825
 1063TIP3    H224753   4.139   6.072   1.376 -0.3114  0.4338  0.3663
 1064TIP3   OH224754   4.945   5.939   0.157 -0.6253  0.2036 -0.0058
 1064TIP3    H124755   4.914   6.027   0.135  1.0948  0.6590 -0.8732
 1064TIP3    H224756   5.038   5.952   0.178  0.1755 -1.6270 -2.0728
 1065TIP3   OH224757   6.203   0.335   0.910  0.0903  0.5313 -0.4082
 1065TIP3    H124758   6.120   0.296   0.938 -1.4403  2.0613 -2.4855
 1065TIP3    H224759   6.246   0.359   0.992 -1.0521 -1.1606  0.7693
 1066TIP3   OH224760   0.782   4.887   8.592 -0.2630  0.6994  0.5423
 1066TIP3    H124761   0.800   4.843   8.675  0.8167  1.0194  0.4894
 1066TIP3    H224762   0.704   4.843   8.558  0.2051 -0.4922  0.9715
 1067TIP3   OH224763   6.204   1.018   0.030 -0.8613 -0.2821 -0.4545
 1067TIP3    H124764   6.167   0.933   0.054  0.8657 -0.0118  4.2979
 1067TIP3    H224765   6.198   1.070   0.110 -0.0377  3.4646 -2.5853
 1068TIP3   OH224766   4.276   5.523   2.217  0.0630 -0.3165 -0.0265
 1068TIP3    H124767   4.190   5.482   2.203  0.9206 -2.3961  0.4457
 1068TIP3    H224768   4.257   5.601   2.269 -1.6588 -0.0384 -0.9923
 1069TIP3   OH224769   2.689   0.873   7.101  0.3042  0.1878 -0.5591
 1069TIP3    H124770   2.624   0.818   7.145 -0.9173  1.3729 -0.8208
 1069TIP3    H224771   2.772   0.829   7.119 -0.6295 -1.9940 -1.1397
 1070TIP3   OH224772   5.203   5.075   7.689 -0.3875  0.1377  0.1650
 1070TIP3    H124773   5.164   5.136   7.627 -1.0469  0.2716  0.6938
 1070TIP3    H224774   5.202   5.122   7.773  0.0520 -0.2106  0.3707
 1071TIP3   OH224775   5.612   3.090   1.423 -0.0354  0.1764 -0.6271
 1071TIP3    H124776   5.573   3.168   1.461 -0.7268 -0.2927 -0.3655
 1071TIP3    H224777   5.573   3.083   1.336  0.4684  0.4435 -0.8814
 1072TIP3   OH224778   6.163   3.618   8.068  0.0393 -0.4750 -0.0990
 1072TIP3    H124779   6.109   3.612   7.988  1.5434  1.1068 -1.3235
 1072TIP3    H224780   6.114   3.678   8.124  0.2793  0.6387 -1.0368
 1073TIP3   OH224781   0.820   2.277   1.319  0.5225  0.1552  0.6346
 1073TIP3    H124782   0.784   2.223   1.389  3.3338 -2.3313  0.3309
 1073TIP3    H224783   0.826   2.219   1.243  1.6955  1.4876 -0.3610
 1074TIP3   OH224784   6.541   1.991   0.746  0.2586  0.1554 -0.5087
 1074TIP3    H124785   6.515   2.083   0.747  1.5818  0.5494 -0.9865
 1074TIP3    H224786   6.636   1.993   0.755  0.1894 -1.2318  1.0100
 1075TIP3   OH224787   3.482   4.445   0.734  0.4461  0.0123 -0.2242
 1075TIP3    H124788   3.445   4.458   0.821  1.0710 -0.4980  0.1336
 1075TIP3    H224789   3.493   4.350   0.728 -1.7441 -0.2142 -1.7771
 1076TIP3   OH224790   4.008   3.876   7.488 -0.0082  0.1592 -0.3224
 1076TIP3    H124791   4.102   3.895   7.486 -0.1781  2.2369  3.1809
 1076TIP3    H224792   3.966   3.958   7.465 -1.0818 -0.9043 -2.4391
 1077TIP3   OH224793   4.584   4.877   8.289 -0.6714  0.1840 -0.2759
 1077TIP3    H124794   4.598   4.920   8.374 -1.0005 -0.9071  0.3432
 1077TIP3    H224795   4.493   4.847   8.293 -1.1640  1.3767 -1.6042
 1078TIP3   OH224796   3.753   6.433   8.573 -0.3377 -0.0654 -0.4047
 1078TIP3    H124797   3.833   6.424   8.625 -1.2541 -0.6607  0.9627
 1078TIP3    H224798   3.705   6.352   8.589 -1.4638  0.5115 -0.7545
 1079TIP3   OH224799   1.559   3.586   1.640  0.0318  0.5750 -0.7666
 1079TIP3    H124800   1.480   3.562   1.688  0.5752  0.3129  0.0171
 1079TIP3    H224801   1.630   3.578   1.704  0.9286 -0.8529 -1.8672
 1080TIP3   OH224802   4.396   4.323   8.626 -0.3941 -0.0316 -0.1601
 1080TIP3    H124803   4.385   4.414   8.653  1.8305  0.2096  0.1336
 1080TIP3    H224804   4.378   4.272   8.705 -2.1698  0.0820 -0.4593
 1081TIP3   OH224805   0.530   4.519   0.869 -0.0203 -0.2287  0.2598
 1081TIP3    H124806   0.442   4.554   0.884 -0.7965 -1.4206 -1.2801
 1081TIP3    H224807   0.532   4.436   0.917 -0.1043 -0.6999 -0.5407
 1082TIP3   OH224808   5.686   5.633   1.581  0.2437 -0.2655 -0.1210
 1082TIP3    H124809   5.638   5.596   1.507  0.3158 -0.0024 -0.2987
 1082TIP3    H224810   5.762   5.575   1.592 -0.8484 -1.5450  1.0738
 1083TIP3   OH224811   2.280   1.093   6.491 -0.6102 -0.3243  0.0532
 1083TIP3    H124812   2.293   1.090   6.396 -1.1706 -2.0193 -0.0138
 1083TIP3    H224813   2.358   1.052   6.528 -1.4889 -2.0444  0.1373
 1084TIP3   OH224814   3.507   1.332   1.235 -0.3146  0.1306 -0.2525
 1084TIP3    H124815   3.473   1.295   1.317 -2.0380  1.2564 -0.4174
 1084TIP3    H224816   3.440   1.393   1.207  0.2966 -0.1515 -2.4729
 1085TIP3   OH224817   6.763   1.584   7.640 -0.0847  0.1514 -0.8323
 1085TIP3    H124818   6.808   1.514   7.686 -1.5205 -0.8394 -0.8645
 1085TIP3    H224819   6.774   1.564   7.548  0.7298  0.7909 -0.8845
 1086TIP3   OH224820   1.482   4.012   7.651 -0.2580  0.3173  0.5074
 1086TIP3    H124821   1.427   4.064   7.591  0.8241  1.6028  0.5755
 1086TIP3    H224822   1.518   4.077   7.711 -1.3521 -0.9407  2.6457
 1087TIP3   OH224823   2.601   5.346   7.365 -0.8162  0.4056  0.1886
 1087TIP3    H124824   2.691   5.350   7.397 -0.4683 -0.6319 -0.5924
 1087TIP3    H224825   2.610   5.328   7.271 -1.8379 -0.0720  0.1681
 1088TIP3   OH224826   5.521   6.148   6.920  0.1907 -0.2586 -0.0126
 1088TIP3    H124827   5.454   6.080   6.912  1.0484 -1.0315 -0.7959
 1088TIP3    H224828   5.543   6.149   7.013 -0.7656 -0.1205  0.2273
 1089TIP3   OH224829   0.643   4.249   1.787  0.2871  0.2259 -0.1533
 1089TIP3    H124830   0.671   4.184   1.722  1.4542  1.8353 -1.3385
 1089TIP3    H224831   0.721   4.267   1.839 -0.2344  0.1095  0.6890
 1090TIP3   OH224832   2.683   3.663   0.166  0.3710  0.0912  0.0730
 1090TIP3    H124833   2.719   3.597   0.108  0.5654  0.5620 -0.3554
 1090TIP3    H224834   2.729   3.651   0.249 -0.0288 -0.6943  0.1844
 1091TIP3   OH224835   5.470   2.775   7.196  0.0496  0.5439 -0.2347
 1091TIP3    H124836   5.467   2.852   7.139 -2.6203 -0.4819 -1.6238
 1091TIP3    H224837   5.458   2.701   7.137  0.8819 -0.8765  1.2774
 1092TIP3   OH224838   2.542   4.482   6.922 -0.1786  0.2344  0.0503
 1092TIP3    H124839   2.507   4.436   6.998 -1.5286  0.9279 -0.1032
 1092TIP3    H224840   2.561   4.570   6.954  1.7374 -0.1963  0.1826
 1093TIP3   OH224841   4.886   4.447   8.799 -0.1533 -0.0854  0.8035
 1093TIP3    H124842   4.907   4.406   8.883 -1.7484  1.0548  1.8114
 1093TIP3    H224843   4.795   4.477   8.809 -0.5783 -0.3795 -1.5233
 1094TIP3   OH224844   5.076   2.847   1.036 -0.2904  0.7134 -0.7495
 1094TIP3    H124845   5.060   2.817   0.946  0.3499  0.5070 -0.7983
 1094TIP3    H224846   5.063   2.769   1.090  2.6942 -0.0664 -1.0006
 1095TIP3   OH224847   4.037   0.654   8.463  0.8364 -0.3556  0.3754
 1095TIP3    H124848   3.953   0.609   8.464  1.3983 -1.4427  1.9394
 1095TIP3    H224849   4.040   0.696   8.377 -2.0969  1.3075  0.9485
 1096TIP3   OH224850   3.059   3.019   7.548 -0.2676 -0.2299 -0.8502
 1096TIP3    H124851   3.070   2.968   7.628  2.5118  2.0288  0.3915
 1096TIP3    H224852   3.098   2.965   7.480 -2.4821 -2.0919 -0.7555
 1097TIP3   OH224853   5.934   3.291   1.647  0.3161 -0.6042 -0.3738
 1097TIP3    H124854   5.936   3.307   1.741  1.2351 -0.6396 -0.3770
 1097TIP3    H224855   5.872   3.356   1.613  1.6989  0.9833 -0.0108
 1098TIP3   OH224856   0.051   0.675   1.238  0.7408  0.0386  0.4405
 1098TIP3    H124857   0.041   0.587   1.272 -0.7508  0.5492  1.4492
 1098TIP3    H224858  -0.007   0.729   1.293  1.3022  1.5719 -0.3942
 1099TIP3   OH224859   6.382   5.585   7.908  0.2777  1.0223 -0.1121
 1099TIP3    H124860   6.307   5.588   7.848  0.4796  1.1188 -0.3611
 1099TIP3    H224861   6.347   5.546   7.988  0.5508 -1.4140 -1.0908
 1100TIP3   OH224862   0.140   5.559   1.606 -0.1691  0.0355 -0.0332
 1100TIP3    H124863   0.100   5.488   1.556 -0.1356  0.9968 -1.5203
 1100TIP3    H224864   0.230   5.565   1.571  0.2773 -0.0987  1.0690
 1101TIP3   OH224865   6.403   4.658   1.074  0.3024  0.2295  0.0281
 1101TIP3    H124866   6.465   4.655   1.002 -0.6941 -0.7414 -0.8250
 1101TIP3    H224867   6.390   4.566   1.098 -0.5068  0.4463  0.4539
 1102TIP3   OH224868   0.639   1.787   7.525  0.2675 -0.0251  0.4357
 1102TIP3    H124869   0.646   1.692   7.514  0.8727  0.0897 -0.2151
 1102TIP3    H224870   0.567   1.812   7.467  0.8519  0.0538 -0.2710
 1103TIP3   OH224871   4.606   1.879   7.614  0.2002 -0.3167  0.4663
 1103TIP3    H124872   4.595   1.859   7.522  1.4432  0.8902  0.0214
 1103TIP3    H224873   4.638   1.798   7.653  2.2829 -0.1070 -0.6964
 1104TIP3   OH224874   6.075   5.672   2.188 -0.4912  0.5713  0.0533
 1104TIP3    H124875   5.997   5.619   2.174 -0.8616  1.3855 -1.0915
 1104TIP3    H224876   6.106   5.693   2.100  1.4365 -0.3091  0.4604
 1105TIP3   OH224877   3.226   4.445   7.891  0.2631 -0.4315  0.0827
 1105TIP3    H124878   3.242   4.539   7.902 -0.2554 -0.4782  1.4243
 1105TIP3    H224879   3.244   4.408   7.977 -0.1038 -1.4784 -0.2828
 1106TIP3   OH224880   3.261   5.943   8.437 -0.0801  0.0336  0.5047
 1106TIP3    H124881   3.354   5.964   8.447 -0.4822  3.7999 -1.5990
 1106TIP3    H224882   3.221   5.970   8.519  0.5255 -0.2042  0.8796
 1107TIP3   OH224883   4.788   3.521   6.581 -0.4479 -0.0486  0.0132
 1107TIP3    H124884   4.811   3.460   6.652 -0.4545 -0.5944 -0.4460
 1107TIP3    H224885   4.695   3.507   6.567 -0.8290  1.2897  1.0456
 1108TIP3   OH224886   2.689   3.549   7.056 -0.8063  0.3360 -0.2483
 1108TIP3    H124887   2.597   3.562   7.033 -0.8513 -0.2948 -0.4348
 1108TIP3    H224888   2.695   3.577   7.147 -1.6088 -1.4316  0.3897
 1109TIP3   OH224889   2.040   2.550   0.578 -0.1930  0.2269 -0.2346
 1109TIP3    H124890   2.082   2.467   0.557  1.1282  0.6382  0.6598
 1109TIP3    H224891   1.976   2.563   0.508  0.0829 -1.1898 -0.7757
 1110TIP3   OH224892   1.763   5.699   7.715 -0.2339 -0.1753 -0.6419
 1110TIP3    H124893   1.795   5.740   7.635 -0.2289 -0.1679 -0.6360
 1110TIP3    H224894   1.671   5.681   7.697 -0.5511  0.9401 -0.2073
 1111TIP3   OH224895   4.730   2.430   1.227 -0.5689 -0.3216 -0.0057
 1111TIP3    H124896   4.695   2.518   1.236 -0.2556 -0.1706 -0.2253
 1111TIP3    H224897   4.772   2.430   1.141  2.3570  0.3572  1.2993
 1112TIP3   OH224898   5.143   5.287   8.403 -0.1350  0.5879 -0.4766
 1112TIP3    H124899   5.175   5.363   8.355  0.9555  0.0161 -0.6841
 1112TIP3    H224900   5.208   5.273   8.472  0.8807 -1.4181 -1.7307
 1113TIP3   OH224901   3.077   1.306   8.186 -0.3147  0.0247 -0.2246
 1113TIP3    H124902   3.135   1.250   8.135 -1.3343 -0.8039 -0.5181
 1113TIP3    H224903   3.063   1.383   8.130  0.7364  0.3978 -0.0080
 1114TIP3   OH224904   6.521   6.675   1.441 -0.7663  0.2008  0.7366
 1114TIP3    H124905   6.595   6.734   1.427 -0.8651  0.4991  1.4210
 1114TIP3    H224906   6.482   6.665   1.354  0.6082 -0.6967  0.1890
 1115TIP3   OH224907   2.390   0.052   7.729 -0.1799  0.3491  0.1857
 1115TIP3    H124908   2.380   0.146   7.741 -0.9034  0.4969 -1.4310
 1115TIP3    H224909   2.309   0.014   7.766 -1.1449  0.5969 -1.5780
 1116TIP3   OH224910   1.278   3.347   0.832 -0.1154 -0.1392  1.0088
 1116TIP3    H124911   1.194   3.379   0.865 -0.0135  1.7715 -0.4124
 1116TIP3    H224912   1.305   3.282   0.896 -1.8144  0.4976  2.4753
 1117TIP3   OH224913   1.156   0.949   0.580 -0.1938 -0.5469 -0.2778
 1117TIP3    H124914   1.218   0.934   0.650 -0.1912 -2.0135 -0.5731
 1117TIP3    H224915   1.077   0.983   0.624  0.5695  0.7479  0.1525
 1118TIP3   OH224916   4.398   1.161   6.185 -0.6156 -0.5204  0.4507
 1118TIP3    H124917   4.334   1.213   6.136 -1.7952 -2.0125  0.3424
 1118TIP3    H224918   4.346   1.112   6.248  0.6377 -0.4365  1.5842
 1119TIP3   OH224919   5.894   4.574   7.308 -0.3450  0.5371  0.0878
 1119TIP3    H124920   5.977   4.578   7.260  0.0541  1.3431  0.8203
 1119TIP3    H224921   5.844   4.505   7.264  1.1363 -0.7286  0.3198
 1120TIP3   OH224922   4.728   3.774   7.341 -0.2179  0.3466  0.2314
 1120TIP3    H124923   4.789   3.837   7.302  1.4203 -0.2111  1.7581
 1120TIP3    H224924   4.756   3.767   7.433 -3.5784  1.2351  1.4609
 1121TIP3   OH224925   2.499   4.568   8.475  0.4247 -0.2638 -0.0836
 1121TIP3    H124926   2.487   4.514   8.553  1.8204 -1.4786 -0.6577
 1121TIP3    H224927   2.593   4.566   8.459  0.5399  2.4340 -0.1185
 1122TIP3   OH224928   1.056   3.816   8.787 -0.0525 -0.2035 -0.2353
 1122TIP3    H124929   1.130   3.866   8.821 -0.9651  1.0461 -0.0066
 1122TIP3    H224930   1.070   3.815   8.692  0.1921  0.1513 -0.2080
 1123TIP3   OH224931   1.367   4.546   6.886  0.3102  0.1943 -0.2928
 1123TIP3    H124932   1.420   4.492   6.945  0.7167  0.4387 -0.4375
 1123TIP3    H224933   1.422   4.621   6.866  0.0201  0.3036 -0.6783
 1124TIP3   OH224934   1.732   0.372   6.208 -0.3064  0.3444  0.1446
 1124TIP3    H124935   1.690   0.369   6.122 -0.0650  1.9260 -0.0725
 1124TIP3    H224936   1.678   0.317   6.264 -1.8817  1.2252 -0.4489
 1125TIP3   OH224937   4.906   5.484   0.950 -0.0582 -0.2106  0.6255
 1125TIP3    H124938   4.902   5.450   0.861 -0.7125  1.0781  0.1361
 1125TIP3    H224939   4.982   5.441   0.989  2.0752  1.3828 -1.4797
 1126TIP3   OH224940   4.001   0.812   0.005 -0.2226  0.1553 -0.2837
 1126TIP3    H124941   4.094   0.790   0.008  0.0569  1.3492  0.5945
 1126TIP3    H224942   3.967   0.782   0.089 -0.0095  2.1897  0.5808
 1127TIP3   OH224943   3.225   2.902   0.522 -0.1518  0.0221 -0.0304
 1127TIP3    H124944   3.231   2.807   0.520 -1.6381 -0.1607  1.6060
 1127TIP3    H224945   3.290   2.930   0.586  0.7046  0.1853 -0.9483
 1128TIP3   OH224946   5.800   5.228   6.587  0.1313  0.2912 -0.8429
 1128TIP3    H124947   5.843   5.222   6.502  1.4238 -1.3240 -0.1304
 1128TIP3    H224948   5.824   5.315   6.620  1.5979  0.0332 -1.1473
 1129TIP3   OH224949   2.394   3.891   0.673  0.0507  0.4722  0.5115
 1129TIP3    H124950   2.355   3.845   0.747  3.6622 -2.2459  1.0510
 1129TIP3    H224951   2.405   3.981   0.704  1.1152 -0.4884  3.2528
 1130TIP3   OH224952   1.706   4.616   8.750  0.1722 -0.1112 -0.3901
 1130TIP3    H124953   1.652   4.647   8.677  1.5386 -1.3166 -1.9813
 1130TIP3    H224954   1.757   4.693   8.776  0.5439  0.0501 -1.5353
 1131TIP3   OH224955   1.939   5.278   8.811 -0.3199 -0.1064  0.2929
 1131TIP3    H124956   1.897   5.223   8.745 -0.6868  1.0219 -0.4565
 1131TIP3    H224957   1.867   5.315   8.862 -0.2715  1.4890 -0.7131
 1132TIP3   OH224958   5.250   1.197   0.768 -0.5519  0.1121 -0.4503
 1132TIP3    H124959   5.230   1.279   0.722 -0.2744  0.4606  0.0472
 1132TIP3    H224960   5.325   1.161   0.720 -0.5042  0.2804 -0.5036
 1133TIP3   OH224961   0.557   4.903   0.858 -0.2573 -0.3030  0.1588
 1133TIP3    H124962   0.621   4.885   0.928 -0.5536  0.1200  0.5466
 1133TIP3    H224963   0.611   4.913   0.779  0.0820 -0.8005  0.3160
 1134TIP3   OH224964   4.745   5.807   7.447 -0.5090  0.0728 -0.2017
 1134TIP3    H124965   4.677   5.793   7.381 -2.7070  1.0639  1.7248
 1134TIP3    H224966   4.782   5.892   7.425 -1.3307  0.4652 -0.1260
 1135TIP3   OH224967   5.810   2.169   1.157 -1.0807 -0.5428 -0.3414
 1135TIP3    H124968   5.731   2.222   1.169 -2.2443 -1.5910 -2.6898
 1135TIP3    H224969   5.793   2.090   1.210 -2.3921 -1.4497 -1.9934
 1136TIP3   OH224970   2.281   3.834   6.648 -0.5597 -0.2393  0.3120
 1136TIP3    H124971   2.220   3.786   6.591  1.3390 -1.4605 -0.7945
 1136TIP3    H224972   2.349   3.866   6.590  2.8265 -3.6202  1.9196
 1137TIP3   OH224973   0.261   6.141   0.346  0.6426 -0.2751 -0.4369
 1137TIP3    H124974   0.182   6.098   0.313 -0.3954 -0.8584  2.4573
 1137TIP3    H224975   0.240   6.234   0.347  0.8145 -0.2122 -1.6049
 1138TIP3   OH224976   2.339   4.259   6.852  0.4079 -0.0770  0.0404
 1138TIP3    H124977   2.261   4.299   6.889  0.5408 -0.3116  0.5923
 1138TIP3    H224978   2.399   4.332   6.837  0.2795  0.0424  0.1076
 1139TIP3   OH224979   4.798   4.499   0.756 -0.1619  0.0256 -0.0415
 1139TIP3    H124980   4.739   4.428   0.784 -0.9709  0.9368  0.6141
 1139TIP3    H224981   4.813   4.550   0.835 -1.8536  2.1912 -1.0173
 1140TIP3   OH224982   0.572   3.821   7.048  0.7842  0.1346  0.2250
 1140TIP3    H124983   0.541   3.739   7.010  0.5425 -0.2916  1.3262
 1140TIP3    H224984   0.545   3.888   6.984 -0.6755 -0.4364  0.1965
 1141TIP3   OH224985   5.927   6.018   1.107 -0.0324  0.3979 -0.0012
 1141TIP3    H124986   5.878   6.100   1.098 -1.1433 -0.0295  1.6178
 1141TIP3    H224987   6.004   6.042   1.159 -0.5137  0.3847  0.7368
 1142TIP3   OH224988   6.088   5.209   7.821 -0.1327 -0.2318  0.0577
 1142TIP3    H124989   6.178   5.201   7.851 -0.5593  1.4048  1.9744
 1142TIP3    H224990   6.041   5.140   7.868 -0.0742 -0.4469 -0.1922
 1143TIP3   OH224991   2.805   0.488   2.189 -0.0018  0.0453 -0.0451
 1143TIP3    H124992   2.722   0.505   2.235  0.1230 -0.9499  0.5680
 1143TIP3    H224993   2.845   0.417   2.238  0.5893 -0.4054 -1.1612
 1144TIP3   OH224994   3.247   1.205   0.526 -0.5794 -0.0750 -0.4226
 1144TIP3    H124995   3.186   1.159   0.585 -2.5006  1.7286 -0.8871
 1144TIP3    H224996   3.265   1.141   0.457 -0.1183 -1.4179  0.8722
 1145TIP3   OH224997   6.344   5.391   0.785  0.2804 -0.1170 -0.0067
 1145TIP3    H124998   6.376   5.319   0.839 -0.7353 -1.2862 -0.9072
 1145TIP3    H224999   6.263   5.419   0.827  0.2337 -0.0658 -0.1288
 1146TIP3   OH225000   4.275   3.022   1.901 -0.4170  0.2417 -0.2616
 1146TIP3    H125001   4.193   3.046   1.858  0.3196  1.2603 -1.1506
 1146TIP3    H225002   4.334   3.096   1.884  0.6297 -0.3732  0.5292
 1147TIP3   OH225003   2.616   0.433   1.543 -0.5995 -0.2922 -0.2697
 1147TIP3    H125004   2.560   0.356   1.542 -0.8175 -0.1506  0.5907
 1147TIP3    H225005   2.557   0.506   1.525 -0.5237 -0.2430 -0.3218
 1148TIP3   OH225006   0.613   5.535   8.284 -0.2354 -0.0222  0.3223
 1148TIP3    H125007   0.703   5.549   8.257 -0.4540 -3.4654 -2.9875
 1148TIP3    H225008   0.619   5.511   8.376  2.0671  0.7528  0.4328
 1149TIP3   OH225009   4.556   0.621   8.684 -0.1124  0.2534  0.0282
 1149TIP3    H125010   4.621   0.691   8.677  1.0173 -0.8695 -1.1390
 1149TIP3    H225011   4.595   0.559   8.746 -0.0952 -0.3921 -0.6222
 1150TIP3   OH225012   0.603   6.718   8.004  0.6495  0.2115 -0.5207
 1150TIP3    H125013   0.580   6.706   8.097  1.7172 -1.0434 -0.3936
 1150TIP3    H225014   0.525   6.690   7.957 -0.4040  2.1168 -0.0153
 1151TIP3   OH225015   0.922   6.711   1.622 -0.0595 -0.0163  0.3000
 1151TIP3    H125016   0.982   6.764   1.572 -0.3349  2.1440  2.0974
 1151TIP3    H225017   0.863   6.672   1.557  1.5099  0.0706 -1.2312
 1152TIP3   OH225018   0.193   6.573   0.073  0.0765 -0.1533 -0.1563
 1152TIP3    H125019   0.133   6.499   0.082  0.7545 -0.6103  0.7253
 1152TIP3    H225020   0.171   6.612  -0.012  1.1878 -2.7304 -1.7538
 1153TIP3   OH225021   1.229   6.159   8.321 -0.1613 -0.4413 -0.1051
 1153TIP3    H125022   1.194   6.194   8.238  0.4480 -0.9447 -0.5815
 1153TIP3    H225023   1.164   6.185   8.387  0.2034  1.5371 -0.4373
 1154TIP3   OH225024   6.334   2.408   0.402  0.0967  0.2872  0.9883
 1154TIP3    H125025   6.310   2.406   0.495  0.1546 -1.6034  1.0028
 1154TIP3    H225026   6.357   2.318   0.382  0.2876  0.7142 -0.8288
 1155TIP3   OH225027   5.010   2.453   1.599  0.3375 -0.7119  0.7091
 1155TIP3    H125028   5.064   2.394   1.651  1.0245 -0.8067 -0.0818
 1155TIP3    H225029   4.985   2.401   1.523  0.8825 -0.0329  0.0427
 1156TIP3   OH225030   1.471   5.252   7.650  0.3601 -0.0301  0.4256
 1156TIP3    H125031   1.507   5.166   7.628  1.8527  0.8956 -0.8898
 1156TIP3    H225032   1.429   5.282   7.570  0.6462  0.8550  0.6016
 1157TIP3   OH225033   5.416   0.177   7.925 -0.3340 -0.1354 -0.2986
 1157TIP3    H125034   5.345   0.144   7.869  1.0470 -0.9326 -1.6435
 1157TIP3    H225035   5.373   0.193   8.009 -1.9243 -1.5402 -0.7676
 1158TIP3   OH225036   1.181   2.340   1.090 -0.0606  0.6590  0.6035
 1158TIP3    H125037   1.154   2.387   1.170 -0.9729  1.5387 -0.1974
 1158TIP3    H225038   1.243   2.400   1.048 -1.1329  1.1253 -0.3577
 1159TIP3   OH225039   6.667   2.118   0.217 -0.0278  0.8105 -0.4418
 1159TIP3    H125040   6.580   2.099   0.180 -0.0322  0.4940 -0.2715
 1159TIP3    H225041   6.726   2.114   0.141  0.1248 -0.9086 -0.2751
 1160TIP3   OH225042   1.691   0.847   6.662 -0.0301 -0.0333  0.3732
 1160TIP3    H125043   1.706   0.921   6.602 -1.3907 -0.6162 -0.7359
 1160TIP3    H225044   1.714   0.770   6.611 -0.3674 -0.4910  0.9004
 1161TIP3   OH225045   0.746   3.335   1.435  0.1993  0.4313 -0.0943
 1161TIP3    H125046   0.713   3.423   1.455 -0.6561  0.6295 -2.1676
 1161TIP3    H225047   0.818   3.350   1.374 -0.0831 -0.3116 -0.6146
 1162TIP3   OH225048   0.542   4.675   7.481 -0.5679  0.2406  0.1851
 1162TIP3    H125049   0.555   4.757   7.528  2.7432 -0.9137  1.5752
 1162TIP3    H225050   0.490   4.621   7.540  2.6976 -0.8302  2.3378
 1163TIP3   OH225051   6.712   6.463   2.255 -0.2482  0.1941  0.5756
 1163TIP3    H125052   6.723   6.460   2.350  0.7298 -2.7418  0.4590
 1163TIP3    H225053   6.788   6.513   2.225  1.2042 -1.5557  1.1849
 1164TIP3   OH225054   5.652   0.755   0.420  0.4773  0.5659  0.2258
 1164TIP3    H125055   5.741   0.781   0.396  0.3482  1.2713  0.4925
 1164TIP3    H225056   5.641   0.668   0.381  0.3996  1.4958 -1.9840
 1165TIP3   OH225057   2.668   4.706   7.439 -0.5127  0.1508 -0.7207
 1165TIP3    H125058   2.642   4.797   7.455 -1.0296 -0.2767  1.1351
 1165TIP3    H225059   2.745   4.712   7.383 -0.3864  1.7494 -0.4188
 1166TIP3   OH225060   3.164   2.598   2.163 -0.5841  0.1901  0.4032
 1166TIP3    H125061   3.257   2.614   2.180 -0.6233 -0.6042  1.4619
 1166TIP3    H225062   3.130   2.683   2.135  0.2207  0.7761  1.1467
 1167TIP3   OH225063   2.781   0.152   0.699  0.4419  0.3764  0.2846
 1167TIP3    H125064   2.870   0.149   0.665  1.2630 -1.2836  2.3234
 1167TIP3    H225065   2.791   0.182   0.790 -1.0997  0.4193  0.4650
 1168TIP3   OH225066   2.271   5.931   0.338 -0.0207 -0.3484 -0.7104
 1168TIP3    H125067   2.354   5.914   0.294  1.3207  0.6808  1.2691
 1168TIP3    H225068   2.226   5.992   0.279  1.5969  0.7869 -0.8535
 1169TIP3   OH225069   5.330   4.491   7.256  0.0620 -0.2397  0.9002
 1169TIP3    H125070   5.412   4.498   7.208 -0.5523 -3.0247 -0.8259
 1169TIP3    H225071   5.285   4.574   7.241  1.1873  0.0805 -0.8878
 1170TIP3   OH225072   4.407   2.203   0.099 -0.0290  0.2462 -0.3032
 1170TIP3    H125073   4.400   2.250   0.182  0.1713  1.3577 -0.8874
 1170TIP3    H225074   4.355   2.256   0.037  1.5113  0.5914 -1.3525
 1171TIP3   OH225075   5.083   0.109   1.680  0.6797  0.2709  0.2719
 1171TIP3    H125076   5.122   0.040   1.734 -0.6403 -0.1786  0.6974
 1171TIP3    H225077   5.016   0.148   1.737  1.3808  1.9136  0.0359
 1172TIP3   OH225078   5.824   6.693   2.528  0.1016 -0.9276  0.0558
 1172TIP3    H125079   5.873   6.734   2.457  1.6211 -1.2613  0.8646
 1172TIP3    H225080   5.750   6.751   2.543 -0.9265 -1.4221 -2.5364
 1173TIP3   OH225081   6.674   5.222   1.608 -0.4670  0.3512  0.2302
 1173TIP3    H125082   6.679   5.307   1.652  0.6303  1.9431 -2.7020
 1173TIP3    H225083   6.688   5.158   1.678 -0.9911  2.5467  2.5011
 1174TIP3   OH225084   1.654   2.163   0.307  0.1499  0.1597 -0.6063
 1174TIP3    H125085   1.631   2.132   0.394  0.0982 -0.3397 -0.7926
 1174TIP3    H225086   1.694   2.249   0.321  1.6599 -0.6223  0.0676
 1175TIP3   OH225087   3.794   6.160   8.140  0.6630  0.9519 -0.5379
 1175TIP3    H125088   3.770   6.084   8.193  3.7047 -0.3236 -0.8213
 1175TIP3    H225089   3.736   6.156   8.064 -0.8183  0.3506  0.5656
 1176TIP3   OH225090   5.694   4.154   0.194 -0.3304 -0.2851  0.2210
 1176TIP3    H125091   5.656   4.180   0.278 -0.0597 -1.1055  0.6054
 1176TIP3    H225092   5.690   4.059   0.193 -0.7085 -0.2748 -0.8857
 1177TIP3   OH225093   5.680   6.042   0.452  0.3662 -0.1382  0.0630
 1177TIP3    H125094   5.746   6.053   0.384  0.4407 -1.8723 -0.1773
 1177TIP3    H225095   5.651   6.131   0.471  2.7739  0.7051  0.2000
 1178TIP3   OH225096   6.766   4.731   0.624  0.1697 -0.0918 -0.8568
 1178TIP3    H125097   6.802   4.778   0.549 -0.0341  0.6524 -0.4958
 1178TIP3    H225098   6.792   4.640   0.610  0.5265  0.1165 -1.5909
 1179TIP3   OH225099   5.694   4.547   1.810 -0.4116 -0.1503  0.2319
 1179TIP3    H125100   5.712   4.613   1.877 -0.5732  1.8091 -1.5494
 1179TIP3    H225101   5.765   4.484   1.819  1.8734  2.1798 -0.2691
 1180TIP3   OH225102   2.269   3.044   1.624 -0.3562 -0.8890 -0.2527
 1180TIP3    H125103   2.342   3.004   1.577  1.2573 -0.4429  1.7359
 1180TIP3    H225104   2.208   2.972   1.640  1.1273 -1.9750  0.7484
 1181TIP3   OH225105   4.067   0.269   8.363 -0.1598 -0.3253 -0.1819
 1181TIP3    H125106   3.982   0.297   8.398  0.3974  1.6531 -0.2982
 1181TIP3    H225107   4.126   0.341   8.383  0.4795  0.4624 -4.1324
 1182TIP3   OH225108   3.933   4.351   7.548 -0.1183  0.9382  0.2345
 1182TIP3    H125109   3.852   4.391   7.579 -0.3586 -0.6817  1.8423
 1182TIP3    H225110   3.992   4.351   7.624  0.8275  0.6757 -0.4709
 1183TIP3   OH225111   4.993   2.983   0.568 -0.6506 -0.3518  0.0061
 1183TIP3    H125112   4.903   3.015   0.561 -1.2177 -1.7659  0.4604
 1183TIP3    H225113   4.984   2.897   0.610  1.1068  0.5336  2.3658
 1184TIP3   OH225114   1.401   1.644   1.259  0.4118 -0.0610 -0.2747
 1184TIP3    H125115   1.314   1.621   1.224  0.4141 -0.9826  0.2855
 1184TIP3    H225116   1.460   1.634   1.184  0.4170 -1.9999 -0.0752
 1185TIP3   OH225117   5.780   0.196   6.616  0.0239 -0.2023 -0.4501
 1185TIP3    H125118   5.814   0.143   6.544 -0.0118 -1.2351  0.2773
 1185TIP3    H225119   5.850   0.259   6.634  0.7132 -0.9917 -0.3149
 1186TIP3   OH225120   3.251   6.029   2.275 -0.1803 -0.1610  0.3033
 1186TIP3    H125121   3.230   6.122   2.272 -0.1134 -0.1366  0.6013
 1186TIP3    H225122   3.239   5.999   2.185 -0.1267  0.1512  0.1910
 1187TIP3   OH225123   0.017   3.479   1.631 -0.5782  0.6166 -0.0869
 1187TIP3    H125124  -0.061   3.424   1.641  0.8429 -1.5734 -0.5486
 1187TIP3    H225125   0.050   3.491   1.720  1.2472 -2.6553 -0.1680
 1188TIP3   OH225126   2.042   0.010   8.226  0.1743  0.0766  0.0931
 1188TIP3    H125127   2.135  -0.011   8.224  0.8126  2.5692 -1.6114
 1188TIP3    H225128   2.006  -0.032   8.148  0.8491  2.5352 -1.6639
 1189TIP3   OH225129   4.825   0.997   0.206  0.0894 -0.2265 -0.0871
 1189TIP3    H125130   4.848   1.066   0.143 -0.6794  1.2627  1.2148
 1189TIP3    H225131   4.756   0.947   0.162 -1.6323  1.8033  0.1428
 1190TIP3   OH225132   5.814   1.681   1.291 -0.2461 -0.2752  0.0886
 1190TIP3    H125133   5.895   1.653   1.333  0.3925  1.3752  0.0095
 1190TIP3    H225134   5.840   1.703   1.201 -0.7785  0.2659  0.0651
 1191TIP3   OH225135   3.338   4.140   8.467 -0.6701 -0.0075 -0.3907
 1191TIP3    H125136   3.345   4.044   8.468  1.2732  0.0965 -0.0125
 1191TIP3    H225137   3.317   4.164   8.557  1.0839  0.0107  0.0443
 1192TIP3   OH225138   6.190   2.054   8.522 -0.4068  0.1141 -0.1953
 1192TIP3    H125139   6.216   2.108   8.447 -1.7383  0.4553 -0.4352
 1192TIP3    H225140   6.166   1.970   8.484  0.8477 -0.3906  0.0881
 1193TIP3   OH225141   2.995   3.813   0.092 -0.5388 -0.1552  0.3174
 1193TIP3    H125142   2.959   3.877   0.153  0.9076 -0.4667  1.5528
 1193TIP3    H225143   2.985   3.729   0.136  0.7674 -0.3527  0.2719
 1194TIP3   OH225144   6.338   1.153   7.090 -0.6406 -0.5395  0.1493
 1194TIP3    H125145   6.368   1.086   7.028 -0.4107 -1.5237  1.2970
 1194TIP3    H225146   6.417   1.181   7.136 -1.2358 -2.6867  2.7419
 1195TIP3   OH225147   3.219   0.714   1.336  0.2147  0.1635  0.6906
 1195TIP3    H125148   3.305   0.674   1.322 -0.4149 -1.0316  0.1559
 1195TIP3    H225149   3.194   0.747   1.250  0.0429  0.3333  0.8045
 1196TIP3   OH225150   1.339   4.994   6.936 -0.1410 -0.9359 -0.6426
 1196TIP3    H125151   1.342   4.960   7.026  0.6458 -0.1574 -0.3577
 1196TIP3    H225152   1.287   5.074   6.942  1.1197 -0.0953 -0.5847
 1197TIP3   OH225153   0.984   0.191   0.176 -0.1351  0.4516  0.0014
 1197TIP3    H125154   1.063   0.245   0.166 -0.4426  0.8402 -0.3910
 1197TIP3    H225155   1.011   0.119   0.233  0.2599  1.0709  0.6153
 1198TIP3   OH225156   5.199   5.769   8.153  0.0350 -0.1896 -0.3273
 1198TIP3    H125157   5.201   5.849   8.099 -2.4076  0.9169  1.0648
 1198TIP3    H225158   5.273   5.780   8.213  0.4131  0.4767 -0.8923
 1199TIP3   OH225159   3.725   3.353   0.007  0.4734  0.3853 -0.4147
 1199TIP3    H125160   3.702   3.426   0.065 -1.5089 -0.4986  0.0147
 1199TIP3    H225161   3.677   3.371  -0.073 -0.2501 -0.5433 -0.2115
 1200TIP3   OH225162   0.423   4.139   7.322 -0.4384 -0.0248  0.0534
 1200TIP3    H125163   0.405   4.179   7.407  2.9773 -1.2706  1.5183
 1200TIP3    H225164   0.489   4.195   7.282 -1.1255 -0.1314 -1.2903
 1201TIP3   OH225165   3.426   4.649   7.580  0.2198  0.0874  0.2943
 1201TIP3    H125166   3.452   4.625   7.491  1.4065 -0.2904  0.7280
 1201TIP3    H225167   3.501   4.625   7.634  0.2768  1.9982  1.1628
 1202TIP3   OH225168   3.094   1.927   6.519  0.3225  0.0961  0.0608
 1202TIP3    H125169   3.005   1.949   6.492 -0.2002 -1.8641  0.0191
 1202TIP3    H225170   3.150   1.978   6.461 -0.7610  1.0915 -0.1465
 1203TIP3   OH225171   3.847   3.953   0.628 -0.5554 -0.2134  0.7762
 1203TIP3    H125172   3.761   3.996   0.624 -0.0036  0.8522  0.1649
 1203TIP3    H225173   3.885   3.984   0.710  0.3232  1.4567 -0.2082
 1204TIP3   OH225174   4.909   0.595   7.206  0.2361  0.5663  0.4573
 1204TIP3    H125175   4.915   0.515   7.259  2.9655 -0.3764 -1.0682
 1204TIP3    H225176   4.927   0.666   7.268 -0.9669 -0.0601  1.5794
 1205TIP3   OH225177   5.188   3.038   0.021 -0.0505  0.1518  0.1772
 1205TIP3    H125178   5.161   2.952  -0.012 -2.3894 -0.3410  2.9693
 1205TIP3    H225179   5.110   3.093   0.012  0.3044  0.9328  1.6055
 1206TIP3   OH225180   0.859   5.659   0.339  0.0157  0.0081 -0.4046
 1206TIP3    H125181   0.763   5.662   0.339 -0.0029 -0.2824  0.2901
 1206TIP3    H225182   0.885   5.747   0.367 -0.1240 -0.6316  1.9385
 1207TIP3   OH225183   3.557   2.213   1.121 -0.4644  0.4000  0.7036
 1207TIP3    H125184   3.553   2.243   1.213  1.1347 -0.2061  0.9973
 1207TIP3    H225185   3.627   2.265   1.083  0.8538 -1.3667  0.6244
 1208TIP3   OH225186   5.018   5.643   7.954  0.1693  0.2885  0.3320
 1208TIP3    H125187   5.078   5.620   8.025  0.4302  0.6322  0.2278
 1208TIP3    H225188   5.049   5.728   7.923 -0.9737  0.9492  0.9377
 1209TIP3   OH225189   2.777   2.081   1.347  0.3054 -0.4251  0.3168
 1209TIP3    H125190   2.699   2.124   1.383  0.5300  0.1118  0.1697
 1209TIP3    H225191   2.841   2.085   1.418  0.2660 -0.6923  0.3689
 1210TIP3   OH225192   0.447   3.531   8.805 -0.0835 -0.6306 -0.3308
 1210TIP3    H125193   0.443   3.571   8.719 -0.6779  1.4570  0.5968
 1210TIP3    H225194   0.357   3.504   8.823  0.0447 -1.0943 -0.3710
 1211TIP3   OH225195   5.079   1.332   7.742 -0.2241  0.1173  0.5461
 1211TIP3    H125196   5.072   1.273   7.817 -1.1889  0.5836  0.8430
 1211TIP3    H225197   5.124   1.281   7.675  0.4528 -0.3836  1.3602
 1212TIP3   OH225198   4.007   0.153   7.502  0.5142  0.4013 -0.1537
 1212TIP3    H125199   3.920   0.185   7.480 -0.6428 -1.8864  0.6874
 1212TIP3    H225200   4.027   0.193   7.586  0.4833  1.2934 -0.5645
 1213TIP3   OH225201   5.272   0.132   0.298  0.3256  0.3268  0.2145
 1213TIP3    H125202   5.263   0.038   0.317 -1.0450  0.6300  1.2107
 1213TIP3    H225203   5.232   0.176   0.373 -0.0493  1.6989 -0.7449
 1214TIP3   OH225204   0.008   4.356   8.639  0.3896 -0.5290  0.2414
 1214TIP3    H125205   0.100   4.339   8.659  1.2650 -0.1191 -2.8782
 1214TIP3    H225206  -0.002   4.451   8.649 -0.0047 -0.6797  1.4913
 1215TIP3   OH225207   4.828   1.339   6.530  0.1404  0.1134 -0.4872
 1215TIP3    H125208   4.789   1.425   6.515 -1.0155 -0.1020  0.9717
 1215TIP3    H225209   4.799   1.315   6.619  3.6847 -0.0577  0.7812
 1216TIP3   OH225210   1.678   4.666   0.842 -0.2828  0.3601 -0.0138
 1216TIP3    H125211   1.739   4.665   0.769  0.4304 -2.3974  0.4993
 1216TIP3    H225212   1.636   4.752   0.838  0.1037  0.5091 -3.2958
 1217TIP3   OH225213   2.482   5.468   1.058 -0.1449  0.4992  0.5427
 1217TIP3    H125214   2.461   5.550   1.103 -0.1448  1.0346 -0.4199
 1217TIP3    H225215   2.555   5.490   1.000 -0.5353 -0.0391 -0.1674
 1218TIP3   OH225216   2.334   0.533   1.430  0.1187  0.3888 -0.6576
 1218TIP3    H125217   2.349   0.456   1.485  0.8098  0.7446 -0.3360
 1218TIP3    H225218   2.281   0.500   1.357  1.6212 -0.7040 -1.2925
 1219TIP3   OH225219   1.407   2.578   0.681 -0.6157 -0.7963  0.0990
 1219TIP3    H125220   1.369   2.621   0.604 -3.0853 -1.6301  0.7582
 1219TIP3    H225221   1.457   2.647   0.725  0.9458 -0.3214 -2.2447
 1220TIP3   OH225222   4.541   0.685   0.338  0.2752  0.6579 -0.3297
 1220TIP3    H125223   4.544   0.591   0.325  2.5518  0.5134  0.8492
 1220TIP3    H225224   4.468   0.699   0.399 -0.5989 -0.2196 -1.1525
 1221TIP3   OH225225   4.944   4.918   1.409 -0.6109 -0.3400 -0.2809
 1221TIP3    H125226   5.013   4.867   1.451 -0.9830  0.3003  1.1783
 1221TIP3    H225227   4.987   4.959   1.333  0.4827 -0.3776  0.2909
 1222TIP3   OH225228   0.387   5.444   6.719 -0.0820 -0.3964 -0.0479
 1222TIP3    H125229   0.444   5.520   6.714  0.5497 -0.8998 -0.6228
 1222TIP3    H225230   0.303   5.474   6.684 -0.2592  0.4126  1.0194
 1223TIP3   OH225231   3.093   6.317   1.020  0.4580  0.8032  0.7659
 1223TIP3    H125232   3.031   6.309   1.092  2.6879 -1.1860  2.6580
 1223TIP3    H225233   3.171   6.354   1.060  1.5905  0.1447 -0.7271
 1224TIP3   OH225234   0.175   5.459   0.735  0.2495 -0.2114  0.3082
 1224TIP3    H125235   0.096   5.491   0.692  1.0364  0.8175 -0.4046
 1224TIP3    H225236   0.160   5.365   0.745 -1.8644  0.2058  1.8986
 1225TIP3   OH225237   4.243   4.238   8.033 -0.5433 -0.2659  0.7068
 1225TIP3    H125238   4.154   4.251   8.000  0.5040 -1.5460 -3.0999
 1225TIP3    H225239   4.239   4.156   8.082 -1.6884  0.4801  1.9402
 1226TIP3   OH225240   1.456   5.121   0.745 -0.1095  0.3585 -0.3497
 1226TIP3    H125241   1.364   5.097   0.738 -0.2244  0.6997 -0.0601
 1226TIP3    H225242   1.503   5.053   0.697 -0.5245  0.2689 -0.6314
 1227TIP3   OH225243   3.401   3.831   8.301  0.0571 -0.0521  0.2141
 1227TIP3    H125244   3.310   3.847   8.325  0.4253  0.5017  1.3191
 1227TIP3    H225245   3.442   3.918   8.304  0.4001 -0.1464 -1.2857
 1228TIP3   OH225246   1.464   5.831   0.110  0.2951 -0.3293 -0.0756
 1228TIP3    H125247   1.428   5.760   0.163  0.2873 -0.6311 -0.4778
 1228TIP3    H225248   1.433   5.812   0.021 -0.5447  0.7176 -0.0335
 1229TIP3   OH225249   1.212   5.348   7.164  0.3367 -0.3562 -0.0706
 1229TIP3    H125250   1.265   5.331   7.086  0.4778 -0.0381 -0.0425
 1229TIP3    H225251   1.174   5.262   7.186 -0.4147 -0.2828 -1.0131
 1230TIP3   OH225252   0.494   4.311   1.048 -0.6833 -0.0061  0.0785
 1230TIP3    H125253   0.508   4.264   1.131 -0.8057 -1.3212 -0.6254
 1230TIP3    H225254   0.457   4.245   0.989 -1.1793  1.0736 -0.8465
 1231TIP3   OH225255   4.212   6.116   2.220  0.1437  0.4470 -0.5603
 1231TIP3    H125256   4.163   6.198   2.226  0.6927  0.7060  0.7423
 1231TIP3    H225257   4.165   6.055   2.278  0.8755  0.4522  0.0522
 1232TIP3   OH225258   0.138   0.819   6.888  0.0775  0.3354 -0.5290
 1232TIP3    H125259   0.225   0.847   6.860 -0.4602  2.4480 -0.2774
 1232TIP3    H225260   0.080   0.843   6.816 -0.5540  0.7270  0.0969
 1233TIP3   OH225261   2.458   5.923   1.379 -0.5045 -0.3096  0.0688
 1233TIP3    H125262   2.499   5.854   1.326 -1.3673 -0.0808 -0.9156
 1233TIP3    H225263   2.471   5.893   1.469 -1.3254 -2.0548 -0.3414
 1234TIP3   OH225264   5.144   2.725   7.897 -0.6725  0.1730  0.0536
 1234TIP3    H125265   5.165   2.712   7.805 -0.5542  0.3517  0.0543
 1234TIP3    H225266   5.229   2.726   7.941 -0.6072  1.8309 -0.0631
 1235TIP3   OH225267   2.176   1.222   1.738  0.2613 -0.0462 -0.2657
 1235TIP3    H125268   2.146   1.169   1.812 -0.0477  0.6715  0.1271
 1235TIP3    H225269   2.216   1.299   1.777 -1.8112  1.3873 -0.8346
 1236TIP3   OH225270   3.249   1.553   7.805 -0.5477  0.5031 -0.1220
 1236TIP3    H125271   3.212   1.477   7.759  2.0315 -0.5135 -0.7233
 1236TIP3    H225272   3.325   1.578   7.752 -0.5139  2.6351  0.8493
 1237TIP3   OH225273   0.606   5.182   8.380 -0.2548  0.4684  0.5318
 1237TIP3    H125274   0.651   5.124   8.319 -0.2309  0.8634  0.1743
 1237TIP3    H225275   0.659   5.179   8.460  0.2131  0.6507  0.2332
 1238TIP3   OH225276   3.080   2.853   1.089  0.7589  0.0089 -0.9256
 1238TIP3    H125277   3.006   2.868   1.148  2.0503  2.1790  0.2555
 1238TIP3    H225278   3.043   2.865   1.001 -0.5666 -0.3242 -0.4428
 1239TIP3   OH225279   4.314   5.928   7.357  0.3497  0.2971  0.2614
 1239TIP3    H125280   4.324   5.833   7.366 -1.1221  0.1526  0.6453
 1239TIP3    H225281   4.400   5.959   7.330  0.8187 -1.1683 -0.0078
 1240TIP3   OH225282   0.017   1.908   6.613 -0.4883  0.3107 -0.4262
 1240TIP3    H125283   0.025   1.854   6.692  1.1261  2.0347  0.6661
 1240TIP3    H225284  -0.077   1.908   6.593 -0.6472 -2.2157 -0.0497
 1241TIP3   OH225285   6.710   4.898   7.830  0.4022 -0.7411 -0.3797
 1241TIP3    H125286   6.760   4.855   7.899  2.9412  0.4941 -1.3450
 1241TIP3    H225287   6.709   4.990   7.856 -0.3024 -0.5620 -1.0290
 1242TIP3   OH225288   1.229   2.927   1.820  0.1311  0.4575 -0.4654
 1242TIP3    H125289   1.184   3.009   1.799  0.1404  0.4129 -0.6648
 1242TIP3    H225290   1.212   2.913   1.913  1.1791  1.3355 -0.1284
 1243TIP3   OH225291   4.730   5.356   7.223 -0.0029  0.2243 -0.3831
 1243TIP3    H125292   4.731   5.347   7.128  0.3376 -0.8545 -0.2927
 1243TIP3    H225293   4.783   5.434   7.240 -1.0931  1.1673 -1.1245
 1244TIP3   OH225294   0.817   1.522   1.041  0.6233 -0.6605  0.1555
 1244TIP3    H125295   0.725   1.539   1.020  0.5779 -1.0220  0.0627
 1244TIP3    H225296   0.866   1.558   0.967  0.6713  1.0649  0.9703
 1245TIP3   OH225297   6.142   5.163   1.539 -0.2033  0.3822 -0.5135
 1245TIP3    H125298   6.147   5.253   1.571  2.2402  0.3788 -0.6872
 1245TIP3    H225299   6.148   5.109   1.618 -1.7296  0.3194 -0.4032
 1246TIP3   OH225300   4.458   5.631   7.381  0.1234 -0.0556  0.2443
 1246TIP3    H125301   4.465   5.612   7.287  1.5295  0.4354  0.2197
 1246TIP3    H225302   4.402   5.562   7.416 -2.2401  0.9482 -1.2900
 1247TIP3   OH225303   2.799   2.644   6.870 -0.3969 -0.3232  0.4923
 1247TIP3    H125304   2.866   2.580   6.891 -0.9152 -0.9470  0.2736
 1247TIP3    H225305   2.746   2.651   6.949 -0.7900 -0.7312  0.2690
 1248TIP3   OH225306   1.614   6.493   0.366 -0.3276  0.1797  0.3981
 1248TIP3    H125307   1.702   6.496   0.405  0.3922 -1.4655 -0.9510
 1248TIP3    H225308   1.631   6.486   0.272 -1.8947 -0.9572  0.1682
 1249TIP3   OH225309   4.732   2.521   8.426 -0.3771  0.1435 -0.1915
 1249TIP3    H125310   4.745   2.612   8.401 -2.3371  0.6722  0.5341
 1249TIP3    H225311   4.691   2.481   8.349  0.0313 -0.0145 -0.3301
 1250TIP3   OH225312   2.598   1.835   0.001  0.0271  0.0302 -0.5829
 1250TIP3    H125313   2.580   1.920   0.042  1.0105  0.1363 -0.3542
 1250TIP3    H225314   2.600   1.773   0.074  0.0472 -0.0672 -0.6662
 1251TIP3   OH225315   1.948   4.056   1.719  0.4434  0.0401  0.0796
 1251TIP3    H125316   1.997   3.977   1.739  0.4161  0.3879  1.6083
 1251TIP3    H225317   1.906   4.080   1.801 -2.7261 -0.5090 -1.2342
 1252TIP3   OH225318   4.008   4.886   1.177  0.0685  0.6684 -0.2553
 1252TIP3    H125319   3.983   4.908   1.267 -1.0726  0.3250 -0.4664
 1252TIP3    H225320   3.952   4.811   1.154 -0.2280  1.2471 -1.5177
 1253TIP3   OH225321   1.866   2.279   8.412  0.0974 -0.1690 -0.2262
 1253TIP3    H125322   1.801   2.237   8.354 -1.1421  0.0535  0.9434
 1253TIP3    H225323   1.813   2.318   8.482  1.5312 -0.1435  0.8749
 1254TIP3   OH225324   4.486   3.151   0.708  0.4681  0.2925  0.0912
 1254TIP3    H125325   4.447   3.082   0.762  0.2492 -0.8084 -1.3933
 1254TIP3    H225326   4.445   3.232   0.739  0.7757 -0.1980  1.9262
 1255TIP3   OH225327   4.456   0.101   0.758 -0.1714  0.3652 -0.5583
 1255TIP3    H125328   4.424   0.183   0.796  2.1501  1.0798 -0.0394
 1255TIP3    H225329   4.377   0.047   0.749 -1.6577  2.3822 -0.2917
 1256TIP3   OH225330   2.994   5.160   7.196  0.4356 -0.6404  0.2119
 1256TIP3    H125331   3.065   5.219   7.169 -1.0215  0.6849 -0.9792
 1256TIP3    H225332   2.914   5.212   7.182 -0.7462 -1.8511  2.0886
 1257TIP3   OH225333   3.843   0.152   6.857  0.2630  0.2555  0.9671
 1257TIP3    H125334   3.898   0.083   6.818  1.4569  1.5179  0.3078
 1257TIP3    H225335   3.863   0.230   6.805 -0.4404  1.2894  2.1984
 1258TIP3   OH225336   3.073   1.345   7.171  0.2382  0.0038 -0.0632
 1258TIP3    H125337   3.084   1.400   7.094  1.0191  0.9042  0.6726
 1258TIP3    H225338   3.155   1.296   7.177 -0.2156 -0.8258 -0.3667
 1259TIP3   OH225339   2.468   0.345   6.873 -0.5608  0.0169 -0.1708
 1259TIP3    H125340   2.428   0.275   6.822 -1.2841 -0.3452  0.8586
 1259TIP3    H225341   2.534   0.382   6.815  0.9819 -2.5546 -0.1772
 1260TIP3   OH225342   0.570   1.592   2.639  0.2943  0.0613 -0.3520
 1260TIP3    H125343   0.483   1.614   2.671  0.6356  0.0657  0.6031
 1260TIP3    H225344   0.621   1.672   2.649  0.7927 -0.3359  0.5116
 1261TIP3   OH225345   0.512   4.665   0.098  0.2252  0.7908  0.0907
 1261TIP3    H125346   0.535   4.598   0.162 -2.7956 -1.5185 -0.9896
 1261TIP3    H225347   0.594   4.683   0.052  1.3718 -1.4202  1.1107
 1262TIP3   OH225348   2.785   2.642   6.197  0.3031 -0.3321  0.2824
 1262TIP3    H125349   2.754   2.604   6.280  0.9873 -0.1731  0.6235
 1262TIP3    H225350   2.879   2.621   6.196  0.7112  1.3647  0.4952
 1263TIP3   OH225351   0.771   6.302   7.880 -0.5672  0.3172  0.0841
 1263TIP3    H125352   0.787   6.344   7.796 -3.9378 -1.1005 -1.4044
 1263TIP3    H225353   0.846   6.243   7.892  0.8628  1.8359 -0.9738
 1264TIP3   OH225354   1.581   0.146   8.756 -0.1327 -0.4980 -0.7004
 1264TIP3    H125355   1.605   0.077   8.819 -0.5889  0.5291  0.6522
 1264TIP3    H225356   1.490   0.127   8.733  0.0276 -0.8637 -1.0355
 1265TIP3   OH225357   6.511   6.383   7.334 -0.2305  0.5633 -0.1722
 1265TIP3    H125358   6.600   6.361   7.308  0.2872  0.3608  1.6543
 1265TIP3    H225359   6.490   6.462   7.285  0.5538  0.0347 -1.3998
 1266TIP3   OH225360   4.753   0.946   2.173 -0.1239  0.3252  0.4099
 1266TIP3    H125361   4.778   1.009   2.106  0.8240 -0.6482 -0.1820
 1266TIP3    H225362   4.763   0.994   2.256  1.2081  0.7630  0.0107
 1267TIP3   OH225363   0.718   1.515   8.128  0.6804  0.0599  0.5664
 1267TIP3    H125364   0.720   1.572   8.052  0.9767 -0.3989  0.2235
 1267TIP3    H225365   0.810   1.496   8.146  0.5924 -0.1799  0.7721
 1268TIP3   OH225366   5.704   4.487   0.495  0.6402 -0.1052 -0.1802
 1268TIP3    H125367   5.662   4.436   0.426  2.2891 -0.0235 -1.2951
 1268TIP3    H225368   5.787   4.443   0.510  1.7431  1.7563 -0.5755
 1269TIP3   OH225369   2.254   2.148   1.504  0.2326 -0.1927  0.4047
 1269TIP3    H125370   2.217   2.236   1.510  0.1641 -0.1962  0.0735
 1269TIP3    H225371   2.203   2.096   1.565  0.0837 -0.0662  0.3886
 1270TIP3   OH225372   4.863   3.373   1.213  0.0190  0.3681  0.0317
 1270TIP3    H125373   4.807   3.308   1.170  0.9132 -0.6720  0.3716
 1270TIP3    H225374   4.952   3.344   1.192  0.4383  1.2068  0.6153
 1271TIP3   OH225375   1.980   0.922   1.607  0.4949 -0.3004  0.1149
 1271TIP3    H125376   2.005   0.864   1.680 -0.9386 -0.7945  0.2401
 1271TIP3    H225377   1.886   0.910   1.598  0.1782  1.8873  0.0120
 1272TIP3   OH225378   0.534   0.637   0.152  0.1812  0.1946  0.0788
 1272TIP3    H125379   0.603   0.695   0.119 -0.4597  0.1600 -1.3822
 1272TIP3    H225380   0.563   0.614   0.241  2.0787  0.1274 -0.5124
 1273TIP3   OH225381   3.771   3.151   7.429  0.1987 -0.2183 -0.2688
 1273TIP3    H125382   3.822   3.209   7.373  0.0691 -1.0253 -1.2531
 1273TIP3    H225383   3.702   3.117   7.372 -0.6381 -0.1779  0.6908
 1274TIP3   OH225384   6.022   0.471   8.189  0.2913  0.3823  0.3400
 1274TIP3    H125385   6.088   0.519   8.138  0.8282 -1.5117 -0.8733
 1274TIP3    H225386   6.039   0.379   8.169 -1.3420 -0.2791  1.7471
 1275TIP3   OH225387   1.415   1.299   7.088  1.1831 -0.3791  0.1592
 1275TIP3    H125388   1.356   1.235   7.127  0.1855  0.8117  0.6505
 1275TIP3    H225389   1.451   1.347   7.162 -1.1818  2.3006 -0.2827
 1276TIP3   OH225390   4.293   4.666   0.269 -0.4684  0.0901  0.3492
 1276TIP3    H125391   4.209   4.704   0.294 -0.8798 -0.0655 -0.7244
 1276TIP3    H225392   4.330   4.728   0.206 -1.0189 -1.0809 -1.2160
 1277TIP3   OH225393   0.451   5.531   8.052 -0.1987 -0.0989  0.2614
 1277TIP3    H125394   0.488   5.560   8.136  0.1865 -0.2749  0.1561
 1277TIP3    H225395   0.439   5.436   8.063 -1.0781  0.0267  0.4649
 1278TIP3   OH225396   4.620   4.507   8.370  0.0477  0.4372 -0.5261
 1278TIP3    H125397   4.573   4.541   8.447 -1.3807  1.7788 -1.9057
 1278TIP3    H225398   4.610   4.412   8.376  0.9876  0.4082  1.5360
 1279TIP3   OH225399   6.537   2.794   7.192  0.1282  0.3446 -0.0650
 1279TIP3    H125400   6.443   2.779   7.202  0.2908 -1.4942 -0.8805
 1279TIP3    H225401   6.560   2.748   7.111  1.7927  0.4905  0.2969
 1280TIP3   OH225402   2.025   0.315   7.835 -0.5581  0.5594 -0.5498
 1280TIP3    H125403   1.948   0.330   7.890 -1.0084  0.9833 -1.2784
 1280TIP3    H225404   2.019   0.382   7.767  1.3720  1.6951  0.3185
 1281TIP3   OH225405   0.176   1.636   7.221 -0.6952 -0.7334  0.4289
 1281TIP3    H125406   0.180   1.727   7.248 -0.6600 -0.7363  0.4339
 1281TIP3    H225407   0.101   1.600   7.268 -0.2616 -0.9000  1.0116
 1282TIP3   OH225408   6.257   4.003   7.562 -0.7849  0.0537 -0.0596
 1282TIP3    H125409   6.294   3.945   7.629  1.5888 -0.0461 -1.3609
 1282TIP3    H225410   6.290   3.968   7.479 -0.0662  2.6489 -0.9713
 1283TIP3   OH225411   2.808   4.590   1.590  0.9776 -0.1692  0.4501
 1283TIP3    H125412   2.894   4.553   1.574  1.5013  1.1099  0.2100
 1283TIP3    H225413   2.823   4.658   1.655  0.5628  1.6347 -1.2571
 1284TIP3   OH225414   5.594   5.174   1.617  0.9143  0.2883  0.6367
 1284TIP3    H125415   5.524   5.238   1.625  0.5419  0.2747 -1.7100
 1284TIP3    H225416   5.674   5.224   1.627  0.6046  0.5863  1.7435
 1285TIP3   OH225417   6.008   5.434   1.345 -0.4695  0.0663  0.0295
 1285TIP3    H125418   5.982   5.485   1.268 -2.3233 -1.1279 -0.1812
 1285TIP3    H225419   6.032   5.500   1.410 -1.6704  1.1854 -0.6093
 1286TIP3   OH225420   0.527   6.231   0.258 -0.6334 -0.4214  0.2091
 1286TIP3    H125421   0.528   6.309   0.202  0.7319  0.3439  1.2285
 1286TIP3    H225422   0.435   6.215   0.276 -0.9202  1.3333  0.4535
 1287TIP3   OH225423   0.082   2.708   7.849  0.0040 -0.1522 -0.0314
 1287TIP3    H125424   0.155   2.749   7.895 -0.6899  2.6645 -1.2414
 1287TIP3    H225425   0.120   2.678   7.766  0.0646  0.0749 -0.0858
 1288TIP3   OH225426   2.226   5.823   8.098  0.4330 -0.1638 -0.0390
 1288TIP3    H125427   2.224   5.873   8.180  0.7787 -0.0017 -0.1297
 1288TIP3    H225428   2.267   5.740   8.122  1.8429  0.4149 -0.3301
 1289TIP3   OH225429   2.566   2.827   0.338 -0.2957 -0.4480  0.0571
 1289TIP3    H125430   2.512   2.809   0.261  1.7429 -0.7234 -1.3927
 1289TIP3    H225431   2.521   2.782   0.410 -1.9048 -0.7635 -1.0836
 1290TIP3   OH225432   0.079   5.280   1.406 -0.2181  0.1219 -0.2754
 1290TIP3    H125433   0.154   5.259   1.462 -0.5359 -0.5417 -0.1009
 1290TIP3    H225434   0.005   5.236   1.447 -0.8478  1.3338 -0.0639
 1291TIP3   OH225435   6.325   5.198   6.733 -0.1344 -0.6586 -0.6379
 1291TIP3    H125436   6.267   5.214   6.658  0.7177 -0.4474 -1.2642
 1291TIP3    H225437   6.413   5.209   6.698  0.2779 -0.5493  0.4096
 1292TIP3   OH225438   5.710   5.050   0.621  0.0053  0.1016  0.1944
 1292TIP3    H125439   5.714   4.956   0.600 -1.9584 -0.1556  0.7698
 1292TIP3    H225440   5.774   5.061   0.691 -1.0786 -1.2685  1.5005
 1293TIP3   OH225441   1.132   0.723   0.981  0.1319 -0.1471 -0.4201
 1293TIP3    H125442   1.057   0.755   0.931  0.6611 -0.3470 -1.3627
 1293TIP3    H225443   1.100   0.717   1.071 -0.9565 -0.1526 -0.7944
 1294TIP3   OH225444   2.944   6.497   1.768 -0.0366  0.1149  0.6351
 1294TIP3    H125445   2.849   6.513   1.765  0.0699  0.6889 -1.2328
 1294TIP3    H225446   2.952   6.404   1.748 -0.2071  0.0467  0.8756
 1295TIP3   OH225447   1.178   3.776   8.225  0.1295 -0.2839  0.0796
 1295TIP3    H125448   1.256   3.828   8.246 -0.7278  0.3546  1.8560
 1295TIP3    H225449   1.212   3.701   8.175  1.3585  2.0618 -2.8534
 1296TIP3   OH225450   6.291   5.686   0.268 -0.2621  0.4147  0.0146
 1296TIP3    H125451   6.195   5.686   0.267 -0.3459 -2.1691 -1.6960
 1296TIP3    H225452   6.314   5.631   0.343 -0.2565 -1.5350 -1.3636
 1297TIP3   OH225453   0.225   2.821   0.957  0.0250  0.3215  0.3652
 1297TIP3    H125454   0.168   2.831   0.881 -1.0423  0.6437  1.1815
 1297TIP3    H225455   0.179   2.867   1.028  1.6393  1.2296  0.8855
 1298TIP3   OH225456   1.827   6.068   6.748 -0.0792  0.4914  0.3284
 1298TIP3    H125457   1.805   6.159   6.769 -3.6663 -0.0313 -0.5308
 1298TIP3    H225458   1.859   6.072   6.658  1.8918  1.0985  1.0180
 1299TIP3   OH225459   2.000   0.116   1.618 -0.4199  0.1123 -0.1175
 1299TIP3    H125460   2.063   0.174   1.661 -1.1303  1.2097 -0.5251
 1299TIP3    H225461   2.027   0.028   1.645  0.5574  0.6295  0.6755
 1300TIP3   OH225462   4.805   4.119   7.794  0.1652  0.4081 -0.5322
 1300TIP3    H125463   4.779   4.211   7.790 -0.6188  0.2100 -0.2391
 1300TIP3    H225464   4.829   4.105   7.885  0.8276  0.4573 -0.6945
 1301TIP3   OH225465   1.335   2.225   0.379 -0.2860  0.4263  0.3205
 1301TIP3    H125466   1.390   2.160   0.336 -1.3034 -0.0992 -0.2354
 1301TIP3    H225467   1.393   2.269   0.441 -0.0271 -2.3198  2.1509
 1302TIP3   OH225468   2.865   1.364   8.674  0.4707  0.3012  0.4656
 1302TIP3    H125469   2.792   1.307   8.650  0.6388 -0.3775  1.4941
 1302TIP3    H225470   2.880   1.419   8.597  0.4075 -1.1460 -0.6023
 1303TIP3   OH225471   4.012   0.100   7.058 -0.0760  0.2449 -0.0472
 1303TIP3    H125472   3.944   0.140   7.005 -0.7872  0.4515  0.9872
 1303TIP3    H225473   4.022   0.158   7.133  1.1771  0.1662 -0.1241
 1304TIP3   OH225474   2.483   0.775   7.524  0.5159  0.1737  0.4225
 1304TIP3    H125475   2.527   0.729   7.595 -0.9963 -0.8881  0.7192
 1304TIP3    H225476   2.413   0.716   7.496 -0.2858  1.4879 -0.5030
 1305TIP3   OH225477   3.762   1.030   2.405 -0.6214 -0.0751  0.0317
 1305TIP3    H125478   3.708   1.102   2.372  0.1653  0.7144  0.4351
 1305TIP3    H225479   3.776   1.051   2.498  1.0437  0.1732 -0.2446
 1306TIP3   OH225480   4.883   3.813   0.772 -0.0492  0.1951  0.5915
 1306TIP3    H125481   4.816   3.882   0.776 -2.3170 -1.5555 -2.5261
 1306TIP3    H225482   4.855   3.749   0.837 -0.2238  0.4163  0.7353
 1307TIP3   OH225483   4.887   4.603   8.375  0.0301 -0.8641  0.7348
 1307TIP3    H125484   4.795   4.583   8.387  0.2751 -1.7725  1.1621
 1307TIP3    H225485   4.933   4.523   8.401  0.8511 -1.0894 -1.2206
 1308TIP3   OH225486   4.157   0.187   0.585  0.9117 -0.1663 -0.0547
 1308TIP3    H125487   4.175   0.100   0.550 -1.0775 -1.3026  1.5545
 1308TIP3    H225488   4.067   0.206   0.559  0.8362  0.7741  0.8250
 1309TIP3   OH225489   0.309   0.300   0.545  0.4743 -0.0761 -0.7845
 1309TIP3    H125490   0.403   0.314   0.548  0.6233 -1.1468  1.0533
 1309TIP3    H225491   0.272   0.388   0.533  1.6497  0.6709  0.7214
 1310TIP3   OH225492   0.586   5.630   1.963  0.3618 -0.6317 -0.4611
 1310TIP3    H125493   0.577   5.632   1.867  1.3613  0.6481 -0.5540
 1310TIP3    H225494   0.574   5.538   1.986  0.4003 -1.0067 -1.8454
 1311TIP3   OH225495   3.436   6.473   1.364  0.1546 -0.0819 -0.7039
 1311TIP3    H125496   3.390   6.557   1.368  0.5647  0.1442 -0.6661
 1311TIP3    H225497   3.426   6.435   1.451 -0.8821 -0.5367 -1.0046
 1312TIP3   OH225498   5.293   2.338   7.691  0.0598 -0.1253  0.6184
 1312TIP3    H125499   5.385   2.331   7.663 -0.0618 -0.7638  0.3604
 1312TIP3    H225500   5.281   2.431   7.710  0.1812  0.3384 -1.3589
 1313TIP3   OH225501   3.951   6.622   0.436  0.2182 -0.1817 -0.3074
 1313TIP3    H125502   4.012   6.551   0.456 -0.0087 -1.2013 -2.8684
 1313TIP3    H225503   3.887   6.584   0.376 -2.7988  0.9665  1.9532
 1314TIP3   OH225504   0.025   3.569   0.564  0.1455 -0.5632  0.0346
 1314TIP3    H125505  -0.021   3.648   0.537 -0.1951 -0.5884  0.5348
 1314TIP3    H225506   0.086   3.599   0.631  1.7553 -0.3134 -1.4544
 1315TIP3   OH225507   5.688   0.279   8.493  0.3514 -0.1475  0.1672
 1315TIP3    H125508   5.760   0.312   8.546 -0.5369  1.2401  0.5574
 1315TIP3    H225509   5.621   0.254   8.556 -0.8696  1.8886 -0.2545
 1316TIP3   OH225510   3.662   1.838   8.379  0.1866  0.6330 -0.8650
 1316TIP3    H125511   3.587   1.804   8.330 -1.6236  3.5206 -0.3282
 1316TIP3    H225512   3.728   1.856   8.312 -0.6841  0.7035 -1.7220
 1317TIP3   OH225513   5.977   1.284   1.212  0.2212  0.1918 -0.1531
 1317TIP3    H125514   5.940   1.202   1.246  1.0550  0.8881  2.6553
 1317TIP3    H225515   6.026   1.257   1.134  0.8230 -2.0711  0.9209
 1318TIP3   OH225516   4.024   4.752   6.978  0.2306 -0.0276 -0.5080
 1318TIP3    H125517   4.055   4.842   6.969 -0.4890  0.5049  1.7070
 1318TIP3    H225518   3.968   4.738   6.902 -2.9552  2.8910  1.0264
 1319TIP3   OH225519   3.622   2.438   8.762  0.7397 -0.0669  0.5192
 1319TIP3    H125520   3.594   2.366   8.705 -1.0296  0.4875  0.6346
 1319TIP3    H225521   3.625   2.399   8.850 -2.3993  0.4091  0.9624
 1320TIP3   OH225522   2.399   1.216   2.008  0.3805  0.1550  0.1029
 1320TIP3    H125523   2.420   1.230   2.101 -1.1114 -0.1873  0.5181
 1320TIP3    H225524   2.373   1.302   1.976 -3.0148 -0.3320  1.1117
 1321TIP3   OH225525   5.351   0.831   6.911 -0.0924  0.8772  0.0698
 1321TIP3    H125526   5.435   0.845   6.867 -0.1050 -0.3255 -0.3691
 1321TIP3    H225527   5.321   0.919   6.933  1.3890  1.3157  0.4490
 1322TIP3   OH225528   4.018   2.301   7.997 -0.1324  0.0422  0.8738
 1322TIP3    H125529   3.998   2.220   8.043  0.4381 -0.3303  0.4781
 1322TIP3    H225530   3.933   2.345   7.987 -0.8336 -1.6027 -0.9619
 1323TIP3   OH225531   5.752   1.107   1.154  0.1352  0.2669 -0.2868
 1323TIP3    H125532   5.814   1.043   1.189  1.6388  1.3434 -0.8752
 1323TIP3    H225533   5.733   1.077   1.066  0.2702  0.2397 -0.3069
 1324TIP3   OH225534   4.307   0.507   7.420  0.5608 -0.6544  0.0135
 1324TIP3    H125535   4.221   0.493   7.461  0.1562  0.7236 -0.3265
 1324TIP3    H225536   4.340   0.587   7.461  0.3030  0.5668 -2.0533
 1325TIP3   OH225537   1.948   2.230   7.365  0.6018 -0.2262  0.5251
 1325TIP3    H125538   2.025   2.286   7.363 -0.1295  0.8173 -1.0337
 1325TIP3    H225539   1.948   2.187   7.279 -1.6451  1.4355 -0.4025
 1326TIP3   OH225540   4.796   3.589   1.382 -0.0085  0.5957  0.1798
 1326TIP3    H125541   4.863   3.658   1.384  4.8611 -3.5410  2.1492
 1326TIP3    H225542   4.819   3.535   1.307 -0.6115 -1.3916  1.3580
 1327TIP3   OH225543   0.014   4.816   1.329 -0.3610  1.1194  0.1359
 1327TIP3    H125544  -0.077   4.785   1.324  0.1267 -0.3447 -0.1714
 1327TIP3    H225545   0.053   4.763   1.399  0.8672 -0.0098 -1.3333
 1328TIP3   OH225546   4.309   3.890   2.032 -0.4657  0.1431 -0.1843
 1328TIP3    H125547   4.326   3.924   2.120  0.9852  0.8776 -0.7218
 1328TIP3    H225548   4.214   3.899   2.021 -0.7588 -0.4802  1.4903
 1329TIP3   OH225549   3.236   1.469   1.852 -0.4925 -0.5078  0.5941
 1329TIP3    H125550   3.291   1.492   1.927  0.6414  1.9968 -0.8517
 1329TIP3    H225551   3.153   1.514   1.868 -0.5497 -0.6650  0.7388
 1330TIP3   OH225552   1.768   5.872   0.156  0.2160 -0.2421 -0.0122
 1330TIP3    H125553   1.779   5.906   0.067 -0.1946  0.2921  0.1346
 1330TIP3    H225554   1.673   5.865   0.168  0.2625 -2.6923 -0.4816
 1331TIP3   OH225555   1.437   5.854   0.797  0.1078  0.4505 -0.0326
 1331TIP3    H125556   1.471   5.935   0.760 -0.5574  0.9566  0.4425
 1331TIP3    H225557   1.445   5.789   0.727  1.7839  0.6129 -0.0247
 1332TIP3   OH225558   4.911   2.170   7.487 -0.0532 -0.3459  0.0113
 1332TIP3    H125559   4.835   2.138   7.535  0.2472  0.4080  1.0115
 1332TIP3    H225560   4.894   2.144   7.396 -1.4800 -0.2358  0.2210
 1333TIP3   OH225561   2.266   6.669   0.347  0.3759 -0.4333 -0.3345
 1333TIP3    H125562   2.259   6.742   0.409  1.7429  0.6482 -1.3675
 1333TIP3    H225563   2.182   6.624   0.353  0.3656 -0.2243  2.0947
 1334TIP3   OH225564   1.010   1.135   1.476 -0.2598  0.2633 -0.5631
 1334TIP3    H125565   0.980   1.086   1.399 -0.8690 -0.8655  0.3641
 1334TIP3    H225566   0.948   1.112   1.545  0.8124  0.5201  0.5271
 1335TIP3   OH225567   0.249   2.964   1.734  1.1283  0.1463 -0.3061
 1335TIP3    H125568   0.208   2.976   1.819  2.6124 -0.9516  0.6149
 1335TIP3    H225569   0.178   2.978   1.671 -0.0586  0.7450  1.0949
 1336TIP3   OH225570   4.982   4.403   1.203  0.1538  0.4538 -0.3598
 1336TIP3    H125571   4.954   4.466   1.271  2.2605  1.8835 -0.7035
 1336TIP3    H225572   4.947   4.439   1.122  1.0098  1.0109 -0.5016
 1337TIP3   OH225573   4.073   1.768   8.481  0.5628  0.0624  0.2794
 1337TIP3    H125574   4.023   1.721   8.547 -0.3174  1.1153  0.3851
 1337TIP3    H225575   4.099   1.850   8.524 -1.7144  1.6833 -1.2198
 1338TIP3   OH225576   0.633   2.801   8.247 -0.0902 -0.2957 -0.7601
 1338TIP3    H125577   0.663   2.741   8.314  1.5905  0.4498 -0.7904
 1338TIP3    H225578   0.711   2.821   8.195 -0.6841  1.5249 -1.0400
 1339TIP3   OH225579   5.307   6.396   1.530 -0.5221  0.4937 -0.3993
 1339TIP3    H125580   5.361   6.457   1.581  0.1622  0.5212 -1.1399
 1339TIP3    H225581   5.328   6.310   1.565 -0.6885  0.5809 -0.0760
 1340TIP3   OH225582   4.033   6.324   7.873  0.2200  0.3537  0.3223
 1340TIP3    H125583   4.067   6.391   7.814 -1.7429 -0.0565 -1.3882
 1340TIP3    H225584   4.092   6.249   7.860 -0.0567  0.3416 -0.9822
 1341TIP3   OH225585   1.894   3.403   7.961 -0.5852 -0.4901  0.2944
 1341TIP3    H125586   1.820   3.443   8.007  0.6003  1.7952  0.3591
 1341TIP3    H225587   1.859   3.383   7.874 -1.7884 -1.3085  0.9329
 1342TIP3   OH225588   5.910   1.632   8.781  0.0290  0.7311  0.1031
 1342TIP3    H125589   5.889   1.724   8.766  1.4624  1.2141  0.8704
 1342TIP3    H225590   5.976   1.633   8.850 -0.6279 -0.9406  0.8210
 1343TIP3   OH225591   5.344   4.083   1.028  0.5379  0.3202 -0.4552
 1343TIP3    H125592   5.322   4.175   1.038  1.3173  0.6487 -1.6447
 1343TIP3    H225593   5.291   4.053   0.954  0.2355 -0.2287 -0.0336
 1344TIP3   OH225594   6.225   3.486   7.461  0.2479  0.0359  0.3217
 1344TIP3    H125595   6.209   3.415   7.399 -1.0824  0.7364 -0.1839
 1344TIP3    H225596   6.282   3.547   7.414  1.4057 -0.6573  0.7623
 1345TIP3   OH225597   4.262   4.827   7.333 -0.6431  0.4168  0.2302
 1345TIP3    H125598   4.329   4.827   7.265 -0.2691 -0.2143  0.5875
 1345TIP3    H225599   4.186   4.787   7.292 -0.6622  0.7325 -0.0441
 1346TIP3   OH225600   3.897   3.967   1.168 -0.2579 -0.6618 -0.1795
 1346TIP3    H125601   3.976   4.015   1.192  0.7704 -1.4287 -1.8177
 1346TIP3    H225602   3.882   3.907   1.240 -0.9378  1.2824  1.3892
 1347TIP3   OH225603   2.210   2.704   6.959 -0.0131 -0.2499 -0.6569
 1347TIP3    H125604   2.201   2.698   6.864 -0.0043 -3.2076 -0.5453
 1347TIP3    H225605   2.125   2.680   6.993  0.3383 -0.4470  0.1050
 1348TIP3   OH225606   3.358   3.655   0.261  0.4662  0.9244 -0.3735
 1348TIP3    H125607   3.273   3.693   0.283 -1.1492 -0.9499 -2.8606
 1348TIP3    H225608   3.352   3.564   0.291 -0.1158 -0.4175 -4.0454
 1349TIP3   OH225609   0.162   4.631   6.757 -0.0638 -0.0354 -0.0114
 1349TIP3    H125610   0.160   4.573   6.833 -1.0569 -1.7457 -1.2755
 1349TIP3    H225611   0.085   4.606   6.706  2.0283 -0.9499 -2.9992
 1350TIP3   OH225612   5.633   1.824   6.259  0.1750  0.6296  0.6932
 1350TIP3    H125613   5.656   1.905   6.304 -0.6059  0.8369  0.7348
 1350TIP3    H225614   5.715   1.793   6.222  1.0823 -0.1346  3.1521
 1351TIP3   OH225615   0.604   3.968   7.267 -0.5422 -0.5355 -0.0158
 1351TIP3    H125616   0.523   3.986   7.315 -0.8930 -0.1066 -0.7448
 1351TIP3    H225617   0.577   3.915   7.192 -0.2083 -0.1318 -0.4348
 1352TIP3   OH225618   6.041   3.602   7.223  0.4974  0.2688 -0.2894
 1352TIP3    H125619   6.135   3.591   7.235  0.4928 -0.5832 -0.9183
 1352TIP3    H225620   6.026   3.695   7.238  1.6126  0.6219 -1.1802
 1353TIP3   OH225621   5.700   2.890   0.220 -0.4751 -0.0401  0.2908
 1353TIP3    H125622   5.727   2.799   0.235  0.5662  0.3807  1.1121
 1353TIP3    H225623   5.607   2.891   0.243 -0.5743 -0.9598 -0.0211
 1354TIP3   OH225624   5.222   4.282   1.344  0.7986  0.6528 -0.1739
 1354TIP3    H125625   5.163   4.272   1.419  0.4535 -2.1862 -0.7061
 1354TIP3    H225626   5.165   4.305   1.271  1.1067  3.1798  0.2838
 1355TIP3   OH225627   0.680   1.355   1.239  0.0493 -0.4282 -0.3268
 1355TIP3    H125628   0.749   1.295   1.267  1.0191  1.4859  1.8109
 1355TIP3    H225629   0.720   1.407   1.169  1.0588  0.9639  1.1915
 1356TIP3   OH225630   3.979   1.126   8.353 -0.2472  0.2826  0.0552
 1356TIP3    H125631   4.037   1.185   8.306  0.0077 -0.5361 -0.6963
 1356TIP3    H225632   4.037   1.059   8.389 -0.4442  0.8770  1.5384
 1357TIP3   OH225633   2.990   3.815   1.420 -0.2523  0.1152  0.0287
 1357TIP3    H125634   2.991   3.758   1.497 -1.6715  1.1409  0.8479
 1357TIP3    H225635   2.968   3.757   1.347  0.3537 -0.7333  0.4990
 1358TIP3   OH225636   2.390   3.324   1.651 -0.7390 -0.5052  0.1056
 1358TIP3    H125637   2.315   3.267   1.631 -0.9433 -0.0967 -0.3112
 1358TIP3    H225638   2.467   3.267   1.638 -0.9659 -0.8595  0.3049
 1359TIP3   OH225639   1.279   6.435   8.814 -0.3922 -0.4081  0.5169
 1359TIP3    H125640   1.281   6.401   8.903  1.9560  1.6611  1.3669
 1359TIP3    H225641   1.202   6.493   8.813  0.4544  0.8253  1.8002
 1360TIP3   OH225642   2.694   2.406   0.893  0.4362 -0.1983  0.3960
 1360TIP3    H125643   2.716   2.348   0.965  0.0563 -0.8187  0.0213
 1360TIP3    H225644   2.712   2.355   0.814  1.0245  0.5397  0.0440
 1361TIP3   OH225645   1.449   5.221   0.270 -0.2380 -0.4736 -0.0138
 1361TIP3    H125646   1.459   5.215   0.175  0.5164  0.2633 -0.0000
 1361TIP3    H225647   1.369   5.271   0.282 -0.2607 -0.4458 -0.2643
 1362TIP3   OH225648   3.755   0.271   0.092  1.0335 -0.5984  0.3279
 1362TIP3    H125649   3.808   0.345   0.063 -0.9254  1.5558  1.8800
 1362TIP3    H225650   3.664   0.301   0.084  0.1658 -2.6412  1.5387
 1363TIP3   OH225651   0.298   1.491   0.579  0.1042  0.1071 -0.0391
 1363TIP3    H125652   0.367   1.500   0.645  1.3666  0.8644 -1.4006
 1363TIP3    H225653   0.283   1.581   0.548  0.3905 -0.3539 -1.5937
 1364TIP3   OH225654   4.682   6.471   8.661 -0.1047  0.1471  0.5415
 1364TIP3    H125655   4.774   6.479   8.637 -0.0950  0.7385  0.7648
 1364TIP3    H225656   4.636   6.525   8.597 -0.3219 -0.3296  0.2896
 1365TIP3   OH225657   2.994   6.652   8.300  0.2937  0.4891  0.2479
 1365TIP3    H125658   2.941   6.624   8.374 -0.4430 -0.9017 -0.7682
 1365TIP3    H225659   3.085   6.641   8.330  0.0106  0.0443  0.9609
 1366TIP3   OH225660   6.731   2.411   7.590 -0.3247  0.1697 -0.0405
 1366TIP3    H125661   6.713   2.419   7.496 -1.9657  2.0048  0.3545
 1366TIP3    H225662   6.807   2.467   7.605 -0.7335  0.7667 -0.1370
 1367TIP3   OH225663   0.039   2.854   7.433 -0.1572  0.1245 -0.2833
 1367TIP3    H125664  -0.013   2.908   7.373 -0.4837  1.0929  0.8500
 1367TIP3    H225665   0.082   2.916   7.491  0.1300 -0.7903  0.5099
 1368TIP3   OH225666   3.303   0.426   0.573  0.1214  0.3913  0.0469
 1368TIP3    H125667   3.251   0.507   0.576 -1.6700 -0.7284  1.5051
 1368TIP3    H225668   3.300   0.393   0.663  3.9582  0.5499  0.3924
 1369TIP3   OH225669   0.881   1.180   2.506  0.2101  0.2352  0.0060
 1369TIP3    H125670   0.824   1.247   2.543 -1.0412 -1.0598  0.4980
 1369TIP3    H225671   0.831   1.142   2.434  0.6895 -0.4960  0.0395
 1370TIP3   OH225672   4.013   0.717   7.797 -0.5204  0.0309 -0.7015
 1370TIP3    H125673   3.944   0.674   7.847 -0.3484 -0.0579 -0.5405
 1370TIP3    H225674   3.975   0.801   7.771 -0.5463  0.1539 -0.2703
 1371TIP3   OH225675   2.801   1.472   8.032  0.1010  0.7520  0.4318
 1371TIP3    H125676   2.887   1.512   8.041  0.1250  1.1516 -1.2834
 1371TIP3    H225677   2.750   1.509   8.104  1.3538  0.4515  1.5136
 1372TIP3   OH225678   2.057   4.650   0.241  0.2492  0.2585  0.1987
 1372TIP3    H125679   2.150   4.630   0.244  0.2552  0.1709 -0.5289
 1372TIP3    H225680   2.047   4.727   0.297  0.3298 -1.2968  2.4926
 1373TIP3   OH225681   3.116   0.837   1.108 -0.4807  0.5685 -0.2511
 1373TIP3    H125682   3.158   0.917   1.139 -0.1345  0.0761  0.5520
 1373TIP3    H225683   3.027   0.842   1.141  0.0809 -0.2927  1.4760
 1374TIP3   OH225684   0.684   3.288   8.464 -0.0035  0.0036  0.2495
 1374TIP3    H125685   0.613   3.266   8.524 -0.0071 -0.7243 -0.0073
 1374TIP3    H225686   0.657   3.251   8.380  0.7734 -0.4743  0.2006
 1375TIP3   OH225687   4.145   3.144   8.632  0.3191  0.4327 -0.4045
 1375TIP3    H125688   4.222   3.104   8.592  0.6417  0.2041  0.4217
 1375TIP3    H225689   4.091   3.070   8.659 -0.6224  0.5915 -1.7494
 1376TIP3   OH225690   1.623   3.840   7.475  0.0190  0.3650 -0.1314
 1376TIP3    H125691   1.600   3.897   7.549 -0.0953  0.1529 -0.0015
 1376TIP3    H225692   1.575   3.876   7.401  1.6563  1.7770 -0.5669
 1377TIP3   OH225693   5.937   0.677   7.252  0.0535  0.2936 -0.3488
 1377TIP3    H125694   6.026   0.677   7.217 -0.1166  1.5852 -0.8294
 1377TIP3    H225695   5.887   0.729   7.190 -0.7910  0.5656  0.5424
 1378TIP3   OH225696   3.573   4.363   6.610  0.6880  0.7202  0.3664
 1378TIP3    H125697   3.478   4.364   6.599  0.7218  0.7707  0.0681
 1378TIP3    H225698   3.591   4.279   6.654  0.7228 -0.4071 -1.6646
 1379TIP3   OH225699   1.696   1.500   8.334 -0.0579 -0.7146 -0.1914
 1379TIP3    H125700   1.601   1.485   8.342 -0.5478  1.0011 -2.0302
 1379TIP3    H225701   1.720   1.544   8.416 -1.4361  1.3262 -0.8296
 1380TIP3   OH225702   0.134   3.848   0.319  0.2540  0.5373  0.0961
 1380TIP3    H125703   0.223   3.881   0.330 -0.1756  2.1767 -0.9908
 1380TIP3    H225704   0.086   3.922   0.281 -1.4837 -0.4315  0.3289
 1381TIP3   OH225705   4.448   0.025   2.010 -0.2559 -0.1806 -0.9778
 1381TIP3    H125706   4.420  -0.008   2.095  0.5385  2.3835  0.3913
 1381TIP3    H225707   4.536  -0.011   1.998 -1.6235 -3.4042 -2.4943
 1382TIP3   OH225708   1.413   6.049   7.501 -0.0447  0.4311 -0.8369
 1382TIP3    H125709   1.354   6.112   7.460 -0.2860  0.5411 -0.3241
 1382TIP3    H225710   1.499   6.069   7.463 -0.1638  0.8974 -0.8651
 1383TIP3   OH225711   4.767   5.667   8.556 -0.3502  0.4386 -0.8915
 1383TIP3    H125712   4.710   5.596   8.527 -1.1491  1.1521 -1.1092
 1383TIP3    H225713   4.764   5.731   8.484  0.9252  0.3846 -1.0201
 1384TIP3   OH225714   6.408   0.057   1.617  0.0698  0.1736 -0.1028
 1384TIP3    H125715   6.321   0.026   1.639  0.8211 -0.8753  1.6358
 1384TIP3    H225716   6.450  -0.017   1.573  1.1966 -0.7048  2.2496
 1385TIP3   OH225717   0.996   2.843   1.449 -0.2100  0.7646 -0.0875
 1385TIP3    H125718   1.070   2.851   1.389 -1.3976  0.1637 -1.6956
 1385TIP3    H225719   0.998   2.751   1.476  0.3739  1.0529  0.9193
 1386TIP3   OH225720   3.923   0.686   1.070  0.4461  0.5533  0.2846
 1386TIP3    H125721   3.929   0.598   1.105 -4.5531 -0.3354 -0.3876
 1386TIP3    H225722   3.938   0.676   0.976 -0.0025  0.4045  0.2258
 1387TIP3   OH225723   1.996   4.280   8.720 -0.3578 -0.1241 -0.0959
 1387TIP3    H125724   2.079   4.303   8.679 -0.8602  0.4707 -0.8129
 1387TIP3    H225725   1.965   4.362   8.759 -0.3268 -0.4789  0.6944
 1388TIP3   OH225726   2.687   5.093   1.476  0.1443 -0.5597 -0.1155
 1388TIP3    H125727   2.691   5.183   1.508  0.9473 -1.0346  1.1988
 1388TIP3    H225728   2.766   5.083   1.422 -1.5662  0.4627 -3.0473
 1389TIP3   OH225729   5.748   3.631   8.219 -0.3999 -0.5925 -0.0527
 1389TIP3    H125730   5.704   3.650   8.302 -0.7721  0.1232 -0.4047
 1389TIP3    H225731   5.729   3.539   8.202 -0.9310 -0.5526  0.2925
 1390TIP3   OH225732   5.765   3.496   1.600  0.4396 -0.3377 -0.3773
 1390TIP3    H125733   5.690   3.548   1.572 -0.7270 -2.1437 -0.7797
 1390TIP3    H225734   5.771   3.511   1.694 -0.3748 -0.1024 -0.3597
 1391TIP3   OH225735   4.510   5.500   2.076  0.5019  0.1364 -0.4864
 1391TIP3    H125736   4.543   5.589   2.072  0.7081  0.1349  0.9008
 1391TIP3    H225737   4.430   5.506   2.129  0.4025 -0.4687 -0.5600
 1392TIP3   OH225738   4.589   4.386   6.674 -0.4641  0.6139 -0.5236
 1392TIP3    H125739   4.512   4.396   6.618  1.0582  1.3259 -2.6372
 1392TIP3    H225740   4.650   4.333   6.623  1.7369  2.8395 -0.4323
 1393TIP3   OH225741   6.730   5.813   7.749 -0.3036  0.4744 -0.1507
 1393TIP3    H125742   6.823   5.838   7.745 -0.7888  2.3609 -0.7384
 1393TIP3    H225743   6.718   5.756   7.673  0.2726  0.6728 -0.3993
 1394TIP3   OH225744   2.943   6.285   2.552  0.6891  0.2997 -0.1233
 1394TIP3    H125745   2.859   6.316   2.517  1.1129 -1.0660 -2.5353
 1394TIP3    H225746   2.919   6.210   2.607  0.2183  0.9391  0.5674
 1395TIP3   OH225747   5.781   2.710   8.644  0.3137 -0.3400  0.1474
 1395TIP3    H125748   5.795   2.683   8.553 -2.0300  0.9269 -0.6649
 1395TIP3    H225749   5.869   2.731   8.676  1.2587 -1.2746 -1.6418
 1396TIP3   OH225750   2.678   6.109   1.174  1.1523  0.2672 -0.1451
 1396TIP3    H125751   2.592   6.081   1.205  1.5652  0.8605  1.7214
 1396TIP3    H225752   2.660   6.166   1.100  0.2144 -3.3357 -2.9911
 1397TIP3   OH225753   2.480   4.386   0.890  0.0655 -0.1705  0.4461
 1397TIP3    H125754   2.535   4.457   0.859 -1.4123  0.5494 -0.6182
 1397TIP3    H225755   2.540   4.312   0.901  1.1209  0.3556 -1.4397
 1398TIP3   OH225756   6.722   5.330   7.312 -0.5977  0.1898 -0.3035
 1398TIP3    H125757   6.765   5.344   7.397 -0.8359  1.1235 -0.3248
 1398TIP3    H225758   6.658   5.261   7.329  0.0232 -0.3231  0.0335
 1399TIP3   OH225759   4.535   4.538   0.673 -0.3522 -0.0689  0.3665
 1399TIP3    H125760   4.529   4.591   0.752 -0.9470 -0.2815  0.4673
 1399TIP3    H225761   4.620   4.494   0.679  0.3298  1.1754  0.0837
 1400TIP3   OH225762   5.927   3.423   7.873 -0.1056 -0.0078  0.2910
 1400TIP3    H125763   5.967   3.377   7.799  0.8496 -1.9365  1.8800
 1400TIP3    H225764   5.843   3.379   7.886 -0.3860  0.4982  0.2039
 1401TIP3   OH225765   0.714   5.488   8.587 -0.9919 -0.3732  0.0485
 1401TIP3    H125766   0.737   5.541   8.663 -0.4721 -0.3201 -0.1422
 1401TIP3    H225767   0.788   5.428   8.577 -1.0113 -0.3125 -0.4767
 1402TIP3   OH225768   4.925   3.125   8.789  0.1838  0.2536  0.8935
 1402TIP3    H125769   4.907   3.075   8.869 -1.3224 -0.3775  0.1929
 1402TIP3    H225770   4.851   3.106   8.731  0.8683  1.2879 -0.3796
 1403TIP3   OH225771   2.268   3.596   2.119  0.1632  0.6455  0.1711
 1403TIP3    H125772   2.247   3.545   2.197 -1.5228 -1.8020 -1.7175
 1403TIP3    H225773   2.258   3.687   2.147  0.0131 -0.1165  2.8750
 1404TIP3   OH225774   6.783   4.753   1.926  0.3406 -0.1854  0.0222
 1404TIP3    H125775   6.785   4.717   2.015  2.2865  0.4224  0.2718
 1404TIP3    H225776   6.691   4.748   1.900 -0.7723  1.9549  3.0217
 1405TIP3   OH225777   5.570   3.525   7.643  0.1071  0.6961  0.1523
 1405TIP3    H125778   5.550   3.609   7.685  0.4791  1.5065 -1.2442
 1405TIP3    H225779   5.653   3.540   7.598  0.1077 -0.3875 -0.2334
 1406TIP3   OH225780   4.653   3.155   1.985 -0.8784  0.2519 -0.2546
 1406TIP3    H125781   4.568   3.186   1.954 -1.0458  1.5761  1.4251
 1406TIP3    H225782   4.687   3.225   2.040  1.9728  0.3661 -1.9553
 1407TIP3   OH225783   1.765   1.949   8.456  0.9379  0.0668 -0.1963
 1407TIP3    H125784   1.733   2.028   8.413  3.3661  2.0519  1.3609
 1407TIP3    H225785   1.746   1.962   8.548  3.3748 -0.0144  0.3955
 1408TIP3   OH225786   3.474   3.936   7.262 -0.2644  1.1728  0.7027
 1408TIP3    H125787   3.387   3.945   7.301 -0.9479  0.0584 -0.4581
 1408TIP3    H225788   3.480   4.007   7.199 -0.3225  1.2668  0.8029
 1409TIP3   OH225789   1.424   2.149   1.115  0.0623  0.0021  0.1215
 1409TIP3    H125790   1.415   2.065   1.069  0.0209  0.3308 -0.4843
 1409TIP3    H225791   1.347   2.199   1.087  1.0595  0.9379 -1.0371
 1410TIP3   OH225792   4.636   1.487   7.563  0.0175 -0.7330  0.0092
 1410TIP3    H125793   4.699   1.425   7.599 -0.5319 -1.0469  0.4486
 1410TIP3    H225794   4.657   1.570   7.605 -0.9437 -1.1951  1.5103
 1411TIP3   OH225795   4.501   3.746   0.416  0.4461  0.4463  0.3326
 1411TIP3    H125796   4.512   3.748   0.511  0.0423  0.1669  0.3887
 1411TIP3    H225797   4.406   3.749   0.403  0.5246  1.4480 -0.0901
 1412TIP3   OH225798   6.316   3.239   8.719 -0.1068 -0.2199 -0.2003
 1412TIP3    H125799   6.316   3.169   8.653  2.2670 -1.2142  0.7398
 1412TIP3    H225800   6.240   3.219   8.774 -1.2768 -0.2048 -1.7489
 1413TIP3   OH225801   5.686   2.578   1.123  0.0458  0.0471 -0.1368
 1413TIP3    H125802   5.649   2.505   1.171  0.4526  0.2134  0.4383
 1413TIP3    H225803   5.704   2.645   1.190  1.2407  0.0257 -0.4132
 1414TIP3   OH225804   1.067   6.050   8.817  0.4809  0.0541 -0.2033
 1414TIP3    H125805   1.158   6.070   8.794  0.2344  0.0765 -1.2044
 1414TIP3    H225806   1.016   6.092   8.748 -0.3679  1.0794  1.0040
 1415TIP3   OH225807   5.668   6.727   7.921  0.8044 -0.1859 -0.0369
 1415TIP3    H125808   5.756   6.738   7.884  0.3760 -1.4677 -1.5825
 1415TIP3    H225809   5.609   6.751   7.849 -0.0708 -2.0118  0.0038
 1416TIP3   OH225810   0.103   4.638   1.531  0.3191  0.0660 -0.7944
 1416TIP3    H125811   0.140   4.633   1.619 -1.0357  0.8319 -0.1622
 1416TIP3    H225812   0.014   4.605   1.540  0.4043 -0.5612 -2.0417
 1417TIP3   OH225813   0.571   1.084   6.489  0.0212  0.4445  0.3769
 1417TIP3    H125814   0.645   1.102   6.547  1.4988 -0.2818 -1.2171
 1417TIP3    H225815   0.610   1.046   6.411 -2.0713 -0.1180 -0.4552
 1418TIP3   OH225816   1.851   1.243   0.482  0.1057 -0.1809  0.1041
 1418TIP3    H125817   1.926   1.204   0.526 -0.3493 -1.0618  0.1376
 1418TIP3    H225818   1.888   1.306   0.421  0.9905 -1.7887 -1.0737
 1419TIP3   OH225819   6.807   5.370   7.571 -0.3656  0.5170 -0.7309
 1419TIP3    H125820   6.763   5.452   7.594  0.6895  0.9446 -0.1947
 1419TIP3    H225821   6.845   5.339   7.653  0.1416  0.0293 -1.1383
 1420TIP3   OH225822   1.922   4.455   8.398 -0.0860 -0.5739 -0.0532
 1420TIP3    H125823   1.996   4.492   8.445 -1.5537  1.4677  0.8329
 1420TIP3    H225824   1.892   4.383   8.453  0.6333 -0.7809  0.0765
 1421TIP3   OH225825   2.917   5.815   1.605  0.5991 -0.2722 -0.2252
 1421TIP3    H125826   2.993   5.869   1.587  2.0410 -2.9224 -2.9547
 1421TIP3    H225827   2.855   5.835   1.534 -0.4293  0.3569  0.8065
 1422TIP3   OH225828   4.026   2.817   6.235 -0.1888  0.4244 -0.3537
 1422TIP3    H125829   3.976   2.835   6.314  0.1615 -0.3777  0.0601
 1422TIP3    H225830   4.001   2.888   6.175 -2.2625 -0.2728 -0.3923
 1423TIP3   OH225831   1.977   6.475   8.388  0.1809 -0.1033  0.7411
 1423TIP3    H125832   1.925   6.523   8.324  1.8490  3.0943  1.5581
 1423TIP3    H225833   1.983   6.534   8.464  3.3319 -1.0877  1.4032
 1424TIP3   OH225834   5.443   2.658   6.674 -0.3341 -0.4337  0.1609
 1424TIP3    H125835   5.355   2.676   6.641  0.0363 -0.9369 -1.1760
 1424TIP3    H225836   5.457   2.565   6.653  0.6323 -0.2720  0.0637
 1425TIP3   OH225837   1.710   2.004   8.737 -0.2732  0.2022  0.3642
 1425TIP3    H125838   1.790   2.013   8.788 -0.8354  0.8584  1.1519
 1425TIP3    H225839   1.664   1.930   8.777  0.4511 -0.9267 -0.8151
 1426TIP3   OH225840   3.704   3.675   1.215  0.1048 -0.5363  0.0015
 1426TIP3    H125841   3.649   3.729   1.158  0.0701  1.6064  1.9661
 1426TIP3    H225842   3.794   3.695   1.188  0.0562 -0.3912 -0.0533
 1427TIP3   OH225843   0.535   2.999   7.972  0.8059  0.2975 -0.1746
 1427TIP3    H125844   0.544   2.986   8.067  1.6102  0.6820 -0.1946
 1427TIP3    H225845   0.549   3.093   7.959  0.9682  0.2013 -0.7080
 1428TIP3   OH225846   5.853   3.684   7.930  0.0892  0.1843 -0.0229
 1428TIP3    H125847   5.878   3.600   7.893 -1.9680  0.5096 -2.3431
 1428TIP3    H225848   5.795   3.662   8.003 -1.1510 -0.4624 -1.1641
 1429TIP3   OH225849   1.368   1.807   1.728  0.4082 -0.0728 -0.2260
 1429TIP3    H125850   1.319   1.886   1.749 -0.0059 -0.5847  0.7753
 1429TIP3    H225851   1.460   1.831   1.741  0.2882  0.2680 -0.0070
 1430TIP3   OH225852   3.013   4.833   8.163  0.4553 -0.7226  0.0380
 1430TIP3    H125853   2.918   4.844   8.171  0.6324  2.1333 -0.8308
 1430TIP3    H225854   3.023   4.752   8.112 -1.6515  0.1504 -1.9405
 1431TIP3   OH225855   1.698   0.647   6.251  0.1052  0.0243  0.7424
 1431TIP3    H125856   1.712   0.555   6.228  0.0402  0.2123 -0.1155
 1431TIP3    H225857   1.616   0.670   6.207  0.0491  0.4562  1.0705
 1432TIP3   OH225858   0.063   6.124   8.326  0.3541  0.8038  0.0805
 1432TIP3    H125859   0.018   6.201   8.361  0.2294  1.8820 -2.2609
 1432TIP3    H225860   0.155   6.149   8.321  0.7535 -0.1676  1.6407
 1433TIP3   OH225861   6.002   4.267   7.185 -0.0521 -0.2091 -0.1843
 1433TIP3    H125862   6.015   4.206   7.257  1.6865 -0.9743 -1.0934
 1433TIP3    H225863   6.061   4.340   7.205  0.9541 -0.7378 -1.1352
 1434TIP3   OH225864   4.363   6.466   7.492 -0.0175 -0.4859 -1.0092
 1434TIP3    H125865   4.277   6.487   7.457  0.3092  2.7884 -0.1915
 1434TIP3    H225866   4.345   6.431   7.580 -0.5599  1.5790 -0.2389
 1435TIP3   OH225867   5.499   3.614   8.055  0.0412 -0.1464  0.3420
 1435TIP3    H125868   5.431   3.657   8.003 -0.1398  1.1513  1.5828
 1435TIP3    H225869   5.463   3.610   8.144  1.3241 -0.0414  0.8948
 1436TIP3   OH225870   1.570   0.285   1.362  0.1420  0.3857  0.1185
 1436TIP3    H125871   1.548   0.323   1.447 -0.1045  0.2364  0.1219
 1436TIP3    H225872   1.495   0.304   1.307  1.3743  2.8460 -0.8614
 1437TIP3   OH225873   4.343   4.036   0.960 -0.3481  0.3527 -0.4152
 1437TIP3    H125874   4.380   4.050   1.047 -0.6966  0.1099 -0.2226
 1437TIP3    H225875   4.352   4.121   0.916  0.8773  0.1552 -0.5511
 1438TIP3   OH225876   3.668   3.989   8.093  0.4521  0.1261 -0.2849
 1438TIP3    H125877   3.660   3.895   8.082 -1.2540  0.1766  0.2875
 1438TIP3    H225878   3.712   4.019   8.014  0.4556 -1.0794 -0.7498
 1439TIP3   OH225879   2.429   1.322   1.094 -0.3054  0.0121 -0.5608
 1439TIP3    H125880   2.356   1.267   1.123 -0.4552  0.1800 -0.6193
 1439TIP3    H225881   2.497   1.260   1.068 -0.9122 -0.1650 -1.7702
 1440TIP3   OH225882   6.208   5.498   8.115  0.2819  0.6918  0.7586
 1440TIP3    H125883   6.236   5.546   8.193  0.1982 -0.9708  1.8865
 1440TIP3    H225884   6.113   5.490   8.125  0.3043  0.2458  0.6397
 1441TIP3   OH225885   0.977   3.906   1.235 -0.0983  0.6175 -0.3355
 1441TIP3    H125886   0.968   3.859   1.152  1.7199  0.3902 -0.4293
 1441TIP3    H225887   0.992   3.997   1.210  0.2182  0.5891 -0.2479
 1442TIP3   OH225888   2.237   1.793   0.592 -0.9818  0.3339 -0.7258
 1442TIP3    H125889   2.144   1.809   0.572 -1.7580 -2.6294  0.1034
 1442TIP3    H225890   2.264   1.724   0.531  0.1776 -0.0558  0.1914
 1443TIP3   OH225891   0.940   2.708   7.389  0.5666  0.4947 -0.2597
 1443TIP3    H125892   0.949   2.633   7.448 -0.2192  0.6834  0.1177
 1443TIP3    H225893   0.949   2.671   7.302  0.2718 -0.0306 -0.0736
 1444TIP3   OH225894   5.823   6.420   0.006 -0.4740  0.2214 -0.2969
 1444TIP3    H125895   5.835   6.357   0.077 -3.0228 -1.2649 -1.0666
 1444TIP3    H225896   5.778   6.494   0.047 -0.2600  0.1867  0.0035
 1445TIP3   OH225897   2.699   1.115   7.257  0.2353 -0.0449  0.0509
 1445TIP3    H125898   2.697   1.031   7.211  0.9491  0.9503 -1.9567
 1445TIP3    H225899   2.607   1.141   7.263 -0.0139 -1.0643  0.9481
 1446TIP3   OH225900   5.198   1.564   8.716 -0.1359 -0.1486 -0.0209
 1446TIP3    H125901   5.280   1.552   8.668 -0.6531 -1.7920 -0.5552
 1446TIP3    H225902   5.139   1.496   8.681 -0.7268 -1.0450  2.5292
 1447TIP3   OH225903   0.313   0.272   8.450 -0.3211 -0.2544  0.3071
 1447TIP3    H125904   0.357   0.319   8.520 -0.6948 -0.4665  0.6921
 1447TIP3    H225905   0.314   0.332   8.376 -0.3723  0.1752  0.6500
 1448TIP3   OH225906   2.400   2.059   0.936 -0.2616 -0.5136  0.1053
 1448TIP3    H125907   2.321   2.043   0.986 -1.0961  1.7452 -0.3791
 1448TIP3    H225908   2.372   2.114   0.863  1.8150  0.8080  0.2131
 1449TIP3   OH225909   6.132   4.701   7.514  0.1482  0.1955 -0.2793
 1449TIP3    H125910   6.119   4.674   7.605  1.1637 -1.6774 -0.6389
 1449TIP3    H225911   6.086   4.784   7.507  0.7358  0.8119  2.1647
 1450TIP3   OH225912   5.777   1.660   7.727 -0.3989  0.7492  0.5457
 1450TIP3    H125913   5.825   1.710   7.661  0.5010 -0.3469  0.3320
 1450TIP3    H225914   5.692   1.644   7.688  0.4868 -0.8279 -0.8716
 1451TIP3   OH225915   2.697   5.942   7.454  0.3264 -0.0478  0.2359
 1451TIP3    H125916   2.633   5.878   7.486 -0.0031 -0.1589 -0.6152
 1451TIP3    H225917   2.648   5.995   7.391  0.7058  0.7802  0.6139
 1452TIP3   OH225918   4.812   5.016   8.221 -0.5286  0.1570 -0.2730
 1452TIP3    H125919   4.735   4.960   8.229  0.2552 -0.9493 -0.3710
 1452TIP3    H225920   4.811   5.045   8.130 -1.9202  1.7892  0.2066
 1453TIP3   OH225921   5.099   1.838   1.178  0.1784 -0.3724 -0.4483
 1453TIP3    H125922   5.174   1.822   1.235 -0.2911 -0.7055  0.0968
 1453TIP3    H225923   5.136   1.877   1.099  1.1082 -2.0485 -0.8703
 1454TIP3   OH225924   3.814   0.340   0.566 -0.3498  0.8270 -0.3665
 1454TIP3    H125925   3.861   0.365   0.646 -0.7191  0.5715 -0.0694
 1454TIP3    H225926   3.785   0.250   0.582  0.3176  0.4561 -1.1311
 1455TIP3   OH225927   0.394   6.717   8.194  0.5039 -0.1804  0.2712
 1455TIP3    H125928   0.404   6.790   8.255  1.5881 -1.0962  1.2497
 1455TIP3    H225929   0.385   6.640   8.250  0.5110 -0.9252 -0.7242
 1456TIP3   OH225930   3.686   4.988   8.355  0.1015 -0.2438 -0.0718
 1456TIP3    H125931   3.622   5.055   8.379 -1.0381 -1.0437 -0.7851
 1456TIP3    H225932   3.708   4.945   8.437  0.7049  0.8648  0.3682
 1457TIP3   OH225933   2.071   3.625   7.880  0.3970  0.5402  0.2603
 1457TIP3    H125934   1.982   3.652   7.857  0.6153  1.8304  0.8776
 1457TIP3    H225935   2.073   3.627   7.975  1.0067  0.2072  0.2587
 1458TIP3   OH225936   1.748   1.032   8.627  0.6601 -0.1109 -0.1563
 1458TIP3    H125937   1.842   1.038   8.614  0.7401 -1.7726 -0.6448
 1458TIP3    H225938   1.712   1.013   8.540  0.1359 -1.5952  0.3407
 1459TIP3   OH225939   1.038   4.339   0.096 -0.0719  0.1574  0.1869
 1459TIP3    H125940   1.036   4.274   0.027  1.1464  0.3907 -0.0870
 1459TIP3    H225941   1.127   4.373   0.095 -0.4987  1.3646  0.7573
 1460TIP3   OH225942   5.074   3.272   1.745  0.1975 -0.5531  0.2215
 1460TIP3    H125943   5.010   3.342   1.731  0.8948 -0.1092 -0.9007
 1460TIP3    H225944   5.051   3.235   1.830 -0.8350  0.3480  0.3575
 1461TIP3   OH225945   0.420   3.135   0.556  0.0466  0.1154  0.3027
 1461TIP3    H125946   0.344   3.192   0.556  0.5602  0.8419  1.4003
 1461TIP3    H225947   0.473   3.164   0.481  0.1502  0.8856  0.6655
 1462TIP3   OH225948   0.965   0.659   7.528 -0.2777 -0.3231  0.1341
 1462TIP3    H125949   0.945   0.733   7.471  1.6515  1.1459  1.2363
 1462TIP3    H225950   1.029   0.607   7.480  1.9784  1.3569  1.1503
 1463TIP3   OH225951   2.064   5.542   2.599 -0.1507 -0.6536 -0.5934
 1463TIP3    H125952   2.118   5.467   2.574  0.7483  0.3162 -1.6996
 1463TIP3    H225953   2.116   5.619   2.573 -0.3942  0.4091  1.7846
 1464TIP3   OH225954   0.784   0.811   0.311 -0.0137  0.3610 -0.4403
 1464TIP3    H125955   0.736   0.846   0.237  0.7150  0.3881 -0.9082
 1464TIP3    H225956   0.780   0.880   0.377  0.3053  0.8081 -0.8817
 1465TIP3   OH225957   4.435   0.553   7.916  0.1439  0.1442 -0.7417
 1465TIP3    H125958   4.469   0.463   7.909 -0.1115 -0.4730  3.3812
 1465TIP3    H225959   4.340   0.542   7.920  0.1449  0.3511  0.9468
 1466TIP3   OH225960   4.761   0.346   7.250  0.2939  0.2139 -0.0421
 1466TIP3    H125961   4.759   0.252   7.264 -2.2985  0.0990 -0.6096
 1466TIP3    H225962   4.795   0.357   7.161  1.5510 -0.0896  0.3868
 1467TIP3   OH225963   1.245   6.125   6.518 -0.1684  0.1253  0.0442
 1467TIP3    H125964   1.237   6.083   6.432  0.9446 -1.9446  0.8798
 1467TIP3    H225965   1.273   6.215   6.498 -2.6145  0.5886 -1.8120
 1468TIP3   OH225966   0.594   5.222   0.020  0.6500  0.1771  0.1161
 1468TIP3    H125967   0.521   5.199  -0.038  2.1076 -0.3406 -1.5830
 1468TIP3    H225968   0.595   5.153   0.086  1.7254 -1.8243 -1.8930
 1469TIP3   OH225969   1.276   1.781   1.470 -0.3535 -0.6303 -1.1291
 1469TIP3    H125970   1.336   1.720   1.427 -0.6030 -1.3343 -0.4975
 1469TIP3    H225971   1.282   1.760   1.563 -1.9957 -1.1208 -1.0920
 1470TIP3   OH225972   1.923   2.002   6.915 -0.2928  0.4026  0.2551
 1470TIP3    H125973   1.847   1.986   6.972 -0.0447 -0.7863  0.2672
 1470TIP3    H225974   1.898   1.963   6.831 -0.0459  0.8074 -0.0080
 1471TIP3   OH225975   0.347   0.470   1.076  0.1126 -0.3127  0.0166
 1471TIP3    H125976   0.381   0.514   1.154  0.2654  0.0976 -0.2778
 1471TIP3    H225977   0.345   0.377   1.100 -2.4944  0.0363  1.5116
 1472TIP3   OH225978   3.135   5.727   8.123  0.0846 -0.7692 -0.2328
 1472TIP3    H125979   3.181   5.658   8.074 -1.0818 -1.1855 -0.7808
 1472TIP3    H225980   3.153   5.706   8.215  2.3913  0.0814 -0.4153
 1473TIP3   OH225981   2.672   0.459   8.796  0.1886  0.1928 -0.0663
 1473TIP3    H125982   2.602   0.519   8.821  0.0718 -0.5373  1.5070
 1473TIP3    H225983   2.752   0.501   8.827  0.3086  0.3797 -0.6185
 1474TIP3   OH225984   2.564   4.633   0.871  0.0699 -0.1045  0.4452
 1474TIP3    H125985   2.659   4.622   0.870 -0.0162 -0.9361  0.8766
 1474TIP3    H225986   2.550   4.726   0.892  0.7851  0.1060  0.0098
 1475TIP3   OH225987   4.372   5.729   1.827  0.2674 -0.5562 -0.9333
 1475TIP3    H125988   4.303   5.707   1.889 -0.9242  1.8845 -1.2685
 1475TIP3    H225989   4.445   5.758   1.881 -0.5387  0.9405 -0.5811
 1476TIP3   OH225990   4.472   3.966   8.172 -0.4718  0.2291 -0.1699
 1476TIP3    H125991   4.453   3.938   8.083 -1.0079 -1.0919  0.3272
 1476TIP3    H225992   4.418   3.909   8.227  0.1808  0.7189  1.0231
 1477TIP3   OH225993   1.261   2.551   7.856  0.1382 -0.4934 -0.0214
 1477TIP3    H125994   1.264   2.643   7.831  0.0673 -0.8676 -1.5145
 1477TIP3    H225995   1.189   2.546   7.919 -0.0678  0.4189 -0.1676
 1478TIP3   OH225996   2.221   5.656   2.121  0.2959 -0.1989  0.0406
 1478TIP3    H125997   2.249   5.670   2.212 -0.7044 -0.9033  0.4741
 1478TIP3    H225998   2.189   5.565   2.120 -0.8622  0.1996 -0.7040
 1479TIP3   OH225999   0.499   1.988   1.609 -0.4661  0.5497  0.5220
 1479TIP3    H126000   0.594   1.978   1.614 -0.5740 -0.1076  1.2727
 1479TIP3    H226001   0.467   1.902   1.581 -0.7409  1.1767 -1.2484
 1480TIP3   OH226002   3.189   1.399   7.518 -0.8255 -0.0343 -0.7163
 1480TIP3    H126003   3.131   1.459   7.471 -1.9478 -0.3160  0.2837
 1480TIP3    H226004   3.268   1.395   7.463 -1.5410  0.7382 -1.8432
 1481TIP3   OH226005   2.723   2.169   6.698 -0.1703  0.2977 -0.2853
 1481TIP3    H126006   2.767   2.178   6.613 -0.8919 -2.7117 -1.0887
 1481TIP3    H226007   2.694   2.078   6.700 -0.1009  0.2303  3.2619
 1482TIP3   OH226008   5.159   0.142   0.555 -0.1078 -0.0368  0.0885
 1482TIP3    H126009   5.176   0.235   0.568  0.0625 -0.2938  2.0399
 1482TIP3    H226010   5.064   0.133   0.563 -0.0756 -0.0957  0.4118
 1483TIP3   OH226011   3.253   6.120   0.146 -0.2286 -0.0904  0.1083
 1483TIP3    H126012   3.323   6.055   0.152 -0.4808 -0.4220 -0.4683
 1483TIP3    H226013   3.187   6.090   0.209  0.3102  0.4392  0.9417
 1484TIP3   OH226014   1.003   0.836   0.071 -0.2356 -0.3401  0.7402
 1484TIP3    H126015   1.069   0.805   0.009  0.4038  1.4972  0.4591
 1484TIP3    H226016   0.969   0.756   0.110 -1.1319 -1.6510 -2.4072
 1485TIP3   OH226017   5.747   3.070   6.784 -0.6549  0.3950  0.2703
 1485TIP3    H126018   5.775   3.116   6.863  1.4436 -0.9319  0.3697
 1485TIP3    H226019   5.827   3.033   6.748 -1.7722 -0.2540 -1.7104
 1486TIP3   OH226020   6.111   4.764   8.162 -0.5264  0.3178  0.0450
 1486TIP3    H126021   6.028   4.800   8.193 -1.8538 -1.9293 -0.6227
 1486TIP3    H226022   6.157   4.838   8.122 -1.6653  1.8566  1.4287
 1487TIP3   OH226023   1.212   6.455   1.477 -0.1009  0.6821 -0.0092
 1487TIP3    H126024   1.305   6.439   1.466 -0.5113 -0.3929 -3.0916
 1487TIP3    H226025   1.181   6.385   1.533  1.1093  1.9602  2.3844
 1488TIP3   OH226026   0.184   4.572   1.196  0.3652 -0.0573 -0.4956
 1488TIP3    H126027   0.227   4.543   1.116 -0.2204 -0.1159 -0.7954
 1488TIP3    H226028   0.242   4.544   1.266  0.4045 -0.8819 -0.8472
 1489TIP3   OH226029   4.286   0.495   6.922 -0.0967  0.4552  0.2133
 1489TIP3    H126030   4.269   0.401   6.922  0.7558  0.2847  1.2140
 1489TIP3    H226031   4.298   0.518   7.014  1.6910  1.1594 -0.1462
 1490TIP3   OH226032   4.142   5.021   0.741  0.0316 -0.2635  0.5900
 1490TIP3    H126033   4.213   4.985   0.793  0.4405  1.4144  1.2784
 1490TIP3    H226034   4.179   5.100   0.701 -0.8666 -0.4347 -0.6639
 1491TIP3   OH226035   3.540   5.414   7.055 -0.0861  0.5585 -0.3376
 1491TIP3    H126036   3.535   5.470   6.978  3.6572  0.0650 -1.1214
 1491TIP3    H226037   3.602   5.345   7.031 -0.1842 -0.6538  2.5033
 1492TIP3   OH226038   3.873   5.673   8.738  0.6291  0.3749 -0.1487
 1492TIP3    H126039   3.839   5.737   8.675  0.6259  2.2517  1.6521
 1492TIP3    H226040   3.968   5.687   8.738  0.9453 -1.3311 -1.4378
 1493TIP3   OH226041   4.239   0.990   8.335 -0.3635  0.1491  0.0664
 1493TIP3    H126042   4.305   1.043   8.290  0.0702 -0.0253  0.4970
 1493TIP3    H226043   4.193   0.945   8.264 -0.9477  1.3251 -0.3299
 1494TIP3   OH226044   3.066   4.438   0.458 -0.5574 -0.3813 -0.6217
 1494TIP3    H126045   3.115   4.424   0.378 -1.0160 -1.4257 -0.7346
 1494TIP3    H226046   3.131   4.469   0.521  0.1203 -1.1297 -0.9436
 1495TIP3   OH226047   3.505   0.300   7.558  0.5017  0.4324 -0.5118
 1495TIP3    H126048   3.463   0.215   7.568 -0.5293  1.0439  0.6716
 1495TIP3    H226049   3.586   0.294   7.609 -0.6627  0.8331  1.5075
 1496TIP3   OH226050   5.594   3.874   8.222  0.2297 -0.3490 -0.2298
 1496TIP3    H126051   5.624   3.922   8.145  2.5107 -1.1457  0.0850
 1496TIP3    H226052   5.590   3.783   8.193  0.1383 -0.5243  0.3169
 1497TIP3   OH226053   6.522   5.157   7.287  0.5587  0.5221  0.1962
 1497TIP3    H126054   6.428   5.170   7.299  0.8689  1.2894  2.1764
 1497TIP3    H226055   6.532   5.132   7.195 -1.6161 -0.0300  0.0662
 1498TIP3   OH226056   5.477   1.384   0.560  0.4806  0.1512 -0.2588
 1498TIP3    H126057   5.485   1.474   0.590 -1.8180  0.3025  0.1172
 1498TIP3    H226058   5.388   1.358   0.586  0.4240 -1.6024 -1.9489
 1499TIP3   OH226059   3.405   5.750   0.048 -0.0381 -0.2792  0.0246
 1499TIP3    H126060   3.453   5.677   0.088 -0.0835 -0.3451 -0.0402
 1499TIP3    H226061   3.442   5.757  -0.040  1.1712  0.8879  0.5883
 1500TIP3   OH226062   5.531   3.543   7.148  0.3150 -0.6314 -0.0874
 1500TIP3    H126063   5.468   3.495   7.201  0.1014  0.0941  0.3373
 1500TIP3    H226064   5.508   3.522   7.057 -0.4868 -0.4486  0.0648
 1501TIP3   OH226065   0.146   4.825   0.415 -0.1174  0.1999  0.3073
 1501TIP3    H126066   0.230   4.824   0.370 -0.4110 -0.1668 -0.2358
 1501TIP3    H226067   0.130   4.918   0.434  0.6508  0.2293  0.8924
 1502TIP3   OH226068   4.375   4.215   7.033 -0.3288 -0.1018  0.1664
 1502TIP3    H126069   4.295   4.171   7.004 -0.6121  0.8815 -0.5765
 1502TIP3    H226070   4.429   4.144   7.067 -1.2443 -0.8739  0.0692
 1503TIP3   OH226071   4.459   3.085   8.482 -0.6453  0.3170  0.3173
 1503TIP3    H126072   4.504   3.080   8.566  0.8602  0.0169 -0.4770
 1503TIP3    H226073   4.529   3.087   8.417 -1.7860 -1.0022 -1.0277
 1504TIP3   OH226074   4.092   2.349   1.234 -0.6851  0.6609 -0.1747
 1504TIP3    H126075   4.089   2.435   1.276 -1.3062  0.0364  1.0838
 1504TIP3    H226076   4.028   2.296   1.281  0.4397 -0.8128 -0.2187
 1505TIP3   OH226077   5.030   3.082   1.515 -0.6058 -0.5052  0.3019
 1505TIP3    H126078   5.033   3.008   1.576  0.6890  0.5832  1.6317
 1505TIP3    H226079   5.056   3.158   1.568 -1.1220  0.7893 -1.2102
 1506TIP3   OH226080   4.480   2.153   7.214 -0.5586 -0.6090  1.2077
 1506TIP3    H126081   4.498   2.200   7.132  0.5476 -1.9390  0.6356
 1506TIP3    H226082   4.498   2.061   7.193 -1.6445 -1.1653  2.5664
 1507TIP3   OH226083   1.345   1.261   0.984  0.6442 -0.3344 -0.5329
 1507TIP3    H126084   1.437   1.279   0.965  0.6138  0.2693 -0.1179
 1507TIP3    H226085   1.337   1.271   1.078  0.8023 -3.3990 -0.0789
 1508TIP3   OH226086   2.934   3.776   7.922  0.8416  0.0921 -0.2211
 1508TIP3    H126087   2.991   3.792   7.848 -0.1492 -0.3405 -1.0974
 1508TIP3    H226088   2.848   3.757   7.883 -0.3730  2.4764  1.0419
 1509TIP3   OH226089   5.271   3.755   1.719 -0.0416  0.3541  0.3021
 1509TIP3    H126090   5.367   3.758   1.721 -0.0279  0.0150  0.0750
 1509TIP3    H226091   5.249   3.731   1.629 -0.2485 -3.3387  1.2093
 1510TIP3   OH226092   4.835   2.310   1.005 -0.3865 -0.0968 -0.0249
 1510TIP3    H126093   4.798   2.338   0.922 -0.4417  0.9871  0.3458
 1510TIP3    H226094   4.823   2.215   1.007 -0.3601 -0.1387 -1.2553
 1511TIP3   OH226095   4.781   5.667   1.695 -0.1956  0.2912 -0.2377
 1511TIP3    H126096   4.692   5.655   1.728  1.0403 -0.9554  3.0924
 1511TIP3    H226097   4.805   5.581   1.661  0.7017 -0.3821  1.8740
 1512TIP3   OH226098   4.794   2.740   0.337  0.0722  0.6342  0.3139
 1512TIP3    H126099   4.717   2.727   0.282 -0.8511 -0.3849  1.8093
 1512TIP3    H226100   4.770   2.812   0.395 -1.2189 -1.8601  3.1441
 1513TIP3   OH226101   2.240   0.590   7.465 -0.3652 -0.0577 -0.2108
 1513TIP3    H126102   2.195   0.641   7.533  0.9029  1.8672 -0.7446
 1513TIP3    H226103   2.254   0.505   7.506 -1.7661  0.2605  1.0539
 1514TIP3   OH226104   1.376   4.369   0.324 -0.0089 -0.6774  0.2923
 1514TIP3    H126105   1.320   4.433   0.367 -0.2180 -0.2236 -0.6377
 1514TIP3    H226106   1.371   4.292   0.381 -1.5642 -0.6398  0.2573
 1515TIP3   OH226107   5.897   6.467   6.913 -0.4909  0.3434  0.1298
 1515TIP3    H126108   5.956   6.494   6.842 -2.6331 -0.5432 -2.1445
 1515TIP3    H226109   5.922   6.377   6.932 -1.2310 -0.1185 -1.0111
 1516TIP3   OH226110   5.929   0.732   8.573  0.4692  0.2328 -0.6040
 1516TIP3    H126111   5.883   0.674   8.512  0.4973 -0.7453  0.2804
 1516TIP3    H226112   6.011   0.752   8.529  0.6160 -0.6894 -0.7810
 1517TIP3   OH226113   6.577   4.225   1.992  0.5159 -0.1847  0.9681
 1517TIP3    H126114   6.666   4.242   1.962  0.5326  1.8001  1.9700
 1517TIP3    H226115   6.537   4.312   1.998 -2.1555 -1.1137 -1.3472
 1518TIP3   OH226116   1.613   4.784   8.054  0.3535 -0.3122 -0.1063
 1518TIP3    H126117   1.681   4.729   8.014 -0.5063 -2.5713  1.3189
 1518TIP3    H226118   1.655   4.868   8.069  1.5912 -0.3263 -2.8835
 1519TIP3   OH226119   1.576   5.629   8.259  0.1671 -0.3065 -0.0975
 1519TIP3    H126120   1.554   5.538   8.278 -1.4055  0.3505  1.5695
 1519TIP3    H226121   1.498   5.664   8.216  0.4716  0.4240 -0.0606
 1520TIP3   OH226122   5.314   6.121   7.603 -0.5602  0.4225  0.2749
 1520TIP3    H126123   5.239   6.086   7.556  0.3321 -1.2118 -0.0195
 1520TIP3    H226124   5.390   6.081   7.560  0.4330  1.4031  1.0630
 1521TIP3   OH226125   2.447   1.196   7.320 -0.0728 -0.1467 -0.0723
 1521TIP3    H126126   2.473   1.150   7.400 -0.6820 -0.9861 -0.3382
 1521TIP3    H226127   2.353   1.177   7.312 -0.6565  2.2109  0.4937
 1522TIP3   OH226128   1.541   2.962   0.464 -0.3089 -0.4335 -0.2130
 1522TIP3    H126129   1.471   3.026   0.450  0.3125  0.4185  0.4548
 1522TIP3    H226130   1.620   3.006   0.433  0.0889 -0.9768  0.0138
 1523TIP3   OH226131   4.511   5.744   7.091  0.3472 -0.2070  0.1931
 1523TIP3    H126132   4.427   5.787   7.105  0.6596  1.0173 -1.4816
 1523TIP3    H226133   4.545   5.782   7.011  2.2674 -1.0789  0.5348
 1524TIP3   OH226134   5.513   6.209   8.131 -0.1681  0.6166  0.0316
 1524TIP3    H126135   5.541   6.121   8.106  0.9560  0.9859 -0.0643
 1524TIP3    H226136   5.578   6.267   8.091  0.3703  1.3597  1.9002
 1525TIP3   OH226137   5.134   3.581   8.425  0.4787  0.8575  0.2362
 1525TIP3    H126138   5.083   3.662   8.430 -0.8420  0.1529 -0.9721
 1525TIP3    H226139   5.090   3.522   8.487  0.2444  0.4779 -0.2818
 1526TIP3   OH226140   4.098   3.133   0.713 -0.2204 -0.2248 -0.1378
 1526TIP3    H126141   4.149   3.098   0.639  1.3516 -0.9872  1.2364
 1526TIP3    H226142   4.157   3.126   0.788 -1.8179  0.3969  1.2366
 1527TIP3   OH226143   6.820   3.048   1.665 -0.2193  0.3466 -0.2676
 1527TIP3    H126144   6.738   3.056   1.713 -0.2444  0.5908 -0.3493
 1527TIP3    H226145   6.828   2.955   1.645  0.5624 -0.0056  1.5361
 1528TIP3   OH226146   5.383   6.031   7.271 -0.4191  0.1440 -0.0993
 1528TIP3    H126147   5.317   5.979   7.225  0.8318 -0.8406 -0.8473
 1528TIP3    H226148   5.385   5.995   7.360 -0.3015 -0.3884 -0.3160
 1529TIP3   OH226149   4.473   3.722   8.552  0.0666  0.0861  0.1581
 1529TIP3    H126150   4.396   3.675   8.586 -1.3995  0.6651 -2.1550
 1529TIP3    H226151   4.505   3.667   8.480  1.9347 -0.1840  1.1370
 1530TIP3   OH226152   6.003   1.507   6.805  0.1268 -0.1318 -0.1047
 1530TIP3    H126153   6.036   1.527   6.717 -2.0977  2.2835 -0.5495
 1530TIP3    H226154   5.955   1.425   6.795  0.1921 -0.0609 -1.1023
 1531TIP3   OH226155   5.326   4.757   8.434 -0.1949 -0.5304 -0.1869
 1531TIP3    H126156   5.312   4.719   8.347  1.2910 -1.4180 -0.0723
 1531TIP3    H226157   5.407   4.807   8.425 -0.3245 -0.1815  0.5536
 1532TIP3   OH226158   5.273   0.332   7.424 -0.1735 -0.2730  0.1451
 1532TIP3    H126159   5.262   0.253   7.371  1.6153 -1.4053  1.3342
 1532TIP3    H226160   5.285   0.402   7.360 -1.0958 -1.0657 -0.9376
 1533TIP3   OH226161   2.096   6.692   1.323  0.0376  0.1380 -0.3765
 1533TIP3    H126162   2.006   6.717   1.303 -0.5066 -0.9919  0.5153
 1533TIP3    H226163   2.087   6.619   1.385  1.5563 -0.3638 -0.7087
 1534TIP3   OH226164   5.594   2.332   1.200  0.4382  0.2881 -0.6216
 1534TIP3    H126165   5.572   2.323   1.293 -1.2742 -0.7730 -1.0830
 1534TIP3    H226166   5.511   2.318   1.155  1.2338  0.8418 -2.3208
 1535TIP3   OH226167   4.327   3.734   1.791  0.3447 -0.4472 -0.5302
 1535TIP3    H126168   4.361   3.649   1.818  0.3842 -1.0051 -2.1725
 1535TIP3    H226169   4.345   3.793   1.864  0.7660 -1.7348  0.4304
 1536TIP3   OH226170   5.482   4.763   0.924  0.1685 -0.5347 -0.1570
 1536TIP3    H126171   5.505   4.728   0.838  1.3090 -0.0052 -0.0939
 1536TIP3    H226172   5.555   4.739   0.981 -0.1804 -0.1745  0.4680
 1537TIP3   OH226173   4.542   3.253   7.965 -0.4272 -0.2271  0.3792
 1537TIP3    H126174   4.608   3.184   7.957 -0.7048 -0.3035 -1.6937
 1537TIP3    H226175   4.590   3.334   7.947 -1.0140 -0.3692 -2.1496
 1538TIP3   OH226176   5.877   2.782   1.458 -0.5543 -0.8845  0.8657
 1538TIP3    H126177   5.909   2.867   1.487  1.3415 -1.5304  0.8161
 1538TIP3    H226178   5.862   2.733   1.539  0.2938 -1.1503  0.8734
 1539TIP3   OH226179   0.066   3.128   8.485 -0.4812 -0.0699 -0.6711
 1539TIP3    H126180  -0.020   3.170   8.473 -0.9591 -1.1954 -1.3562
 1539TIP3    H226181   0.046   3.047   8.533  0.2516 -0.1432 -0.4844
 1540TIP3   OH226182   0.561   5.692   0.337 -0.3678  0.2562  0.0159
 1540TIP3    H126183   0.533   5.646   0.258  0.3553 -0.2816  0.0640
 1540TIP3    H226184   0.482   5.698   0.391 -1.2915  2.0510 -1.3982
 1541TIP3   OH226185   0.303   6.745   1.116  0.0823  0.1545 -1.0091
 1541TIP3    H126186   0.271   6.688   1.045 -1.6158  0.5597 -0.6047
 1541TIP3    H226187   0.237   6.737   1.185 -0.7552  3.2763 -1.2768
 1542TIP3   OH226188   0.979   6.123   7.899  0.0944  0.0011 -0.0097
 1542TIP3    H126189   1.052   6.090   7.846 -0.5910  0.0869 -1.0327
 1542TIP3    H226190   0.925   6.046   7.916 -2.0694  0.6115 -3.2857
 1543TIP3   OH226191   4.057   6.457   1.203  0.3999  0.0772  0.5870
 1543TIP3    H126192   4.024   6.368   1.220 -1.8957  1.1555  2.4720
 1543TIP3    H226193   3.994   6.494   1.141  1.3680  0.4186 -0.2234
 1544TIP3   OH226194   1.567   0.743   0.779  0.2524 -0.6093 -0.0536
 1544TIP3    H126195   1.486   0.786   0.751  0.4921 -0.4110 -0.4506
 1544TIP3    H226196   1.625   0.816   0.803  0.3648 -0.7456  0.0873
 1545TIP3   OH226197   5.385   1.330   8.090 -0.3136 -0.1632 -0.2747
 1545TIP3    H126198   5.377   1.417   8.051  0.2509 -0.5044 -1.1982
 1545TIP3    H226199   5.418   1.346   8.178 -0.7285  0.5827 -0.2477
 1546TIP3   OH226200   3.524   1.921   7.218 -0.3365 -0.1195  0.1525
 1546TIP3    H126201   3.566   1.835   7.210  1.6930  0.9481 -1.3757
 1546TIP3    H226202   3.590   1.976   7.261 -1.3152  0.8847  0.4032
 1547TIP3   OH226203   1.219   0.988   0.224  0.2578  0.1260 -0.3825
 1547TIP3    H126204   1.271   0.936   0.286 -0.0505  0.3287  0.0522
 1547TIP3    H226205   1.155   0.926   0.189 -0.7705  0.4065  0.8855
 1548TIP3   OH226206   0.211   0.944   0.263  0.3404  0.3054  0.0926
 1548TIP3    H126207   0.212   0.989   0.348 -0.5906 -0.7329  0.6693
 1548TIP3    H226208   0.129   0.971   0.222  0.5993  0.4858 -0.3157
 1549TIP3   OH226209   2.673   5.894   7.832 -0.0142 -0.3436  0.6440
 1549TIP3    H126210   2.674   5.918   7.924  2.9088 -0.6516  0.7902
 1549TIP3    H226211   2.747   5.942   7.794  0.0528 -1.7232 -1.1059
 1550TIP3   OH226212   5.768   5.031   7.639  0.1127  0.4584 -0.1461
 1550TIP3    H126213   5.750   5.074   7.555 -0.4924  0.8039  0.1546
 1550TIP3    H226214   5.817   5.096   7.689  0.5705  0.2111 -0.2648
 1551TIP3   OH226215   3.304   0.764   0.734  0.4116 -0.5776  0.2492
 1551TIP3    H126216   3.363   0.703   0.778  1.6302  0.4986  0.1646
 1551TIP3    H226217   3.308   0.739   0.641 -0.2859 -1.3060  0.3970
 1552TIP3   OH226218   4.002   5.898   2.347 -0.0723  0.1463  0.2370
 1552TIP3    H126219   3.975   5.983   2.313  1.7048  0.7054  0.1441
 1552TIP3    H226220   4.029   5.915   2.437 -0.1046 -0.4175  0.3599
 1553TIP3   OH226221   5.078   2.005   8.741 -0.4667 -0.2308  0.1552
 1553TIP3    H126222   5.167   2.005   8.777  0.0457 -0.6779 -1.0563
 1553TIP3    H226223   5.074   1.925   8.687 -1.9469 -0.7647  0.9978
 1554TIP3   OH226224   2.608   3.079   2.081  0.0497 -0.0478  0.1896
 1554TIP3    H126225   2.629   3.142   2.150  0.9284  0.7669 -0.7719
 1554TIP3    H226226   2.653   2.999   2.106  1.6824  0.7046 -0.1783
 1555TIP3   OH226227   2.668   0.932   7.950 -0.0550 -0.1346 -0.2980
 1555TIP3    H126228   2.708   0.901   8.032  1.3004 -1.5895 -1.4503
 1555TIP3    H226229   2.737   0.985   7.909 -0.7862  0.7197 -0.4569
 1556TIP3   OH226230   3.208   2.853   7.358 -0.4202  0.2829  0.1726
 1556TIP3    H126231   3.137   2.835   7.297 -1.6302  2.3184  0.8732
 1556TIP3    H226232   3.277   2.892   7.304 -1.0307  1.0080 -0.1136
 1557TIP3   OH226233   1.632   1.581   7.879 -0.1982 -0.1182  0.2723
 1557TIP3    H126234   1.679   1.571   7.962  0.1957 -0.1070  0.0558
 1557TIP3    H226235   1.581   1.661   7.890  1.1379  0.8319 -0.0808
 1558TIP3   OH226236   4.243   2.098   0.551  0.4439  0.0745 -0.1781
 1558TIP3    H126237   4.216   2.045   0.626  1.7128  0.4483  0.5630
 1558TIP3    H226238   4.332   2.071   0.533  0.9527  1.6024 -0.0906
 1559TIP3   OH226239   6.717   2.686   0.897 -0.1008 -0.6660  0.2397
 1559TIP3    H126240   6.803   2.657   0.926 -0.2303  0.1911  1.5275
 1559TIP3    H226241   6.735   2.744   0.823  0.4189 -0.6158  0.4043
 1560TIP3   OH226242   1.444   4.717   1.927 -0.4264 -0.4598 -0.0466
 1560TIP3    H126243   1.370   4.741   1.982  1.0768  0.4092  1.7239
 1560TIP3    H226244   1.491   4.800   1.912  0.7464 -1.1286 -0.2220
 1561TIP3   OH226245   0.689   2.486   1.186  0.1437 -0.1729  0.0708
 1561TIP3    H126246   0.765   2.535   1.154  1.1472 -0.6932  1.5669
 1561TIP3    H226247   0.726   2.409   1.228 -1.3539 -2.0491 -1.7849
 1562TIP3   OH226248   6.428   1.664   8.245  0.3868  0.5930 -0.1066
 1562TIP3    H126249   6.362   1.726   8.214  0.9272  1.5942  0.6831
 1562TIP3    H226250   6.428   1.675   8.340 -0.9209 -2.0685  0.3110
 1563TIP3   OH226251   0.065   3.576   0.821 -0.2028  0.0569 -1.1178
 1563TIP3    H126252   0.076   3.646   0.885 -2.8348 -0.7090  0.3567
 1563TIP3    H226253   0.118   3.504   0.855 -0.2162  0.2246 -0.7340
 1564TIP3   OH226254   0.026   3.727   7.479 -0.2075  0.1625  0.0971
 1564TIP3    H126255   0.050   3.650   7.427  1.1844  0.3759  0.3925
 1564TIP3    H226256   0.055   3.707   7.568  4.0743  2.5403 -0.4784
 1565TIP3   OH226257   4.002   5.860   8.472 -0.3857  0.1075  0.3862
 1565TIP3    H126258   4.006   5.844   8.378  4.7948  3.1664 -0.3128
 1565TIP3    H226259   4.031   5.777   8.511  0.2613 -0.3221 -0.9484
 1566TIP3   OH226260   2.027   4.885   6.829  0.2556  0.1008  0.0594
 1566TIP3    H126261   2.086   4.960   6.839  2.8810 -1.7789 -0.4427
 1566TIP3    H226262   1.942   4.925   6.808  1.8486  2.9073 -1.7665
 1567TIP3   OH226263   3.982   2.235   0.964  0.4390  0.3252 -0.1252
 1567TIP3    H126264   3.921   2.302   0.993 -0.8054 -1.2332  1.0595
 1567TIP3    H226265   4.057   2.243   1.022 -0.3799 -0.2804  1.0483
 1568TIP3   OH226266   5.321   0.536   1.163 -0.0207 -0.1405 -0.4507
 1568TIP3    H126267   5.392   0.567   1.108  1.1146  0.8337  1.4340
 1568TIP3    H226268   5.354   0.546   1.253 -2.2739 -0.2778  0.4729
 1569TIP3   OH226269   6.061   2.482   8.476 -0.3512 -0.1571 -0.5906
 1569TIP3    H126270   5.998   2.541   8.434  0.2003 -0.0029 -1.2144
 1569TIP3    H226271   6.053   2.400   8.427  0.5233  0.1220 -1.2218
 1570TIP3   OH226272   6.721   2.213   1.860  1.1096  0.3231 -0.2066
 1570TIP3    H126273   6.745   2.187   1.949  1.6171  1.2700 -0.0570
 1570TIP3    H226274   6.716   2.130   1.812  2.9255 -0.0690  0.1968
 1571TIP3   OH226275   5.354   1.261   1.336  0.4438 -0.0636 -0.1751
 1571TIP3    H126276   5.284   1.303   1.387  0.8922  0.6988 -0.1691
 1571TIP3    H226277   5.321   1.173   1.318 -0.7383  0.4474 -0.6068
 1572TIP3   OH226278   4.839   5.035   7.397 -0.1726  0.2761 -0.4009
 1572TIP3    H126279   4.846   5.071   7.309 -0.0681  2.2658  0.3670
 1572TIP3    H226280   4.761   4.980   7.394 -1.2443  1.7643 -1.3004
 1573TIP3   OH226281   4.831   3.368   0.875  0.2011 -0.1345  0.0477
 1573TIP3    H126282   4.807   3.288   0.921 -1.0495  0.7148  0.9467
 1573TIP3    H226283   4.747   3.407   0.850  0.8025  0.6115 -0.8746
 1574TIP3   OH226284   3.688   1.083   0.458 -0.2428 -0.1048 -0.3212
 1574TIP3    H126285   3.659   1.054   0.372 -0.8389 -0.7316  0.0762
 1574TIP3    H226286   3.607   1.095   0.508  0.1249 -1.1135  0.5657
 1575TIP3   OH226287   1.117   2.351   8.217 -0.1239  0.1571 -0.1365
 1575TIP3    H126288   1.030   2.335   8.181 -0.8501  2.9107  0.2444
 1575TIP3    H226289   1.110   2.329   8.310 -0.6346  1.0822  0.0484
 1576TIP3   OH226290   2.691   5.885   8.147  0.0085 -0.5001  0.4337
 1576TIP3    H126291   2.769   5.835   8.168 -0.3119 -1.1958  0.0037
 1576TIP3    H226292   2.618   5.824   8.162 -0.4325  0.0357  0.5285
 1577TIP3   OH226293   1.029   4.535   8.075  0.5731  0.2151  0.3288
 1577TIP3    H126294   0.995   4.618   8.041  0.3675  0.1361  0.3422
 1577TIP3    H226295   0.986   4.524   8.159  1.1777  0.4705  0.6762
 1578TIP3   OH226296   2.736   3.818   7.507  0.6972  0.4707  0.6985
 1578TIP3    H126297   2.688   3.872   7.444  0.9865  0.6625  0.6394
 1578TIP3    H226298   2.785   3.882   7.560 -0.2046  0.3838  1.6841
 1579TIP3   OH226299   3.567   3.823   0.510 -0.1218 -0.5210  0.0471
 1579TIP3    H126300   3.552   3.888   0.578  0.1005 -0.7059  0.2731
 1579TIP3    H226301   3.579   3.741   0.557  0.2435 -0.6133 -0.2027
 1580TIP3   OH226302   5.280   5.166   1.508 -0.1219  0.0994  0.4519
 1580TIP3    H126303   5.342   5.223   1.463  1.2204 -1.3477  0.3898
 1580TIP3    H226304   5.288   5.081   1.462 -1.0642 -0.5194  1.3895
 1581TIP3   OH226305   4.933   3.417   8.660 -0.0710  0.1441  0.2675
 1581TIP3    H126306   4.859   3.478   8.653  0.0445  0.3306  0.6460
 1581TIP3    H226307   4.910   3.346   8.601 -0.6593  0.0929  0.5441
 1582TIP3   OH226308   2.812   1.308   1.952  0.0909 -0.1455  0.1234
 1582TIP3    H126309   2.751   1.264   2.013 -1.3341  0.5140 -0.7692
 1582TIP3    H226310   2.794   1.401   1.964 -1.0259 -0.0134 -2.0345
 1583TIP3   OH226311   5.477   2.536   0.440  0.0838  0.5578 -0.6625
 1583TIP3    H126312   5.483   2.467   0.374  0.0941  0.4860 -0.5857
 1583TIP3    H226313   5.515   2.498   0.519  1.2430  1.0526 -0.9426
 1584TIP3   OH226314   4.844   1.298   6.826 -0.1574  0.6695  0.4157
 1584TIP3    H126315   4.894   1.377   6.844  0.8987  0.4990 -1.4775
 1584TIP3    H226316   4.831   1.257   6.912  1.5184  1.5869  1.1482
 1585TIP3   OH226317   6.296   1.748   0.090 -0.3395 -0.6772 -0.0244
 1585TIP3    H126318   6.312   1.814   0.022  0.4487  0.3615  1.1253
 1585TIP3    H226319   6.201   1.733   0.087 -0.2195 -1.4004 -1.9842
 1586TIP3   OH226320   6.737   3.977   7.514 -0.4242 -0.3713  0.3503
 1586TIP3    H126321   6.784   4.048   7.557  0.7798 -2.2161  2.2142
 1586TIP3    H226322   6.801   3.907   7.505 -1.3428 -0.9788 -2.2368
 1587TIP3   OH226323   4.403   2.896   2.189 -0.2625  0.0147 -0.1613
 1587TIP3    H126324   4.366   2.981   2.163 -1.0910 -0.1723  0.3508
 1587TIP3    H226325   4.430   2.909   2.280 -1.2698 -0.5145  0.2408
 1588TIP3   OH226326   5.428   4.772   2.602 -0.5380 -0.3703  0.7736
 1588TIP3    H126327   5.433   4.728   2.517 -2.4594  0.6017  0.1015
 1588TIP3    H226328   5.350   4.826   2.596  0.1403  0.8975  2.6332
 1589TIP3   OH226329   5.739   2.744   6.713 -0.8710  1.2100 -0.2417
 1589TIP3    H126330   5.677   2.674   6.695  0.2526  0.1170 -0.0086
 1589TIP3    H226331   5.699   2.795   6.783 -1.4139  0.4165  0.0306
 1590TIP3   OH226332   0.950   2.473   7.528 -0.1842 -0.0550  0.4417
 1590TIP3    H126333   1.024   2.414   7.517 -0.4616 -0.4514  0.7004
 1590TIP3    H226334   0.874   2.422   7.501 -0.5957 -0.2656  1.9062
 1591TIP3   OH226335   0.657   6.777   0.840 -0.4555 -0.2583 -0.1295
 1591TIP3    H126336   0.577   6.739   0.804 -0.7085  1.0859 -1.0777
 1591TIP3    H226337   0.724   6.760   0.773  0.0481 -1.2475  0.5913
 1592TIP3   OH226338   2.298   1.743   7.608 -0.3509 -0.2688 -0.0800
 1592TIP3    H126339   2.324   1.742   7.516 -0.0607  0.4907 -0.0121
 1592TIP3    H226340   2.282   1.836   7.628  0.1079 -0.3670  0.7767
 1593TIP3   OH226341   6.442   5.071   1.279 -0.0265 -0.2009 -0.1831
 1593TIP3    H126342   6.425   5.090   1.371 -2.0563 -1.3720 -0.2600
 1593TIP3    H226343   6.415   5.151   1.233  1.6797  0.6594  0.2528
 1594TIP3   OH226344   0.641   4.323   1.459  0.0723  0.3315  0.2822
 1594TIP3    H126345   0.623   4.372   1.539 -0.4161  0.3940  0.1410
 1594TIP3    H226346   0.736   4.308   1.460 -0.0950 -0.7354  1.4660
 1595TIP3   OH226347   3.153   5.067   1.813 -0.0019  0.5174  0.0577
 1595TIP3    H126348   3.058   5.054   1.820 -0.1514  1.5969  0.0917
 1595TIP3    H226349   3.174   5.037   1.724 -0.2173 -0.5836  0.3607
 1596TIP3   OH226350   2.027   2.662   8.014  0.3694 -0.0915 -0.4591
 1596TIP3    H126351   1.979   2.683   7.934  1.2151 -0.0648 -0.9690
 1596TIP3    H226352   1.958   2.641   8.078 -0.3008 -0.5324 -1.3011
 1597TIP3   OH226353   4.600   0.857   0.135  0.0965  0.0864 -0.9873
 1597TIP3    H126354   4.563   0.928   0.187 -1.1986  0.1606 -1.9834
 1597TIP3    H226355   4.599   0.781   0.193  2.3150  1.0023  0.4022
 1598TIP3   OH226356   1.920   3.744   0.934 -0.1909 -0.1008  0.3446
 1598TIP3    H126357   1.958   3.725   1.019 -0.6047 -0.1411  0.5212
 1598TIP3    H226358   1.985   3.799   0.890 -0.2308  0.4027  0.9036
 1599TIP3   OH226359   5.054   5.901   0.615 -0.4680  0.0189  0.1859
 1599TIP3    H126360   4.974   5.885   0.665 -0.3929  1.7868  0.9645
 1599TIP3    H226361   5.034   5.978   0.562 -0.1430 -1.1164 -1.6707
 1600TIP3   OH226362   0.318   4.345   8.488 -0.2207  0.3845  0.0055
 1600TIP3    H126363   0.340   4.367   8.579  1.2463  1.2422 -0.5193
 1600TIP3    H226364   0.369   4.407   8.436 -3.0156  1.6503 -1.4002
 1601TIP3   OH226365   0.568   4.290   8.007  0.1209 -0.2882 -0.5582
 1601TIP3    H126366   0.655   4.261   8.031  0.0158  0.5982  1.0131
 1601TIP3    H226367   0.510   4.250   8.072 -0.6394 -0.7193 -1.4711
 1602TIP3   OH226368   2.265   1.997   7.632 -0.3550 -0.3954  0.8903
 1602TIP3    H126369   2.307   2.046   7.562  0.0106 -0.7804  0.8359
 1602TIP3    H226370   2.171   2.009   7.617 -0.3474 -1.9952 -0.7822
 1603TIP3   OH226371   1.213   1.416   1.474  0.1165 -0.9098  0.4292
 1603TIP3    H126372   1.138   1.402   1.532 -1.0868  1.1880 -0.4783
 1603TIP3    H226373   1.273   1.470   1.524 -1.0230  1.0905 -0.2571
 1604TIP3   OH226374   5.399   5.502   0.037 -0.1231 -0.0790  0.4621
 1604TIP3    H126375   5.423   5.595   0.041 -2.3587  0.5306  0.6292
 1604TIP3    H226376   5.442   5.464   0.114  2.0018  0.4793 -0.3790
 1605TIP3   OH226377   5.336   4.589   6.283 -0.0981  0.2177  0.0758
 1605TIP3    H126378   5.370   4.502   6.302 -0.1096  0.0736 -0.5332
 1605TIP3    H226379   5.245   4.587   6.313 -0.0926  0.0255  0.0810
 1606TIP3   OH226380   4.451   3.343   8.605  0.4039 -0.1104  0.0093
 1606TIP3    H126381   4.390   3.417   8.603  0.5282  0.1121  2.0253
 1606TIP3    H226382   4.395   3.266   8.607  0.2727 -0.1048 -2.0753
 1607TIP3   OH226383   2.766   6.780   7.084 -0.2934 -0.3151  0.5115
 1607TIP3    H126384   2.688   6.834   7.066 -0.2402 -0.3057  0.3086
 1607TIP3    H226385   2.782   6.792   7.178 -1.2903 -1.3205  0.8382
 1608TIP3   OH226386   2.787   2.443   1.521  0.0358 -0.2689 -0.5603
 1608TIP3    H126387   2.739   2.370   1.482  0.9532 -1.2358  0.0651
 1608TIP3    H226388   2.730   2.519   1.508 -1.0525 -1.1343 -0.9979
 1609TIP3   OH226389   0.226   4.396   0.504  0.1203  0.2338 -0.4066
 1609TIP3    H126390   0.195   4.318   0.551 -0.5726  0.3944 -0.5958
 1609TIP3    H226391   0.147   4.440   0.474  0.5311 -0.0125 -1.9786
 1610TIP3   OH226392   1.824   3.634   0.560 -0.3528  0.6292 -0.3142
 1610TIP3    H126393   1.792   3.595   0.641 -1.0662  1.0675 -0.3722
 1610TIP3    H226394   1.880   3.706   0.588  1.8066 -1.0275 -0.1934
 1611TIP3   OH226395   4.375   4.485   6.451 -0.3054  0.7023  0.4855
 1611TIP3    H126396   4.306   4.463   6.387  1.0796 -1.6978 -0.3273
 1611TIP3    H226397   4.338   4.458   6.535 -0.4786 -0.3680  0.0842
 1612TIP3   OH226398   0.920   5.340   0.668 -0.4909 -0.1394 -0.1006
 1612TIP3    H126399   0.855   5.411   0.664 -0.5814 -0.2329 -0.4128
 1612TIP3    H226400   0.984   5.369   0.732 -0.6898  0.0886 -0.0018
 1613TIP3   OH226401   3.368   6.429   8.342  0.5960  0.0220 -0.1216
 1613TIP3    H126402   3.336   6.340   8.330  3.9839 -1.4934  0.8723
 1613TIP3    H226403   3.413   6.450   8.260  0.3223  0.6048 -0.1296
 1614TIP3   OH226404   6.746   0.726   0.928  0.2184 -0.1938  0.8742
 1614TIP3    H126405   6.797   0.656   0.969  0.5005  0.5184  1.7669
 1614TIP3    H226406   6.811   0.785   0.891 -0.0431 -1.1885 -1.2770
 1615TIP3   OH226407   1.437   3.314   1.573  0.3781 -0.4344 -0.1399
 1615TIP3    H126408   1.511   3.327   1.515  1.0272 -0.3423  0.6822
 1615TIP3    H226409   1.473   3.265   1.647 -0.4775 -0.7646  0.0703
 1616TIP3   OH226410   2.104   0.093   7.547 -0.1610  0.6822 -0.1618
 1616TIP3    H126411   2.087   0.164   7.484  0.3989  0.2645 -0.7990
 1616TIP3    H226412   2.196   0.072   7.534 -0.5621 -0.8401 -0.6797
 1617TIP3   OH226413   0.178   3.993   7.920  0.0988  0.7235 -0.1479
 1617TIP3    H126414   0.269   3.983   7.948 -0.8896 -1.7337  2.7735
 1617TIP3    H226415   0.137   4.042   7.992 -1.2731  0.0682 -0.4639
 1618TIP3   OH226416   4.319   4.922   0.410  0.6002  0.0608 -0.2498
 1618TIP3    H126417   4.383   4.877   0.464 -0.0152  0.1204  0.5472
 1618TIP3    H226418   4.234   4.889   0.440  0.2207 -3.4727 -4.2252
 1619TIP3   OH226419   2.108   3.231   1.281 -0.1680 -0.0636  1.0184
 1619TIP3    H126420   2.097   3.266   1.193 -1.5505  0.9504  1.5484
 1619TIP3    H226421   2.195   3.260   1.308  0.2569 -0.3650  0.0046
 1620TIP3   OH226422   0.726   3.649   8.500  0.6336  0.5023 -0.6985
 1620TIP3    H126423   0.769   3.591   8.438  0.4648  0.6519 -0.9560
 1620TIP3    H226424   0.642   3.606   8.519  0.8024  0.3170 -0.3596
 1621TIP3   OH226425   6.534   3.519   1.307  0.5644  0.0686  0.7487
 1621TIP3    H126426   6.444   3.487   1.311 -0.2294  1.7962 -1.4129
 1621TIP3    H226427   6.563   3.501   1.217  0.4875  3.9940 -0.2447
 1622TIP3   OH226428   0.104   4.116   7.687 -0.5251  1.1876 -0.0248
 1622TIP3    H126429   0.134   4.060   7.759  0.1623  0.2818 -0.9998
 1622TIP3    H226430   0.092   4.202   7.728  0.2510  0.7898  1.0934
 1623TIP3   OH226431   4.955   3.908   7.074 -0.5331 -0.4316  0.8215
 1623TIP3    H126432   4.994   3.992   7.098  1.6455 -1.4324  1.0431
 1623TIP3    H226433   4.916   3.923   6.989 -0.4705  0.8990  1.0138
 1624TIP3   OH226434   2.189   6.442   0.528  0.0378  0.5579  0.1731
 1624TIP3    H126435   2.275   6.410   0.554 -1.8682 -3.6415  2.3238
 1624TIP3    H226436   2.157   6.490   0.604  0.3265  2.0089 -0.5773
 1625TIP3   OH226437   3.476   5.065   8.561 -0.3383 -0.3203 -0.3708
 1625TIP3    H126438   3.486   5.124   8.485  0.4377 -1.6408 -1.3438
 1625TIP3    H226439   3.434   5.119   8.628  0.5228  1.4035 -1.1497
 1626TIP3   OH226440   4.386   4.834   7.094 -0.2844 -0.3421 -0.4903
 1626TIP3    H126441   4.380   4.780   7.015  1.4397 -0.2490 -0.7198
 1626TIP3    H226442   4.347   4.917   7.069 -0.1187 -0.4481 -1.1249
 1627TIP3   OH226443   3.606   6.753   0.401  0.0677 -0.4834  0.0735
 1627TIP3    H126444   3.553   6.674   0.404  0.2494 -0.5950  0.6082
 1627TIP3    H226445   3.621   6.775   0.494 -0.3319  0.4069 -0.0620
 1628TIP3   OH226446   0.632   5.171   7.352  0.3249 -0.4521  0.2678
 1628TIP3    H126447   0.647   5.106   7.421 -1.7701 -0.6490  0.5929
 1628TIP3    H226448   0.610   5.251   7.399  1.9348  0.2615 -0.1526
 1629TIP3   OH226449   6.805   0.927   1.408 -0.0380 -0.4282 -0.0483
 1629TIP3    H126450   6.829   0.860   1.471 -1.0235 -1.7758 -1.0392
 1629TIP3    H226451   6.833   1.010   1.448 -0.2014 -1.2691  1.9117
 1630TIP3   OH226452   5.359   1.846   6.400  0.4718  0.0170 -0.1801
 1630TIP3    H126453   5.435   1.865   6.345  1.0701  0.0272  0.6365
 1630TIP3    H226454   5.330   1.760   6.371  0.0466  0.5094 -1.3115
 1631TIP3   OH226455   5.599   6.270   6.497  0.1684  0.6432  0.0121
 1631TIP3    H126456   5.591   6.307   6.585  0.8641  0.0596  0.3254
 1631TIP3    H226457   5.647   6.188   6.510 -0.7697 -0.0502 -0.7542
 1632TIP3   OH226458   5.813   1.628   0.396  0.0485  0.4945  0.0838
 1632TIP3    H126459   5.794   1.678   0.475 -2.1218  0.6708 -0.4996
 1632TIP3    H226460   5.860   1.551   0.428  2.2929  2.1678  1.1254
 1633TIP3   OH226461   5.931   4.161   2.208  0.1155  0.1416  0.1400
 1633TIP3    H126462   6.025   4.143   2.211  0.5933  2.4547  2.3077
 1633TIP3    H226463   5.890   4.075   2.205  2.2888 -1.0773  2.0845
 1634TIP3   OH226464   2.543   2.106   1.512  0.3088  0.1467 -0.4407
 1634TIP3    H126465   2.534   2.196   1.545  0.1763 -0.8741  2.5249
 1634TIP3    H226466   2.453   2.081   1.488  0.1029  0.3072  0.1504
 1635TIP3   OH226467   5.677   1.265   8.106 -0.2317 -0.4024  0.0686
 1635TIP3    H126468   5.632   1.192   8.148  0.7118 -0.9513  0.1674
 1635TIP3    H226469   5.734   1.224   8.040 -0.1181  0.2872 -0.2773
 1636TIP3   OH226470   4.291   5.241   2.204 -0.1881  0.1057 -0.1675
 1636TIP3    H126471   4.366   5.243   2.145  0.6006 -0.0347  0.8067
 1636TIP3    H226472   4.291   5.326   2.248 -0.1837 -0.1496  0.3387
 1637TIP3   OH226473   3.240   3.253   6.381 -0.1321 -0.2208 -0.1857
 1637TIP3    H126474   3.286   3.335   6.365 -0.7587  0.3626  0.9327
 1637TIP3    H226475   3.184   3.242   6.304 -0.5902  0.7880 -0.0087
 1638TIP3   OH226476   4.239   3.542   7.432  0.9834 -0.7107 -0.5909
 1638TIP3    H126477   4.297   3.469   7.450  1.2957 -0.4082 -0.3534
 1638TIP3    H226478   4.151   3.507   7.443  1.1440 -0.6248  1.2552
 1639TIP3   OH226479   5.467   1.270   1.087  0.5591  0.5392 -0.4137
 1639TIP3    H126480   5.557   1.303   1.085 -0.1727  2.6704 -1.7337
 1639TIP3    H226481   5.441   1.279   1.178  1.6917 -0.2006  0.0093
 1640TIP3   OH226482   5.129   2.136   7.059 -0.0283 -0.4805 -0.1291
 1640TIP3    H126483   5.168   2.130   7.146  1.3635 -1.4661 -0.7895
 1640TIP3    H226484   5.103   2.046   7.039 -2.3720  0.0736  0.1224
 1641TIP3   OH226485   6.453   5.402   7.515  0.1558  0.4591  0.7749
 1641TIP3    H126486   6.545   5.395   7.489  0.7608  1.7753  2.3805
 1641TIP3    H226487   6.455   5.394   7.610 -2.0420 -5.2416  0.6961
 1642TIP3   OH226488   5.633   3.417   0.501 -0.2466 -0.4625 -0.9602
 1642TIP3    H126489   5.629   3.324   0.523  0.4841 -0.1891  0.4761
 1642TIP3    H226490   5.723   3.432   0.472 -0.2121 -0.1129 -0.6855
 1643TIP3   OH226491   0.313   4.651   8.687 -0.5046  0.2806  0.6962
 1643TIP3    H126492   0.372   4.603   8.744 -0.7802 -2.3537 -1.0695
 1643TIP3    H226493   0.226   4.637   8.724 -0.7039 -1.5776 -0.3611
 1644TIP3   OH226494   0.872   0.208   7.462 -0.2009  0.4456 -0.2000
 1644TIP3    H126495   0.948   0.160   7.494 -1.3002 -0.3964  1.2544
 1644TIP3    H226496   0.864   0.181   7.371  0.3363 -0.6535  0.0583
 1645TIP3   OH226497   3.702   4.427   0.985 -0.1756  0.0275 -0.1722
 1645TIP3    H126498   3.660   4.496   1.037 -0.4306 -0.9270  0.9361
 1645TIP3    H226499   3.774   4.471   0.941  0.3716  0.7984  1.3969
 1646TIP3   OH226500   6.765   1.565   7.350  0.0156 -0.5400  0.7344
 1646TIP3    H126501   6.718   1.648   7.354  0.4878 -0.0757 -1.6335
 1646TIP3    H226502   6.718   1.515   7.283  0.4056 -1.7417  1.3445
 1647TIP3   OH226503   0.647   5.552   6.502 -0.6212 -0.2621 -0.5535
 1647TIP3    H126504   0.618   5.584   6.587  0.2470 -0.0691 -0.3190
 1647TIP3    H226505   0.674   5.630   6.454  2.5897 -0.6080  0.4338
 1648TIP3   OH226506   5.209   1.420   0.603  0.0927 -0.2570 -0.0008
 1648TIP3    H126507   5.161   1.423   0.521  2.0508  1.4337 -1.1642
 1648TIP3    H226508   5.199   1.507   0.641  2.9488  0.5238 -0.7922
 1649TIP3   OH226509   5.381   5.853   2.014  0.5633 -0.1896  0.1000
 1649TIP3    H126510   5.377   5.946   1.992  1.1728 -0.0179  0.6934
 1649TIP3    H226511   5.378   5.808   1.930 -1.3951  0.2918 -0.1464
 1650TIP3   OH226512   5.521   4.311   0.769 -0.0118  0.9456  0.6978
 1650TIP3    H126513   5.442   4.324   0.821  0.5418 -1.0516  2.1614
 1650TIP3    H226514   5.592   4.335   0.827  0.5491  0.3860  0.2609
 1651TIP3   OH226515   2.465   4.844   8.340  0.1139 -0.0877  0.3589
 1651TIP3    H126516   2.457   4.753   8.368  1.8527  0.0814  1.6291
 1651TIP3    H226517   2.531   4.881   8.400  3.0667  0.7365 -3.0494
 1652TIP3   OH226518   6.653   2.806   1.850  0.2193  0.6246  0.1812
 1652TIP3    H126519   6.598   2.864   1.797 -0.1004 -0.1827 -0.3995
 1652TIP3    H226520   6.655   2.847   1.936 -1.5071  0.5615  0.2936
 1653TIP3   OH226521   5.586   0.419   1.881  0.1899 -0.2655  0.6593
 1653TIP3    H126522   5.639   0.427   1.961  1.1384  0.6074 -0.0317
 1653TIP3    H226523   5.625   0.481   1.820 -0.1332 -1.3681 -0.7185
 1654TIP3   OH226524   5.400   3.883   0.331 -0.3287  0.5936  0.4623
 1654TIP3    H126525   5.334   3.817   0.352  2.6708 -2.8960 -0.0642
 1654TIP3    H226526   5.420   3.925   0.416 -0.3217 -1.2414  1.4076
 1655TIP3   OH226527   5.351   2.375   6.854  0.3964 -0.4792 -0.4486
 1655TIP3    H126528   5.371   2.397   6.763 -1.7177 -0.5536 -0.9710
 1655TIP3    H226529   5.270   2.421   6.873  0.7044 -0.6141  1.3626
 1656TIP3   OH226530   4.896   2.166   1.592 -0.0061 -0.3016 -0.0534
 1656TIP3    H126531   4.975   2.113   1.593 -0.6551 -1.3205 -0.8603
 1656TIP3    H226532   4.847   2.138   1.669 -0.2623 -0.7524 -0.3764
 1657TIP3   OH226533   5.359   3.768   1.020  0.0532 -0.3647  0.2748
 1657TIP3    H126534   5.400   3.755   0.935  1.0609 -0.4413  0.7554
 1657TIP3    H226535   5.374   3.861   1.040  0.4051 -0.4970  0.6505
 1658TIP3   OH226536   4.554   3.266   5.869 -0.5676  0.1343  0.1485
 1658TIP3    H126537   4.589   3.221   5.945 -0.9412 -0.4216 -0.0034
 1658TIP3    H226538   4.551   3.358   5.895  1.6906  0.3277 -0.0928
 1659TIP3   OH226539   6.479   0.156   1.200  0.1420 -0.4654 -0.4257
 1659TIP3    H126540   6.461   0.096   1.272 -1.0378  0.8216  0.4062
 1659TIP3    H226541   6.431   0.120   1.125 -1.9079  0.2352  0.4773
 1660TIP3   OH226542   2.475   5.952   8.540  0.5154  0.2761  0.2809
 1660TIP3    H126543   2.562   5.988   8.556  0.6793 -0.1827  0.4591
 1660TIP3    H226544   2.491   5.867   8.499  0.1973 -0.3267  1.3363
 1661TIP3   OH226545   3.076   6.222   0.399 -0.0133  0.5695 -0.3356
 1661TIP3    H126546   3.004   6.275   0.435  0.6445  0.3582  1.3714
 1661TIP3    H226547   3.134   6.286   0.358  0.2619  1.0799  0.8158
 1662TIP3   OH226548   5.763   5.140   0.375  0.6151  0.0055 -0.2690
 1662TIP3    H126549   5.746   5.115   0.465 -0.8377 -1.4531 -0.8822
 1662TIP3    H226550   5.858   5.135   0.365  0.7987  0.2120  1.1472
 1663TIP3   OH226551   4.249   3.159   6.789 -0.0169 -0.0767 -0.0364
 1663TIP3    H126552   4.279   3.129   6.703  0.4778 -1.0791  0.4696
 1663TIP3    H226553   4.263   3.254   6.787 -1.9493  0.2486 -1.7939
 1664TIP3   OH226554   1.323   0.492   2.101  0.0071 -0.1356  0.0055
 1664TIP3    H126555   1.377   0.414   2.110 -0.1411 -0.3936 -1.1390
 1664TIP3    H226556   1.349   0.548   2.174 -1.2853 -2.0417  2.0218
 1665TIP3   OH226557   5.532   0.634   0.990 -0.7480 -0.5034  0.4062
 1665TIP3    H126558   5.500   0.587   0.913  1.3558  0.8173 -1.4201
 1665TIP3    H226559   5.619   0.596   1.006 -1.0656 -0.6014  2.0323
 1666TIP3   OH226560   6.669   2.922   2.105 -0.1582  0.1344  0.3585
 1666TIP3    H126561   6.614   2.910   2.182 -0.7667 -0.3795 -0.1405
 1666TIP3    H226562   6.756   2.892   2.133 -0.0067  1.3221  1.2692
 1667TIP3   OH226563   2.424   0.097   0.860 -0.1425 -0.1296  0.0001
 1667TIP3    H126564   2.388   0.165   0.918 -1.6210 -0.1667 -0.8169
 1667TIP3    H226565   2.411   0.016   0.909 -2.0698 -0.2477 -0.6219
 1668TIP3   OH226566   1.098   6.332   8.516  0.0764  0.1980  0.2888
 1668TIP3    H126567   1.025   6.394   8.520  1.5298  2.0634 -0.5248
 1668TIP3    H226568   1.176   6.385   8.536  1.1985 -1.7920  1.4645
 1669TIP3   OH226569   1.977   5.890   1.081  0.0195 -0.2118 -0.3129
 1669TIP3    H126570   2.048   5.828   1.101 -0.7870 -0.0554  4.0639
 1669TIP3    H226571   2.018   5.976   1.089  0.1710 -0.1196 -1.9032
 1670TIP3   OH226572   0.226   3.265   7.144 -0.8228  0.4081  0.4617
 1670TIP3    H126573   0.247   3.324   7.072 -0.3584  0.0619  0.3124
 1670TIP3    H226574   0.130   3.267   7.150 -0.9300 -0.2880 -0.7700
 1671TIP3   OH226575   3.681   2.763   1.595 -0.2352 -0.2148 -0.5351
 1671TIP3    H126576   3.695   2.857   1.604  0.9077 -0.3430 -0.8060
 1671TIP3    H226577   3.767   2.725   1.609 -0.5068 -1.1572 -1.3351
 1672TIP3   OH226578   3.611   1.520   1.777 -0.8108  0.6325 -0.4500
 1672TIP3    H126579   3.641   1.572   1.852  0.3003  1.3208 -1.3365
 1672TIP3    H226580   3.532   1.565   1.747 -0.7846  0.8505 -0.1975
 1673TIP3   OH226581   3.788   5.296   8.523  0.1571 -0.2530 -0.1479
 1673TIP3    H126582   3.828   5.342   8.449  0.7073  1.9745  1.4311
 1673TIP3    H226583   3.694   5.310   8.512  0.2764  0.6612 -0.0785
 1674TIP3   OH226584   0.889   3.627   7.301 -0.3069 -0.1724  0.2104
 1674TIP3    H126585   0.945   3.575   7.243 -0.4167  1.0009 -0.9741
 1674TIP3    H226586   0.866   3.704   7.250  0.7111  1.5904  2.2909
 1675TIP3   OH226587   1.557   1.913   2.103 -0.0444  0.7116 -0.4687
 1675TIP3    H126588   1.485   1.936   2.162  0.2319  2.2084 -0.6576
 1675TIP3    H226589   1.636   1.937   2.151  0.2597  0.4198 -0.8204
 1676TIP3   OH226590   6.100   6.580   6.763  0.7966  0.3122 -0.3756
 1676TIP3    H126591   6.191   6.551   6.748  1.2499  1.7419 -0.5611
 1676TIP3    H226592   6.078   6.629   6.684  0.2081  0.7916  0.0815
 1677TIP3   OH226593   0.608   6.207   0.806 -0.7808  0.4948 -0.5611
 1677TIP3    H126594   0.694   6.198   0.765  0.0639  0.2352  1.1906
 1677TIP3    H226595   0.617   6.164   0.891 -3.3993 -1.9449 -1.3391
 1678TIP3   OH226596   5.848   4.872   8.201 -0.1015  0.2813  0.1779
 1678TIP3    H126597   5.765   4.915   8.217 -1.4812 -0.7828 -3.3318
 1678TIP3    H226598   5.825   4.783   8.173  2.1432  0.0794 -1.3611
 1679TIP3   OH226599   3.552   1.998   7.616 -0.8394  0.2953  0.0984
 1679TIP3    H126600   3.606   2.043   7.681 -1.8052  4.6368 -1.7110
 1679TIP3    H226601   3.612   1.981   7.543 -0.8507  0.2857  0.0915
 1680TIP3   OH226602   0.983   6.275   2.157 -0.3080 -0.2114 -0.4698
 1680TIP3    H126603   1.001   6.287   2.250 -0.0529 -0.8921 -0.4270
 1680TIP3    H226604   0.938   6.191   2.152 -0.5960 -0.0309 -0.9290
 1681TIP3   OH226605   3.477   0.394   8.085 -0.4178  0.5475 -0.2726
 1681TIP3    H126606   3.451   0.311   8.044  1.5991  0.1164 -0.8311
 1681TIP3    H226607   3.469   0.459   8.015  0.2067  0.3663 -0.5197
 1682TIP3   OH226608   6.376   5.218   2.122  0.2887  0.0959 -0.5528
 1682TIP3    H126609   6.445   5.182   2.179 -2.6363 -1.3886  2.4370
 1682TIP3    H226610   6.324   5.142   2.098 -2.1259  1.4728  0.0553
 1683TIP3   OH226611   0.613   2.290   1.932  0.0980 -0.8735 -0.1792
 1683TIP3    H126612   0.605   2.350   2.006  0.0850 -0.1214 -0.7789
 1683TIP3    H226613   0.705   2.262   1.934  0.5552  0.5198 -0.9142
 1684TIP3   OH226614   3.497   1.631   0.700  0.2047 -0.5999  0.4379
 1684TIP3    H126615   3.491   1.651   0.606  2.6236 -2.1840 -0.1678
 1684TIP3    H226616   3.540   1.545   0.703 -0.1728 -0.7670  3.0109
 1685TIP3   OH226617   0.399   5.010   1.145  0.3695 -0.3255 -0.1391
 1685TIP3    H126618   0.351   4.951   1.087  0.7116 -0.6549 -0.0924
 1685TIP3    H226619   0.334   5.074   1.174  0.5643  1.0433 -2.4179
 1686TIP3   OH226620   3.968   3.215   0.070 -0.2289 -0.8836  0.0572
 1686TIP3    H126621   3.889   3.261   0.043 -0.8646 -1.4595  0.8957
 1686TIP3    H226622   4.029   3.227  -0.003 -0.7805  0.2936 -0.2272
 1687TIP3   OH226623   4.750   2.920   2.395  0.0309 -0.5945 -0.0004
 1687TIP3    H126624   4.797   2.967   2.464  0.2044 -1.6872  0.6541
 1687TIP3    H226625   4.663   2.906   2.431  0.1716 -1.3135  0.0781
 1688TIP3   OH226626   6.648   1.192   1.335  0.1247  0.0798 -0.4675
 1688TIP3    H126627   6.620   1.100   1.337 -0.5960  0.3143  0.3558
 1688TIP3    H226628   6.723   1.195   1.395  0.9732 -0.2131 -1.4638
 1689TIP3   OH226629   1.148   2.305   7.467  0.0612 -0.4216  0.0576
 1689TIP3    H126630   1.118   2.214   7.477 -0.0171 -0.5961 -1.4703
 1689TIP3    H226631   1.220   2.313   7.530 -1.5796 -0.7209  2.0758
 1690TIP3   OH226632   6.735   4.884   6.797 -0.0509 -0.6791  0.0996
 1690TIP3    H126633   6.664   4.860   6.737  1.1502 -1.8434 -0.9095
 1690TIP3    H226634   6.811   4.898   6.740  0.2401  2.0645  0.9829
 1691TIP3   OH226635   3.441   6.253   0.970  0.2138  0.1823 -0.2674
 1691TIP3    H126636   3.361   6.224   0.926 -0.8285  2.2823  0.1391
 1691TIP3    H226637   3.512   6.215   0.917 -1.0148 -0.2058 -1.7203
 1692TIP3   OH226638   1.280   3.868   1.129  0.0636 -0.1646 -0.0363
 1692TIP3    H126639   1.355   3.906   1.084 -0.0303  0.3877  0.2747
 1692TIP3    H226640   1.248   3.801   1.068  0.6161 -0.1956 -0.3007
 1693TIP3   OH226641   3.086   0.874   0.281 -0.2629 -0.0574 -0.6536
 1693TIP3    H126642   3.101   0.927   0.203 -0.6255  0.6902 -0.2259
 1693TIP3    H226643   3.123   0.788   0.259  0.5378  0.4279 -1.2715
 1694TIP3   OH226644   4.228   2.023   6.501  0.0227  0.2782 -0.5998
 1694TIP3    H126645   4.182   2.065   6.573 -0.5382 -1.4084  0.0924
 1694TIP3    H226646   4.160   1.970   6.458  0.6513  0.1948 -1.5210
 1695TIP3   OH226647   4.437   1.200   6.635 -0.0185  0.0019 -0.0130
 1695TIP3    H126648   4.512   1.149   6.603  0.0800  0.8000 -1.1202
 1695TIP3    H226649   4.362   1.142   6.625  0.6142 -1.4446  2.6960
 1696TIP3   OH226650   6.364   2.313   7.428  0.0162  0.3691 -0.1450
 1696TIP3    H126651   6.369   2.281   7.518 -2.1370  0.1267 -0.0387
 1696TIP3    H226652   6.276   2.288   7.400  0.4524  0.9401 -2.1369
 1697TIP3   OH226653   5.046   1.136   1.738  0.6431  0.7383 -0.2970
 1697TIP3    H126654   5.095   1.208   1.778  0.7201  0.7638 -0.4392
 1697TIP3    H226655   5.083   1.127   1.650  1.2685 -0.1014  0.0485
 1698TIP3   OH226656   1.455   2.896   0.776 -0.0368  0.0187 -0.0484
 1698TIP3    H126657   1.549   2.915   0.779 -0.1820  0.8067 -0.4649
 1698TIP3    H226658   1.430   2.912   0.685 -0.2222 -1.9536 -0.3848
 1699TIP3   OH226659   3.886   6.367   6.967  0.0438 -0.6779 -0.0257
 1699TIP3    H126660   3.976   6.351   6.936 -0.0469 -1.0173 -0.1163
 1699TIP3    H226661   3.834   6.371   6.887  0.1615  0.7615 -0.0614
 1700TIP3   OH226662   3.309   4.839   7.800 -0.0325 -0.3228 -0.3200
 1700TIP3    H126663   3.346   4.767   7.749  1.9324  0.1401  0.3628
 1700TIP3    H226664   3.369   4.912   7.785  0.1542  0.0653  1.9469
 1701TIP3   OH226665   5.188   4.712   7.151  0.6262  0.4088  0.4087
 1701TIP3    H126666   5.148   4.767   7.217 -0.0741  1.3491 -0.7570
 1701TIP3    H226667   5.162   4.751   7.068  2.2492 -0.1882 -0.4262
 1702TIP3   OH226668   2.530   0.397   8.097 -0.3600 -0.3430  0.2313
 1702TIP3    H126669   2.527   0.311   8.139  1.4127 -1.5616 -1.9302
 1702TIP3    H226670   2.622   0.410   8.075 -0.5519  2.2598  0.6900
 1703TIP3   OH226671   1.882   0.008   6.731 -0.6292 -0.0274 -0.1055
 1703TIP3    H126672   1.841  -0.076   6.753  0.3610 -0.5645 -0.2233
 1703TIP3    H226673   1.845   0.030   6.645  0.9861 -1.6889 -1.3325
 1704TIP3   OH226674   5.435   2.088   7.132  0.4838 -0.0242  0.2044
 1704TIP3    H126675   5.505   2.146   7.102 -0.0793  0.0493 -1.0234
 1704TIP3    H226676   5.455   2.004   7.091 -1.1081  0.4519 -1.6878
 1705TIP3   OH226677   5.515   6.660   0.319  0.7592  0.4934  0.2514
 1705TIP3    H126678   5.499   6.742   0.366 -0.1839 -0.5515  1.8230
 1705TIP3    H226679   5.599   6.630   0.351  0.7665  0.4748  0.2142
 1706TIP3   OH226680   4.415   4.420   1.020 -0.1355 -0.1255 -0.4482
 1706TIP3    H126681   4.344   4.477   0.989 -0.6817 -0.3646  0.3342
 1706TIP3    H226682   4.428   4.447   1.111 -0.0279 -0.8817 -0.2377
 1707TIP3   OH226683   3.630   2.020   1.370 -0.5607  0.0967  0.2025
 1707TIP3    H126684   3.715   2.063   1.368 -0.2067 -0.4756 -3.2729
 1707TIP3    H226685   3.568   2.088   1.345 -0.5733 -0.3630 -1.0688
 1708TIP3   OH226686   6.495   5.395   1.436  0.1415 -0.3939  0.4386
 1708TIP3    H126687   6.556   5.334   1.477  0.5370  0.5610  1.2849
 1708TIP3    H226688   6.451   5.438   1.508  0.9417  1.4095 -0.1097
 1709TIP3   OH226689   1.998   5.467   6.425  0.4761  0.1157 -0.1268
 1709TIP3    H126690   2.051   5.439   6.499 -1.6024 -0.7874  1.1257
 1709TIP3    H226691   1.979   5.559   6.443  0.2952  0.0025  0.2943
 1710TIP3   OH226692   4.418   0.615   8.416 -0.7165 -0.1081 -0.2737
 1710TIP3    H126693   4.445   0.616   8.508  0.0196 -1.0475 -0.4589
 1710TIP3    H226694   4.324   0.599   8.418 -1.0724  1.8910  0.3585
 1711TIP3   OH226695   5.608   2.870   1.602 -0.4683 -0.0955 -0.4673
 1711TIP3    H126696   5.605   2.921   1.522 -0.4305  0.6645  0.0084
 1711TIP3    H226697   5.543   2.800   1.588  0.3596 -0.6652 -1.6034
 1712TIP3   OH226698   0.436   5.179   8.623 -0.2046  0.2061 -0.0731
 1712TIP3    H126699   0.373   5.117   8.659 -0.7815  0.1319 -1.1928
 1712TIP3    H226700   0.476   5.133   8.550  1.7422 -0.0473  1.0772
 1713TIP3   OH226701   2.442   0.305   1.269 -0.1190  1.0365  0.0028
 1713TIP3    H126702   2.393   0.358   1.207  0.0167  0.9879 -0.1484
 1713TIP3    H226703   2.382   0.234   1.293  0.1813  0.4672 -0.8733
 1714TIP3   OH226704   5.430   6.805   1.102  0.3461 -0.1179 -0.3650
 1714TIP3    H126705   5.450   6.745   1.031 -1.6632 -1.3051 -0.0008
 1714TIP3    H226706   5.505   6.865   1.105  2.2482 -2.3507 -0.9775
 1715TIP3   OH226707   1.467   6.635   8.743  0.0564  0.0213  0.1020
 1715TIP3    H126708   1.408   6.560   8.757 -0.4101  0.6513  1.6634
 1715TIP3    H226709   1.414   6.697   8.693  0.2278 -0.3904 -0.6173
 1716TIP3   OH226710   0.324   0.260   1.887  0.0784 -0.2618  0.1665
 1716TIP3    H126711   0.286   0.280   1.972  2.4599 -1.4860  1.6199
 1716TIP3    H226712   0.413   0.232   1.906  1.1841  0.7753 -2.8813
 1717TIP3   OH226713   4.485   2.149   7.497 -0.0320 -0.2291  0.1229
 1717TIP3    H126714   4.544   2.223   7.509  0.5253 -0.2140 -2.2461
 1717TIP3    H226715   4.484   2.134   7.402  0.1841 -3.4919  0.5123
 1718TIP3   OH226716   5.524   2.362   1.472 -0.4370 -0.1917  0.5115
 1718TIP3    H126717   5.429   2.375   1.475 -0.1697  3.2665 -0.7728
 1718TIP3    H226718   5.553   2.387   1.560 -0.5811  1.0495  0.2280
 1719TIP3   OH226719   4.314   3.175   8.239 -0.1745  0.3619  1.0650
 1719TIP3    H126720   4.397   3.222   8.248 -0.8254  1.7375  0.1464
 1719TIP3    H226721   4.247   3.242   8.248 -1.2132 -0.7121  1.6579
 1720TIP3   OH226722   6.087   5.918   1.445  0.5473 -0.1937  0.4630
 1720TIP3    H126723   6.074   6.012   1.436 -0.1881 -0.4136 -1.3078
 1720TIP3    H226724   6.017   5.888   1.503 -0.0471  0.1862 -0.0469
 1721TIP3   OH226725   4.867   1.632   7.328 -0.1049 -0.0574  0.3734
 1721TIP3    H126726   4.783   1.625   7.284 -0.5179 -0.5504  1.2240
 1721TIP3    H226727   4.870   1.722   7.362 -0.0207  0.1490 -0.1780
 1722TIP3   OH226728   1.761   5.383   1.198 -0.3124 -0.4185  0.7581
 1722TIP3    H126729   1.841   5.336   1.221 -0.2652 -0.6819  0.0809
 1722TIP3    H226730   1.729   5.419   1.280  1.0668  0.5861  0.8783
 1723TIP3   OH226731   1.853   5.445   0.906  0.8333 -0.4081 -0.2868
 1723TIP3    H126732   1.878   5.451   0.998 -0.6995 -0.9884  0.1994
 1723TIP3    H226733   1.826   5.533   0.882 -1.8323 -0.8388  0.7992
 1724TIP3   OH226734   5.203   4.101   8.162  0.2141 -0.0350 -0.1070
 1724TIP3    H126735   5.250   4.033   8.211  1.7052  1.7645  1.1102
 1724TIP3    H226736   5.162   4.155   8.230  0.3249  1.1538 -0.9562
 1725TIP3   OH226737   3.087   0.456   7.956 -0.4361 -0.1384  0.0487
 1725TIP3    H126738   3.154   0.521   7.978  0.1379 -0.5949 -0.3241
 1725TIP3    H226739   3.109   0.427   7.868 -0.7992 -0.7038  0.1359
 1726TIP3   OH226740   2.176   1.506   6.468 -0.1965 -0.1643  0.2050
 1726TIP3    H126741   2.081   1.493   6.480 -0.7251  2.2255 -0.7410
 1726TIP3    H226742   2.195   1.465   6.384 -1.0457  1.7318 -0.9790
 1727TIP3   OH226743   2.362   1.668   0.197  0.3913 -0.0386  0.3428
 1727TIP3    H126744   2.336   1.662   0.289  0.1935  2.0103  0.4533
 1727TIP3    H226745   2.457   1.654   0.198  0.1127 -2.5120  0.5043
 1728TIP3   OH226746   0.956   5.826   8.593  0.6260 -0.0962  0.1075
 1728TIP3    H126747   1.035   5.848   8.544  0.2522 -1.0663 -0.9815
 1728TIP3    H226748   0.900   5.903   8.585  0.6406 -0.1781 -0.8696
 1729TIP3   OH226749   4.124   1.378   2.063 -0.6569 -0.2055  0.4608
 1729TIP3    H126750   4.219   1.370   2.059 -0.5076  0.4633  1.9612
 1729TIP3    H226751   4.097   1.315   2.131 -1.3109 -0.5373 -0.0937
 1730TIP3   OH226752   2.122   5.495   8.101  0.2770 -0.4902 -0.1650
 1730TIP3    H126753   2.081   5.542   8.028 -0.6914  0.7811  1.1477
 1730TIP3    H226754   2.062   5.422   8.119  1.1869 -1.6119 -1.4416
 1731TIP3   OH226755   5.394   5.835   8.332  0.1272 -0.4735  0.1193
 1731TIP3    H126756   5.402   5.930   8.345  3.4042 -0.7602  0.9422
 1731TIP3    H226757   5.411   5.798   8.419 -0.0679 -1.8445 -0.4144
 1732TIP3   OH226758   1.853   0.255   0.732 -0.1962 -0.1224  0.1403
 1732TIP3    H126759   1.787   0.321   0.755  0.1265  0.2528 -0.0055
 1732TIP3    H226760   1.824   0.176   0.779 -2.6078 -0.9682 -2.4600
 1733TIP3   OH226761   2.263   5.957   8.346  0.1863 -0.3859  0.1836
 1733TIP3    H126762   2.321   6.031   8.329  1.8588 -1.9226 -1.0875
 1733TIP3    H226763   2.311   5.902   8.408 -1.6050  0.1617  2.1985
 1734TIP3   OH226764   6.077   0.595   7.504  0.8293  0.0570 -0.2675
 1734TIP3    H126765   6.017   0.534   7.461  0.2043 -1.8993  2.9867
 1734TIP3    H226766   6.022   0.668   7.532  0.3740 -0.6032  0.6280
 1735TIP3   OH226767   6.625   3.792   1.308  0.0650 -0.6724  0.4242
 1735TIP3    H126768   6.602   3.843   1.230  2.5654  1.3297  0.8876
 1735TIP3    H226769   6.610   3.701   1.282 -2.0376  0.0893 -1.3290
 1736TIP3   OH226770   2.587   2.686   8.398 -0.1490 -0.0753 -0.0172
 1736TIP3    H126771   2.544   2.606   8.429 -0.1740 -0.2009 -0.3748
 1736TIP3    H226772   2.667   2.692   8.450 -0.2156 -0.2569  0.1069
 1737TIP3   OH226773   6.631   2.763   8.716  0.0633  0.3917 -0.0732
 1737TIP3    H126774   6.624   2.787   8.623 -1.0805  4.5992  0.8639
 1737TIP3    H226775   6.544   2.730   8.739 -0.1135  0.7813 -0.1806
 1738TIP3   OH226776   4.101   2.677   8.697  0.3598  0.1905  0.6174
 1738TIP3    H126777   4.032   2.610   8.695  0.2333  0.3233  0.5643
 1738TIP3    H226778   4.064   2.752   8.651  1.5316 -0.6818 -1.9278
 1739TIP3   OH226779   6.387   5.854   0.572  0.7301 -0.7092  0.2042
 1739TIP3    H126780   6.379   5.759   0.569  0.6868 -0.7035  0.1410
 1739TIP3    H226781   6.406   5.873   0.664 -4.2772 -0.3769  1.4464
 1740TIP3   OH226782   1.349   6.030   8.067 -0.5315  0.2101  0.0735
 1740TIP3    H126783   1.300   6.109   8.089 -1.0003  0.0906 -0.5370
 1740TIP3    H226784   1.365   6.036   7.973 -1.2375 -0.7916 -0.1280
 1741TIP3   OH226785   5.323   3.866   8.282 -0.7000  0.2273 -0.1501
 1741TIP3    H126786   5.416   3.885   8.269 -0.8255  0.3248 -1.0020
 1741TIP3    H226787   5.311   3.865   8.377  0.0178  0.9422 -0.0438
 1742TIP3   OH226788   2.602   3.028   8.373 -0.3069  0.1672 -0.1442
 1742TIP3    H126789   2.592   3.053   8.281 -1.6206 -1.4158 -0.4813
 1742TIP3    H226790   2.527   2.971   8.390  1.6046 -2.1890  0.9804
 1743TIP3   OH226791   5.832   3.469   1.316  0.6733  0.2991  0.2631
 1743TIP3    H126792   5.811   3.499   1.404 -2.9771 -2.5480  0.6241
 1743TIP3    H226793   5.785   3.528   1.258  0.8463  0.5711  0.4005
 1744TIP3   OH226794   1.895   6.744   7.509  0.7621 -0.2446  0.8368
 1744TIP3    H126795   1.938   6.800   7.444 -0.4770 -0.3465 -0.1138
 1744TIP3    H226796   1.801   6.762   7.498 -0.0456 -4.3690 -1.4887
 1745TIP3   OH226797   0.948   1.761   1.816 -0.2340 -0.1096 -0.2290
 1745TIP3    H126798   1.024   1.751   1.873  0.1104 -1.2580 -0.8515
 1745TIP3    H226799   0.985   1.774   1.729 -0.7539  0.9173 -0.3074
 1746TIP3   OH226800   3.329   3.382   0.380 -0.2103 -0.8882 -0.1155
 1746TIP3    H126801   3.302   3.421   0.463  0.0174 -0.8185 -0.0753
 1746TIP3    H226802   3.408   3.332   0.401 -0.6457 -1.5962 -0.1046
 1747TIP3   OH226803   6.190   4.552   1.351  0.0102  0.5190  0.3963
 1747TIP3    H126804   6.209   4.482   1.290  0.6373  0.6485  0.4316
 1747TIP3    H226805   6.180   4.630   1.296  1.0081  0.7183  0.4823
 1748TIP3   OH226806   6.352   4.831   7.376 -0.3275 -0.0668  0.3887
 1748TIP3    H126807   6.352   4.796   7.287 -1.5039  0.4046  0.1822
 1748TIP3    H226808   6.291   4.775   7.423 -0.2225  0.1007  0.7268
 1749TIP3   OH226809   4.271   6.095   7.585 -0.3010 -0.2115  0.2329
 1749TIP3    H126810   4.241   6.036   7.655 -0.5126 -0.1444  0.2002
 1749TIP3    H226811   4.276   6.040   7.507 -2.0011  0.1318 -0.1593
 1750TIP3   OH226812   3.893   2.895   0.179  0.3758 -0.2053 -0.0834
 1750TIP3    H126813   3.827   2.838   0.218  1.2230 -0.5018  0.9768
 1750TIP3    H226814   3.849   2.979   0.168  0.1344 -0.0596  1.7298
 1751TIP3   OH226815   1.823   2.427   7.761 -0.5488 -0.7258  0.1492
 1751TIP3    H126816   1.844   2.403   7.851  0.0587 -0.6237  0.0419
 1751TIP3    H226817   1.909   2.434   7.718 -0.7745  0.2301 -0.1745
 1752TIP3   OH226818   2.207   2.287   7.457  0.2890  0.4740  0.3375
 1752TIP3    H126819   2.234   2.214   7.401 -1.7108 -0.0161 -0.0636
 1752TIP3    H226820   2.273   2.354   7.442  1.3504 -0.6867 -0.4405
 1753TIP3   OH226821   0.935   1.069   7.145 -0.0299  0.4507 -0.0281
 1753TIP3    H126822   0.854   1.021   7.130  0.0841  0.6481 -1.4426
 1753TIP3    H226823   1.003   1.002   7.148  0.0015  0.4364 -0.9444
 1754TIP3   OH226824   3.207   6.736   0.619  0.1724 -0.4552 -0.1497
 1754TIP3    H126825   3.156   6.816   0.602 -0.0009 -0.5537 -0.0973
 1754TIP3    H226826   3.232   6.705   0.532 -0.7530 -0.9820 -0.2479
 1755TIP3   OH226827   1.247   2.249   8.446 -0.0483 -0.0608  0.8312
 1755TIP3    H126828   1.267   2.157   8.467 -0.2713 -0.3282 -0.0724
 1755TIP3    H226829   1.210   2.284   8.527  0.3117 -0.6862  1.2804
 1756TIP3   OH226830   3.673   4.136   1.568 -0.2549  0.1673  0.1915
 1756TIP3    H126831   3.662   4.045   1.596 -2.3662  0.3893  0.2665
 1756TIP3    H226832   3.608   4.185   1.619  1.3990  1.8920  0.7889
 1757TIP3   OH226833   0.042   2.312   0.712  0.7009  0.2956 -0.1925
 1757TIP3    H126834   0.105   2.319   0.641  2.7401  0.4145  1.5288
 1757TIP3    H226835   0.017   2.220   0.713  0.5594  0.3115 -1.0861
 1758TIP3   OH226836   4.921   3.946   6.795  0.0394  0.4299  0.3723
 1758TIP3    H126837   5.003   3.903   6.770 -0.3787 -1.6650  2.2065
 1758TIP3    H226838   4.861   3.929   6.722  1.0673  1.5470 -0.7627
 1759TIP3   OH226839   2.887   5.779   7.339  0.1406 -0.2201  0.1216
 1759TIP3    H126840   2.816   5.815   7.392 -0.0066  0.3392 -0.4531
 1759TIP3    H226841   2.936   5.724   7.400 -0.3076  0.0358  0.7223
 1760TIP3   OH226842   2.806   5.413   0.722  0.4192  0.1281 -0.0273
 1760TIP3    H126843   2.746   5.482   0.692 -1.2329 -1.6483 -0.9958
 1760TIP3    H226844   2.752   5.354   0.774  1.4957 -1.1401 -0.2874
 1761TIP3   OH226845   0.726   0.260   0.049  0.2575 -0.0302  0.2553
 1761TIP3    H126846   0.675   0.219   0.118 -0.6628 -0.5861 -0.7255
 1761TIP3    H226847   0.815   0.228   0.062 -0.3321 -1.9197 -0.1577
 1762TIP3   OH226848   3.722   5.892   8.280 -0.5299 -0.1400  0.1406
 1762TIP3    H126849   3.698   5.801   8.263  0.1822 -0.3888  0.4222
 1762TIP3    H226850   3.649   5.927   8.331  0.4268 -1.3961  2.5176
 1763TIP3   OH226851   6.415   5.529   1.192 -0.4389  1.0956  0.6055
 1763TIP3    H126852   6.441   5.455   1.248  3.3856  1.8298  0.0501
 1763TIP3    H226853   6.356   5.581   1.248  0.8490  0.2584  2.8971
 1764TIP3   OH226854   0.373   2.622   0.764  0.2437  0.5904  0.4300
 1764TIP3    H126855   0.366   2.691   0.698 -1.1843 -0.6733 -0.8202
 1764TIP3    H226856   0.355   2.666   0.847  1.3350  2.0745 -0.0745
 1765TIP3   OH226857   0.445   3.202   8.686 -0.0202 -0.5541  0.4427
 1765TIP3    H126858   0.521   3.200   8.744  1.3386  0.7083 -1.2080
 1765TIP3    H226859   0.395   3.279   8.713 -1.4425 -2.0297  2.3032
 1766TIP3   OH226860   1.064   6.640   7.470  0.1465 -0.3043 -0.4229
 1766TIP3    H126861   1.065   6.721   7.419 -0.5788  0.4538  0.7229
 1766TIP3    H226862   0.971   6.620   7.481  0.2348  0.0387  1.2995
 1767TIP3   OH226863   2.168   4.005   0.388 -0.0863  0.4981 -0.4020
 1767TIP3    H126864   2.145   4.040   0.474  0.0769  1.8494 -0.8719
 1767TIP3    H226865   2.134   4.070   0.327 -0.4024 -0.5579 -1.3800
 1768TIP3   OH226866   4.747   2.384   1.825 -0.2605  0.3099  0.1187
 1768TIP3    H126867   4.691   2.319   1.781  0.1644 -0.6287  0.9230
 1768TIP3    H226868   4.814   2.332   1.868  0.7306  1.3691 -0.1049
 1769TIP3   OH226869   2.039   5.198   2.621  0.5017 -0.5992  0.5439
 1769TIP3    H126870   2.017   5.107   2.640  1.0883 -0.5041  1.7883
 1769TIP3    H226871   1.955   5.242   2.614  0.1953 -0.6536  3.0547
 1770TIP3   OH226872   3.846   6.448   7.224  0.0350 -0.5739  0.0746
 1770TIP3    H126873   3.859   6.429   7.132  0.0782  0.0416 -0.0492
 1770TIP3    H226874   3.755   6.478   7.230  0.6269  1.4059 -0.1227
 1771TIP3   OH226875   1.445   1.369   8.667 -0.0974  0.6702  0.9838
 1771TIP3    H126876   1.370   1.419   8.699 -0.7759  0.5015 -0.2766
 1771TIP3    H226877   1.425   1.278   8.688 -0.6194  0.5406  0.0053
 1772TIP3   OH226878   4.741   3.057   7.876  0.1950 -0.4704  0.5541
 1772TIP3    H126879   4.753   2.978   7.823  1.8017  0.4933 -0.6237
 1772TIP3    H226880   4.825   3.068   7.921 -0.2031  0.2751  1.1456
 1773TIP3   OH226881   1.687   0.816   1.701 -0.8077 -0.1952  0.0030
 1773TIP3    H126882   1.626   0.887   1.719  0.7962  0.8754  1.6159
 1773TIP3    H226883   1.705   0.778   1.787 -0.6508 -1.7360 -0.6802
 1774TIP3   OH226884   1.158   4.477   7.581 -0.2493  0.0558 -0.3120
 1774TIP3    H126885   1.099   4.458   7.654  0.8708  2.0791  1.2212
 1774TIP3    H226886   1.102   4.517   7.515 -0.7196  1.7328  1.0214
 1775TIP3   OH226887   2.823   3.366   8.447 -0.4839  0.1889  0.0048
 1775TIP3    H126888   2.875   3.316   8.510  0.4028  0.8894 -0.1566
 1775TIP3    H226889   2.799   3.301   8.380  0.1016 -0.1683  0.1332
 1776TIP3   OH226890   1.800   4.036   7.199  0.0596  0.0313 -0.6329
 1776TIP3    H126891   1.837   4.096   7.135  0.8383  1.5845  1.1721
 1776TIP3    H226892   1.805   4.083   7.282 -0.1268 -2.1865  0.7289
 1777TIP3   OH226893   4.300   4.794   8.313 -0.0540  0.3322 -0.7107
 1777TIP3    H126894   4.241   4.739   8.261 -0.7817  1.3268 -0.9500
 1777TIP3    H226895   4.296   4.755   8.401  1.6614 -1.7466 -1.4589
 1778TIP3   OH226896   0.683   2.497   1.704 -0.3464 -0.6815 -0.1242
 1778TIP3    H126897   0.640   2.479   1.787 -1.0442 -1.3222 -0.6050
 1778TIP3    H226898   0.666   2.419   1.651  1.7607 -1.1442 -0.2184
 1779TIP3   OH226899   5.226   3.436   6.631  0.3661 -0.4803 -0.0272
 1779TIP3    H126900   5.260   3.383   6.558 -1.6875 -2.1995  0.1863
 1779TIP3    H226901   5.298   3.496   6.651  1.8955 -1.5423 -1.8974
 1780TIP3   OH226902   3.003   1.447   8.421  0.4543 -0.3686  0.0955
 1780TIP3    H126903   3.037   1.393   8.350  3.8505  1.9638 -0.2922
 1780TIP3    H226904   2.952   1.515   8.377  0.3460 -0.4094  0.1563
 1781TIP3   OH226905   0.406   2.644   0.208  0.9893 -0.1837 -0.3212
 1781TIP3    H126906   0.329   2.588   0.200  0.6870  0.1348  0.3007
 1781TIP3    H226907   0.474   2.599   0.158  0.8036 -1.2156  0.3262
 1782TIP3   OH226908   4.972   5.779   7.110 -0.4632 -0.3239 -0.1203
 1782TIP3    H126909   4.942   5.866   7.136 -0.9329 -1.0162  1.8277
 1782TIP3    H226910   5.065   5.789   7.093 -0.2564  0.3202  1.3111
 1783TIP3   OH226911   2.837   0.617   1.511 -0.0243 -0.1475  0.3352
 1783TIP3    H126912   2.931   0.634   1.521 -0.1657  1.1318 -0.3778
 1783TIP3    H226913   2.826   0.527   1.542  1.9260 -1.4687 -2.4172
 1784TIP3   OH226914   5.533   5.756   2.645  0.3286  0.0213  0.0990
 1784TIP3    H126915   5.604   5.721   2.591 -0.5952 -1.0607 -0.4442
 1784TIP3    H226916   5.546   5.715   2.731  0.2953 -0.2712 -0.0342
 1785TIP3   OH226917   4.564   5.562   0.609  0.3300  0.3850  0.0966
 1785TIP3    H126918   4.486   5.600   0.569 -1.0142 -2.0291  0.2427
 1785TIP3    H226919   4.629   5.562   0.539 -0.3837  0.7412 -0.5806
 1786TIP3   OH226920   3.600   3.402   1.126 -0.0404  0.1490 -0.5476
 1786TIP3    H126921   3.652   3.480   1.108 -0.8026  0.9836  0.7397
 1786TIP3    H226922   3.509   3.433   1.125 -0.4672 -1.0327 -1.5229
 1787TIP3   OH226923   2.741   3.732   0.817 -0.0283 -0.1664 -0.0754
 1787TIP3    H126924   2.828   3.746   0.780 -0.1591 -0.5373 -0.5358
 1787TIP3    H226925   2.698   3.817   0.810 -0.4909 -0.5120 -1.9618
 1788TIP3   OH226926   1.289   0.559   8.057  0.1538  0.1981 -0.0147
 1788TIP3    H126927   1.264   0.505   7.982 -0.2546 -0.5060  0.6129
 1788TIP3    H226928   1.279   0.649   8.026 -0.6283 -0.0811 -0.6135
 1789TIP3   OH226929   0.206   2.337   8.097  0.2075 -0.4646 -0.4092
 1789TIP3    H126930   0.172   2.247   8.098  0.4568 -0.5593 -0.1189
 1789TIP3    H226931   0.273   2.337   8.166 -0.5746  0.2502  0.3767
 1790TIP3   OH226932   0.224   3.054   7.531 -0.7570 -0.1845 -0.6329
 1790TIP3    H126933   0.286   3.012   7.591  0.3370 -0.5669 -1.9847
 1790TIP3    H226934   0.277   3.119   7.484 -2.3725  2.7954  1.3483
 1791TIP3   OH226935   5.591   2.376   8.510 -0.4670  0.1553  0.2059
 1791TIP3    H126936   5.671   2.359   8.561 -0.6042 -0.3060  0.2720
 1791TIP3    H226937   5.569   2.291   8.473 -1.1942  0.1802  0.5688
 1792TIP3   OH226938   5.167   5.192   6.822 -0.3652 -0.1089  0.4035
 1792TIP3    H126939   5.196   5.176   6.911 -0.5653 -0.1856  0.4548
 1792TIP3    H226940   5.248   5.200   6.771 -0.2321  0.6758  0.7200
 1793TIP3   OH226941   0.713   2.262   0.714 -0.0592 -0.1543  0.4954
 1793TIP3    H126942   0.645   2.205   0.750 -2.0837  1.1303 -1.0541
 1793TIP3    H226943   0.674   2.350   0.715  2.6770  1.1744  2.1374
 1794TIP3   OH226944   6.130   0.309   1.702 -0.1282 -0.0714  0.1140
 1794TIP3    H126945   6.136   0.272   1.790  2.7198 -3.1783 -1.1508
 1794TIP3    H226946   6.045   0.278   1.670 -0.7007  0.1389  1.3575
 1795TIP3   OH226947   0.082   1.253   7.042  0.2022  0.0010  0.3184
 1795TIP3    H126948   0.139   1.257   7.119  0.9107 -0.3825 -0.1737
 1795TIP3    H226949   0.074   1.345   7.013  1.3038 -0.0310 -0.1227
 1796TIP3   OH226950   1.646   4.851   1.052  0.8524  0.6585  0.2262
 1796TIP3    H126951   1.694   4.933   1.064  2.4676 -0.3754  0.9818
 1796TIP3    H226952   1.598   4.839   1.134  2.1809 -0.1481  0.8964
 1797TIP3   OH226953   3.954   0.974   6.859 -0.1604  0.4994 -0.2790
 1797TIP3    H126954   4.006   1.047   6.893  0.6452 -0.8335  1.5194
 1797TIP3    H226955   4.014   0.899   6.861 -1.8397 -0.8998  0.9595
 1798TIP3   OH226956   6.296   5.905   1.114  0.0163  0.5631 -0.0917
 1798TIP3    H126957   6.369   5.846   1.096 -1.1178 -0.9928  0.2432
 1798TIP3    H226958   6.290   5.961   1.036  0.7059 -0.1990 -0.7065
 1799TIP3   OH226959   5.910   5.681   1.224  0.4846  0.0598 -0.8238
 1799TIP3    H126960   5.815   5.680   1.216  0.6130  0.3699 -2.8421
 1799TIP3    H226961   5.936   5.767   1.190  1.4561  0.2903  0.4306
 1800TIP3   OH226962   5.369   4.518   1.536  0.1687 -0.3923 -0.3014
 1800TIP3    H126963   5.426   4.592   1.553  0.0992 -0.4121  0.0403
 1800TIP3    H226964   5.394   4.453   1.602 -0.5582 -0.2209  0.1686
 1801TIP3   OH226965   4.558   0.027   7.963  0.2196  0.0420  0.0730
 1801TIP3    H126966   4.485   0.037   8.025 -1.2404  0.0777 -1.5709
 1801TIP3    H226967   4.587  -0.063   7.975  1.2372  0.5523  2.0651
 1802TIP3   OH226968   5.251   6.415   1.241  0.0630  0.3872 -0.5101
 1802TIP3    H126969   5.253   6.350   1.311  0.4173  0.7760 -0.1479
 1802TIP3    H226970   5.295   6.492   1.279  0.0406  0.6847 -1.0761
 1803TIP3   OH226971   1.171   5.246   8.435 -0.1273  0.0152  0.3557
 1803TIP3    H126972   1.240   5.285   8.382 -0.5975  0.4383  0.0391
 1803TIP3    H226973   1.184   5.152   8.427 -0.2307  0.0763 -0.5732
 1804TIP3   OH226974   1.266   5.808   1.995 -0.2591 -0.3140  0.8863
 1804TIP3    H126975   1.179   5.847   1.986 -0.1951 -0.1840  0.8205
 1804TIP3    H226976   1.250   5.722   2.033 -0.5721 -0.9528 -0.6081
 1805TIP3   OH226977   1.074   4.136   7.446 -0.4460  0.1181  0.4066
 1805TIP3    H126978   1.146   4.157   7.504  0.3340 -0.3626 -0.3587
 1805TIP3    H226979   1.083   4.197   7.373  1.3212 -2.1324 -1.4055
 1806TIP3   OH226980   1.623   6.436   8.465  0.0385  0.5435 -0.2135
 1806TIP3    H126981   1.667   6.352   8.459  0.8511  0.9600 -0.1199
 1806TIP3    H226982   1.673   6.486   8.530 -0.0014  1.3549 -0.7884
 1807TIP3   OH226983   2.625   6.285   0.347 -0.1376 -0.4022  0.8745
 1807TIP3    H126984   2.687   6.358   0.343  0.3097 -0.7367  1.4809
 1807TIP3    H226985   2.608   6.263   0.255  0.4524 -0.1424  0.6980
 1808TIP3   OH226986   4.689   0.057   0.626  0.5438 -0.4723 -0.0226
 1808TIP3    H126987   4.707  -0.037   0.636 -0.7165 -0.8249 -0.8686
 1808TIP3    H226988   4.606   0.071   0.671 -0.6626 -0.3378 -2.1640
 1809TIP3   OH226989   5.373   0.364   1.697  0.6352 -0.3584 -0.3299
 1809TIP3    H126990   5.452   0.380   1.749  0.2235  1.5212 -0.2140
 1809TIP3    H226991   5.336   0.451   1.682 -1.3619 -1.1774 -0.4790
 1810TIP3   OH226992   4.187   2.615   0.844  0.0490  0.8371 -0.5442
 1810TIP3    H126993   4.221   2.546   0.901  0.5198  0.7985 -0.8586
 1810TIP3    H226994   4.162   2.685   0.904 -1.1454  0.1083 -0.1695
 1811TIP3   OH226995   2.750   6.614   6.880  0.2705  0.7761  0.2092
 1811TIP3    H126996   2.769   6.675   6.951 -0.2265  0.2899  0.7821
 1811TIP3    H226997   2.685   6.659   6.826 -0.4910  0.5681  0.9221
 1812TIP3   OH226998   5.582   0.362   7.299 -0.0341  0.1941  0.0554
 1812TIP3    H126999   5.522   0.372   7.224 -0.8893 -1.6101  0.4452
 1812TIP3    H227000   5.560   0.434   7.357 -0.5212  0.6459 -0.6736
 1813TIP3   OH227001   2.369   2.463   1.011  0.1867  0.0809  0.4099
 1813TIP3    H127002   2.390   2.385   1.062  1.6265 -0.7092 -1.2944
 1813TIP3    H227003   2.277   2.451   0.986  0.7075 -1.7092 -0.8372
 1814TIP3   OH227004   1.104   4.048   7.981  0.6275  0.4543  0.2588
 1814TIP3    H127005   1.063   4.109   7.920  0.6408  0.8339  0.6249
 1814TIP3    H227006   1.089   3.961   7.943  1.4547  0.7398 -0.7638
 1815TIP3   OH227007   1.413   5.591   7.088  0.4149  0.3887  0.0245
 1815TIP3    H127008   1.460   5.609   7.006  1.0223 -0.3572  0.1904
 1815TIP3    H227009   1.345   5.529   7.063  0.4356  0.3612  0.0359
 1816TIP3   OH227010   2.293   3.219   6.708  0.6103 -0.2303 -0.5465
 1816TIP3    H127011   2.296   3.314   6.699 -0.4303 -0.2072 -0.7444
 1816TIP3    H227012   2.211   3.193   6.668  0.4674 -1.1251  0.2696
 1817TIP3   OH227013   5.670   3.134   8.006  0.1396  0.0698  0.0183
 1817TIP3    H127014   5.654   3.204   7.942  0.1420 -1.5614 -1.8585
 1817TIP3    H227015   5.591   3.081   8.003  0.5705 -0.6140  0.6034
 1818TIP3   OH227016   4.115   2.722   0.449  0.0239  0.0774 -0.1349
 1818TIP3    H127017   4.027   2.690   0.466  0.1634 -0.2968 -0.1226
 1818TIP3    H227018   4.124   2.719   0.354  0.7702 -1.9035 -0.0523
 1819TIP3   OH227019   2.899   3.754   7.180  0.2653  0.0858  0.5504
 1819TIP3    H127020   2.893   3.660   7.197  0.4038  0.0263  0.2880
 1819TIP3    H227021   2.839   3.769   7.107 -0.9129  0.4719  1.5718
 1820TIP3   OH227022   5.448   6.341   0.720  0.0816 -0.2009 -0.7627
 1820TIP3    H127023   5.362   6.307   0.692 -0.1592 -1.5248  1.3599
 1820TIP3    H227024   5.441   6.350   0.815  2.7323 -1.7471 -0.3147
 1821TIP3   OH227025   2.496   3.403   8.373 -0.3400 -0.5736 -0.4639
 1821TIP3    H127026   2.550   3.416   8.451 -0.1807  3.3072 -1.0252
 1821TIP3    H227027   2.557   3.405   8.300 -0.7124 -2.1645 -0.8618
 1822TIP3   OH227028   3.404   6.380   2.316  0.0892 -0.5638 -0.4482
 1822TIP3    H127029   3.322   6.333   2.333 -1.6119  1.7488 -1.5323
 1822TIP3    H227030   3.390   6.467   2.355  1.1270  0.5968 -2.4955
 1823TIP3   OH227031   6.780   3.929   0.993  0.4381 -0.4247  0.2569
 1823TIP3    H127032   6.749   3.886   0.914 -0.3845 -0.4656  0.5985
 1823TIP3    H227033   6.834   3.863   1.037 -2.0627 -1.7154  1.5636
 1824TIP3   OH227034   4.261   6.327   0.021  0.3056 -0.3184  0.6066
 1824TIP3    H127035   4.353   6.337   0.042  0.0065 -1.7042  2.8568
 1824TIP3    H227036   4.222   6.288   0.099 -1.5942 -2.7552 -1.3972
 1825TIP3   OH227037   1.132   3.476   0.089 -0.3563 -0.2712  0.2894
 1825TIP3    H127038   1.161   3.388   0.113  0.5193  0.4509  2.0938
 1825TIP3    H227039   1.208   3.532   0.107 -1.6564  1.1710  1.5745
 1826TIP3   OH227040   4.400   0.069   0.267 -0.4740 -0.0683 -0.0267
 1826TIP3    H127041   4.469   0.135   0.256 -0.5112  0.0113  0.2059
 1826TIP3    H227042   4.319   0.115   0.245 -0.5490  0.0929  0.5732
 1827TIP3   OH227043   3.600   0.954   1.461  0.6154 -0.2889  0.4339
 1827TIP3    H127044   3.671   0.898   1.494 -0.3229 -0.0029  3.1805
 1827TIP3    H227045   3.520   0.905   1.481 -0.0562 -0.1680 -1.7364
 1828TIP3   OH227046   0.922   1.403   1.569  0.1818  0.0696 -0.0194
 1828TIP3    H127047   0.908   1.337   1.502 -2.4141  0.6518 -0.1428
 1828TIP3    H227048   0.907   1.358   1.652  3.2776 -0.6211  0.3017
 1829TIP3   OH227049   6.503   5.299   0.459  0.2419 -0.4777 -0.1978
 1829TIP3    H127050   6.519   5.205   0.465 -0.1409 -0.5443 -0.1665
 1829TIP3    H227051   6.583   5.335   0.422  0.6360 -0.7365  0.3860
 1830TIP3   OH227052   6.052   6.380   2.148  0.4969  0.1313 -0.0486
 1830TIP3    H127053   6.051   6.474   2.128  1.2402  0.7735  2.5685
 1830TIP3    H227054   5.986   6.369   2.216 -0.0670 -1.4060 -0.8075
 1831TIP3   OH227055   1.305   3.170   7.018 -0.6585 -0.1803  0.2200
 1831TIP3    H127056   1.323   3.090   7.067 -0.1352 -0.5507 -0.5397
 1831TIP3    H227057   1.336   3.241   7.074 -1.6871 -0.4579  1.1611
 1832TIP3   OH227058   0.281   4.610   0.913  0.4121 -0.0904  0.1986
 1832TIP3    H127059   0.250   4.607   0.823  1.2593  0.8934 -0.1444
 1832TIP3    H227060   0.233   4.684   0.952 -0.0034 -0.5554  0.5809
 1833TIP3   OH227061   4.514   5.544   1.302  0.0978 -0.1296  0.2320
 1833TIP3    H127062   4.548   5.508   1.384 -1.2467 -4.2041 -0.7770
 1833TIP3    H227063   4.567   5.502   1.234 -1.3963  0.0288 -1.0867
 1834TIP3   OH227064   4.346   0.252   7.280 -0.2943 -0.6130  0.3975
 1834TIP3    H127065   4.393   0.217   7.204  0.7093 -3.5552  2.1979
 1834TIP3    H227066   4.401   0.325   7.310 -0.5288  0.3718 -1.4217
 1835TIP3   OH227067   2.196   4.889   8.540 -0.0412 -0.3770 -0.1204
 1835TIP3    H127068   2.136   4.963   8.552 -0.1301 -0.7299  1.9779
 1835TIP3    H227069   2.278   4.930   8.514 -0.3178  0.4111  0.1911
 1836TIP3   OH227070   2.604   3.333   7.962  0.1236  0.2699 -0.7057
 1836TIP3    H127071   2.582   3.415   8.006 -0.6416  0.3050 -1.1417
 1836TIP3    H227072   2.567   3.265   8.019  2.3258  0.0725  0.6400
 1837TIP3   OH227073   0.487   4.091   6.964  0.3388 -0.3499  0.1941
 1837TIP3    H127074   0.497   4.166   6.906 -0.8189 -1.0209 -0.9422
 1837TIP3    H227075   0.538   4.113   7.042  2.6362  0.2591 -1.3769
 1838TIP3   OH227076   3.547   5.597   7.787 -0.0453 -0.0947 -0.2043
 1838TIP3    H127077   3.495   5.522   7.757 -1.1976  1.2606 -1.8114
 1838TIP3    H227078   3.508   5.672   7.743  3.4238  1.0297 -1.7240
 1839TIP3   OH227079   2.253   3.272   7.130 -0.2277  0.1631  0.0190
 1839TIP3    H127080   2.321   3.225   7.177 -1.4106 -1.4391  0.2300
 1839TIP3    H227081   2.216   3.207   7.070 -0.6465  1.3775 -1.1010
 1840TIP3   OH227082   5.964   6.473   0.345 -0.1897 -0.2791 -0.3553
 1840TIP3    H127083   6.037   6.466   0.407 -0.8289  1.8268  0.7461
 1840TIP3    H227084   6.004   6.502   0.263  0.1931  1.8245  0.5088
 1841TIP3   OH227085   1.645   0.604   6.883 -0.2970  0.1335 -0.6754
 1841TIP3    H127086   1.710   0.637   6.820  0.7380 -0.9519 -0.2100
 1841TIP3    H227087   1.596   0.682   6.908  1.7677  1.2951  0.0290
 1842TIP3   OH227088   1.252   6.419   0.264  0.2043 -0.3088 -0.4530
 1842TIP3    H127089   1.318   6.488   0.255  0.8399 -0.7340  0.7188
 1842TIP3    H227090   1.206   6.440   0.345 -1.2504  0.0793 -1.3442
 1843TIP3   OH227091   3.267   0.537   8.535  0.4278 -0.1578 -0.2103
 1843TIP3    H127092   3.179   0.563   8.509  1.3388  1.7436 -1.6261
 1843TIP3    H227093   3.300   0.486   8.461  1.0893  0.5345 -0.3966
 1844TIP3   OH227094   0.453   2.287   0.251 -0.0044 -0.3534 -0.0694
 1844TIP3    H127095   0.509   2.211   0.236  0.9781  0.3008  0.1605
 1844TIP3    H227096   0.365   2.257   0.228  0.2621 -1.7261  0.5746
 1845TIP3   OH227097   0.425   6.636   0.763 -0.3524  0.3578 -0.3540
 1845TIP3    H127098   0.339   6.623   0.802  0.2984  0.3445  1.1536
 1845TIP3    H227099   0.423   6.585   0.682 -0.6802 -2.3437  1.2577
 1846TIP3   OH227100   6.066   5.540   0.010 -0.0272 -0.3304  0.3209
 1846TIP3    H127101   6.073   5.632   0.035 -1.3981 -0.0272 -0.2712
 1846TIP3    H227102   6.079   5.540  -0.085 -1.8706 -0.4506  0.0285
 1847TIP3   OH227103   0.787   0.141   0.546 -0.0913  0.6488  0.1229
 1847TIP3    H127104   0.855   0.090   0.589 -1.0529 -1.1510 -0.3757
 1847TIP3    H227105   0.835   0.204   0.491  1.1296  0.5110  0.9891
 1848TIP3   OH227106   5.515   5.963   7.503  0.4681 -0.2428 -0.0241
 1848TIP3    H127107   5.598   5.998   7.535 -0.1165 -0.1363  1.4490
 1848TIP3    H227108   5.510   5.875   7.538 -1.6960  0.9843  3.2169
 1849TIP3   OH227109   3.305   4.422   8.141  0.1980 -0.7893  0.8478
 1849TIP3    H127110   3.249   4.421   8.219  0.1892  1.2829  0.9385
 1849TIP3    H227111   3.388   4.460   8.172 -0.1745  1.1237 -0.2968
 1850TIP3   OH227112   4.561   5.915   1.425  0.2921  0.5125  0.0718
 1850TIP3    H127113   4.640   5.880   1.384 -0.6425 -1.8601  0.1546
 1850TIP3    H227114   4.561   5.880   1.513 -0.6150  0.8646  0.2323
 1851TIP3   OH227115   3.507   5.894   7.943 -0.1945  0.2391 -0.3009
 1851TIP3    H127116   3.578   5.839   7.909 -1.2260 -0.1014 -2.0450
 1851TIP3    H227117   3.509   5.880   8.037  0.4428 -1.7658 -0.5509
 1852TIP3   OH227118   3.496   5.026   7.449  0.0767 -0.2641  0.0516
 1852TIP3    H127119   3.573   5.031   7.391 -0.7866  1.0888 -1.0347
 1852TIP3    H227120   3.531   4.996   7.533  2.0521  1.7421  0.0280
 1853TIP3   OH227121   2.609   0.133   8.767  0.0917 -0.0684 -0.3003
 1853TIP3    H127122   2.558   0.213   8.785  1.1509  0.3561  0.9872
 1853TIP3    H227123   2.696   0.153   8.800  0.8046 -1.1921 -1.4604
 1854TIP3   OH227124   0.606   1.230   7.860 -0.3716 -0.1223  0.4810
 1854TIP3    H127125   0.547   1.194   7.926 -0.7049 -0.3253  0.0815
 1854TIP3    H227126   0.683   1.173   7.862 -0.0764  0.2928  1.1799
 1855TIP3   OH227127   6.319   2.207   6.458  0.5699  0.3417 -0.0770
 1855TIP3    H127128   6.329   2.152   6.536 -0.5857  1.2849  0.7789
 1855TIP3    H227129   6.320   2.145   6.385  0.1603 -0.7318  0.7969
 1856TIP3   OH227130   2.464   1.785   1.087  0.1673 -0.4295  0.3724
 1856TIP3    H127131   2.423   1.807   1.004  0.2820 -1.7031 -0.0484
 1856TIP3    H227132   2.450   1.862   1.142 -0.4855  0.1749 -0.6070
 1857TIP3   OH227133   5.992   0.574   1.505 -0.0214 -0.2678 -0.3693
 1857TIP3    H127134   5.969   0.637   1.437  0.8690 -1.0004 -1.3947
 1857TIP3    H227135   5.909   0.554   1.549 -0.4637  0.8937 -0.6448
 1858TIP3   OH227136   1.115   4.994   2.191  0.0670 -0.3489  0.2400
 1858TIP3    H127137   1.074   4.960   2.112  0.9315  0.2361 -0.4750
 1858TIP3    H227138   1.199   4.949   2.196 -0.3281 -1.0234  1.3150
 1859TIP3   OH227139   1.025   4.681   8.551  0.5349  0.3088 -0.5146
 1859TIP3    H127140   1.088   4.610   8.544  0.6822  0.3897 -0.0039
 1859TIP3    H227141   1.004   4.686   8.644  0.4638  0.8812 -0.5576
 1860TIP3   OH227142   4.649   5.988   7.947  0.1703  0.0345  1.0531
 1860TIP3    H127143   4.724   6.026   7.901  1.0082  0.2185  2.5232
 1860TIP3    H227144   4.678   5.901   7.974 -0.2224  0.0163  1.4300
 1861TIP3   OH227145   3.112   3.806   7.732  0.2365 -0.3278  0.0920
 1861TIP3    H127146   3.070   3.780   7.650 -1.2758 -1.2273  1.1030
 1861TIP3    H227147   3.198   3.763   7.731 -0.1089 -0.9993 -0.6414
 1862TIP3   OH227148   4.096   3.378   1.143 -0.1401  0.4553 -0.4714
 1862TIP3    H127149   4.038   3.304   1.164  0.5110 -0.1070 -0.6154
 1862TIP3    H227150   4.085   3.439   1.215 -0.7367  0.2482 -0.3809
 1863TIP3   OH227151   6.067   2.214   1.696 -0.0223  0.0538  0.5163
 1863TIP3    H127152   6.038   2.274   1.764  0.9096 -1.3915  2.2784
 1863TIP3    H227153   6.160   2.199   1.715  0.2786 -0.3729 -1.1081
 1864TIP3   OH227154   3.767   1.126   8.031 -0.0253  0.2675 -0.0314
 1864TIP3    H127155   3.821   1.193   8.072 -0.8975  0.7952  0.2772
 1864TIP3    H227156   3.794   1.125   7.939 -1.1934  2.2827 -0.4464
 1865TIP3   OH227157   6.071   5.511   8.501 -0.2599 -0.0277  0.3739
 1865TIP3    H127158   6.031   5.497   8.416 -0.1692 -0.6924  0.4327
 1865TIP3    H227159   6.130   5.585   8.488  0.7353 -0.9296 -0.4915
 1866TIP3   OH227160   1.991   2.095   0.733 -0.4526 -0.2381 -0.7788
 1866TIP3    H127161   1.912   2.051   0.702 -0.5557 -0.8032  0.2477
 1866TIP3    H227162   1.995   2.075   0.826 -0.0661  1.2882 -0.4454
 1867TIP3   OH227163   0.063   2.686   8.818  0.1144 -0.1015  0.1567
 1867TIP3    H127164   0.073   2.607   8.872  2.3847 -1.8908 -2.5876
 1867TIP3    H227165  -0.003   2.662   8.753 -0.6338  1.0267  0.4739
 1868TIP3   OH227166   5.305   0.264   1.459 -0.2075 -0.0593  0.5325
 1868TIP3    H127167   5.252   0.328   1.411 -0.8220 -1.1960 -0.4018
 1868TIP3    H227168   5.319   0.303   1.545 -1.1677  1.0093  0.2343
 1869TIP3   OH227169   2.223   3.836   1.525  0.4699  0.2057 -0.2195
 1869TIP3    H127170   2.238   3.747   1.493  0.4991  0.9043 -2.3518
 1869TIP3    H227171   2.297   3.854   1.583  0.0058 -1.4272  0.9575
 1870TIP3   OH227172   5.825   3.871   8.483 -0.3909 -0.1467 -0.5591
 1870TIP3    H127173   5.802   3.945   8.427  0.6679  0.0717 -0.7222
 1870TIP3    H227174   5.758   3.872   8.552 -0.6994  0.6253 -0.8540
 1871TIP3   OH227175   5.330   3.475   7.348  0.2126  0.1881 -0.0859
 1871TIP3    H127176   5.340   3.561   7.389  0.5240  0.1024  0.0247
 1871TIP3    H227177   5.275   3.426   7.407 -0.9595  0.6918 -0.7304
 1872TIP3   OH227178   3.227   0.095   0.047 -0.1256  0.2248  0.0012
 1872TIP3    H127179   3.203   0.157   0.115 -1.0335 -0.6140  0.4681
 1872TIP3    H227180   3.313   0.063   0.072  0.3322  1.2496 -0.2243
 1873TIP3   OH227181   5.783   1.242   0.799 -0.1235 -0.3704  0.6383
 1873TIP3    H127182   5.736   1.214   0.877  1.5385 -0.7598  1.5549
 1873TIP3    H227183   5.834   1.165   0.773  0.6532  0.2777  0.2000
 1874TIP3   OH227184   0.655   4.961   7.548  0.0627 -0.2087  0.7156
 1874TIP3    H127185   0.702   4.978   7.630 -0.0599 -0.8841  0.9312
 1874TIP3    H227186   0.720   4.920   7.492  0.4777  1.2811  0.0453
 1875TIP3   OH227187   2.500   0.966   1.901  0.7152 -0.7466  0.3319
 1875TIP3    H127188   2.429   0.928   1.952 -0.0618 -0.8442 -0.7752
 1875TIP3    H227189   2.489   1.061   1.910  0.2428 -0.7583 -0.0904
 1876TIP3   OH227190   4.379   2.492   1.984  0.1816  0.0630  0.1626
 1876TIP3    H127191   4.470   2.462   1.988 -0.1192 -1.0013 -0.5017
 1876TIP3    H227192   4.328   2.417   2.015 -0.4628  0.7378  0.7520
 1877TIP3   OH227193   0.850   5.713   8.348 -0.0491 -0.2188 -0.0939
 1877TIP3    H127194   0.922   5.658   8.318 -0.1847 -0.1080 -0.6394
 1877TIP3    H227195   0.845   5.698   8.442  1.7430  0.9961  0.2367
 1878TIP3   OH227196   5.567   4.014   1.215 -0.1784 -0.0784 -0.0822
 1878TIP3    H127197   5.515   4.063   1.151 -2.0785 -0.1052  1.3530
 1878TIP3    H227198   5.543   4.053   1.299 -0.6219 -2.4437  0.9657
 1879TIP3   OH227199   2.423   5.907   1.013 -0.3885  0.1609  0.1724
 1879TIP3    H127200   2.365   5.967   0.966 -1.6190 -0.3987  0.9486
 1879TIP3    H227201   2.510   5.930   0.981 -0.9666  1.3547 -0.6515
 1880TIP3   OH227202   5.004   5.742   0.996  0.2436  0.1616  0.2714
 1880TIP3    H127203   4.944   5.668   0.988  0.4693  0.0897 -0.8993
 1880TIP3    H227204   4.968   5.809   0.937  1.4835 -0.0166 -0.7315
 1881TIP3   OH227205   3.307   2.797   8.760  0.6710  0.1549 -0.4575
 1881TIP3    H127206   3.270   2.715   8.791  1.1114  0.4881  1.0098
 1881TIP3    H227207   3.334   2.844   8.839  1.4608  1.2279 -1.3168
 1882TIP3   OH227208   4.648   2.404   7.525  0.7395 -0.3590 -0.3461
 1882TIP3    H127209   4.740   2.408   7.499  1.0900 -1.8773  0.5605
 1882TIP3    H227210   4.613   2.491   7.502  2.6046  0.5634  0.0945
 1883TIP3   OH227211   0.565   6.797   8.709  0.0673  0.0735  0.4248
 1883TIP3    H127212   0.634   6.779   8.645 -0.5174 -0.4744 -0.0755
 1883TIP3    H227213   0.602   6.864   8.766  0.5455  0.7021 -0.5833
 1884TIP3   OH227214   5.901   4.937   6.536  0.0215 -0.2462 -0.4968
 1884TIP3    H127215   5.828   4.877   6.551  1.6459 -2.1918  0.0730
 1884TIP3    H227216   5.860   5.023   6.531 -2.3386 -1.2856 -0.5602
 1885TIP3   OH227217   0.791   5.844   0.761 -0.0458 -0.3213  0.3151
 1885TIP3    H127218   0.760   5.820   0.673 -2.4504 -0.0615  1.0093
 1885TIP3    H227219   0.797   5.940   0.758 -1.9206 -0.1392  0.8921
 1886TIP3   OH227220   4.679   4.008   0.845  0.0271 -0.3247 -0.1277
 1886TIP3    H127221   4.733   3.988   0.922 -0.5181 -0.6638  0.1739
 1886TIP3    H227222   4.657   4.101   0.855  0.0724 -0.3329  0.0506
 1887TIP3   OH227223   0.070   3.898   1.405  0.0177  0.3244 -0.9364
 1887TIP3    H127224  -0.020   3.867   1.417 -2.1511  5.0759 -2.4774
 1887TIP3    H227225   0.090   3.877   1.314 -0.0772  0.4389 -0.9840
 1888TIP3   OH227226   2.282   3.939   7.546 -0.2487  0.5379 -0.2733
 1888TIP3    H127227   2.322   3.875   7.605 -2.3151  0.2809  0.9528
 1888TIP3    H227228   2.342   4.014   7.547  0.8959 -0.3477  0.3218
 1889TIP3   OH227229   3.265   1.758   0.611  0.1632  0.0038  0.4166
 1889TIP3    H127230   3.345   1.805   0.586  1.4413 -2.6017 -0.7907
 1889TIP3    H227231   3.297   1.679   0.655 -1.6389 -1.8701 -1.4315
 1890TIP3   OH227232   1.036   1.696   1.551  0.4951 -0.6303  0.4605
 1890TIP3    H127233   1.101   1.748   1.503 -0.6026 -0.4234 -0.8766
 1890TIP3    H227234   0.989   1.648   1.482 -1.5271  0.1148  1.2480
 1891TIP3   OH227235   6.772   0.272   7.333  0.1169  0.3880  0.3591
 1891TIP3    H127236   6.686   0.265   7.291  0.5512  1.6863 -0.8143
 1891TIP3    H227237   6.823   0.202   7.293 -1.3473 -3.0609  3.8359
 1892TIP3   OH227238   3.526   0.286   0.873 -0.1595 -0.1262  0.0751
 1892TIP3    H127239   3.515   0.213   0.812 -0.9356 -1.2845  1.5431
 1892TIP3    H227240   3.569   0.248   0.949  0.9878  1.3374  0.1919
 1893TIP3   OH227241   2.077   2.476   7.665  0.0714  0.2552 -0.4619
 1893TIP3    H127242   2.098   2.412   7.733 -2.6238 -0.0515  0.1902
 1893TIP3    H227243   2.127   2.447   7.588 -0.6846 -2.3986 -0.0651
 1894TIP3   OH227244   0.687   1.980   0.530  0.4091  0.7915 -0.4379
 1894TIP3    H127245   0.711   2.072   0.525  1.4488  0.5806  0.3143
 1894TIP3    H227246   0.657   1.967   0.620  1.0544  0.2302 -0.2932
 1895TIP3   OH227247   6.721   2.367   0.367  0.4201 -0.4834  0.1119
 1895TIP3    H127248   6.790   2.421   0.327  0.3506 -1.2001 -1.0003
 1895TIP3    H227249   6.712   2.292   0.309 -1.5885 -0.2211  0.0154
 1896TIP3   OH227250   6.544   3.283   7.637 -0.1418 -0.1261  0.0387
 1896TIP3    H127251   6.459   3.300   7.678 -0.3311 -0.4970 -0.1884
 1896TIP3    H227252   6.532   3.309   7.546 -0.0905 -0.4167 -0.0520
 1897TIP3   OH227253   4.488   1.054   7.739  0.4289  0.1146  0.3537
 1897TIP3    H127254   4.418   1.001   7.778  0.4926 -2.2182 -2.4077
 1897TIP3    H227255   4.455   1.144   7.745 -1.3701 -0.5688  1.9209
 1898TIP3   OH227256   0.579   6.408   0.480 -0.4184 -0.3558 -0.0019
 1898TIP3    H127257   0.516   6.382   0.547  0.1410 -1.3333  0.1604
 1898TIP3    H227258   0.573   6.340   0.413  0.7722 -0.7206  0.2343
 1899TIP3   OH227259   5.658   4.736   7.261 -0.2803  0.2638  0.8401
 1899TIP3    H127260   5.633   4.720   7.352  0.1755  0.9012  1.0872
 1899TIP3    H227261   5.721   4.667   7.240 -1.1591 -0.5049  0.6652
 1900TIP3   OH227262   6.803   6.376   7.365 -0.0837  0.0237  0.4161
 1900TIP3    H127263   6.757   6.357   7.446 -1.3971  0.8561 -0.1053
 1900TIP3    H227264   6.894   6.386   7.391 -0.4809  0.2819  1.7920
 1901TIP3   OH227265   1.355   6.245   0.828 -0.4185  0.1404  0.1755
 1901TIP3    H127266   1.358   6.294   0.746  1.9498  0.9549  0.6451
 1901TIP3    H227267   1.419   6.174   0.816 -1.0935 -0.6035  0.8299
 1902TIP3   OH227268   4.017   5.169   8.642  0.6640 -0.0508  0.6359
 1902TIP3    H127269   4.064   5.097   8.601  1.2344 -0.1893  1.5079
 1902TIP3    H227270   3.959   5.202   8.573  0.6616 -1.0992  0.1143
 1903TIP3   OH227271   6.100   2.965   7.197  0.1635 -0.0754  0.2974
 1903TIP3    H127272   6.137   3.023   7.130  0.8558  0.1636  0.8702
 1903TIP3    H227273   6.172   2.905   7.219 -0.8031 -1.7714 -0.9208
 1904TIP3   OH227274   3.855   1.391   1.383 -0.0004  0.0900 -0.1922
 1904TIP3    H127275   3.813   1.337   1.450  0.8641 -0.5779 -0.1678
 1904TIP3    H227276   3.932   1.429   1.427 -0.2148  0.7963 -0.4070
 1905TIP3   OH227277   4.577   4.856   0.248  0.3219 -0.0862  0.3199
 1905TIP3    H127278   4.557   4.801   0.324 -1.7594  2.0573  1.4404
 1905TIP3    H227279   4.498   4.851   0.194  0.0345  1.8368  0.5161
 1906TIP3   OH227280   4.858   2.085   7.225 -0.8349  0.5533 -0.0229
 1906TIP3    H127281   4.883   2.081   7.133 -0.4534 -0.4918  0.1057
 1906TIP3    H227282   4.900   2.008   7.264 -1.4720  0.6614  0.9051
 1907TIP3   OH227283   6.352   6.558   0.925 -0.1600  0.0350  0.1012
 1907TIP3    H127284   6.384   6.588   0.840  0.8018 -0.5978  0.2154
 1907TIP3    H227285   6.341   6.464   0.915 -0.9593  0.0875  0.4063
 1908TIP3   OH227286   0.165   4.025   7.238  0.1500  0.2923  0.1001
 1908TIP3    H127287   0.233   4.053   7.299 -0.3963 -0.2563  0.9756
 1908TIP3    H227288   0.187   3.935   7.217 -0.6997 -0.1279  0.9607
 1909TIP3   OH227289   1.686   4.651   7.326  0.2667 -0.4423 -0.4380
 1909TIP3    H127290   1.630   4.646   7.404  1.2923 -1.7497  0.2649
 1909TIP3    H227291   1.626   4.641   7.253 -0.9238  2.2698  0.0606
 1910TIP3   OH227292   1.325   4.157   8.089 -0.1050 -0.3871 -0.6149
 1910TIP3    H127293   1.344   4.104   8.167  0.5017  2.1715  1.0846
 1910TIP3    H227294   1.243   4.121   8.054 -0.0390 -2.0101  0.7830
 1911TIP3   OH227295   2.031   3.507   0.151 -0.0547  0.0960  0.0780
 1911TIP3    H127296   1.999   3.491   0.240 -0.3315 -0.0554 -0.0449
 1911TIP3    H227297   2.003   3.597   0.132 -2.4978 -0.7567 -0.8682
 1912TIP3   OH227298   5.967   1.354   8.477  0.4449  0.8342  0.5112
 1912TIP3    H127299   6.010   1.325   8.558  0.2213 -2.6436 -0.4419
 1912TIP3    H227300   6.039   1.372   8.417  0.5993  1.4073  0.8643
 1913TIP3   OH227301   6.695   5.400   8.179 -0.4311  0.8953 -0.0688
 1913TIP3    H127302   6.665   5.491   8.188 -1.3505  0.5702  0.3747
 1913TIP3    H227303   6.790   5.406   8.177 -0.4869  1.8893 -0.2807
 1914TIP3   OH227304   6.820   1.090   7.253  0.3658  0.1749  0.2379
 1914TIP3    H127305   6.855   1.009   7.217 -0.3244 -0.0807  0.1146
 1914TIP3    H227306   6.803   1.146   7.177 -2.2403 -0.8272 -0.0071
 1915TIP3   OH227307   4.877   3.706   8.407 -0.6762  0.3802  0.2868
 1915TIP3    H127308   4.865   3.793   8.369 -0.2842 -0.1165 -1.0272
 1915TIP3    H227309   4.813   3.651   8.361  0.2561 -0.3676 -0.1561
 1916TIP3   OH227310   0.895   0.572   2.062 -0.0468  0.4388 -0.0814
 1916TIP3    H127311   0.965   0.558   1.998 -0.9109 -1.8767 -0.6461
 1916TIP3    H227312   0.833   0.630   2.017  0.5125  0.8059 -0.3879
 1917TIP3   OH227313   5.829   6.815   6.942 -0.6892  0.4692  0.0410
 1917TIP3    H127314   5.783   6.817   6.857 -0.4358  0.1289 -0.1083
 1917TIP3    H227315   5.843   6.907   6.963 -0.2265  0.5522 -0.5817
 1918TIP3   OH227316   6.066   6.362   8.247  0.2977  0.5701  0.6179
 1918TIP3    H127317   6.107   6.446   8.263  0.0573  0.7061  0.5216
 1918TIP3    H227318   5.994   6.381   8.187 -0.7220  0.5333  1.7879
 1919TIP3   OH227319   0.216   5.620   7.618 -0.2139  0.3161  0.3433
 1919TIP3    H127320   0.303   5.649   7.591 -0.5147  0.3118 -0.6787
 1919TIP3    H227321   0.232   5.536   7.662  0.3465  0.5742  0.6519
 1920TIP3   OH227322   5.131   3.609   0.977 -0.4293  0.2728 -0.0281
 1920TIP3    H127323   5.215   3.651   0.957 -0.0118 -1.1107 -1.2925
 1920TIP3    H227324   5.078   3.679   1.016  1.6979  0.8947  1.9907
 1921TIP3   OH227325   6.324   3.196   7.274  0.4778 -0.1955 -0.0076
 1921TIP3    H127326   6.236   3.230   7.288  0.3001 -0.1662 -1.1452
 1921TIP3    H227327   6.329   3.178   7.180  2.0705  0.8969 -0.1822
 1922TIP3   OH227328   2.445   4.260   8.661  0.0053 -0.0556 -0.3645
 1922TIP3    H127329   2.475   4.169   8.651  1.5140  0.4387 -0.6424
 1922TIP3    H227330   2.367   4.266   8.606  1.0715 -0.6704 -2.0225
 1923TIP3   OH227331   1.039   4.730   0.277  0.0270 -0.5271  0.3896
 1923TIP3    H127332   1.073   4.776   0.353 -1.1377 -0.0307  0.6377
 1923TIP3    H227333   0.952   4.700   0.304 -0.6002  0.0663 -0.8795
 1924TIP3   OH227334   3.339   3.925   2.614 -0.2771 -0.1203  0.1191
 1924TIP3    H127335   3.266   3.863   2.614 -0.7618  0.4385  0.1750
 1924TIP3    H227336   3.365   3.931   2.706  0.3536 -0.9002  0.0034
 1925TIP3   OH227337   4.688   5.440   1.135  0.5551  0.1202 -0.1736
 1925TIP3    H127338   4.694   5.408   1.045 -0.0381  0.9533 -0.5166
 1925TIP3    H227339   4.779   5.446   1.164  0.7976 -4.7144  0.9782
 1926TIP3   OH227340   5.843   6.134   8.249  0.0850 -0.2732  0.4327
 1926TIP3    H127341   5.891   6.201   8.298 -0.6844 -0.3322  1.2944
 1926TIP3    H227342   5.910   6.090   8.196  0.2581  2.9392 -2.2958
 1927TIP3   OH227343   2.048   3.742   0.023  0.2318 -0.0671 -0.2551
 1927TIP3    H127344   2.130   3.730  -0.025  0.1385 -2.3006  0.0217
 1927TIP3    H227345   2.074   3.756   0.114  0.3264 -0.6905 -0.1819
 1928TIP3   OH227346   3.895   5.444   0.688 -0.0052 -0.7091 -0.1590
 1928TIP3    H127347   3.800   5.450   0.688  0.0741  1.4089 -0.1228
 1928TIP3    H227348   3.914   5.352   0.706 -2.0221 -1.0364  0.4864
 1929TIP3   OH227349   0.692   3.356   7.654 -0.0936 -0.3785 -0.2010
 1929TIP3    H127350   0.742   3.388   7.579  2.3365 -0.1647  1.3798
 1929TIP3    H227351   0.746   3.284   7.689 -1.4224 -0.8158  1.0247
 1930TIP3   OH227352   0.592   0.320   6.824 -0.1449 -0.1635  0.0241
 1930TIP3    H127353   0.497   0.311   6.813 -0.2471 -1.7689  1.6632
 1930TIP3    H227354   0.628   0.308   6.736 -1.4683  1.3807 -0.7781
 1931TIP3   OH227355   2.453   6.743   8.687 -0.1608 -0.2420 -0.2781
 1931TIP3    H127356   2.522   6.809   8.701 -0.3422  0.0994 -0.9592
 1931TIP3    H227357   2.421   6.723   8.775  0.6352 -0.2162  0.0234
 1932TIP3   OH227358   2.295   5.070   7.190  0.1769  0.5562  0.5512
 1932TIP3    H127359   2.276   4.999   7.251  0.2250  0.5217  0.5251
 1932TIP3    H227360   2.389   5.084   7.197  0.0245  1.2973  1.3129
 1933TIP3   OH227361   0.676   2.584   6.924  0.2718  0.3058 -0.1768
 1933TIP3    H127362   0.585   2.558   6.940  0.0781  0.3792 -1.0881
 1933TIP3    H227363   0.711   2.515   6.868  1.1545 -0.3446  1.1095
 1934TIP3   OH227364   0.435   2.609   8.173 -0.3550  0.2882  0.2305
 1934TIP3    H127365   0.509   2.581   8.227  1.0100  2.4438 -0.3671
 1934TIP3    H227366   0.361   2.558   8.205  0.9875 -0.5833  2.1594
 1935TIP3   OH227367   5.495   5.408   0.268  0.4928 -0.0045 -0.5848
 1935TIP3    H127368   5.482   5.361   0.351  0.4188  0.2215 -0.4691
 1935TIP3    H227369   5.586   5.437   0.272  0.2039  0.8591 -0.1457
 1936TIP3   OH227370   1.129   1.168   8.724  0.3927  0.2168  0.2667
 1936TIP3    H127371   1.130   1.153   8.630 -1.9837  0.3820  0.1602
 1936TIP3    H227372   1.209   1.126   8.756  1.5770  0.6974 -1.8686
 1937TIP3   OH227373   4.447   5.884   6.847  0.4944 -0.0197 -0.0196
 1937TIP3    H127374   4.395   5.937   6.906  1.2571  0.9754 -0.2105
 1937TIP3    H227375   4.400   5.885   6.764 -0.2334 -0.8631  0.3688
 1938TIP3   OH227376   6.172   3.541   1.789  0.0369  0.0262 -0.1902
 1938TIP3    H127377   6.131   3.559   1.704 -1.4970 -0.2275  0.4485
 1938TIP3    H227378   6.101   3.502   1.841  1.5670 -2.0432  0.4579
 1939TIP3   OH227379   5.469   5.361   6.417  0.0098 -0.1932 -0.1711
 1939TIP3    H127380   5.403   5.337   6.352  0.6253  0.4556 -1.0671
 1939TIP3    H227381   5.544   5.306   6.397  0.4863  0.5717 -0.5377
 1940TIP3   OH227382   0.459   5.740   8.568 -0.2090 -0.1355  0.1285
 1940TIP3    H127383   0.469   5.651   8.601 -0.8237 -0.7194 -1.1935
 1940TIP3    H227384   0.485   5.796   8.641 -0.0019 -1.3931  1.0427
 1941TIP3   OH227385   3.657   1.066   2.092  0.1261 -0.0399  0.2038
 1941TIP3    H127386   3.732   1.078   2.034 -0.5446 -1.1777 -0.9367
 1941TIP3    H227387   3.608   0.994   2.053  0.0807 -1.4160  2.6509
 1942TIP3   OH227388   4.821   0.939   1.692 -0.6667  0.2393  0.1475
 1942TIP3    H127389   4.854   1.023   1.724 -1.5958 -0.2170  2.5262
 1942TIP3    H227390   4.744   0.922   1.746  0.1646 -2.7094  0.5644
 1943TIP3   OH227391   5.037   2.741   1.410  0.5934 -0.3806  0.0518
 1943TIP3    H127392   5.017   2.673   1.474  0.0610 -1.7473 -1.5034
 1943TIP3    H227393   4.955   2.754   1.362  1.3650 -0.4997 -1.3552
 1944TIP3   OH227394   3.998   1.582   0.852  0.0131  0.6833 -0.5094
 1944TIP3    H127395   4.026   1.557   0.764  0.5458  1.3509 -0.5432
 1944TIP3    H227396   3.907   1.609   0.841 -0.8330 -1.8927 -0.3286
 1945TIP3   OH227397   6.549   4.799   1.257 -0.3542  0.0108  0.2388
 1945TIP3    H127398   6.516   4.888   1.241  0.7148  0.2549 -0.7486
 1945TIP3    H227399   6.519   4.749   1.181  0.6044 -0.0166 -0.1373
 1946TIP3   OH227400   4.592   2.231   1.358  0.2643 -0.2122  0.2453
 1946TIP3    H127401   4.538   2.311   1.360 -0.3299 -0.2192 -4.2170
 1946TIP3    H227402   4.681   2.263   1.345  0.0893 -0.2104 -1.0670
 1947TIP3   OH227403   5.670   1.045   7.190 -0.2506 -0.2369  0.0395
 1947TIP3    H127404   5.620   0.967   7.165  0.7541 -0.8624 -0.0831
 1947TIP3    H227405   5.641   1.065   7.279 -0.0477 -1.1370  0.3127
 1948TIP3   OH227406   0.229   6.731   7.724 -0.6026  0.0815  0.1763
 1948TIP3    H127407   0.184   6.753   7.642 -1.0937 -1.0023  0.1432
 1948TIP3    H227408   0.168   6.760   7.793  0.2759  1.9848  0.2051
 1949TIP3   OH227409   4.947   1.929   7.778 -0.3029 -0.6638  0.5123
 1949TIP3    H127410   5.029   1.978   7.775 -0.5378 -0.2458  0.8016
 1949TIP3    H227411   4.880   1.992   7.752 -0.3657 -1.4179 -1.3211
 1950TIP3   OH227412   6.254   0.026   0.989 -0.3200 -0.1496  0.1863
 1950TIP3    H127413   6.237   0.051   0.898  0.3667  1.1911  0.4061
 1950TIP3    H227414   6.279  -0.067   0.984 -1.5149 -0.4406 -0.8302
 1951TIP3   OH227415   0.879   6.677   7.143  0.4541  0.1206 -0.0268
 1951TIP3    H127416   0.901   6.584   7.150  1.5312  0.2499 -1.2899
 1951TIP3    H227417   0.817   6.681   7.070 -0.2650  0.3068  0.5842
 1952TIP3   OH227418   0.805   5.089   1.962 -0.5800  0.1236  0.0697
 1952TIP3    H127419   0.748   5.122   1.892  0.3644  0.3635 -0.6079
 1952TIP3    H227420   0.852   5.166   1.993  0.1841 -0.2492 -0.1407
 1953TIP3   OH227421   0.010   4.067   0.185  0.1173 -0.0743 -0.3793
 1953TIP3    H127422   0.076   4.127   0.218 -0.9920  1.9493 -1.6317
 1953TIP3    H227423  -0.031   4.113   0.112 -0.5349 -2.5488 -1.7086
 1954TIP3   OH227424   5.645   5.289   1.331  0.1345 -0.0045 -0.3984
 1954TIP3    H127425   5.567   5.249   1.371 -0.0413  0.9089  0.2014
 1954TIP3    H227426   5.621   5.302   1.240  0.1846 -1.2128 -0.6086
 1955TIP3   OH227427   3.704   1.614   2.036 -0.2928 -0.5895 -0.2487
 1955TIP3    H127428   3.661   1.642   2.117  0.9319 -1.5688  0.7955
 1955TIP3    H227429   3.796   1.602   2.061  0.3524  0.2153 -2.0873
 1956TIP3   OH227430   5.448   4.425   7.497 -0.2657  0.6409  0.2449
 1956TIP3    H127431   5.385   4.428   7.426  0.6542  1.6105 -0.5636
 1956TIP3    H227432   5.398   4.394   7.572 -1.1013 -1.1253 -0.9718
 1957TIP3   OH227433   2.616   4.862   1.611 -0.9879 -0.4393  0.1170
 1957TIP3    H127434   2.676   4.823   1.676 -2.7924  0.3304  2.3937
 1957TIP3    H227435   2.660   4.943   1.584  0.2782 -1.2919 -0.4724
 1958TIP3   OH227436   5.859   2.607   8.360  0.3556  0.5684  0.1910
 1958TIP3    H127437   5.876   2.694   8.324 -2.2213  1.5622  1.1213
 1958TIP3    H227438   5.764   2.606   8.375  0.7988 -0.9588  3.8090
 1959TIP3   OH227439   5.462   6.117   1.974  0.6334 -0.1015 -0.4954
 1959TIP3    H127440   5.481   6.179   2.045 -0.3750 -0.0335 -0.2763
 1959TIP3    H227441   5.395   6.160   1.922  0.7245 -0.5403 -0.9853
 1960TIP3   OH227442   5.705   3.122   2.500  0.5569  0.2768  0.5458
 1960TIP3    H127443   5.785   3.077   2.530  0.4151 -0.7900 -0.5624
 1960TIP3    H227444   5.635   3.085   2.553  0.6629  0.4530  0.8101
 1961TIP3   OH227445   1.582   2.149   0.658  0.4410  0.0144  0.0508
 1961TIP3    H127446   1.587   2.228   0.604  1.4062 -0.6562 -0.8891
 1961TIP3    H227447   1.610   2.177   0.745 -0.0325  0.8773 -0.0703
 1962TIP3   OH227448   1.628   0.096   7.869 -0.0596 -0.3946 -0.2837
 1962TIP3    H127449   1.576   0.034   7.819  1.2910 -2.1295  0.3709
 1962TIP3    H227450   1.563   0.149   7.917 -1.3030  0.1332 -2.4143
 1963TIP3   OH227451   1.214   4.382   8.203 -0.3678 -0.5085  0.1021
 1963TIP3    H127452   1.213   4.295   8.162 -1.1078  0.0664 -1.1522
 1963TIP3    H227453   1.157   4.435   8.148 -0.4543  0.6125  1.2418
 1964TIP3   OH227454   0.646   3.925   8.787 -0.2866 -0.3584  0.6521
 1964TIP3    H127455   0.664   3.937   8.880  0.9398  0.3233  0.3535
 1964TIP3    H227456   0.699   3.849   8.762  1.5890  1.1048 -0.0426
 1965TIP3   OH227457   5.591   6.299   7.519 -0.1056  0.2769 -0.0243
 1965TIP3    H127458   5.681   6.303   7.486  0.1905  0.4978  0.7939
 1965TIP3    H227459   5.537   6.303   7.440  0.5405  2.2438 -0.4196
 1966TIP3   OH227460   3.189   0.928   7.712  0.4131  0.0613  0.4475
 1966TIP3    H127461   3.264   0.895   7.663  0.1710 -0.1012  0.1844
 1966TIP3    H227462   3.155   0.999   7.658  1.7538  1.7027  1.6407
 1967TIP3   OH227463   3.710   0.074   7.801  0.2087  0.2930 -0.7543
 1967TIP3    H127464   3.797   0.044   7.830  0.6080  1.6468 -0.4602
 1967TIP3    H227465   3.727   0.159   7.760 -0.7661 -0.2107 -2.2790
 1968TIP3   OH227466   4.204   4.216   0.077 -0.1156  0.2383  0.2732
 1968TIP3    H127467   4.233   4.126   0.092 -1.0322 -0.0163  0.5935
 1968TIP3    H227468   4.140   4.233   0.146 -0.8228  0.7313 -0.4748
 1969TIP3   OH227469   2.551   1.631   6.810  0.2686  0.4238 -0.5733
 1969TIP3    H127470   2.562   1.542   6.776 -0.3817  0.1003  0.0251
 1969TIP3    H227471   2.574   1.623   6.903  0.8579  1.0285 -0.6645
 1970TIP3   OH227472   6.569   4.135   0.263 -0.1939  0.1748  0.0510
 1970TIP3    H127473   6.655   4.145   0.223 -1.3030  0.7015 -2.3857
 1970TIP3    H227474   6.586   4.137   0.357  2.4096  0.5340 -0.3514
 1971TIP3   OH227475   1.209   2.156   1.334  0.1240 -0.2910  0.4379
 1971TIP3    H127476   1.239   2.088   1.273 -0.2678 -0.2640  0.2099
 1971TIP3    H227477   1.162   2.219   1.278  0.1674 -0.0244  0.7009
 1972TIP3   OH227478   4.158   1.338   8.256  0.2128 -0.5591 -0.1110
 1972TIP3    H127479   4.240   1.381   8.231  0.1946 -0.9816 -0.9336
 1972TIP3    H227480   4.129   1.385   8.333  0.7522  0.2053 -0.3622
 1973TIP3   OH227481   6.502   1.572   0.107  0.4711 -0.3252  0.3578
 1973TIP3    H127482   6.474   1.503   0.047  1.7779 -0.4748 -0.1048
 1973TIP3    H227483   6.423   1.624   0.122  0.0850 -0.3656 -1.3733
 1974TIP3   OH227484   6.209   1.909   1.092  0.6700  0.7016  0.0500
 1974TIP3    H127485   6.116   1.903   1.113  0.6199  0.6616 -0.1816
 1974TIP3    H227486   6.218   1.858   1.011  1.2741 -1.2308  1.2495
 1975TIP3   OH227487   0.372   4.026   0.698  0.0590 -0.2566 -0.8289
 1975TIP3    H127488   0.433   3.983   0.638 -0.6691 -0.4766 -1.4315
 1975TIP3    H227489   0.323   3.954   0.738  0.0646 -0.0728 -0.4915
 1976TIP3   OH227490   6.499   1.391   8.220  0.1421 -0.1310  0.2510
 1976TIP3    H127491   6.450   1.328   8.168 -0.4088  0.4316  0.0685
 1976TIP3    H227492   6.469   1.476   8.188  0.3537  0.2185  0.9688
 1977TIP3   OH227493   0.130   4.970   8.441  0.9511  0.6792 -0.2225
 1977TIP3    H127494   0.044   4.940   8.412  1.5222  0.3271 -1.6920
 1977TIP3    H227495   0.112   5.049   8.493 -0.2157  1.0872 -1.1816
 1978TIP3   OH227496   0.203   5.338   7.759  0.4082 -0.0537  0.0515
 1978TIP3    H127497   0.175   5.315   7.847  0.0868  0.9710  0.2206
 1978TIP3    H227498   0.296   5.361   7.769  1.0071 -2.0889 -0.2772
 1979TIP3   OH227499   1.983   0.717   6.947  0.0236  0.4968  0.2673
 1979TIP3    H127500   2.007   0.803   6.980  1.6084 -0.2418  1.1224
 1979TIP3    H227501   1.913   0.734   6.884  0.6035  2.4389  0.1011
 1980TIP3   OH227502   5.879   3.213   8.632 -0.1097  0.4255 -0.6013
 1980TIP3    H127503   5.854   3.154   8.702 -4.1210  2.0441 -0.4263
 1980TIP3    H227504   5.874   3.160   8.552  2.6278 -0.9247 -0.0108
 1981TIP3   OH227505   3.998   4.829   6.480 -0.1106  0.1489  0.0943
 1981TIP3    H127506   3.914   4.875   6.491 -0.0395  0.1857  0.4599
 1981TIP3    H227507   3.990   4.788   6.393  0.1034  1.4254 -0.5605
 1982TIP3   OH227508   6.282   2.619   8.394  0.0316  0.5660 -0.4993
 1982TIP3    H127509   6.209   2.568   8.431  1.0442  0.3662  1.2796
 1982TIP3    H227510   6.317   2.562   8.325 -0.1601 -0.2779  0.0769
 1983TIP3   OH227511   3.669   4.287   8.762  0.4261 -0.3827 -0.7271
 1983TIP3    H127512   3.646   4.282   8.669  1.4033  0.2048 -1.0136
 1983TIP3    H227513   3.717   4.206   8.780  0.0509 -0.5949 -0.6786
 1984TIP3   OH227514   2.792   4.479   0.398 -0.6593  0.0828 -0.2396
 1984TIP3    H127515   2.782   4.570   0.428 -1.7386 -0.0521 -0.1712
 1984TIP3    H227516   2.887   4.464   0.401 -0.5221  0.9671  0.4507
 1985TIP3   OH227517   1.768   1.843   7.443 -0.3722 -0.1016  0.6649
 1985TIP3    H127518   1.755   1.766   7.499 -1.5562 -0.4676 -0.0758
 1985TIP3    H227519   1.684   1.889   7.446 -0.3614  0.0361 -0.5427
 1986TIP3   OH227520   6.129   6.434   1.357 -0.2893 -0.0832  0.1152
 1986TIP3    H127521   6.108   6.428   1.451  0.3558 -3.0644  0.1639
 1986TIP3    H227522   6.174   6.518   1.348 -2.2431  1.2885  2.0425
 1987TIP3   OH227523   5.225   4.468   0.402 -0.4250 -0.4440 -0.8798
 1987TIP3    H127524   5.253   4.377   0.408  1.0718  0.0253 -0.0639
 1987TIP3    H227525   5.160   4.479   0.471 -0.0363 -0.7081 -0.4713
 1988TIP3   OH227526   2.653   5.460   8.240  0.0063  0.0993  0.0662
 1988TIP3    H127527   2.736   5.444   8.284  0.6143  1.5301 -0.4999
 1988TIP3    H227528   2.667   5.429   8.150  0.8779  2.6403 -0.7744
 1989TIP3   OH227529   4.247   1.097   8.728  0.1688  0.1529  0.1150
 1989TIP3    H127530   4.243   1.028   8.661  1.6212  1.1752 -1.1158
 1989TIP3    H227531   4.204   1.173   8.686  3.0671  1.4999 -0.6801
 1990TIP3   OH227532   5.183   1.180   7.204  0.1962 -0.2523  0.2022
 1990TIP3    H127533   5.209   1.115   7.269  0.4651 -0.6562 -0.3076
 1990TIP3    H227534   5.088   1.191   7.217  0.4033  0.3704  1.2879
 1991TIP3   OH227535   6.334   1.640   1.760 -0.1354  0.1560  0.2593
 1991TIP3    H127536   6.308   1.551   1.785 -1.0217  0.4532  0.4194
 1991TIP3    H227537   6.286   1.657   1.679  0.8606  0.1010 -0.3573
 1992TIP3   OH227538   1.792   3.505   8.650 -0.1496 -0.1105 -0.4765
 1992TIP3    H127539   1.757   3.584   8.609  0.1833  0.3095  0.0238
 1992TIP3    H227540   1.887   3.516   8.646 -0.1095 -0.1127  0.2880
 1993TIP3   OH227541   3.839   3.937   0.248 -0.1721  0.3929 -0.5711
 1993TIP3    H127542   3.745   3.925   0.238 -0.2825 -0.4068  1.1026
 1993TIP3    H227543   3.878   3.873   0.187 -0.6811  0.8874 -1.4388
 1994TIP3   OH227544   3.473   6.562   2.039 -0.1269 -0.0952 -0.3423
 1994TIP3    H127545   3.423   6.606   2.108  0.6439 -0.4181  0.4555
 1994TIP3    H227546   3.452   6.469   2.050  2.0950 -0.4863  1.3147
 1995TIP3   OH227547   1.339   6.767   7.458 -0.1930 -0.4162 -0.3464
 1995TIP3    H127548   1.313   6.691   7.406 -2.5303  0.8131 -1.1264
 1995TIP3    H227549   1.369   6.831   7.393 -2.4559  0.8742 -0.2217
 1996TIP3   OH227550   5.101   3.602   1.283  0.5159  0.6288 -0.0036
 1996TIP3    H127551   5.063   3.633   1.200  1.4968  3.2859  0.4237
 1996TIP3    H227552   5.189   3.573   1.259  0.4623  0.5040 -0.0469
 1997TIP3   OH227553   0.731   4.728   1.046 -0.0854 -0.2919  0.1112
 1997TIP3    H127554   0.667   4.672   1.089 -0.4007  1.6755  2.4431
 1997TIP3    H227555   0.783   4.765   1.118 -0.8265  3.4567 -1.0575
 1998TIP3   OH227556   3.736   2.666   0.208 -0.7755 -0.1625  0.1466
 1998TIP3    H127557   3.764   2.677   0.299  0.1999  0.5611 -0.2282
 1998TIP3    H227558   3.716   2.573   0.200  1.1083 -0.6366  0.5659
 1999TIP3   OH227559   6.249   2.701   7.781 -0.2984  0.3514  0.1042
 1999TIP3    H127560   6.314   2.650   7.731 -0.6575  0.7930 -0.8350
 1999TIP3    H227561   6.239   2.782   7.731 -0.3067  1.0270  1.1780
 2000TIP3   OH227562   6.397   5.549   8.356 -0.0972 -0.5990  0.1030
 2000TIP3    H127563   6.487   5.572   8.377 -0.0442  0.8933 -1.5296
 2000TIP3    H227564   6.346   5.582   8.430  0.5482 -0.0708  0.3196
 2001TIP3   OH227565   0.541   3.564   1.413 -0.1134 -0.0096  0.2712
 2001TIP3    H127566   0.490   3.513   1.477 -1.8140  1.0447 -0.1839
 2001TIP3    H227567   0.579   3.634   1.465  0.4724 -0.5069  0.5258
 2002TIP3   OH227568   3.769   2.396   1.043 -0.3704 -0.5177  0.1727
 2002TIP3    H127569   3.748   2.483   1.008  0.7118 -0.2562  0.1188
 2002TIP3    H227570   3.790   2.412   1.135 -0.7968 -0.8233  0.3247
 2003TIP3   OH227571   3.458   1.459   6.138 -0.3555 -0.4117 -1.0724
 2003TIP3    H127572   3.367   1.483   6.119 -0.4945  0.3961  0.4969
 2003TIP3    H227573   3.454   1.365   6.158 -1.3179  0.1053  1.4980
 2004TIP3   OH227574   0.920   1.222   1.205 -0.1345 -0.0183 -0.4570
 2004TIP3    H127575   0.975   1.254   1.134 -1.6768 -2.1140 -2.7554
 2004TIP3    H227576   0.973   1.235   1.284  2.6353  0.2858 -2.2302
 2005TIP3   OH227577   0.757   4.047   1.632  0.6053 -0.1998 -0.4987
 2005TIP3    H127578   0.763   4.006   1.546 -0.6499  0.5203 -0.9659
 2005TIP3    H227579   0.819   4.000   1.686  1.3523 -0.7319 -1.7795
 2006TIP3   OH227580   1.341   1.595   0.451  0.0930 -0.0999  0.4499
 2006TIP3    H127581   1.338   1.689   0.432 -2.6047 -0.0994  0.4560
 2006TIP3    H227582   1.261   1.579   0.501  0.2092 -2.4908 -0.0401
 2007TIP3   OH227583   4.640   2.400   8.142 -0.9361 -0.5264  0.5633
 2007TIP3    H127584   4.698   2.369   8.073  1.5878  3.8183  0.3227
 2007TIP3    H227585   4.560   2.427   8.096 -0.4338 -0.3615 -0.2359
 2008TIP3   OH227586   0.804   1.986   1.918  0.5218 -0.7295 -0.1000
 2008TIP3    H127587   0.831   1.894   1.914  0.3036 -0.8048  0.1211
 2008TIP3    H227588   0.715   1.983   1.953  0.6818 -0.4063  0.3395
 2009TIP3   OH227589   0.326   2.689   1.712 -0.2271  0.2808  0.1882
 2009TIP3    H127590   0.261   2.759   1.708 -1.6329 -0.9844  0.2488
 2009TIP3    H227591   0.374   2.705   1.793 -0.3124  1.3368  0.0464
 2010TIP3   OH227592   4.524   2.871   1.784  0.3678 -0.1693  0.4614
 2010TIP3    H127593   4.574   2.952   1.791  0.0915  0.3173 -2.3386
 2010TIP3    H227594   4.585   2.802   1.808  1.8306  0.5616 -1.0420
 2011TIP3   OH227595   3.441   3.453   2.282  0.2888 -0.3805  0.6451
 2011TIP3    H127596   3.456   3.396   2.207 -2.0896 -0.0123 -0.2003
 2011TIP3    H227597   3.372   3.410   2.332 -1.5729  1.6719 -0.0168
 2012TIP3   OH227598   3.728   0.546   7.524 -0.1488  0.2624 -0.2334
 2012TIP3    H127599   3.643   0.574   7.558 -1.0671  0.0509 -2.1889
 2012TIP3    H227600   3.717   0.546   7.429  2.6581  2.1955 -0.6930
 2013TIP3   OH227601   3.724   1.811   1.142  0.5111 -0.0442  0.1672
 2013TIP3    H127602   3.773   1.893   1.138 -0.7849  0.7305 -0.2683
 2013TIP3    H227603   3.734   1.783   1.233  0.1386  1.1270  0.5901
 2014TIP3   OH227604   1.694   5.298   6.795 -0.3344 -0.3012  0.1812
 2014TIP3    H127605   1.751   5.252   6.857  2.7088 -1.1615 -2.9347
 2014TIP3    H227606   1.667   5.231   6.733 -0.2482  1.1246 -1.4513
 2015TIP3   OH227607   2.544   0.088   7.303 -0.5778 -0.0444  0.0298
 2015TIP3    H127608   2.527   0.143   7.226 -0.3601  3.5901  2.3430
 2015TIP3    H227609   2.460   0.046   7.321 -0.4924 -1.4934 -2.3979
 2016TIP3   OH227610   3.588   4.699   6.737  0.0008 -0.4453 -0.2104
 2016TIP3    H127611   3.583   4.667   6.827 -1.0956 -0.2593 -0.1828
 2016TIP3    H227612   3.542   4.784   6.740 -0.9466 -0.9084 -1.1295
 2017TIP3   OH227613   2.570   6.800   8.432  0.0244  0.3485  0.2277
 2017TIP3    H127614   2.505   6.761   8.491  0.1333  0.9859  0.7855
 2017TIP3    H227615   2.534   6.886   8.412  0.6755  0.6948  0.5154
 2018TIP3   OH227616   4.255   5.182   8.334  0.4276 -0.1751  0.2356
 2018TIP3    H127617   4.200   5.241   8.283  1.2879 -0.4911 -1.1217
 2018TIP3    H227618   4.228   5.094   8.308  2.8837 -0.3758 -2.1011
 2019TIP3   OH227619   6.210   5.229   8.310  0.8530 -0.3012  0.4109
 2019TIP3    H127620   6.227   5.261   8.399  1.8524  1.6375 -0.4307
 2019TIP3    H227621   6.286   5.258   8.259  0.0894 -0.9859 -1.1920
 2020TIP3   OH227622   4.837   1.854   1.486  0.6504 -0.3355 -0.2099
 2020TIP3    H127623   4.838   1.783   1.422  2.3107 -1.4035  0.9343
 2020TIP3    H227624   4.880   1.927   1.441 -0.3285 -0.2910 -1.1064
 2021TIP3   OH227625   5.148   1.674   0.664  0.1854  0.0531  0.3283
 2021TIP3    H127626   5.191   1.726   0.596  0.0785 -2.1374 -1.5355
 2021TIP3    H227627   5.056   1.702   0.661  0.2386  0.1839 -0.2011
 2022TIP3   OH227628   3.617   2.050   0.202  0.4936  0.1580 -0.1563
 2022TIP3    H127629   3.660   1.969   0.176  1.4463  0.1280  1.3896
 2022TIP3    H227630   3.660   2.075   0.284 -0.7959  1.4393  0.1707
 2023TIP3   OH227631   3.384   4.296   0.074  0.3112  0.2792  0.4721
 2023TIP3    H127632   3.334   4.246   0.010  0.3038 -0.2062  0.8432
 2023TIP3    H227633   3.466   4.318   0.029  0.2586  0.0410  0.2575
 2024TIP3   OH227634   0.288   3.171   2.828  0.0117  0.2076 -0.1229
 2024TIP3    H127635   0.362   3.142   2.775  1.2055  0.6721  1.2402
 2024TIP3    H227636   0.298   3.266   2.834 -0.5504  0.2520  0.2853
 2025TIP3   OH227637   1.248   5.358   7.493 -0.2817  0.3194  0.1161
 2025TIP3    H127638   1.223   5.415   7.566  0.5623 -0.4016  1.0131
 2025TIP3    H227639   1.167   5.315   7.467 -0.9982  2.1479 -0.8051
 2026TIP3   OH227640   1.604   0.388   2.493 -0.1151  0.1307 -0.0850
 2026TIP3    H127641   1.677   0.447   2.511 -0.2822 -0.0638  1.3647
 2026TIP3    H227642   1.622   0.310   2.546 -1.0488 -0.1754 -0.1841
 2027TIP3   OH227643   6.423   2.693   1.595  0.8924 -0.3156 -0.2507
 2027TIP3    H127644   6.474   2.664   1.671  0.8461  0.7405  0.2069
 2027TIP3    H227645   6.360   2.623   1.581  1.3746 -0.8623  0.2326
 2028TIP3   OH227646   3.320   4.902   8.198 -0.5597 -0.1221 -0.1353
 2028TIP3    H127647   3.300   4.990   8.231 -0.2533  0.0026 -0.2825
 2028TIP3    H227648   3.239   4.873   8.158 -0.3290  0.5668 -1.1373
 2029TIP3   OH227649   3.223   6.008   1.988  0.0466 -0.0840  0.1717
 2029TIP3    H127650   3.286   5.945   1.952 -0.1518 -0.3359  0.2616
 2029TIP3    H227651   3.265   6.093   1.977 -0.9676  0.1445 -2.8795
 2030TIP3   OH227652   2.312   2.659   1.478 -0.4385  0.3330  0.1680
 2030TIP3    H127653   2.282   2.734   1.529  1.7943  2.8921 -1.9734
 2030TIP3    H227654   2.302   2.686   1.387  2.5889 -0.9630 -0.6907
 2031TIP3   OH227655   5.915   3.762   1.796 -0.4142  0.3123 -0.0899
 2031TIP3    H127656   5.981   3.800   1.854 -1.6967 -0.1471  1.7419
 2031TIP3    H227657   5.893   3.678   1.836 -1.4573  0.0431 -1.1672
 2032TIP3   OH227658   1.351   5.858   1.734 -0.4305 -0.3079 -0.1059
 2032TIP3    H127659   1.332   5.833   1.824  0.8259 -0.7320  0.0605
 2032TIP3    H227660   1.274   5.829   1.684 -2.4776  2.4142  1.1765
 2033TIP3   OH227661   1.098   4.254   8.442 -0.1506  0.7746 -0.2619
 2033TIP3    H127662   1.117   4.173   8.393 -0.6581 -1.3579  2.7691
 2033TIP3    H227663   1.169   4.313   8.418  0.4913 -0.6753 -2.2968
 2034TIP3   OH227664   0.085   4.776   2.323 -0.0258  0.5449  0.0864
 2034TIP3    H127665   0.096   4.792   2.416  1.3291  0.0718  0.0263
 2034TIP3    H227666   0.064   4.682   2.317  1.4317  0.2186 -0.1686
 2035TIP3   OH227667   2.500   6.625   0.816  0.3355  0.0233  0.0258
 2035TIP3    H127668   2.426   6.576   0.780  1.3062 -0.4195 -1.4657
 2035TIP3    H227669   2.538   6.566   0.882  0.0352 -0.2200 -0.0180
 2036TIP3   OH227670   6.596   3.781   1.605 -0.2608  0.2918  0.6599
 2036TIP3    H127671   6.567   3.870   1.582 -0.9335  0.1557  0.9836
 2036TIP3    H227672   6.606   3.737   1.520 -0.8548  0.3858  0.5354
 2037TIP3   OH227673   0.840   5.911   1.126  0.0254  0.5640 -0.0973
 2037TIP3    H127674   0.835   5.816   1.136  0.2318  0.6072  0.4644
 2037TIP3    H227675   0.791   5.930   1.045 -1.7203  0.1940  0.8368
 2038TIP3   OH227676   6.426   4.470   7.234  0.3000  0.1598  1.1168
 2038TIP3    H127677   6.419   4.377   7.212  0.4202  0.3410  0.3026
 2038TIP3    H227678   6.428   4.471   7.330 -0.8824 -0.5944  1.1715
 2039TIP3   OH227679   1.995   6.470   8.805  0.1996 -0.1495  0.2284
 2039TIP3    H127680   1.928   6.474   8.737  0.5005 -1.4926 -0.1895
 2039TIP3    H227681   2.017   6.377   8.810  1.2361  0.1310  1.1345
 2040TIP3   OH227682   1.295   4.347   1.773  0.4426 -0.6948  0.0109
 2040TIP3    H127683   1.237   4.423   1.773  0.5495 -0.5844  1.5652
 2040TIP3    H227684   1.243   4.277   1.813  0.4595 -1.3589 -1.1048
 2041TIP3   OH227685   6.284   6.051   0.420 -0.0824  0.1910  0.1686
 2041TIP3    H127686   6.334   6.116   0.470 -1.0884 -0.2459  1.8137
 2041TIP3    H227687   6.319   5.967   0.449 -1.0762 -0.0848  0.5999
 2042TIP3   OH227688   2.389   3.627   0.413 -0.1344 -0.2925 -0.5031
 2042TIP3    H127689   2.373   3.624   0.319 -0.9352 -1.0703 -0.3543
 2042TIP3    H227690   2.466   3.571   0.426 -1.4585 -2.1817 -0.4363
 2043TIP3   OH227691   4.874   0.931   1.214 -0.4038  0.0010  0.5647
 2043TIP3    H127692   4.936   0.917   1.142 -1.1210 -0.3347  0.0042
 2043TIP3    H227693   4.826   1.010   1.189  1.3298  1.6423  2.0989
 2044TIP3   OH227694   4.131   6.220   0.278  0.0793  0.2017  0.4322
 2044TIP3    H127695   4.132   6.130   0.311 -1.0150 -0.3773 -0.9787
 2044TIP3    H227696   4.039   6.238   0.260  0.4800  0.8649 -1.1743
 2045TIP3   OH227697   1.331   2.407   8.700 -0.2831 -0.0269  0.2632
 2045TIP3    H127698   1.316   2.392   8.793  1.5958  0.8309  0.7604
 2045TIP3    H227699   1.391   2.337   8.674 -2.9425 -1.9985 -1.0824
 2046TIP3   OH227700   3.433   2.225   7.397 -0.0066  0.4279 -0.0334
 2046TIP3    H127701   3.416   2.254   7.487 -0.7741  1.5994 -0.5406
 2046TIP3    H227702   3.408   2.299   7.342 -0.2219 -0.5265 -1.2667
 2047TIP3   OH227703   4.442   2.832   8.323  0.6077 -0.0619 -0.3235
 2047TIP3    H127704   4.447   2.834   8.227  0.3197  1.4925 -0.3358
 2047TIP3    H227705   4.430   2.924   8.348 -0.8857 -0.6123  1.1212
 2048TIP3   OH227706   4.889   6.681   0.753  0.7805 -0.8260 -0.4912
 2048TIP3    H127707   4.923   6.695   0.841 -0.0742  1.2864 -0.4468
 2048TIP3    H227708   4.943   6.611   0.717  3.1557  0.3211  0.6399
 2049TIP3   OH227709   6.716   1.167   6.776 -0.6083 -0.1476 -0.0528
 2049TIP3    H127710   6.630   1.173   6.734 -0.3322 -0.1541 -0.6349
 2049TIP3    H227711   6.747   1.257   6.782 -0.5455 -0.1657 -0.0912
 2050TIP3   OH227712   4.974   2.684   7.584 -0.2892 -0.3530  0.0014
 2050TIP3    H127713   4.985   2.640   7.500 -0.2317 -1.7652  0.7022
 2050TIP3    H227714   5.055   2.733   7.597 -1.0111  1.3142 -1.5386
 2051TIP3   OH227715   6.302   1.207   0.810  0.1875  0.6387  0.2811
 2051TIP3    H127716   6.386   1.241   0.780 -0.5463  1.1314 -1.3151
 2051TIP3    H227717   6.321   1.117   0.838  1.0317  0.3228 -1.2149
 2052TIP3   OH227718   2.654   0.893   8.367  0.0535  0.0571 -0.5667
 2052TIP3    H127719   2.653   0.798   8.369 -1.0132  0.0724  0.8324
 2052TIP3    H227720   2.637   0.920   8.457 -1.1342  1.5629 -1.1933
 2053TIP3   OH227721   4.880   2.158   8.280 -0.1090  0.5076  0.1705
 2053TIP3    H127722   4.864   2.173   8.374 -1.0539  1.0544 -0.0637
 2053TIP3    H227723   4.794   2.133   8.245  0.0609  1.0877 -0.6893
 2054TIP3   OH227724   0.012   5.639   1.839  0.5089  0.1590  0.4030
 2054TIP3    H127725   0.071   5.601   1.773  1.1465 -0.4586  1.2965
 2054TIP3    H227726   0.004   5.731   1.813  0.2881 -0.1921 -0.8492
 2055TIP3   OH227727   4.922   3.227   7.590 -0.2430  0.3069 -0.4777
 2055TIP3    H127728   4.833   3.216   7.625  0.3012 -1.2411  0.5203
 2055TIP3    H227729   4.979   3.218   7.666  0.8196  0.1368 -1.2722
 2056TIP3   OH227730   5.634   6.120   7.183  0.4406  0.0880  0.2581
 2056TIP3    H127731   5.555   6.087   7.226 -0.5613 -0.3121 -1.7688
 2056TIP3    H227732   5.680   6.041   7.155 -0.2072  0.3095 -1.5591
 2057TIP3   OH227733   6.469   2.315   6.655  0.2217  0.0193  0.4006
 2057TIP3    H127734   6.436   2.294   6.567 -3.1873  1.5760  1.1520
 2057TIP3    H227735   6.469   2.230   6.700 -0.1900 -0.4511 -0.4428
 2058TIP3   OH227736   3.867   2.479   1.806  0.1371 -0.0100 -0.6614
 2058TIP3    H127737   3.833   2.545   1.868  0.7522 -0.2897 -0.0182
 2058TIP3    H227738   3.921   2.422   1.860  1.5487  0.3587 -1.6518
 2059TIP3   OH227739   1.655   1.464   2.257 -0.6314  0.5743  0.3865
 2059TIP3    H127740   1.737   1.482   2.303  0.1104 -0.9215 -0.2807
 2059TIP3    H227741   1.586   1.482   2.321  0.2701  0.7868  1.3111
 2060TIP3   OH227742   0.971   2.402   6.920 -0.0920  0.6231 -0.2279
 2060TIP3    H127743   0.892   2.348   6.915 -0.5197  1.3489 -2.3119
 2060TIP3    H227744   1.040   2.341   6.945 -0.9560 -0.4448 -0.3614
 2061TIP3   OH227745   6.089   6.284   7.534 -0.7503  0.2331 -0.7862
 2061TIP3    H127746   6.174   6.252   7.503 -0.3730 -2.1884  2.2064
 2061TIP3    H227747   6.107   6.372   7.566  0.5007 -0.0118 -0.7500
 2062TIP3   OH227748   4.097   3.788   0.724 -0.3823  0.3960  0.3253
 2062TIP3    H127749   4.047   3.808   0.645  1.0762 -1.1761 -1.0544
 2062TIP3    H227750   4.173   3.846   0.720 -0.0969  0.0284  0.3363
 2063TIP3   OH227751   6.070   4.896   0.370 -0.3581 -0.0441 -0.4139
 2063TIP3    H127752   6.058   4.991   0.364 -1.0800 -0.1051 -0.0450
 2063TIP3    H227753   6.164   4.884   0.377 -0.2210  0.6151 -1.0065
 2064TIP3   OH227754   0.116   0.107   0.903  0.2343 -0.0410 -0.7688
 2064TIP3    H127755   0.134   0.033   0.845 -0.4217 -0.7980 -0.0302
 2064TIP3    H227756   0.045   0.154   0.859 -0.6658 -0.9403 -0.3322
 2065TIP3   OH227757   6.697   3.152   1.406  0.1749  0.0166  0.0306
 2065TIP3    H127758   6.751   3.109   1.473 -0.0553 -1.3915 -0.6395
 2065TIP3    H227759   6.617   3.177   1.453  1.2968  2.0361  1.0086
 2066TIP3   OH227760   2.016   1.019   0.475  0.1080  0.2940  0.2654
 2066TIP3    H127761   2.060   1.040   0.393 -1.0053 -2.2815 -1.1050
 2066TIP3    H227762   2.063   0.943   0.508 -0.0074  0.7787  1.5912
 2067TIP3   OH227763   1.369   0.519   8.511 -0.6881  0.8058 -0.4992
 2067TIP3    H127764   1.415   0.446   8.469 -1.9296  0.1465 -0.7772
 2067TIP3    H227765   1.438   0.574   8.546  0.3772  0.7083 -2.3020
 2068TIP3   OH227766   1.133   5.821   7.712 -0.2436 -0.0320  0.2569
 2068TIP3    H127767   1.127   5.916   7.714 -0.4310 -0.0112 -0.7020
 2068TIP3    H227768   1.226   5.803   7.704 -0.2319  0.0772  0.1510
 2069TIP3   OH227769   5.312   2.894   1.511  0.3323  0.4878 -0.0873
 2069TIP3    H127770   5.225   2.886   1.473  0.1490 -0.4484  0.4800
 2069TIP3    H227771   5.369   2.920   1.439 -0.1113 -0.6326 -0.8615
 2070TIP3   OH227772   5.731   4.755   8.795  0.0832  0.6121 -0.4726
 2070TIP3    H127773   5.807   4.797   8.837  0.2458  0.7569 -0.9025
 2070TIP3    H227774   5.659   4.816   8.812  0.3930  1.2585 -1.4012
 2071TIP3   OH227775   0.924   5.580   1.156  0.7037 -0.8973 -0.4731
 2071TIP3    H127776   0.870   5.501   1.157  0.5982 -0.8237 -0.1626
 2071TIP3    H227777   0.956   5.586   1.066 -1.8425  0.4330 -1.3879
 2072TIP3   OH227778   0.033   3.239   7.598 -0.2050  0.1014  0.5258
 2072TIP3    H127779   0.078   3.155   7.608 -1.7493 -0.7675  0.3524
 2072TIP3    H227780   0.041   3.281   7.683  0.6917 -0.1419  0.5760
 2073TIP3   OH227781   6.108   1.408   1.657  0.1444  0.1631  0.1010
 2073TIP3    H127782   6.034   1.367   1.702  0.3921 -0.1849  0.1956
 2073TIP3    H227783   6.184   1.386   1.710  0.3987  0.0092 -0.3166
 2074TIP3   OH227784   1.797   5.292   2.547 -0.4259 -0.4525  0.1571
 2074TIP3    H127785   1.831   5.284   2.458  2.0190  0.4132  0.9386
 2074TIP3    H227786   1.769   5.383   2.554  0.1345 -0.2981  0.4878
 2075TIP3   OH227787   2.023   5.200   1.102 -0.1408  0.5411 -0.2353
 2075TIP3    H127788   2.008   5.174   1.193  0.3534 -1.0643 -0.5701
 2075TIP3    H227789   2.052   5.291   1.107 -1.6306  1.0062  1.0710
 2076TIP3   OH227790   1.135   0.532   1.910 -0.9193  0.2824  0.2915
 2076TIP3    H127791   1.187   0.502   1.985 -0.8992  1.2156  0.6636
 2076TIP3    H227792   1.188   0.600   1.870 -1.9311  1.4251  0.8171
 2077TIP3   OH227793   3.525   4.761   1.470 -0.6403  0.3812 -0.4742
 2077TIP3    H127794   3.575   4.841   1.486 -0.0227 -0.4640  2.3981
 2077TIP3    H227795   3.592   4.695   1.451 -0.8425 -0.1391  0.5513
 2078TIP3   OH227796   0.322   1.013   6.528  0.8910 -0.4601  0.0900
 2078TIP3    H127797   0.410   1.047   6.511  1.2767 -1.2765  0.3627
 2078TIP3    H227798   0.337   0.922   6.553  0.0955 -0.2152  1.5921
 2079TIP3   OH227799   3.252   0.475   8.799  0.2764  0.2804  0.1888
 2079TIP3    H127800   3.173   0.424   8.812  1.2055 -0.9401  1.4322
 2079TIP3    H227801   3.259   0.487   8.705 -0.9508 -0.2838  0.0130
 2080TIP3   OH227802   0.201   1.152   0.471  0.1125 -0.3185 -0.2299
 2080TIP3    H127803   0.242   1.136   0.555  1.0384 -2.3458 -1.0174
 2080TIP3    H227804   0.142   1.226   0.487  0.9657 -0.0410  1.9352
 2081TIP3   OH227805   3.895   5.476   6.995 -0.1557  0.5141 -0.5338
 2081TIP3    H127806   3.862   5.390   7.022  0.2085  0.6972  0.5429
 2081TIP3    H227807   3.905   5.468   6.900  1.3591 -1.1940 -0.3079
 2082TIP3   OH227808   3.875   6.354   1.654 -0.0476 -0.5421 -0.1407
 2082TIP3    H127809   3.808   6.324   1.714  0.4533 -0.7643  0.3191
 2082TIP3    H227810   3.957   6.344   1.703  0.1157  2.2021  0.3160
 2083TIP3   OH227811   2.357   5.119   0.171  0.3218  0.4036  0.2550
 2083TIP3    H127812   2.307   5.200   0.162  0.6491  0.7755  1.5589
 2083TIP3    H227813   2.354   5.099   0.265  1.4065 -0.3408  0.1555
 2084TIP3   OH227814   0.155   2.040   8.108 -0.1489 -0.9667  0.0877
 2084TIP3    H127815   0.075   2.042   8.055 -0.9254 -1.0988  1.2226
 2084TIP3    H227816   0.153   1.954   8.150  0.6418 -1.0024  0.0646
 2085TIP3   OH227817   4.297   0.635   1.122 -0.1973 -0.5443 -0.6783
 2085TIP3    H127818   4.315   0.552   1.166  0.2634 -0.4842 -0.7450
 2085TIP3    H227819   4.264   0.692   1.192 -0.1878 -0.6796 -0.5624
 2086TIP3   OH227820   3.635   4.800   2.215  0.5011 -0.1840  0.2917
 2086TIP3    H127821   3.692   4.762   2.283  0.8615 -0.6038 -0.2393
 2086TIP3    H227822   3.687   4.871   2.177  0.5979 -0.4554 -0.0775
 2087TIP3   OH227823   5.885   0.271   1.601  0.4600 -0.4503  0.0987
 2087TIP3    H127824   5.893   0.288   1.507  1.7492  1.0004  0.4203
 2087TIP3    H227825   5.820   0.202   1.608 -0.1766 -0.0995 -1.8215
 2088TIP3   OH227826   6.342   2.769   8.619  0.5748  0.2952  0.1139
 2088TIP3    H127827   6.359   2.740   8.529  1.0099 -1.9140  0.8481
 2088TIP3    H227828   6.315   2.690   8.665 -1.6033  1.7510  1.5167
 2089TIP3   OH227829   5.347   4.155   8.546  0.0204  0.1034 -0.4910
 2089TIP3    H127830   5.330   4.244   8.516  0.3906 -0.1600 -1.5134
 2089TIP3    H227831   5.398   4.166   8.627 -0.1492  0.8126 -0.4783
 2090TIP3   OH227832   5.449   4.522   2.291 -0.2802  0.1376  0.6147
 2090TIP3    H127833   5.515   4.587   2.313  0.2436 -0.0306 -0.3853
 2090TIP3    H227834   5.370   4.552   2.335  0.2482  0.8071  1.1314
 2091TIP3   OH227835   6.445   6.319   1.319  0.2139 -0.0494  0.5838
 2091TIP3    H127836   6.526   6.356   1.283 -0.7938  0.7293 -0.9622
 2091TIP3    H227837   6.416   6.384   1.383  0.2225  0.2190  0.3174
 2092TIP3   OH227838   2.887   3.939   0.643  0.0623 -0.1230 -0.1251
 2092TIP3    H127839   2.942   4.011   0.615 -0.6904  0.6430  0.3106
 2092TIP3    H227840   2.945   3.863   0.646  0.9776  0.5697 -0.0983
 2093TIP3   OH227841   4.118   1.327   7.186  0.3222 -0.3177 -0.1289
 2093TIP3    H127842   4.184   1.353   7.122 -0.1114 -0.0565 -0.4844
 2093TIP3    H227843   4.038   1.373   7.157  0.5147  1.1962  1.5861
 2094TIP3   OH227844   4.062   1.416   6.898  0.2005 -0.3122  0.0661
 2094TIP3    H127845   4.068   1.350   6.830 -0.5429  0.5673 -0.8885
 2094TIP3    H227846   4.149   1.418   6.938  0.7399 -0.6297 -1.0587
 2095TIP3   OH227847   4.018   3.837   7.079  0.7585  0.3622  0.1490
 2095TIP3    H127848   3.927   3.837   7.109  0.6832 -1.8385  0.0915
 2095TIP3    H227849   4.016   3.881   6.994 -0.0468  1.3110  0.6447
 2096TIP3   OH227850   5.608   6.200   7.779  0.5206 -0.2939  0.0505
 2096TIP3    H127851   5.584   6.237   7.694 -0.3179  1.4289  0.9797
 2096TIP3    H227852   5.532   6.148   7.805 -0.0327  0.7146  0.5425
 2097TIP3   OH227853   0.196   1.994   1.381 -0.3967  0.1345 -0.2447
 2097TIP3    H127854   0.110   2.001   1.340 -0.3773 -0.1654 -0.3401
 2097TIP3    H227855   0.187   2.041   1.464 -0.1257  1.7016 -1.0591
 2098TIP3   OH227856   1.767   0.939   0.534 -0.5516 -0.5347 -0.2620
 2098TIP3    H127857   1.703   0.969   0.469 -2.0241  2.3233  2.2654
 2098TIP3    H227858   1.843   0.997   0.521 -0.1700 -1.0735 -0.4788
 2099TIP3   OH227859   0.275   3.551   0.278  0.2621 -0.2485  1.2779
 2099TIP3    H127860   0.232   3.498   0.345 -1.1462 -0.5176  0.2166
 2099TIP3    H227861   0.241   3.639   0.292 -0.7653 -0.4746  0.3951
 2100TIP3   OH227862   2.725   4.387   8.736  0.0757  0.1937  0.2151
 2100TIP3    H127863   2.635   4.362   8.713 -0.2746  0.8143  0.8679
 2100TIP3    H227864   2.748   4.455   8.673 -0.6845  1.5010  1.2738
 2101TIP3   OH227865   2.117   6.597   0.749  0.4487 -0.0771  0.6704
 2101TIP3    H127866   2.074   6.565   0.828 -0.6289 -0.3723 -0.0153
 2101TIP3    H227867   2.086   6.687   0.740 -2.8232 -1.2186 -1.5973
 2102TIP3   OH227868   6.430   0.447   7.718 -0.0564 -0.5484  0.1757
 2102TIP3    H127869   6.418   0.486   7.805 -1.2430 -0.6455  0.0751
 2102TIP3    H227870   6.500   0.498   7.678  2.1912 -1.9713  2.0471
 2103TIP3   OH227871   5.911   6.302   0.814  0.0433 -0.3210 -0.3802
 2103TIP3    H127872   5.971   6.376   0.805  0.1292 -0.4357 -0.7657
 2103TIP3    H227873   5.873   6.312   0.901 -0.9077  0.8986 -0.9077
 2104TIP3   OH227874   2.279   0.853   0.540 -0.1669  0.1150  0.4509
 2104TIP3    H127875   2.283   0.789   0.469  1.7530  1.4531 -0.7151
 2104TIP3    H227876   2.220   0.812   0.604 -1.9181 -1.1934 -1.8001
 2105TIP3   OH227877   4.363   4.383   7.665  0.3623 -0.5541  0.2427
 2105TIP3    H127878   4.371   4.477   7.682 -0.2219  0.1226 -2.8062
 2105TIP3    H227879   4.270   4.365   7.674  0.2584 -0.4980 -0.6678
 2106TIP3   OH227880   1.166   1.012   1.970 -0.2320  0.0343  0.8623
 2106TIP3    H127881   1.134   1.085   1.917 -2.1568 -1.1005  0.3542
 2106TIP3    H227882   1.261   1.020   1.969  0.0257 -0.7986 -4.1979
 2107TIP3   OH227883   6.542   1.287   0.206 -0.0648  0.6112 -0.4832
 2107TIP3    H127884   6.549   1.252   0.117 -0.1687  0.0016 -0.2599
 2107TIP3    H227885   6.553   1.381   0.196  2.0231  0.3645 -0.9148
 2108TIP3   OH227886   2.648   6.278   2.009 -0.1846 -0.9502 -0.0630
 2108TIP3    H127887   2.595   6.241   2.079 -0.7321 -0.7182 -0.3506
 2108TIP3    H227888   2.630   6.223   1.933  0.3578 -1.1615 -0.0465
 2109TIP3   OH227889   3.050   6.373   8.587  0.7721 -0.3453 -0.2946
 2109TIP3    H127890   2.994   6.301   8.616  1.2575 -0.7740 -0.4099
 2109TIP3    H227891   3.035   6.442   8.652 -1.1322  0.1760 -1.2332
 2110TIP3   OH227892   1.129   0.238   1.126  0.0006  0.0288 -0.3772
 2110TIP3    H127893   1.071   0.168   1.158  0.0489  0.1498 -0.0183
 2110TIP3    H227894   1.145   0.292   1.203 -0.7849  0.9634 -0.8409
 2111TIP3   OH227895   5.609   0.567   7.799 -0.2486 -0.4990  0.4657
 2111TIP3    H127896   5.531   0.569   7.744  0.7232  0.2975 -0.9427
 2111TIP3    H227897   5.602   0.485   7.848 -0.5742 -1.8449 -1.7004
 2112TIP3   OH227898   1.703   1.126   7.903  0.3444 -0.3382  0.0105
 2112TIP3    H127899   1.664   1.179   7.834  0.5926 -1.6761 -1.2129
 2112TIP3    H227900   1.796   1.150   7.904  0.0800  0.6951  0.8696
 2113TIP3   OH227901   0.531   5.938   8.787 -0.1350 -0.3106 -0.3165
 2113TIP3    H127902   0.507   5.905   8.873  0.2863 -1.1827 -0.5179
 2113TIP3    H227903   0.610   5.991   8.802 -0.8038  0.6277  0.0045
 2114TIP3   OH227904   5.164   4.548   7.823  0.1132  0.0464 -0.4602
 2114TIP3    H127905   5.130   4.522   7.909  0.9563  0.0759 -0.1155
 2114TIP3    H227906   5.097   4.517   7.761 -0.1411 -0.6457  0.1456
 2115TIP3   OH227907   0.231   3.969   8.358  0.0266 -0.1709  0.0690
 2115TIP3    H127908   0.150   4.019   8.343  0.6930  0.5916 -1.1764
 2115TIP3    H227909   0.289   4.031   8.403 -0.2562 -0.9099  1.5211
 2116TIP3   OH227910   3.848   3.260   1.153 -0.7070  0.8490 -0.2757
 2116TIP3    H127911   3.878   3.222   1.071 -0.3282  0.0616  0.2174
 2116TIP3    H227912   3.779   3.322   1.127 -1.2744 -0.1005 -1.1036
 2117TIP3   OH227913   5.015   6.555   8.319  0.1906 -1.3667  0.3669
 2117TIP3    H127914   5.071   6.581   8.392  1.2283 -1.6702 -0.3118
 2117TIP3    H227915   5.021   6.460   8.317  2.3700 -1.2709 -1.7674
 2118TIP3   OH227916   6.399   3.444   7.812  0.2079  0.2225  0.3602
 2118TIP3    H127917   6.344   3.523   7.811  1.9413  1.5079 -0.3138
 2118TIP3    H227918   6.339   3.372   7.798 -1.2629  1.5821 -0.6448
 2119TIP3   OH227919   3.792   6.549   0.182  0.9080  0.2982  0.2016
 2119TIP3    H127920   3.721   6.550   0.118 -0.3580 -1.6123  1.4506
 2119TIP3    H227921   3.854   6.614   0.151 -0.3683  0.5026 -2.1197
 2120TIP3   OH227922   0.686   3.119   8.253  0.1062  0.1525 -0.3150
 2120TIP3    H127923   0.755   3.055   8.234  1.6534  1.8291 -0.5630
 2120TIP3    H227924   0.631   3.076   8.318 -0.4186 -2.4263 -2.2993
 2121TIP3   OH227925   1.841   2.738   7.446 -0.0629 -0.4332 -0.4279
 2121TIP3    H127926   1.766   2.713   7.391  0.4995  0.7508 -1.8091
 2121TIP3    H227927   1.803   2.756   7.532 -1.6859  1.6909 -1.4846
 2122TIP3   OH227928   1.293   0.640   0.673 -0.4244  0.2829  0.4579
 2122TIP3    H127929   1.308   0.726   0.713 -1.6990  1.0885 -0.7138
 2122TIP3    H227930   1.327   0.577   0.737  0.9070  1.6575  1.1617
 2123TIP3   OH227931   4.318   6.418   6.324 -0.3738  0.2657  0.3997
 2123TIP3    H127932   4.287   6.503   6.294 -1.6087 -0.4484 -0.4544
 2123TIP3    H227933   4.403   6.406   6.283  0.4475  1.6418  1.6024
 2124TIP3   OH227934   3.381   1.341   6.981 -0.0330 -0.1496  0.1353
 2124TIP3    H127935   3.401   1.258   6.938 -0.3349 -1.1723  1.8774
 2124TIP3    H227936   3.307   1.377   6.932 -0.4663 -1.3462 -0.1024
 2125TIP3   OH227937   3.900   0.843   0.596 -0.2884 -0.1857 -0.1582
 2125TIP3    H127938   3.966   0.803   0.539 -0.8614  0.7577 -1.5434
 2125TIP3    H227939   3.860   0.912   0.542 -1.1333  0.4905  1.2663
 2126TIP3   OH227940   4.196   2.637   1.777 -0.6713 -0.0284 -0.8743
 2126TIP3    H127941   4.270   2.589   1.739 -0.4270 -0.0399 -0.4004
 2126TIP3    H227942   4.155   2.574   1.836 -0.4178  0.3006 -0.3322
 2127TIP3   OH227943   0.523   2.478   0.435 -0.3160  0.0105  0.1973
 2127TIP3    H127944   0.511   2.416   0.363 -2.0435  0.5406 -0.0283
 2127TIP3    H227945   0.508   2.564   0.395 -1.0087  0.3291  1.0978
 2128TIP3   OH227946   4.231   5.261   0.639 -0.1957 -0.0000 -0.6747
 2128TIP3    H127947   4.303   5.280   0.578  0.2412  0.2957 -0.0781
 2128TIP3    H227948   4.256   5.306   0.720 -0.7251 -0.4625 -0.2492
 2129TIP3   OH227949   6.342   2.149   7.666  0.1878 -0.5596 -0.4421
 2129TIP3    H127950   6.349   2.186   7.754 -0.1866 -1.0332 -0.2069
 2129TIP3    H227951   6.258   2.102   7.667 -0.4458  0.5135 -1.4618
 2130TIP3   OH227952   5.400   5.065   7.287 -0.6129  0.6907  0.1074
 2130TIP3    H127953   5.469   5.004   7.260 -1.4344 -0.5282  0.6947
 2130TIP3    H227954   5.432   5.103   7.369 -0.9589 -0.4518  0.7891
 2131TIP3   OH227955   2.423   1.274   7.886  0.2478  0.1100  0.7214
 2131TIP3    H127956   2.511   1.248   7.914  0.8599 -0.8769 -1.8198
 2131TIP3    H227957   2.364   1.213   7.931  0.6805  1.3883  3.2056
 2132TIP3   OH227958   3.432   5.178   1.500 -0.0354  0.4121  0.3949
 2132TIP3    H127959   3.449   5.272   1.494 -1.7479  0.6798 -1.2726
 2132TIP3    H227960   3.518   5.137   1.485  0.6636  1.6896  0.8028
 2133TIP3   OH227961   1.060   4.188   1.204  0.1217  0.1511 -0.0872
 2133TIP3    H127962   1.009   4.262   1.171  1.0718  0.7608 -0.2213
 2133TIP3    H227963   1.122   4.227   1.265 -1.2109 -0.8828  2.0717
 2134TIP3   OH227964   2.726   6.027   8.536 -0.0373  0.0389 -0.7162
 2134TIP3    H127965   2.730   6.104   8.593 -1.1618 -1.3955  1.4402
 2134TIP3    H227966   2.815   6.018   8.502  1.4828 -0.4220  2.8814
 2135TIP3   OH227967   1.298   2.489   6.746  0.1155 -0.0665  0.5365
 2135TIP3    H127968   1.286   2.542   6.668 -1.9578 -0.6899  0.3661
 2135TIP3    H227969   1.241   2.413   6.732  0.6760 -0.8153  2.0900
 2136TIP3   OH227970   1.091   1.234   0.735 -0.0109 -0.4329 -0.1870
 2136TIP3    H127971   1.112   1.191   0.652  0.8618 -1.1525  0.3868
 2136TIP3    H227972   1.000   1.208   0.753  0.5085 -2.1113  0.1689
 2137TIP3   OH227973   4.917   0.419   0.203 -0.4037  0.1890  0.0076
 2137TIP3    H127974   5.010   0.399   0.194 -0.6891 -0.9583 -0.5995
 2137TIP3    H227975   4.906   0.440   0.296  0.3648 -0.2004  0.1980
 2138TIP3   OH227976   2.539   3.543   7.594 -0.1429 -0.0569  0.0062
 2138TIP3    H127977   2.477   3.594   7.543 -1.7749 -0.9115  1.0552
 2138TIP3    H227978   2.497   3.458   7.605  0.2130  0.0268  2.5585
 2139TIP3   OH227979   6.619   3.817   8.328 -0.8524 -0.1369 -0.0887
 2139TIP3    H127980   6.571   3.735   8.317  0.1764 -0.6241 -1.1923
 2139TIP3    H227981   6.693   3.793   8.384 -0.1616 -0.1495 -0.9818
 2140TIP3   OH227982   1.802   3.957   0.282 -0.5302  0.6679  0.6224
 2140TIP3    H127983   1.865   4.029   0.286  2.3549 -1.7021  1.8689
 2140TIP3    H227984   1.773   3.955   0.191  1.4895  1.6938 -0.0972
 2141TIP3   OH227985   4.367   1.749   0.188  0.4166  0.2797 -0.3424
 2141TIP3    H127986   4.337   1.682   0.249  1.0037  0.9966  0.7768
 2141TIP3    H227987   4.289   1.776   0.140  0.3328 -1.8594 -1.5109
 2142TIP3   OH227988   2.053   2.420   6.523 -0.6118  0.7863 -0.1734
 2142TIP3    H127989   2.037   2.399   6.615 -0.2147 -1.0969 -0.4771
 2142TIP3    H227990   2.032   2.339   6.476  1.5983  0.8643 -1.4587
 2143TIP3   OH227991   5.188   2.661   7.070  0.1230 -0.1677 -0.4691
 2143TIP3    H127992   5.281   2.643   7.056 -0.0793 -0.4614 -1.4973
 2143TIP3    H227993   5.146   2.637   6.988 -0.9096 -0.3153  0.0855
 2144TIP3   OH227994   6.504   4.636   6.618  0.5415  0.5571 -0.0312
 2144TIP3    H127995   6.489   4.608   6.708  2.3294  0.1930  0.1922
 2144TIP3    H227996   6.483   4.729   6.618  1.4551  0.7770  1.0088
 2145TIP3   OH227997   1.103   1.453   7.886 -0.2218 -0.3951  0.1293
 2145TIP3    H127998   1.096   1.373   7.835 -1.7520  0.4343 -1.0546
 2145TIP3    H227999   1.181   1.497   7.851  0.7715 -1.4613  0.9655
 2146TIP3   OH228000   1.635   0.053   7.490  0.1823 -0.0347 -0.1000
 2146TIP3    H128001   1.612  -0.014   7.426 -0.7777 -0.6363  0.8365
 2146TIP3    H228002   1.587   0.131   7.463 -0.3867 -0.3463 -0.0118
 2147TIP3   OH228003   5.517   6.564   1.615 -0.2786  0.4028 -0.7992
 2147TIP3    H128004   5.531   6.485   1.667  1.1173 -0.3804 -2.2808
 2147TIP3    H228005   5.605   6.592   1.589 -0.9088  0.9905 -2.4032
 2148TIP3   OH228006   5.687   3.359   8.177 -0.4265 -0.6237 -0.1117
 2148TIP3    H128007   5.647   3.284   8.221  0.0046 -1.7171 -1.4801
 2148TIP3    H228008   5.674   3.342   8.084  1.5416 -0.0995 -0.5493
 2149TIP3   OH228009   0.362   5.384   1.762  0.0886  0.8128  0.1642
 2149TIP3    H128010   0.292   5.332   1.800  0.8543 -1.0087 -0.7809
 2149TIP3    H228011   0.407   5.423   1.837 -0.5323  0.1274  0.9130
 2150TIP3   OH228012   1.864   4.721   0.638 -0.4676 -0.3935  0.0635
 2150TIP3    H128013   1.908   4.697   0.719 -0.3722 -0.4014  0.0094
 2150TIP3    H228014   1.930   4.707   0.570  0.3956  2.2800  0.2578
 2151TIP3   OH228015   6.673   2.629   2.241 -0.0785  0.3690  0.4090
 2151TIP3    H128016   6.585   2.595   2.228 -0.5812  1.2566  1.3148
 2151TIP3    H228017   6.686   2.627   2.336  0.8232  0.3912  0.3015
 2152TIP3   OH228018   2.975   4.851   0.173  0.3522 -0.1355  0.0888
 2152TIP3    H128019   3.001   4.891   0.090 -1.2338  1.9666  0.5361
 2152TIP3    H228020   3.049   4.865   0.231  1.3731 -1.3914 -0.8465
 2153TIP3   OH228021   5.037   1.872   8.026 -0.1932 -0.1544 -0.2041
 2153TIP3    H128022   5.040   1.909   7.937  0.3388  0.5932  0.1223
 2153TIP3    H228023   4.943   1.867   8.046 -0.3479 -0.7801 -0.9808
 2154TIP3   OH228024   3.333   1.789   1.173  0.0372 -0.2147 -0.7427
 2154TIP3    H128025   3.398   1.767   1.106  0.9145  0.8939 -0.2775
 2154TIP3    H228026   3.250   1.755   1.138  0.4728  0.3495 -2.3837
 2155TIP3   OH228027   2.088   1.870   1.355 -0.3451  0.4352 -0.4010
 2155TIP3    H128028   2.045   1.785   1.348  0.3271  0.2091 -2.0974
 2155TIP3    H228029   2.181   1.850   1.357 -0.2079  1.0875  0.3895
 2156TIP3   OH228030   1.833   3.298   1.764  0.6917 -0.2523 -0.4413
 2156TIP3    H128031   1.864   3.213   1.794  2.8644 -0.0456 -1.8610
 2156TIP3    H228032   1.834   3.292   1.668 -0.9218  0.7850 -0.5672
 2157TIP3   OH228033   5.554   4.727   1.633  0.5060  1.0303  0.2910
 2157TIP3    H128034   5.632   4.756   1.586  0.8282 -2.0157 -1.3566
 2157TIP3    H228035   5.588   4.669   1.702 -0.2127  0.9017  0.5471
 2158TIP3   OH228036   0.454   0.747   8.393 -0.2253  0.1289  0.0460
 2158TIP3    H128037   0.546   0.756   8.368 -0.3568  0.7167 -0.2528
 2158TIP3    H228038   0.454   0.756   8.488 -0.0440  0.8287 -0.0123
 2159TIP3   OH228039   4.735   5.903   6.488 -0.3615 -0.0631  0.0881
 2159TIP3    H128040   4.710   5.872   6.576 -0.3162  0.2539  0.2133
 2159TIP3    H228041   4.827   5.881   6.480  0.1662  1.6775  0.9035
 2160TIP3   OH228042   5.819   2.638   0.214  0.4615  0.4072  0.3380
 2160TIP3    H128043   5.837   2.597   0.299 -1.0833 -1.3762 -0.1352
 2160TIP3    H228044   5.846   2.573   0.149 -2.0778  0.0115 -0.4284
 2161TIP3   OH228045   3.741   4.904   6.486  0.2295  0.1153 -0.2971
 2161TIP3    H128046   3.745   4.811   6.506 -1.0294  0.2026  0.5407
 2161TIP3    H228047   3.647   4.922   6.475  0.4824  1.1990 -0.9002
 2162TIP3   OH228048   3.905   5.373   1.451 -0.0110  0.1138  0.6964
 2162TIP3    H128049   3.992   5.334   1.445  0.0335  0.2061  0.7257
 2162TIP3    H228050   3.909   5.450   1.393  0.2469  0.6918  1.4582
 2163TIP3   OH228051   5.036   4.021   1.080  0.0100 -0.0941  0.1537
 2163TIP3    H128052   5.092   4.035   1.157  1.0784 -0.1356 -0.5907
 2163TIP3    H228053   5.097   3.998   1.010 -1.0115 -0.8073 -0.5298
 2164TIP3   OH228054   0.880   2.713   8.151 -0.0367 -0.2676 -0.0200
 2164TIP3    H128055   0.969   2.682   8.130  0.6461  3.3188 -3.6864
 2164TIP3    H228056   0.822   2.648   8.111  1.1244 -0.3718 -1.6517
 2165TIP3   OH228057   4.695   2.664   1.860 -0.8398 -0.0027  0.1639
 2165TIP3    H128058   4.717   2.574   1.886 -0.1870  0.2212  0.4215
 2165TIP3    H228059   4.752   2.719   1.914 -0.4104  0.5237 -0.7909
 2166TIP3   OH228060   2.416   3.278   0.527 -0.3632 -0.0240  0.0365
 2166TIP3    H128061   2.339   3.279   0.470 -0.6923 -1.0225  0.4409
 2166TIP3    H228062   2.487   3.313   0.473 -0.7254 -0.7037 -0.8888
 2167TIP3   OH228063   1.083   2.560   8.619 -0.0204 -0.4925  0.1720
 2167TIP3    H128064   1.018   2.492   8.603  0.5919 -1.0800  0.1386
 2167TIP3    H228065   1.154   2.515   8.665  2.8835 -1.2198 -4.4376
 2168TIP3   OH228066   2.101   3.998   2.108 -0.1391 -0.5491 -0.7548
 2168TIP3    H128067   2.074   3.918   2.155 -0.5334  0.7095  1.2896
 2168TIP3    H228068   2.196   3.996   2.113 -0.1821 -0.0436  0.8968
 2169TIP3   OH228069   4.935   4.798   7.675  0.0001  0.4148  0.1252
 2169TIP3    H128070   4.933   4.750   7.757 -0.4331  3.8089  2.2755
 2169TIP3    H228071   4.849   4.784   7.636  0.5952 -2.1311 -0.4478
 2170TIP3   OH228072   3.334   0.887   1.518 -0.4993 -0.2601 -0.0757
 2170TIP3    H128073   3.375   0.817   1.568  1.1467  0.4862 -0.3010
 2170TIP3    H228074   3.282   0.843   1.452  0.7890 -1.2837 -0.4455
 2171TIP3   OH228075   4.129   5.225   1.395 -0.1540  0.3588 -0.1953
 2171TIP3    H128076   4.184   5.237   1.472 -2.4045 -0.5724  1.6648
 2171TIP3    H228077   4.108   5.131   1.394 -2.9263  0.8945  0.1183
 2172TIP3   OH228078   6.170   3.699   0.409  0.0840  0.1834  0.1155
 2172TIP3    H128079   6.230   3.638   0.452  0.6476  0.7591  0.1531
 2172TIP3    H228080   6.210   3.716   0.324  1.0400  2.1095  0.8868
 2173TIP3   OH228081   0.884   3.968   0.863 -0.0035 -0.3628 -0.3185
 2173TIP3    H128082   0.900   3.880   0.899  0.4840  0.1113  0.6843
 2173TIP3    H228083   0.877   4.024   0.941 -0.9611  0.3884 -0.9241
 2174TIP3   OH228084   0.417   5.936   0.652  0.0044 -0.2920  0.2132
 2174TIP3    H128085   0.373   6.020   0.653  0.7967  0.1407 -0.2032
 2174TIP3    H228086   0.482   5.943   0.581  0.0654 -1.2544  0.1522
 2175TIP3   OH228087   1.886   4.802   0.018 -0.3440  0.3572  0.5460
 2175TIP3    H128088   1.945   4.768   0.084 -0.0160  0.7003  0.4351
 2175TIP3    H228089   1.848   4.881   0.057 -0.3194  0.4355  0.4145
 2176TIP3   OH228090   4.154   2.576   1.394  0.3829 -0.0915 -0.1116
 2176TIP3    H128091   4.067   2.585   1.433  0.9205 -1.4722  1.5214
 2176TIP3    H228092   4.188   2.665   1.390 -0.5407  0.3091  0.6319
 2177TIP3   OH228093   6.244   5.656   1.643 -0.3141  0.1822  0.2414
 2177TIP3    H128094   6.332   5.669   1.678  0.7171 -0.4073 -1.9566
 2177TIP3    H228095   6.198   5.738   1.663  0.3938  0.1559  2.2255
 2178TIP3   OH228096   2.849   2.697   7.924  0.1930 -0.1533  0.5535
 2178TIP3    H128097   2.838   2.708   8.018 -0.4484 -2.1247  0.7510
 2178TIP3    H228098   2.760   2.702   7.889  0.3376 -0.3614  0.1564
 2179TIP3   OH228099   4.445   1.080   0.870  0.0449  0.1029 -0.4777
 2179TIP3    H128100   4.513   1.016   0.890 -1.1460 -1.3476 -0.8825
 2179TIP3    H228101   4.395   1.040   0.798  0.0107  2.0532 -1.6115
 2180TIP3   OH228102   4.557   0.526   0.715  0.0566  0.7527  0.2503
 2180TIP3    H128103   4.630   0.576   0.678  0.2331  0.6769  0.4910
 2180TIP3    H228104   4.529   0.468   0.645  0.2337  0.7776  0.1581
 2181TIP3   OH228105   3.687   6.541   7.913  0.0739  0.3117  0.1777
 2181TIP3    H128106   3.626   6.560   7.984  0.3812  1.1771  0.2252
 2181TIP3    H228107   3.658   6.596   7.841 -0.8543 -1.3007 -0.7434
 2182TIP3   OH228108   1.143   6.151   1.235  0.1360 -0.0553 -0.3108
 2182TIP3    H128109   1.061   6.111   1.264 -0.0405  1.6498  1.7839
 2182TIP3    H228110   1.133   6.161   1.140 -1.8800 -0.2930 -0.1725
 2183TIP3   OH228111   5.997   0.083   1.067 -0.3901 -0.1892  0.4410
 2183TIP3    H128112   6.093   0.091   1.067 -0.4192  0.1895  0.0244
 2183TIP3    H228113   5.970   0.126   1.148 -0.2552  0.3065  0.2228
 2184TIP3   OH228114   5.415   0.683   8.168 -0.8088 -0.1566  0.7675
 2184TIP3    H128115   5.502   0.654   8.196  0.2354  0.6241 -1.4179
 2184TIP3    H228116   5.391   0.622   8.098 -1.0131  0.9639 -0.1599
 2185TIP3   OH228117   0.845   3.528   6.698  0.0931  0.3007  0.4333
 2185TIP3    H128118   0.919   3.555   6.643 -0.8548 -0.1009 -1.1051
 2185TIP3    H228119   0.803   3.610   6.724  0.5849  0.4969  0.6158
 2186TIP3   OH228120   2.308   2.639   8.057  0.0924  0.4390 -0.0698
 2186TIP3    H128121   2.332   2.548   8.072 -0.8079 -0.0937 -1.5621
 2186TIP3    H228122   2.217   2.634   8.025 -0.7150  2.0302  1.7942
 2187TIP3   OH228123   2.459   3.684   1.912  0.6962 -0.6822 -0.0389
 2187TIP3    H128124   2.502   3.762   1.948 -1.8140  1.4078 -1.3044
 2187TIP3    H228125   2.390   3.664   1.975  1.3390 -1.9808  0.2935
 2188TIP3   OH228126   1.208   2.784   0.873 -0.0750 -0.1109  0.3348
 2188TIP3    H128127   1.233   2.756   0.962 -1.2914 -2.5213 -0.0160
 2188TIP3    H228128   1.287   2.827   0.840  1.0005 -0.6878  1.9724
 2189TIP3   OH228129   4.027   5.858   6.580 -0.4142  0.3808 -0.2154
 2189TIP3    H128130   4.106   5.904   6.608  1.1965 -1.2900 -1.7255
 2189TIP3    H228131   3.989   5.914   6.512  0.4487  0.4291 -0.6722
 2190TIP3   OH228132   4.508   4.680   0.439 -0.1222  0.2408  0.3786
 2190TIP3    H128133   4.428   4.646   0.397  0.7617 -1.3997 -0.0876
 2190TIP3    H228134   4.517   4.626   0.518  1.6904 -1.1672 -0.7212
 2191TIP3   OH228135   6.512   5.814   7.906 -0.0217 -0.0236 -0.1597
 2191TIP3    H128136   6.584   5.817   7.844 -0.6969 -0.2195 -0.9747
 2191TIP3    H228137   6.462   5.736   7.881 -1.3903  0.9561 -0.6159
 2192TIP3   OH228138   4.925   1.881   7.410 -0.1109  0.5504 -0.4208
 2192TIP3    H128139   4.881   1.888   7.494  0.6879  0.9987 -0.0240
 2192TIP3    H228140   5.016   1.861   7.432  0.0153  0.1995 -1.1975
 2193TIP3   OH228141   2.132   0.349   7.090  0.0616  0.4544 -0.3420
 2193TIP3    H128142   2.054   0.379   7.043 -1.0134 -0.6519  0.6750
 2193TIP3    H228143   2.179   0.295   7.027 -1.6013 -1.3939 -0.0937
 2194TIP3   OH228144   1.684   2.643   7.253  0.2088 -0.0223  0.1717
 2194TIP3    H128145   1.618   2.613   7.191  0.5057 -0.1401 -0.0948
 2194TIP3    H228146   1.756   2.580   7.243  0.1935 -0.1324  0.7533
 2195TIP3   OH228147   1.290   4.738   0.014  0.1490  0.2302 -0.5923
 2195TIP3    H128148   1.218   4.789  -0.023 -0.8617 -0.9205 -0.2694
 2195TIP3    H228149   1.253   4.651   0.029  1.4805 -0.2622  0.0102
 2196TIP3   OH228150   1.939   5.160   1.369  0.6930 -0.0965  0.6280
 2196TIP3    H128151   1.918   5.178   1.461  1.5633 -0.8659  1.0055
 2196TIP3    H228152   1.865   5.109   1.337  0.9166 -0.8602  1.2739
 2197TIP3   OH228153   5.379   3.301   7.634 -0.1672  0.2192 -0.0917
 2197TIP3    H128154   5.417   3.387   7.620 -0.3835  0.3898  0.3542
 2197TIP3    H228155   5.425   3.244   7.573  0.8515  0.4044  0.4825
 2198TIP3   OH228156   2.979   2.453   6.896  0.0784  0.1325  0.7006
 2198TIP3    H128157   2.927   2.377   6.920  0.3089  0.2587  1.6550
 2198TIP3    H228158   3.039   2.465   6.970 -0.4680  1.6871  0.9206
 2199TIP3   OH228159   1.222   2.601   7.604 -0.1237 -0.3908 -0.1778
 2199TIP3    H128160   1.236   2.561   7.690 -0.4604  1.5075  0.8030
 2199TIP3    H228161   1.135   2.572   7.577 -0.2564 -0.5154  0.3930
 2200TIP3   OH228162   1.530   5.535   6.828  0.1388 -0.0643 -0.0568
 2200TIP3    H128163   1.595   5.469   6.804 -0.2090 -0.1181 -0.8949
 2200TIP3    H228164   1.451   5.485   6.848  0.6687 -0.0840  2.1741
 2201TIP3   OH228165   5.271   5.261   6.268 -0.0194  0.4961 -0.2527
 2201TIP3    H128166   5.186   5.220   6.282  0.6026 -0.3950  1.1264
 2201TIP3    H228167   5.257   5.323   6.197 -0.9467 -2.3492 -2.7508
 2202TIP3   OH228168   0.462   2.520   1.347  0.5770  0.1250 -0.0210
 2202TIP3    H128169   0.529   2.513   1.279  1.9224 -2.1118  1.3997
 2202TIP3    H228170   0.506   2.566   1.418 -0.8882  2.6589 -0.6354
 2203TIP3   OH228171   1.554   0.461   8.134 -0.4473 -0.1510 -0.6799
 2203TIP3    H128172   1.481   0.522   8.149 -0.4059 -0.1540 -0.4657
 2203TIP3    H228173   1.515   0.391   8.081 -0.5269 -0.0057 -0.8177
 2204TIP3   OH228174   0.552   4.762   6.555 -0.4252 -0.2169  0.3514
 2204TIP3    H128175   0.536   4.834   6.616 -1.3259 -0.3705  0.3069
 2204TIP3    H228176   0.646   4.746   6.561 -0.1295  1.2689  0.0101
 2205TIP3   OH228177   6.403   5.936   1.456 -0.3283  0.4636 -0.6794
 2205TIP3    H128178   6.377   5.985   1.378  1.3729  0.4262 -1.3116
 2205TIP3    H228179   6.355   5.978   1.527 -2.0081  0.4199 -1.7343
 2206TIP3   OH228180   4.387   6.579   2.140  0.0400  0.2932 -0.1389
 2206TIP3    H128181   4.348   6.575   2.228 -1.5272  0.9340 -0.7650
 2206TIP3    H228182   4.475   6.612   2.155  0.1490 -0.5426  1.2887
 2207TIP3   OH228183   0.051   0.565   6.629  0.2267  0.3358 -0.6576
 2207TIP3    H128184   0.091   0.624   6.565  1.1328  1.6318  1.0343
 2207TIP3    H228185  -0.040   0.596   6.636  0.6937  1.5581  0.2124
 2208TIP3   OH228186   3.996   4.200   8.686  0.3693  0.2043 -0.1705
 2208TIP3    H128187   4.065   4.206   8.752  0.2361  1.2741 -0.1173
 2208TIP3    H228188   3.967   4.290   8.673 -1.3116 -0.2727  0.1194
 2209TIP3   OH228189   5.083   1.097   1.459  0.3139 -0.3545 -0.3281
 2209TIP3    H128190   5.147   1.053   1.402 -0.6185  0.2089 -1.8636
 2209TIP3    H228191   5.067   1.181   1.417 -1.0714 -0.2837  0.2899
 2210TIP3   OH228192   5.008   2.493   8.307 -1.0252 -0.2728 -0.2859
 2210TIP3    H128193   4.916   2.504   8.330 -0.5812  0.8578  1.1312
 2210TIP3    H228194   5.051   2.475   8.391  0.1170 -0.2150 -0.8412
 2211TIP3   OH228195   0.443   1.864   1.315 -0.0296  0.4341 -0.1536
 2211TIP3    H128196   0.354   1.889   1.341 -0.4163 -1.1458  0.1855
 2211TIP3    H228197   0.431   1.813   1.234  0.3707 -1.0742  0.6920
 2212TIP3   OH228198   4.215   1.707   7.566 -0.2989 -0.2945  0.6100
 2212TIP3    H128199   4.213   1.708   7.470 -0.7610  0.4699  0.6206
 2212TIP3    H228200   4.235   1.797   7.591  1.3302 -0.7860  1.2222
 2213TIP3   OH228201   3.821   2.777   6.872 -0.6325 -0.4348  0.0860
 2213TIP3    H128202   3.798   2.767   6.964  0.9362 -1.6973  0.3925
 2213TIP3    H228203   3.873   2.857   6.868  1.4647 -1.6768  0.8188
 2214TIP3   OH228204   2.627   0.604   7.668  0.8247  0.9178 -0.0635
 2214TIP3    H128205   2.634   0.512   7.641  0.6706  0.9554 -0.2314
 2214TIP3    H228206   2.602   0.600   7.760  2.0124  0.7798  0.2690
 2215TIP3   OH228207   3.106   4.079   0.534 -0.5815 -0.0156  0.0369
 2215TIP3    H128208   3.052   4.154   0.511 -3.1415 -2.0541 -1.2332
 2215TIP3    H228209   3.166   4.068   0.460 -1.7164 -0.4445 -0.8593
 2216TIP3   OH228210   6.130   4.519   8.233 -0.3060  0.9074  0.4095
 2216TIP3    H128211   6.144   4.606   8.195 -1.7171  1.1680  0.4218
 2216TIP3    H228212   6.211   4.472   8.216  0.3796  2.1422  0.1643
 2217TIP3   OH228213   3.122   0.508   1.473 -0.4980 -0.6826  0.8187
 2217TIP3    H128214   3.133   0.583   1.416  0.5707 -2.4688 -1.5036
 2217TIP3    H228215   3.211   0.480   1.496 -0.7656 -2.3503  0.0065
 2218TIP3   OH228216   5.712   1.205   8.729  0.6544  0.3226  0.6757
 2218TIP3    H128217   5.747   1.116   8.732 -0.7401 -0.7908 -5.1626
 2218TIP3    H228218   5.618   1.195   8.744  0.2983  0.5340 -1.2221
 2219TIP3   OH228219   5.418   6.166   1.642  0.0921 -0.1253 -0.0830
 2219TIP3    H128220   5.488   6.102   1.651  0.4895  0.4729  1.5292
 2219TIP3    H228221   5.338   6.118   1.663  0.2519 -0.3567 -0.0125
 2220TIP3   OH228222   1.991   0.055   8.664 -0.1453  0.4618  0.3389
 2220TIP3    H128223   1.924  -0.011   8.681 -1.0640  0.4494 -2.7562
 2220TIP3    H228224   2.059   0.008   8.616  0.1548  1.3231 -0.0936
 2221TIP3   OH228225   0.019   1.336   2.030 -0.3944 -0.1581 -1.0467
 2221TIP3    H128226  -0.012   1.414   2.076  1.1614  0.1568 -0.4585
 2221TIP3    H228227   0.021   1.267   2.097 -1.3393 -0.6108 -1.4605
 2222TIP3   OH228228   3.720   2.646   0.882  0.0199 -0.7725  0.1930
 2222TIP3    H128229   3.648   2.596   0.843 -0.7938 -1.8378  2.8493
 2222TIP3    H228230   3.682   2.685   0.960  1.3571  1.9416 -0.4020
 2223TIP3   OH228231   3.818   1.800   2.349  0.1001 -0.2489 -0.4850
 2223TIP3    H128232   3.836   1.891   2.373  0.3355  0.2928 -2.4970
 2223TIP3    H228233   3.904   1.759   2.341 -0.0228 -0.9018  1.1605
 2224TIP3   OH228234   4.639   3.869   1.677 -0.2039  0.4668 -0.1086
 2224TIP3    H128235   4.557   3.851   1.631 -0.1173  0.3614 -0.2218
 2224TIP3    H228236   4.667   3.954   1.644  0.8073 -0.4094 -1.6445
 2225TIP3   OH228237   4.866   5.292   0.170  0.3675  0.0636 -0.0415
 2225TIP3    H128238   4.873   5.201   0.201 -0.8713 -0.2041 -0.4899
 2225TIP3    H228239   4.885   5.345   0.248 -0.0223 -0.5900  0.5131
 2226TIP3   OH228240   0.243   6.750   7.389  0.4496 -0.5760  0.0654
 2226TIP3    H128241   0.154   6.715   7.399  0.3277 -0.0052  1.1804
 2226TIP3    H228242   0.236   6.840   7.420  0.7976  0.4307 -2.5301
 2227TIP3   OH228243   4.413   3.789   7.933  0.0864 -0.0148 -0.4114
 2227TIP3    H128244   4.343   3.766   7.872  0.6724  0.0940 -1.1269
 2227TIP3    H228245   4.475   3.841   7.882  0.6302  0.0079  0.2480
 2228TIP3   OH228246   3.779   5.270   8.129 -0.7466 -0.7873 -0.9643
 2228TIP3    H128247   3.702   5.281   8.185 -1.5946 -3.6034 -1.4588
 2228TIP3    H228248   3.767   5.336   8.060 -0.4600  1.6989  1.1968
 2229TIP3   OH228249   3.914   1.833   8.244  0.1046  0.4836  0.4942
 2229TIP3    H128250   3.974   1.879   8.185 -1.3582  2.6017  0.5617
 2229TIP3    H228251   3.963   1.822   8.325  0.6200  1.6641  0.3616
 2230TIP3   OH228252   1.057   3.826   8.521  0.0400  0.8264 -0.0720
 2230TIP3    H128253   1.002   3.851   8.447 -1.6331  2.9496  1.7412
 2230TIP3    H228254   1.134   3.883   8.513 -1.5624  3.4029  1.3853
 2231TIP3   OH228255   2.900   0.584   8.718  0.2426 -0.2162 -0.6559
 2231TIP3    H128256   2.911   0.571   8.624 -0.6774 -1.0311 -0.6667
 2231TIP3    H228257   2.897   0.679   8.729 -1.0205 -0.1160 -1.6431
 2232TIP3   OH228258   1.237   2.718   1.137  0.1608  0.6644  0.1214
 2232TIP3    H128259   1.234   2.785   1.206 -2.2489  0.2880  0.4742
 2232TIP3    H228260   1.275   2.641   1.179  1.7773  1.3840  0.0593
 2233TIP3   OH228261   2.640   0.469   1.200 -0.6256  0.7203  0.1432
 2233TIP3    H128262   2.594   0.390   1.227  3.2784 -1.8636 -0.0835
 2233TIP3    H228263   2.624   0.474   1.105 -0.9913  0.3125  0.1776
 2234TIP3   OH228264   2.621   3.088   1.806  0.1221  0.5957 -0.1400
 2234TIP3    H128265   2.550   3.029   1.779 -0.6288  1.1264  0.6210
 2234TIP3    H228266   2.602   3.108   1.897  0.7839  1.4276 -0.1763
 2235TIP3   OH228267   3.734   0.143   7.427 -0.4232  0.3711 -0.3440
 2235TIP3    H128268   3.701   0.185   7.347 -1.2458  0.9387  0.2699
 2235TIP3    H228269   3.736   0.050   7.407 -1.3394  0.4398 -0.7809
 2236TIP3   OH228270   3.978   3.010   6.763 -0.1859  0.6527 -0.3729
 2236TIP3    H128271   4.047   3.073   6.785  0.2590  0.1239 -0.2300
 2236TIP3    H228272   3.907   3.063   6.728  0.0126  1.2738  0.1594
 2237TIP3   OH228273   4.295   6.043   8.792 -0.4179  0.0289 -0.3342
 2237TIP3    H128274   4.273   5.955   8.822  0.1909 -0.4788 -1.3089
 2237TIP3    H228275   4.388   6.052   8.809 -0.5081  0.5513 -0.0947
 2238TIP3   OH228276   1.574   0.329   0.875  0.1971  0.4049  0.3534
 2238TIP3    H128277   1.603   0.239   0.863  3.0766  1.3895 -0.7409
 2238TIP3    H228278   1.538   0.354   0.790  0.3302  0.5978  0.3536
 2239TIP3   OH228279   0.922   2.880   1.999 -0.0866  0.3259 -0.0322
 2239TIP3    H128280   1.009   2.848   2.023 -0.6427 -1.0522  0.2628
 2239TIP3    H228281   0.905   2.950   2.062 -0.2719 -1.2119  1.7205
 2240TIP3   OH228282   2.943   5.062   8.340 -0.4701 -0.2916 -0.5769
 2240TIP3    H128283   2.972   5.137   8.288  1.6734  0.1787  1.1230
 2240TIP3    H228284   2.968   4.986   8.288  3.8960  0.0942  0.5936
 2241TIP3   OH228285   1.851   5.680   8.225 -0.8157 -0.3756 -1.0512
 2241TIP3    H128286   1.771   5.635   8.252 -1.8499  2.5077  1.1125
 2241TIP3    H228287   1.827   5.723   8.143 -1.3252  0.0594 -0.6767
 2242TIP3   OH228288   4.090   6.557   1.565 -0.2766 -0.3304  0.6985
 2242TIP3    H128289   4.044   6.553   1.482  1.8852  1.0970 -0.6871
 2242TIP3    H228290   4.143   6.476   1.567 -1.0220 -0.8187  1.1634
 2243TIP3   OH228291   0.757   1.380   8.583  0.3614 -0.4140  0.6596
 2243TIP3    H128292   0.678   1.429   8.604  0.7276  0.5488 -0.1222
 2243TIP3    H228293   0.818   1.445   8.549 -0.0648 -1.7150 -3.0605
 2244TIP3   OH228294   4.979   2.927   7.948 -0.3638  0.0287  0.3223
 2244TIP3    H128295   5.059   2.980   7.956 -0.5114  0.5576 -1.3008
 2244TIP3    H228296   5.011   2.841   7.919 -0.2904 -0.1843  1.0098
 2245TIP3   OH228297   5.584   4.219   7.912  0.6700  0.0891  0.0798
 2245TIP3    H128298   5.578   4.265   7.996 -1.9937  1.0492 -0.5479
 2245TIP3    H228299   5.636   4.276   7.857  2.3095 -0.4741  0.9553
 2246TIP3   OH228300   0.756   4.246   0.683  0.0882  0.1027  0.3533
 2246TIP3    H128301   0.809   4.325   0.697  1.4046 -0.7152  0.1473
 2246TIP3    H228302   0.803   4.178   0.732 -1.2717 -0.4710  0.8980
 2247TIP3   OH228303   3.888   2.438   8.246  0.1647  0.6545 -0.2236
 2247TIP3    H128304   3.855   2.365   8.194 -0.4592  0.6592  0.1544
 2247TIP3    H228305   3.964   2.402   8.291  0.9270  0.7463 -1.3848
 2248TIP3   OH228306   4.096   5.858   1.207  0.1947  0.5535 -0.2449
 2248TIP3    H128307   4.181   5.851   1.163 -0.2084  0.6585 -1.0714
 2248TIP3    H228308   4.117   5.875   1.298  1.1442 -2.3058  0.1900
 2249TIP3   OH228309   4.891   5.440   1.599 -0.3582  0.3708  0.0446
 2249TIP3    H128310   4.889   5.367   1.661 -1.5508  0.8349  0.5832
 2249TIP3    H228311   4.974   5.430   1.553  1.1297  0.6925  2.5114
 2250TIP3   OH228312   6.202   1.930   1.629 -0.7454 -0.4698  0.3852
 2250TIP3    H128313   6.144   1.904   1.701 -0.2452  0.1393  1.0181
 2250TIP3    H228314   6.290   1.922   1.664 -0.3795 -1.9296 -0.7524
 2251TIP3   OH228315   3.556   3.892   6.868  0.5412  0.4708  0.2418
 2251TIP3    H128316   3.609   3.824   6.908  1.7851 -0.9684 -3.4317
 2251TIP3    H228317   3.488   3.844   6.820  0.0579  1.9533 -0.6162
 2252TIP3   OH228318   3.836   2.683   0.489  0.0644  0.2834  0.2255
 2252TIP3    H128319   3.776   2.741   0.534 -1.6482 -0.2693 -1.2372
 2252TIP3    H228320   3.861   2.618   0.555 -0.9278  0.5385  0.8619
 2253TIP3   OH228321   2.022   2.952   6.798 -0.3365 -0.4582 -0.2703
 2253TIP3    H128322   1.978   2.971   6.715 -2.1484 -0.0918  0.7203
 2253TIP3    H228323   2.004   2.860   6.815 -0.2649 -0.4448 -0.1176
 2254TIP3   OH228324   3.895   5.789   1.040 -0.3550  0.0903 -0.7936
 2254TIP3    H128325   3.936   5.711   1.003 -0.2793 -0.7031  0.8809
 2254TIP3    H228326   3.961   5.823   1.101 -1.6118 -0.4327  0.9317
 2255TIP3   OH228327   5.538   3.669   2.104  0.1461 -0.2345  0.2231
 2255TIP3    H128328   5.497   3.751   2.131  0.0943 -0.2728  0.2596
 2255TIP3    H228329   5.489   3.601   2.149 -0.2343 -0.3312 -0.3278
 2256TIP3   OH228330   4.807   5.614   0.412  0.0180  0.4593 -0.5864
 2256TIP3    H128331   4.851   5.532   0.392 -1.9490 -0.6015 -0.8972
 2256TIP3    H228332   4.850   5.647   0.491  0.9710 -0.7752 -0.5692
 2257TIP3   OH228333   1.997   6.012   7.346 -0.3617 -0.2741 -0.5032
 2257TIP3    H128334   2.089   6.038   7.353 -0.5532  0.4717 -0.7448
 2257TIP3    H228335   2.001   5.921   7.315  0.3053 -0.5851  0.4547
 2258TIP3   OH228336   0.848   1.023   8.758 -0.1797 -0.3525 -0.5571
 2258TIP3    H128337   0.913   0.968   8.802  0.1129  0.7287  0.4243
 2258TIP3    H228338   0.899   1.080   8.700 -0.3161 -0.0186 -0.3549
 2259TIP3   OH228339   6.756   3.234   1.932 -0.1642 -0.2253  0.0658
 2259TIP3    H128340   6.667   3.225   1.966 -0.7312  0.3894 -1.1793
 2259TIP3    H228341   6.770   3.329   1.925  0.2485 -0.3258 -0.5750
 2260TIP3   OH228342   6.430   3.188   0.926 -0.0993  0.0033  0.1116
 2260TIP3    H128343   6.340   3.218   0.937  0.1735  0.1431  2.4778
 2260TIP3    H228344   6.425   3.093   0.939 -0.0325 -0.1087 -0.6736
 2261TIP3   OH228345   1.696   6.018   1.172 -0.0695  0.7800 -0.3555
 2261TIP3    H128346   1.757   6.082   1.136  0.2633  0.2996 -0.6499
 2261TIP3    H228347   1.703   6.030   1.267  1.3320 -0.0232 -0.3248
 2262TIP3   OH228348   2.275   1.508   8.272 -0.0611 -0.0897  0.4591
 2262TIP3    H128349   2.272   1.519   8.177  0.3146  1.0268  0.5673
 2262TIP3    H228350   2.269   1.413   8.285  0.0556 -0.2684 -0.6853
 2263TIP3   OH228351   3.268   5.660   8.383  0.2721  0.8927 -0.1838
 2263TIP3    H128352   3.363   5.649   8.389  0.0497 -0.2642  2.1911
 2263TIP3    H228353   3.251   5.744   8.425  0.0978  0.0692  1.4704
 2264TIP3   OH228354   1.003   5.513   8.265  0.1990 -0.7525 -0.3535
 2264TIP3    H128355   1.080   5.492   8.213 -0.3883 -1.8364 -0.8303
 2264TIP3    H228356   0.992   5.437   8.323 -0.3854 -0.5124 -0.1442
 2265TIP3   OH228357   4.489   2.066   8.633 -0.3876  0.2871  0.1477
 2265TIP3    H128358   4.440   2.119   8.696 -1.3578 -0.5392  0.1162
 2265TIP3    H228359   4.426   2.049   8.563  0.1243 -0.3067 -0.1710
 2266TIP3   OH228360   4.400   3.572   0.835 -0.6545  0.6145  0.5453
 2266TIP3    H128361   4.384   3.609   0.921  1.5164  0.8502  0.9006
 2266TIP3    H228362   4.461   3.633   0.793  0.6657 -0.9726  0.0252
 2267TIP3   OH228363   1.802   1.530   1.302 -0.1222 -0.0623  0.5649
 2267TIP3    H128364   1.744   1.460   1.332  0.7158 -1.0824 -0.1066
 2267TIP3    H228365   1.843   1.495   1.223  2.1497  0.1953  1.5479
 2268TIP3   OH228366   4.575   3.815   7.672  0.0555 -0.6567  0.3760
 2268TIP3    H128367   4.519   3.741   7.645  0.6986  0.0631 -3.5669
 2268TIP3    H228368   4.662   3.777   7.683  0.1656 -0.7346 -0.6077
 2269TIP3   OH228369   5.523   0.226   0.784  0.3268  0.1405  0.1673
 2269TIP3    H128370   5.436   0.186   0.790 -0.1119  0.7246 -1.8990
 2269TIP3    H228371   5.572   0.185   0.856 -1.0281 -1.7656  0.0814
 2270TIP3   OH228372   2.202   0.213   6.853  0.5849 -0.8751 -0.0442
 2270TIP3    H128373   2.205   0.292   6.799 -1.8129  0.1545  1.1637
 2270TIP3    H228374   2.132   0.160   6.815  1.1759 -1.7460  0.0464
 2271TIP3   OH228375   6.136   4.983   1.017 -0.6012  0.2157  0.6530
 2271TIP3    H128376   6.156   4.962   1.108 -0.1337  2.1971  1.0603
 2271TIP3    H228377   6.054   5.033   1.021  0.8499  2.8173  0.3937
 2272TIP3   OH228378   4.848   2.347   7.954  0.0021 -0.1416 -0.0130
 2272TIP3    H128379   4.887   2.432   7.976 -0.8249  0.2858 -0.1376
 2272TIP3    H228380   4.869   2.334   7.862  0.0665 -0.0377 -0.0131
 2273TIP3   OH228381   6.334   4.212   0.101 -0.7425 -0.4096  0.2481
 2273TIP3    H128382   6.398   4.200   0.171 -1.8125  0.8866  1.5103
 2273TIP3    H228383   6.358   4.295   0.060 -1.3558 -0.1278  0.4523
 2274TIP3   OH228384   0.072   6.656   8.662  0.0715 -0.1440  0.5079
 2274TIP3    H128385   0.076   6.749   8.639 -0.2246 -0.0028  0.9905
 2274TIP3    H228386  -0.022   6.636   8.667  0.1320 -0.3961  0.6777
 2275TIP3   OH228387   6.116   4.075   8.165 -0.2582  0.0554  0.3703
 2275TIP3    H128388   6.144   3.990   8.199 -0.2239  0.2451  0.8200
 2275TIP3    H228389   6.197   4.119   8.140 -0.3445 -0.4999 -0.9739
 2276TIP3   OH228390   0.399   4.929   7.328 -0.2693  0.1578  0.2557
 2276TIP3    H128391   0.396   5.009   7.381 -0.5789 -0.6271  1.4553
 2276TIP3    H228392   0.343   4.867   7.375 -0.9754 -0.4106 -1.2670
 2277TIP3   OH228393   2.561   5.279   0.063  0.8077  0.5162  0.5976
 2277TIP3    H128394   2.606   5.322   0.136  0.9700 -0.6709  1.2066
 2277TIP3    H228395   2.480   5.245   0.101  0.3619  0.8523 -0.0364
 2278TIP3   OH228396   4.221   2.187   8.158  0.0567 -0.5671  0.0985
 2278TIP3    H128397   4.180   2.261   8.113 -1.0011 -0.3749  1.3186
 2278TIP3    H228398   4.307   2.179   8.117 -0.7015 -0.1621 -1.6632
 2279TIP3   OH228399   3.822   1.187   1.848 -0.1981 -0.1138 -0.1939
 2279TIP3    H128400   3.885   1.116   1.861 -1.4526 -1.5833 -1.6519
 2279TIP3    H228401   3.875   1.261   1.816  1.4715  0.4786  3.4742
 2280TIP3   OH228402   0.909   0.812   7.322 -0.2797 -0.5348 -0.2302
 2280TIP3    H128403   0.973   0.807   7.251 -0.7917 -1.0328 -0.6620
 2280TIP3    H228404   0.826   0.834   7.279  0.1566  3.5389  0.6477
 2281TIP3   OH228405   2.011   3.459   7.398  0.1093 -0.2036 -0.0092
 2281TIP3    H128406   2.033   3.509   7.476 -0.6592  1.7859 -0.9872
 2281TIP3    H228407   2.084   3.473   7.338 -1.0793  1.7549 -1.1380
 2282TIP3   OH228408   3.018   1.962   7.263 -0.3952  0.6839 -0.2399
 2282TIP3    H128409   3.103   1.989   7.228 -0.7186  0.8846 -0.9054
 2282TIP3    H228410   2.972   2.045   7.278 -0.2893  0.5932  0.6009
 2283TIP3   OH228411   1.799   2.157   1.832  0.0625  0.0917 -0.4596
 2283TIP3    H128412   1.810   2.182   1.923  1.3684 -1.2522 -0.1962
 2283TIP3    H228413   1.874   2.197   1.787 -1.6204  2.3900 -1.3582
 2284TIP3   OH228414   3.566   2.437   1.769 -0.2704  0.9928 -0.4696
 2284TIP3    H128415   3.655   2.414   1.741 -0.5272 -0.5149 -0.1535
 2284TIP3    H228416   3.576   2.520   1.815  0.9301  0.9782 -0.6614
 2285TIP3   OH228417   3.694   3.930   8.545  1.2683  0.4535 -0.4848
 2285TIP3    H128418   3.720   3.842   8.573  1.3681  0.2634 -1.1658
 2285TIP3    H228419   3.604   3.939   8.577  1.5111  0.4033  0.2494
 2286TIP3   OH228420   5.150   5.415   1.484  0.0399 -0.5486 -0.3314
 2286TIP3    H128421   5.213   5.443   1.417 -0.4869  0.3128 -0.4904
 2286TIP3    H228422   5.185   5.333   1.518  1.2487 -0.0833 -0.4157
 2287TIP3   OH228423   1.051   6.172   0.505  0.3448 -0.2951 -0.0207
 2287TIP3    H128424   1.124   6.112   0.517  0.7613  0.3458  0.7176
 2287TIP3    H228425   1.080   6.231   0.434  0.9731  0.5725  0.9275
 2288TIP3   OH228426   0.456   3.649   2.363  0.1668 -0.2191  0.6794
 2288TIP3    H128427   0.530   3.597   2.331  1.1901  0.6245  1.5634
 2288TIP3    H228428   0.479   3.739   2.339 -0.0622  0.1696  1.8414
 2289TIP3   OH228429   5.951   3.910   6.269 -0.0013 -0.3411  0.1394
 2289TIP3    H128430   5.864   3.949   6.259  0.4350  0.9497  1.0109
 2289TIP3    H228431   5.935   3.819   6.293 -1.0694 -0.9354 -2.4739
 2290TIP3   OH228432   5.866   2.021   0.032 -0.2077  0.5651  0.3976
 2290TIP3    H128433   5.830   1.942   0.073  0.0206 -0.0321 -0.5325
 2290TIP3    H228434   5.884   1.995  -0.058 -1.9737  2.2371 -0.5027
 2291TIP3   OH228435   2.440   4.608   8.808 -0.4390  0.2436 -0.2901
 2291TIP3    H128436   2.394   4.692   8.807  0.3719  0.7084  0.5303
 2291TIP3    H228437   2.370   4.542   8.812 -1.1031  0.8410 -1.6190
 2292TIP3   OH228438   2.804   5.383   1.136  0.0836 -0.3978 -0.5047
 2292TIP3    H128439   2.818   5.295   1.102 -0.4893 -0.6709 -0.0614
 2292TIP3    H228440   2.873   5.436   1.096 -0.9185 -0.5714 -2.5632
 2293TIP3   OH228441   2.272   5.623   2.390 -0.1619  0.4562  0.0669
 2293TIP3    H128442   2.220   5.551   2.356 -0.2839  0.3509  0.4631
 2293TIP3    H228443   2.363   5.592   2.383 -0.2125  0.2694  0.2180
 2294TIP3   OH228444   0.652   1.975   6.853 -0.4012 -0.3175  0.2129
 2294TIP3    H128445   0.616   1.887   6.837  1.4863 -0.9414 -0.8021
 2294TIP3    H228446   0.601   2.032   6.796 -1.0524 -0.8707  0.2180
 2295TIP3   OH228447   3.245   5.139   8.334 -0.2642  0.5529  0.3648
 2295TIP3    H128448   3.326   5.189   8.345  0.5337 -0.8725  1.3046
 2295TIP3    H228449   3.213   5.124   8.424  0.1377 -1.5272  0.2155
 2296TIP3   OH228450   2.235   6.612   8.271  0.3676  0.0592 -0.2047
 2296TIP3    H128451   2.326   6.581   8.271  0.0263 -1.1287  2.1545
 2296TIP3    H228452   2.183   6.535   8.293 -1.3663  0.5456 -2.1909
 2297TIP3   OH228453   4.158   1.825   0.427 -0.1315  0.0799 -0.2453
 2297TIP3    H128454   4.120   1.816   0.514  1.2969 -1.5691  0.2569
 2297TIP3    H228455   4.206   1.908   0.429 -1.6992  1.0276 -0.1485
 2298TIP3   OH228456   2.200   6.240   1.652  0.8378 -0.2899 -0.1539
 2298TIP3    H128457   2.118   6.194   1.669  0.8582 -0.8831 -1.5233
 2298TIP3    H228458   2.267   6.171   1.651  0.8184 -0.3733 -2.5803
 2299TIP3   OH228459   0.544   1.704   6.867  0.2248  0.5215  0.0733
 2299TIP3    H128460   0.611   1.637   6.856  1.4255  1.8366 -1.0205
 2299TIP3    H228461   0.534   1.712   6.962  1.5681  0.2301  0.2679
 2300TIP3   OH228462   1.583   1.620   1.051  0.1453 -0.9014 -0.3879
 2300TIP3    H128463   1.677   1.616   1.037  0.0482 -1.6720 -0.8456
 2300TIP3    H228464   1.545   1.604   0.965 -0.4215 -2.6666  0.1462
 2301TIP3   OH228465   4.894   3.534   7.156 -0.1817  0.0613  0.4308
 2301TIP3    H128466   4.822   3.486   7.114 -0.2755 -0.9933  1.7425
 2301TIP3    H228467   4.970   3.476   7.147 -0.1221 -0.0137  1.3848
 2302TIP3   OH228468   0.462   3.032   7.689  0.7044 -0.3859 -0.0581
 2302TIP3    H128469   0.543   2.999   7.650  2.3371  1.3051  1.6883
 2302TIP3    H228470   0.467   3.006   7.781 -0.3442  0.4371  0.2607
 2303TIP3   OH228471   2.193   2.423   1.588  0.0540 -0.7850  0.3000
 2303TIP3    H128472   2.212   2.448   1.678  0.4946 -1.1514  0.3165
 2303TIP3    H228473   2.230   2.493   1.534 -0.5693 -0.3606  0.4116
 2304TIP3   OH228474   6.749   6.699   1.033 -0.3206 -0.1038 -0.5837
 2304TIP3    H128475   6.833   6.672   0.994  0.9331 -0.4857  2.0987
 2304TIP3    H228476   6.756   6.794   1.042  0.5018 -0.2730  0.9147
 2305TIP3   OH228477   3.410   3.635   1.817 -0.0094  0.3907 -0.1978
 2305TIP3    H128478   3.344   3.566   1.819 -0.0281  0.2052 -2.8936
 2305TIP3    H228479   3.362   3.716   1.836 -0.4197 -0.0709  0.7511
 2306TIP3   OH228480   5.287   4.949   0.849  0.2509  0.0515  0.4535
 2306TIP3    H128481   5.358   4.891   0.876  1.3741  0.3971 -1.5420
 2306TIP3    H228482   5.211   4.892   0.840  0.9205 -0.8210  0.1667
 2307TIP3   OH228483   2.306   1.236   8.300 -0.4488  0.0635 -0.1196
 2307TIP3    H128484   2.327   1.178   8.373  1.2734  0.8704  0.0635
 2307TIP3    H228485   2.389   1.252   8.256 -0.6905  2.9566  0.2681
 2308TIP3   OH228486   1.834   6.551   7.918 -0.5857  0.5023  0.5820
 2308TIP3    H128487   1.898   6.603   7.966  0.6891  0.3549 -0.8658
 2308TIP3    H228488   1.881   6.524   7.838 -2.8257  1.4314 -1.1504
 2309TIP3   OH228489   5.086   5.025   1.190  0.6365 -0.2103 -0.1055
 2309TIP3    H128490   5.037   5.065   1.117 -0.3233 -1.2756 -0.0783
 2309TIP3    H228491   5.178   5.036   1.166  0.3804  1.1062 -0.5675
 2310TIP3   OH228492   0.408   3.458   7.612  0.0879  0.1348  0.4412
 2310TIP3    H128493   0.357   3.505   7.678 -0.1048 -0.4175  0.6952
 2310TIP3    H228494   0.492   3.442   7.655  0.9107  1.9852 -0.3507
 2311TIP3   OH228495   5.445   4.842   7.754  0.4142 -0.1961  0.1877
 2311TIP3    H128496   5.489   4.861   7.837  1.0118 -0.3885 -0.0810
 2311TIP3    H228497   5.513   4.802   7.700  0.9250  2.7785 -1.5363
 2312TIP3   OH228498   3.901   2.173   8.418  0.4700  1.0039 -0.1529
 2312TIP3    H128499   3.975   2.233   8.420  1.5459 -0.2922 -0.2380
 2312TIP3    H228500   3.869   2.171   8.508 -1.0421  3.4180 -0.5552
 2313TIP3   OH228501   2.857   2.230   8.608  0.1771 -0.0156 -0.3554
 2313TIP3    H128502   2.864   2.235   8.703 -0.1574 -0.3121 -0.3096
 2313TIP3    H228503   2.801   2.304   8.584  2.1993  1.4974 -0.5778
 2314TIP3   OH228504   6.292   3.156   7.794  0.7047 -0.1548 -0.2163
 2314TIP3    H128505   6.254   3.138   7.880 -0.9010 -0.5826 -0.9911
 2314TIP3    H228506   6.384   3.130   7.803  1.2304  2.0145  2.0599
 2315TIP3   OH228507   3.098   1.618   1.079 -0.1515 -0.1324 -0.1644
 2315TIP3    H128508   3.012   1.574   1.081  0.5755 -1.6030  1.1402
 2315TIP3    H228509   3.111   1.639   0.987 -0.8462 -2.1516 -0.7950
 2316TIP3   OH228510   6.063   4.601   0.366  0.1773  0.3014  0.1209
 2316TIP3    H128511   6.076   4.563   0.279 -0.8503 -1.2063  0.5870
 2316TIP3    H228512   6.059   4.695   0.350 -2.4476 -0.0214 -1.8801
 2317TIP3   OH228513   1.056   5.968   6.702 -0.2902 -0.1367  0.3144
 2317TIP3    H128514   1.136   5.944   6.749  0.4186 -0.3277 -0.9402
 2317TIP3    H228515   1.084   6.035   6.640 -0.7175 -1.4524 -1.3706
 2318TIP3   OH228516   6.493   6.329   8.754  0.1861  0.1904 -0.1843
 2318TIP3    H128517   6.531   6.301   8.671 -0.4215 -1.1295 -0.0448
 2318TIP3    H228518   6.437   6.257   8.780 -1.0234  1.3376  0.5031
 2319TIP3   OH228519   4.629   6.342   7.478 -0.0496 -0.5587 -0.4239
 2319TIP3    H128520   4.585   6.288   7.544 -0.4667  0.6904  0.3666
 2319TIP3    H228521   4.560   6.402   7.447  0.5620 -0.0143 -0.7434
 2320TIP3   OH228522   6.241   3.754   1.175  0.1124  0.4823  0.3149
 2320TIP3    H128523   6.292   3.709   1.108  1.8072  0.4979  1.5382
 2320TIP3    H228524   6.261   3.707   1.256 -1.0344  1.1375  1.0078
 2321TIP3   OH228525   1.734   4.774   2.528 -0.2083  0.5423 -0.0393
 2321TIP3    H128526   1.653   4.741   2.489 -0.1769  1.6331 -1.0784
 2321TIP3    H228527   1.799   4.769   2.457 -0.3977  3.5271 -0.5183
 2322TIP3   OH228528   0.227   2.835   0.333 -0.0223 -0.0464  0.2583
 2322TIP3    H128529   0.282   2.806   0.259 -0.2037  3.2235 -1.3593
 2322TIP3    H228530   0.284   2.827   0.409  1.1469 -0.9429 -0.6681
 2323TIP3   OH228531   2.598   4.927   1.048 -0.2161  0.2086  0.1103
 2323TIP3    H128532   2.684   4.969   1.040  0.6018 -0.4826  3.5633
 2323TIP3    H228533   2.543   4.992   1.092 -0.7825 -0.1943  0.0138
 2324TIP3   OH228534   6.207   0.601   0.554  0.3689 -0.3382 -0.1595
 2324TIP3    H128535   6.240   0.684   0.520  0.9469 -0.1911  0.7195
 2324TIP3    H228536   6.260   0.534   0.511  1.3748 -0.1358  0.7164
 2325TIP3   OH228537   2.743   2.715   1.946 -0.4885  0.0206  0.4770
 2325TIP3    H128538   2.759   2.809   1.954 -0.5043 -0.0364  1.2127
 2325TIP3    H228539   2.740   2.683   2.036  1.7332 -1.0784  0.2301
 2326TIP3   OH228540   4.442   0.316   2.072  0.2510  0.2311 -0.3884
 2326TIP3    H128541   4.470   0.261   2.000 -1.5453 -0.0198 -0.9391
 2326TIP3    H228542   4.369   0.269   2.112  1.2161  0.3314  1.6623
 2327TIP3   OH228543   2.538   5.176   1.748 -0.1197 -0.2075 -0.2633
 2327TIP3    H128544   2.463   5.234   1.765 -0.3723 -0.5483 -0.1997
 2327TIP3    H228545   2.576   5.209   1.667 -0.9549 -0.6563 -0.8505
 2328TIP3   OH228546   5.911   2.943   7.002 -0.9075 -0.6856  0.0126
 2328TIP3    H128547   5.963   2.962   7.080 -1.7207  2.2562 -0.0305
 2328TIP3    H228548   5.960   2.985   6.931 -3.0116  1.8735 -0.0783
 2329TIP3   OH228549   2.940   5.429   8.270 -0.1438  0.5636  0.7777
 2329TIP3    H128550   2.981   5.367   8.211 -0.1687  0.6822  0.6343
 2329TIP3    H228551   3.003   5.441   8.341 -0.4983 -0.2686  1.2424
 2330TIP3   OH228552   3.477   6.157   0.407 -0.5160 -0.1562  0.6836
 2330TIP3    H128553   3.449   6.074   0.370 -0.3525  0.2908 -0.4950
 2330TIP3    H228554   3.562   6.138   0.447 -0.3217 -0.4983  0.1276
 2331TIP3   OH228555   4.531   1.430   0.483  0.6217 -0.1656 -0.5583
 2331TIP3    H128556   4.614   1.413   0.438 -0.0324 -0.0557 -1.8790
 2331TIP3    H228557   4.499   1.343   0.507  0.6297 -0.2947 -0.9999
 2332TIP3   OH228558   2.394   5.800   7.380 -0.0931  0.6905  0.3559
 2332TIP3    H128559   2.419   5.828   7.292  0.0790 -0.2068  0.1130
 2332TIP3    H228560   2.398   5.705   7.377  2.1400  0.6675  1.9889
 2333TIP3   OH228561   5.016   0.970   0.994 -0.0691  0.1890 -0.0846
 2333TIP3    H128562   5.015   0.888   0.943 -0.5679 -0.4239  0.8753
 2333TIP3    H228563   5.092   1.018   0.961  0.1808 -0.6264 -0.7291
 2334TIP3   OH228564   2.323   4.537   0.319  0.7686  0.7651 -0.2202
 2334TIP3    H128565   2.413   4.524   0.288  0.6788  0.2840 -0.2934
 2334TIP3    H228566   2.305   4.459   0.371  1.1117  1.7838  1.5157
 2335TIP3   OH228567   2.264   5.131   8.004  0.1443  0.0608  0.3228
 2335TIP3    H128568   2.340   5.120   7.948 -0.1841 -0.5585 -0.0087
 2335TIP3    H228569   2.192   5.151   7.944  0.2611  1.8458  0.7170
 2336TIP3   OH228570   0.466   1.278   8.487 -0.3934  0.4990  0.0920
 2336TIP3    H128571   0.459   1.368   8.456 -1.6209  0.4523  0.1930
 2336TIP3    H228572   0.418   1.277   8.570  0.7230  0.0489  0.7473
 2337TIP3   OH228573   0.054   3.158   0.043  0.2892  0.3899 -0.0126
 2337TIP3    H128574   0.012   3.080   0.080 -1.3664  0.7386 -1.0460
 2337TIP3    H228575  -0.009   3.190  -0.022  0.7691  2.7862  0.6110
 2338TIP3   OH228576   3.030   6.663   1.552  0.0714  0.0088  1.1508
 2338TIP3    H128577   2.935   6.654   1.544  0.4345 -3.1885 -2.7796
 2338TIP3    H228578   3.051   6.618   1.634 -1.7409  0.4273  1.8998
 2339TIP3   OH228579   4.722   5.840   8.305 -0.4418 -0.1551  0.0331
 2339TIP3    H128580   4.637   5.867   8.270 -0.3195  0.7084  0.3847
 2339TIP3    H228581   4.786   5.879   8.246 -0.2580  0.4999  0.6542
 2340TIP3   OH228582   1.216   0.335   7.445  0.0401  0.2405 -0.3705
 2340TIP3    H128583   1.175   0.353   7.360 -1.5874  0.9330  0.5149
 2340TIP3    H228584   1.248   0.420   7.474 -0.8810  0.3439  0.4120
 2341TIP3   OH228585   0.256   1.664   1.671 -0.1397  0.3601  0.0978
 2341TIP3    H128586   0.344   1.703   1.665 -0.1067  0.1285 -1.0453
 2341TIP3    H228587   0.198   1.729   1.630 -0.3837  0.1520  0.1110
 2342TIP3   OH228588   4.925   6.060   7.146 -0.3163  0.3498 -0.1940
 2342TIP3    H128589   4.889   6.120   7.212 -0.3775  0.6596 -0.5086
 2342TIP3    H228590   4.859   6.058   7.076 -0.6792 -0.6858  0.1530
 2343TIP3   OH228591   5.807   0.542   8.380  0.4327 -0.1101  0.1996
 2343TIP3    H128592   5.862   0.499   8.315  0.0821 -0.4844  0.1464
 2343TIP3    H228593   5.721   0.502   8.369  0.4576 -0.4510  1.1538
 2344TIP3   OH228594   2.374   4.967   0.794 -0.2728  0.0536 -0.2911
 2344TIP3    H128595   2.305   4.913   0.755  0.3175 -1.3274  0.5053
 2344TIP3    H228596   2.327   5.029   0.850 -0.9708  0.4261 -1.2663
 2345TIP3   OH228597   2.511   4.125   1.471 -0.1066  0.6365 -0.1750
 2345TIP3    H128598   2.509   4.207   1.422  1.0212  0.7076 -0.1319
 2345TIP3    H228599   2.561   4.144   1.550  0.7335 -0.2345 -0.4689
 2346TIP3   OH228600   4.786   0.933   8.037  0.0616  0.0686  0.5877
 2346TIP3    H128601   4.695   0.904   8.042  0.1391 -0.2931 -0.1379
 2346TIP3    H228602   4.821   0.916   8.125 -0.0535 -1.4896  0.3524
 2347TIP3   OH228603   2.033   0.871   8.271  0.0434 -0.5210 -0.1565
 2347TIP3    H128604   2.044   0.863   8.366  0.6997 -2.0547 -0.3335
 2347TIP3    H228605   2.120   0.852   8.236 -0.5380 -1.4625 -1.1215
 2348TIP3   OH228606   0.659   2.758   2.221  0.4162 -0.1199  0.8531
 2348TIP3    H128607   0.737   2.814   2.221  0.3321  0.0014  1.0986
 2348TIP3    H228608   0.616   2.778   2.304 -0.3971  0.5432  0.2976
 2349TIP3   OH228609   0.895   5.380   0.309 -0.6872  0.2947  0.5285
 2349TIP3    H128610   0.904   5.475   0.316  0.6019  0.3603 -1.3966
 2349TIP3    H228611   0.854   5.365   0.224  0.5772 -0.8993  0.0865
 2350TIP3   OH228612   1.655   3.041   7.234  0.3523 -0.3834 -0.2643
 2350TIP3    H128613   1.568   3.021   7.268  0.9906 -0.6803  1.3050
 2350TIP3    H228614   1.712   2.973   7.271  1.5676  0.9107  0.3580
 2351TIP3   OH228615   3.735   5.974   1.480  0.8040 -0.2433  0.1757
 2351TIP3    H128616   3.813   5.959   1.533  1.9009  0.2753 -1.2311
 2351TIP3    H228617   3.762   6.038   1.414 -1.7557  2.7523  1.7349
 2352TIP3   OH228618   4.196   2.890   6.565  0.8241  0.6584 -0.1459
 2352TIP3    H128619   4.102   2.874   6.559  0.9263 -0.1962  0.3800
 2352TIP3    H228620   4.205   2.985   6.555  0.1235  0.5185 -2.6097
 2353TIP3   OH228621   5.384   2.947   0.979  0.6257 -0.6356  0.0090
 2353TIP3    H128622   5.303   2.996   0.959  1.1800  0.5172  0.5136
 2353TIP3    H228623   5.386   2.878   0.913  0.6036  0.9545 -1.7340
 2354TIP3   OH228624   5.916   3.036   8.123  0.0938 -0.1257  0.1474
 2354TIP3    H128625   5.913   3.060   8.215  1.4415 -0.2011  0.2398
 2354TIP3    H228626   5.827   3.049   8.091 -0.1072  1.1621  1.1517
 2355TIP3   OH228627   2.601   3.253   1.025 -0.1015  0.3907  0.0918
 2355TIP3    H128628   2.664   3.323   1.044 -0.4995  0.5372  0.9031
 2355TIP3    H228629   2.624   3.224   0.936 -0.0541  1.6834 -0.3418
 2356TIP3   OH228630   6.629   5.790   8.718 -0.1059 -0.0385 -0.1695
 2356TIP3    H128631   6.682   5.841   8.778  1.3371 -1.1167 -0.4764
 2356TIP3    H228632   6.571   5.739   8.775 -0.8193  1.1174  0.1671
 2357TIP3   OH228633   1.690   0.082   8.254  0.0670 -0.2139 -0.3253
 2357TIP3    H128634   1.674   0.011   8.317  1.8655 -1.9441 -1.6956
 2357TIP3    H228635   1.747   0.143   8.301 -3.0331  1.5007  1.5566
 2358TIP3   OH228636   1.722   0.858   7.271  0.3622 -0.1242  0.3186
 2358TIP3    H128637   1.673   0.933   7.238  0.4612  0.0249  0.5077
 2358TIP3    H228638   1.655   0.794   7.295  0.2876 -0.2030 -0.0935
 2359TIP3   OH228639   1.288   6.030   0.572 -0.1562 -0.0362 -0.2039
 2359TIP3    H128640   1.286   5.942   0.534 -0.1051  0.7524 -2.1579
 2359TIP3    H228641   1.335   6.083   0.508 -1.2579  1.6717  0.3148
 2360TIP3   OH228642   5.071   5.048   8.313  0.2749 -0.2541 -0.2122
 2360TIP3    H128643   5.085   5.136   8.347 -0.1377 -1.0857  2.3468
 2360TIP3    H228644   4.980   5.048   8.283  0.5347  0.3997 -1.0496
 2361TIP3   OH228645   0.010   3.513   1.907  0.3484  0.2181 -0.2384
 2361TIP3    H128646  -0.018   3.602   1.882 -0.3973  0.5397  1.5747
 2361TIP3    H228647   0.022   3.518   2.002  1.2534 -1.3942 -0.2414
 2362TIP3   OH228648   1.970   0.764   1.054  0.7924 -0.7473  0.6491
 2362TIP3    H128649   2.065   0.755   1.047  0.9173 -0.0451  1.2308
 2362TIP3    H228650   1.934   0.682   1.020  1.5976 -0.9003  0.1639
 2363TIP3   OH228651   2.230   0.624   7.146  0.0164 -0.0343  0.2078
 2363TIP3    H128652   2.231   0.529   7.142 -2.1021 -0.1262  0.7422
 2363TIP3    H228653   2.204   0.643   7.236 -0.5452  1.0312 -0.1688
 2364TIP3   OH228654   0.835   1.900   7.892 -0.4639 -0.5418  0.4165
 2364TIP3    H128655   0.857   1.882   7.983 -0.8286 -0.0190  0.6128
 2364TIP3    H228656   0.739   1.909   7.892 -0.3073  1.7088  0.4040
 2365TIP3   OH228657   4.157   6.134   1.022 -0.1160 -0.2714  0.1572
 2365TIP3    H128658   4.244   6.100   1.042  0.1656 -0.1090 -0.7376
 2365TIP3    H228659   4.100   6.094   1.087  0.5272 -0.8826  0.3576
 2366TIP3   OH228660   1.770   3.977   8.782  0.0484 -0.4394 -0.5075
 2366TIP3    H128661   1.751   3.888   8.754  0.7368 -0.6181 -0.4161
 2366TIP3    H228662   1.758   4.030   8.703 -0.5301 -0.5771 -0.5224
 2367TIP3   OH228663   4.880   6.711   7.044 -0.1887 -0.3971  0.6445
 2367TIP3    H128664   4.864   6.617   7.042  0.7087 -0.5849 -2.4516
 2367TIP3    H228665   4.974   6.720   7.029 -0.1727  1.0144  1.3748
 2368TIP3   OH228666   2.600   2.029   0.411 -0.2925  0.2025 -0.2910
 2368TIP3    H128667   2.555   2.049   0.493 -0.7274 -0.3331 -0.3935
 2368TIP3    H228668   2.681   1.987   0.438  0.1037  1.0659 -0.1077
 2369TIP3   OH228669   6.495   4.273   7.805  0.1577  0.3535 -0.4504
 2369TIP3    H128670   6.409   4.249   7.771  0.3238  1.8627 -2.0824
 2369TIP3    H228671   6.545   4.191   7.804 -1.1121 -0.4516  0.1277
 2370TIP3   OH228672   0.791   0.463   7.584 -0.3961  0.2866  0.1588
 2370TIP3    H128673   0.858   0.531   7.581 -0.9622  0.8169 -2.1450
 2370TIP3    H228674   0.839   0.381   7.569  0.1945  0.1706  2.3129
 2371TIP3   OH228675   4.092   2.993   8.261 -0.3678  0.5300  0.1055
 2371TIP3    H128676   4.157   3.059   8.236  0.2942 -0.3554 -0.5931
 2371TIP3    H228677   4.122   2.913   8.217 -2.4598  0.3148 -1.0294
 2372TIP3   OH228678   6.458   0.952   7.622  0.1383 -0.9175 -0.7209
 2372TIP3    H128679   6.477   1.027   7.678 -0.4429 -1.0541 -0.3366
 2372TIP3    H228680   6.513   0.882   7.657  0.7542 -0.6582 -1.1394
 2373TIP3   OH228681   4.255   2.401   8.774  0.2682 -0.2491  0.1870
 2373TIP3    H128682   4.159   2.400   8.776  0.2515 -0.7993 -0.5936
 2373TIP3    H228683   4.277   2.442   8.691  0.7199  0.0593  0.4520
 2374TIP3   OH228684   5.483   0.666   7.391  0.2834  0.2145  0.3619
 2374TIP3    H128685   5.463   0.633   7.478  2.1270 -1.1077  0.3277
 2374TIP3    H228686   5.529   0.749   7.405  1.0821 -0.2790  0.6725
 2375TIP3   OH228687   2.161   2.679   0.323  0.5171  0.4471  0.3485
 2375TIP3    H128688   2.166   2.759   0.375  0.1070 -0.9065  2.5887
 2375TIP3    H228689   2.071   2.649   0.334  0.6594 -0.3170 -0.4777
 2376TIP3   OH228690   5.706   1.963   7.876  0.1182 -0.1545 -0.1538
 2376TIP3    H128691   5.751   1.884   7.908  0.3786  0.4293  0.9927
 2376TIP3    H228692   5.613   1.944   7.890  0.1966 -0.1370  0.4386
 2377TIP3   OH228693   2.822   5.079   0.740 -0.0076 -0.2217  0.3830
 2377TIP3    H128694   2.886   5.025   0.693  0.8072  0.0825  1.1154
 2377TIP3    H228695   2.737   5.040   0.719  0.4359 -0.7882 -0.4040
 2378TIP3   OH228696   0.012   2.816   1.554 -0.2493 -0.1394 -0.5194
 2378TIP3    H128697   0.093   2.801   1.506  0.1305 -2.2632  0.6610
 2378TIP3    H228698  -0.030   2.730   1.559 -2.6652  0.8856 -1.1508
 2379TIP3   OH228699   1.853   0.299   8.338 -1.3544  0.3107  0.1109
 2379TIP3    H128700   1.804   0.381   8.349 -1.1341  0.3044  1.2641
 2379TIP3    H228701   1.872   0.270   8.427 -1.2254 -0.8860 -0.2881
 2380TIP3   OH228702   4.909   3.314   0.457 -0.2101 -0.3161 -0.7503
 2380TIP3    H128703   4.917   3.332   0.363  3.3646  2.7453 -0.0762
 2380TIP3    H228704   4.920   3.400   0.498 -2.0080 -1.5103  2.5502
 2381TIP3   OH228705   6.086   4.005   8.506  0.4571  0.3416  0.3455
 2381TIP3    H128706   6.034   4.068   8.554 -1.0645 -0.6196  0.0346
 2381TIP3    H228707   6.022   3.954   8.456  1.7409 -0.5664 -0.4423
 2382TIP3   OH228708   2.533   1.444   1.331 -0.4139 -0.6542 -0.5579
 2382TIP3    H128709   2.472   1.414   1.264 -0.1793 -0.2180 -0.9795
 2382TIP3    H228710   2.614   1.395   1.314  0.1667  0.5994 -1.6319
 2383TIP3   OH228711   2.151   1.258   0.220 -0.4453 -0.2881  0.5683
 2383TIP3    H128712   2.229   1.213   0.254 -0.5028  0.5759  1.9090
 2383TIP3    H228713   2.167   1.265   0.125  0.8193 -0.6681  0.7319
 2384TIP3   OH228714   2.408   6.269   8.170 -0.4267  0.5473  1.6572
 2384TIP3    H128715   2.491   6.221   8.171 -0.6855  0.0407  0.4004
 2384TIP3    H228716   2.433   6.359   8.149 -0.1875  0.4175  1.3877
 2385TIP3   OH228717   2.540   2.748   7.904  0.4802  0.4211 -0.6872
 2385TIP3    H128718   2.501   2.835   7.891  2.3128  1.3235 -0.4112
 2385TIP3    H228719   2.471   2.697   7.948  0.0971  2.4036  1.1769
 2386TIP3   OH228720   3.259   3.360   0.832  0.1532  1.1732  0.3195
 2386TIP3    H128721   3.205   3.318   0.765 -0.8519  3.2740 -0.2743
 2386TIP3    H228722   3.339   3.309   0.834 -0.7119 -0.3058 -0.8532
 2387TIP3   OH228723   0.496   0.515   6.992 -0.7676  0.0292 -0.0541
 2387TIP3    H128724   0.534   0.460   6.924  0.9275 -0.1015  0.9493
 2387TIP3    H228725   0.409   0.539   6.958 -0.7478 -1.6077 -1.3716
 2388TIP3   OH228726   5.841   1.949   1.303 -0.2159  0.4902 -0.1231
 2388TIP3    H128727   5.798   1.865   1.289  1.5356 -0.4974  0.1624
 2388TIP3    H228728   5.872   1.945   1.394 -1.2468  2.0136  0.3497
 2389TIP3   OH228729   2.436   5.972   0.587  0.5102  0.0792  0.7321
 2389TIP3    H128730   2.512   5.998   0.535  0.4494 -1.9204 -0.4522
 2389TIP3    H228731   2.371   5.944   0.523 -0.4070 -0.3676  1.8150
 2390TIP3   OH228732   3.024   6.389   6.737 -0.7046  0.0009 -0.3307
 2390TIP3    H128733   3.084   6.345   6.676  0.5943  0.8537  0.2957
 2390TIP3    H228734   2.937   6.363   6.707 -0.0427 -1.2762 -1.2690
 2391TIP3   OH228735   2.372   3.675   8.356  0.1276 -0.1356  0.1513
 2391TIP3    H128736   2.370   3.658   8.450  2.3079  0.2834  0.3364
 2391TIP3    H228737   2.413   3.597   8.319 -0.5255 -0.2055 -0.4250
 2392TIP3   OH228738   3.979   1.881   7.205  0.3118  0.0716 -0.8195
 2392TIP3    H128739   3.937   1.902   7.288 -0.0604 -1.8289 -0.4854
 2392TIP3    H228740   3.907   1.861   7.145  0.6491 -0.9333 -0.9043
 2393TIP3   OH228741   5.685   0.436   6.794  0.0862  0.3152 -0.0663
 2393TIP3    H128742   5.610   0.478   6.752 -0.4352 -0.4027  0.1169
 2393TIP3    H228743   5.715   0.371   6.731 -0.6251 -0.6837  0.5882
 2394TIP3   OH228744   3.029   3.578   8.678  0.1222  0.6032  0.2787
 2394TIP3    H128745   2.958   3.544   8.734 -0.4077  1.0078 -0.1342
 2394TIP3    H228746   3.021   3.673   8.686 -2.0619  0.8548 -2.9461
 2395TIP3   OH228747   2.840   4.244   1.349 -0.0916  0.0339 -0.4725
 2395TIP3    H128748   2.755   4.246   1.305 -0.3280  0.7342  0.0081
 2395TIP3    H228749   2.898   4.202   1.285 -1.0869 -1.7627 -0.2536
 2396TIP3   OH228750   0.236   1.873   7.571 -0.0999 -0.2475 -0.0561
 2396TIP3    H128751   0.235   1.965   7.547  1.5703 -0.1984 -0.0336
 2396TIP3    H228752   0.307   1.835   7.520 -0.4377 -1.4263  0.3044
 2397TIP3   OH228753   2.477   6.206   7.584 -0.1868  0.0134 -0.2086
 2397TIP3    H128754   2.454   6.267   7.514  0.3658  0.2520 -0.1893
 2397TIP3    H228755   2.504   6.262   7.657  1.9709 -0.2322 -0.7534
 2398TIP3   OH228756   4.317   3.071   0.510  0.0572 -0.0023 -0.5543
 2398TIP3    H128757   4.345   3.154   0.548 -1.6164  0.7848 -0.9815
 2398TIP3    H228758   4.285   3.094   0.423 -2.3523 -0.7479  0.0728
 2399TIP3   OH228759   5.210   5.711   0.450 -0.4776 -0.1462 -0.3159
 2399TIP3    H128760   5.159   5.770   0.505  0.7926  1.0080 -0.3071
 2399TIP3    H228761   5.161   5.705   0.368 -0.0431  1.9633 -0.7855
 2400TIP3   OH228762   4.077   4.796   0.441 -0.3176 -0.6960 -0.0774
 2400TIP3    H128763   4.101   4.718   0.492 -0.7520  0.8596  2.7123
 2400TIP3    H228764   3.988   4.816   0.469 -0.1964  0.8287 -0.6977
 2401TIP3   OH228765   5.551   2.627   1.407 -0.7824 -0.3361  0.6727
 2401TIP3    H128766   5.561   2.547   1.459 -1.9891  0.2718  1.9227
 2401TIP3    H228767   5.461   2.625   1.375 -0.5042  0.0255 -0.1710
 2402TIP3   OH228768   0.324   5.746   0.446  0.3222 -0.3138  0.1229
 2402TIP3    H128769   0.229   5.745   0.439  0.2843 -1.8953  0.5459
 2402TIP3    H228770   0.341   5.793   0.528 -0.1463 -0.9432  0.5914
 2403TIP3   OH228771   3.683   5.523   0.346  0.4057  0.4606  0.3930
 2403TIP3    H128772   3.620   5.501   0.277  2.0460  0.3964 -1.1475
 2403TIP3    H228773   3.741   5.447   0.352  2.4087  1.8034 -0.6801
 2404TIP3   OH228774   6.808   4.528   7.514 -0.0157  1.3246  0.2150
 2404TIP3    H128775   6.761   4.557   7.592  0.3048  0.6967  0.6497
 2404TIP3    H228776   6.778   4.587   7.445 -1.1296  1.1994  0.5708
 2405TIP3   OH228777   3.501   0.324   6.839  0.6500 -0.4421  0.6933
 2405TIP3    H128778   3.590   0.354   6.855  0.8128 -1.5319  1.9977
 2405TIP3    H228779   3.510   0.232   6.814 -0.1438 -0.9190  2.0069
 2406TIP3   OH228780   1.497   5.406   1.308  0.2931  0.2879  0.1231
 2406TIP3    H128781   1.561   5.450   1.364 -0.4427  2.7047 -0.8109
 2406TIP3    H228782   1.550   5.349   1.252  1.6436  1.8518 -0.2754
 2407TIP3   OH228783   4.404   0.408   8.227  0.6384 -0.1310 -0.0187
 2407TIP3    H128784   4.394   0.500   8.202 -1.8806  0.4093  2.5132
 2407TIP3    H228785   4.364   0.360   8.155  0.5511  0.8498 -0.6524
 2408TIP3   OH228786   4.075   4.509   1.357 -0.1782 -0.7210  0.3247
 2408TIP3    H128787   3.980   4.515   1.360 -0.1266  0.1369  0.4568
 2408TIP3    H228788   4.105   4.600   1.358  0.6291 -0.9651 -0.2158
 2409TIP3   OH228789   4.537   2.891   6.872  0.4966  0.0142 -0.0053
 2409TIP3    H128790   4.624   2.867   6.903 -0.0408 -1.0815  0.7235
 2409TIP3    H228791   4.486   2.906   6.952 -0.7775 -2.3343 -0.2987
 2410TIP3   OH228792   1.295   6.683   0.193  0.3112 -0.2622 -0.0500
 2410TIP3    H128793   1.203   6.661   0.175 -0.0148  0.3532  0.8266
 2410TIP3    H228794   1.339   6.670   0.109 -0.0301 -3.2414  0.1074
 2411TIP3   OH228795   1.899   4.483   0.886 -0.1298 -0.0504 -0.0304
 2411TIP3    H128796   1.867   4.418   0.824  0.3141 -0.7566  0.4725
 2411TIP3    H228797   1.820   4.515   0.929 -0.3850  0.0170 -0.5408
 2412TIP3   OH228798   1.158   1.116   8.408 -0.0554  0.1483  0.1077
 2412TIP3    H128799   1.084   1.090   8.353  0.0024  0.5629 -0.1709
 2412TIP3    H228800   1.206   1.035   8.424  0.8233  0.2662 -1.7700
 2413TIP3   OH228801   4.223   0.232   6.888  0.0271  0.1885  0.4199
 2413TIP3    H128802   4.207   0.234   6.793  1.4871  0.9197  0.1613
 2413TIP3    H228803   4.155   0.174   6.922 -0.5784 -0.0310 -1.0639
 2414TIP3   OH228804   5.053   0.449   1.433  0.1984  0.3645  0.1121
 2414TIP3    H128805   4.975   0.495   1.464  0.5973  1.2797 -0.1891
 2414TIP3    H228806   5.093   0.510   1.371 -0.1470 -1.0884 -1.6140
 2415TIP3   OH228807   2.337   5.556   8.716 -0.0307 -0.0590 -0.0463
 2415TIP3    H128808   2.399   5.506   8.664  0.0312 -2.1161  1.8539
 2415TIP3    H228809   2.384   5.636   8.738  0.5554  0.0765 -1.6364
 2416TIP3   OH228810   0.930   2.468   0.450 -0.3424 -0.2296 -0.0909
 2416TIP3    H128811   0.994   2.435   0.513  1.8440 -3.2609 -3.4763
 2416TIP3    H228812   0.974   2.542   0.407  0.6606 -1.7160 -1.7626
 2417TIP3   OH228813   0.721   3.909   0.241  0.2222 -0.4027  0.3157
 2417TIP3    H128814   0.815   3.889   0.233  0.5075  0.6202  0.8348
 2417TIP3    H228815   0.719   4.002   0.265 -1.0315  0.3692 -2.3946
 2418TIP3   OH228816   0.155   6.399   7.610 -0.4336  0.3297 -0.0843
 2418TIP3    H128817   0.130   6.490   7.624 -0.3423  0.1927  1.1037
 2418TIP3    H228818   0.219   6.381   7.680 -0.5413 -0.6715 -0.2294
 2419TIP3   OH228819   2.739   5.753   1.113 -0.6467 -0.0274  1.1490
 2419TIP3    H128820   2.743   5.778   1.020  0.0368  1.4066  1.5350
 2419TIP3    H228821   2.824   5.713   1.130 -1.3452 -1.7295  0.7995
 2420TIP3   OH228822   6.429   4.784   7.134 -0.3261 -0.2689 -0.3326
 2420TIP3    H128823   6.513   4.753   7.098 -0.1103  0.1905 -0.2319
 2420TIP3    H228824   6.413   4.867   7.089 -0.4775 -0.1091  0.0192
 2421TIP3   OH228825   6.773   2.540   1.165 -0.3566  0.3170 -0.2740
 2421TIP3    H128826   6.819   2.581   1.092  0.1681  2.8060  1.3163
 2421TIP3    H228827   6.695   2.594   1.177 -0.9849 -0.6979  0.3659
 2422TIP3   OH228828   1.710   0.302   0.158 -0.1096 -0.8344 -0.4392
 2422TIP3    H128829   1.759   0.352   0.091  1.0595 -1.0235  0.2438
 2422TIP3    H228830   1.619   0.308   0.130  0.4816 -2.5571 -3.1794
 2423TIP3   OH228831   4.252   5.601   7.934  0.1120  0.4955  0.5986
 2423TIP3    H128832   4.335   5.643   7.958  0.3223  0.9329 -0.7887
 2423TIP3    H228833   4.276   5.510   7.919  0.2122  0.4813  0.8360
 2424TIP3   OH228834   0.343   4.207   7.570  0.2352 -0.4138  0.2105
 2424TIP3    H128835   0.390   4.152   7.633  0.3977 -1.6211 -0.9313
 2424TIP3    H228836   0.250   4.190   7.588  0.2852 -1.6479 -0.6027
 2425TIP3   OH228837   5.002   2.318   1.286  0.4556  0.3695  0.4942
 2425TIP3    H128838   5.030   2.228   1.272  1.8086  0.9034 -0.3779
 2425TIP3    H228839   4.908   2.311   1.303  0.4656 -1.1638  0.0722
 2426TIP3   OH228840   6.333   0.588   0.874 -0.4513  0.0776  0.1677
 2426TIP3    H128841   6.297   0.500   0.862  0.8882 -0.6147  0.9332
 2426TIP3    H228842   6.399   0.577   0.942  0.4641  1.4806 -0.4546
 2427TIP3   OH228843   2.108   2.821   8.773  0.2593  0.2567  0.0090
 2427TIP3    H128844   2.080   2.885   8.708 -1.3922  1.1269  1.4998
 2427TIP3    H228845   2.150   2.873   8.841 -0.0288 -0.3913  0.6914
 2428TIP3   OH228846   6.428   5.559   0.597  0.1504  0.2800 -0.1016
 2428TIP3    H128847   6.398   5.505   0.671 -1.2423 -0.0593 -0.8678
 2428TIP3    H228848   6.483   5.500   0.545  0.6258  0.3356  0.3281
 2429TIP3   OH228849   0.650   2.104   0.243 -0.1769  0.7586  0.0474
 2429TIP3    H128850   0.712   2.153   0.297  0.2553  0.3278 -0.0491
 2429TIP3    H228851   0.705   2.048   0.188 -0.6124  1.0500 -0.7139
 2430TIP3   OH228852   3.332   2.050   7.938 -0.3336  0.1727 -0.0170
 2430TIP3    H128853   3.384   2.113   7.888  1.3593  1.4131  2.9671
 2430TIP3    H228854   3.360   1.964   7.907  0.5851  0.8778 -1.1897
 2431TIP3   OH228855   2.547   0.955   0.473 -0.2903 -0.7280  0.6190
 2431TIP3    H128856   2.477   0.890   0.483 -0.6549 -0.1977  1.6770
 2431TIP3    H228857   2.596   0.950   0.555 -0.9931  1.0756  1.2038
 2432TIP3   OH228858   1.249   3.130   8.734  0.2413 -0.2966 -0.1896
 2432TIP3    H128859   1.324   3.180   8.766 -0.2870 -0.6645  1.7595
 2432TIP3    H228860   1.287   3.058   8.684  1.0390  1.5021 -2.3529
 2433TIP3   OH228861   5.913   4.475   0.774  0.7046 -0.5084  0.5509
 2433TIP3    H128862   5.930   4.396   0.722  0.3919  0.2140 -0.6951
 2433TIP3    H228863   5.999   4.515   0.787  0.5560  1.0613 -2.3589
 2434TIP3   OH228864   4.388   5.103   8.605 -0.1928 -0.2467 -0.1502
 2434TIP3    H128865   4.360   5.149   8.525  0.3673 -0.2979 -0.3747
 2434TIP3    H228866   4.360   5.161   8.676  1.1415  0.8203 -0.4450
 2435TIP3   OH228867   2.089   0.814   7.367  0.6289  0.4609 -0.0679
 2435TIP3    H128868   1.999   0.814   7.400  0.5874 -0.0678 -0.1739
 2435TIP3    H228869   2.134   0.750   7.422  1.1757  1.4029  0.6047
 2436TIP3   OH228870   1.125   4.661   2.097 -0.6696 -0.2181 -0.1672
 2436TIP3    H128871   1.205   4.684   2.144 -2.0219  0.4882  1.9371
 2436TIP3    H228872   1.108   4.737   2.040  0.2297 -0.4670 -0.7885
 2437TIP3   OH228873   4.858   4.388   7.931  0.3275 -0.7469  0.2812
 2437TIP3    H128874   4.942   4.393   7.976  0.2298  1.8386  0.3150
 2437TIP3    H228875   4.881   4.378   7.839  0.6427 -0.9734  0.3818
 2438TIP3   OH228876   3.947   3.019   0.466  0.1659  0.1923  0.6815
 2438TIP3    H128877   3.936   2.928   0.493  3.4254  0.2237  2.6199
 2438TIP3    H228878   4.014   3.015   0.398  0.3586  1.1651  0.8127
 2439TIP3   OH228879   0.780   2.963   1.343  0.0584  0.1497 -0.2254
 2439TIP3    H128880   0.838   3.010   1.283 -0.2654 -1.1524 -1.6326
 2439TIP3    H228881   0.837   2.902   1.389  0.4679  1.7910  1.5540
 2440TIP3   OH228882   1.238   2.840   7.815  0.4100 -0.0125 -0.2948
 2440TIP3    H128883   1.253   2.808   7.726 -1.2459  0.2927 -0.7034
 2440TIP3    H228884   1.236   2.935   7.806  1.2277  0.0741  0.2590
 2441TIP3   OH228885   3.050   6.002   1.402 -0.2530 -0.2185  0.1577
 2441TIP3    H128886   3.066   6.094   1.423 -0.1412  0.7072 -3.2661
 2441TIP3    H228887   3.137   5.961   1.407 -0.1590  0.0550  0.8356
 2442TIP3   OH228888   4.932   3.971   7.410  0.8930 -0.1463 -0.0209
 2442TIP3    H128889   4.994   3.917   7.459  0.2733 -0.7646  0.0877
 2442TIP3    H228890   4.984   4.009   7.339  1.8809  0.9895  1.2412
 2443TIP3   OH228891   5.260   0.777   6.625  0.0136  0.0200  0.1321
 2443TIP3    H128892   5.165   0.769   6.615  0.1228 -1.8581  0.2749
 2443TIP3    H228893   5.273   0.787   6.719 -0.0536  0.8333  0.0638
 2444TIP3   OH228894   0.123   1.357   7.698 -0.8170  0.2776 -0.0958
 2444TIP3    H128895   0.117   1.306   7.779 -1.6307  0.0919 -0.2625
 2444TIP3    H228896   0.216   1.374   7.687 -0.7209  0.5379  1.0240
 2445TIP3   OH228897   3.606   2.764   6.704  0.4576 -0.3782  0.0908
 2445TIP3    H128898   3.593   2.675   6.671  0.1446 -0.7443  1.1665
 2445TIP3    H228899   3.688   2.760   6.753 -0.0733 -0.3412  1.0006
 2446TIP3   OH228900   5.952   4.522   1.540  0.3951  0.3853 -0.1108
 2446TIP3    H128901   5.913   4.458   1.600 -2.3518  1.5475 -0.5023
 2446TIP3    H228902   6.042   4.492   1.527 -0.2420 -2.3153  1.1628
 2447TIP3   OH228903   4.517   3.346   6.764 -0.1386 -0.2306 -0.5708
 2447TIP3    H128904   4.507   3.375   6.673  0.5024 -0.4028 -0.6947
 2447TIP3    H228905   4.559   3.261   6.758  0.2807 -0.0571 -0.0945
 2448TIP3   OH228906   0.755   0.395   1.747 -0.4974 -0.6721  0.2620
 2448TIP3    H128907   0.734   0.368   1.837  0.2577 -1.1733  0.3012
 2448TIP3    H228908   0.844   0.362   1.733 -0.2130  0.3152 -0.3050
 2449TIP3   OH228909   2.265   5.394   0.247 -0.3385 -0.4433 -0.6060
 2449TIP3    H128910   2.208   5.415   0.174 -4.5706  0.7334  2.6542
 2449TIP3    H228911   2.297   5.480   0.277 -1.8970 -0.4539  1.2049
 2450TIP3   OH228912   0.307   0.102   1.397 -0.1939  0.2524 -0.3963
 2450TIP3    H128913   0.293   0.162   1.470 -0.7056 -0.5914  0.2076
 2450TIP3    H228914   0.313   0.159   1.320  0.6023  1.1717  0.3203
 2451TIP3   OH228915   6.319   5.200   0.058  0.1029 -0.2980 -0.4198
 2451TIP3    H128916   6.378   5.259   0.011  1.7541 -0.5508  1.2102
 2451TIP3    H228917   6.326   5.228   0.150 -0.1950 -2.0981  0.1791
 2452TIP3   OH228918   4.480   2.291   6.980  0.1811 -0.3149  0.1013
 2452TIP3    H128919   4.422   2.363   6.956 -1.5142 -1.3296  0.9426
 2452TIP3    H228920   4.518   2.261   6.897 -0.7987  0.1239 -0.5170
 2453TIP3   OH228921   0.009   6.054   0.300  0.3065 -0.3719 -0.7654
 2453TIP3    H128922  -0.025   6.139   0.272  1.1487  0.6220  1.0269
 2453TIP3    H228923  -0.059   6.020   0.359  0.1914 -0.7296 -1.0995
 2454TIP3   OH228924   0.828   0.762   7.937  0.5878 -0.1276 -0.2803
 2454TIP3    H128925   0.898   0.816   7.900 -0.0139  0.2285 -0.9197
 2454TIP3    H228926   0.868   0.676   7.949  1.8964  0.6881  1.8139
 2455TIP3   OH228927   1.844   0.502   0.308 -0.1716  0.1483 -0.0380
 2455TIP3    H128928   1.799   0.432   0.260  0.1998 -1.0058  1.2347
 2455TIP3    H228929   1.774   0.545   0.357  0.0119 -1.5694  1.8471
 2456TIP3   OH228930   0.838   6.529   2.172 -0.3755  0.6688 -0.6216
 2456TIP3    H128931   0.813   6.540   2.264  1.0642  0.8051 -0.2249
 2456TIP3    H228932   0.857   6.435   2.164  1.1523  0.9187 -0.3058
 2457TIP3   OH228933   2.892   4.033   8.251 -0.4681 -0.0301  0.1312
 2457TIP3    H128934   2.947   4.110   8.237 -0.1108 -0.1226  0.9509
 2457TIP3    H228935   2.949   3.959   8.227 -0.7061 -0.0643 -0.3497
 2458TIP3   OH228936   1.418   1.987   7.708  0.2276 -0.4998 -0.7580
 2458TIP3    H128937   1.513   1.983   7.716  0.1859  0.7518  1.1408
 2458TIP3    H228938   1.390   1.895   7.714  1.3108 -0.9538 -2.0526
 2459TIP3   OH228939   0.037   2.001   0.678  0.1694 -0.3968 -0.3331
 2459TIP3    H128940   0.123   2.003   0.636  0.4090  0.8846  0.1576
 2459TIP3    H228941  -0.024   1.982   0.607  0.5330  1.9331 -1.3554
 2460TIP3   OH228942   3.613   3.929   7.771  0.1318 -0.0063 -0.5310
 2460TIP3    H128943   3.595   3.841   7.804 -0.5958  0.7983  1.3586
 2460TIP3    H228944   3.540   3.948   7.712  0.5763 -0.8583 -1.3703
 2461TIP3   OH228945   2.707   6.448   2.469 -0.2468  0.0880 -0.3834
 2461TIP3    H128946   2.631   6.393   2.486 -0.2716 -0.1239 -1.1528
 2461TIP3    H228947   2.695   6.479   2.380 -0.6776  2.0608  0.3061
 2462TIP3   OH228948   2.316   4.400   8.087  0.3088 -0.3496 -0.1005
 2462TIP3    H128949   2.367   4.319   8.079  1.5339  0.4061 -0.2772
 2462TIP3    H228950   2.265   4.389   8.167 -0.5677 -1.8234 -0.8128
 2463TIP3   OH228951   2.814   5.612   1.795  0.5207  0.1043  0.4763
 2463TIP3    H128952   2.828   5.690   1.740 -0.3013 -0.4656 -0.5842
 2463TIP3    H228953   2.719   5.602   1.798  0.6212 -1.2039  0.0765
 2464TIP3   OH228954   1.915   4.231   0.290 -0.0297  0.4875 -0.3689
 2464TIP3    H128955   1.993   4.215   0.237  1.6656  0.3852  1.9814
 2464TIP3    H228956   1.847   4.255   0.227  1.4183 -1.0718 -2.6694
 2465TIP3   OH228957   5.702   2.716   0.510  0.3174  0.1004 -0.4731
 2465TIP3    H128958   5.675   2.654   0.578 -0.1817 -0.7914 -1.4615
 2465TIP3    H228959   5.623   2.731   0.458 -0.0800  2.9976  0.7746
 2466TIP3   OH228960   3.378   1.410   7.273  0.3863 -0.1552 -0.2884
 2466TIP3    H128961   3.346   1.494   7.240 -1.2410 -0.8246 -0.5035
 2466TIP3    H228962   3.366   1.349   7.200 -0.4197 -1.0010  0.5174
 2467TIP3   OH228963   6.131   1.089   8.486 -0.4013  0.2356 -0.1354
 2467TIP3    H128964   6.066   1.103   8.418  0.6943  1.4166 -0.9979
 2467TIP3    H228965   6.098   1.138   8.562 -0.4170  1.0217 -0.6388
 2468TIP3   OH228966   0.239   4.710   8.427 -0.1665  0.7885  0.6192
 2468TIP3    H128967   0.261   4.679   8.515 -1.2187 -0.9644  0.3138
 2468TIP3    H228968   0.208   4.799   8.440 -3.7406 -0.5584  2.6389
 2469TIP3   OH228969   2.852   4.172   0.402  0.7146  0.3737 -0.1992
 2469TIP3    H128970   2.860   4.223   0.322  0.4347  0.1133 -0.3975
 2469TIP3    H228971   2.813   4.233   0.465  1.0954  0.6290 -0.2086
 2470TIP3   OH228972   3.205   4.014   1.676  0.4835  0.1597  0.0744
 2470TIP3    H128973   3.118   4.051   1.663  0.5772  0.3348 -0.0682
 2470TIP3    H228974   3.240   4.063   1.751  0.8345  0.7802 -0.4838
 2471TIP3   OH228975   5.359   5.636   6.799  0.6206 -0.3351 -0.1845
 2471TIP3    H128976   5.416   5.711   6.817  1.0306 -0.6074 -0.3490
 2471TIP3    H228977   5.357   5.629   6.704 -0.7264  0.4622 -0.2523
 2472TIP3   OH228978   5.009   2.751   0.774  0.5835 -0.2256  0.5711
 2472TIP3    H128979   5.091   2.724   0.732 -0.3426  0.6189 -2.0413
 2472TIP3    H228980   4.942   2.695   0.733 -0.5937  1.7956 -0.4777
 2473TIP3   OH228981   5.319   6.347   0.435  0.2612 -0.5894 -0.3542
 2473TIP3    H128982   5.224   6.358   0.431  0.2069 -1.1081 -0.6313
 2473TIP3    H228983   5.331   6.257   0.466  0.6286 -1.2350 -2.1996
 2474TIP3   OH228984   0.250   3.534   1.471 -0.3846 -0.0342  0.2617
 2474TIP3    H128985   0.253   3.440   1.490 -3.0478 -0.2799 -0.1744
 2474TIP3    H228986   0.161   3.560   1.492  0.5501  2.6739  1.3601
 2475TIP3   OH228987   3.443   0.052   0.221  0.9520 -0.8547 -0.0503
 2475TIP3    H128988   3.505   0.003   0.276  0.0970 -0.8957  0.9120
 2475TIP3    H228989   3.397   0.109   0.282  1.0227  0.2167 -0.9707
 2476TIP3   OH228990   2.250   6.024   8.663  0.4093  0.2143 -0.5140
 2476TIP3    H128991   2.324   5.993   8.610  0.2870 -0.6975 -0.1805
 2476TIP3    H228992   2.253   5.969   8.741  0.4030  1.3304  0.2943
 2477TIP3   OH228993   3.844   3.845   1.389  0.0437  0.2723 -0.0758
 2477TIP3    H128994   3.803   3.758   1.385 -0.7408  0.6727 -1.5767
 2477TIP3    H228995   3.829   3.874   1.479 -0.4374 -0.8013  0.2097
 2478TIP3   OH228996   3.427   0.564   7.556  0.2079  0.5566 -0.0418
 2478TIP3    H128997   3.438   0.470   7.540 -2.4975  0.1046  0.3639
 2478TIP3    H228998   3.423   0.603   7.468 -0.0548  0.0945 -0.2377
 2479TIP3   OH228999   0.915   4.612   1.612  0.3481 -0.5494  0.1455
 2479TIP3    H129000   0.855   4.570   1.674 -0.3654  0.6694  0.3131
 2479TIP3    H229001   1.002   4.596   1.649 -0.1711  3.1311  3.5393
 2480TIP3   OH229002   4.139   3.931   8.046 -0.5860 -0.2320 -0.0220
 2480TIP3    H129003   4.177   3.850   8.079 -0.6725  0.2539  1.3172
 2480TIP3    H229004   4.167   3.935   7.954  0.9825 -0.8548  0.3996
 2481TIP3   OH229005   2.689   1.254   7.911  0.1145 -0.3229  0.8370
 2481TIP3    H129006   2.768   1.203   7.892  2.1462  3.0908 -1.0098
 2481TIP3    H229007   2.722   1.341   7.932 -3.1574  0.8189  1.7983
 2482TIP3   OH229008   1.567   3.482   8.082  0.1788 -0.1760 -0.6715
 2482TIP3    H129009   1.486   3.533   8.088  0.0247 -0.4887  0.0907
 2482TIP3    H229010   1.617   3.505   8.160  0.7098 -0.1835 -1.0036
 2483TIP3   OH229011   2.932   0.222   1.143 -0.8064  0.1045 -0.4457
 2483TIP3    H129012   2.970   0.308   1.162  0.5969 -0.9818  2.0802
 2483TIP3    H229013   2.851   0.242   1.096  0.3677  2.7098 -1.5758
 2484TIP3   OH229014   0.353   1.782   8.523  0.4099  0.1197  0.6227
 2484TIP3    H129015   0.318   1.704   8.567  1.6242 -0.0215  1.3937
 2484TIP3    H229016   0.400   1.747   8.447  1.6001 -0.0051  1.3835
 2485TIP3   OH229017   2.510   5.774   1.631  0.2719 -0.0014 -0.1393
 2485TIP3    H129018   2.501   5.687   1.670 -1.7554  1.0263  1.9242
 2485TIP3    H229019   2.563   5.823   1.694 -2.2547  1.4201  1.0048
 2486TIP3   OH229020   1.337   2.524   1.316 -0.4124  0.2579 -0.6877
 2486TIP3    H129021   1.255   2.496   1.356 -0.4213  1.2757  0.0378
 2486TIP3    H229022   1.374   2.588   1.377  1.2923 -0.7090 -0.6395
 2487TIP3   OH229023   2.769   4.494   6.368  0.2405 -0.1084 -0.3448
 2487TIP3    H129024   2.787   4.406   6.401 -0.7180 -0.1892 -0.0116
 2487TIP3    H229025   2.703   4.482   6.300  0.7064  0.2784 -0.8774
 2488TIP3   OH229026   1.633   1.134   1.552  0.4889 -0.1874 -0.0928
 2488TIP3    H129027   1.576   1.072   1.598 -0.3455  0.9858  0.5105
 2488TIP3    H229028   1.712   1.084   1.532 -0.4054 -1.6182 -0.1839
 2489TIP3   OH229029   3.121   4.514   7.397 -0.3287 -0.5613 -0.4961
 2489TIP3    H129030   3.107   4.597   7.442 -4.1790 -0.2911 -1.8751
 2489TIP3    H229031   3.094   4.448   7.461 -2.8790 -0.3332 -1.2345
 2490TIP3   OH229032   3.685   3.106   0.692  0.5516 -0.2443 -0.3018
 2490TIP3    H129033   3.620   3.035   0.689  1.2712 -0.9045 -0.5211
 2490TIP3    H229034   3.767   3.065   0.665  0.8302  0.8537 -1.1821
 2491TIP3   OH229035   4.954   2.339   6.946  1.0764  0.1499  0.1028
 2491TIP3    H129036   4.988   2.263   6.993 -0.5172  0.1924  1.3979
 2491TIP3    H229037   4.949   2.310   6.855 -0.5894 -1.7388  0.7291
 2492TIP3   OH229038   4.387   4.494   8.072 -0.6715 -0.2191  0.0332
 2492TIP3    H129039   4.370   4.471   8.164  0.4588 -4.7010 -0.6189
 2492TIP3    H229040   4.469   4.544   8.075 -0.7440 -0.1397  1.5000
 2493TIP3   OH229041   3.121   5.286   7.522  0.0702 -0.0900 -0.0847
 2493TIP3    H129042   3.205   5.289   7.477  0.2404  0.6365  0.2626
 2493TIP3    H229043   3.133   5.219   7.590 -0.6188 -2.1806 -1.8968
 2494TIP3   OH229044   5.885   4.134   7.678 -0.0541 -0.5004  0.0900
 2494TIP3    H129045   5.906   4.122   7.770 -0.7604 -0.5648  0.2468
 2494TIP3    H229046   5.793   4.110   7.671 -0.6875  1.7976 -0.1850
 2495TIP3   OH229047   2.698   4.579   1.318  0.0287  0.0695 -0.8434
 2495TIP3    H129048   2.792   4.572   1.299 -0.2495 -2.1189 -1.7492
 2495TIP3    H229049   2.693   4.579   1.414  0.9721  1.1974 -0.7677
 2496TIP3   OH229050   2.073   4.618   0.505  0.7591  0.1006 -0.8431
 2496TIP3    H129051   2.058   4.546   0.444 -1.2197 -0.2487 -0.0179
 2496TIP3    H229052   2.161   4.602   0.540  0.4088 -1.8779 -0.7626
 2497TIP3   OH229053   1.332   0.501   0.432  0.7647  0.2468  0.0964
 2497TIP3    H129054   1.256   0.446   0.413  0.0433  1.5612 -1.0470
 2497TIP3    H229055   1.317   0.532   0.522 -0.4766  1.0886 -0.3712
 2498TIP3   OH229056   0.403   4.078   0.951 -0.4002 -0.5038 -0.1929
 2498TIP3    H129057   0.472   4.020   0.983 -0.4511 -0.1096  0.6616
 2498TIP3    H229058   0.410   4.073   0.856  2.4997  1.4774 -0.2218
 2499TIP3   OH229059   2.667   3.963   7.265 -0.1355 -0.1157  0.2719
 2499TIP3    H129060   2.738   3.915   7.225 -1.2140 -0.8285 -0.8573
 2499TIP3    H229061   2.594   3.954   7.204 -0.4490  2.8844  0.0158
 2500TIP3   OH229062   3.920   4.432   8.053  0.3824 -0.4047  0.4364
 2500TIP3    H129063   3.907   4.337   8.050 -1.1163 -0.2456  1.2361
 2500TIP3    H229064   3.897   4.457   8.142 -1.5326  0.9865 -0.3810
 2501TIP3   OH229065   4.414   3.376   0.520  0.6021 -0.5230  0.7616
 2501TIP3    H129066   4.373   3.461   0.537  2.2206  0.3811  0.3394
 2501TIP3    H229067   4.420   3.370   0.425 -0.8638 -1.8284  0.7105
 2502TIP3   OH229068   5.988   2.872   0.168  0.1358 -0.0070 -0.3360
 2502TIP3    H129069   5.944   2.952   0.138  2.3430  1.3376 -0.1750
 2502TIP3    H229070   5.916   2.813   0.193 -1.5577  2.1356  0.1285
 2503TIP3   OH229071   3.863   6.671   6.935  0.2308  0.0562 -0.3428
 2503TIP3    H129072   3.917   6.708   6.865  2.9019 -0.5910  1.2355
 2503TIP3    H229073   3.782   6.646   6.892  1.4374  0.4419 -3.0416
 2504TIP3   OH229074   5.663   6.579   7.404  0.2503  0.5735  0.5028
 2504TIP3    H129075   5.612   6.580   7.323  0.3297  0.8845  0.4521
 2504TIP3    H229076   5.754   6.580   7.374  0.2843  0.2238  0.5940
 2505TIP3   OH229077   2.700   0.942   1.007 -0.2848  0.2084  0.0965
 2505TIP3    H129078   2.702   0.858   0.963 -1.6733  0.4983 -0.5451
 2505TIP3    H229079   2.765   0.934   1.077 -0.5835 -1.4709  0.2038
 2506TIP3   OH229080   0.027   5.820   6.764 -0.5710 -0.2233 -0.6508
 2506TIP3    H129081  -0.039   5.864   6.816  1.4424  0.7183  1.2712
 2506TIP3    H229082   0.087   5.889   6.736  0.7521 -1.2655 -0.5298
 2507TIP3   OH229083   2.528   0.653   2.280  0.3560  0.4612 -0.5905
 2507TIP3    H129084   2.490   0.737   2.306  0.4765 -0.2278  2.1347
 2507TIP3    H229085   2.479   0.588   2.330 -0.0962 -1.2193 -3.0426
 2508TIP3   OH229086   0.453   5.072   0.501 -0.5387  0.2420  0.2907
 2508TIP3    H129087   0.381   5.114   0.453 -0.3210  0.2699 -0.0171
 2508TIP3    H229088   0.412   5.035   0.579 -0.4087  2.9056  1.7486
 2509TIP3   OH229089   3.587   4.584   8.584 -0.2727  0.1069 -0.9667
 2509TIP3    H129090   3.494   4.575   8.605  0.3438 -1.9554  1.5091
 2509TIP3    H229091   3.610   4.502   8.540  0.7266 -0.3156  0.2668
 2510TIP3   OH229092   5.682   2.364   2.179 -0.5462  0.1173  0.0327
 2510TIP3    H129093   5.771   2.395   2.161 -0.7669  0.1163 -1.1750
 2510TIP3    H229094   5.636   2.442   2.209 -0.5072  0.4573 -0.7666
 2511TIP3   OH229095   2.698   1.862   6.752 -0.1546  0.0989 -0.4728
 2511TIP3    H129096   2.769   1.890   6.809 -0.9495  0.2328  0.4678
 2511TIP3    H229097   2.659   1.787   6.797 -0.2394 -0.3566 -1.2765
 2512TIP3   OH229098   3.685   6.439   7.504  0.2179  0.4972 -0.0373
 2512TIP3    H129099   3.711   6.517   7.456  0.1930  0.1136 -0.7077
 2512TIP3    H229100   3.761   6.381   7.500 -0.4713 -0.3924 -1.5028
 2513TIP3   OH229101   2.439   3.763   1.281 -0.1210 -1.1079 -0.2519
 2513TIP3    H129102   2.462   3.694   1.219 -2.2319 -2.2304  0.1054
 2513TIP3    H229103   2.375   3.722   1.339  0.0040  0.6164  1.1746
 2514TIP3   OH229104   2.337   2.099   8.643  0.0863 -0.7014  0.4427
 2514TIP3    H129105   2.423   2.069   8.612  0.7514  1.6248 -0.1231
 2514TIP3    H229106   2.275   2.045   8.594  1.1921 -1.7444  0.1166
 2515TIP3   OH229107   0.230   6.104   6.983  0.2949 -0.2493  0.2586
 2515TIP3    H129108   0.184   6.095   6.900  1.4862  0.3677 -0.4941
 2515TIP3    H229109   0.170   6.067   7.048 -1.3752  0.7902 -0.6210
 2516TIP3   OH229110   5.046   0.729   7.928  0.3282 -0.6158  0.2164
 2516TIP3    H129111   4.964   0.775   7.949  0.7033 -0.4449  1.3695
 2516TIP3    H229112   5.057   0.666   7.999  1.8353  0.2394  0.7991
 2517TIP3   OH229113   2.041   1.687   0.181  0.0251 -0.0247  0.3297
 2517TIP3    H129114   2.136   1.682   0.190  0.2288 -0.0022 -1.5754
 2517TIP3    H229115   2.027   1.745   0.106 -1.5109  0.2846  0.8221
 2518TIP3   OH229116   1.432   3.871   8.016 -0.2411  0.1366 -0.9376
 2518TIP3    H129117   1.513   3.842   8.059 -0.8688 -0.4950 -0.1527
 2518TIP3    H229118   1.413   3.956   8.056 -0.5273 -0.1984 -0.3524
 2519TIP3   OH229119   3.896   3.472   1.430  0.3030  0.0043  0.1377
 2519TIP3    H129120   3.897   3.435   1.519 -0.7346  0.0635  0.1844
 2519TIP3    H229121   3.808   3.454   1.398 -0.9544  3.9330  0.8155
 2520TIP3   OH229122   6.595   1.259   8.448  0.2207  0.5255 -0.2934
 2520TIP3    H129123   6.561   1.315   8.379  1.6258  1.5902 -0.1525
 2520TIP3    H229124   6.688   1.280   8.453  0.3827 -0.3784  1.1294
 2521TIP3   OH229125   0.671   0.604   1.557  0.7903  0.0206 -1.1423
 2521TIP3    H129126   0.697   0.586   1.467 -0.6821 -2.2439 -1.1657
 2521TIP3    H229127   0.692   0.524   1.605  0.7151  0.8617  0.3535
 2522TIP3   OH229128   4.819   3.264   6.978  0.0203  0.0917  0.4682
 2522TIP3    H129129   4.902   3.224   7.004 -0.0341  0.5567  1.3876
 2522TIP3    H229130   4.837   3.304   6.893  0.6402 -0.1040  0.5052
 2523TIP3   OH229131   2.369   3.709   6.363 -0.3217  0.1536  0.0260
 2523TIP3    H129132   2.302   3.773   6.341 -0.5202 -0.7975 -2.4531
 2523TIP3    H229133   2.440   3.760   6.401 -0.7760  1.7552 -1.1869
 2524TIP3   OH229134   2.628   2.073   6.297  0.1980 -0.3651  0.0213
 2524TIP3    H129135   2.659   1.985   6.276 -0.7161 -0.1924 -2.3657
 2524TIP3    H229136   2.578   2.062   6.378  1.6174 -1.6554  0.7809
 2525TIP3   OH229137   3.157   5.190   8.599 -0.1559  0.1757  0.1585
 2525TIP3    H129138   3.137   5.277   8.564 -0.2885 -0.2687 -0.8958
 2525TIP3    H229139   3.075   5.141   8.590 -0.1501  0.0051  0.9665
 2526TIP3   OH229140   4.892   0.609   7.748  0.1751  0.7172 -0.6927
 2526TIP3    H129141   4.878   0.696   7.710  1.1389  0.6484 -1.2536
 2526TIP3    H229142   4.965   0.622   7.810 -0.0101  0.4057 -0.4069
 2527TIP3   OH229143   6.373   0.521   0.231  0.0062 -0.1339 -0.0095
 2527TIP3    H129144   6.365   0.612   0.206 -0.5335  0.1222  1.0115
 2527TIP3    H229145   6.468   0.503   0.229  0.0944  0.3820 -0.4213
 2528TIP3   OH229146   2.803   5.472   7.853  0.1533 -0.2053  0.0910
 2528TIP3    H129147   2.825   5.534   7.783  0.7354 -0.3773  0.1146
 2528TIP3    H229148   2.740   5.519   7.907  0.5965  0.3743  0.1177
 2529TIP3   OH229149   1.245   1.411   0.258  0.2018  0.0591  0.3488
 2529TIP3    H129150   1.316   1.357   0.222  0.5370  0.1327  0.8983
 2529TIP3    H229151   1.288   1.471   0.318 -0.3049  0.2472  0.5295
 2530TIP3   OH229152   5.330   2.689   6.233 -0.6207  0.1510 -0.2659
 2530TIP3    H129153   5.311   2.730   6.149  0.9595  2.3530  0.3954
 2530TIP3    H229154   5.353   2.761   6.291  0.2946 -1.4969  1.5291
 2531TIP3   OH229155   5.675   3.986   7.992  0.1318 -0.1157  0.4082
 2531TIP3    H129156   5.706   3.910   7.942 -2.0417 -1.0611  0.3845
 2531TIP3    H229157   5.657   4.052   7.925  0.5426 -0.1314  0.2780
 2532TIP3   OH229158   5.943   4.142   0.353 -1.0017 -0.0345 -0.1046
 2532TIP3    H129159   5.860   4.109   0.320 -2.1109  2.7052 -0.2469
 2532TIP3    H229160   5.987   4.178   0.276 -0.5777  0.3357  0.3081
 2533TIP3   OH229161   2.398   5.515   7.380 -0.7810  0.1164  0.0081
 2533TIP3    H129162   2.477   5.465   7.363  0.2650  1.7666 -0.2276
 2533TIP3    H229163   2.340   5.495   7.306 -0.1723 -0.3229 -0.3544
 2534TIP3   OH229164   3.769   4.659   2.416 -0.2511  0.2716 -0.1256
 2534TIP3    H129165   3.754   4.564   2.416 -0.8686  0.3184 -2.3535
 2534TIP3    H229166   3.856   4.669   2.454  1.0932 -1.4901 -2.4927
 2535TIP3   OH229167   1.669   2.272   7.358 -0.5709 -0.0968 -1.0091
 2535TIP3    H129168   1.750   2.224   7.377 -0.2198  1.0236  0.4863
 2535TIP3    H229169   1.690   2.324   7.280 -0.1594 -0.4955 -1.1676
 2536TIP3   OH229170   4.314   2.804   1.306 -0.4505 -0.3516  0.1000
 2536TIP3    H129171   4.400   2.791   1.266 -0.3682 -1.3803  0.5823
 2536TIP3    H229172   4.328   2.786   1.399 -1.1130 -0.1385  0.2483
 2537TIP3   OH229173   2.048   6.232   8.693 -0.2086 -0.0517 -0.4254
 2537TIP3    H129174   2.127   6.181   8.675 -1.3121 -1.8482 -0.4266
 2537TIP3    H229175   1.990   6.170   8.737 -0.9851  1.7108  1.1446
 2538TIP3   OH229176   0.242   4.753   7.463  0.1722  0.2599  0.0861
 2538TIP3    H129177   0.150   4.771   7.481  0.1595  1.0230 -0.7111
 2538TIP3    H229178   0.245   4.658   7.447 -0.6410  0.3697 -0.8144
 2539TIP3   OH229179   1.064   5.443   7.673  0.9343 -0.7027 -0.1455
 2539TIP3    H129180   0.985   5.418   7.625  1.7449 -3.0325 -0.4028
 2539TIP3    H229181   1.037   5.517   7.727 -1.3251 -1.2017 -0.5007
 2540TIP3   OH229182   3.590   1.065   1.209 -0.3940 -0.4193 -0.1723
 2540TIP3    H129183   3.565   1.157   1.203 -0.8070 -0.5779 -1.0488
 2540TIP3    H229184   3.558   1.037   1.294  0.0851  0.3448  0.2710
 2541TIP3   OH229185   4.570   4.780   8.040  0.6974 -0.4900  0.4092
 2541TIP3    H129186   4.592   4.797   8.132  1.2738 -3.1223  0.8149
 2541TIP3    H229187   4.636   4.719   8.010  0.7101  0.5630 -1.9072
 2542TIP3   OH229188   2.284   5.315   2.708  0.6201 -0.4229 -0.2499
 2542TIP3    H129189   2.310   5.256   2.779  0.1206  0.7018  0.9063
 2542TIP3    H229190   2.193   5.291   2.688 -1.1295  2.4524  3.0728
 2543TIP3   OH229191   3.192   5.116   0.380  0.2148 -0.2968  0.3171
 2543TIP3    H129192   3.272   5.072   0.407  0.6143  0.2368  0.0126
 2543TIP3    H229193   3.154   5.149   0.461  0.8838  0.4224  0.3390
 2544TIP3   OH229194   5.233   0.526   7.231  0.3761 -0.6071 -0.8258
 2544TIP3    H129195   5.249   0.494   7.142 -0.7476  0.8207 -1.5995
 2544TIP3    H229196   5.242   0.621   7.224  2.6065 -0.5963  1.1471
 2545TIP3   OH229197   4.398   4.930   0.876 -0.1027  0.3408  0.3540
 2545TIP3    H129198   4.429   5.011   0.918  0.0241  0.9246 -0.8168
 2545TIP3    H229199   4.468   4.867   0.891 -0.3916  0.3157  1.6451
 2546TIP3   OH229200   1.957   1.145   8.079 -0.3111  0.4716 -0.9459
 2546TIP3    H129201   1.889   1.164   8.144  0.1894 -0.0799 -0.2338
 2546TIP3    H229202   1.972   1.227   8.033 -2.4476  0.2764 -2.0861
 2547TIP3   OH229203   3.115   4.072   7.598 -0.4035  0.4883 -0.0961
 2547TIP3    H129204   3.185   4.076   7.533  0.5000  0.0588  0.8303
 2547TIP3    H229205   3.122   3.984   7.636 -0.3257  1.0340  1.2137
 2548TIP3   OH229206   3.749   6.032   7.677 -0.1728 -0.1608 -0.1676
 2548TIP3    H129207   3.696   5.987   7.612 -0.2872  0.3423 -0.4254
 2548TIP3    H229208   3.797   5.962   7.721 -2.8646 -0.9569  1.7871
 2549TIP3   OH229209   0.780   3.602   0.796  0.3685 -0.0875  0.4051
 2549TIP3    H129210   0.826   3.521   0.774  0.6806 -0.2306  1.5735
 2549TIP3    H229211   0.796   3.659   0.721 -0.0248 -1.1645 -0.5297
 2550TIP3   OH229212   6.125   6.077   0.059  0.0035  0.2617 -0.2225
 2550TIP3    H129213   6.210   6.089   0.016 -0.2551 -0.5770 -1.0024
 2550TIP3    H229214   6.065   6.053  -0.011 -0.7907  0.4011  0.3866
 2551TIP3   OH229215   1.213   0.236   8.186 -0.4600  0.4892 -0.3684
 2551TIP3    H129216   1.180   0.241   8.276  2.4239 -3.2245  1.1778
 2551TIP3    H229217   1.148   0.183   8.140 -0.8881  0.5272  0.1772
 2552TIP3   OH229218   5.491   2.201   7.911  0.4496 -0.5110  0.0280
 2552TIP3    H129219   5.578   2.195   7.874  1.0088  2.6891  0.5435
 2552TIP3    H229220   5.433   2.214   7.836  0.6960 -0.6153 -0.1775
 2553TIP3   OH229221   5.898   0.282   0.877 -0.8831  0.5379  0.1597
 2553TIP3    H129222   5.916   0.251   0.966 -0.8528  1.4300  0.4699
 2553TIP3    H229223   5.922   0.374   0.878  1.2580  0.0673 -1.4055
 2554TIP3   OH229224   2.628   3.416   1.349 -0.4748  0.1625 -0.2835
 2554TIP3    H129225   2.643   3.465   1.430 -1.1958 -2.0844  1.3333
 2554TIP3    H229226   2.715   3.407   1.311 -0.0958  1.1735  0.3007
 2555TIP3   OH229227   4.283   3.203   1.633  0.3984 -0.4988 -0.4321
 2555TIP3    H129228   4.351   3.140   1.656  0.5224 -0.2174 -0.0341
 2555TIP3    H229229   4.310   3.284   1.675 -0.2053 -0.3958 -0.2375
 2556TIP3   OH229230   1.757   1.157   1.894 -0.1651 -0.5297  0.0448
 2556TIP3    H129231   1.746   1.062   1.894 -1.9172 -0.3933  1.4225
 2556TIP3    H229232   1.702   1.187   1.966  0.0048  1.5729 -0.6276
 2557TIP3   OH229233   3.127   1.320   6.577  0.4612  0.2459 -0.7870
 2557TIP3    H129234   3.069   1.377   6.627  0.0934  0.5198 -1.5176
 2557TIP3    H229235   3.113   1.233   6.615  1.6498  0.7462  0.8942
 2558TIP3   OH229236   4.733   4.043   1.897  0.3535  0.0261 -0.2721
 2558TIP3    H129237   4.709   4.034   1.990 -1.6671  2.4221 -0.4517
 2558TIP3    H229238   4.695   3.966   1.855 -1.3372  0.3988  0.4890
 2559TIP3   OH229239   1.575   2.218   6.996 -0.0572 -1.1041  0.0300
 2559TIP3    H129240   1.535   2.229   6.909  1.1414 -0.3043 -0.4468
 2559TIP3    H229241   1.502   2.227   7.057 -0.4929  1.6102 -0.7452
 2560TIP3   OH229242   5.797   4.783   7.758  0.0487  0.4284 -0.1666
 2560TIP3    H129243   5.783   4.870   7.721  0.1252  0.8467  0.7566
 2560TIP3    H229244   5.760   4.723   7.694  0.6350  1.0940 -1.1533
 2561TIP3   OH229245   6.272   0.085   8.388 -0.2467  0.0119 -0.5254
 2561TIP3    H129246   6.329   0.063   8.461 -0.4177  0.9992 -0.0849
 2561TIP3    H229247   6.326   0.138   8.329  0.5722 -2.5196 -2.2406
 2562TIP3   OH229248   0.308   3.766   0.855  0.0146 -0.2063  0.0244
 2562TIP3    H129249   0.318   3.678   0.820 -3.3408 -1.0752  0.8847
 2562TIP3    H229250   0.368   3.770   0.930  0.1942 -1.7718 -0.0129
 2563TIP3   OH229251   0.039   5.772   8.516  0.4112 -0.0482  0.4398
 2563TIP3    H129252   0.112   5.723   8.479  1.6865  1.5935  0.6834
 2563TIP3    H229253   0.077   5.820   8.590 -1.0811  0.2787  1.0453
 2564TIP3   OH229254   3.367   5.193   1.989  0.6948  0.2406 -0.0721
 2564TIP3    H129255   3.331   5.119   1.939  0.9952  0.0517 -0.0137
 2564TIP3    H229256   3.291   5.245   2.014  0.3561 -0.6740  0.8883
 2565TIP3   OH229257   3.243   6.162   1.610  0.5746  0.7443  0.5251
 2565TIP3    H129258   3.273   6.128   1.694 -0.0582 -0.9287  0.1231
 2565TIP3    H229259   3.306   6.128   1.547  0.6987  1.4785  0.2430
 2566TIP3   OH229260   4.998   0.121   8.482 -0.0052 -0.1295  0.2171
 2566TIP3    H129261   5.002   0.214   8.461  0.6986  0.0555  1.1048
 2566TIP3    H229262   5.006   0.118   8.578 -1.4985 -1.0120  0.3583
 2567TIP3   OH229263   6.705   3.751   8.685  0.2033 -0.2017 -0.3219
 2567TIP3    H129264   6.800   3.748   8.686  0.2009 -0.2527 -0.2686
 2567TIP3    H229265   6.684   3.843   8.670  0.2397  0.1618  1.6263
 2568TIP3   OH229266   5.619   0.376   8.002  0.7512 -0.1354 -0.3136
 2568TIP3    H129267   5.686   0.390   8.068  0.0448 -0.3963  0.4875
 2568TIP3    H229268   5.560   0.312   8.041 -0.2895  0.5271 -0.7430
 2569TIP3   OH229269   4.738   5.783   1.263 -0.2541 -0.3825  0.4301
 2569TIP3    H129270   4.804   5.713   1.263 -0.2732 -0.6092 -3.4176
 2569TIP3    H229271   4.654   5.738   1.258 -0.4046 -0.0988  0.3523
 2570TIP3   OH229272   2.930   0.836   6.620  0.3979 -0.4138 -0.1829
 2570TIP3    H129273   2.883   0.753   6.619  0.8481 -0.6692 -0.4216
 2570TIP3    H229274   2.912   0.876   6.535  2.7860 -1.7655 -1.4296
 2571TIP3   OH229275   3.816   3.727   8.670  0.5415  0.2381  0.2354
 2571TIP3    H129276   3.901   3.760   8.643  0.5896 -0.7597 -0.8758
 2571TIP3    H229277   3.825   3.713   8.765  1.6536 -0.0052  0.1040
 2572TIP3   OH229278   6.042   4.255   0.679  0.1105  0.1263 -0.1059
 2572TIP3    H129279   6.011   4.228   0.592  0.5582  1.4629 -0.7097
 2572TIP3    H229280   6.064   4.173   0.722 -0.3050 -0.5862 -1.1835
 2573TIP3   OH229281   5.410   4.368   6.901  0.2681 -0.0890 -0.7510
 2573TIP3    H129282   5.322   4.334   6.884  0.1518 -1.7598  2.3720
 2573TIP3    H229283   5.398   4.463   6.908 -1.1652 -0.2262 -0.9576
 2574TIP3   OH229284   3.609   2.312   6.865  0.1770  0.4648 -0.1044
 2574TIP3    H129285   3.584   2.315   6.772 -1.6583 -0.6515  0.3120
 2574TIP3    H229286   3.555   2.379   6.907 -0.8222 -0.7026  0.5220
 2575TIP3   OH229287   3.858   1.586   8.160  0.4101 -0.1949 -0.0847
 2575TIP3    H129288   3.766   1.565   8.150  0.9031 -1.7111 -1.9590
 2575TIP3    H229289   3.859   1.677   8.189 -1.6785 -0.5969  1.4506
 2576TIP3   OH229290   6.499   4.773   1.775  0.0609 -0.1414  0.5140
 2576TIP3    H129291   6.433   4.765   1.844  0.5763  0.5064  1.1089
 2576TIP3    H229292   6.451   4.800   1.697 -0.2920  1.1933  1.1597
 2577TIP3   OH229293   2.655   3.937   1.349 -0.2451  0.6766  0.6368
 2577TIP3    H129294   2.596   3.862   1.340 -0.9335  1.0670  1.6880
 2577TIP3    H229295   2.599   4.009   1.379  0.4077  1.6128 -0.3194
 2578TIP3   OH229296   4.601   6.010   6.270  0.6098 -0.0558 -0.5396
 2578TIP3    H129297   4.680   5.998   6.218  1.1821 -0.8906  0.4906
 2578TIP3    H229298   4.618   5.963   6.352 -0.5438  0.6212  0.1195
 2579TIP3   OH229299   2.250   4.335   7.748  0.4727  0.4519 -0.4928
 2579TIP3    H129300   2.302   4.256   7.761  1.2432  0.4137 -3.1930
 2579TIP3    H229301   2.167   4.317   7.791  1.0258 -1.3819 -0.1169
 2580TIP3   OH229302   1.569   6.342   8.197  0.4660 -0.3483  0.7187
 2580TIP3    H129303   1.623   6.269   8.169 -0.6460 -1.1429  0.5868
 2580TIP3    H229304   1.552   6.326   8.290 -0.1293 -0.5021  0.5910
 2581TIP3   OH229305   1.904   1.433   6.576 -0.0405 -0.0256  0.2244
 2581TIP3    H129306   1.970   1.399   6.636 -0.8160 -0.5489  0.7862
 2581TIP3    H229307   1.821   1.425   6.623 -0.4428  1.1719 -0.2427
 2582TIP3   OH229308   4.404   5.793   8.592  0.4214  0.2419 -0.5764
 2582TIP3    H129309   4.351   5.714   8.598 -0.9246  1.1898  0.9911
 2582TIP3    H229310   4.453   5.796   8.673 -0.1851  1.4061 -0.2276
 2583TIP3   OH229311   4.201   4.270   0.448  0.1620 -0.7110 -0.3857
 2583TIP3    H129312   4.125   4.305   0.402  0.4405  0.4492  0.0078
 2583TIP3    H229313   4.218   4.333   0.518  1.0579 -1.3228 -0.0342
 2584TIP3   OH229314   2.345   2.836   7.577 -0.5285  0.2269  0.3229
 2584TIP3    H129315   2.268   2.794   7.538 -0.1620  0.6449 -0.8860
 2584TIP3    H229316   2.334   2.822   7.671 -1.8006 -0.1967  0.1357
 2585TIP3   OH229317   3.922   5.293   7.803  0.3887  0.5926 -0.1027
 2585TIP3    H129318   3.929   5.281   7.709 -2.4712  1.0770 -0.4478
 2585TIP3    H229319   3.997   5.245   7.839  0.7561 -0.7701 -2.5119
 2586TIP3   OH229320   5.642   6.618   0.074  0.3869  0.2067 -0.8774
 2586TIP3    H129321   5.584   6.654   0.142  0.0468 -1.5910 -0.1467
 2586TIP3    H229322   5.587   6.612  -0.004 -0.6824 -1.9495 -0.0616
 2587TIP3   OH229323   0.843   2.281   0.290 -0.3910  0.0421  0.2564
 2587TIP3    H129324   0.825   2.342   0.217 -2.8845 -0.9832 -0.0960
 2587TIP3    H229325   0.872   2.337   0.361 -0.5725  1.4049 -0.6957
 2588TIP3   OH229326   2.796   6.402   8.184  0.0302  0.4250 -0.3624
 2588TIP3    H129327   2.773   6.315   8.151  1.2051 -0.1430  0.2367
 2588TIP3    H229328   2.891   6.397   8.198  0.6505  2.7014 -3.0126
 2589TIP3   OH229329   6.013   1.628   8.269  0.6311 -0.4956  0.0044
 2589TIP3    H129330   5.929   1.583   8.258  1.0044 -0.7889 -2.0595
 2589TIP3    H229331   6.067   1.595   8.197  2.2612  0.2863  0.8295
 2590TIP3   OH229332   5.378   1.599   8.513 -0.0233  0.1135 -0.1566
 2590TIP3    H129333   5.355   1.680   8.466  1.4931  1.0269  0.6216
 2590TIP3    H229334   5.473   1.601   8.519  0.0918 -1.9929 -0.5227
 2591TIP3   OH229335   4.262   0.883   7.836  0.4681 -0.5638  0.6796
 2591TIP3    H129336   4.212   0.834   7.770  0.1142 -2.2307  2.1172
 2591TIP3    H229337   4.196   0.920   7.894  0.6801  2.4407 -0.8155
 2592TIP3   OH229338   4.034   3.923   2.027  0.2757  0.0943 -0.1269
 2592TIP3    H129339   4.035   3.982   2.103 -0.9070 -1.4222  1.1218
 2592TIP3    H229340   3.956   3.948   1.978 -0.7429 -0.9902  0.8975
 2593TIP3   OH229341   0.406   3.391   2.701 -0.0211 -0.4202  0.4581
 2593TIP3    H129342   0.498   3.417   2.709 -0.0644 -0.7830  3.2693
 2593TIP3    H229343   0.359   3.473   2.684  0.6345  0.0973  1.0643
 2594TIP3   OH229344   6.623   5.981   6.761  0.6921  0.3635  0.0823
 2594TIP3    H129345   6.568   6.027   6.698 -1.7796 -1.8179  0.4271
 2594TIP3    H229346   6.684   6.047   6.794 -0.5760  2.5252 -1.6577
 2595TIP3   OH229347   2.019   1.236   1.519  0.0566 -0.0228 -0.4931
 2595TIP3    H129348   2.084   1.280   1.465  0.1516  0.4775  0.0238
 2595TIP3    H229349   2.067   1.212   1.599 -0.1057 -0.6729 -0.5813
 2596TIP3   OH229350   5.373   2.074   8.380  0.3566  0.0220  0.6436
 2596TIP3    H129351   5.443   2.076   8.445 -1.1480  0.2578  2.3284
 2596TIP3    H229352   5.349   2.166   8.368 -0.7392 -0.1502  1.3415
 2597TIP3   OH229353   0.533   6.423   7.108 -0.2721  0.1385  0.0622
 2597TIP3    H129354   0.493   6.498   7.152 -1.2751 -0.4633  0.2083
 2597TIP3    H229355   0.604   6.395   7.167  1.7210  2.3958 -1.1027
 2598TIP3   OH229356   6.079   2.355   7.430  0.1850  0.1619 -0.0119
 2598TIP3    H129357   5.989   2.388   7.440  0.5354  0.7698  1.4011
 2598TIP3    H229358   6.127   2.428   7.393 -0.1198 -0.5676 -1.9722
 2599TIP3   OH229359   3.825   1.142   7.102  0.0608  0.0028 -0.1968
 2599TIP3    H129360   3.781   1.133   7.017 -0.3179 -2.6518  0.2020
 2599TIP3    H229361   3.762   1.188   7.157 -0.1665  0.6935 -1.0153
 2600TIP3   OH229362   6.709   3.894   6.467 -0.1916  0.5574 -0.0625
 2600TIP3    H129363   6.715   3.804   6.433 -0.4370 -0.1853  1.7365
 2600TIP3    H229364   6.627   3.894   6.517 -0.7742  2.1390 -0.9588
 2601TIP3   OH229365   4.080   6.151   1.732  0.3218  0.3638  0.3783
 2601TIP3    H129366   4.134   6.197   1.668  0.2184  0.6026  0.4597
 2601TIP3    H229367   4.069   6.214   1.804  0.1296  0.2329  0.4654
 2602TIP3   OH229368   5.211   5.464   6.106 -0.2452  0.2535  0.3396
 2602TIP3    H129369   5.237   5.506   6.024  3.6157 -0.9062  0.7595
 2602TIP3    H229370   5.198   5.536   6.167  0.3004  1.0339 -0.4376
 2603TIP3   OH229371   0.590   1.750   7.865  0.2645  0.2472  0.4834
 2603TIP3    H129372   0.550   1.665   7.883 -0.3797  0.4611  0.1035
 2603TIP3    H229373   0.633   1.739   7.780 -2.7571  1.2464 -1.3088
 2604TIP3   OH229374   4.290   2.812   1.581  0.3497  0.0127  0.1519
 2604TIP3    H129375   4.222   2.804   1.648  1.0533  0.7462  0.9792
 2604TIP3    H229376   4.372   2.816   1.630  1.0057 -0.8303 -0.8329
 2605TIP3   OH229377   4.400   3.516   8.349  0.2710 -0.4572 -0.2008
 2605TIP3    H129378   4.456   3.451   8.306 -0.6987  0.0682 -2.3895
 2605TIP3    H229379   4.311   3.493   8.321 -0.0918  1.9021 -1.2746
 2606TIP3   OH229380   6.184   0.292   7.476 -0.1900 -0.3038  0.4585
 2606TIP3    H129381   6.094   0.305   7.447 -0.3725  1.2736  1.5990
 2606TIP3    H229382   6.220   0.380   7.481  1.4382 -0.9128  0.0415
 2607TIP3   OH229383   4.595   5.401   1.505 -0.0876  0.1644  0.1288
 2607TIP3    H129384   4.688   5.385   1.487 -0.2100 -1.9551  1.0683
 2607TIP3    H229385   4.591   5.420   1.599 -0.8592 -3.5698  1.0499
 2608TIP3   OH229386   0.644   0.827   6.746 -0.5730 -0.0253 -0.1396
 2608TIP3    H129387   0.672   0.918   6.735 -1.1240  0.1708  0.0548
 2608TIP3    H229388   0.726   0.777   6.747 -0.2115  0.5541  0.5659
 2609TIP3   OH229389   3.285   2.576   0.835 -0.1221  0.3429 -0.3189
 2609TIP3    H129390   3.291   2.614   0.923 -0.1390 -0.7866  0.1843
 2609TIP3    H229391   3.204   2.525   0.836  1.5123 -2.4419  0.1610
 2610TIP3   OH229392   2.399   2.437   0.670 -0.4581  0.4060  0.2471
 2610TIP3    H129393   2.349   2.358   0.689 -1.3933  1.0995  0.7421
 2610TIP3    H229394   2.458   2.447   0.745 -0.5784  0.3598  0.3482
 2611TIP3   OH229395   5.618   2.889   8.295  0.2218  0.6357 -0.0210
 2611TIP3    H129396   5.599   2.804   8.336  1.6633  0.0559 -0.4885
 2611TIP3    H229397   5.608   2.873   8.201  0.9088  0.8611 -0.1380
 2612TIP3   OH229398   5.499   5.130   2.077 -0.2165 -0.1449  0.8171
 2612TIP3    H129399   5.472   5.222   2.075 -0.0779 -0.0748  1.6164
 2612TIP3    H229400   5.474   5.100   2.165  0.6767 -0.5838  0.9336
 2613TIP3   OH229401   1.229   2.909   1.334 -0.5189  0.5258  0.2384
 2613TIP3    H129402   1.217   3.002   1.318  1.6829  1.0610  1.2830
 2613TIP3    H229403   1.291   2.905   1.407  2.5217 -1.6584 -2.1667
 2614TIP3   OH229404   5.827   5.294   1.557  0.6946  0.0029 -0.4360
 2614TIP3    H129405   5.786   5.292   1.470  2.1246  0.8425 -1.1486
 2614TIP3    H229406   5.906   5.347   1.546  1.8084 -1.2739  0.9829
 2615TIP3   OH229407   2.572   2.556   6.359  0.8555 -0.1235  0.3125
 2615TIP3    H129408   2.523   2.594   6.286  2.6657 -0.2349 -1.0293
 2615TIP3    H229409   2.528   2.590   6.437  1.2095  3.2808 -0.8059
 2616TIP3   OH229410   5.481   3.068   0.535 -0.1114 -0.3717 -0.0210
 2616TIP3    H129411   5.400   3.099   0.575 -0.2553 -1.1917  0.3512
 2616TIP3    H229412   5.495   3.126   0.461 -0.2900  0.6579  0.7245
 2617TIP3   OH229413   2.888   4.033   1.179 -0.0465 -0.1320  0.2732
 2617TIP3    H129414   2.977   4.014   1.208  0.1337  0.5364  0.1689
 2617TIP3    H229415   2.832   3.990   1.243  0.3526 -0.1221  0.6305
 2618TIP3   OH229416   0.717   0.221   0.845  0.3614 -0.6974 -0.5063
 2618TIP3    H129417   0.690   0.255   0.930  0.0346 -0.6142 -0.6442
 2618TIP3    H229418   0.716   0.126   0.856 -0.8033 -0.7244 -0.7551
 2619TIP3   OH229419   3.996   4.106   0.812 -0.1992 -0.2234 -0.6353
 2619TIP3    H129420   4.087   4.077   0.812  0.3448  1.3734  0.1005
 2619TIP3    H229421   3.990   4.167   0.886 -1.5880  0.5318 -1.3294
 2620TIP3   OH229422   3.310   6.715   6.363  0.0111  0.1059  0.6469
 2620TIP3    H129423   3.304   6.631   6.316 -0.2723  0.8613 -0.7355
 2620TIP3    H229424   3.404   6.735   6.364  0.0182  0.0856  0.4079
 2621TIP3   OH229425   5.199   5.795   8.691 -0.1666  0.4698 -0.8995
 2621TIP3    H129426   5.219   5.818   8.781 -1.2171  1.1229 -0.8160
 2621TIP3    H229427   5.116   5.748   8.695 -0.0757  0.2436 -1.4901
 2622TIP3   OH229428   6.681   3.267   2.544  0.1362 -0.1547  0.3146
 2622TIP3    H129429   6.637   3.187   2.574 -1.2943  0.4357 -0.0912
 2622TIP3    H229430   6.640   3.285   2.459  0.4778  0.9823  0.3805
 2623TIP3   OH229431   6.440   0.160   0.055 -0.0940 -0.5521 -0.1448
 2623TIP3    H129432   6.477   0.247   0.067 -2.2075  0.5686 -1.2172
 2623TIP3    H229433   6.473   0.109   0.129  1.9904  0.8589 -0.0455
 2624TIP3   OH229434   3.535   6.674   7.718  0.3591 -0.0426 -0.4967
 2624TIP3    H129435   3.492   6.709   7.640 -1.6998  0.7321  0.9079
 2624TIP3    H229436   3.573   6.750   7.761  2.5325 -0.6191 -1.2888
 2625TIP3   OH229437   1.102   0.310   6.339  0.6385 -0.1967 -0.0887
 2625TIP3    H129438   1.011   0.326   6.313  0.6232  0.5648  0.3891
 2625TIP3    H229439   1.098   0.303   6.434  0.9538 -1.0842 -0.1404
 2626TIP3   OH229440   4.545   2.439   7.807 -0.0895 -0.1065  0.3338
 2626TIP3    H129441   4.596   2.507   7.851  0.4520 -0.3431  0.0851
 2626TIP3    H229442   4.590   2.426   7.724 -1.1029  0.3329 -0.2955
 2627TIP3   OH229443   5.710   6.327   0.614 -0.3987 -0.2578  0.3306
 2627TIP3    H129444   5.787   6.297   0.662  0.5305 -0.2426 -1.0952
 2627TIP3    H229445   5.637   6.310   0.674  0.7714  0.5883  2.1039
 2628TIP3   OH229446   4.510   3.085   6.663  0.2508  0.3424  0.2028
 2628TIP3    H129447   4.468   3.051   6.583  2.9334 -0.8720 -0.7934
 2628TIP3    H229448   4.496   3.016   6.728 -0.8015  0.7539  0.4383
 2629TIP3   OH229449   1.104   2.261   1.869  0.4442 -0.7281 -0.6635
 2629TIP3    H129450   1.012   2.277   1.849  1.0251  1.6100 -1.9098
 2629TIP3    H229451   1.103   2.196   1.939 -2.2619  1.0440  1.1630
 2630TIP3   OH229452   1.660   6.173   7.384 -0.4686  0.1392  0.2527
 2630TIP3    H129453   1.630   6.251   7.338  0.0500  0.2117  0.0248
 2630TIP3    H229454   1.688   6.113   7.314  2.2109  1.0093  0.4468
 2631TIP3   OH229455   4.428   6.596   1.489 -0.5266  0.2495  0.5866
 2631TIP3    H129456   4.425   6.617   1.582  1.1565  0.1041  0.7171
 2631TIP3    H229457   4.447   6.680   1.446 -1.1356  0.2865  0.3826
 2632TIP3   OH229458   5.767   5.812   0.788  0.1318 -0.2312 -0.2484
 2632TIP3    H129459   5.836   5.857   0.738  0.1558  0.6306  0.5497
 2632TIP3    H229460   5.811   5.779   0.866 -0.9329  3.4198  2.1389
 2633TIP3   OH229461   4.428   3.046   7.592 -0.3765 -0.3252 -0.1334
 2633TIP3    H129462   4.497   2.994   7.552 -0.7385  0.7995 -2.3902
 2633TIP3    H229463   4.348   3.018   7.547 -0.8484  0.8172 -0.0426
 2634TIP3   OH229464   1.221   4.480   0.578 -0.2893  0.6758 -0.1260
 2634TIP3    H129465   1.144   4.532   0.599 -1.2118 -0.4435 -0.6099
 2634TIP3    H229466   1.213   4.401   0.632  0.9054  0.8666  0.3565
 2635TIP3   OH229467   1.687   4.695   0.417 -0.1549  0.2724 -0.2729
 2635TIP3    H129468   1.726   4.700   0.504 -0.4751 -1.6882  0.0213
 2635TIP3    H229469   1.593   4.691   0.433 -0.1841 -0.9157 -0.6281
 2636TIP3   OH229470   4.021   5.137   0.464 -0.4307 -0.4117 -0.3421
 2636TIP3    H129471   3.959   5.204   0.435  0.0456 -0.5486 -1.7538
 2636TIP3    H229472   4.076   5.181   0.529  0.6873  0.9691 -2.1609
 2637TIP3   OH229473   4.178   0.077   8.216  0.0569  0.2474 -0.1000
 2637TIP3    H129474   4.116   0.123   8.273 -0.4996  0.0317 -0.5168
 2637TIP3    H229475   4.207   0.144   8.154  1.8346  0.8787  1.3357
 2638TIP3   OH229476   4.340   5.066   1.823 -0.1415  0.2478  0.3516
 2638TIP3    H129477   4.310   4.993   1.878  2.1854  0.1116  1.5373
 2638TIP3    H229478   4.380   5.128   1.884  5.4047 -1.2881 -1.2134
 2639TIP3   OH229479   4.564   6.264   0.287  0.4459 -0.3340 -0.1728
 2639TIP3    H129480   4.582   6.318   0.210  0.1915 -0.9642 -0.6827
 2639TIP3    H229481   4.509   6.319   0.343  0.6230  0.1225 -0.4447
 2640TIP3   OH229482   5.196   3.133   0.922  0.3972  0.3214  0.2190
 2640TIP3    H129483   5.195   3.220   0.962 -0.6245  0.9489 -1.0878
 2640TIP3    H229484   5.107   3.100   0.933  0.8850 -0.7849  1.0986
 2641TIP3   OH229485   6.652   5.585   8.439 -0.5028  0.1761  0.1180
 2641TIP3    H129486   6.706   5.514   8.406  0.3862  0.4484  0.9563
 2641TIP3    H229487   6.714   5.653   8.466 -1.3058  0.9751  0.0244
 2642TIP3   OH229488   4.879   6.240   7.351 -0.1782  0.0044  0.1127
 2642TIP3    H129489   4.915   6.240   7.439 -0.3226 -2.2906  0.2345
 2642TIP3    H229490   4.796   6.287   7.359 -0.8767 -1.3625  1.5566
 2643TIP3   OH229491   3.139   5.443   8.483  0.1177  0.0558  0.3773
 2643TIP3    H129492   3.227   5.445   8.445 -0.3921  0.2319 -0.8407
 2643TIP3    H229493   3.111   5.535   8.483 -1.0125 -0.2289 -1.6107
 2644TIP3   OH229494   1.028   2.128   7.932  0.0574 -0.1466  0.1266
 2644TIP3    H129495   1.013   2.036   7.909  0.2653  0.1970 -1.5289
 2644TIP3    H229496   1.024   2.174   7.848  0.8414  1.2429  0.8264
 2645TIP3   OH229497   2.184   3.518   7.647  0.0107  0.2505  0.1451
 2645TIP3    H129498   2.218   3.580   7.582 -0.5564 -0.6079 -0.9883
 2645TIP3    H229499   2.145   3.574   7.714 -1.2826  1.1454 -1.2808
 2646TIP3   OH229500   0.607   4.413   7.081 -0.5632 -0.8378 -0.1592
 2646TIP3    H129501   0.681   4.353   7.070 -0.0852 -0.3530  0.3866
 2646TIP3    H229502   0.561   4.410   6.997  0.7275 -0.2727 -0.9138
 2647TIP3   OH229503   0.396   4.813   0.291  0.1781  0.1965 -0.0702
 2647TIP3    H129504   0.416   4.773   0.206  2.7012  2.2251 -0.5542
 2647TIP3    H229505   0.471   4.792   0.346 -0.2971  0.9365  0.8833
 2648TIP3   OH229506   3.990   1.194   1.231 -0.6038 -0.4355 -0.5360
 2648TIP3    H129507   3.920   1.155   1.179 -0.7485  0.4911 -1.0624
 2648TIP3    H229508   3.946   1.252   1.293 -0.3777 -0.8860  0.0527
 2649TIP3   OH229509   2.272   0.741   8.186  0.1027 -0.4090 -0.2357
 2649TIP3    H129510   2.331   0.775   8.253 -0.8171  1.5586 -0.3367
 2649TIP3    H229511   2.311   0.770   8.103 -0.8428  0.6791 -0.3143
 2650TIP3   OH229512   3.834   4.472   0.240  0.8297 -0.2875  0.0369
 2650TIP3    H129513   3.761   4.414   0.262 -0.4720  1.1212 -0.3792
 2650TIP3    H229514   3.806   4.516   0.160  0.5520  2.8284  1.6991
 2651TIP3   OH229515   4.375   5.485   7.615  0.5670  0.3252 -0.6999
 2651TIP3    H129516   4.332   5.419   7.560  1.1088 -0.4728 -0.2035
 2651TIP3    H229517   4.392   5.439   7.698  1.6017  0.8718 -0.5941
 2652TIP3   OH229518   0.123   0.423   7.475 -0.2855  0.1255  0.2130
 2652TIP3    H129519   0.126   0.498   7.415  1.8920 -0.4483 -0.4582
 2652TIP3    H229520   0.050   0.370   7.443  0.6910 -0.0670 -1.8487
 2653TIP3   OH229521   1.270   2.082   8.158 -0.1711  0.6661  0.0577
 2653TIP3    H129522   1.193   2.122   8.117 -0.5837  0.6735  0.8251
 2653TIP3    H229523   1.249   1.989   8.164 -1.0569  0.9436  2.2119
 2654TIP3   OH229524   6.615   5.103   0.679  0.5433  0.3480 -0.1911
 2654TIP3    H129525   6.592   5.179   0.733  1.2937  1.0685 -0.8604
 2654TIP3    H229526   6.691   5.065   0.723  2.3198  1.9971 -1.6292
 2655TIP3   OH229527   2.827   3.097   1.465 -0.5163  0.3652  0.7162
 2655TIP3    H129528   2.811   3.007   1.494  1.4467  0.1734  1.3100
 2655TIP3    H229529   2.807   3.096   1.371  1.7026 -1.3486  0.1652
 2656TIP3   OH229530   0.582   4.666   8.527 -0.0643  0.2091 -0.2503
 2656TIP3    H129531   0.619   4.639   8.611 -0.4489  0.5671  0.0378
 2656TIP3    H229532   0.596   4.591   8.470  0.4299  0.0559  0.0592
 2657TIP3   OH229533   6.611   1.419   7.195 -0.3061 -0.2236  0.0300
 2657TIP3    H129534   6.597   1.395   7.104  0.2226  0.6466 -0.2934
 2657TIP3    H229535   6.604   1.336   7.243 -3.4203 -0.3309 -0.4108
 2658TIP3   OH229536   3.485   2.596   1.422  0.3412 -0.6243 -0.2308
 2658TIP3    H129537   3.581   2.596   1.421  0.3479 -0.1597 -1.7093
 2658TIP3    H229538   3.461   2.668   1.480  0.8972 -0.0769 -0.6696
 2659TIP3   OH229539   0.929   2.572   7.795 -0.5267  0.3314 -0.1432
 2659TIP3    H129540   0.955   2.658   7.763  1.1048  0.1316  0.5570
 2659TIP3    H229541   0.898   2.526   7.717  0.8009  0.7745 -0.9746
 2660TIP3   OH229542   0.239   1.074   0.726 -0.5537 -0.1093 -0.5182
 2660TIP3    H129543   0.313   1.045   0.779 -1.8698 -2.7847  0.0023
 2660TIP3    H229544   0.190   1.132   0.783  0.7543  1.1845 -0.6537
 2661TIP3   OH229545   2.218   1.224   0.926 -0.2071 -0.2207  0.8763
 2661TIP3    H129546   2.296   1.183   0.891 -0.3258  0.0348  0.2982
 2661TIP3    H229547   2.147   1.163   0.907 -0.4367  0.3701 -0.2790
 2662TIP3   OH229548   4.654   6.527   1.335  0.2764 -0.3981 -0.0167
 2662TIP3    H129549   4.706   6.605   1.354 -0.0919 -0.0688 -0.3353
 2662TIP3    H229550   4.573   6.541   1.383 -0.4005  0.1376 -1.2554
 2663TIP3   OH229551   5.707   5.619   7.176 -0.6652 -0.6066  0.5013
 2663TIP3    H129552   5.770   5.567   7.126  2.5705  2.4912  0.9271
 2663TIP3    H229553   5.670   5.679   7.111  0.5839  0.7960  1.0285
 2664TIP3   OH229554   4.797   1.319   7.694  0.2112 -0.4879 -0.7442
 2664TIP3    H129555   4.891   1.304   7.682  0.4685 -0.4687  0.9352
 2664TIP3    H229556   4.778   1.281   7.780 -1.2468 -0.1574 -0.8996
 2665TIP3   OH229557   1.082   3.250   7.819  0.0938 -0.3912  0.6201
 2665TIP3    H129558   1.042   3.337   7.821  1.0324  0.0821 -0.3209
 2665TIP3    H229559   1.097   3.228   7.911  2.6630  1.8149  0.8646
 2666TIP3   OH229560   5.138   0.570   0.710 -0.5804 -0.3668  0.1371
 2666TIP3    H129561   5.139   0.493   0.766 -0.0502  0.1585  0.8625
 2666TIP3    H229562   5.201   0.630   0.749 -0.0269 -0.0667 -1.1475
 2667TIP3   OH229563   2.546   6.281   6.733  0.1175 -0.0885  0.1228
 2667TIP3    H129564   2.507   6.262   6.648  0.8067 -0.0019 -0.2113
 2667TIP3    H229565   2.493   6.230   6.795  0.7129 -1.5853 -0.5370
 2668TIP3   OH229566   3.472   1.636   0.104 -0.1872  0.4480 -0.9978
 2668TIP3    H129567   3.459   1.728   0.129  1.5748  0.4150  0.2417
 2668TIP3    H229568   3.561   1.633   0.069 -0.0890 -0.8447 -0.6867
 2669TIP3   OH229569   4.012   2.861   1.729  0.3454  0.2864 -0.0776
 2669TIP3    H129570   4.036   2.798   1.796  1.9959  1.5692  0.6081
 2669TIP3    H229571   4.009   2.945   1.776  0.4880  1.0459 -1.3920
 2670TIP3   OH229572   3.859   0.433   8.441  0.0229 -0.1591 -0.3843
 2670TIP3    H129573   3.849   0.383   8.522 -0.3963 -2.3344 -1.7181
 2670TIP3    H229574   3.773   0.473   8.427  0.1546  0.3975  0.3059
 2671TIP3   OH229575   5.198   2.365   1.821  0.3420 -0.1593  0.5387
 2671TIP3    H129576   5.235   2.426   1.885  0.3314 -0.5818  0.9532
 2671TIP3    H229577   5.146   2.304   1.873  2.0163 -1.7973  0.4123
 2672TIP3   OH229578   2.873   1.456   2.309 -0.1124 -0.0036 -0.2968
 2672TIP3    H129579   2.893   1.547   2.287 -0.4286  0.4094  1.0392
 2672TIP3    H229580   2.897   1.407   2.230 -0.1264  1.2476 -1.1234
 2673TIP3   OH229581   6.595   1.628   7.988  0.0089  0.6366  0.1792
 2673TIP3    H129582   6.542   1.650   8.065  1.1569  0.2414  1.1067
 2673TIP3    H229583   6.671   1.685   7.993  0.3852  0.1954 -0.3442
 2674TIP3   OH229584   3.313   6.564   0.977  0.8578 -0.4182 -0.1817
 2674TIP3    H129585   3.405   6.544   0.995  0.2546 -1.5044  2.1439
 2674TIP3    H229586   3.293   6.637   1.037 -0.1147 -1.1044  0.3583
 2675TIP3   OH229587   1.108   1.263   1.820 -0.0057  0.4124 -0.1245
 2675TIP3    H129588   1.124   1.347   1.778  1.0413 -0.0461 -0.6790
 2675TIP3    H229589   1.121   1.280   1.913 -1.7716  1.2992  0.0051
 2676TIP3   OH229590   3.140   2.229   0.516  0.2097  0.5432  0.4490
 2676TIP3    H129591   3.093   2.155   0.478  0.5998  1.3858 -1.8255
 2676TIP3    H229592   3.215   2.189   0.561 -0.7981 -0.5589  1.2260
 2677TIP3   OH229593   6.753   3.603   0.239  0.0628  0.8783  0.2831
 2677TIP3    H129594   6.786   3.634   0.323  1.1973  1.0428 -0.1954
 2677TIP3    H229595   6.684   3.665   0.215  0.8689  1.8168  0.3248
 2678TIP3   OH229596   0.877   5.374   7.496  0.3316  0.1556 -0.2150
 2678TIP3    H129597   0.795   5.397   7.454  1.0059 -0.4456 -1.9362
 2678TIP3    H229598   0.911   5.301   7.445  1.4425 -0.3033  1.0969
 2679TIP3   OH229599   2.889   2.884   0.857  0.5830 -0.1860  0.0435
 2679TIP3    H129600   2.885   2.890   0.761  1.0654  0.0836  0.0402
 2679TIP3    H229601   2.938   2.804   0.874  2.0841  0.7103  0.0516
 2680TIP3   OH229602   2.238   6.318   8.368  0.2114 -0.4590  0.1992
 2680TIP3    H129603   2.300   6.356   8.431  1.6000 -1.4819 -0.4880
 2680TIP3    H229604   2.290   6.305   8.289 -1.9670  2.6153 -1.9350
 2681TIP3   OH229605   4.763   3.981   8.215  0.4004  0.4192 -0.2049
 2681TIP3    H129606   4.789   3.895   8.182  0.5741  0.1095  0.7114
 2681TIP3    H229607   4.668   3.981   8.208  0.5155  1.0074 -2.2412
 2682TIP3   OH229608   4.347   3.675   7.135 -0.2468  0.0934 -0.3594
 2682TIP3    H129609   4.343   3.613   7.062 -2.1503 -0.0786 -0.1540
 2682TIP3    H229610   4.351   3.621   7.213  1.7404  0.2799 -0.2852
 2683TIP3   OH229611   5.365   4.903   1.558  0.6743 -0.0127 -0.3145
 2683TIP3    H129612   5.429   4.834   1.574 -0.2480 -0.5077  1.5840
 2683TIP3    H229613   5.398   4.978   1.607 -0.8481 -0.7222  1.9801
 2684TIP3   OH229614   2.177   4.900   7.378 -0.5658  0.5472  0.3187
 2684TIP3    H129615   2.142   4.908   7.467 -0.2672  1.2861  0.3689
 2684TIP3    H229616   2.102   4.922   7.322 -0.7815 -0.0148  0.3800
 2685TIP3   OH229617   2.281   1.770   0.880  0.0432  0.2026 -0.1545
 2685TIP3    H129618   2.250   1.680   0.879 -2.1939  0.9055 -0.3999
 2685TIP3    H229619   2.281   1.797   0.788  3.3270 -0.2716 -0.4351
 2686TIP3   OH229620   3.302   3.562   1.557 -0.4255 -0.0837  0.6138
 2686TIP3    H129621   3.259   3.636   1.599 -0.2371  0.6925 -0.5231
 2686TIP3    H229622   3.344   3.515   1.629  0.3899  1.5379  1.2404
 2687TIP3   OH229623   2.682   1.202   8.564 -0.0869 -0.5814 -0.4337
 2687TIP3    H129624   2.718   1.176   8.479  1.0223  0.1709 -0.2142
 2687TIP3    H229625   2.693   1.125   8.619  1.8734 -0.1642 -0.1777
 2688TIP3   OH229626   5.541   5.296   0.523 -0.0418 -0.0492  0.0186
 2688TIP3    H129627   5.527   5.252   0.606  0.9805  0.6626  0.5963
 2688TIP3    H229628   5.630   5.269   0.497  0.6199  1.6549  0.4076
 2689TIP3   OH229629   3.416   2.676   2.229  0.0261 -0.4892  0.0282
 2689TIP3    H129630   3.511   2.685   2.220  0.1465 -0.0532  1.4553
 2689TIP3    H229631   3.384   2.766   2.236 -0.1889 -0.6781  2.0270
 2690TIP3   OH229632   3.041   2.294   8.368 -0.4876 -0.4284 -0.4408
 2690TIP3    H129633   3.123   2.249   8.389 -0.0575  0.9932  1.2102
 2690TIP3    H229634   2.993   2.297   8.451 -1.4871  0.1504 -1.0238
 2691TIP3   OH229635   3.010   2.894   7.796  0.4131 -0.1877 -0.1443
 2691TIP3    H129636   3.004   2.843   7.876 -1.2571 -0.3147 -0.3165
 2691TIP3    H229637   3.017   2.985   7.825 -1.2851 -0.1293  0.1807
 2692TIP3   OH229638   0.813   5.565   1.630 -0.0894 -0.7029  0.1689
 2692TIP3    H129639   0.721   5.583   1.651  0.2263  0.8394  0.3813
 2692TIP3    H229640   0.857   5.562   1.714 -0.0552 -2.3421  0.1288
 2693TIP3   OH229641   4.483   6.301   0.976  0.0257  0.1321  0.7104
 2693TIP3    H129642   4.561   6.310   0.922 -0.2225  0.1113  0.3459
 2693TIP3    H229643   4.443   6.388   0.973 -0.8712 -0.2970 -0.5030
 2694TIP3   OH229644   3.829   1.836   6.976 -0.3383 -0.2646  0.1034
 2694TIP3    H129645   3.808   1.788   6.895  0.9681  0.1765 -0.5176
 2694TIP3    H229646   3.786   1.921   6.965  1.4004  0.5373 -1.0502
 2695TIP3   OH229647   1.042   6.597   0.060 -0.0189  0.2513  0.7694
 2695TIP3    H129648   0.959   6.554   0.081 -0.9298  1.3300 -0.4289
 2695TIP3    H229649   1.016   6.684   0.029  1.5113  0.3119 -0.4343
 2696TIP3   OH229650   0.551   0.345   7.459 -0.5015  0.3282  0.4202
 2696TIP3    H129651   0.600   0.333   7.378  0.4921 -2.2076  1.2716
 2696TIP3    H229652   0.615   0.380   7.521 -0.4257 -0.5776  0.8681
 2697TIP3   OH229653   6.634   4.509   7.739 -0.1354 -0.2069 -0.0025
 2697TIP3    H129654   6.584   4.590   7.724 -0.4815  0.2285  2.9138
 2697TIP3    H229655   6.567   4.443   7.756  0.2001 -0.7330 -0.6969
 2698TIP3   OH229656   5.934   6.689   8.310 -0.3567  0.3642  0.0007
 2698TIP3    H129657   5.932   6.785   8.308 -1.6539  0.8001  5.5384
 2698TIP3    H229658   6.027   6.667   8.309 -0.0012  1.7875 -0.2224
 2699TIP3   OH229659   4.116   3.448   8.288 -0.1430 -0.2603  0.4976
 2699TIP3    H129660   4.103   3.416   8.377 -0.4665  0.3798  0.6840
 2699TIP3    H229661   4.037   3.423   8.241 -0.5101  0.4823  0.7104
 2700TIP3   OH229662   2.545   3.149   1.294 -0.2130  0.6543  0.0827
 2700TIP3    H129663   2.535   3.136   1.200 -1.5478  1.3900  0.0955
 2700TIP3    H229664   2.569   3.241   1.303 -1.0532  0.8496  0.4894
 2701TIP3   OH229665   1.155   4.073   0.334  0.6950 -0.2401  0.2559
 2701TIP3    H129666   1.207   4.094   0.257  1.1175  1.5475  0.9689
 2701TIP3    H229667   1.207   4.106   0.408 -1.0150  0.7692  1.0683
 2702TIP3   OH229668   3.325   1.928   8.621  0.0349 -0.4546  0.3373
 2702TIP3    H129669   3.301   1.977   8.542 -0.0612 -1.7380 -0.4541
 2702TIP3    H229670   3.418   1.948   8.634  0.6494 -1.8944 -1.3895
 2703TIP3   OH229671   6.256   6.430   1.909 -0.2649 -0.5408  0.6110
 2703TIP3    H129672   6.329   6.485   1.938 -0.9758  0.2446  0.9824
 2703TIP3    H229673   6.218   6.396   1.990  0.5523 -2.1414  0.3618
 2704TIP3   OH229674   1.288   6.386   6.480  0.4367 -0.5033 -0.7659
 2704TIP3    H129675   1.335   6.434   6.411  0.7650  1.4231  0.7215
 2704TIP3    H229676   1.256   6.454   6.539 -0.9316 -2.0262  0.3239
 2705TIP3   OH229677   3.075   3.058   0.365  0.0782 -0.4456 -0.3232
 2705TIP3    H129678   3.146   3.018   0.415  0.2480 -1.6595 -1.4624
 2705TIP3    H229679   3.006   2.991   0.366 -0.6400  0.2907 -0.1266
 2706TIP3   OH229680   4.861   5.344   8.597 -0.1466  0.5084 -0.0608
 2706TIP3    H129681   4.844   5.305   8.511  1.0653  0.3920 -0.2725
 2706TIP3    H229682   4.780   5.331   8.646 -0.2917 -0.9268 -0.6304
 2707TIP3   OH229683   5.037   6.445   0.696  0.1852 -0.7604 -0.6258
 2707TIP3    H129684   5.089   6.387   0.750 -2.6700 -1.1333  1.9749
 2707TIP3    H229685   5.045   6.410   0.607  2.1176 -2.3579  0.1269
 2708TIP3   OH229686   3.335   2.536   2.464  0.1668 -0.4314  0.3042
 2708TIP3    H129687   3.286   2.611   2.497 -0.9770 -1.9060  2.1262
 2708TIP3    H229688   3.400   2.575   2.405 -0.2138  2.0050  1.3473
 2709TIP3   OH229689   1.747   0.586   0.918  0.1078 -0.7769 -0.7138
 2709TIP3    H129690   1.679   0.640   0.877  0.6988 -0.6090 -1.4926
 2709TIP3    H229691   1.698   0.525   0.974 -0.7124 -0.8908 -1.5267
 2710TIP3   OH229692   6.337   6.041   1.929  0.1769  0.1334 -0.0582
 2710TIP3    H129693   6.276   6.082   1.990 -1.2053 -0.8173 -0.7625
 2710TIP3    H229694   6.309   6.070   1.843  0.5243 -0.5599 -0.4192
 2711TIP3   OH229695   0.051   6.280   1.538  0.5544 -0.9475 -0.2116
 2711TIP3    H129696  -0.016   6.343   1.510 -0.0041 -1.0585  0.8300
 2711TIP3    H229697   0.092   6.251   1.457 -1.6162 -1.9521 -1.0147
 2712TIP3   OH229698   6.620   0.228   0.854  0.2201  0.1024 -0.4160
 2712TIP3    H129699   6.529   0.209   0.829 -0.2627 -1.0534  1.9049
 2712TIP3    H229700   6.649   0.293   0.791 -2.1871  0.4145 -1.3182
 2713TIP3   OH229701   4.210   2.870   0.666 -0.7065 -0.2028  0.0368
 2713TIP3    H129702   4.156   2.817   0.607 -0.7887 -0.7842  0.6217
 2713TIP3    H229703   4.281   2.902   0.610 -0.6311 -0.9715 -0.3320
 2714TIP3   OH229704   2.833   6.232   8.697  0.1357 -0.2026  0.5628
 2714TIP3    H129705   2.851   6.210   8.788 -0.8211 -3.9487 -0.0133
 2714TIP3    H229706   2.760   6.294   8.701 -1.7821 -2.3929  2.3887
 2715TIP3   OH229707   2.080   6.049   0.556  0.4382 -0.2422  0.2419
 2715TIP3    H129708   2.138   6.028   0.482  0.6419 -0.3576  0.4341
 2715TIP3    H229709   2.056   6.141   0.541  0.3898 -0.2955 -0.0260
 2716TIP3   OH229710   1.381   3.884   1.992  0.1241 -0.5343  0.1040
 2716TIP3    H129711   1.374   3.789   1.989 -1.2690 -0.4194 -1.0486
 2716TIP3    H229712   1.403   3.910   1.902 -2.1750  0.3860 -0.2550
 2717TIP3   OH229713   3.822   4.005   2.235  0.1121  0.6951  0.8876
 2717TIP3    H129714   3.850   4.093   2.210 -0.5918  0.2771 -1.7409
 2717TIP3    H229715   3.741   3.992   2.185 -0.5382 -0.9507  2.2998
 2718TIP3   OH229716   2.102   5.804   7.847 -0.6376  0.1032 -0.3003
 2718TIP3    H129717   2.149   5.827   7.927 -2.3662  1.3594  0.4139
 2718TIP3    H229718   2.074   5.713   7.860  1.5236 -0.6907 -0.7654
 2719TIP3   OH229719   2.919   3.843   2.330 -0.0039 -0.1604 -0.0335
 2719TIP3    H129720   3.009   3.856   2.300 -0.3688 -0.9777 -1.5641
 2719TIP3    H229721   2.918   3.753   2.363 -0.1417  0.0206  0.4589
 2720TIP3   OH229722   3.348   3.481   6.339 -0.8618  0.0020  0.1511
 2720TIP3    H129723   3.438   3.494   6.370 -2.0636 -0.5571  4.7000
 2720TIP3    H229724   3.317   3.569   6.316  0.0269  0.6628  1.3786
 2721TIP3   OH229725   2.789   0.579   8.364  0.1215  0.6750  0.7201
 2721TIP3    H129726   2.737   0.535   8.430  2.2827 -0.3007  1.8776
 2721TIP3    H229727   2.786   0.520   8.288  0.8431 -0.2258  1.3593
 2722TIP3   OH229728   2.893   3.305   0.483  0.3346  0.1748  0.0135
 2722TIP3    H129729   2.906   3.391   0.523  1.2930 -0.3262  0.8257
 2722TIP3    H229730   2.960   3.300   0.415  0.0120  0.2266 -0.3112
 2723TIP3   OH229731   0.479   0.424   1.713  0.4687 -0.2098 -0.1032
 2723TIP3    H129732   0.573   0.442   1.714  0.4101  0.1881 -0.7699
 2723TIP3    H229733   0.472   0.329   1.727  0.9222 -0.1198  0.7651
 2724TIP3   OH229734   5.923   4.373   1.795  0.2938  0.3863 -0.1162
 2724TIP3    H129735   5.885   4.313   1.859  0.7463  1.1096  0.8581
 2724TIP3    H229736   6.014   4.347   1.787  0.5496  1.0709  0.4822
 2725TIP3   OH229737   4.023   3.139   7.763  0.4104  0.0118  0.7546
 2725TIP3    H129738   4.050   3.054   7.729  0.7875  0.6937 -0.7011
 2725TIP3    H229739   4.100   3.195   7.753 -0.2464  0.8768  0.4706
 2726TIP3   OH229740   2.921   6.764   0.914 -0.2712 -0.2926 -0.3538
 2726TIP3    H129741   2.980   6.716   0.855  0.4246  3.8955 -3.5827
 2726TIP3    H229742   2.977   6.831   0.953 -1.5895 -0.6065  2.2523
 2727TIP3   OH229743   3.271   5.087   2.255  0.2396 -0.0895  0.8540
 2727TIP3    H129744   3.179   5.111   2.256  0.2871  0.1941  2.9536
 2727TIP3    H229745   3.306   5.128   2.175 -2.0298 -2.9288 -1.8535
 2728TIP3   OH229746   0.671   3.795   0.627  0.3617 -0.1081 -0.2810
 2728TIP3    H129747   0.584   3.785   0.589  0.2846 -2.5107  0.3888
 2728TIP3    H229748   0.659   3.859   0.698 -0.6562  0.1814 -0.6950
 2729TIP3   OH229749   5.411   4.700   0.595  0.0141  0.0522 -0.8048
 2729TIP3    H129750   5.477   4.753   0.551 -0.7863 -0.1781 -2.3506
 2729TIP3    H229751   5.460   4.632   0.641  1.0411  1.8854  0.9495
 2730TIP3   OH229752   1.143   3.251   0.237  0.3802 -0.5299  0.0027
 2730TIP3    H129753   1.093   3.315   0.288  0.9623 -1.1564  1.4043
 2730TIP3    H229754   1.077   3.201   0.189 -0.2054 -0.1583  0.4137
 2731TIP3   OH229755   2.170   4.426   2.295  0.1868  0.5805 -0.2493
 2731TIP3    H129756   2.120   4.505   2.275 -0.2825  0.0596 -1.2059
 2731TIP3    H229757   2.105   4.361   2.321  0.2690 -0.2530 -1.9858
 2732TIP3   OH229758   3.147   3.115   1.168 -0.1437 -0.4280  0.3601
 2732TIP3    H129759   3.146   3.021   1.154 -1.2707 -0.5654  1.2671
 2732TIP3    H229760   3.208   3.128   1.240 -0.4469 -0.5357  0.6402
 2733TIP3   OH229761   4.877   6.595   0.372  0.0691 -0.0357 -0.6467
 2733TIP3    H129762   4.787   6.580   0.403 -0.6631 -0.3722 -2.8017
 2733TIP3    H229763   4.871   6.676   0.321  0.8561 -0.3946 -1.3224
 2734TIP3   OH229764   4.398   6.038   0.893 -0.3963  0.1367  0.4813
 2734TIP3    H129765   4.413   6.014   0.985 -0.6111 -0.1967  0.4342
 2734TIP3    H229766   4.387   6.133   0.894  1.3130  0.3622  0.5590
 2735TIP3   OH229767   0.766   1.642   8.816  0.0308  0.5450 -0.1144
 2735TIP3    H129768   0.698   1.586   8.778  1.4245 -0.7347 -0.8509
 2735TIP3    H229769   0.797   1.695   8.742  1.0862 -0.2170 -0.2404
 2736TIP3   OH229770   3.136   5.304   2.077  0.2044 -0.3874  0.3970
 2736TIP3    H129771   3.049   5.325   2.045  0.0716 -0.9797  0.3683
 2736TIP3    H229772   3.163   5.382   2.126 -0.7241 -0.5810  1.2248
 2737TIP3   OH229773   2.402   2.506   8.494 -0.0130  0.6685  0.0792
 2737TIP3    H129774   2.332   2.571   8.484  0.1892  0.8049 -0.5498
 2737TIP3    H229775   2.359   2.422   8.482 -0.1581  0.7291  0.1831
 2738TIP3   OH229776   6.516   2.424   0.972 -0.2574 -0.2739 -0.1257
 2738TIP3    H129777   6.503   2.460   1.060 -0.2576  0.9381 -0.6100
 2738TIP3    H229778   6.586   2.477   0.934 -0.6636 -0.3929 -1.0760
 2739TIP3   OH229779   3.394   0.414   1.517  0.0217  0.4107  0.4802
 2739TIP3    H129780   3.418   0.414   1.424 -0.8941  1.9755  0.2125
 2739TIP3    H229781   3.406   0.504   1.545 -0.1976  0.0562  1.7703
 2740TIP3   OH229782   0.753   2.258   6.861 -0.2228  1.0261  0.9451
 2740TIP3    H129783   0.764   2.302   6.777  3.2369 -1.7634 -0.2939
 2740TIP3    H229784   0.677   2.201   6.849 -0.5909  1.6512  0.2230
 2741TIP3   OH229785   0.493   3.621   8.000  0.1192  0.2719  0.1137
 2741TIP3    H129786   0.522   3.535   8.031 -1.6467  0.0050  1.1462
 2741TIP3    H229787   0.435   3.602   7.926 -0.1093  0.5929  0.2112
 2742TIP3   OH229788   2.676   6.154   1.475 -0.0138  0.5912 -0.1894
 2742TIP3    H129789   2.706   6.076   1.430  0.7161 -0.7622  2.4442
 2742TIP3    H229790   2.588   6.132   1.505 -0.0502  1.0274  0.0315
 2743TIP3   OH229791   4.192   2.201   6.723  0.3829 -0.1724 -0.0577
 2743TIP3    H129792   4.223   2.283   6.684 -0.9895  0.5037  0.2108
 2743TIP3    H229793   4.126   2.229   6.788 -0.8974 -1.5310 -0.7196
 2744TIP3   OH229794   3.296   3.329   7.430  0.4497 -0.1289 -0.4368
 2744TIP3    H129795   3.251   3.305   7.512  1.0672 -2.0633 -0.6166
 2744TIP3    H229796   3.227   3.328   7.364 -0.0585  1.4638  0.0280
 2745TIP3   OH229797   5.575   4.892   8.398 -0.6977  0.8393 -0.4389
 2745TIP3    H129798   5.555   4.981   8.428  0.7206  1.4767 -1.2852
 2745TIP3    H229799   5.658   4.870   8.441 -0.6274  0.2464 -0.8682
 2746TIP3   OH229800   4.552   5.793   0.951 -0.2760  0.3676 -0.0967
 2746TIP3    H129801   4.504   5.826   0.874 -0.0578 -0.7906 -0.7435
 2746TIP3    H229802   4.588   5.872   0.992  0.2317  0.9647 -1.6116
 2747TIP3   OH229803   0.658   0.874   0.086  0.8199  0.1820 -0.2720
 2747TIP3    H129804   0.571   0.913   0.090  1.6195  2.0152  1.2404
 2747TIP3    H229805   0.710   0.934   0.033  1.3562 -0.4637 -0.4991
 2748TIP3   OH229806   2.364   3.513   0.118 -0.1798 -0.0433  0.1818
 2748TIP3    H129807   2.417   3.462   0.057  0.3911  1.5154 -0.6800
 2748TIP3    H229808   2.309   3.569   0.062 -0.2549  0.8161  1.0871
 2749TIP3   OH229809   6.390   3.884   7.361 -0.2732  0.4206 -0.3575
 2749TIP3    H129810   6.339   3.861   7.284 -0.1490  1.1372 -0.6599
 2749TIP3    H229811   6.437   3.804   7.384 -1.1173 -0.0983 -0.3871
 2750TIP3   OH229812   0.972   2.910   8.810 -0.1528 -0.2286 -0.0911
 2750TIP3    H129813   0.903   2.932   8.747  0.3705 -0.1031 -0.6315
 2750TIP3    H229814   0.990   2.993   8.855  1.8351  0.5745 -2.1458
 2751TIP3   OH229815   3.453   3.116   1.353  0.3799  0.3151 -0.2244
 2751TIP3    H129816   3.515   3.151   1.288 -1.2244  1.2460 -1.3180
 2751TIP3    H229817   3.421   3.193   1.400  0.3726 -0.2061  0.6468
 2752TIP3   OH229818   4.053   2.507   7.063 -0.6100 -0.0112  0.1698
 2752TIP3    H129819   3.958   2.494   7.065 -0.5224 -0.7284  1.9205
 2752TIP3    H229820   4.067   2.588   7.112 -0.3139  0.1389 -0.1573
 2753TIP3   OH229821   1.682   5.212   2.868  1.0386 -0.1634  0.0980
 2753TIP3    H129822   1.715   5.226   2.957  2.3483  1.2219 -0.5517
 2753TIP3    H229823   1.730   5.276   2.814 -1.4883  0.7809 -1.2209
 2754TIP3   OH229824   6.154   1.559   0.367  0.0527  0.4004 -0.2165
 2754TIP3    H129825   6.223   1.530   0.427 -0.3184  3.4140  1.8635
 2754TIP3    H229826   6.073   1.528   0.407 -0.1453  1.8047  0.5197
 2755TIP3   OH229827   0.774   3.792   6.764 -1.1635 -0.0790 -0.6371
 2755TIP3    H129828   0.687   3.803   6.725 -0.8119  2.1357 -0.9183
 2755TIP3    H229829   0.790   3.875   6.809  0.1102 -1.0963  0.8836
 2756TIP3   OH229830   5.697   6.338   2.077 -0.5007 -0.5257  0.4062
 2756TIP3    H129831   5.748   6.360   2.155 -1.0023 -0.0970  0.6224
 2756TIP3    H229832   5.609   6.322   2.111 -0.3280 -2.1244  0.1550
 2757TIP3   OH229833   2.705   3.329   0.153 -0.0970 -0.0265 -0.8545
 2757TIP3    H129834   2.740   3.356   0.068  3.2264  0.5741  0.5296
 2757TIP3    H229835   2.726   3.236   0.159  0.5390  0.1423 -0.3556
 2758TIP3   OH229836   1.639   5.894   2.245 -0.1642 -0.1764 -0.6367
 2758TIP3    H129837   1.648   5.822   2.306 -0.2877  1.0297  0.8611
 2758TIP3    H229838   1.667   5.971   2.294 -0.3062  0.8498 -2.0920
 2759TIP3   OH229839   0.191   6.663   1.383 -0.6101 -0.1453 -0.4491
 2759TIP3    H129840   0.236   6.742   1.412  0.8904 -0.9862 -0.3751
 2759TIP3    H229841   0.261   6.599   1.370 -1.5971 -0.9462 -2.2185
 2760TIP3   OH229842   3.287   6.630   6.744  0.4514 -0.2150 -0.5342
 2760TIP3    H129843   3.194   6.644   6.723  0.8237 -0.0670 -2.2469
 2760TIP3    H229844   3.312   6.707   6.795 -0.9561 -1.4442  2.2283
 2761TIP3   OH229845   0.001   1.483   6.868  0.1027  0.0343 -0.1390
 2761TIP3    H129846   0.025   1.575   6.882 -1.9083  0.5008  0.7052
 2761TIP3    H229847   0.046   1.458   6.787  1.7395  1.3451  0.3257
 2762TIP3   OH229848   5.749   2.820   2.008  0.4776 -0.1580  0.1037
 2762TIP3    H129849   5.759   2.727   1.990  1.5735 -0.3993  1.7098
 2762TIP3    H229850   5.699   2.823   2.090  4.3270  0.4092  2.6563
 2763TIP3   OH229851   3.280   1.570   8.270 -0.3417 -0.0406 -0.1934
 2763TIP3    H129852   3.292   1.476   8.285 -2.0361 -0.4901 -1.3328
 2763TIP3    H229853   3.214   1.575   8.202  1.1778  1.9750 -1.6558
 2764TIP3   OH229854   2.964   3.634   1.179 -0.4128 -0.5690  0.1992
 2764TIP3    H129855   2.888   3.594   1.136 -0.4242  0.7782 -1.0842
 2764TIP3    H229856   3.038   3.613   1.122  0.1169 -1.3920  1.1514
 2765TIP3   OH229857   4.077   0.942   1.319 -1.0156  0.1185 -0.1647
 2765TIP3    H129858   4.094   1.030   1.286  1.7541 -0.1587  0.2553
 2765TIP3    H229859   3.998   0.914   1.274  1.5634  0.3171 -5.6460
 2766TIP3   OH229860   6.438   2.601   7.606 -0.2834 -0.3552  0.2948
 2766TIP3    H129861   6.489   2.680   7.591 -1.9644  0.5981 -0.6565
 2766TIP3    H229862   6.486   2.532   7.561 -0.8173  0.8938 -2.4047
 2767TIP3   OH229863   0.062   3.342   0.286 -0.1039  0.1083 -0.1863
 2767TIP3    H129864   0.011   3.421   0.269  1.3109  1.2065  0.5441
 2767TIP3    H229865   0.043   3.285   0.211 -1.6549  0.8454 -0.3989
 2768TIP3   OH229866   4.268   0.925   0.702  0.0954  0.2920 -0.5097
 2768TIP3    H129867   4.178   0.900   0.719 -0.6671  1.4416 -2.4902
 2768TIP3    H229868   4.306   0.850   0.657  0.3657 -0.4493  0.8988
 2769TIP3   OH229869   4.384   0.734   7.532 -0.3732  0.7566  0.0722
 2769TIP3    H129870   4.340   0.818   7.519 -0.2922  1.0575  1.5706
 2769TIP3    H229871   4.470   0.746   7.492 -0.6603  1.0916 -0.4635
 2770TIP3   OH229872   4.773   3.341   2.127 -0.1796 -0.0275 -0.0635
 2770TIP3    H129873   4.823   3.270   2.168 -2.5690 -1.8067 -0.0556
 2770TIP3    H229874   4.807   3.346   2.038 -0.5719 -1.8310 -0.3394
 2771TIP3   OH229875   6.613   2.818   7.564  0.2238  0.0679 -0.4157
 2771TIP3    H129876   6.705   2.811   7.538  0.4919 -0.0397  0.5103
 2771TIP3    H229877   6.578   2.887   7.509  1.3060  1.3068  0.3801
 2772TIP3   OH229878   4.989   1.673   8.363 -0.1350 -0.4991 -0.3002
 2772TIP3    H129879   4.989   1.760   8.322  0.4188 -0.7549 -0.8602
 2772TIP3    H229880   4.915   1.628   8.322 -0.5417 -0.2381  0.1296
 2773TIP3   OH229881   4.182   2.157   0.288 -0.2128  0.8051  0.2591
 2773TIP3    H129882   4.153   2.245   0.266  0.3057  0.9145 -0.0121
 2773TIP3    H229883   4.197   2.160   0.383 -1.2287  0.6954  0.4333
 2774TIP3   OH229884   3.050   4.506   0.762  0.0081 -0.2125  0.4794
 2774TIP3    H129885   2.969   4.552   0.740  0.6926  0.3104 -1.0409
 2774TIP3    H229886   3.120   4.563   0.729  0.9792 -0.9224  1.2676
 2775TIP3   OH229887   2.287   5.636   7.005 -0.3027  0.6129  0.2280
 2775TIP3    H129888   2.272   5.674   6.919  0.1938  1.9112  0.6957
 2775TIP3    H229889   2.330   5.705   7.055 -1.0475  0.0748  1.6815
 2776TIP3   OH229890   1.421   2.281   7.232  0.2929  0.6375 -0.4922
 2776TIP3    H129891   1.453   2.355   7.284 -1.6463  1.0235  0.2189
 2776TIP3    H229892   1.454   2.204   7.278 -0.6424  0.9972  0.8235
 2777TIP3   OH229893   5.949   0.236   8.600 -0.4366 -0.5438 -0.5001
 2777TIP3    H129894   5.895   0.277   8.667  0.7610 -1.0359  0.8313
 2777TIP3    H229895   6.011   0.304   8.574 -2.7318  0.6359 -3.3929
 2778TIP3   OH229896   1.763   1.326   0.024  0.1177  0.6227  0.6092
 2778TIP3    H129897   1.719   1.410   0.035 -1.6866 -0.0449 -1.0166
 2778TIP3    H229898   1.751   1.304  -0.069  2.9974 -0.1461  0.3097
 2779TIP3   OH229899   5.494   0.609   6.717  0.0839  0.3029  0.4551
 2779TIP3    H129900   5.513   0.701   6.735 -1.9791  0.6409  1.1368
 2779TIP3    H229901   5.513   0.599   6.624 -0.3526  1.6079  0.2014
 2780TIP3   OH229902   4.042   3.670   2.191  0.0082  0.4470  0.0709
 2780TIP3    H129903   4.083   3.757   2.185 -0.6638  0.6848 -1.5195
 2780TIP3    H229904   4.089   3.627   2.262 -0.0321  2.3149  1.3087
 2781TIP3   OH229905   0.702   4.211   7.291 -0.0197  0.2323 -0.1402
 2781TIP3    H129906   0.749   4.224   7.209 -2.7999  1.4309 -1.6623
 2781TIP3    H229907   0.683   4.117   7.294  3.1968 -0.5259  1.0830
 2782TIP3   OH229908   5.058   4.487   0.625  0.0345 -0.4500 -0.1213
 2782TIP3    H129909   4.963   4.491   0.634 -0.2633 -0.9758 -2.3071
 2782TIP3    H229910   5.086   4.578   0.632 -0.8452 -0.0908 -0.9553
 2783TIP3   OH229911   3.548   6.319   0.685 -0.4676  0.0645 -0.6379
 2783TIP3    H129912   3.454   6.336   0.695 -0.2714  0.7042  0.2958
 2783TIP3    H229913   3.590   6.401   0.711  0.3347 -0.0035 -1.6738
 2784TIP3   OH229914   5.933   4.472   2.693  0.1534 -0.2126  0.0507
 2784TIP3    H129915   6.006   4.532   2.706 -1.3033  1.4171  1.2636
 2784TIP3    H229916   5.952   4.398   2.750  1.0684 -0.0434 -0.0159
 2785TIP3   OH229917   2.247   4.587   6.799 -0.5251 -0.1006 -0.0925
 2785TIP3    H129918   2.297   4.668   6.791 -0.0359 -0.5424 -2.0455
 2785TIP3    H229919   2.241   4.554   6.709 -1.8201 -1.5681  0.4961
 2786TIP3   OH229920   4.491   2.302   8.396 -0.8216 -0.3545 -0.6134
 2786TIP3    H129921   4.526   2.240   8.332  0.7720 -0.8954  0.7174
 2786TIP3    H229922   4.431   2.251   8.449 -0.0471 -0.6132  0.0347
 2787TIP3   OH229923   2.061   0.335   0.327  0.4506 -0.0645 -0.3239
 2787TIP3    H129924   2.111   0.415   0.346  0.9218 -0.1953 -0.9679
 2787TIP3    H229925   1.969   0.363   0.331  0.5588  0.1704  0.9096
 2788TIP3   OH229926   1.062   5.072   6.454  0.4972  0.3805  0.0437
 2788TIP3    H129927   1.073   5.151   6.402  1.7891  0.2793  0.1255
 2788TIP3    H229928   1.029   5.007   6.391  0.0717  0.7966 -0.1706
 2789TIP3   OH229929   0.218   0.502   8.707  0.2487 -0.1415  0.1980
 2789TIP3    H129930   0.304   0.483   8.668  1.0132  0.5750  1.4610
 2789TIP3    H229931   0.184   0.416   8.732  0.2550 -0.4999 -0.9794
 2790TIP3   OH229932   1.290   0.656   0.195  0.0032 -0.4037  0.0211
 2790TIP3    H129933   1.223   0.702   0.245 -1.2153 -1.3059 -0.7409
 2790TIP3    H229934   1.351   0.622   0.261  0.3271  1.3021  0.6590
 2791TIP3   OH229935   1.365   5.233   8.129  0.0536 -0.6567  0.4923
 2791TIP3    H129936   1.324   5.147   8.133 -1.0119 -0.1160  1.5784
 2791TIP3    H229937   1.403   5.237   8.041 -1.3838 -1.5516 -0.1926
 2792TIP3   OH229938   1.987   0.557   7.701 -0.2074 -0.1151  0.3828
 2792TIP3    H129939   1.919   0.575   7.767 -0.1376 -1.3523  0.8187
 2792TIP3    H229940   2.047   0.632   7.707  0.0535 -0.4228  2.0744
 2793TIP3   OH229941   1.825   4.353   7.890 -0.6897  0.0383  0.6489
 2793TIP3    H129942   1.868   4.382   7.809 -1.0882 -0.2537  0.3232
 2793TIP3    H229943   1.789   4.433   7.928  0.2095  0.2932  0.9705
 2794TIP3   OH229944   0.521   3.053   8.469  0.1932  0.4452 -0.4077
 2794TIP3    H129945   0.500   2.961   8.489  1.2757  0.0354 -1.1109
 2794TIP3    H229946   0.466   3.103   8.530  1.6557 -0.7156  2.0331
 2795TIP3   OH229947   4.468   0.335   0.541  0.2139  0.6762 -0.2159
 2795TIP3    H129948   4.458   0.333   0.445  1.3356  0.7281 -0.3513
 2795TIP3    H229949   4.437   0.249   0.570  0.7625  0.2921 -0.7366
 2796TIP3   OH229950   4.024   5.197   1.116 -0.1332  0.5006 -0.9232
 2796TIP3    H129951   4.101   5.215   1.171  0.0933  0.1804 -1.1295
 2796TIP3    H229952   4.040   5.109   1.082 -0.7760  0.2822 -0.6718
 2797TIP3   OH229953   1.074   0.349   8.726  0.5088  0.1043 -0.7091
 2797TIP3    H129954   0.997   0.390   8.764  1.2078  2.5576 -1.7621
 2797TIP3    H229955   1.136   0.343   8.798  0.6970  1.7872 -0.6865
 2798TIP3   OH229956   4.562   5.511   8.438  0.2847 -0.0581  0.2679
 2798TIP3    H129957   4.566   5.430   8.388  1.8026  0.2723 -0.1899
 2798TIP3    H229958   4.514   5.572   8.382 -3.4261 -1.3464  1.7557
 2799TIP3   OH229959   3.923   1.164   2.166 -0.2714  0.5276  0.3505
 2799TIP3    H129960   3.856   1.124   2.222 -1.2088  2.6628  0.8477
 2799TIP3    H229961   3.900   1.257   2.163  0.7016  0.7736 -2.2705
 2800TIP3   OH229962   2.762   0.961   1.810 -0.9007  0.7400  0.0459
 2800TIP3    H129963   2.741   0.902   1.738 -0.6419  2.1695 -1.2620
 2800TIP3    H229964   2.678   0.977   1.853 -1.0507 -0.1701  0.1158
 2801TIP3   OH229965   3.630   3.702   8.040  0.0392 -0.4977  0.2669
 2801TIP3    H129966   3.723   3.686   8.056  0.0850 -0.9310 -0.3832
 2801TIP3    H229967   3.590   3.615   8.041 -0.6735 -0.2088  2.3033
 2802TIP3   OH229968   5.845   3.116   7.252 -1.0503  0.1298 -0.0649
 2802TIP3    H129969   5.872   3.027   7.229  0.2513  0.6994 -0.8118
 2802TIP3    H229970   5.859   3.121   7.347 -0.1852 -0.1519 -0.1715
 2803TIP3   OH229971   3.233   2.852   6.686  0.3308 -0.5979  0.3109
 2803TIP3    H129972   3.238   2.805   6.603 -0.0348 -0.0887  0.0034
 2803TIP3    H229973   3.166   2.805   6.736 -0.4241 -0.0793 -0.2051
 2804TIP3   OH229974   0.198   3.888   1.658 -0.0257 -0.1380 -0.1213
 2804TIP3    H129975   0.149   3.954   1.707 -1.2310 -0.5840 -0.6925
 2804TIP3    H229976   0.137   3.858   1.591  1.5029  0.3230 -1.7935
 2805TIP3   OH229977   2.675   6.217   0.905  0.0077 -0.6260  0.2110
 2805TIP3    H129978   2.590   6.195   0.865 -0.0995 -2.0644  1.1388
 2805TIP3    H229979   2.733   6.147   0.877  1.4217  1.2439 -1.8217
 2806TIP3   OH229980   0.013   5.855   0.599  0.2494  0.4438  0.5118
 2806TIP3    H129981   0.040   5.900   0.678 -0.2937  1.8799 -0.0821
 2806TIP3    H229982  -0.064   5.904   0.568 -1.5080 -1.9650  0.7863
 2807TIP3   OH229983   5.758   4.361   2.280 -0.1631 -0.0765 -0.1532
 2807TIP3    H129984   5.737   4.374   2.373 -2.2173 -2.1071 -0.2304
 2807TIP3    H229985   5.831   4.299   2.280 -0.2075 -0.1302  0.1358
 2808TIP3   OH229986   1.903   1.817   0.934  0.3065 -0.2847  0.1278
 2808TIP3    H129987   1.993   1.786   0.933 -0.1495 -1.6885 -0.7503
 2808TIP3    H229988   1.896   1.869   1.014  1.8844 -0.1503  0.2012
 2809TIP3   OH229989   0.890   2.858   0.987 -0.4068 -0.1761 -0.0024
 2809TIP3    H129990   0.878   2.799   0.913  2.1553  1.1362 -1.6160
 2809TIP3    H229991   0.961   2.819   1.038  0.6383  0.9655 -0.5460
 2810TIP3   OH229992   0.671   6.278   1.439 -0.3309  0.1480  0.1408
 2810TIP3    H129993   0.642   6.295   1.350 -1.0503  1.3473  0.5874
 2810TIP3    H229994   0.738   6.210   1.430  0.4603  1.0892 -1.4171
 2811TIP3   OH229995   5.551   0.452   0.487 -0.3966 -0.2207 -0.5451
 2811TIP3    H129996   5.637   0.421   0.517  1.2681  2.8540 -1.6289
 2811TIP3    H229997   5.559   0.458   0.392 -0.9761  2.0850 -0.5179
 2812TIP3   OH229998   4.049   4.010   7.773 -0.1678 -0.5954  1.0187
 2812TIP3    H129999   3.984   4.071   7.740  1.8590 -0.4103 -3.2567
 2812TIP3    H230000   4.009   3.924   7.763  0.0530 -0.4744 -1.4116
 2813TIP3   OH230001   3.119   3.369   1.070 -0.2767 -0.1521  0.6188
 2813TIP3    H130002   3.121   3.279   1.102  1.9092 -1.1422 -1.9443
 2813TIP3    H230003   3.154   3.364   0.981 -1.1104  3.1029 -0.0177
 2814TIP3   OH230004   5.590   3.558   8.465 -0.6180 -0.0063  0.0342
 2814TIP3    H130005   5.588   3.640   8.514 -0.4816  0.0521 -0.0581
 2814TIP3    H230006   5.654   3.504   8.511 -0.4918  0.0475 -0.0768
 2815TIP3   OH230007   0.431   1.962   8.737  0.1018  0.2963  0.2037
 2815TIP3    H130008   0.420   1.903   8.663 -1.8567  0.7417  0.0859
 2815TIP3    H230009   0.479   1.912   8.802  0.8445 -0.4874 -0.9316
 2816TIP3   OH230010   0.375   5.050   0.180 -0.6578 -0.6495  0.2484
 2816TIP3    H130011   0.372   4.973   0.236  2.1660 -0.1898  1.1872
 2816TIP3    H230012   0.383   5.015   0.091  1.9315 -1.5514  0.7592
 2817TIP3   OH230013   1.390   4.605   8.028  0.2591  0.2734 -0.3303
 2817TIP3    H130014   1.380   4.574   8.118 -0.8070 -0.6726 -0.7493
 2817TIP3    H230015   1.470   4.658   8.030  2.3900 -2.7284  0.3812
 2818TIP3   OH230016   5.619   0.600   8.574  0.1527 -0.2894 -0.7329
 2818TIP3    H130017   5.694   0.542   8.584  0.0220 -0.4308 -0.5764
 2818TIP3    H230018   5.635   0.646   8.492  0.9479  0.4643 -0.1784
 2819TIP3   OH230019   3.370   1.546   2.057  0.1970 -0.4220  0.8741
 2819TIP3    H130020   3.438   1.479   2.063 -0.4081 -1.3504 -1.4758
 2819TIP3    H230021   3.405   1.620   2.107  2.9399 -0.8772 -0.2119
 2820TIP3   OH230022   1.136   3.603   1.549  0.0075 -0.8502 -0.6717
 2820TIP3    H130023   1.042   3.589   1.543 -0.1171 -0.2150 -0.2950
 2820TIP3    H230024   1.150   3.690   1.512  0.3774 -0.7444 -0.2998
 2821TIP3   OH230025   6.537   2.943   0.375 -0.7251  0.9466  0.2217
 2821TIP3    H130026   6.572   3.032   0.382 -2.6515  1.8732 -1.0367
 2821TIP3    H230027   6.497   2.940   0.288  1.9166 -2.1874 -1.0926
 2822TIP3   OH230028   3.288   3.273   1.707  0.1823 -0.1252 -0.2170
 2822TIP3    H130029   3.209   3.262   1.653  1.4997  2.0205 -2.8133
 2822TIP3    H230030   3.266   3.342   1.769  0.0715  0.5977 -1.0542
 2823TIP3   OH230031   4.677   0.609   2.406 -0.1431  0.0107  0.3502
 2823TIP3    H130032   4.757   0.658   2.424 -0.2979 -0.3403  2.2054
 2823TIP3    H230033   4.700   0.518   2.422 -0.9440 -0.0735  1.0707
 2824TIP3   OH230034   2.855   3.282   1.218  0.9101 -0.0123 -0.1001
 2824TIP3    H130035   2.860   3.189   1.194  1.0896  0.0019 -0.1179
 2824TIP3    H230036   2.892   3.328   1.143 -0.4463  0.1632 -0.6795
 2825TIP3   OH230037   0.314   2.211   7.296 -0.5054 -0.3236 -0.3939
 2825TIP3    H130038   0.246   2.203   7.363 -0.8613  2.0159 -0.3867
 2825TIP3    H230039   0.272   2.259   7.225  0.8535  0.3036 -0.8009
 2826TIP3   OH230040   0.831   5.325   1.062 -0.4844 -0.2713 -1.0409
 2826TIP3    H130041   0.772   5.322   0.987 -0.1042 -0.3983 -1.3371
 2826TIP3    H230042   0.787   5.273   1.129 -0.1593 -1.3762 -1.6634
 2827TIP3   OH230043   3.156   5.551   7.213 -0.2331  0.2587  0.1572
 2827TIP3    H130044   3.195   5.563   7.300  0.5429  2.2969 -0.4059
 2827TIP3    H230045   3.194   5.469   7.182  0.8005  0.3515  1.0855
 2828TIP3   OH230046   4.096   1.882   1.186  0.2479  0.3670 -0.0602
 2828TIP3    H130047   4.180   1.897   1.230  2.5639 -0.1205 -3.7982
 2828TIP3    H230048   4.118   1.824   1.113 -3.3198  0.4955 -1.4234
 2829TIP3   OH230049   0.313   1.565   2.014  0.2867 -0.6318  0.1563
 2829TIP3    H130050   0.387   1.617   1.983  0.7874 -1.7151 -0.5120
 2829TIP3    H230051   0.314   1.575   2.110  0.1137  0.8937  0.0203
 2830TIP3   OH230052   5.909   2.377   1.518  0.0423  0.0554  0.3004
 2830TIP3    H130053   5.951   2.316   1.579 -0.9414 -0.4303  0.4965
 2830TIP3    H230054   5.881   2.450   1.574  1.7635  1.0384 -0.0135
 2831TIP3   OH230055   2.490   3.787   7.712 -0.2593 -0.4315 -0.0250
 2831TIP3    H130056   2.543   3.864   7.729  0.3638 -1.3771  2.9889
 2831TIP3    H230057   2.547   3.729   7.662  0.6847 -0.4342  1.0213
 2832TIP3   OH230058   4.796   0.507   0.979 -0.1424 -0.2873 -0.0977
 2832TIP3    H130059   4.750   0.581   1.019 -0.5298 -0.4174 -0.2991
 2832TIP3    H230060   4.889   0.531   0.983 -0.0386 -0.8665  2.0583
 2833TIP3   OH230061   0.113   2.526   0.853 -0.0091  0.6709 -0.1625
 2833TIP3    H130062   0.072   2.456   0.802  1.1101  1.7691 -2.7636
 2833TIP3    H230063   0.199   2.538   0.812  0.1496  3.0083  0.7109
 2834TIP3   OH230064   6.673   2.995   7.276  0.7307 -0.4858  0.0054
 2834TIP3    H130065   6.695   3.043   7.196 -0.0950 -0.5549 -0.2806
 2834TIP3    H230066   6.623   2.919   7.245  0.7549 -0.7302  0.5567
 2835TIP3   OH230067   1.154   0.681   8.711 -0.6066  0.5601 -0.4034
 2835TIP3    H130068   1.139   0.599   8.664  0.7508 -1.9807  3.1678
 2835TIP3    H230069   1.249   0.694   8.706 -0.5914  0.8969  0.5592
 2836TIP3   OH230070   6.013   0.842   0.471 -0.5972  0.2975  0.0308
 2836TIP3    H130071   5.968   0.764   0.440 -0.7396  0.6815 -0.7506
 2836TIP3    H230072   6.106   0.822   0.459 -0.6652  0.6478 -1.1817
 2837TIP3   OH230073   0.716   5.007   8.160 -0.1207 -0.1617  0.0793
 2837TIP3    H130074   0.641   4.978   8.108  1.1229  1.0002 -2.5415
 2837TIP3    H230075   0.764   4.926   8.180  0.7411 -0.5104 -2.9408
 2838TIP3   OH230076   0.512   2.972   0.040 -0.4417 -0.2396 -0.3154
 2838TIP3    H130077   0.427   2.959  -0.001 -0.8321  0.9995  0.0688
 2838TIP3    H230078   0.575   2.942  -0.025 -1.1846 -2.4525 -0.0966
 2839TIP3   OH230079   4.672   0.169   0.380 -0.2037 -0.1754  0.3818
 2839TIP3    H130080   4.687   0.114   0.456  0.8571 -1.0017 -0.3955
 2839TIP3    H230081   4.651   0.256   0.416 -3.4805 -1.3368  1.6763
 2840TIP3   OH230082   5.442   6.171   6.287 -0.1162 -0.2957 -0.4045
 2840TIP3    H130083   5.491   6.093   6.261  1.7648  0.5822  0.3726
 2840TIP3    H230084   5.501   6.219   6.345 -1.8757  0.8689  0.5304
 2841TIP3   OH230085   1.357   2.583   8.257 -0.1857 -0.3892 -0.2972
 2841TIP3    H130086   1.429   2.636   8.223 -0.6290 -0.7716 -1.9378
 2841TIP3    H230087   1.349   2.609   8.348  1.0000  0.8038 -0.5008
 2842TIP3   OH230088   3.239   6.625   7.235  0.3491  0.5972  0.1483
 2842TIP3    H130089   3.185   6.637   7.157  1.7050  0.3007 -0.8545
 2842TIP3    H230090   3.246   6.530   7.246  0.2641  0.6346  0.5765
 2843TIP3   OH230091   1.852   6.333   1.567 -0.7288  0.1115 -0.4216
 2843TIP3    H130092   1.891   6.413   1.604 -1.2426  0.2811 -0.2380
 2843TIP3    H230093   1.882   6.263   1.625 -0.5137  0.2080 -0.4136
 2844TIP3   OH230094   2.847   0.356   7.400 -0.0099  0.3124  0.3956
 2844TIP3    H130095   2.785   0.359   7.473 -0.0264 -0.0792  0.4002
 2844TIP3    H230096   2.802   0.401   7.329 -0.1221  0.4157  0.5309
 2845TIP3   OH230097   2.514   0.484   7.264  0.2656 -0.0071  0.4953
 2845TIP3    H130098   2.590   0.475   7.207 -1.6335 -2.3349 -1.9167
 2845TIP3    H230099   2.475   0.568   7.238  1.1733  0.5117  0.7445
 2846TIP3   OH230100   1.896   3.783   7.219 -0.4066 -0.4329  0.2655
 2846TIP3    H130101   1.880   3.765   7.311 -1.0402 -0.2672  0.1970
 2846TIP3    H230102   1.880   3.877   7.210 -0.0560 -0.3941  0.0466
 2847TIP3   OH230103   2.477   1.805   6.380 -0.5200 -0.5009  0.1284
 2847TIP3    H130104   2.385   1.824   6.358 -0.1445  2.0134  0.4531
 2847TIP3    H230105   2.483   1.821   6.474  0.0874 -1.4854  0.2642
 2848TIP3   OH230106   1.269   4.984   7.854 -0.1639  0.6760 -0.0306
 2848TIP3    H130107   1.183   4.965   7.890 -1.5177  0.5610 -3.0825
 2848TIP3    H230108   1.265   5.077   7.830  0.4291  0.5686 -0.5666
 2849TIP3   OH230109   5.784   2.735   7.522  0.9830 -0.2261 -0.3267
 2849TIP3    H130110   5.812   2.797   7.589 -0.5840  0.2380 -0.0515
 2849TIP3    H230111   5.836   2.757   7.445  2.7258 -0.6830  0.6601
 2850TIP3   OH230112   3.708   4.521   7.677  0.4811 -0.7668 -0.2660
 2850TIP3    H130113   3.684   4.480   7.760  2.2923  0.6701  1.0613
 2850TIP3    H230114   3.722   4.613   7.699  0.5717 -0.2475 -2.2737
 2851TIP3   OH230115   2.204   5.725   1.066  0.4555  0.0163  0.0804
 2851TIP3    H130116   2.187   5.692   0.977 -1.3747  1.0489  0.0037
 2851TIP3    H230117   2.278   5.784   1.055  1.2333 -1.0327 -0.4755
 2852TIP3   OH230118   6.379   4.013   8.498  0.2800  0.5653 -0.6614
 2852TIP3    H130119   6.369   3.938   8.557 -0.6577  1.3912  0.2932
 2852TIP3    H230120   6.289   4.045   8.485  0.1975 -0.7295 -4.1558
 2853TIP3   OH230121   3.639   2.705   8.738 -0.7165  0.2579 -0.2682
 2853TIP3    H130122   3.680   2.732   8.820  0.4535  1.9197 -1.3235
 2853TIP3    H230123   3.637   2.610   8.742  0.4016  0.2663  1.1778
 2854TIP3   OH230124   4.916   4.581   7.273 -0.6583  0.1957  0.2311
 2854TIP3    H130125   4.998   4.544   7.240 -0.1147  0.3416  1.3479
 2854TIP3    H230126   4.868   4.506   7.308 -0.5604  0.2313  0.4484
 2855TIP3   OH230127   5.771   0.274   0.187  0.8704 -0.4989 -0.5048
 2855TIP3    H130128   5.780   0.201   0.125  1.4666 -0.8424 -0.0259
 2855TIP3    H230129   5.839   0.258   0.252  0.3913 -0.0201  0.1206
 2856TIP3   OH230130   0.957   0.602   0.279  0.6029 -0.1086 -0.1731
 2856TIP3    H130131   0.892   0.670   0.297 -0.6569 -1.6820  1.7545
 2856TIP3    H230132   1.040   0.639   0.310 -0.1324  0.4126  1.2561
 2857TIP3   OH230133   5.650   3.440   6.188 -0.2714 -0.1786  0.1696
 2857TIP3    H130134   5.663   3.531   6.212  1.0222 -0.1798 -0.4334
 2857TIP3    H230135   5.658   3.391   6.270  3.3778 -0.1230 -0.0140
 2858TIP3   OH230136   3.134   0.326   1.894  0.4821  0.2292  0.3101
 2858TIP3    H130137   3.099   0.313   1.806  1.0601  0.4746  0.0401
 2858TIP3    H230138   3.122   0.419   1.911  0.3398  0.1757  0.5054
 2859TIP3   OH230139   2.614   4.370   8.158 -0.0868 -0.4132  0.4336
 2859TIP3    H130140   2.522   4.376   8.182  0.4614  1.5438  2.3136
 2859TIP3    H230141   2.651   4.306   8.219  0.1901  0.3112  1.0295
 2860TIP3   OH230142   3.856   3.716   1.733 -0.3662 -0.4015  0.4586
 2860TIP3    H130143   3.925   3.696   1.797 -0.4866 -1.0817  0.3823
 2860TIP3    H230144   3.880   3.802   1.698  0.7363 -0.8565  0.0596
 2861TIP3   OH230145   2.198   3.232   7.575 -0.2470  0.5162 -0.1001
 2861TIP3    H130146   2.121   3.217   7.521  0.8625 -1.2016 -1.3304
 2861TIP3    H230147   2.199   3.326   7.592 -1.5922  0.8312 -1.5967
 2862TIP3   OH230148   0.525   1.485   8.703 -0.4312 -0.1956 -0.0962
 2862TIP3    H130149   0.434   1.495   8.732 -0.0919  0.1426  0.9024
 2862TIP3    H230150   0.556   1.407   8.749 -0.0654 -0.0246 -0.0549
 2863TIP3   OH230151   5.146   3.222   7.768 -0.1975  0.4903 -0.2274
 2863TIP3    H130152   5.232   3.251   7.736  0.0729 -0.4899 -0.4211
 2863TIP3    H230153   5.166   3.169   7.845 -0.6898  0.8969  0.1813
 2864TIP3   OH230154   5.837   3.129   0.376  0.1639 -0.0703  0.1135
 2864TIP3    H130155   5.819   3.051   0.429  1.2449 -2.0293 -2.2326
 2864TIP3    H230156   5.755   3.145   0.329  0.7516 -1.6188 -1.5386
 2865TIP3   OH230157   0.222   2.090   7.050  0.0027  0.7863  0.0965
 2865TIP3    H130158   0.254   2.180   7.043  2.3765  0.1148  1.2775
 2865TIP3    H230159   0.150   2.085   6.988  1.9515  2.5974 -2.5135
 2866TIP3   OH230160   6.214   3.440   0.604 -0.1152 -0.1616  0.0238
 2866TIP3    H130161   6.242   3.504   0.670  0.9709  0.3635 -0.9188
 2866TIP3    H230162   6.130   3.408   0.636  0.7295 -0.4906  2.0741
 2867TIP3   OH230163   0.797   0.301   8.440 -0.1638  0.4001  0.4204
 2867TIP3    H130164   0.778   0.389   8.473 -0.8684 -0.3918  2.2523
 2867TIP3    H230165   0.814   0.314   8.347  2.0041  2.7641  1.0431
 2868TIP3   OH230166   6.300   6.108   8.035 -0.3974  0.3841 -0.1612
 2868TIP3    H130167   6.335   6.183   7.988 -1.7951 -0.2666 -2.3554
 2868TIP3    H230168   6.369   6.042   8.031 -0.2760  0.5485 -0.7499
 2869TIP3   OH230169   4.991   2.237   0.028 -0.9775 -0.5324  0.4498
 2869TIP3    H130170   5.041   2.155   0.020 -1.1414 -0.8252  2.0521
 2869TIP3    H230171   5.016   2.287  -0.049 -0.8693 -2.0902 -0.5846
 2870TIP3   OH230172   5.899   4.693   2.479 -0.6433  0.0681  0.3461
 2870TIP3    H130173   5.914   4.637   2.555 -1.8388 -0.8044 -0.0270
 2870TIP3    H230174   5.838   4.760   2.510 -0.2179  0.4073  0.4556
 2871TIP3   OH230175   4.992   2.546   6.417 -0.3399 -0.1275 -0.3726
 2871TIP3    H130176   4.930   2.603   6.371  0.7361  0.8962 -0.5970
 2871TIP3    H230177   4.940   2.469   6.442 -1.3346  0.0125 -1.8719
 2872TIP3   OH230178   1.080   1.119   7.459  0.4494  0.0185 -0.0185
 2872TIP3    H130179   1.086   1.068   7.379 -0.4296  1.8358 -1.3129
 2872TIP3    H230180   1.170   1.120   7.493  1.1002  0.1783 -1.6316
 2873TIP3   OH230181   5.408   2.938   1.241  0.9778  0.4006 -0.1475
 2873TIP3    H130182   5.354   3.017   1.249  1.2456  0.3900  2.6843
 2873TIP3    H230183   5.420   2.927   1.147  0.2128  3.2266 -0.6672
 2874TIP3   OH230184   3.834   5.012   8.101  0.1394 -0.3915  0.3211
 2874TIP3    H130185   3.766   4.986   8.163  1.5152 -0.8552  1.6784
 2874TIP3    H230186   3.826   5.107   8.096 -0.6487 -0.4447  0.4026
 2875TIP3   OH230187   6.335   6.162   7.149 -0.0355 -0.1794 -0.3263
 2875TIP3    H130188   6.413   6.120   7.113  1.0330  2.3967 -1.2210
 2875TIP3    H230189   6.348   6.159   7.243  1.7398  1.1886 -0.4862
 2876TIP3   OH230190   1.704   2.809   7.952 -0.0326 -0.3178 -0.1628
 2876TIP3    H130191   1.688   2.775   8.040 -0.9646  1.2112  0.2921
 2876TIP3    H230192   1.635   2.874   7.938  0.6885  0.1817 -1.6323
 2877TIP3   OH230193   0.345   2.017   1.065 -0.2233 -0.5277  0.7061
 2877TIP3    H130194   0.322   2.020   1.158 -1.6963  0.3913  0.3437
 2877TIP3    H230195   0.327   2.105   1.033  2.3223 -0.2048 -0.0272
 2878TIP3   OH230196   1.282   0.788   7.718  0.5802 -0.3079  0.1812
 2878TIP3    H130197   1.198   0.831   7.728  1.1524  0.6241  1.1573
 2878TIP3    H230198   1.331   0.812   7.797  2.2483  0.3036 -0.9944
 2879TIP3   OH230199   5.716   6.600   6.271  0.7843  0.1765  0.2293
 2879TIP3    H130200   5.662   6.609   6.349 -0.6410 -1.5577 -0.4946
 2879TIP3    H230201   5.679   6.662   6.208 -0.4725 -1.0622 -0.2912
 2880TIP3   OH230202   1.615   6.200   2.640 -0.2700 -0.0611  0.2537
 2880TIP3    H130203   1.536   6.178   2.591 -1.0632  1.3836  0.8445
 2880TIP3    H230204   1.587   6.206   2.731  0.0567  2.3013  0.2679
 2881TIP3   OH230205   4.576   0.271   8.396 -0.0669  0.3386 -0.6175
 2881TIP3    H130206   4.642   0.339   8.396  1.2494 -0.8886  0.1101
 2881TIP3    H230207   4.516   0.295   8.325  2.9570 -0.1616 -3.5938
 2882TIP3   OH230208   6.774   1.698   2.313 -1.1465 -0.2234 -0.1110
 2882TIP3    H130209   6.686   1.673   2.286 -0.9048 -1.9450  0.5480
 2882TIP3    H230210   6.776   1.793   2.306 -2.3549 -0.2962 -2.2149
 2883TIP3   OH230211   2.806   6.644   1.179 -0.1571 -0.0341  0.0976
 2883TIP3    H130212   2.784   6.727   1.221  0.8599  0.0468  0.5234
 2883TIP3    H230213   2.889   6.662   1.134  0.6658 -1.0836  1.1176
 2884TIP3   OH230214   3.263   2.495   8.068 -0.0929  0.4105 -0.2259
 2884TIP3    H130215   3.299   2.442   8.139 -1.1066 -1.1939 -0.8656
 2884TIP3    H230216   3.212   2.434   8.016 -3.7178  2.4621  0.5852
 2885TIP3   OH230217   0.953   2.169   0.602 -0.1901  0.4331  0.0100
 2885TIP3    H130218   0.893   2.236   0.635 -1.8490 -1.1923  0.4493
 2885TIP3    H230219   1.040   2.210   0.606 -1.0489  2.2521  1.0145
 2886TIP3   OH230220   2.101   2.387   8.216 -0.3095  0.4828  0.0145
 2886TIP3    H130221   2.061   2.474   8.223  0.0613  0.5671  1.4732
 2886TIP3    H230222   2.194   2.405   8.200 -0.5451  0.2989 -1.8576
 2887TIP3   OH230223   5.963   3.803   2.148  0.6245  0.0932 -0.0703
 2887TIP3    H130224   6.004   3.777   2.066  0.4947  0.0622 -0.1256
 2887TIP3    H230225   6.015   3.877   2.179 -0.2542  1.1361 -0.9809
 2888TIP3   OH230226   6.248   4.442   6.233  0.4695  0.1648 -0.1664
 2888TIP3    H130227   6.173   4.384   6.242 -0.5164  0.9319 -2.5785
 2888TIP3    H230228   6.319   4.386   6.204 -0.0470 -0.1356 -0.9009
 2889TIP3   OH230229   6.769   0.414   2.174 -0.5523  0.2455  0.3032
 2889TIP3    H130230   6.727   0.479   2.231  0.2472 -1.1389  2.6025
 2889TIP3    H230231   6.697   0.361   2.140 -0.9278 -0.1643  1.6922
 2890TIP3   OH230232   0.544   4.949   1.370  0.2989 -0.4725 -0.3114
 2890TIP3    H130233   0.545   4.854   1.380  2.2480 -0.6594 -1.6466
 2890TIP3    H230234   0.499   4.964   1.287  0.9935 -0.3220 -0.6662
 2891TIP3   OH230235   4.425   6.759   7.242  0.2569 -0.0443  0.1288
 2891TIP3    H130236   4.339   6.772   7.282  0.4678  0.4991  0.4113
 2891TIP3    H230237   4.484   6.810   7.297  1.0842 -2.0016  1.1529
 2892TIP3   OH230238   1.470   4.935   8.577 -0.4083 -0.0312 -0.3314
 2892TIP3    H130239   1.468   4.848   8.618 -0.9678  0.1930  0.1389
 2892TIP3    H230240   1.563   4.959   8.578 -0.2956 -0.4548 -0.0886
 2893TIP3   OH230241   5.159   4.697   0.048 -0.5308 -0.1540 -0.4537
 2893TIP3    H130242   5.107   4.714  -0.031 -0.2057  3.7989 -0.0183
 2893TIP3    H230243   5.161   4.781   0.094  3.1686 -1.0919  1.4608
 2894TIP3   OH230244   6.506   1.731   2.261  0.2105 -0.1052  0.7341
 2894TIP3    H130245   6.445   1.666   2.228 -1.0544  0.5881  1.6331
 2894TIP3    H230246   6.452   1.809   2.277  1.0325  0.0946  2.9030
 2895TIP3   OH230247   3.190   3.700   2.620  0.2138 -0.3414 -0.1814
 2895TIP3    H130248   3.113   3.735   2.665  0.1416 -0.2033 -0.4096
 2895TIP3    H230249   3.158   3.621   2.576  0.5699 -1.1994  1.0375
 2896TIP3   OH230250   0.809   3.695   8.741  0.3102 -0.0154  0.1183
 2896TIP3    H130251   0.878   3.762   8.738 -0.4273  0.7106 -1.4877
 2896TIP3    H230252   0.816   3.649   8.658  0.2381 -1.4016  0.8426
 2897TIP3   OH230253   1.942   0.355   6.371  0.2351  0.0545 -0.8338
 2897TIP3    H130254   1.867   0.383   6.319  0.5822  1.0129 -0.8259
 2897TIP3    H230255   2.005   0.323   6.307  0.5728  1.0279 -1.0047
 2898TIP3   OH230256   5.831   4.163   1.609  0.4352 -0.0590  0.1377
 2898TIP3    H130257   5.915   4.179   1.652 -0.3492  0.9612  1.3580
 2898TIP3    H230258   5.850   4.171   1.515  1.6758  0.2735  0.4006
 2899TIP3   OH230259   5.275   2.320   6.450 -0.9036 -0.1367 -0.5419
 2899TIP3    H130260   5.363   2.351   6.472 -0.7487 -0.0509 -1.2735
 2899TIP3    H230261   5.269   2.233   6.488 -1.3403  0.7434  1.5648
 2900TIP3   OH230262   4.511   2.623   7.559 -0.2167  0.6628 -0.5745
 2900TIP3    H130263   4.515   2.603   7.652 -0.6569  3.1077  0.0308
 2900TIP3    H230264   4.422   2.598   7.533 -0.5773  1.3244  0.0110
 2901TIP3   OH230265   3.859   6.672   0.738 -0.0157  0.4523 -0.1084
 2901TIP3    H130266   3.913   6.712   0.669  0.9999  2.1733  1.6012
 2901TIP3    H230267   3.907   6.594   0.764 -0.9083 -0.8079 -1.9475
 2902TIP3   OH230268   5.848   3.715   6.430 -0.4091 -0.3071 -0.2713
 2902TIP3    H130269   5.775   3.703   6.370 -1.0361  0.5130  0.2926
 2902TIP3    H230270   5.838   3.805   6.461  0.4614 -0.4018  0.3129
 2903TIP3   OH230271   2.333   4.250   0.102  0.5755 -0.2605  0.2350
 2903TIP3    H130272   2.354   4.166   0.142  1.8560 -0.5487 -0.9591
 2903TIP3    H230273   2.392   4.257   0.027 -0.8662  0.7996 -0.8839
 2904TIP3   OH230274   4.221   3.440   6.729 -0.5079  0.3873 -0.2770
 2904TIP3    H130275   4.250   3.504   6.664 -0.5052 -0.7041 -1.3882
 2904TIP3    H230276   4.133   3.415   6.701 -0.8885  0.5991  0.6933
 2905TIP3   OH230277   0.253   2.385   0.507 -0.0386 -0.0364  0.3942
 2905TIP3    H130278   0.291   2.468   0.533  0.0048  0.4801 -1.1870
 2905TIP3    H230279   0.231   2.397   0.414 -3.4979 -0.5083  1.0308
 2906TIP3   OH230280   5.701   2.833   1.255  0.1236 -0.1953 -0.1037
 2906TIP3    H130281   5.764   2.829   1.327  1.3873 -0.4040 -1.1963
 2906TIP3    H230282   5.621   2.795   1.292  0.7932 -0.4690  1.1297
 2907TIP3   OH230283   5.892   1.915   8.621  0.1734  0.4495  0.0037
 2907TIP3    H130284   5.969   1.867   8.591  0.6562  0.1014  1.6683
 2907TIP3    H230285   5.859   1.959   8.543  1.5668 -0.0573 -0.9163
 2908TIP3   OH230286   3.935   2.646   1.583 -0.6070  0.4059  0.0383
 2908TIP3    H130287   3.958   2.736   1.606 -0.4301  0.3159  0.2274
 2908TIP3    H230288   3.916   2.604   1.667  0.2676  0.0115  0.0539
 2909TIP3   OH230289   1.647   0.476   7.190  0.2301  0.3924 -0.5923
 2909TIP3    H130290   1.575   0.535   7.166 -0.1107 -0.3813 -1.5337
 2909TIP3    H230291   1.726   0.528   7.175 -0.1067  1.5586  1.2912
 2910TIP3   OH230292   4.158   6.291   2.756  0.4039 -0.0787 -0.6365
 2910TIP3    H130293   4.141   6.385   2.748 -1.1160 -0.3638 -1.0102
 2910TIP3    H230294   4.212   6.269   2.680  1.4718  0.6293 -0.1032
 2911TIP3   OH230295   4.950   5.608   8.347 -0.3852 -0.4610 -0.3750
 2911TIP3    H130296   5.010   5.678   8.319 -1.6582  0.8598  0.0951
 2911TIP3    H230297   4.947   5.616   8.443 -0.1493 -1.5122 -0.2684
 2912TIP3   OH230298   5.449   1.503   7.654 -0.4362  0.2108 -0.4263
 2912TIP3    H130299   5.506   1.508   7.732  2.5834 -0.0155 -2.4487
 2912TIP3    H230300   5.432   1.410   7.643 -2.5755  0.3555  0.9742
 2913TIP3   OH230301   3.775   2.854   8.126  0.2909 -0.2623  0.1321
 2913TIP3    H130302   3.758   2.946   8.105  1.0422 -0.1356  0.0361
 2913TIP3    H230303   3.831   2.824   8.054  1.0976 -0.4366  0.8167
 2914TIP3   OH230304   6.027   6.440   7.803 -0.3948 -0.3435  0.5588
 2914TIP3    H130305   6.111   6.424   7.762  0.1074  0.4764  1.2330
 2914TIP3    H230306   5.970   6.469   7.731  0.0066 -0.5179  0.1670
 2915TIP3   OH230307   4.484   5.946   0.318 -0.2640 -0.0952 -0.0362
 2915TIP3    H130308   4.576   5.931   0.299 -0.2598 -0.7941  0.4925
 2915TIP3    H230309   4.464   6.030   0.276  0.7303  0.2996  0.2483
 2916TIP3   OH230310   6.547   3.836   2.138  0.1285  0.4943 -0.0244
 2916TIP3    H130311   6.582   3.747   2.132  0.5262  0.5809  0.9199
 2916TIP3    H230312   6.499   3.848   2.056  0.9071 -0.2296 -0.6089
 2917TIP3   OH230313   6.813   0.309   6.552 -0.0103  0.4233  0.2836
 2917TIP3    H130314   6.895   0.259   6.557  0.0639  0.5874  0.7929
 2917TIP3    H230315   6.840   0.400   6.559 -0.1471  0.5417 -0.6480
 2918TIP3   OH230316   5.742   3.037   1.799 -0.0567 -0.2477  0.2004
 2918TIP3    H130317   5.740   2.958   1.852  0.8428 -0.6402 -0.3219
 2918TIP3    H230318   5.720   3.007   1.711 -0.3331  0.1932  0.1149
 2919TIP3   OH230319   1.336   6.630   1.910  0.8712  0.2618 -0.0391
 2919TIP3    H130320   1.247   6.594   1.917  1.7292 -2.1298 -0.5501
 2919TIP3    H230321   1.338   6.671   1.824  0.6466 -0.8536 -0.5894
 2920TIP3   OH230322   0.749   0.040   6.638 -0.3213  0.4962  0.6971
 2920TIP3    H130323   0.748   0.134   6.618  0.6835  0.4400  0.2844
 2920TIP3    H230324   0.694   0.000   6.571  0.3169  0.6676  0.0514
 2921TIP3   OH230325   3.722   5.248   6.947 -0.5974 -0.4536  0.3489
 2921TIP3    H130326   3.767   5.226   6.865  1.2706 -0.7190  1.3874
 2921TIP3    H230327   3.724   5.167   6.998  1.9829  0.6583  2.2586
 2922TIP3   OH230328   4.402   1.736   0.753 -0.3064  0.5402  0.6264
 2922TIP3    H130329   4.428   1.820   0.791 -0.7332  0.9623  0.0055
 2922TIP3    H230330   4.427   1.671   0.819 -0.2765  1.1796  1.2575
 2923TIP3   OH230331   4.875   2.085   8.545 -0.1868  0.0398  1.1464
 2923TIP3    H130332   4.931   2.062   8.619 -1.1014  0.6957  2.0698
 2923TIP3    H230333   4.815   2.150   8.580  0.4389  1.6687 -0.6120
 2924TIP3   OH230334   4.684   4.785   7.572 -0.5333 -0.4952 -0.1066
 2924TIP3    H130335   4.699   4.786   7.478 -0.1921  0.0339 -0.0575
 2924TIP3    H230336   4.665   4.877   7.594 -4.2672 -1.1223 -0.1950
 2925TIP3   OH230337   5.617   0.380   1.428 -0.8905  0.4252 -0.2631
 2925TIP3    H130338   5.639   0.409   1.516 -0.4295 -0.5051 -0.0558
 2925TIP3    H230339   5.701   0.350   1.391 -1.3321 -0.6780 -0.4239
 2926TIP3   OH230340   2.712   0.186   8.193 -0.0501  0.1525 -0.0276
 2926TIP3    H130341   2.743   0.136   8.117  0.7989  0.6339 -0.0135
 2926TIP3    H230342   2.695   0.120   8.260  1.5932 -0.1159  0.1827
 2927TIP3   OH230343   3.934   3.782   7.737 -0.4700  0.1253 -0.6835
 2927TIP3    H130344   3.896   3.695   7.752  0.1964 -0.4791 -2.2381
 2927TIP3    H230345   3.940   3.789   7.641  1.5094  0.9712 -0.5454
 2928TIP3   OH230346   4.085   1.328   6.405  0.2701 -0.2201  0.1088
 2928TIP3    H130347   4.044   1.242   6.413  0.6984 -0.6175 -1.6244
 2928TIP3    H230348   4.094   1.342   6.311  0.8438  1.4272  0.3744
 2929TIP3   OH230349   4.295   2.355   0.689 -0.1774  0.1621  0.3544
 2929TIP3    H130350   4.286   2.260   0.678 -0.1528  0.0007  1.6332
 2929TIP3    H230351   4.304   2.368   0.783 -0.6612  1.4832  0.2386
 2930TIP3   OH230352   3.490   4.578   1.912 -0.1704 -0.4798  0.6504
 2930TIP3    H130353   3.530   4.546   1.831  1.5294  2.7109  0.0442
 2930TIP3    H230354   3.554   4.561   1.980  0.5530  1.0577  0.3986
 2931TIP3   OH230355   1.022   3.102   1.243  0.0964  0.3532 -0.0556
 2931TIP3    H130356   1.088   3.171   1.235 -0.8944  1.5005  1.1557
 2931TIP3    H230357   0.956   3.123   1.177 -0.9199  1.4657  1.2424
 2932TIP3   OH230358   3.306   2.720   1.086 -0.0978 -0.4750 -0.0628
 2932TIP3    H130359   3.301   2.663   1.163 -0.5469  1.0535  1.1061
 2932TIP3    H230360   3.230   2.777   1.094  2.2698  2.8817  1.0467
 2933TIP3   OH230361   0.144   6.284   2.261 -0.4487  0.2298 -0.4860
 2933TIP3    H130362   0.144   6.200   2.216  0.0661 -0.1284  0.1604
 2933TIP3    H230363   0.144   6.349   2.191  2.1422 -0.2992 -1.0810
 2934TIP3   OH230364   2.072   2.410   0.897  0.4672  0.0474  0.6837
 2934TIP3    H130365   2.011   2.480   0.921  0.7536  0.9466 -1.0750
 2934TIP3    H230366   2.028   2.330   0.924 -1.0628  0.7388  0.3633
 2935TIP3   OH230367   2.110   5.131   1.687 -0.1584  0.4138 -0.1673
 2935TIP3    H130368   2.037   5.070   1.701 -0.5774  0.8258 -0.5319
 2935TIP3    H230369   2.183   5.092   1.734 -0.9491  0.6333  1.3085
 2936TIP3   OH230370   0.272   6.034   2.219  0.1194 -0.4487 -0.6148
 2936TIP3    H130371   0.245   5.987   2.140  1.6810 -1.7889 -0.3973
 2936TIP3    H230372   0.356   6.075   2.196  0.7191 -1.0647  0.4099
 2937TIP3   OH230373   6.400   1.977   2.340 -0.0855  0.4954 -0.0589
 2937TIP3    H130374   6.491   2.006   2.331  0.1269 -0.1376  0.0495
 2937TIP3    H230375   6.371   2.014   2.424  0.5542 -0.5531  0.6504
 2938TIP3   OH230376   4.148   0.166   0.933  0.4715  0.0128  0.5157
 2938TIP3    H130377   4.225   0.172   0.989  0.5361 -1.2830  0.6021
 2938TIP3    H230378   4.177   0.113   0.859 -0.6749 -1.6345  1.1977
 2939TIP3   OH230379   4.885   0.476   0.476 -0.8408  0.4083 -0.3250
 2939TIP3    H130380   4.818   0.492   0.542 -0.3284  0.5042  0.1821
 2939TIP3    H230381   4.953   0.427   0.522 -0.3577  0.7024 -0.7100
 2940TIP3   OH230382   1.487   2.397   6.455 -0.6754  0.4635 -0.3662
 2940TIP3    H130383   1.480   2.318   6.401 -0.7586  0.7211 -0.7342
 2940TIP3    H230384   1.469   2.469   6.395 -1.6507  0.7078  0.1877
 2941TIP3   OH230385   1.673   2.549   0.839  0.2029 -0.2472 -0.3117
 2941TIP3    H130386   1.751   2.578   0.792  0.1964  0.6603  0.2067
 2941TIP3    H230387   1.671   2.454   0.826 -0.5301  0.0749 -3.2054
 2942TIP3   OH230388   5.564   4.235   7.343  0.5354 -0.0508  0.0183
 2942TIP3    H130389   5.543   4.303   7.408 -1.9186 -0.4449 -0.2653
 2942TIP3    H230390   5.554   4.279   7.259 -1.7204 -0.8303 -0.1901
 2943TIP3   OH230391   1.411   1.469   2.378 -0.0686 -0.2699  0.1487
 2943TIP3    H130392   1.326   1.427   2.395 -0.1773  0.0092  0.3058
 2943TIP3    H230393   1.428   1.522   2.456  0.8164 -1.2260  0.6279
 2944TIP3   OH230394   3.128   3.822   0.381  0.2649 -0.0248 -0.2402
 2944TIP3    H130395   3.095   3.781   0.461  0.7246 -0.7961 -0.4400
 2944TIP3    H230396   3.049   3.844   0.331  0.0029 -0.3299  0.0352
 2945TIP3   OH230397   5.700   1.946   7.308  0.1776  0.1076  0.4408
 2945TIP3    H130398   5.627   1.893   7.274  0.6731 -0.1847 -0.1985
 2945TIP3    H230399   5.760   1.953   7.234  2.1054 -1.9344  1.6937
 2946TIP3   OH230400   1.415   1.198   2.242 -0.1188 -0.6709  0.2119
 2946TIP3    H130401   1.490   1.144   2.266 -0.4871 -0.1407  2.8325
 2946TIP3    H230402   1.435   1.284   2.277 -1.1011  0.0123 -0.8239
 2947TIP3   OH230403   2.181   6.681   1.912 -0.1829  0.4459 -0.3310
 2947TIP3    H130404   2.203   6.751   1.973  0.3510  0.1447 -0.1686
 2947TIP3    H230405   2.111   6.633   1.956 -2.2209  2.2133 -1.4483
 2948TIP3   OH230406   1.241   1.809   0.203 -0.6275  0.0901 -0.0506
 2948TIP3    H130407   1.254   1.851   0.288 -0.4576  1.6080 -0.7811
 2948TIP3    H230408   1.147   1.790   0.200 -0.6006 -0.1630  0.5475
 2949TIP3   OH230409   3.262   2.499   6.706 -0.2832 -0.3598  0.5826
 2949TIP3    H130410   3.236   2.570   6.647 -0.0155 -0.9320 -0.2528
 2949TIP3    H230411   3.209   2.424   6.678 -0.3262 -0.5778  1.2352
 2950TIP3   OH230412   4.187   3.134   0.990  0.1552  0.4286 -0.0655
 2950TIP3    H130413   4.207   3.082   1.068 -0.3686 -0.3323 -0.4367
 2950TIP3    H230414   4.184   3.224   1.023 -0.0998  0.1140  0.8060
 2951TIP3   OH230415   4.709   5.250   6.960 -0.0525  0.8348 -0.1135
 2951TIP3    H130416   4.789   5.214   6.922 -0.8742 -1.1920 -0.0443
 2951TIP3    H230417   4.641   5.235   6.894 -1.2862 -1.7673  1.5761
 2952TIP3   OH230418   5.376   4.375   7.763  0.3029 -0.1358  0.1096
 2952TIP3    H130419   5.355   4.291   7.806 -1.0869  0.5059  0.7769
 2952TIP3    H230420   5.327   4.440   7.814  2.2305  1.2561  0.3062
 2953TIP3   OH230421   2.136   1.227   6.676  0.1137 -0.1245 -0.4053
 2953TIP3    H130422   2.057   1.173   6.667 -0.6430  1.0111 -0.7009
 2953TIP3    H230423   2.197   1.191   6.611 -0.4674 -0.4773 -0.7621
 2954TIP3   OH230424   0.184   5.741   0.833 -0.2323  0.4065 -0.8647
 2954TIP3    H130425   0.261   5.797   0.818  0.3090 -0.4763 -1.4916
 2954TIP3    H230426   0.183   5.682   0.758  0.5907 -2.0101  0.9095
 2955TIP3   OH230427   5.817   3.891   0.190  0.8080 -0.0516  0.4543
 2955TIP3    H130428   5.865   3.885   0.273  1.0742 -0.6066  0.2698
 2955TIP3    H230429   5.885   3.911   0.125  0.4069  1.8017  0.5541
 2956TIP3   OH230430   3.728   5.734   6.989  0.3563  0.1820 -0.0418
 2956TIP3    H130431   3.752   5.647   7.021  0.7839  0.0614 -0.6664
 2956TIP3    H230432   3.654   5.718   6.930 -1.3048  0.5441  1.8197
 2957TIP3   OH230433   2.372   6.094   6.831  0.2262 -0.3201  0.5252
 2957TIP3    H130434   2.278   6.090   6.850  0.1855 -0.0407  0.3906
 2957TIP3    H230435   2.398   6.003   6.818 -0.1667 -0.3476 -0.1244
 2958TIP3   OH230436   3.027   4.918   6.775  0.3649  0.1356 -0.2515
 2958TIP3    H130437   2.940   4.954   6.758  0.0956  0.1012  0.9837
 2958TIP3    H230438   3.064   4.903   6.688 -0.2520  1.6021 -0.7925
 2959TIP3   OH230439   3.799   6.549   1.143 -0.0099 -0.1785  0.1090
 2959TIP3    H130440   3.805   6.599   1.225  0.6557  0.7065 -0.4649
 2959TIP3    H230441   3.720   6.495   1.154 -0.6463  0.8660  0.8133
 2960TIP3   OH230442   5.991   4.211   1.115  0.5537 -0.3029 -0.0396
 2960TIP3    H130443   6.068   4.154   1.115  1.0752  0.3978 -0.2347
 2960TIP3    H230444   5.980   4.236   1.024  0.9878  0.7932  0.1973
 2961TIP3   OH230445   4.519   1.587   1.070 -0.2737 -0.3610  0.7491
 2961TIP3    H130446   4.495   1.676   1.098 -1.1509  0.4170 -2.1651
 2961TIP3    H230447   4.595   1.600   1.013  0.9195 -1.7716  1.9443
 2962TIP3   OH230448   6.174   6.712   8.002  0.8638  0.3891  0.3065
 2962TIP3    H130449   6.171   6.776   7.931 -1.5240  0.1653  0.1116
 2962TIP3    H230450   6.094   6.660   7.991  1.2024 -0.6541  2.2623
 2963TIP3   OH230451   5.315   2.203   1.145 -0.6419 -1.4913  0.0366
 2963TIP3    H130452   5.264   2.253   1.081 -0.2443 -0.7273  0.3083
 2963TIP3    H230453   5.334   2.120   1.100 -1.0581 -1.2910 -0.5290
 2964TIP3   OH230454   3.863   4.708   8.307 -0.2573  0.2474  0.2587
 2964TIP3    H130455   3.865   4.613   8.317 -0.6429  0.2443  0.3340
 2964TIP3    H230456   3.847   4.740   8.396  0.0116  0.3879  0.2556
 2965TIP3   OH230457   3.427   2.677   0.348  0.1123  0.1679  0.1499
 2965TIP3    H130458   3.362   2.639   0.407 -1.7808  0.4589 -1.6277
 2965TIP3    H230459   3.509   2.633   0.370 -1.2951 -2.4847  0.4523
 2966TIP3   OH230460   6.455   6.471   7.663 -0.3590 -1.0160 -0.1790
 2966TIP3    H130461   6.531   6.433   7.618  0.3899  2.3152 -2.0557
 2966TIP3    H230462   6.492   6.541   7.717 -1.9970  0.5990 -1.0280
 2967TIP3   OH230463   0.394   6.614   0.439 -0.3356 -0.2729  0.0560
 2967TIP3    H130464   0.472   6.558   0.447  0.3464  0.6730  0.2425
 2967TIP3    H230465   0.413   6.670   0.364 -0.9957 -0.2600 -0.1068
 2968TIP3   OH230466   5.463   5.030   2.342 -0.3234 -0.3202  0.0328
 2968TIP3    H130467   5.369   5.014   2.355 -0.3526 -0.4615 -0.3299
 2968TIP3    H230468   5.496   5.052   2.429 -0.8639  0.6372  0.0087
 2969TIP3   OH230469   6.435   2.562   1.222  0.3682 -0.3037  0.2311
 2969TIP3    H130470   6.358   2.618   1.211  1.0452  0.3150 -2.0011
 2969TIP3    H230471   6.493   2.611   1.281  0.8369  1.3241 -1.4767
 2970TIP3   OH230472   4.074   0.990   8.037  0.5023 -0.1480 -0.2687
 2970TIP3    H130473   4.110   1.078   8.028  0.9449 -0.2490  0.4676
 2970TIP3    H230474   3.983   1.003   8.061 -0.1458  0.1199 -2.5750
 2971TIP3   OH230475   4.140   0.613   1.610 -0.2543 -0.2914  0.4433
 2971TIP3    H130476   4.061   0.637   1.561  0.3582 -1.0568 -0.9856
 2971TIP3    H230477   4.119   0.634   1.701 -0.5740  3.4670 -0.3417
 2972TIP3   OH230478   3.066   4.474   6.732  0.8102  0.2277  0.5246
 2972TIP3    H130479   2.981   4.431   6.734 -0.2300  2.1128 -0.2791
 2972TIP3    H230480   3.121   4.423   6.791 -0.3576 -2.0557 -0.2439
 2973TIP3   OH230481   5.208   3.083   7.999 -0.0894 -0.5145  0.6342
 2973TIP3    H130482   5.226   3.114   8.088  1.2332  2.5572 -0.5433
 2973TIP3    H230483   5.289   3.041   7.971 -0.9951 -2.8327  1.3054
 2974TIP3   OH230484   5.642   4.972   7.144 -0.4517 -0.5802 -0.2587
 2974TIP3    H130485   5.734   4.991   7.128 -0.5872  0.3006 -0.0586
 2974TIP3    H230486   5.641   4.882   7.179  0.3152 -0.6207 -0.3322
 2975TIP3   OH230487   2.653   3.338   7.436  0.2322 -0.7730 -0.0237
 2975TIP3    H130488   2.587   3.315   7.502  0.5198 -1.3236  0.0788
 2975TIP3    H230489   2.734   3.300   7.469  0.0796 -2.4535 -1.4596
 2976TIP3   OH230490   2.210   3.373   8.337 -0.2229  0.1189 -0.2240
 2976TIP3    H130491   2.293   3.397   8.377 -0.5815  0.1771  0.5094
 2976TIP3    H230492   2.213   3.277   8.330 -0.0678  0.1264 -0.2495
 2977TIP3   OH230493   1.762   5.690   0.842  0.1478 -0.3911  0.2810
 2977TIP3    H130494   1.697   5.725   0.903  0.4335  0.2923  0.2036
 2977TIP3    H230495   1.833   5.754   0.843  1.8748 -2.2050  2.0758
 2978TIP3   OH230496   0.639   1.464   1.779 -0.1623 -0.3864 -0.7023
 2978TIP3    H130497   0.565   1.412   1.747 -0.5802 -0.0204 -0.3551
 2978TIP3    H230498   0.714   1.404   1.777 -0.3971 -0.6631 -1.3760
 2979TIP3   OH230499   0.906   6.553   8.424 -0.1129  0.2666  0.2889
 2979TIP3    H130500   0.859   6.514   8.350 -0.8608 -0.7460  1.2567
 2979TIP3    H230501   0.903   6.647   8.408 -1.3484  0.1411 -0.3432
 2980TIP3   OH230502   2.059   3.485   8.606  0.3290  0.2410  0.2790
 2980TIP3    H130503   2.123   3.546   8.642  0.7522 -0.2790  0.4180
 2980TIP3    H230504   2.087   3.399   8.637 -0.5978  0.0337  0.5667
 2981TIP3   OH230505   5.971   3.566   0.061  0.1027  0.2972  0.2388
 2981TIP3    H130506   5.922   3.609   0.131 -0.0062 -1.2121  1.1217
 2981TIP3    H230507   6.063   3.581   0.085  0.0802 -0.9713  1.2378
 2982TIP3   OH230508   0.828   3.154   7.804 -0.2343 -0.2263  0.2619
 2982TIP3    H130509   0.843   3.118   7.891 -0.2385 -1.5144 -0.2482
 2982TIP3    H230510   0.915   3.180   7.773 -0.2702  0.4859  0.7489
 2983TIP3   OH230511   5.561   5.987   8.765 -0.0304  0.2357  0.4553
 2983TIP3    H130512   5.488   6.043   8.791 -0.6395 -0.5248  0.4251
 2983TIP3    H230513   5.571   6.002   8.671 -0.6392 -0.2038  0.3144
 2984TIP3   OH230514   1.422   1.675   7.218 -0.5969 -0.1719  0.2611
 2984TIP3    H130515   1.462   1.742   7.162  0.5786  0.6933  2.0674
 2984TIP3    H230516   1.328   1.692   7.211 -0.5280 -0.2516 -1.6036
 2985TIP3   OH230517   6.673   2.703   6.946 -0.1523  0.3141 -0.0276
 2985TIP3    H130518   6.661   2.774   6.883 -0.5161 -0.1982 -0.5511
 2985TIP3    H230519   6.618   2.632   6.912  1.4848 -0.8046 -0.4308
 2986TIP3   OH230520   3.769   1.056   0.763 -0.4280  0.0439 -0.4077
 2986TIP3    H130521   3.785   1.053   0.668  0.2357  0.9022 -0.3342
 2986TIP3    H230522   3.674   1.047   0.771 -0.4061 -1.0158 -1.0905
 2987TIP3   OH230523   5.477   0.806   1.364  0.2502  0.0243 -0.5778
 2987TIP3    H130524   5.455   0.715   1.385  2.7021 -0.7673 -1.0656
 2987TIP3    H230525   5.504   0.844   1.447 -0.6234  0.2695 -0.4013
 2988TIP3   OH230526   3.797   5.657   7.623 -0.0700 -0.4577 -0.3587
 2988TIP3    H130527   3.889   5.651   7.595 -0.4314  2.0765 -2.4848
 2988TIP3    H230528   3.801   5.701   7.708  0.6862  0.9616 -1.0841
 2989TIP3   OH230529   5.047   4.820   7.375 -0.2046  0.3979 -0.2262
 2989TIP3    H130530   4.984   4.749   7.394 -0.8503  0.5399 -1.7314
 2989TIP3    H230531   4.992   4.893   7.347  0.5996  0.6929 -1.0557
 2990TIP3   OH230532   4.523   0.036   7.486  0.1040 -0.0364 -0.1252
 2990TIP3    H130533   4.526   0.132   7.489 -0.9124 -0.0223  1.0235
 2990TIP3    H230534   4.430   0.015   7.489  0.3408 -1.0801  0.1737
 2991TIP3   OH230535   1.169   3.609   1.066 -0.5298 -0.5593  0.2181
 2991TIP3    H130536   1.246   3.577   1.112 -1.3037 -1.2307  1.0961
 2991TIP3    H230537   1.148   3.541   1.002  0.4894  0.3301 -1.1341
 2992TIP3   OH230538   4.517   3.230   2.239  0.3421  0.5641  0.3264
 2992TIP3    H130539   4.611   3.247   2.248 -0.1153  3.0034  1.1741
 2992TIP3    H230540   4.481   3.311   2.203 -1.5652 -0.0038  0.8341
 2993TIP3   OH230541   1.590   6.085   0.803  0.3337 -0.0758  0.3769
 2993TIP3    H130542   1.653   6.122   0.741  1.5439 -0.9643  1.0439
 2993TIP3    H230543   1.621   6.113   0.889 -1.0602  0.7445  0.6459
 2994TIP3   OH230544   4.349   2.021   6.914 -0.2316 -0.1439  0.2487
 2994TIP3    H130545   4.275   1.962   6.933 -1.9431  1.3208 -1.4763
 2994TIP3    H230546   4.308   2.105   6.893  2.0472  1.2008  0.8557
 2995TIP3   OH230547   0.587   4.520   1.221 -0.0121  0.6827 -0.0827
 2995TIP3    H130548   0.571   4.462   1.147 -0.8894  0.0443  0.5718
 2995TIP3    H230549   0.653   4.474   1.274 -1.1870 -0.0786  0.7748
 2996TIP3   OH230550   0.899   2.144   7.167 -0.1888  0.2949 -0.2766
 2996TIP3    H130551   0.884   2.221   7.221 -0.8460 -0.2794  0.3790
 2996TIP3    H230552   0.987   2.155   7.133 -0.4657  1.6013 -0.6304
 2997TIP3   OH230553   3.108   5.993   7.746  0.3692  0.0544 -0.4102
 2997TIP3    H130554   3.095   5.900   7.762 -1.7514  0.3725  0.0421
 2997TIP3    H230555   3.109   6.033   7.833  0.0767  0.5744 -0.6376
 2998TIP3   OH230556   1.353   0.100   1.037  0.1762 -0.3518  0.0497
 2998TIP3    H130557   1.389   0.063   1.118 -0.3506  0.4621  0.6714
 2998TIP3    H230558   1.276   0.149   1.065  0.8257  1.2021 -0.7363
 2999TIP3   OH230559   3.122   0.313   7.467 -0.1130  0.2374  0.1042
 2999TIP3    H130560   3.156   0.374   7.401  1.2800  2.0615  2.3219
 2999TIP3    H230561   3.027   0.315   7.455  0.0303  1.3795 -1.1037
 3000TIP3   OH230562   6.501   0.953   8.818 -0.7268  0.0379 -0.0737
 3000TIP3    H130563   6.543   1.037   8.799 -1.1672 -0.1604 -2.1173
 3000TIP3    H230564   6.410   0.963   8.787 -0.5674 -1.4317 -1.1601
 3001TIP3   OH230565   4.799   0.359   2.382 -0.0926  0.3620 -0.3808
 3001TIP3    H130566   4.863   0.314   2.327 -0.2161 -2.3142  1.4734
 3001TIP3    H230567   4.726   0.297   2.390 -0.7274  1.2733  1.5114
 3002TIP3   OH230568   4.023   4.830   7.747  0.2948  0.4631 -0.1208
 3002TIP3    H130569   3.948   4.796   7.796  0.7141  0.1027  0.2849
 3002TIP3    H230570   4.099   4.790   7.790  0.7853  1.6275  0.1342
 3003TIP3   OH230571   3.950   5.514   1.988 -0.8884  0.1673  0.1873
 3003TIP3    H130572   3.862   5.484   2.011 -0.6830 -1.6113 -1.1676
 3003TIP3    H230573   3.967   5.474   1.903  2.2719 -1.8300  1.5926
 3004TIP3   OH230574   5.482   5.426   7.446 -0.1745  0.5993 -0.3515
 3004TIP3    H130575   5.518   5.421   7.358 -0.6963  2.6123 -0.7329
 3004TIP3    H230576   5.558   5.423   7.504  0.1369 -1.1502 -0.8246
 3005TIP3   OH230577   4.053   6.575   7.373 -0.2817 -0.6969  0.0124
 3005TIP3    H130578   4.087   6.607   7.289  0.1727  0.4804  0.6189
 3005TIP3    H230579   3.979   6.519   7.350 -1.3411  1.0836 -1.1036
 3006TIP3   OH230580   5.334   6.610   0.566  0.0546 -0.1793  0.2365
 3006TIP3    H130581   5.334   6.516   0.551 -1.3817  0.1783 -2.7128
 3006TIP3    H230582   5.274   6.645   0.500  1.2260  2.9149  0.6433
 3007TIP3   OH230583   6.176   3.323   0.973 -0.0571  0.0058  0.4807
 3007TIP3    H130584   6.106   3.370   1.017  0.0655 -0.8004  1.5993
 3007TIP3    H230585   6.137   3.239   0.947  0.2776 -0.1305  0.3992
 3008TIP3   OH230586   3.063   2.177   0.949  0.3842  0.3655  0.4016
 3008TIP3    H130587   3.139   2.148   0.898 -0.5471  0.8531 -1.3428
 3008TIP3    H230588   3.031   2.098   0.992  0.4055 -0.3764 -0.8772
 3009TIP3   OH230589   1.148   2.217   7.092  0.1528  0.0648  0.0456
 3009TIP3    H130590   1.191   2.259   7.166 -0.7089 -0.3590  0.8048
 3009TIP3    H230591   1.185   2.129   7.088  0.3727  0.1649 -0.1876
 3010TIP3   OH230592   0.480   0.503   2.056 -0.1785  0.4446 -0.2849
 3010TIP3    H130593   0.402   0.454   2.083 -0.3428  0.3259 -0.9662
 3010TIP3    H230594   0.536   0.438   2.013  1.0344  0.1667  1.6063
 3011TIP3   OH230595   6.095   4.968   7.589 -0.4925 -0.7892  0.4396
 3011TIP3    H130596   6.173   4.957   7.644  0.3198 -0.3158 -0.5787
 3011TIP3    H230597   6.022   4.944   7.646  0.3936 -1.2588  1.4175
 3012TIP3   OH230598   0.811   4.076   8.589 -0.9443 -0.1971  1.1534
 3012TIP3    H130599   0.778   4.062   8.501 -1.6501  0.9552  1.2175
 3012TIP3    H230600   0.746   4.034   8.646 -0.5201 -0.8874  1.1520
 3013TIP3   OH230601   5.473   1.174   7.655  0.0015 -0.1771  0.4422
 3013TIP3    H130602   5.483   1.152   7.747  2.0767 -2.2327 -0.1892
 3013TIP3    H230603   5.421   1.103   7.618  0.7007 -0.3207 -0.2950
 3014TIP3   OH230604   2.033   2.087   1.023 -0.3276  0.2683  0.6381
 3014TIP3    H130605   2.096   2.107   1.093 -2.2703 -0.8882  2.8589
 3014TIP3    H230606   1.957   2.049   1.069 -2.7773  1.7967 -1.8455
 3015TIP3   OH230607   0.454   0.043   8.427  0.2300 -0.0896 -0.1994
 3015TIP3    H130608   0.479   0.006   8.512  0.5493 -0.3110 -0.3839
 3015TIP3    H230609   0.388   0.109   8.448 -2.9647 -3.0556 -0.1138
 3016TIP3   OH230610   4.631   2.655   0.135 -0.2647  0.4539  0.7025
 3016TIP3    H130611   4.539   2.662   0.108 -0.4257 -3.9939 -0.7567
 3016TIP3    H230612   4.680   2.671   0.055  0.2214  1.9567  1.2841
 3017TIP3   OH230613   2.564   4.424   7.375  0.0502 -0.1185 -0.5529
 3017TIP3    H130614   2.559   4.519   7.359  1.8622  0.1439  0.1045
 3017TIP3    H230615   2.505   4.409   7.449  2.0562  1.1420  1.4747
 3018TIP3   OH230616   3.388   6.402   6.837 -0.8064  0.2444  0.2041
 3018TIP3    H130617   3.314   6.456   6.809 -1.5054 -0.8618 -0.1405
 3018TIP3    H230618   3.465   6.455   6.818 -1.4575  0.9357 -0.5555
 3019TIP3   OH230619   0.632   1.395   7.463 -0.0768 -1.0742 -0.1165
 3019TIP3    H130620   0.624   1.467   7.401  0.8562  0.8093  1.8271
 3019TIP3    H230621   0.700   1.339   7.425  1.8208  1.0036  0.0079
 3020TIP3   OH230622   1.458   5.258   7.064 -0.3014  0.2121  0.6646
 3020TIP3    H130623   1.542   5.241   7.020 -0.5081  0.5785  0.1231
 3020TIP3    H230624   1.419   5.329   7.014 -1.6274 -0.9359 -0.0135
 3021TIP3   OH230625   0.741   2.528   7.970  0.3443  0.2031 -0.2789
 3021TIP3    H130626   0.811   2.547   7.907  0.1905 -2.6720 -1.4984
 3021TIP3    H230627   0.674   2.594   7.953  0.9379  0.3784 -2.1481
 3022TIP3   OH230628   0.888   2.818   0.602 -0.5604  0.4377  0.6576
 3022TIP3    H130629   0.889   2.760   0.679 -2.6769 -0.3935  0.1378
 3022TIP3    H230630   0.973   2.803   0.560  0.2895  0.2695  2.3434
 3023TIP3   OH230631   5.649   0.805   8.311  0.0879  0.2831  0.4476
 3023TIP3    H130632   5.718   0.768   8.254 -0.0565  2.3181 -1.1818
 3023TIP3    H230633   5.694   0.873   8.361 -0.4371  0.5796  0.5142
 3024TIP3   OH230634   4.079   3.133   6.980  0.4344 -0.1202  0.0523
 3024TIP3    H130635   4.040   3.219   6.962 -0.3801 -0.3670  0.5825
 3024TIP3    H230636   4.160   3.132   6.929  0.1217  0.7053 -0.4768
 3025TIP3   OH230637   6.298   3.450   6.878  0.1026 -0.2836 -0.1005
 3025TIP3    H130638   6.279   3.367   6.835  2.8985 -2.0651  1.7949
 3025TIP3    H230639   6.380   3.435   6.925  0.8222  3.6048  0.2596
 3026TIP3   OH230640   4.834   5.040   7.748 -0.1890  0.1030 -0.0991
 3026TIP3    H130641   4.906   4.988   7.713  1.2550  2.1464 -0.3584
 3026TIP3    H230642   4.804   5.093   7.674  0.6519  2.0374  0.8745
 3027TIP3   OH230643   0.203   4.521   2.281  0.1968 -0.0312 -0.3094
 3027TIP3    H130644   0.273   4.586   2.293  0.9757 -0.8612 -0.3030
 3027TIP3    H230645   0.249   4.439   2.263 -0.6774 -1.0802  1.8570
 3028TIP3   OH230646   5.479   2.819   0.345 -0.0273  0.1794  0.3384
 3028TIP3    H130647   5.404   2.871   0.373  0.7495  0.3591  2.2080
 3028TIP3    H230648   5.452   2.728   0.356  0.4443  0.2345  2.3849
 3029TIP3   OH230649   1.404   6.227   8.526  0.5105 -0.1688 -0.3853
 3029TIP3    H130650   1.388   6.311   8.571 -1.7848 -1.2220  0.9404
 3029TIP3    H230651   1.328   6.216   8.469  0.1144 -1.8958  0.4173
 3030TIP3   OH230652   3.450   3.083   7.486  0.0279 -0.1842  0.3468
 3030TIP3    H130653   3.494   3.088   7.401 -0.5346 -0.5547  0.0275
 3030TIP3    H230654   3.419   3.172   7.503  0.8459  0.0665  0.5461
 3031TIP3   OH230655   6.036   3.826   0.940  0.2235 -0.1039  0.5706
 3031TIP3    H130656   5.940   3.832   0.947  0.2952  0.3973  1.2883
 3031TIP3    H230657   6.064   3.792   1.025  0.6442 -0.8741  0.1334
 3032TIP3   OH230658   1.969   0.747   0.502 -0.7066 -0.0071  0.6520
 3032TIP3    H130659   1.927   0.661   0.506 -1.0081  0.1688  1.4628
 3032TIP3    H230660   1.896   0.809   0.499 -0.4926  0.2014 -0.6606
 3033TIP3   OH230661   5.924   5.265   0.709  0.7865 -0.2692 -0.2262
 3033TIP3    H130662   6.019   5.272   0.701  0.7449 -1.4251 -2.2650
 3033TIP3    H230663   5.911   5.189   0.765  0.9985  1.3510  2.2142
 3034TIP3   OH230664   1.301   1.122   8.012 -0.1727  0.0249 -0.3353
 3034TIP3    H130665   1.345   1.199   7.977  1.4891 -0.3015  0.9270
 3034TIP3    H230666   1.222   1.156   8.054  1.1603  1.2548  1.3066
 3035TIP3   OH230667   4.563   3.562   7.981 -0.2213  0.8514  0.1541
 3035TIP3    H130668   4.505   3.635   7.959  0.1905  1.3528  0.7055
 3035TIP3    H230669   4.631   3.564   7.914  0.4106  1.6849  0.7893
 3036TIP3   OH230670   1.843   5.897   7.978  0.0125  0.1209  0.5795
 3036TIP3    H130671   1.786   5.925   7.906  0.7880  0.2531  0.0011
 3036TIP3    H230672   1.908   5.840   7.936 -1.2288 -2.2174  1.6345
 3037TIP3   OH230673   0.420   4.481   7.604  0.8882  0.3746 -0.2161
 3037TIP3    H130674   0.399   4.473   7.697  1.2911  0.6410 -0.1020
 3037TIP3    H230675   0.394   4.396   7.566 -2.9479  1.5256 -0.5940
 3038TIP3   OH230676   0.051   2.842   0.724  0.9270 -0.0213 -0.0206
 3038TIP3    H130677  -0.017   2.897   0.685  0.3767  0.1530  1.1529
 3038TIP3    H230678   0.077   2.782   0.654  0.2572  0.5528 -0.7687
 3039TIP3   OH230679   5.925   2.593   7.114 -0.0626 -0.0065  0.2315
 3039TIP3    H130680   5.867   2.646   7.060 -0.1590  0.3713  0.6977
 3039TIP3    H230681   6.013   2.615   7.084 -0.1207  0.1170  0.1529
 3040TIP3   OH230682   3.039   1.726   6.901 -0.3826  0.0242  0.2943
 3040TIP3    H130683   2.998   1.679   6.828 -1.2376  0.1880  0.6628
 3040TIP3    H230684   3.082   1.801   6.859 -0.5585 -0.0835 -0.0862
 3041TIP3   OH230685   3.240   4.110   7.349  0.0053  1.1018  0.1249
 3041TIP3    H130686   3.175   4.068   7.292 -0.3198 -0.1476  1.3814
 3041TIP3    H230687   3.228   4.204   7.332 -0.1664  0.7919 -1.7481
 3042TIP3   OH230688   4.548   5.510   1.754 -0.1844 -0.7150  0.1945
 3042TIP3    H130689   4.477   5.566   1.722 -0.7934 -1.7195 -0.2675
 3042TIP3    H230690   4.536   5.508   1.849  0.3001  0.5105  0.3054
 3043TIP3   OH230691   4.914   1.510   7.890  0.4766  0.0654  0.4936
 3043TIP3    H130692   4.987   1.547   7.940  0.5888 -0.1256  0.4702
 3043TIP3    H230693   4.955   1.455   7.824  0.2953 -0.7241  1.0178
 3044TIP3   OH230694   2.380   1.565   8.743 -0.2936 -0.1916 -0.5402
 3044TIP3    H130695   2.371   1.611   8.826  0.9360 -0.9618  0.0469
 3044TIP3    H230696   2.356   1.630   8.677 -2.2582  0.1408  0.4298
 3045TIP3   OH230697   4.139   2.399   8.353 -0.8351 -0.8827  0.2574
 3045TIP3    H130698   4.190   2.478   8.373 -1.6446  0.0517 -1.1727
 3045TIP3    H230699   4.205   2.332   8.334 -0.0277  0.4923 -2.3086
 3046TIP3   OH230700   5.652   5.203   7.959 -0.1274  0.1957 -0.1707
 3046TIP3    H130701   5.717   5.273   7.956 -0.0277  0.2255  1.7410
 3046TIP3    H230702   5.610   5.211   8.045  1.0516 -3.0822  0.8887
 3047TIP3   OH230703   2.231   0.842   6.962  0.1080 -0.5717  0.1691
 3047TIP3    H130704   2.204   0.907   7.026 -1.2391 -0.4799 -0.4518
 3047TIP3    H230705   2.232   0.759   7.010 -0.1143 -0.3868  0.4911
 3048TIP3   OH230706   0.184   5.189   1.161 -0.0538  0.1397 -0.3684
 3048TIP3    H130707   0.128   5.225   1.230 -0.6848  0.3121 -0.9591
 3048TIP3    H230708   0.195   5.261   1.100  0.1652 -0.1374 -0.6567
 3049TIP3   OH230709   4.982   3.621   0.178 -0.0398  0.3609  0.1709
 3049TIP3    H130710   5.044   3.602   0.108  0.6752 -1.5435  1.2488
 3049TIP3    H230711   4.904   3.569   0.156  0.9733 -2.0300  1.7962
 3050TIP3   OH230712   4.868   2.996   0.211 -0.0249 -0.0694  0.5126
 3050TIP3    H130713   4.875   2.904   0.236 -1.3604 -0.3756 -0.1230
 3050TIP3    H230714   4.879   3.044   0.292  1.6555 -0.7321  0.7064
 3051TIP3   OH230715   5.492   4.781   1.988 -0.6268 -0.5338  0.3120
 3051TIP3    H130716   5.578   4.759   1.953 -0.6249  0.4642 -0.3602
 3051TIP3    H230717   5.500   4.768   2.082  0.3433 -0.2022  0.2865
 3052TIP3   OH230718   5.823   0.016   0.070  0.4308  0.3340  0.0158
 3052TIP3    H130719   5.773  -0.065   0.081 -1.1062  1.3509  0.8587
 3052TIP3    H230720   5.902  -0.011   0.023 -0.1183 -1.6149  0.1244
 3053TIP3   OH230721   0.211   5.056   6.782  0.0452 -0.0377 -0.0809
 3053TIP3    H130722   0.169   5.141   6.769  1.1464  0.2573 -2.2074
 3053TIP3    H230723   0.175   5.001   6.712  1.2902 -0.5084 -0.3757
 3054TIP3   OH230724   4.336   1.160   0.555 -1.0073  0.0966  0.1362
 3054TIP3    H130725   4.320   1.085   0.613  1.6174 -0.4557  0.2760
 3054TIP3    H230726   4.249   1.197   0.539 -2.1471 -1.6302  1.8663
 3055TIP3   OH230727   1.688   4.281   6.757  0.3012  0.0821 -0.6300
 3055TIP3    H130728   1.628   4.210   6.734 -0.5983  0.9144 -0.9246
 3055TIP3    H230729   1.757   4.238   6.808 -0.8006 -0.8230  0.1647
 3056TIP3   OH230730   2.501   3.440   2.190  0.0885 -0.3555  0.3455
 3056TIP3    H130731   2.523   3.513   2.247 -0.1494 -0.7680  0.9706
 3056TIP3    H230732   2.407   3.427   2.203 -0.3893  0.7931 -1.6006
 3057TIP3   OH230733   2.611   4.930   0.654  0.0601 -0.1305  0.1484
 3057TIP3    H130734   2.576   4.855   0.607  0.6224 -0.4083  0.1689
 3057TIP3    H230735   2.542   4.953   0.718 -0.0526 -0.7117  0.2409
 3058TIP3   OH230736   1.565   6.662   1.399  0.0625  0.3564  0.4290
 3058TIP3    H130737   1.552   6.614   1.480 -0.3847  1.3266  0.9464
 3058TIP3    H230738   1.614   6.740   1.425 -0.4938  0.9099 -0.1532
 3059TIP3   OH230739   2.833   4.111   7.619 -0.1938  0.2290 -0.5049
 3059TIP3    H130740   2.929   4.114   7.621 -0.2004  0.6497  1.4868
 3059TIP3    H230741   2.808   4.179   7.558  0.7749  0.6197 -0.4874
 3060TIP3   OH230742   0.095   1.372   0.840 -0.0043  0.1403 -0.1239
 3060TIP3    H130743   0.186   1.357   0.864 -0.4451 -0.7665  1.0630
 3060TIP3    H230744   0.090   1.466   0.822  0.9759  0.3524  0.6278
 3061TIP3   OH230745   1.381   0.143   0.230  0.2506 -0.1678 -0.4785
 3061TIP3    H130746   1.392   0.164   0.323  0.0684  0.6864 -0.6466
 3061TIP3    H230747   1.355   0.050   0.230  0.4787 -0.2406  0.3057
 3062TIP3   OH230748   3.776   6.627   1.602 -0.1127 -0.0031 -0.4757
 3062TIP3    H130749   3.819   6.542   1.614 -1.7636 -1.0503 -1.5989
 3062TIP3    H230750   3.697   6.622   1.656  0.4486  1.3696  0.5141
 3063TIP3   OH230751   2.477   4.760   7.033  0.0882  0.1215 -0.0130
 3063TIP3    H130752   2.469   4.801   6.947 -0.8479 -0.6349 -0.3044
 3063TIP3    H230753   2.564   4.785   7.063  0.2893  0.7031 -1.0226
 3064TIP3   OH230754   4.230   3.782   0.987 -0.3034 -0.7009  0.5389
 3064TIP3    H130755   4.254   3.875   0.990 -1.4108 -0.3694 -0.2941
 3064TIP3    H230756   4.195   3.769   0.899  0.7536 -2.1646  0.2941
 3065TIP3   OH230757   5.279   2.058   0.224  0.0695  0.2453  0.0555
 3065TIP3    H130758   5.291   2.036   0.131 -0.6141  0.5998 -0.1207
 3065TIP3    H230759   5.365   2.041   0.264  0.2224 -0.4228 -0.5369
 3066TIP3   OH230760   2.470   3.288   7.664  0.0297 -0.5757 -0.7199
 3066TIP3    H130761   2.482   3.311   7.756 -1.1119  0.2635 -0.7537
 3066TIP3    H230762   2.389   3.236   7.663 -0.2467 -0.1487 -1.2940
 3067TIP3   OH230763   1.247   2.338   1.611 -0.5017 -0.1257  0.2035
 3067TIP3    H130764   1.268   2.383   1.693 -0.2943 -1.5158  0.9405
 3067TIP3    H230765   1.153   2.351   1.599 -0.6596 -0.4968  1.0243
 3068TIP3   OH230766   1.136   2.635   7.028  0.5110  0.2579 -0.1557
 3068TIP3    H130767   1.148   2.575   7.102  1.1627  1.1711  0.5043
 3068TIP3    H230768   1.194   2.601   6.960 -1.3830 -1.6095 -0.9393
 3069TIP3   OH230769   2.038   5.747   7.289 -0.1458  0.1163  0.1743
 3069TIP3    H130770   2.126   5.769   7.259 -0.4894  0.1887 -0.7985
 3069TIP3    H230771   2.006   5.684   7.225  0.0958 -1.8108  1.8607
 3070TIP3   OH230772   3.749   1.670   0.926 -0.1589 -0.0420 -0.3640
 3070TIP3    H130773   3.730   1.587   0.969 -2.8112  1.0387  0.8149
 3070TIP3    H230774   3.780   1.727   0.996  1.0588  0.1840 -1.0487
 3071TIP3   OH230775   5.925   4.929   6.832  0.3248  0.2261  0.1472
 3071TIP3    H130776   5.979   5.007   6.816  1.4873 -0.8304 -1.4643
 3071TIP3    H230777   5.905   4.895   6.744 -1.6877 -0.3131  0.7543
 3072TIP3   OH230778   4.965   3.933   6.395  0.2301 -0.0076  0.3461
 3072TIP3    H130779   5.022   4.008   6.409  1.3716 -0.9369  0.9200
 3072TIP3    H230780   5.007   3.862   6.444 -0.2339 -1.2794 -1.0264
 3073TIP3   OH230781   2.383   4.472   1.143  0.1125 -0.1553 -0.0300
 3073TIP3    H130782   2.392   4.567   1.135 -0.2983 -0.0094  1.1150
 3073TIP3    H230783   2.412   4.438   1.058 -1.3968  1.0908 -1.0930
 3074TIP3   OH230784   5.888   1.575   7.235  0.0428 -0.5306 -0.8861
 3074TIP3    H130785   5.810   1.526   7.262 -0.2962 -0.2585 -1.3468
 3074TIP3    H230786   5.960   1.535   7.283 -0.1701 -1.7318 -1.5338
 3075TIP3   OH230787   1.659   2.883   8.500  0.7072 -0.1123  0.1811
 3075TIP3    H130788   1.637   2.798   8.537  0.5538 -0.6672 -1.1300
 3075TIP3    H230789   1.742   2.906   8.540  0.9621 -1.0836  0.2286
 3076TIP3   OH230790   3.989   4.944   0.008  0.0162 -0.0053  0.4672
 3076TIP3    H130791   3.997   5.036  -0.018  0.0054 -0.3582 -0.8800
 3076TIP3    H230792   4.053   4.933   0.078  0.8799  0.7463 -0.1807
 3077TIP3   OH230793   1.197   3.545   8.617  0.5826 -0.9763 -0.2544
 3077TIP3    H130794   1.164   3.630   8.585  1.2345  0.0793  1.7074
 3077TIP3    H230795   1.151   3.532   8.700  1.4289 -1.9346  0.0791
 3078TIP3   OH230796   2.749   0.317   0.953  0.0030  0.2437 -0.1876
 3078TIP3    H130797   2.812   0.389   0.957  1.2489 -0.6431 -2.1590
 3078TIP3    H230798   2.663   0.359   0.960  0.7056  1.8708 -0.8824
 3079TIP3   OH230799   4.119   4.978   8.176  0.4569  0.0236  0.4246
 3079TIP3    H130800   4.026   4.986   8.156  0.7502 -1.7626 -2.1433
 3079TIP3    H230801   4.130   4.887   8.204  1.6331 -0.2226 -0.7610
 3080TIP3   OH230802   4.885   1.674   1.225  0.8416  0.5666  0.5341
 3080TIP3    H130803   4.944   1.745   1.199  0.9747  0.6251  0.9879
 3080TIP3    H230804   4.844   1.645   1.143  0.6224  1.3172  0.3702
 3081TIP3   OH230805   6.058   6.613   0.129  0.2844  0.1049 -0.2473
 3081TIP3    H130806   6.115   6.562   0.072  2.4379  0.7499  1.2162
 3081TIP3    H230807   6.083   6.704   0.114 -2.3589  0.6960 -1.6001
 3082TIP3   OH230808   2.372   3.560   1.491  0.2633  0.1190  0.8480
 3082TIP3    H130809   2.361   3.481   1.544  1.9897 -2.2207 -1.8902
 3082TIP3    H230810   2.459   3.592   1.514  0.3577  0.0377  0.6140
 3083TIP3   OH230811   4.745   5.422   7.848  0.1040  0.1259 -0.2758
 3083TIP3    H130812   4.763   5.509   7.811  1.8404  0.0846  0.3884
 3083TIP3    H230813   4.703   5.374   7.777 -0.0041  1.2108 -0.9671
 3084TIP3   OH230814   6.737   0.989   0.150 -0.4148 -0.3974  0.7157
 3084TIP3    H130815   6.693   0.947   0.076 -1.1227  0.5672  0.5702
 3084TIP3    H230816   6.706   0.941   0.226  0.0517 -1.1787  0.4226
 3085TIP3   OH230817   3.875   4.595   0.800 -0.3926  0.4305  0.2380
 3085TIP3    H130818   3.813   4.658   0.838 -0.9124 -0.3704  0.7610
 3085TIP3    H230819   3.858   4.599   0.706  0.5444  2.0604  0.0985
 3086TIP3   OH230820   4.724   0.704   1.184  0.2144  0.4785  0.6103
 3086TIP3    H130821   4.784   0.778   1.181 -1.0248  1.5021 -0.3646
 3086TIP3    H230822   4.637   0.744   1.184 -0.4916 -0.9730  1.0659
 3087TIP3   OH230823   2.363   0.677   6.198 -0.2567 -0.1778  0.2908
 3087TIP3    H130824   2.452   0.658   6.229 -0.2214 -0.1812  0.1894
 3087TIP3    H230825   2.317   0.594   6.204  0.0546 -0.4402 -0.6822
 3088TIP3   OH230826   4.764   2.664   7.178  0.0016 -0.8454 -0.0790
 3088TIP3    H130827   4.735   2.750   7.209 -0.3674 -0.8816 -0.3210
 3088TIP3    H230828   4.720   2.653   7.094 -1.8841 -2.3263  1.0475
 3089TIP3   OH230829   0.353   0.681   1.260  0.2929  0.2437  0.0530
 3089TIP3    H130830   0.268   0.715   1.233  0.8147  0.9101 -0.8017
 3089TIP3    H230831   0.337   0.639   1.345 -1.0043 -0.1998 -0.3906
 3090TIP3   OH230832   0.183   4.080   8.618 -0.3540  0.7351  0.5842
 3090TIP3    H130833   0.160   4.050   8.706  0.0211  0.3802  0.5647
 3090TIP3    H230834   0.107   4.059   8.565 -0.2333  0.1272  0.6445
 3091TIP3   OH230835   6.102   0.068   0.080 -0.2512  0.1371 -0.1556
 3091TIP3    H130836   6.084   0.157   0.112  0.1131  0.7347 -1.5186
 3091TIP3    H230837   6.185   0.044   0.122  0.5943  1.1883 -1.1471
 3092TIP3   OH230838   2.562   2.827   1.216  0.6311 -0.3788  0.2045
 3092TIP3    H130839   2.584   2.912   1.177  0.6918 -0.9411 -1.0350
 3092TIP3    H230840   2.580   2.764   1.147 -0.8066 -1.2676  0.5998
 3093TIP3   OH230841   6.057   6.644   2.083  0.3937  0.3632 -0.4599
 3093TIP3    H130842   6.136   6.697   2.074  0.1385  0.6844 -0.8582
 3093TIP3    H230843   6.025   6.634   1.994 -0.0526  0.2937 -0.2930
 3094TIP3   OH230844   2.273   1.132   1.214  0.2388 -0.0019 -0.2297
 3094TIP3    H130845   2.326   1.127   1.294 -1.7421  0.4925  1.2115
 3094TIP3    H230846   2.230   1.047   1.208  0.4451 -0.0657 -0.8311
 3095TIP3   OH230847   1.147   1.224   0.472  0.3822  0.0654  0.0321
 3095TIP3    H130848   1.167   1.138   0.435 -0.1991 -0.4873  0.9409
 3095TIP3    H230849   1.161   1.285   0.401  2.1554 -0.6227 -0.2747
 3096TIP3   OH230850   1.996   2.924   0.470 -0.2613 -0.3018 -0.1413
 3096TIP3    H130851   1.997   3.012   0.433 -0.6955 -0.6906 -1.1159
 3096TIP3    H230852   2.057   2.928   0.544 -3.9300  2.2206  3.1886
 3097TIP3   OH230853   1.022   0.867   7.758  0.5400 -0.0153  0.0896
 3097TIP3    H130854   1.002   0.959   7.743 -0.2168  0.0643  1.4740
 3097TIP3    H230855   0.989   0.823   7.680  0.7589  0.8501 -0.5115
 3098TIP3   OH230856   0.457   5.459   7.788  0.2644 -0.0391  0.3375
 3098TIP3    H130857   0.479   5.493   7.875  0.7058 -1.7317  0.9217
 3098TIP3    H230858   0.487   5.527   7.727  1.0507  0.6467  1.4528
 3099TIP3   OH230859   6.135   4.878   0.766  0.1097 -0.0850  0.2164
 3099TIP3    H130860   6.171   4.943   0.706 -1.2404 -0.2350 -0.8142
 3099TIP3    H230861   6.123   4.925   0.848 -0.7482  0.9653 -0.4836
 3100TIP3   OH230862   0.050   0.730   0.329 -0.2464  0.0020 -0.2850
 3100TIP3    H130863   0.089   0.645   0.309  1.4094  0.8241 -0.7194
 3100TIP3    H230864   0.107   0.794   0.285 -0.1785  1.4763  1.8094
 3101TIP3   OH230865   3.484   3.668   7.283 -0.2405  0.7713  0.5853
 3101TIP3    H130866   3.393   3.645   7.303 -0.3368  1.2857  0.7394
 3101TIP3    H230867   3.480   3.757   7.249  0.3899  1.5027  2.2765
 3102TIP3   OH230868   0.217   4.648   8.173  0.6319 -0.5964  0.0719
 3102TIP3    H130869   0.222   4.670   8.266  0.7037  1.7235 -0.4175
 3102TIP3    H230870   0.307   4.623   8.150  0.4243 -2.1374  0.7832
 3103TIP3   OH230871   6.729   2.051   1.349  0.3176  0.1637 -0.0712
 3103TIP3    H130872   6.669   2.096   1.409  0.4379  1.1764 -0.7008
 3103TIP3    H230873   6.759   2.119   1.289 -0.8077 -1.0356 -2.1328
 3104TIP3   OH230874   1.191   2.833   8.269  0.5623  0.2014  0.6862
 3104TIP3    H130875   1.129   2.830   8.342 -0.7900 -0.5176 -0.4333
 3104TIP3    H230876   1.143   2.794   8.195  0.9242  3.1493 -1.2872
 3105TIP3   OH230877   3.882   2.874   8.391  0.4653  0.2654  0.6373
 3105TIP3    H130878   3.826   2.881   8.314 -0.7422  0.7500  1.5325
 3105TIP3    H230879   3.964   2.916   8.364 -0.5542  2.0554  0.1628
 3106TIP3   OH230880   6.474   5.609   0.050 -0.2041 -0.3559 -0.2760
 3106TIP3    H130881   6.412   5.650   0.111 -1.9484 -1.6435 -1.1033
 3106TIP3    H230882   6.530   5.554   0.105  0.2602  0.8242  0.4812
 3107TIP3   OH230883   1.512   3.329   8.707  0.1626  0.7570  0.6140
 3107TIP3    H130884   1.552   3.269   8.769  1.1258 -0.3993 -1.0387
 3107TIP3    H230885   1.524   3.416   8.746  1.3344  0.1332  1.7072
 3108TIP3   OH230886   5.032   0.962   8.220 -1.1167  0.5958  0.3744
 3108TIP3    H130887   5.008   1.053   8.235  0.2830  1.2063 -0.8156
 3108TIP3    H230888   5.099   0.966   8.152 -1.3317 -1.3665 -0.0051
 3109TIP3   OH230889   2.841   6.053   7.665 -0.1097  0.3568 -0.1892
 3109TIP3    H130890   2.932   6.022   7.666 -0.3327 -0.3365  0.7461
 3109TIP3    H230891   2.798   5.999   7.600  0.0749  0.4815 -0.4188
 3110TIP3   OH230892   0.080   1.359   6.610 -0.4681 -0.5548 -0.7003
 3110TIP3    H130893   0.131   1.328   6.536 -1.9325  0.5865 -2.2785
 3110TIP3    H230894   0.017   1.420   6.572 -0.5627  0.9533  1.6332
 3111TIP3   OH230895   4.365   2.661   0.033 -0.1532  0.6429 -0.3082
 3111TIP3    H130896   4.295   2.718  -0.000 -1.7090 -0.8556  0.2790
 3111TIP3    H230897   4.327   2.574   0.034  0.6852  0.1975  2.8845
 3112TIP3   OH230898   1.079   5.369   0.897  0.2412 -0.7393  0.1682
 3112TIP3    H130899   1.005   5.311   0.916  0.4465 -1.0160  0.1136
 3112TIP3    H230900   1.108   5.400   0.983 -0.2017 -0.2992  0.1679
 3113TIP3   OH230901   3.697   1.152   8.391  0.0318  0.2646  0.1636
 3113TIP3    H130902   3.784   1.192   8.384  0.4210 -0.6328 -0.3567
 3113TIP3    H230903   3.663   1.182   8.475  0.5107  1.2795  0.0076
 3114TIP3   OH230904   3.243   3.008   1.925 -0.5657 -0.1347  0.6985
 3114TIP3    H130905   3.165   3.064   1.921 -1.4099 -1.3337 -0.4382
 3114TIP3    H230906   3.208   2.919   1.918  0.8043 -0.7830  1.7093
 3115TIP3   OH230907   1.579   6.035   1.664 -0.5179  0.1940  0.2260
 3115TIP3    H130908   1.653   6.014   1.722 -0.1396  1.7455  0.3530
 3115TIP3    H230909   1.521   5.959   1.671  0.4342 -0.4874  1.1433
 3116TIP3   OH230910   5.065   2.584   1.178  0.5580  0.1016 -0.4085
 3116TIP3    H130911   4.980   2.621   1.202  1.1202  0.7269  0.6750
 3116TIP3    H230912   5.051   2.489   1.178  0.0950  0.1606  0.7224
 3117TIP3   OH230913   3.141   3.584   6.718 -0.3340  0.1081 -0.4697
 3117TIP3    H130914   3.143   3.507   6.662 -0.1634  1.4043 -2.3341
 3117TIP3    H230915   3.077   3.563   6.786  0.7451 -2.1916 -0.0735
 3118TIP3   OH230916   3.787   3.151   6.645 -1.2601 -0.4568 -0.7050
 3118TIP3    H130917   3.791   3.242   6.617 -2.9931  0.1828  0.8920
 3118TIP3    H230918   3.704   3.119   6.608 -2.1194 -0.4576  1.1409
 3119TIP3   OH230919   0.684   2.439   2.515 -0.1579  0.0858  0.3877
 3119TIP3    H130920   0.624   2.506   2.548 -0.7548  0.8610 -2.0689
 3119TIP3    H230921   0.629   2.379   2.466  0.9617  0.5919 -1.5872
 3120TIP3   OH230922   3.784   4.032   8.775  0.5472  0.0772  0.2788
 3120TIP3    H130923   3.877   4.050   8.773  0.3438  1.2129 -1.5624
 3120TIP3    H230924   3.769   3.974   8.700 -0.2379 -0.0005  0.4832
 3121TIP3   OH230925   4.946   1.345   6.245  0.2237  0.3178 -0.6139
 3121TIP3    H130926   4.946   1.290   6.167  2.4658  1.7891 -1.7776
 3121TIP3    H230927   4.939   1.284   6.318 -2.7450 -1.0556 -1.8832
 3122TIP3   OH230928   6.261   5.073   7.278  0.2989  0.6043  0.1446
 3122TIP3    H130929   6.277   5.037   7.191 -0.1609  1.6928 -0.4036
 3122TIP3    H230930   6.298   5.008   7.338 -0.4136 -0.7195 -0.8075
 3123TIP3   OH230931   6.588   2.901   6.760 -0.2215 -0.1118 -0.0054
 3123TIP3    H130932   6.546   2.967   6.706  0.9685  1.7942  1.2907
 3123TIP3    H230933   6.680   2.903   6.733 -0.0744 -0.9114  0.3965
 3124TIP3   OH230934   5.569   0.798   7.099  0.4757  0.1331 -0.1727
 3124TIP3    H130935   5.493   0.776   7.045  1.1732 -0.5080 -0.9244
 3124TIP3    H230936   5.557   0.748   7.179 -0.6123  1.1510  0.3445
 3125TIP3   OH230937   2.293   5.389   7.139 -0.0320  0.0572  0.1149
 3125TIP3    H130938   2.265   5.468   7.093 -0.7405  0.8563  1.8407
 3125TIP3    H230939   2.355   5.347   7.079 -0.1387  1.5717 -1.1075
 3126TIP3   OH230940   3.274   3.898   6.997  0.9613 -0.1095  0.2800
 3126TIP3    H130941   3.224   3.974   6.968 -3.0278 -2.2092  0.9245
 3126TIP3    H230942   3.316   3.864   6.918  0.9670  1.4200 -0.4134
 3127TIP3   OH230943   1.351   2.658   8.526 -0.4058 -0.1200  0.4565
 3127TIP3    H130944   1.411   2.610   8.583  0.0616  0.0208  0.0942
 3127TIP3    H230945   1.264   2.629   8.552 -0.3219  1.2538  2.4608
 3128TIP3   OH230946   1.709   4.829   1.421  0.0403  0.2264 -0.4364
 3128TIP3    H130947   1.648   4.788   1.361  0.5266  0.7045 -1.2901
 3128TIP3    H230948   1.704   4.777   1.501  0.4047 -1.3034 -1.3568
 3129TIP3   OH230949   4.983   0.176   1.421 -0.1681  0.1184  1.2844
 3129TIP3    H130950   5.022   0.152   1.505  2.0977  1.3611  0.6634
 3129TIP3    H230951   5.012   0.266   1.406  1.1732 -0.7164 -1.7184
 3130TIP3   OH230952   6.744   1.790   0.446 -0.3799  0.1419  0.0564
 3130TIP3    H130953   6.669   1.839   0.411 -1.2506 -0.9866  0.2919
 3130TIP3    H230954   6.758   1.719   0.383 -0.3763 -0.4440  0.7075
 3131TIP3   OH230955   6.112   0.303   0.611  0.1290  0.1044 -0.1016
 3131TIP3    H130956   6.082   0.298   0.702 -0.4655  2.2504 -0.1343
 3131TIP3    H230957   6.150   0.390   0.602  0.6417 -0.2529 -1.7874
 3132TIP3   OH230958   1.157   1.728   1.985 -0.7404  0.4369 -0.4971
 3132TIP3    H130959   1.147   1.722   2.079 -2.3632  0.6078 -0.6398
 3132TIP3    H230960   1.248   1.703   1.969 -0.4919  0.2498  1.0821
 3133TIP3   OH230961   1.168   1.384   8.373  0.2616  0.2655  0.2913
 3133TIP3    H130962   1.166   1.293   8.404 -1.2286 -0.1304 -0.8368
 3133TIP3    H230963   1.259   1.399   8.349  0.1827 -1.7027 -1.5490
 3134TIP3   OH230964   4.278   4.425   8.340 -0.2001  0.5368  0.0351
 3134TIP3    H130965   4.292   4.478   8.418 -1.4180  1.0558 -0.0871
 3134TIP3    H230966   4.301   4.336   8.367 -2.2166  0.4049  1.5255
 3135TIP3   OH230967   6.377   0.348   0.481  0.5539 -0.3736  0.0524
 3135TIP3    H130968   6.459   0.361   0.527 -0.0061 -1.7571  1.5335
 3135TIP3    H230969   6.396   0.372   0.390  2.3724  0.0272  0.5096
 3136TIP3   OH230970   2.423   3.426   6.986 -0.1738  0.4885 -0.0712
 3136TIP3    H130971   2.343   3.373   6.987 -1.0580  1.7840  0.5805
 3136TIP3    H230972   2.474   3.393   7.060 -0.2400 -0.1182 -0.2863
 3137TIP3   OH230973   4.356   1.894   7.272 -0.2573 -0.7019  0.3623
 3137TIP3    H130974   4.310   1.811   7.267  0.0684 -0.8009 -1.2505
 3137TIP3    H230975   4.321   1.935   7.351 -1.6047 -1.6568  0.2978
 3138TIP3   OH230976   1.553   3.190   1.796  0.2478 -0.0068 -0.4910
 3138TIP3    H130977   1.541   3.255   1.865 -1.1013  0.1959 -0.8807
 3138TIP3    H230978   1.648   3.184   1.785  0.4167  1.7315 -0.2955
 3139TIP3   OH230979   0.403   1.504   7.244  0.1468  0.3949  0.6547
 3139TIP3    H130980   0.323   1.556   7.241 -0.0741  0.2611  2.8059
 3139TIP3    H230981   0.472   1.563   7.212 -0.6216  0.8400 -0.2189
 3140TIP3   OH230982   6.444   6.317   7.874  0.2036 -0.3103  0.2399
 3140TIP3    H130983   6.439   6.394   7.819 -0.5841  0.4851  1.3889
 3140TIP3    H230984   6.533   6.319   7.910  0.2497 -0.0470  0.1083
 3141TIP3   OH230985   1.392   3.990   1.423  0.0119 -0.0485 -0.2027
 3141TIP3    H130986   1.355   4.075   1.398  0.1767 -0.3658 -1.5891
 3141TIP3    H230987   1.479   4.012   1.458  0.4741  0.2880 -1.5005
 3142TIP3   OH230988   3.696   1.692   7.581 -0.9276  0.0443 -0.2271
 3142TIP3    H130989   3.781   1.735   7.578 -0.0740 -1.5492 -0.1909
 3142TIP3    H230990   3.703   1.621   7.518 -1.6640 -1.0384  0.8573
 3143TIP3   OH230991   6.134   4.154   6.276 -0.6026 -0.4497 -0.4307
 3143TIP3    H130992   6.100   4.065   6.272 -2.0605  0.0900 -0.5323
 3143TIP3    H230993   6.153   4.169   6.368 -0.7523 -0.7106 -0.3565
 3144TIP3   OH230994   0.610   5.857   7.486  0.4347 -0.4420  0.7361
 3144TIP3    H130995   0.688   5.811   7.454  1.1446  1.0843  0.1895
 3144TIP3    H230996   0.638   5.948   7.495 -1.1126  0.0125  1.1611
 3145TIP3   OH230997   0.286   0.204   7.398  0.1903 -0.4215  0.2414
 3145TIP3    H130998   0.372   0.244   7.387  0.5025 -1.2647 -0.4866
 3145TIP3    H230999   0.233   0.272   7.440  1.0662  0.2801  0.2351
 3146TIP3   OH231000   5.290   4.164   7.922  0.3239  0.7113 -0.4352
 3146TIP3    H131001   5.256   4.172   8.011  0.9116 -0.3441 -0.0987
 3146TIP3    H231002   5.384   4.149   7.934  0.0999 -1.7359 -1.0989
 3147TIP3   OH231003   2.872   2.873   0.324 -0.1450  0.0354  0.2637
 3147TIP3    H131004   2.837   2.818   0.394  1.7153 -0.2916  1.0153
 3147TIP3    H231005   2.808   2.944   0.315 -1.4229 -0.9974  0.8890
 3148TIP3   OH231006   1.114   3.392   0.515  0.0250 -0.5936  0.1406
 3148TIP3    H131007   1.037   3.353   0.557 -0.9049 -0.3227 -1.2474
 3148TIP3    H231008   1.115   3.483   0.546 -0.5064 -0.4651 -0.2074
 3149TIP3   OH231009   3.652   1.390   0.603  0.3096  0.0414 -0.2805
 3149TIP3    H131010   3.625   1.399   0.512 -0.6323  0.4756  0.0303
 3149TIP3    H231011   3.745   1.368   0.598 -0.0790 -1.5492 -1.3963
 3150TIP3   OH231012   4.781   5.220   8.385 -0.0906 -0.0258  0.0317
 3150TIP3    H131013   4.787   5.137   8.339 -1.9102  0.9520 -2.1455
 3150TIP3    H231014   4.699   5.260   8.354  1.5822  3.4020 -0.5073
 3151TIP3   OH231015   2.206   2.484   0.091  0.2951 -0.3052 -0.7336
 3151TIP3    H131016   2.163   2.549   0.147  0.2317 -0.9665  0.0045
 3151TIP3    H231017   2.283   2.457   0.141  0.4599 -0.6072 -1.1517
 3152TIP3   OH231018   0.616   2.516   8.357  0.4917  0.2022 -0.2193
 3152TIP3    H131019   0.616   2.422   8.344  1.7680  0.2271 -0.5723
 3152TIP3    H231020   0.654   2.529   8.444 -2.6161  0.2940  1.2461
 3153TIP3   OH231021   2.932   6.281   2.134 -0.1606 -0.0670  0.0104
 3153TIP3    H131022   2.855   6.334   2.115 -0.5632  0.0869  1.9274
 3153TIP3    H231023   2.952   6.239   2.050 -2.2972 -0.1002 -0.5513
 3154TIP3   OH231024   6.543   4.539   1.409  0.2342 -0.4699  0.5656
 3154TIP3    H131025   6.460   4.571   1.374  0.4536 -1.1176 -0.5975
 3154TIP3    H231026   6.583   4.492   1.336  0.6532 -1.9930  1.7206
 3155TIP3   OH231027   0.263   0.555   1.491 -0.2044  0.5209  0.5635
 3155TIP3    H131028   0.183   0.501   1.485  0.6037 -0.5885 -1.3358
 3155TIP3    H231029   0.332   0.492   1.510  0.1417  1.6043  3.1966
 3156TIP3   OH231030   5.144   3.416   0.009 -0.0839 -0.5240 -0.3434
 3156TIP3    H131031   5.069   3.415  -0.050 -1.1100 -3.8057  0.7673
 3156TIP3    H231032   5.220   3.422  -0.049 -1.0771  2.0591 -1.5368
 3157TIP3   OH231033   3.002   4.535   2.210 -0.7675 -0.9064  0.1026
 3157TIP3    H131034   2.960   4.455   2.242 -3.3790 -0.2163 -1.3223
 3157TIP3    H231035   2.955   4.606   2.255  0.6960 -0.1034  0.4346
 3158TIP3   OH231036   2.955   5.636   0.536 -0.2631 -0.5936  0.4063
 3158TIP3    H131037   3.028   5.696   0.526 -0.6400 -0.4029 -1.5156
 3158TIP3    H231038   2.995   5.551   0.552  0.3316 -0.2500  0.7669
 3159TIP3   OH231039   2.140   3.812   8.476  0.3186 -0.1082  0.2271
 3159TIP3    H131040   2.204   3.771   8.418 -0.7977 -3.1742  0.9723
 3159TIP3    H231041   2.180   3.806   8.563  0.5200  1.3442  0.2607
 3160TIP3   OH231042   6.122   4.201   1.586  0.3548 -0.6849  0.0064
 3160TIP3    H131043   6.153   4.110   1.590  2.7392 -0.0457 -1.5856
 3160TIP3    H231044   6.201   4.252   1.572 -1.0689  1.5647 -0.2973
 3161TIP3   OH231045   0.990   3.879   1.621 -0.3419 -0.1906 -0.3729
 3161TIP3    H131046   1.011   3.880   1.527  0.7147  0.9164 -0.1580
 3161TIP3    H231047   1.049   3.813   1.658 -0.6451 -0.5127 -0.4622
 3162TIP3   OH231048   2.982   5.640   1.146 -0.4803 -0.1097  0.0852
 3162TIP3    H131049   2.994   5.682   1.062  1.5636  1.7092  1.1855
 3162TIP3    H231050   3.068   5.602   1.167 -0.8281 -0.2051  1.4850
 3163TIP3   OH231051   6.637   5.104   7.610  0.7744  0.1856  0.0636
 3163TIP3    H131052   6.648   5.126   7.703  0.2952  0.3621  0.0827
 3163TIP3    H231053   6.685   5.171   7.563 -0.1618  0.9293  0.1436
 3164TIP3   OH231054   4.957   3.774   1.128 -0.0939 -0.6199 -0.4224
 3164TIP3    H131055   4.910   3.785   1.211  1.9784  0.2843  0.6987
 3164TIP3    H231056   4.979   3.863   1.101 -0.1628 -0.9513 -1.6342
 3165TIP3   OH231057   2.590   5.977   0.806  0.0252 -0.2381 -0.1953
 3165TIP3    H131058   2.535   5.975   0.727 -1.2360  0.6382  0.6173
 3165TIP3    H231059   2.663   5.918   0.786  0.5865  1.1627 -2.6095
 3166TIP3   OH231060   6.005   0.707   2.392  0.3906 -0.4850 -0.2227
 3166TIP3    H131061   6.079   0.647   2.388  0.3485 -0.5219 -0.4730
 3166TIP3    H231062   5.935   0.656   2.432 -0.1006 -1.0860 -1.8022
 3167TIP3   OH231063   4.219   5.741   2.339 -0.2379  0.6635 -0.2196
 3167TIP3    H131064   4.279   5.789   2.396 -0.2538  1.0317 -0.5065
 3167TIP3    H231065   4.145   5.802   2.327 -0.1588  0.6528 -0.7646
 3168TIP3   OH231066   4.670   4.532   8.088 -0.1041 -0.6299 -0.1520
 3168TIP3    H131067   4.742   4.477   8.058  0.2977  0.5024 -1.3586
 3168TIP3    H231068   4.663   4.513   8.182  0.2673 -2.4120 -0.4489
 3169TIP3   OH231069   4.176   0.449   8.592  0.4142 -0.5262 -0.0095
 3169TIP3    H131070   4.196   0.463   8.684  0.4642 -0.7428  0.0124
 3169TIP3    H231071   4.135   0.531   8.564  1.4617 -0.0177 -0.0882
 3170TIP3   OH231072   0.775   6.417   0.153 -0.8364  0.1645 -0.0248
 3170TIP3    H131073   0.789   6.380   0.065 -0.0706 -0.8865  0.5126
 3170TIP3    H231074   0.682   6.441   0.155 -1.2187 -1.1694 -0.6287
 3171TIP3   OH231075   5.305   1.829   6.714  0.2623 -0.0620  0.1522
 3171TIP3    H131076   5.224   1.778   6.716  0.4336 -0.3725  2.8168
 3171TIP3    H231077   5.276   1.920   6.708 -0.4004 -0.0977  2.1681
 3172TIP3   OH231078   2.864   4.103   8.650 -0.0202  0.6402  0.3332
 3172TIP3    H131079   2.903   4.164   8.588 -1.8096  0.4589 -1.0600
 3172TIP3    H231080   2.808   4.157   8.705  2.9862  1.1135  3.2123
 3173TIP3   OH231081   2.519   6.115   1.770 -0.3801 -0.3100  0.4143
 3173TIP3    H131082   2.433   6.078   1.750 -0.6272  0.7306 -0.5999
 3173TIP3    H231083   2.572   6.040   1.797 -0.9284 -1.3664 -1.2790
 3174TIP3   OH231084   5.714   1.514   6.505  0.2299 -0.1224 -0.1632
 3174TIP3    H131085   5.695   1.530   6.412 -1.2124 -1.4182 -0.1162
 3174TIP3    H231086   5.630   1.524   6.549  0.4775 -1.6331  0.6964
 3175TIP3   OH231087   0.985   3.721   7.540 -0.2528  0.0930 -0.3535
 3175TIP3    H131088   1.070   3.683   7.519  0.1085  2.1771 -3.5174
 3175TIP3    H231089   0.923   3.672   7.485 -1.0910 -1.1015  1.5762
 3176TIP3   OH231090   4.401   2.989   7.131 -0.4282 -0.4488  0.0826
 3176TIP3    H131091   4.321   3.038   7.114 -0.2862  1.0150  2.9849
 3176TIP3    H231092   4.463   3.054   7.165  0.0574 -2.3506  3.2927
 3177TIP3   OH231093   2.100   2.437   1.249  0.0231  0.1196  0.0558
 3177TIP3    H131094   2.009   2.460   1.233  0.0679 -0.3214 -0.9212
 3177TIP3    H231095   2.149   2.517   1.227 -0.0449  0.0012 -0.5497
 3178TIP3   OH231096   3.489   2.231   7.812 -0.7277 -0.3112 -0.5544
 3178TIP3    H131097   3.487   2.313   7.862 -2.5267 -0.9445  0.5303
 3178TIP3    H231098   3.581   2.205   7.813 -0.2993  1.1034  0.0836
 3179TIP3   OH231099   3.962   1.578   2.135 -0.0346  0.0169  0.0141
 3179TIP3    H131100   4.010   1.595   2.216  1.1343 -1.6784 -0.2775
 3179TIP3    H231101   4.020   1.522   2.084 -1.3502 -0.1183 -1.3988
 3180TIP3   OH231102   6.449   4.726   8.193 -0.2231 -0.6086 -0.2658
 3180TIP3    H131103   6.480   4.645   8.153 -1.9638 -0.1633 -2.7086
 3180TIP3    H231104   6.492   4.795   8.143 -0.5822 -0.0061  0.2480
 3181TIP3   OH231105   5.320   6.526   0.175 -0.5414  0.2590 -0.0698
 3181TIP3    H131106   5.388   6.568   0.227 -1.3413  0.2171  1.0470
 3181TIP3    H231107   5.346   6.434   0.172 -0.3450  0.3116  0.0199
 3182TIP3   OH231108   0.562   2.623   7.489  0.0079 -0.2273 -0.1285
 3182TIP3    H131109   0.624   2.670   7.544  0.0019 -2.3825  1.8904
 3182TIP3    H231110   0.616   2.583   7.420 -0.0376  2.8327 -2.1215
 3183TIP3   OH231111   4.105   1.178   7.609  0.5992  0.2703 -0.0622
 3183TIP3    H131112   4.023   1.221   7.586  1.0542  0.9240 -0.5169
 3183TIP3    H231113   4.123   1.205   7.698 -0.0442 -0.4730  0.3072
 3184TIP3   OH231114   6.523   6.181   8.472  0.4065 -0.7652 -0.2323
 3184TIP3    H131115   6.444   6.216   8.431  1.1586  0.4764 -0.6991
 3184TIP3    H231116   6.542   6.100   8.425 -0.7106 -1.2032  0.0514
 3185TIP3   OH231117   4.060   3.356   7.506 -0.4705  0.7268 -0.1597
 3185TIP3    H131118   3.978   3.324   7.469 -0.5376 -1.1294  1.4584
 3185TIP3    H231119   4.082   3.294   7.575  1.7339  1.7971  0.2096
 3186TIP3   OH231120   5.917   6.780   7.867 -0.2784  0.2290  0.4401
 3186TIP3    H131121   6.007   6.809   7.881 -0.0362 -1.5346  3.3219
 3186TIP3    H231122   5.863   6.857   7.886  0.5362  1.2246 -1.0548
 3187TIP3   OH231123   2.752   3.096   6.927 -0.1853 -0.3639  0.2970
 3187TIP3    H131124   2.820   3.135   6.872  1.3125 -2.4733  0.5233
 3187TIP3    H231125   2.680   3.078   6.866  0.2500  0.0715 -0.3637
 3188TIP3   OH231126   3.844   2.209   0.703  0.1601  0.1145  0.6763
 3188TIP3    H131127   3.765   2.218   0.755  0.3959 -1.7562  1.4202
 3188TIP3    H231128   3.915   2.206   0.767  0.4848 -1.8431  0.2820
 3189TIP3   OH231129   6.697   6.335   7.650  0.3189  0.2088 -0.1819
 3189TIP3    H131130   6.789   6.344   7.675 -0.6915  1.4598  3.6856
 3189TIP3    H231131   6.671   6.249   7.683 -1.0565  1.9118  3.6907
 3190TIP3   OH231132   2.312   3.086   8.028 -0.0496  0.4106 -0.3468
 3190TIP3    H131133   2.282   3.038   7.951 -2.3878  0.4838  0.4389
 3190TIP3    H231134   2.256   3.164   8.031  0.0055  0.4313  1.3572
 3191TIP3   OH231135   3.198   2.558   0.082 -0.0578 -0.3059  0.6959
 3191TIP3    H131136   3.205   2.490   0.148 -0.3327  0.3776  1.4433
 3191TIP3    H231137   3.184   2.639   0.131  2.3008  0.6504 -0.0413
 3192TIP3   OH231138   3.224   3.258   7.717  0.8919  0.0004  0.4251
 3192TIP3    H131139   3.177   3.217   7.789 -2.2310  1.0009 -0.8824
 3192TIP3    H231140   3.291   3.194   7.692 -2.3895 -3.5501 -0.2207
 3193TIP3   OH231141   4.495   5.200   2.020 -0.1561  0.7512 -0.1497
 3193TIP3    H131142   4.538   5.285   2.018  0.1339  0.6152  0.2687
 3193TIP3    H231143   4.566   5.137   2.009 -0.2268  0.5205  0.6838
 3194TIP3   OH231144   3.192   0.472   7.708  0.0605 -0.2461  0.3483
 3194TIP3    H131145   3.161   0.423   7.631 -2.3607 -0.6564  1.4891
 3194TIP3    H231146   3.214   0.558   7.674  0.9472 -1.0097 -1.1228
 3195TIP3   OH231147   6.290   5.435   1.958 -0.1320 -0.5781  0.0930
 3195TIP3    H131148   6.197   5.438   1.935 -0.7304  0.3811  2.3409
 3195TIP3    H231149   6.295   5.373   2.030  0.9210 -0.3930  0.1915
 3196TIP3   OH231150   3.666   5.389   0.895  0.4867 -0.2500  0.4186
 3196TIP3    H131151   3.688   5.303   0.859 -1.5873 -1.4075  1.6783
 3196TIP3    H231152   3.738   5.409   0.955  1.0278 -1.1064  0.0745
 3197TIP3   OH231153   5.719   4.553   1.375  0.0505 -0.1170  0.4358
 3197TIP3    H131154   5.808   4.553   1.411  0.9611  1.4472 -1.5667
 3197TIP3    H231155   5.705   4.463   1.346  0.1828 -0.8387  2.4451
 3198TIP3   OH231156   5.560   4.761   2.336  0.0090  0.0750  0.3340
 3198TIP3    H131157   5.536   4.853   2.346 -0.2234 -0.2159  3.6397
 3198TIP3    H231158   5.652   4.763   2.309  0.1694  1.3218  0.8979
 3199TIP3   OH231159   5.395   5.684   7.286  0.3892 -0.3384  0.3467
 3199TIP3    H131160   5.455   5.655   7.356 -0.4045  1.0058  1.6565
 3199TIP3    H231161   5.453   5.717   7.217  1.3048 -4.1371 -0.9274
 3200TIP3   OH231162   5.564   2.627   7.700 -0.2087 -0.1389  0.2645
 3200TIP3    H131163   5.559   2.535   7.674  1.8977 -0.1026 -0.5048
 3200TIP3    H231164   5.595   2.672   7.621  0.4375  0.9440  1.1028
 3201TIP3   OH231165   3.940   3.672   6.778  0.6217 -0.4858  0.2927
 3201TIP3    H131166   3.896   3.661   6.694 -1.2568 -1.2332  1.3061
 3201TIP3    H231167   3.960   3.765   6.783  0.9061 -0.4503 -1.0224
 3202TIP3   OH231168   5.808   0.412   8.745  0.4911  0.0289  0.2222
 3202TIP3    H131169   5.783   0.363   8.824  0.0133 -0.9361 -0.5097
 3202TIP3    H231170   5.804   0.504   8.772 -2.0971 -0.1315  0.6916
 3203TIP3   OH231171   3.252   2.513   8.467 -0.5989  0.2031 -0.3750
 3203TIP3    H131172   3.324   2.565   8.431  0.3849 -1.2259 -0.5533
 3203TIP3    H231173   3.291   2.428   8.485 -1.6945  0.0986  1.7338
 3204TIP3   OH231174   2.218   4.805   7.865 -0.2035  0.0619 -0.4489
 3204TIP3    H131175   2.260   4.719   7.867  0.3309  0.3223 -0.3363
 3204TIP3    H231176   2.164   4.807   7.945 -0.0530 -0.0844 -0.3431
 3205TIP3   OH231177   5.559   5.732   0.046 -0.0635 -0.3345 -0.3711
 3205TIP3    H131178   5.552   5.821   0.011 -0.5739 -0.1095  0.2745
 3205TIP3    H231179   5.584   5.745   0.138 -1.4208 -0.7865  0.0898
 3206TIP3   OH231180   2.005   1.523   6.948 -0.2138 -0.1689  0.2776
 3206TIP3    H131181   2.051   1.593   6.995 -0.1536  0.8549 -1.2234
 3206TIP3    H231182   1.958   1.568   6.878 -0.6057 -1.5971 -0.4182
 3207TIP3   OH231183   3.991   4.292   1.023 -0.3255  0.3434  0.0996
 3207TIP3    H131184   4.022   4.380   1.003  2.3094 -0.8482 -1.5784
 3207TIP3    H231185   4.037   4.267   1.103 -0.1260  0.0415 -0.1093
 3208TIP3   OH231186   1.544   0.125   2.604  0.0454  0.3271  0.2873
 3208TIP3    H131187   1.469   0.094   2.553  1.3142  1.6874 -2.6232
 3208TIP3    H231188   1.602   0.050   2.609 -0.1638  0.1318 -0.1361
 3209TIP3   OH231189   3.223   1.728   7.506 -0.1677  0.4469  0.1456
 3209TIP3    H131190   3.157   1.709   7.439  0.3816 -0.7752 -0.0776
 3209TIP3    H231191   3.239   1.822   7.498 -0.0604  0.3104 -1.4934
 3210TIP3   OH231192   1.634   3.381   7.837 -0.3710  0.3039  0.2834
 3210TIP3    H131193   1.552   3.410   7.795 -1.0127 -1.6308  0.1303
 3210TIP3    H231194   1.624   3.409   7.928 -1.2187  0.0751  0.2741
 3211TIP3   OH231195   0.153   5.891   7.687 -0.5572 -0.5388 -0.5437
 3211TIP3    H131196   0.184   5.806   7.655 -2.8082 -0.6280 -2.8029
 3211TIP3    H231197   0.208   5.955   7.642  1.4892 -0.7002  1.5512
 3212TIP3   OH231198   5.979   0.947   1.243 -0.1168  0.4824 -0.0294
 3212TIP3    H131199   5.994   0.853   1.258  1.7104  0.6531 -0.5876
 3212TIP3    H231200   6.010   0.989   1.324  0.6582  0.7088 -0.4360
 3213TIP3   OH231201   4.499   5.709   6.477 -0.0886  1.0264 -0.2437
 3213TIP3    H131202   4.545   5.765   6.539 -0.2168  0.5969  0.2377
 3213TIP3    H231203   4.481   5.628   6.525 -0.6710  0.8968 -0.6661
 3214TIP3   OH231204   3.758   3.756   6.078  0.4317  0.0322  0.1311
 3214TIP3    H131205   3.798   3.774   6.163 -0.5267  2.3248  0.1866
 3214TIP3    H231206   3.828   3.771   6.014  0.6250  0.3801  0.4188
 3215TIP3   OH231207   3.927   0.068   0.499 -0.2947 -0.1178  0.2471
 3215TIP3    H131208   3.953  -0.022   0.479  1.4436  0.5598 -0.8549
 3215TIP3    H231209   3.860   0.090   0.434 -0.0239 -0.3154 -0.0987
 3216TIP3   OH231210   2.590   6.115   7.279  0.3846 -0.5095 -0.0696
 3216TIP3    H131211   2.568   6.205   7.257  1.2159 -0.3184 -0.1455
 3216TIP3    H231212   2.609   6.073   7.195  3.5708  0.2262  0.1493
 3217TIP3   OH231213   3.111   0.838   8.286 -0.5073  0.4079 -0.1821
 3217TIP3    H131214   3.103   0.866   8.195  0.2248 -1.7649 -0.9702
 3217TIP3    H231215   3.206   0.834   8.301 -0.6227  0.1054  0.4654
 3218TIP3   OH231216   5.789   4.402   8.311 -0.6267 -0.6886  1.0232
 3218TIP3    H131217   5.784   4.310   8.286 -0.0794 -0.6345  0.7132
 3218TIP3    H231218   5.882   4.420   8.321 -0.3596  0.8017 -2.5830
 3219TIP3   OH231219   3.772   3.900   7.209 -0.6561  0.1118  0.3823
 3219TIP3    H131220   3.797   3.848   7.286 -0.2931 -1.8169 -0.9585
 3219TIP3    H231221   3.677   3.893   7.205 -0.5320 -1.4137 -0.3934
 3220TIP3   OH231222   5.730   5.636   7.802  0.4703 -0.1508 -0.1451
 3220TIP3    H131223   5.726   5.548   7.766 -0.1868 -1.0190  1.9389
 3220TIP3    H231224   5.813   5.639   7.849  0.5229  0.3824 -0.2621
 3221TIP3   OH231225   1.140   4.166   1.942 -0.7259 -0.3400  0.4005
 3221TIP3    H131226   1.061   4.136   1.987 -1.0952  0.8829  0.6037
 3221TIP3    H231227   1.172   4.239   1.996  1.1243 -1.4451  0.8876
 3222TIP3   OH231228   1.140   4.231   0.737 -0.0557 -0.5440 -0.1285
 3222TIP3    H131229   1.120   4.170   0.667  0.7605 -2.3803  1.1699
 3222TIP3    H231230   1.130   4.180   0.817  0.6098  1.0435  1.0147
 3223TIP3   OH231231   2.468   6.523   1.509  0.4620 -0.6988 -0.0785
 3223TIP3    H131232   2.420   6.606   1.505  1.9402  0.1722 -2.8321
 3223TIP3    H231233   2.434   6.479   1.587 -3.2945  0.6923 -0.7002
 3224TIP3   OH231234   2.500   5.873   0.205  0.3151 -0.3212  0.1467
 3224TIP3    H131235   2.544   5.831   0.131 -1.4492 -0.5355 -0.8436
 3224TIP3    H231236   2.571   5.896   0.265  1.8723  0.2744 -1.7968
 3225TIP3   OH231237   2.677   2.087   8.259 -0.7804  0.0827  0.2164
 3225TIP3    H131238   2.768   2.113   8.244 -0.5653 -1.7028 -2.0704
 3225TIP3    H231239   2.680   2.037   8.341  0.1396  0.6587  0.5508
 3226TIP3   OH231240   1.750   2.193   1.205  0.1199 -0.0407  0.1839
 3226TIP3    H131241   1.658   2.202   1.231 -0.2163 -1.3372 -0.4608
 3226TIP3    H231242   1.799   2.215   1.285 -0.8036 -0.9490  1.0375
 3227TIP3   OH231243   2.646   4.434   1.744 -0.0132  0.0254 -0.0963
 3227TIP3    H131244   2.665   4.450   1.836 -1.4035 -0.9119  0.3966
 3227TIP3    H231245   2.673   4.514   1.699 -1.1031  1.2876  1.3877
 3228TIP3   OH231246   1.540   6.697   0.943  0.0650  0.1241  0.4943
 3228TIP3    H131247   1.455   6.698   0.988  0.2539 -0.6805  0.8778
 3228TIP3    H231248   1.586   6.622   0.980  1.3700  1.1637  1.0650
 3229TIP3   OH231249   2.062   0.878   8.540 -0.2942 -0.4784 -0.2383
 3229TIP3    H131250   2.067   0.875   8.636 -0.2892  0.0211 -0.2204
 3229TIP3    H231251   2.032   0.966   8.520  0.1199 -0.4429 -0.7185
 3230TIP3   OH231252   4.131   1.847   6.927  0.9196  0.6256  0.1043
 3230TIP3    H131253   4.074   1.840   7.004  1.8765 -1.1338  0.7151
 3230TIP3    H231254   4.072   1.870   6.855 -0.5933 -1.0757  0.7237
 3231TIP3   OH231255   3.571   2.469   7.260  0.1053 -0.7254  0.0134
 3231TIP3    H131256   3.481   2.477   7.228  0.5233  0.4393 -0.9420
 3231TIP3    H231257   3.572   2.521   7.341  0.0837 -0.2067 -0.3204
 3232TIP3   OH231258   4.399   5.341   7.874  0.3584 -0.1651 -0.0141
 3232TIP3    H131259   4.452   5.329   7.954  0.7034  0.0344 -0.2097
 3232TIP3    H231260   4.413   5.261   7.824  0.8807  0.0976 -0.2961
 3233TIP3   OH231261   0.733   6.115   7.095 -1.0934  0.6112  0.2302
 3233TIP3    H131262   0.812   6.168   7.098 -1.1486  0.6444  1.6053
 3233TIP3    H231263   0.762   6.027   7.118 -1.1673  0.2178 -1.0770
 3234TIP3   OH231264   0.013   2.284   7.229  0.2164 -0.2636  0.0918
 3234TIP3    H131265  -0.047   2.353   7.201  1.2656  0.6708  0.0958
 3234TIP3    H231266   0.092   2.299   7.178  0.5140 -1.3919  0.1986
 3235TIP3   OH231267   6.698   3.127   7.039 -0.2180  0.1500 -0.1734
 3235TIP3    H131268   6.748   3.200   7.001 -0.9488  0.9047  0.3051
 3235TIP3    H231269   6.611   3.134   6.999 -0.0849 -0.9222 -0.6968
 3236TIP3   OH231270   6.052   3.324   7.300 -0.2655 -0.2822  0.4416
 3236TIP3    H131271   6.017   3.383   7.233  0.0264 -0.3167  0.2578
 3236TIP3    H231272   5.995   3.247   7.297 -1.5193  0.5608  1.6461
 3237TIP3   OH231273   5.886   3.119   1.282  0.1536 -0.1210 -0.2195
 3237TIP3    H131274   5.796   3.131   1.312  0.2098 -0.6337  0.1693
 3237TIP3    H231275   5.926   3.062   1.347 -0.1087 -2.3665 -1.8765
 3238TIP3   OH231276   1.600   2.608   0.092  0.1094  0.4573 -0.2465
 3238TIP3    H131277   1.619   2.516   0.112  0.6513  0.6031 -0.0500
 3238TIP3    H231278   1.507   2.610   0.070  0.1316 -0.1650 -0.4136
 3239TIP3   OH231279   2.916   1.268   1.271 -0.1008 -0.4440 -0.4637
 3239TIP3    H131280   2.839   1.238   1.222 -0.3101 -0.6549 -0.0055
 3239TIP3    H231281   2.926   1.360   1.245 -1.8702  0.2814  1.1822
 3240TIP3   OH231282   2.757   3.371   7.699  0.1169  0.1875  0.0267
 3240TIP3    H131283   2.729   3.401   7.785 -0.6956  0.9041 -0.4766
 3240TIP3    H231284   2.688   3.399   7.639  1.1671  0.6340 -1.0261
 3241TIP3   OH231285   4.187   3.487   0.661  0.3577  0.4398 -0.1415
 3241TIP3    H131286   4.161   3.562   0.607 -0.3737  0.9609  0.8973
 3241TIP3    H231287   4.233   3.526   0.735  1.2571 -0.2608 -0.3243
 3242TIP3   OH231288   6.154   0.233   1.950 -0.2929  0.0589 -0.1450
 3242TIP3    H131289   6.150   0.145   1.987 -1.7681 -0.3229 -1.1176
 3242TIP3    H231290   6.106   0.288   2.011 -0.2514 -0.0017 -0.0581
 3243TIP3   OH231291   1.895   3.763   7.496 -0.1147 -0.0142 -0.1638
 3243TIP3    H131292   1.804   3.789   7.505 -0.4588 -1.2920  0.3303
 3243TIP3    H231293   1.944   3.827   7.549 -1.0374 -1.0253  2.0562
 3244TIP3   OH231294   4.058   5.622   8.136 -0.3489  0.3505  0.1971
 3244TIP3    H131295   4.137   5.627   8.083 -0.2328  0.6173  0.3869
 3244TIP3    H231296   4.028   5.713   8.142  0.2643  0.4976  1.5083
 3245TIP3   OH231297   1.612   1.317   0.959 -0.5136  0.7425 -0.4507
 3245TIP3    H131298   1.672   1.364   1.018  1.9881 -2.3132 -0.3242
 3245TIP3    H231299   1.652   1.326   0.873 -0.4611 -0.3493 -0.5529
 3246TIP3   OH231300   6.455   4.867   0.694  0.6126  0.4705  0.5089
 3246TIP3    H131301   6.370   4.911   0.699 -0.1016 -0.5096 -1.6572
 3246TIP3    H231302   6.517   4.937   0.673  0.1260  0.9784  0.7249
 3247TIP3   OH231303   0.064   5.539   6.939  0.1690  0.2411  0.1545
 3247TIP3    H131304  -0.006   5.530   7.003  2.4618 -0.8722  2.6778
 3247TIP3    H231305   0.052   5.628   6.904 -1.7614  0.5151  1.3445
 3248TIP3   OH231306   6.446   5.279   8.102 -0.0091  0.1600  0.3106
 3248TIP3    H131307   6.534   5.310   8.120 -0.2520  1.4329 -0.6188
 3248TIP3    H231308   6.395   5.357   8.082 -1.2128 -0.6068  0.2069
 3249TIP3   OH231309   2.788   3.091   7.261 -0.0046  0.0741 -0.5078
 3249TIP3    H131310   2.702   3.098   7.304 -0.0201  0.2210 -0.5622
 3249TIP3    H231311   2.793   3.168   7.205 -0.0859 -0.2394 -0.9547
 3250TIP3   OH231312   0.859   4.385   8.540  0.2305  0.2253  0.0995
 3250TIP3    H131313   0.797   4.315   8.558 -1.1558  0.9635 -1.5775
 3250TIP3    H231314   0.939   4.339   8.514 -0.6347 -0.7667 -0.9268
 3251TIP3   OH231315   0.433   5.154   0.876 -0.5061  0.2390  0.5077
 3251TIP3    H131316   0.485   5.074   0.864  0.6312  0.9053  0.9207
 3251TIP3    H231317   0.408   5.152   0.969  0.1733  0.7479  0.7037
 3252TIP3   OH231318   0.826   1.961   7.617 -0.3838 -0.0029  0.0061
 3252TIP3    H131319   0.836   1.935   7.709  0.0460  1.1198  0.2910
 3252TIP3    H231320   0.746   1.917   7.589 -0.4248 -0.5082  0.8556
 3253TIP3   OH231321   4.381   1.737   1.374  0.0079 -0.0931 -0.1491
 3253TIP3    H131322   4.434   1.673   1.422 -0.4195  1.0181  1.9154
 3253TIP3    H231323   4.338   1.686   1.306  1.7643 -1.4862 -0.2875
 3254TIP3   OH231324   5.985   1.414   6.543 -0.7088  0.4797 -0.0718
 3254TIP3    H131325   5.896   1.446   6.532 -1.1933 -0.5753  0.6731
 3254TIP3    H231326   6.001   1.359   6.466  0.6391  3.4309 -2.1394
 3255TIP3   OH231327   2.096   3.748   7.042  0.3159  0.7168 -0.0717
 3255TIP3    H131328   2.047   3.699   6.976  0.6344 -1.7129  1.4039
 3255TIP3    H231329   2.030   3.779   7.104  0.2097  1.4381 -0.5319
 3256TIP3   OH231330   5.536   0.352   7.016  0.8505  0.1104 -0.0364
 3256TIP3    H131331   5.590   0.382   6.944  1.6595 -0.4917  0.3083
 3256TIP3    H231332   5.568   0.265   7.036 -0.8506 -0.6546 -0.4166
 3257TIP3   OH231333   3.443   2.816   7.544 -0.0682  0.3136  0.3233
 3257TIP3    H131334   3.364   2.810   7.491 -0.2506  0.1893  0.6012
 3257TIP3    H231335   3.470   2.908   7.539 -1.2921  0.7866  1.7176
 3258TIP3   OH231336   6.552   2.184   1.523 -0.2866  0.6646  0.2141
 3258TIP3    H131337   6.598   2.267   1.529  0.4710  0.3296 -0.7851
 3258TIP3    H231338   6.581   2.135   1.601 -1.2101  1.5400  1.1386
 3259TIP3   OH231339   4.798   4.830   6.813 -0.2098  0.0588  0.1006
 3259TIP3    H131340   4.809   4.925   6.819  0.8942 -0.1536  2.7060
 3259TIP3    H231341   4.867   4.803   6.752  2.8830  0.5710  3.0302
 3260TIP3   OH231342   2.751   2.277   0.462 -0.2490 -0.1025  0.4957
 3260TIP3    H131343   2.685   2.256   0.396 -0.1287  0.0701  0.3191
 3260TIP3    H231344   2.830   2.234   0.431  0.4866  2.0171 -0.8211
 3261TIP3   OH231345   4.879   3.113   2.224 -0.1733 -0.2460 -0.4548
 3261TIP3    H131346   4.970   3.119   2.255  0.5233 -0.6841 -2.2468
 3261TIP3    H231347   4.844   3.035   2.268  0.2159  0.0945  0.4829
 3262TIP3   OH231348   3.016   5.947   0.346 -0.1645 -0.5410  0.2815
 3262TIP3    H131349   3.050   6.033   0.367  0.8674 -0.5059 -1.3466
 3262TIP3    H231350   3.080   5.886   0.382  0.3559 -0.5433 -0.6207
 3263TIP3   OH231351   5.145   6.236   6.998  0.3138  0.2868 -0.0099
 3263TIP3    H131352   5.076   6.206   7.056 -0.0205  1.5192  0.2567
 3263TIP3    H231353   5.160   6.163   6.938 -0.6566 -0.2882  0.4319
 3264TIP3   OH231354   0.759   4.101   2.254  0.1259 -0.0170  0.1154
 3264TIP3    H131355   0.676   4.131   2.290  0.5268  0.5082  0.6374
 3264TIP3    H231356   0.755   4.005   2.258  0.3518  0.0264  2.0455
 3265TIP3   OH231357   5.777   1.665   1.966 -0.1052 -0.1839 -0.4280
 3265TIP3    H131358   5.814   1.662   2.054  0.1359 -1.3733 -0.5565
 3265TIP3    H231359   5.683   1.676   1.981 -0.0034  0.1682 -0.0328
 3266TIP3   OH231360   2.085   2.311   0.424  0.8565  0.2352 -0.7232
 3266TIP3    H131361   2.178   2.289   0.430  0.6528 -0.4854  0.1076
 3266TIP3    H231362   2.044   2.230   0.393  0.4545  0.4237 -0.6885
 3267TIP3   OH231363   1.551   5.253   1.600  0.6299  0.2342  0.0750
 3267TIP3    H131364   1.456   5.260   1.587  0.7383 -0.5649 -1.4667
 3267TIP3    H231365   1.586   5.334   1.562  0.6482 -0.2025 -0.8848
 3268TIP3   OH231366   0.122   3.321   7.861  0.8752 -0.2273 -0.5844
 3268TIP3    H131367   0.096   3.361   7.944 -1.6318  0.3808 -1.5598
 3268TIP3    H231368   0.191   3.259   7.884  2.6806  2.3398  1.4258
 3269TIP3   OH231369   2.973   4.402   1.959 -0.1199  0.5798  0.3154
 3269TIP3    H131370   2.905   4.351   2.004  0.7907  0.4290  1.5808
 3269TIP3    H231371   2.957   4.492   1.986  0.4186  0.4910  0.9625
 3270TIP3   OH231372   4.492   1.090   0.304  0.4033  0.1828  0.0615
 3270TIP3    H131373   4.473   1.110   0.396 -0.7004 -0.6363  0.0372
 3270TIP3    H231374   4.406   1.083   0.263  0.8653 -0.2830 -0.8522
 3271TIP3   OH231375   5.187   1.535   8.220  0.1252 -0.1062 -0.3484
 3271TIP3    H131376   5.239   1.485   8.282 -0.3042  0.4796  0.4989
 3271TIP3    H231377   5.127   1.586   8.274  1.6823  2.6691 -1.0429
 3272TIP3   OH231378   3.537   3.793   1.434 -0.4437 -0.0583 -0.2106
 3272TIP3    H131379   3.442   3.796   1.440 -0.5264 -1.1021 -0.7809
 3272TIP3    H231380   3.556   3.714   1.382  0.7406 -0.1210  0.2764
 3273TIP3   OH231381   4.708   6.182   8.724  0.2521 -0.3424 -0.6895
 3273TIP3    H131382   4.693   6.276   8.708 -1.7108 -0.3394  0.7939
 3273TIP3    H231383   4.775   6.158   8.660  0.3694  1.9228 -1.5390
 3274TIP3   OH231384   2.481   5.923   7.648  0.5239 -0.6583  0.1901
 3274TIP3    H131385   2.566   5.929   7.692  1.1920 -1.0517 -1.0035
 3274TIP3    H231386   2.454   6.014   7.635  0.4362 -0.5401  1.1753
 3275TIP3   OH231387   1.202   3.574   7.058 -0.5646  0.0805 -0.1586
 3275TIP3    H131388   1.150   3.634   7.005 -1.0152 -0.2243 -0.0654
 3275TIP3    H231389   1.289   3.615   7.062 -1.4902  2.0327  1.9910
 3276TIP3   OH231390   2.002   5.562   1.484  0.9095 -0.1661  0.9694
 3276TIP3    H131391   1.967   5.601   1.404  0.9732 -2.8128 -0.4460
 3276TIP3    H231392   2.093   5.593   1.488  1.2935 -0.9928 -0.7192
 3277TIP3   OH231393   4.592   2.560   0.624  0.7238  1.0832  0.3619
 3277TIP3    H131394   4.521   2.601   0.574  0.2876  0.3422  0.3542
 3277TIP3    H231395   4.607   2.476   0.580  1.3009  1.0395  0.6339
 3278TIP3   OH231396   0.713   0.874   7.544 -0.1778  0.2419 -0.4249
 3278TIP3    H131397   0.621   0.852   7.529 -0.7682  0.2783  2.5768
 3278TIP3    H231398   0.760   0.793   7.526 -0.8220  0.0867 -1.5174
 3279TIP3   OH231399   1.489   5.397   0.751  0.1152 -0.1469 -0.1636
 3279TIP3    H131400   1.489   5.302   0.739  1.3194  0.0553 -2.3927
 3279TIP3    H231401   1.576   5.424   0.722 -0.2200  1.6595  0.3983
 3280TIP3   OH231402   0.659   0.300   1.993  0.0894  0.1327 -0.1798
 3280TIP3    H131403   0.631   0.209   1.996  1.1140 -0.1632  0.6068
 3280TIP3    H231404   0.738   0.304   2.046  0.4220  1.3566 -0.7111
 3281TIP3   OH231405   1.171   0.130   7.814  0.3399 -0.0135  0.1773
 3281TIP3    H131406   1.253   0.085   7.793  0.8288  0.4597  1.0361
 3281TIP3    H231407   1.124   0.135   7.731  0.7280 -1.1934 -0.1305
 3282TIP3   OH231408   5.376   4.386   1.814  0.7317  0.0218  0.0721
 3282TIP3    H131409   5.335   4.374   1.900 -0.2590 -1.5507 -0.5847
 3282TIP3    H231410   5.422   4.304   1.798  0.1809 -0.0454 -1.2664
 3283TIP3   OH231411   6.323   1.511   1.479  0.1743  0.2453  0.0331
 3283TIP3    H131412   6.262   1.444   1.510  0.6479  0.1942  0.8768
 3283TIP3    H231413   6.364   1.472   1.402  1.1256 -0.8318  1.0536
 3284TIP3   OH231414   3.582   3.049   7.255  0.2912  0.1621 -0.1001
 3284TIP3    H131415   3.532   2.984   7.206  0.0974  0.0863  0.1968
 3284TIP3    H231416   3.639   3.089   7.189  0.1429 -0.0429 -0.3584
 3285TIP3   OH231417   4.144   0.777   6.502 -0.2082  0.2427  0.3425
 3285TIP3    H131418   4.113   0.706   6.559 -1.5023  0.8138  0.3807
 3285TIP3    H231419   4.075   0.786   6.436  1.6103 -0.9557 -1.8682
 3286TIP3   OH231420   3.036   2.560   8.638 -0.0329 -0.6949  0.2115
 3286TIP3    H131421   3.100   2.571   8.568 -0.3031  2.0707  0.2867
 3286TIP3    H231422   3.089   2.557   8.718  0.1102  0.8632  0.2142
 3287TIP3   OH231423   6.199   1.660   6.671  0.5751 -0.1230 -0.7758
 3287TIP3    H131424   6.138   1.734   6.663  0.8209  0.0472 -1.0606
 3287TIP3    H231425   6.276   1.697   6.713 -0.3611 -0.8118  1.7439
 3288TIP3   OH231426   4.603   0.160   8.782  0.3917 -0.3885  0.3106
 3288TIP3    H131427   4.665   0.110   8.730  0.5382  0.7815 -0.6917
 3288TIP3    H231428   4.533   0.183   8.721 -0.4993 -0.7755  1.1614
 3289TIP3   OH231429   5.868   2.484   7.569  0.1951 -0.2914 -0.1199
 3289TIP3    H131430   5.795   2.423   7.556 -0.2455 -0.1653  1.5431
 3289TIP3    H231431   5.831   2.570   7.549 -0.0708 -0.2528  0.5050
 3290TIP3   OH231432   1.891   6.710   0.469 -0.0957  0.0758  0.2559
 3290TIP3    H131433   1.806   6.692   0.510 -0.7074 -0.0152 -1.0146
 3290TIP3    H231434   1.911   6.800   0.492 -0.4278  0.0329  0.7303
 3291TIP3   OH231435   0.635   1.714   1.836 -0.0281 -0.0623 -0.2935
 3291TIP3    H131436   0.728   1.709   1.817 -0.2148  0.4838 -1.4337
 3291TIP3    H231437   0.598   1.635   1.795 -0.5403  1.4932 -3.0764
 3292TIP3   OH231438   1.671   3.715   1.430  0.9093  0.2902  0.5641
 3292TIP3    H131439   1.611   3.664   1.485  0.2711 -1.4051 -1.5454
 3292TIP3    H231440   1.675   3.801   1.472 -1.0443 -0.2972  2.1403
 3293TIP3   OH231441   1.148   0.713   0.430  0.7684 -0.0930  0.1073
 3293TIP3    H131442   1.137   0.798   0.473  2.2313  0.1998 -0.0588
 3293TIP3    H231443   1.216   0.669   0.481 -0.0882 -1.2487  0.2911
 3294TIP3   OH231444   2.296   6.733   7.358  0.0968 -0.0938  0.0988
 3294TIP3    H131445   2.213   6.687   7.352  0.4757 -0.8390  0.3762
 3294TIP3    H231446   2.355   6.670   7.400  0.9900  0.1584 -0.7461
 3295TIP3   OH231447   1.632   1.877   1.851  0.2534  0.1331  0.4541
 3295TIP3    H131448   1.678   1.957   1.824 -0.7221  0.7527  0.5891
 3295TIP3    H231449   1.591   1.899   1.934  1.5641 -1.1351  1.4866
 3296TIP3   OH231450   5.214   6.068   8.113  0.1590 -0.3051  0.0578
 3296TIP3    H131451   5.270   6.087   8.038 -0.6754  1.1645 -0.2385
 3296TIP3    H231452   5.231   6.140   8.174 -1.3052  0.1341 -0.0084
 3297TIP3   OH231453   6.220   5.728   8.485  0.7809 -0.0785  0.2389
 3297TIP3    H131454   6.174   5.807   8.514  0.5925 -0.2507  0.4099
 3297TIP3    H231455   6.312   5.747   8.501  0.7357  0.1026  0.2900
 3298TIP3   OH231456   4.317   5.955   0.561  0.3744 -0.2209  0.0521
 3298TIP3    H131457   4.376   5.971   0.487 -0.6038  2.7661 -0.2482
 3298TIP3    H231458   4.356   5.882   0.608  1.9649 -1.1128 -2.4550
 3299TIP3   OH231459   0.274   0.483   7.975  0.6564 -0.2862  0.2304
 3299TIP3    H131460   0.353   0.504   7.924  0.6088 -1.6845 -0.4780
 3299TIP3    H231461   0.221   0.432   7.914  0.7707 -2.3761  1.8010
 3300TIP3   OH231462   4.443   1.907   0.984  0.3360 -0.1394  0.0650
 3300TIP3    H131463   4.457   1.927   1.077  1.9147 -1.1016  0.0661
 3300TIP3    H231464   4.498   1.971   0.938  1.6339 -1.3037 -0.0817
 3301TIP3   OH231465   0.890   4.390   1.138  0.8818  1.2014  0.2393
 3301TIP3    H131466   0.866   4.445   1.212  0.6049  0.9664  0.3242
 3301TIP3    H231467   0.820   4.403   1.074  1.0981  1.3701  0.0327
 3302TIP3   OH231468   3.851   2.090   8.681  0.2511 -0.2323 -0.3557
 3302TIP3    H131469   3.852   1.998   8.704 -3.0002 -0.2491  0.2798
 3302TIP3    H231470   3.857   2.136   8.764 -2.2927 -0.0843 -0.1480
 3303TIP3   OH231471   6.315   3.553   7.223 -0.2762 -0.0137 -0.3839
 3303TIP3    H131472   6.340   3.627   7.167  2.1137  1.3981  2.2713
 3303TIP3    H231473   6.388   3.491   7.215  0.3577  0.4456  1.4366
 3304TIP3   OH231474   2.190   3.291   0.143 -0.1729  0.0987  0.0875
 3304TIP3    H131475   2.140   3.368   0.116  1.3654  0.3405 -2.4166
 3304TIP3    H231476   2.274   3.326   0.174 -0.4215 -0.4498  1.4282
 3305TIP3   OH231477   1.410   6.476   8.036  0.5291  0.1757  0.2189
 3305TIP3    H131478   1.474   6.497   7.968  2.0869  0.2950  1.6662
 3305TIP3    H231479   1.449   6.403   8.084 -1.6834 -1.6273 -0.5062
 3306TIP3   OH231480   0.863   2.095   1.111 -0.2388  0.7203  0.2079
 3306TIP3    H131481   0.938   2.039   1.088 -1.4168 -0.8289 -0.0361
 3306TIP3    H231482   0.792   2.034   1.129 -1.7973  2.1545 -0.7344
 3307TIP3   OH231483   1.890   3.763   8.632 -0.2049  0.0240  0.0939
 3307TIP3    H131484   1.971   3.765   8.582  0.4826 -1.9317  1.0235
 3307TIP3    H231485   1.918   3.766   8.724 -1.2985  1.2088  0.4172
 3308TIP3   OH231486   0.663   1.028   0.968 -0.3685 -0.1217 -0.0184
 3308TIP3    H131487   0.665   0.949   1.020 -2.6960 -0.5102 -0.4052
 3308TIP3    H231488   0.570   1.049   0.959  0.1601  3.2823  0.9881
 3309TIP3   OH231489   6.731   0.898   7.703 -0.0917  0.3070 -0.2788
 3309TIP3    H131490   6.721   0.972   7.643  0.5733  0.9933  0.4320
 3309TIP3    H231491   6.803   0.847   7.665 -0.4912  0.0634 -0.7214
 3310TIP3   OH231492   1.714   3.502   6.669  0.3159 -0.0071  0.5703
 3310TIP3    H131493   1.794   3.455   6.643 -0.1796  0.1628 -1.4144
 3310TIP3    H231494   1.717   3.584   6.621 -0.5253  0.5090  1.3605
 3311TIP3   OH231495   3.957   4.173   8.004  0.2703  0.0258 -0.4183
 3311TIP3    H131496   3.919   4.148   7.920  1.1751 -1.2118 -0.4824
 3311TIP3    H231497   3.986   4.090   8.043  1.8751  0.8084  0.1286
 3312TIP3   OH231498   5.797   5.739   8.216  0.3417 -0.3849  0.2555
 3312TIP3    H131499   5.749   5.673   8.264  0.5281  0.8285  2.2200
 3312TIP3    H231500   5.739   5.816   8.216  0.9651  0.1008 -0.1427
 3313TIP3   OH231501   0.112   3.663   0.027 -0.0052  0.2474 -0.2260
 3313TIP3    H131502   0.062   3.651   0.108 -1.9202  0.6169 -1.3185
 3313TIP3    H231503   0.157   3.579   0.015  0.0900  0.0854  1.0466
 3314TIP3   OH231504   3.373   0.205   6.433 -0.3829 -0.3601 -0.1106
 3314TIP3    H131505   3.283   0.176   6.446 -0.1761 -0.7900  0.3971
 3314TIP3    H231506   3.393   0.258   6.510  0.2396 -1.3932  0.4679
 3315TIP3   OH231507   4.943   4.466   2.209 -0.1766  0.5580 -0.0089
 3315TIP3    H131508   4.966   4.408   2.282  0.1411 -0.9538 -1.2570
 3315TIP3    H231509   5.026   4.507   2.185  0.2370 -0.8660 -1.1091
 3316TIP3   OH231510   1.489   3.375   6.502 -0.2669 -0.5356 -0.1225
 3316TIP3    H131511   1.440   3.301   6.466 -2.0369  0.0897  0.8787
 3316TIP3    H231512   1.579   3.358   6.476 -0.9665 -1.7972 -1.9457
 3317TIP3   OH231513   0.990   5.605   2.187  0.2794  0.2338  0.0174
 3317TIP3    H131514   0.966   5.621   2.278  1.3874  1.0899  0.1962
 3317TIP3    H231515   1.086   5.598   2.189  0.2859 -0.1106 -1.0310
 3318TIP3   OH231516   4.198   0.577   0.881  0.4769 -0.0347  0.5608
 3318TIP3    H131517   4.118   0.624   0.859  0.2017 -0.1761  1.2318
 3318TIP3    H231518   4.222   0.609   0.968  1.7549  0.8124 -0.0651
 3319TIP3   OH231519   4.567   5.992   7.301 -0.5568  0.0115 -0.1435
 3319TIP3    H131520   4.604   5.961   7.218  0.1004  0.8320 -0.1712
 3319TIP3    H231521   4.591   6.084   7.304 -0.9563  0.0876  0.7610
 3320TIP3   OH231522   0.904   2.634   6.597  0.8669  0.7839  0.2898
 3320TIP3    H131523   0.853   2.705   6.558  0.1099  1.7520  2.7946
 3320TIP3    H231524   0.989   2.638   6.553 -0.9052 -0.5357 -3.6155
 3321TIP3   OH231525   2.929   0.920   0.515 -0.0389  0.2378 -0.0324
 3321TIP3    H131526   3.003   0.907   0.574 -0.0268  1.9035  0.3738
 3321TIP3    H231527   2.964   0.903   0.427  0.2043 -1.2252  0.3132
 3322TIP3   OH231528   0.442   6.679   7.218 -0.7285 -0.4392  0.0988
 3322TIP3    H131529   0.383   6.698   7.291 -2.1554 -0.9976 -0.8486
 3322TIP3    H231530   0.421   6.746   7.153  1.7305  1.1135  0.7984
 3323TIP3   OH231531   1.852   1.525   6.307 -0.6678  0.2407  0.2526
 3323TIP3    H131532   1.862   1.620   6.301 -0.6976  0.2969  0.9979
 3323TIP3    H231533   1.890   1.502   6.391 -1.0433 -0.3587  0.2645
 3324TIP3   OH231534   2.896   3.512   8.226  0.3286 -0.8341  0.1760
 3324TIP3    H131535   2.866   3.455   8.155  1.6615 -2.1949  0.6512
 3324TIP3    H231536   2.846   3.482   8.302 -0.4469  0.0255  0.0223
 3325TIP3   OH231537   1.336   4.865   7.436 -0.3381 -0.1159  0.2226
 3325TIP3    H131538   1.270   4.906   7.492 -0.4267  0.6688 -0.4328
 3325TIP3    H231539   1.418   4.910   7.460 -0.5225  0.8569 -0.8603
 3326TIP3   OH231540   5.039   5.764   2.724  0.0033 -0.2542 -0.1859
 3326TIP3    H131541   5.043   5.832   2.657 -2.3122  0.6919  0.5324
 3326TIP3    H231542   5.124   5.720   2.718  1.5231  2.5082 -0.8587
 3327TIP3   OH231543   1.416   5.530   0.958  0.0051 -0.1702 -0.6451
 3327TIP3    H131544   1.442   5.482   0.880  2.1208  0.1799 -0.1998
 3327TIP3    H231545   1.489   5.590   0.976 -1.8806  2.2189 -0.3584
 3328TIP3   OH231546   6.154   0.140   7.879  0.4199  0.0639 -0.6055
 3328TIP3    H131547   6.101   0.203   7.830  0.2502  0.5730  0.2093
 3328TIP3    H231548   6.124   0.149   7.969  0.6211 -0.9642 -0.4251
 3329TIP3   OH231549   0.970   5.951   2.006  0.0135  0.0083 -0.0974
 3329TIP3    H131550   0.956   5.979   1.916 -0.5597 -1.8039 -0.6180
 3329TIP3    H231551   0.914   6.008   2.058  0.1266  0.8841 -0.8999
 3330TIP3   OH231552   0.934   2.537   1.103 -0.4922  0.1936 -0.7850
 3330TIP3    H131553   0.948   2.478   1.029 -2.4629  0.2428 -1.2471
 3330TIP3    H231554   1.017   2.583   1.113  0.2040 -0.7041 -2.1589
 3331TIP3   OH231555   2.631   2.421   6.624 -0.0098  0.0497  0.5895
 3331TIP3    H131556   2.641   2.399   6.531  0.3377 -0.7665  0.8076
 3331TIP3    H231557   2.714   2.392   6.664 -0.5575 -0.5480  1.3200
 3332TIP3   OH231558   2.602   3.362   6.715 -0.0474  0.5619 -0.3347
 3332TIP3    H131559   2.539   3.340   6.785  0.4258  0.5807  0.0997
 3332TIP3    H231560   2.604   3.457   6.715  0.3003  0.5573 -0.0553
 3333TIP3   OH231561   3.424   5.851   8.221 -0.4064  0.5207  0.1115
 3333TIP3    H131562   3.378   5.923   8.264 -0.5805  0.6795 -0.3337
 3333TIP3    H231563   3.362   5.779   8.219 -0.4419  0.5539  0.0147
 3334TIP3   OH231564   3.548   0.793   2.316 -0.2850 -0.1572 -0.3600
 3334TIP3    H131565   3.475   0.743   2.279  0.4734 -1.4008 -0.2003
 3334TIP3    H231566   3.554   0.764   2.407  1.0320 -0.8165 -0.6370
 3335TIP3   OH231567   6.115   1.510   1.975 -0.0426  0.3727 -0.1054
 3335TIP3    H131568   6.189   1.469   1.931 -0.2993  0.3298 -0.5127
 3335TIP3    H231569   6.039   1.457   1.949 -0.2333  0.4963  0.1931
 3336TIP3   OH231570   2.038   0.221   6.598 -0.5504  0.4293  0.2756
 3336TIP3    H131571   1.994   0.144   6.634 -0.8841  0.2663 -0.4519
 3336TIP3    H231572   1.968   0.273   6.559 -1.1491  3.7242  5.0276
 3337TIP3   OH231573   1.328   3.511   7.773 -0.5217  0.1020 -0.3549
 3337TIP3    H131574   1.328   3.607   7.770  0.5314  0.1310  0.4032
 3337TIP3    H231575   1.294   3.490   7.859  1.0332 -0.1603  0.2208
 3338TIP3   OH231576   0.334   3.705   1.230  0.1423  0.5124  0.1819
 3338TIP3    H131577   0.399   3.635   1.239 -1.3005 -0.8297  0.6590
 3338TIP3    H231578   0.320   3.736   1.320  1.2475  1.9201 -0.0928
 3339TIP3   OH231579   6.210   2.185   8.256 -0.4527 -0.0318  0.6656
 3339TIP3    H131580   6.145   2.208   8.189 -0.4937 -0.1466  0.6667
 3339TIP3    H231581   6.287   2.236   8.233 -0.6949  0.4632  0.9267
 3340TIP3   OH231582   2.694   2.409   7.920  0.2184  0.0556  0.2216
 3340TIP3    H131583   2.752   2.471   7.963  1.3180 -0.8757  0.1309
 3340TIP3    H231584   2.640   2.463   7.862  2.1057  0.8258 -0.9197
 3341TIP3   OH231585   5.917   0.669   1.258 -0.4597  0.6606 -0.6412
 3341TIP3    H131586   5.986   0.614   1.223  0.0629 -0.9352  2.4986
 3341TIP3    H231587   5.835   0.628   1.230 -0.0774 -1.5718  1.2301
 3342TIP3   OH231588   0.293   2.160   8.602  0.4702 -0.2472 -0.3597
 3342TIP3    H131589   0.324   2.095   8.664 -1.4710 -0.4845  0.4457
 3342TIP3    H231590   0.283   2.240   8.654  1.1129  0.2180 -0.9322
 3343TIP3   OH231591   0.100   5.391   8.344  0.0333  0.4221  0.0136
 3343TIP3    H131592   0.170   5.451   8.369 -1.1002  1.4291  0.9134
 3343TIP3    H231593   0.085   5.338   8.422 -0.8667  0.9060  0.1864
 3344TIP3   OH231594   5.279   1.570   2.417 -0.3240  1.0740 -0.1251
 3344TIP3    H131595   5.249   1.526   2.338 -0.3952  0.2565  0.3402
 3344TIP3    H231596   5.374   1.569   2.410 -0.2032 -1.1954  0.8992
 3345TIP3   OH231597   3.564   3.002   6.526 -0.2213  0.2711  0.1338
 3345TIP3    H131598   3.468   2.996   6.523 -0.2041  0.3553 -0.7672
 3345TIP3    H231599   3.592   2.921   6.568 -0.6606 -0.0480 -0.1808
 3346TIP3   OH231600   6.421   3.878   0.852  0.1232  0.2647  0.3369
 3346TIP3    H131601   6.494   3.877   0.914 -1.1730  1.3784  1.9726
 3346TIP3    H231602   6.440   3.952   0.794 -0.0011  0.9863  1.1890
 3347TIP3   OH231603   5.174   5.026   8.620 -0.2417 -0.5235  0.2861
 3347TIP3    H131604   5.265   5.040   8.596 -0.7150 -0.2088 -1.4799
 3347TIP3    H231605   5.158   5.089   8.690  0.6436  0.1210 -0.0700
 3348TIP3   OH231606   4.827   0.534   6.759 -0.5953 -0.0043  0.4821
 3348TIP3    H131607   4.886   0.607   6.741  0.1843 -0.5494  0.8080
 3348TIP3    H231608   4.767   0.533   6.684 -0.4567  0.8168  0.3591
 3349TIP3   OH231609   1.946   2.635   0.081  0.1138  0.6962 -0.4045
 3349TIP3    H131610   2.019   2.680   0.037  0.7465 -0.5069 -0.6309
 3349TIP3    H231611   1.889   2.607   0.011  0.9079 -0.8550 -0.4631
 3350TIP3   OH231612   4.692   0.916   1.435  0.2953 -0.2694  0.2693
 3350TIP3    H131613   4.647   0.859   1.497  0.9090 -1.0305  0.0310
 3350TIP3    H231614   4.650   0.898   1.351 -2.2055  2.4934  0.7420
 3351TIP3   OH231615   4.175   3.709   0.401 -0.0282 -0.7401  0.0371
 3351TIP3    H131616   4.184   3.793   0.356  1.5319 -0.1002  1.3977
 3351TIP3    H231617   4.090   3.713   0.445  0.9182  1.1262  1.8681
 3352TIP3   OH231618   6.779   4.842   8.091  0.7752  0.6908 -0.8692
 3352TIP3    H131619   6.729   4.910   8.136  1.0382 -0.0607  0.6406
 3352TIP3    H231620   6.837   4.807   8.158  1.4677 -0.2362 -1.9139
 3353TIP3   OH231621   0.469   2.758   1.935 -0.4077  0.1259  0.1135
 3353TIP3    H131622   0.406   2.759   2.007 -1.7045  0.7017 -0.9782
 3353TIP3    H231623   0.553   2.780   1.976 -1.3866  2.0654  1.2277
 3354TIP3   OH231624   4.570   5.078   7.586  0.0075  0.1419 -0.3625
 3354TIP3    H131625   4.493   5.051   7.636 -0.9025  0.4886 -1.5228
 3354TIP3    H231626   4.565   5.174   7.584  1.2802  0.2694  0.7520
 3355TIP3   OH231627   6.718   3.301   0.639 -0.1170  0.5510 -0.7910
 3355TIP3    H131628   6.747   3.373   0.584 -0.4082  0.6906 -0.7618
 3355TIP3    H231629   6.736   3.331   0.728  0.2362  0.3773 -0.8034
 3356TIP3   OH231630   4.285   4.851   8.591 -0.1878  0.4167 -0.0104
 3356TIP3    H131631   4.354   4.913   8.613 -0.8357  0.6689  1.4186
 3356TIP3    H231632   4.223   4.901   8.538 -0.3542  0.8076  0.5461
 3357TIP3   OH231633   5.068   1.424   0.335  0.3518 -0.0265  0.0379
 3357TIP3    H131634   5.140   1.409   0.274 -0.7674 -2.2538 -0.8646
 3357TIP3    H231635   5.009   1.483   0.288  0.9691  0.7865  0.2680
 3358TIP3   OH231636   2.449   6.687   0.146 -1.3342 -0.4532 -0.3704
 3358TIP3    H131637   2.460   6.603   0.102 -2.0026 -0.5121 -0.4399
 3358TIP3    H231638   2.384   6.670   0.214  1.6192 -1.0820  2.5678
 3359TIP3   OH231639   5.913   4.213   8.644 -0.0892 -0.0565 -0.6324
 3359TIP3    H131640   5.837   4.270   8.652  0.3353  0.3995  0.1961
 3359TIP3    H231641   5.988   4.272   8.646  0.3444 -0.6200 -0.0047
 3360TIP3   OH231642   2.142   2.022   1.708 -0.1328  0.1573 -0.3830
 3360TIP3    H131643   2.057   1.982   1.691 -0.3128  0.3615  0.0047
 3360TIP3    H231644   2.122   2.096   1.765  0.2487  0.5243 -0.7231
 3361TIP3   OH231645   6.131   0.414   0.173 -0.6511 -0.3012 -0.1113
 3361TIP3    H131646   6.215   0.451   0.197 -0.1530 -0.6973 -1.1598
 3361TIP3    H231647   6.113   0.449   0.085  0.5685 -3.5561 -1.8331
 3362TIP3   OH231648   3.803   5.878   0.798  0.2485 -0.0524 -0.3229
 3362TIP3    H131649   3.748   5.801   0.780 -0.8359  0.5361  0.3821
 3362TIP3    H231650   3.836   5.863   0.886 -0.4716  0.5821  0.0581
 3363TIP3   OH231651   1.855   5.698   8.709 -0.0370  0.3028  0.6233
 3363TIP3    H131652   1.822   5.731   8.625 -1.2945 -2.8129 -0.2849
 3363TIP3    H231653   1.943   5.667   8.689  1.3196  3.2664  1.5799
 3364TIP3   OH231654   2.140   4.844   8.120  0.3677 -0.7802  0.3007
 3364TIP3    H131655   2.162   4.928   8.080 -1.2587 -0.0561  0.8464
 3364TIP3    H231656   2.080   4.867   8.192  0.5299 -2.3385  0.9663
 3365TIP3   OH231657   0.113   4.878   6.601 -0.5353  0.1683  0.1282
 3365TIP3    H131658   0.141   4.791   6.629 -1.7978 -0.3345 -0.0838
 3365TIP3    H231659   0.137   4.881   6.508 -0.1835  0.1778  0.2184
 3366TIP3   OH231660   1.427   1.599   7.486 -0.1762  0.8412  0.3602
 3366TIP3    H131661   1.351   1.656   7.479 -1.6485 -1.2115 -2.9417
 3366TIP3    H231662   1.467   1.601   7.399  0.2772 -2.2487  0.3855
 3367TIP3   OH231663   5.990   0.279   0.373  0.6933  1.0621  0.0047
 3367TIP3    H131664   6.059   0.299   0.310  1.5758  1.2187  0.9845
 3367TIP3    H231665   6.037   0.248   0.450 -0.4137 -0.1406  0.2283
 3368TIP3   OH231666   3.587   1.470   0.336 -0.3522 -0.3820 -0.0434
 3368TIP3    H131667   3.516   1.465   0.273 -0.7734  1.6840  0.1954
 3368TIP3    H231668   3.665   1.446   0.287 -0.5853  1.6510 -1.5662
 3369TIP3   OH231669   4.561   0.280   1.487  0.1639  0.0749  0.4682
 3369TIP3    H131670   4.599   0.314   1.406 -1.2288 -1.9852 -1.1750
 3369TIP3    H231671   4.516   0.355   1.526 -1.1447  0.6649 -1.9607
 3370TIP3   OH231672   3.801   5.010   6.762 -0.4769  0.3616  0.4171
 3370TIP3    H131673   3.778   4.946   6.695 -0.5926  0.7967  0.0321
 3370TIP3    H231674   3.803   5.094   6.715 -1.7845  0.8543  1.2128
 3371TIP3   OH231675   5.329   5.049   8.190  0.5211 -0.1162 -0.4104
 3371TIP3    H131676   5.370   5.132   8.214 -1.3359  0.5561  0.6513
 3371TIP3    H231677   5.255   5.041   8.250  0.7443 -2.6415 -0.3725
 3372TIP3   OH231678   2.528   1.923   8.513 -0.4088  0.2301 -0.3778
 3372TIP3    H131679   2.490   1.845   8.473  1.2653 -0.9094  0.1175
 3372TIP3    H231680   2.613   1.893   8.548 -0.6860  1.7264  1.8148
 3373TIP3   OH231681   5.578   6.004   0.687  0.2603  0.2062 -0.4912
 3373TIP3    H131682   5.608   5.999   0.596  0.1460  0.0971 -0.5227
 3373TIP3    H231683   5.645   5.957   0.737  0.9871  1.3454 -0.3581
 3374TIP3   OH231684   5.049   6.365   0.124  0.0508 -0.1627  0.3799
 3374TIP3    H131685   5.013   6.417   0.052 -1.0536  0.7765  1.5670
 3374TIP3    H231686   4.974   6.318   0.159  0.2984  0.4118  1.7472
 3375TIP3   OH231687   2.304   1.598   1.216  0.4531 -0.0898  0.0772
 3375TIP3    H131688   2.294   1.665   1.284  0.8089  1.1861 -1.0757
 3375TIP3    H231689   2.361   1.639   1.150 -1.9839 -0.2103 -2.2919
 3376TIP3   OH231690   3.933   0.427   1.135  0.7955  0.5768  0.1147
 3376TIP3    H131691   3.986   0.402   1.212 -0.7758 -2.1003  0.4471
 3376TIP3    H231692   3.915   0.345   1.091  0.4573  1.9114 -2.3993
 3377TIP3   OH231693   4.490   3.528   7.635 -0.2449  0.3626 -0.5731
 3377TIP3    H131694   4.562   3.504   7.694  0.4111 -0.2582 -1.6047
 3377TIP3    H231695   4.465   3.445   7.594  0.2263  0.9817 -2.1662
 3378TIP3   OH231696   3.305   3.855   1.914  0.4660  0.5073  0.1197
 3378TIP3    H131697   3.245   3.815   1.977 -0.4315  0.7102 -0.5853
 3378TIP3    H231698   3.296   3.950   1.929  1.0474  0.5260  0.3925
 3379TIP3   OH231699   6.093   5.894   6.858  0.2411 -0.4597 -0.5986
 3379TIP3    H131700   6.149   5.965   6.890  0.5692 -0.9856  0.0132
 3379TIP3    H231701   6.100   5.901   6.762  0.5392  0.1174 -0.5452
 3380TIP3   OH231702   1.104   5.631   0.114  0.2527 -0.1497 -0.2073
 3380TIP3    H131703   1.127   5.715   0.155  2.4353 -1.5271  1.6530
 3380TIP3    H231704   1.041   5.592   0.175  1.0728 -0.8426  0.2202
 3381TIP3   OH231705   6.556   5.636   8.128 -0.8194 -0.6123 -0.4901
 3381TIP3    H131706   6.513   5.694   8.064 -0.0275 -0.6328 -1.0577
 3381TIP3    H231707   6.500   5.641   8.205 -0.5220  1.3310 -0.3313
 3382TIP3   OH231708   2.481   4.645   1.508 -0.3997  0.0822  0.2195
 3382TIP3    H131709   2.457   4.679   1.421 -0.1329 -0.2820 -0.0006
 3382TIP3    H231710   2.535   4.713   1.547  0.3390 -0.1862 -0.3164
 3383TIP3   OH231711   5.549   1.520   7.941 -0.3686 -0.1304 -0.2828
 3383TIP3    H131712   5.552   1.584   8.012 -1.4178 -0.8592  0.4536
 3383TIP3    H231713   5.566   1.436   7.984 -2.7043 -0.8029 -0.5580
 3384TIP3   OH231714   4.779   4.494   1.956  0.6784  0.3015  0.2760
 3384TIP3    H131715   4.832   4.467   2.031  1.7410  1.7469  0.0881
 3384TIP3    H231716   4.784   4.589   1.956 -0.4318  0.3907 -0.8483
 3385TIP3   OH231717   4.603   1.563   1.460  0.1264  0.5686  0.0099
 3385TIP3    H131718   4.674   1.566   1.397  0.2715  0.5941  0.1744
 3385TIP3    H231719   4.558   1.481   1.441 -0.0812  0.7717 -0.3960
 3386TIP3   OH231720   2.343   5.245   1.539 -0.0236  0.2464  0.2204
 3386TIP3    H131721   2.344   5.150   1.548 -2.9118  0.0611 -0.3984
 3386TIP3    H231722   2.344   5.260   1.444 -1.4219  0.6983  0.2494
 3387TIP3   OH231723   0.864   4.963   7.753 -0.2481  0.1341  0.6278
 3387TIP3    H131724   0.834   4.877   7.782  0.5779 -0.3279  0.1616
 3387TIP3    H231725   0.830   5.024   7.818 -0.0029 -0.6687  1.5310
 3388TIP3   OH231726   0.130   5.566   6.646  0.0016 -0.3435  0.0433
 3388TIP3    H131727   0.082   5.577   6.564 -2.8224 -1.6318  1.4137
 3388TIP3    H231728   0.111   5.646   6.696 -1.6270 -1.2707  0.9735
 3389TIP3   OH231729   2.120   1.698   7.175  0.5142 -0.4523  0.1317
 3389TIP3    H131730   2.074   1.778   7.199  1.6644 -0.1524  1.4858
 3389TIP3    H231731   2.199   1.699   7.229  2.0965 -0.9683 -2.0574
 3390TIP3   OH231732   4.315   2.506   6.926 -0.4216 -0.4925 -0.2689
 3390TIP3    H131733   4.305   2.591   6.883 -0.5181 -0.2458  0.2421
 3390TIP3    H231734   4.233   2.492   6.972 -0.1076 -0.5041  0.2907
 3391TIP3   OH231735   6.600   2.583   0.506  0.4428 -0.1298  0.4959
 3391TIP3    H131736   6.639   2.506   0.465  0.2254  0.5293 -1.0532
 3391TIP3    H231737   6.670   2.647   0.509  0.1862  0.1760  0.1584
 3392TIP3   OH231738   4.947   5.321   1.255  0.1348 -0.1978 -0.2676
 3392TIP3    H131739   4.951   5.271   1.337  0.6402 -1.5565 -1.0892
 3392TIP3    H231740   5.030   5.303   1.211 -0.4764 -0.1980 -1.4755
 3393TIP3   OH231741   4.107   4.671   8.143  0.0648 -0.0692 -0.0490
 3393TIP3    H131742   4.016   4.674   8.174  0.3603  0.4852  0.8025
 3393TIP3    H231743   4.100   4.667   8.048 -0.8466  1.0694 -0.0501
 3394TIP3   OH231744   5.054   2.624   0.381  0.8919 -0.2214  0.4308
 3394TIP3    H131745   4.971   2.669   0.397  1.7020  1.0769  1.0934
 3394TIP3    H231746   5.032   2.558   0.314 -0.6036  0.2620  0.3964
 3395TIP3   OH231747   2.231   1.995   7.271  0.5485  0.3864 -0.1409
 3395TIP3    H131748   2.141   1.966   7.260  1.1200 -2.9395  2.3131
 3395TIP3    H231749   2.276   1.967   7.191  0.1938 -1.9024  0.4043
 3396TIP3   OH231750   5.823   0.349   0.598 -0.7609 -0.2010 -0.0807
 3396TIP3    H131751   5.913   0.371   0.572 -1.0554  1.0192 -0.0859
 3396TIP3    H231752   5.833   0.273   0.655  0.2524 -0.2527 -0.3050
 3397TIP3   OH231753   3.940   0.961   7.667  0.0232 -0.7677 -0.0806
 3397TIP3    H131754   3.893   1.032   7.710  0.2244 -0.6007 -0.1371
 3397TIP3    H231755   4.006   1.005   7.613 -1.2847 -0.8718 -1.8634
 3398TIP3   OH231756   5.383   0.543   7.631  0.0167  0.5990  0.3595
 3398TIP3    H131757   5.360   0.480   7.563 -0.6397  1.1976  0.0189
 3398TIP3    H231758   5.306   0.547   7.688  0.8420 -0.4808  1.6127
 3399TIP3   OH231759   5.766   6.054   0.135  0.1498  0.1984  0.7665
 3399TIP3    H131760   5.815   6.135   0.148 -0.9943  0.9720  0.4523
 3399TIP3    H231761   5.705   6.074   0.065  0.7313 -1.3761 -0.2351
 3400TIP3   OH231762   1.656   5.105   1.395  0.0527 -0.0128 -0.0350
 3400TIP3    H131763   1.619   5.146   1.474  1.1760  0.9396  0.0200
 3400TIP3    H231764   1.664   5.012   1.418 -2.5486 -0.3543 -0.1693
 3401TIP3   OH231765   1.941   3.155   7.462 -0.2488  0.3916  0.2378
 3401TIP3    H131766   1.867   3.165   7.403 -0.9670 -1.9287  0.6362
 3401TIP3    H231767   1.908   3.186   7.547 -0.3392  0.5911  0.1289
 3402TIP3   OH231768   1.114   0.106   7.551 -0.0770  0.0185  0.4198
 3402TIP3    H131769   1.139   0.188   7.509  0.7203 -0.2653  0.3434
 3402TIP3    H231770   1.188   0.047   7.539 -0.1351 -0.3219  1.5392
 3403TIP3   OH231771   3.963   0.151   7.926 -0.0795  0.2709  1.0234
 3403TIP3    H131772   3.964   0.056   7.937  0.4637  0.1219 -0.2082
 3403TIP3    H231773   3.891   0.180   7.981 -0.4682 -0.8904  1.1573
 3404TIP3   OH231774   5.955   6.496   6.144 -0.4435  0.2049 -0.1380
 3404TIP3    H131775   5.889   6.562   6.167 -1.0572 -0.7378  0.8943
 3404TIP3    H231776   5.915   6.446   6.073  0.0761  0.9960 -1.0126
 3405TIP3   OH231777   1.765   1.233   6.315  0.4742 -0.3232  0.5156
 3405TIP3    H131778   1.839   1.173   6.319  0.3127 -0.4537  1.8653
 3405TIP3    H231779   1.804   1.319   6.302  0.8454 -0.4472  0.8009
 3406TIP3   OH231780   3.737   2.130   0.450 -0.2870  0.6162  0.3517
 3406TIP3    H131781   3.777   2.045   0.435 -0.4483  0.6856 -0.5200
 3406TIP3    H231782   3.783   2.166   0.526 -0.0331 -0.1236  0.5516
 3407TIP3   OH231783   1.886   0.632   7.204 -0.4600 -0.4669  0.0254
 3407TIP3    H131784   1.838   0.712   7.224 -2.3960 -1.5845  0.1350
 3407TIP3    H231785   1.922   0.647   7.117 -1.4672  0.2492 -0.2898
 3408TIP3   OH231786   5.910   2.367   8.234  0.6949  0.2091  0.4498
 3408TIP3    H131787   5.818   2.354   8.209  0.3129  0.9997  1.3630
 3408TIP3    H231788   5.912   2.456   8.270  1.5239 -0.3051  1.7339
 3409TIP3   OH231789   6.421   6.767   8.084 -0.4855 -0.1872 -0.1666
 3409TIP3    H131790   6.415   6.711   8.162  0.1187  0.6833  0.5194
 3409TIP3    H231791   6.332   6.767   8.048 -0.9231 -0.1002  0.8816
 3410TIP3   OH231792   5.156   4.771   0.674 -0.6705 -0.2660  0.4636
 3410TIP3    H131793   5.149   4.849   0.619 -3.0171 -1.2837 -0.8304
 3410TIP3    H231794   5.249   4.747   0.670 -0.3282  1.1424 -1.0057
 3411TIP3   OH231795   1.939   4.070   7.865 -0.4091  0.0378  0.6506
 3411TIP3    H131796   1.912   4.151   7.907 -1.5763  0.0458 -0.0766
 3411TIP3    H231797   1.998   4.028   7.928  1.4511  2.1456  0.4243
 3412TIP3   OH231798   5.063   0.608   8.172  0.0484  0.3849 -0.3528
 3412TIP3    H131799   5.050   0.656   8.254  0.5510 -0.7010  0.3954
 3412TIP3    H231800   4.987   0.550   8.167  0.0679  0.3810 -0.6153
 3413TIP3   OH231801   0.713   2.795   7.711 -0.2215  0.5680 -0.1769
 3413TIP3    H131802   0.665   2.774   7.792  0.9469 -1.7075  0.0171
 3413TIP3    H231803   0.805   2.797   7.738  0.2614 -1.0539 -1.5427
 3414TIP3   OH231804   6.502   2.635   2.461  0.1404  0.6879 -0.1358
 3414TIP3    H131805   6.541   2.722   2.460  0.8943  0.4874  2.6497
 3414TIP3    H231806   6.551   2.588   2.529 -0.6975 -1.7082 -1.0732
 3415TIP3   OH231807   0.968   2.556   1.618 -0.3134  0.4174 -0.2393
 3415TIP3    H131808   1.006   2.598   1.695 -0.9018 -0.3095  0.4775
 3415TIP3    H231809   0.873   2.562   1.632 -0.5386  2.3848 -2.0870
 3416TIP3   OH231810   3.263   6.382   7.133 -0.5381 -0.3152  0.1483
 3416TIP3    H131811   3.287   6.291   7.149  1.3354  0.1902  0.5668
 3416TIP3    H231812   3.305   6.404   7.050 -0.6532  0.2452  0.2303
 3417TIP3   OH231813   4.638   1.757   0.298  0.3512 -0.8621 -0.4706
 3417TIP3    H131814   4.621   1.739   0.390 -0.1501  0.3913 -0.3049
 3417TIP3    H231815   4.556   1.737   0.253  0.0504  0.1650 -0.3975
 3418TIP3   OH231816   4.907   6.064   1.876  0.4542  0.2104  0.5119
 3418TIP3    H131817   4.864   5.998   1.930  2.4268 -1.5328  0.0885
 3418TIP3    H231818   4.987   6.085   1.923  0.0095  2.1589  0.4854
 3419TIP3   OH231819   3.229   4.122   8.717 -0.0732 -0.3665  0.3324
 3419TIP3    H131820   3.184   4.158   8.794 -4.3622 -0.2628 -1.9030
 3419TIP3    H231821   3.190   4.035   8.706 -1.3283  0.4771 -2.8646
 3420TIP3   OH231822   1.527   4.203   1.680  0.1303  0.6660  0.8974
 3420TIP3    H131823   1.604   4.211   1.736  0.6730  1.0800  0.1117
 3420TIP3    H231824   1.465   4.268   1.715  0.9331  1.7987  0.2916
 3421TIP3   OH231825   3.558   1.446   8.077  0.1250  0.4901  0.3878
 3421TIP3    H131826   3.508   1.367   8.098  2.7816 -1.2152  0.8240
 3421TIP3    H231827   3.577   1.437   7.983 -1.3006  1.7265 -0.0446
 3422TIP3   OH231828   3.466   4.908   8.781 -0.2078  0.5135 -0.6477
 3422TIP3    H131829   3.547   4.877   8.822 -0.9745 -0.3813  0.2490
 3422TIP3    H231830   3.495   4.959   8.706  1.1567 -1.3343 -1.4457
 3423TIP3   OH231831   1.776   3.578   1.815  0.1558 -0.2887 -0.7766
 3423TIP3    H131832   1.787   3.487   1.790 -1.0540 -0.1447 -1.9844
 3423TIP3    H231833   1.750   3.576   1.907 -0.8278 -1.2432 -1.0602
 3424TIP3   OH231834   6.062   5.900   6.184  0.5950 -0.2517 -0.0109
 3424TIP3    H131835   5.986   5.900   6.242  0.1335 -2.2273 -0.5508
 3424TIP3    H231836   6.084   5.993   6.174 -0.5372  0.2447  1.6990
 3425TIP3   OH231837   4.710   6.513   1.695  0.1484 -0.5367 -0.1066
 3425TIP3    H131838   4.761   6.451   1.748  1.0666  0.6760  0.4675
 3425TIP3    H231839   4.773   6.580   1.669 -0.9856  0.5877 -0.0406
 3426TIP3   OH231840   2.682   1.181   1.179  0.4674  0.5839  0.2708
 3426TIP3    H131841   2.667   1.111   1.115  3.7312  0.5848 -0.7055
 3426TIP3    H231842   2.624   1.160   1.252  0.4681 -2.5293 -0.4807
 3427TIP3   OH231843   3.267   1.147   8.077 -0.2644  0.4460  0.2611
 3427TIP3    H131844   3.352   1.144   8.120 -0.3842 -1.3649  0.4334
 3427TIP3    H231845   3.283   1.196   7.996  0.4021  2.1202  1.3390
 3428TIP3   OH231846   3.821   6.212   0.990  0.4274 -0.5445 -0.1811
 3428TIP3    H131847   3.873   6.280   0.947 -0.2014  0.0739  0.0276
 3428TIP3    H231848   3.783   6.162   0.918 -0.5801  0.4577 -0.3605
 3429TIP3   OH231849   5.363   5.324   1.284  0.0173  0.2985 -0.2371
 3429TIP3    H131850   5.414   5.400   1.313 -1.4026  0.9134  0.8104
 3429TIP3    H231851   5.320   5.354   1.204 -1.4295  1.0730  0.7668
 3430TIP3   OH231852   2.632   6.488   8.622 -0.5803 -1.0317  0.1216
 3430TIP3    H131853   2.538   6.506   8.621 -0.2824  0.7939 -0.0146
 3430TIP3    H231854   2.647   6.437   8.542 -1.1084  1.1220 -1.4815
 3431TIP3   OH231855   6.348   4.369   1.181  0.2698  0.2174 -0.0100
 3431TIP3    H131856   6.419   4.324   1.226  0.9076 -0.1735 -1.3661
 3431TIP3    H231857   6.291   4.299   1.150  0.7357  0.3735 -1.2596
 3432TIP3   OH231858   4.323   5.938   6.594 -0.1406 -0.4185 -0.7161
 3432TIP3    H131859   4.303   5.994   6.669  0.3828 -1.1314 -0.0338
 3432TIP3    H231860   4.331   5.999   6.520 -2.7151  0.0998 -0.6544
 3433TIP3   OH231861   4.101   1.308   8.605 -0.1441 -0.0242 -0.0848
 3433TIP3    H131862   4.034   1.343   8.664 -1.4101 -3.3982  0.6728
 3433TIP3    H231863   4.062   1.313   8.518 -0.1821  0.6239 -0.0381
 3434TIP3   OH231864   6.207   3.603   8.482 -0.1573 -0.1862  0.2888
 3434TIP3    H131865   6.152   3.668   8.438 -0.6489  0.1823  1.4250
 3434TIP3    H231866   6.164   3.519   8.464  0.6422 -0.2858 -1.4381
 3435TIP3   OH231867   1.056   3.214   6.898  0.4238  0.1152 -0.4534
 3435TIP3    H131868   1.139   3.200   6.943  1.0398  0.4739 -1.4333
 3435TIP3    H231869   1.082   3.246   6.811 -0.7460  0.4178 -0.7016
 3436TIP3   OH231870   6.757   3.348   6.452 -0.3383 -0.5560 -0.1638
 3436TIP3    H131871   6.814   3.273   6.470 -0.5651 -0.5907  0.4255
 3436TIP3    H231872   6.679   3.310   6.412  0.5079 -0.4004 -2.0598
 3437TIP3   OH231873   6.650   1.102   2.032  0.4437 -0.2263 -0.1150
 3437TIP3    H131874   6.675   1.177   1.977  1.5404  1.0937  2.0653
 3437TIP3    H231875   6.729   1.049   2.039  0.3650 -0.2864  0.3569
 3438TIP3   OH231876   4.146   3.832   1.457  0.0148  0.1772 -0.0481
 3438TIP3    H131877   4.157   3.757   1.398 -0.3138 -0.4133  0.6228
 3438TIP3    H231878   4.053   3.833   1.478  0.1490  0.2750  0.5826
 3439TIP3   OH231879   2.850   4.762   0.453 -0.1400  0.0519  0.0799
 3439TIP3    H131880   2.822   4.825   0.387  0.3821 -0.5907 -0.7700
 3439TIP3    H231881   2.925   4.805   0.496  1.3387 -0.6619 -1.6720
 3440TIP3   OH231882   1.695   1.113   6.572 -0.2119 -0.1847  0.1436
 3440TIP3    H131883   1.605   1.136   6.598 -1.8632 -2.2021 -3.1162
 3440TIP3    H231884   1.712   1.165   6.494  0.7694 -1.0666 -0.2574
 3441TIP3   OH231885   3.572   4.502   1.664  0.9064  0.0196  0.1926
 3441TIP3    H131886   3.603   4.529   1.577  0.5897  0.6993  0.2829
 3441TIP3    H231887   3.542   4.412   1.652  2.2149 -0.3950 -0.0615
 3442TIP3   OH231888   0.470   5.529   0.135  0.0025  0.7712  0.1381
 3442TIP3    H131889   0.458   5.508   0.042 -2.7194  2.8711 -0.1389
 3442TIP3    H231890   0.468   5.445   0.180  0.6447 -0.2320 -1.6275
 3443TIP3   OH231891   6.639   5.552   7.137 -0.5100 -0.5229 -0.2795
 3443TIP3    H131892   6.613   5.604   7.213  0.9351 -0.1269 -0.0109
 3443TIP3    H231893   6.673   5.470   7.174 -1.6826 -1.1872 -0.6330
 3444TIP3   OH231894   5.594   1.627   0.906 -0.4801  0.5558 -0.1254
 3444TIP3    H131895   5.678   1.584   0.887 -0.4551  1.1124 -1.3874
 3444TIP3    H231896   5.617   1.701   0.962 -0.1907  0.4079 -0.0476
 3445TIP3   OH231897   2.707   4.221   8.368  0.2314  0.2777 -0.1293
 3445TIP3    H131898   2.792   4.260   8.387  0.2461 -0.0413  0.4987
 3445TIP3    H231899   2.727   4.131   8.342  0.0913  0.2324 -0.0818
 3446TIP3   OH231900   2.696   3.441   2.713  0.8200  0.2178 -0.4246
 3446TIP3    H131901   2.769   3.382   2.733 -0.0220 -0.0083  2.3674
 3446TIP3    H231902   2.619   3.398   2.749 -0.7993  0.4151 -3.3777
 3447TIP3   OH231903   6.054   1.018   2.049 -0.5184  0.3260 -0.4602
 3447TIP3    H131904   6.034   1.008   2.143 -1.1443  0.2354 -0.5976
 3447TIP3    H231905   5.968   1.015   2.006 -0.1741 -0.5099 -1.1170
 3448TIP3   OH231906   0.008   3.696   6.661  0.1616  0.3426  0.3126
 3448TIP3    H131907  -0.079   3.704   6.700  0.0592 -0.5057  0.2785
 3448TIP3    H231908  -0.009   3.698   6.566 -0.2780 -3.2557  0.1600
 3449TIP3   OH231909   1.774   4.252   0.835  0.1950 -0.0641  0.0094
 3449TIP3    H131910   1.779   4.186   0.765 -0.1405  0.3279 -0.3909
 3449TIP3    H231911   1.698   4.306   0.812 -0.9034 -0.8860  1.5285
 3450TIP3   OH231912   0.083   1.769   1.136  0.4740  0.3328 -0.2251
 3450TIP3    H131913   0.042   1.718   1.066  1.2649 -0.1978 -0.3185
 3450TIP3    H231914   0.176   1.770   1.113  0.5052  1.6695 -0.1188
 3451TIP3   OH231915   6.547   0.550   1.076 -0.1437 -0.3326 -0.3778
 3451TIP3    H131916   6.607   0.616   1.040 -0.2018  0.3693  0.7690
 3451TIP3    H231917   6.601   0.471   1.084  0.6371  0.2746  0.5938
 3452TIP3   OH231918   2.693   4.670   8.780 -0.3413 -0.6287 -0.0627
 3452TIP3    H131919   2.670   4.745   8.724 -0.1277 -1.0438 -0.7161
 3452TIP3    H231920   2.610   4.624   8.794 -0.3834 -0.5619 -0.0926
 3453TIP3   OH231921   1.418   6.140   1.270  0.3791 -0.2644 -0.2654
 3453TIP3    H131922   1.455   6.079   1.206  0.6144  1.1266 -1.5091
 3453TIP3    H231923   1.324   6.134   1.256  0.4805  1.1864 -1.9244
 3454TIP3   OH231924   6.047   1.554   1.371 -0.1086 -0.5982  0.2731
 3454TIP3    H131925   6.113   1.529   1.436 -0.0599 -0.4257  0.2897
 3454TIP3    H231926   6.046   1.481   1.309 -0.8599 -1.2216  1.0012
 3455TIP3   OH231927   3.283   5.212   7.840 -0.0507 -0.3228  0.1801
 3455TIP3    H131928   3.251   5.131   7.879  1.0885 -1.3836 -0.9899
 3455TIP3    H231929   3.362   5.234   7.890  1.0626 -1.3528 -1.0174
 3456TIP3   OH231930   2.974   2.013   1.135  0.3214  0.2039  0.3638
 3456TIP3    H131931   3.020   2.035   1.216  1.2982 -1.4043  0.2889
 3456TIP3    H231932   2.903   1.954   1.163  0.5550 -0.2182  0.0797
 3457TIP3   OH231933   4.399   3.935   7.130 -0.2697  0.1600  0.4559
 3457TIP3    H131934   4.368   3.847   7.111 -1.2133 -0.3278  3.6133
 3457TIP3    H231935   4.459   3.924   7.204  0.5096  2.0559  0.1599
 3458TIP3   OH231936   6.338   0.393   1.143 -0.2541  0.4331  0.0616
 3458TIP3    H131937   6.385   0.316   1.174  0.7122  0.8408 -0.3432
 3458TIP3    H231938   6.405   0.461   1.136 -0.7842  0.8744 -1.0940
 3459TIP3   OH231939   5.931   1.658   1.751  0.5690 -0.3855  0.5311
 3459TIP3    H131940   5.859   1.658   1.814 -1.1625  0.2970 -1.3194
 3459TIP3    H231941   5.974   1.574   1.764  0.8533  0.0637  3.1549
 3460TIP3   OH231942   0.310   3.045   6.566 -0.2595  0.1757 -0.4568
 3460TIP3    H131943   0.391   3.000   6.586 -1.0160 -1.4758 -0.9380
 3460TIP3    H231944   0.283   3.087   6.648  1.4448  1.4224 -0.4891
 3461TIP3   OH231945   4.089   6.155   8.140 -0.2365  0.2718 -0.2665
 3461TIP3    H131946   4.002   6.189   8.160  0.1808  1.1092  0.1951
 3461TIP3    H231947   4.125   6.129   8.225 -0.3339 -0.8330 -0.5478
 3462TIP3   OH231948   5.958   2.163   7.594  0.6017  0.5373  0.5443
 3462TIP3    H131949   6.027   2.128   7.650  0.5147 -0.2005  0.2100
 3462TIP3    H231950   5.997   2.238   7.551  1.2405  0.0574  0.2700
 3463TIP3   OH231951   1.266   0.578   7.543 -0.4873  0.3251 -0.8673
 3463TIP3    H131952   1.245   0.635   7.469 -0.0342  1.5500 -0.0880
 3463TIP3    H231953   1.270   0.637   7.618 -2.8225 -1.1163  0.5156
 3464TIP3   OH231954   5.677   3.084   2.245  0.1032 -0.3388 -0.5817
 3464TIP3    H131955   5.644   2.996   2.265  1.0136 -0.9398 -1.6150
 3464TIP3    H231956   5.720   3.112   2.326  0.6904 -1.2841 -0.5474
 3465TIP3   OH231957   4.274   3.560   8.666 -0.0219 -0.6121 -0.0145
 3465TIP3    H131958   4.180   3.552   8.645 -0.1209 -0.6963  0.4563
 3465TIP3    H231959   4.280   3.536   8.758  0.1684  1.3187  0.5323
 3466TIP3   OH231960   4.262   6.695   6.306 -0.4231  0.6737  0.0879
 3466TIP3    H131961   4.278   6.775   6.255  0.1044  0.0170 -0.8070
 3466TIP3    H231962   4.198   6.721   6.372 -1.4257  1.4660 -1.1441
 3467TIP3   OH231963   5.882   6.117   7.811  0.3865 -0.4442 -0.0610
 3467TIP3    H131964   5.918   6.203   7.830 -0.1705 -0.5778  1.7296
 3467TIP3    H231965   5.792   6.135   7.783 -0.4408 -0.5140  2.3483
 3468TIP3   OH231966   1.808   1.228   8.280  0.1859  0.0866 -0.6172
 3468TIP3    H131967   1.716   1.200   8.275 -0.2939  1.2427  1.0884
 3468TIP3    H231968   1.804   1.323   8.284  1.3199  0.0828  1.6275
 3469TIP3   OH231969   1.013   1.878   1.040  0.2942  0.2075  0.4972
 3469TIP3    H131970   1.030   1.798   0.988 -0.9186 -0.2176  0.7264
 3469TIP3    H231971   1.067   1.867   1.118  0.4622 -0.1822  0.3327
 3470TIP3   OH231972   6.333   0.530   7.447  0.3853 -0.5182 -0.3844
 3470TIP3    H131973   6.392   0.555   7.518  1.4699  0.7086 -1.6346
 3470TIP3    H231974   6.247   0.562   7.475  0.8983  0.4694  0.1329
 3471TIP3   OH231975   5.211   5.010   0.518  0.4207  0.2779  0.1139
 3471TIP3    H131976   5.193   4.994   0.425 -0.5416  1.4253  0.0716
 3471TIP3    H231977   5.306   5.016   0.523  0.5412 -0.6580 -0.6370
 3472TIP3   OH231978   0.301   6.393   1.071 -0.2627  0.1367  0.3005
 3472TIP3    H131979   0.326   6.314   1.023  0.8917  0.7653 -0.1741
 3472TIP3    H231980   0.234   6.434   1.016 -1.1637 -0.6911  0.7446
 3473TIP3   OH231981   1.915   4.287   7.160  0.1564 -0.2876  0.0107
 3473TIP3    H131982   1.918   4.382   7.143 -1.2864 -0.1361  0.4731
 3473TIP3    H231983   1.898   4.249   7.074 -0.4536 -0.0273  0.0110
 3474TIP3   OH231984   1.530   4.518   1.734  0.3427  0.2991 -0.1511
 3474TIP3    H131985   1.505   4.601   1.776 -3.4424 -0.0488 -1.3196
 3474TIP3    H231986   1.532   4.455   1.806  0.6848  0.9235  0.4043
 3475TIP3   OH231987   2.849   0.564   1.925  0.0919 -0.6005  0.2904
 3475TIP3    H131988   2.801   0.497   1.878 -0.0457  0.3291 -0.9425
 3475TIP3    H231989   2.851   0.534   2.016  1.6558 -3.1981 -0.5038
 3476TIP3   OH231990   3.571   2.478   0.754  0.5503  0.2117 -0.5834
 3476TIP3    H131991   3.479   2.498   0.771  0.8326  0.6669  0.4301
 3476TIP3    H231992   3.579   2.385   0.776  0.6909  0.5607  0.8985
 3477TIP3   OH231993   4.011   2.953   7.290  0.4565  0.1886 -0.1857
 3477TIP3    H131994   3.934   2.993   7.250  0.0991  1.0963  1.3254
 3477TIP3    H231995   4.064   2.924   7.216 -1.1712 -0.1785 -1.2655
 3478TIP3   OH231996   5.478   1.102   7.922  0.1144  0.0042 -0.1558
 3478TIP3    H131997   5.466   1.188   7.961 -0.4997  0.0621 -0.4561
 3478TIP3    H231998   5.424   1.044   7.977  0.6042 -0.2056  0.1069
 3479TIP3   OH231999   4.740   4.174   0.070 -0.0105  0.4956 -0.7538
 3479TIP3    H132000   4.708   4.105   0.128 -0.3377  0.9702 -0.3548
 3479TIP3    H232001   4.760   4.247   0.129  0.5198  0.6711 -1.1489
 3480TIP3   OH232002   3.059   1.966   1.748 -0.6440  0.1847 -0.5848
 3480TIP3    H132003   3.124   1.914   1.796 -0.2761  0.3912 -0.8592
 3480TIP3    H232004   2.984   1.906   1.738 -1.1613  0.4723  1.1770
 3481TIP3   OH232005   0.974   1.639   0.845  0.2105  1.2078 -0.1187
 3481TIP3    H132006   0.991   1.729   0.816 -0.4366  1.3051 -0.2268
 3481TIP3    H232007   0.970   1.588   0.764  0.1511  1.1619 -0.0872
 3482TIP3   OH232008   2.591   2.654   1.012 -0.1057 -0.2106  1.0306
 3482TIP3    H132009   2.528   2.582   1.007 -0.0141 -0.3535  1.8034
 3482TIP3    H232010   2.672   2.619   0.977 -0.0627 -0.4859  1.4017
 3483TIP3   OH232011   0.383   5.548   1.455 -0.1621 -0.2551 -0.2793
 3483TIP3    H132012   0.418   5.634   1.434 -2.4929  0.8669  0.0851
 3483TIP3    H232013   0.460   5.493   1.470  1.5522  2.7325  3.6228
 3484TIP3   OH232014   4.025   0.771   8.212  0.3658 -0.9503 -0.1684
 3484TIP3    H132015   3.935   0.802   8.197  1.2046  0.6779 -2.4244
 3484TIP3    H232016   4.061   0.759   8.124  2.8586  0.0131  0.6287
 3485TIP3   OH232017   5.259   0.427   8.320  0.2475  0.4613  0.1710
 3485TIP3    H132018   5.225   0.484   8.251 -0.9499 -0.1171  0.2539
 3485TIP3    H232019   5.185   0.415   8.379  0.6418 -0.7499  0.4403
 3486TIP3   OH232020   5.962   5.480   8.238 -1.2773  0.6909 -0.0073
 3486TIP3    H132021   5.927   5.401   8.199 -2.3876  0.5313  1.2185
 3486TIP3    H232022   5.934   5.551   8.179 -0.2375  0.1881 -1.1277
 3487TIP3   OH232023   3.439   5.829   7.684  0.0623 -0.2158 -0.3506
 3487TIP3    H132024   3.451   5.873   7.768 -0.6867 -1.1023  0.2328
 3487TIP3    H232025   3.412   5.899   7.624 -0.7541  0.1985  0.4765
 3488TIP3   OH232026   5.526   1.789   7.606  0.0654 -0.1501  0.1295
 3488TIP3    H132027   5.455   1.725   7.606  0.9893 -1.3165 -2.2159
 3488TIP3    H232028   5.484   1.871   7.579 -0.8551 -0.0991  1.6112
 3489TIP3   OH232029   3.983   3.373   6.622  0.3460 -0.3587  0.3652
 3489TIP3    H132030   3.993   3.314   6.548  0.1410 -1.3163  1.0842
 3489TIP3    H232031   3.941   3.451   6.585  1.3622 -0.3153 -0.7449
 3490TIP3   OH232032   5.910   5.254   1.089  0.3125  0.1059  0.4175
 3490TIP3    H132033   5.866   5.310   1.152 -0.1968 -1.6940  1.7512
 3490TIP3    H232034   5.861   5.172   1.091  1.5429 -0.7092 -0.7913
 3491TIP3   OH232035   1.760   0.576   8.269 -0.0693 -0.4984  0.2356
 3491TIP3    H132036   1.687   0.524   8.236  0.1650 -0.6978  0.0380
 3491TIP3    H232037   1.785   0.632   8.196  0.6603 -1.1676 -0.0369
 3492TIP3   OH232038   2.042   0.163   0.559 -0.3158  0.8012 -0.0872
 3492TIP3    H132039   1.975   0.174   0.627  0.0515  0.2987  0.3697
 3492TIP3    H232040   2.020   0.228   0.492 -0.9338  1.0140  0.3160
 3493TIP3   OH232041   0.701   0.732   8.278 -0.2742  0.1115 -0.1984
 3493TIP3    H132042   0.748   0.719   8.195 -3.2731 -0.8122 -1.9138
 3493TIP3    H232043   0.725   0.655   8.330 -0.4008 -0.7316 -1.3275
 3494TIP3   OH232044   4.641   2.346   0.835 -0.0047 -0.1315 -0.3335
 3494TIP3    H132045   4.608   2.433   0.816  0.3263 -0.3344 -2.0393
 3494TIP3    H232046   4.638   2.300   0.751 -1.2099 -2.1351  0.7137
 3495TIP3   OH232047   6.696   1.223   0.928  0.3318  0.0072 -0.3739
 3495TIP3    H132048   6.769   1.263   0.881  0.4686  1.0286  0.6717
 3495TIP3    H232049   6.618   1.260   0.887  0.4607  1.8382  0.9459
 3496TIP3   OH232050   6.044   1.227   8.710  0.1230 -0.1186 -0.1981
 3496TIP3    H132051   6.000   1.269   8.784 -1.7545 -2.9959  0.4753
 3496TIP3    H232052   6.103   1.163   8.750  0.0056 -0.8414 -1.1455
 3497TIP3   OH232053   3.227   5.497   7.924 -0.0852  0.2208 -0.2123
 3497TIP3    H132054   3.151   5.450   7.959  0.4180  0.4545  1.2849
 3497TIP3    H232055   3.302   5.461   7.972  0.2489  3.0222  1.6365
 3498TIP3   OH232056   4.440   1.362   0.105 -0.3134 -0.0183 -0.2386
 3498TIP3    H132057   4.478   1.274   0.111 -2.2245 -0.9486 -0.9442
 3498TIP3    H232058   4.455   1.400   0.192  0.7499 -0.9335  0.0031
 3499TIP3   OH232059   0.523   2.250   8.773  0.2477 -0.3510  0.3047
 3499TIP3    H132060   0.529   2.154   8.768 -0.8279 -0.4273  0.3310
 3499TIP3    H232061   0.478   2.266   8.856 -1.1091  0.0971 -0.4825
 3500TIP3   OH232062   1.334   6.158   0.341  0.2533 -0.0105  0.2464
 3500TIP3    H132063   1.309   6.230   0.283 -0.9747 -0.2000  0.4963
 3500TIP3    H232064   1.429   6.152   0.334  0.2328  0.7171 -0.8548
 3501TIP3   OH232065   4.173   3.540   1.623 -0.1319  0.1097 -0.1771
 3501TIP3    H132066   4.202   3.624   1.657 -0.5648  1.1585 -2.2618
 3501TIP3    H232067   4.169   3.483   1.701 -0.1655  2.0656  1.3347
 3502TIP3   OH232068   2.356   1.845   1.349 -0.1631 -0.1333  0.0086
 3502TIP3    H132069   2.388   1.928   1.313 -1.3821 -1.1267 -3.9113
 3502TIP3    H232070   2.434   1.802   1.384  0.9985  1.4731 -0.5027
 3503TIP3   OH232071   5.681   5.280   8.439  0.0676 -0.3077  0.3313
 3503TIP3    H132072   5.730   5.302   8.518 -0.0348 -0.7613  0.5252
 3503TIP3    H232073   5.748   5.252   8.377  0.0473 -1.0287  0.6306
 3504TIP3   OH232074   0.319   6.253   1.621 -0.5366 -0.3708 -0.2317
 3504TIP3    H132075   0.224   6.265   1.615 -0.2563  1.8337 -1.9159
 3504TIP3    H232076   0.355   6.316   1.558  2.1157 -0.1554  1.3237
 3505TIP3   OH232077   4.828   4.599   1.015  0.4405  0.8109 -0.0193
 3505TIP3    H132078   4.877   4.671   1.054  2.5102 -0.2916 -0.4508
 3505TIP3    H232079   4.749   4.591   1.069  1.2308  1.9632  1.3566
 3506TIP3   OH232080   4.092   0.360   1.349  0.4340 -0.0549 -0.0644
 3506TIP3    H132081   4.123   0.362   1.440 -0.6571  1.6621  0.3242
 3506TIP3    H232082   4.172   0.362   1.297  1.0626  0.2770  0.8798
 3507TIP3   OH232083   4.697   1.440   0.777  0.4571 -0.3210 -0.2911
 3507TIP3    H132084   4.761   1.425   0.707  2.4815  2.6857  0.7014
 3507TIP3    H232085   4.732   1.391   0.852  0.8697  0.2508 -0.1096
 3508TIP3   OH232086   2.589   6.193   0.096  0.4250 -0.3159 -0.6078
 3508TIP3    H132087   2.680   6.208   0.071  0.2541  0.0670 -1.0289
 3508TIP3    H232088   2.581   6.098   0.102  0.7070 -0.3803 -1.1501
 3509TIP3   OH232089   6.595   1.557   1.510 -0.3099 -0.2175 -0.7012
 3509TIP3    H132090   6.529   1.493   1.538 -0.2831  0.4102  0.9159
 3509TIP3    H232091   6.556   1.642   1.530  1.3602  0.1590  1.4027
 3510TIP3   OH232092   6.538   4.223   0.850 -0.0326  0.7613 -0.5123
 3510TIP3    H132093   6.492   4.161   0.793  1.4698 -1.2565  0.3511
 3510TIP3    H232094   6.488   4.304   0.842 -2.5551 -0.7356 -1.1308
 3511TIP3   OH232095   4.731   5.136   1.152  0.3407 -0.0103 -0.2043
 3511TIP3    H132096   4.768   5.107   1.069 -0.8168  1.3491 -1.2496
 3511TIP3    H232097   4.796   5.196   1.189  0.4453  0.1276 -0.6118
 3512TIP3   OH232098   0.819   0.182   1.385 -0.2306 -0.1553 -0.2139
 3512TIP3    H132099   0.877   0.140   1.321  2.5821  0.2436  1.8465
 3512TIP3    H232100   0.746   0.121   1.394  0.2269 -1.1375 -2.3651
 3513TIP3   OH232101   4.009   2.234   6.925 -0.0268 -0.2122 -0.2650
 3513TIP3    H132102   3.932   2.181   6.942 -1.4188  2.0072  0.9307
 3513TIP3    H232103   4.044   2.255   7.012 -0.4399  1.9695 -0.5518
 3514TIP3   OH232104   3.650   6.518   0.842  0.0774  0.1914 -0.1192
 3514TIP3    H132105   3.712   6.565   0.786  1.5900 -2.0063 -0.4012
 3514TIP3    H232106   3.687   6.526   0.930  0.2960 -0.3813 -0.1561
 3515TIP3   OH232107   2.433   1.819   6.653 -0.0303  0.2020 -0.3190
 3515TIP3    H132108   2.507   1.873   6.680 -1.2483  1.8611 -0.1515
 3515TIP3    H232109   2.425   1.753   6.722 -0.1746  1.4848  0.9348
 3516TIP3   OH232110   3.743   0.139   0.324  0.3108  0.1290  0.4580
 3516TIP3    H132111   3.688   0.063   0.309 -0.0041  0.2442  1.0019
 3516TIP3    H232112   3.756   0.178   0.237 -0.7610  0.3007  0.3679
 3517TIP3   OH232113   3.859   5.603   2.381 -0.0406  0.2606 -0.1757
 3517TIP3    H132114   3.905   5.682   2.412 -0.0843 -0.4136  1.7774
 3517TIP3    H232115   3.778   5.602   2.432  0.3521 -1.4839  0.4532
 3518TIP3   OH232116   4.471   4.120   1.192 -0.2185  0.1459 -0.2435
 3518TIP3    H132117   4.423   4.199   1.217  0.0440 -0.1916  1.4824
 3518TIP3    H232118   4.563   4.145   1.199 -0.1238  0.1513 -1.3525
 3519TIP3   OH232119   6.280   4.525   0.519  0.2111 -0.3192 -0.6166
 3519TIP3    H132120   6.197   4.544   0.474 -0.7240  0.7483  1.4361
 3519TIP3    H232121   6.300   4.435   0.494  0.3773  0.5319 -4.0050
 3520TIP3   OH232122   5.712   5.613   8.660  0.2382 -1.0410  0.1912
 3520TIP3    H132123   5.686   5.645   8.747  1.6124  1.3809 -0.2050
 3520TIP3    H232124   5.631   5.616   8.609 -0.0674 -0.0371  0.7101
 3521TIP3   OH232125   3.555   3.238   0.468  0.2609 -0.3241 -0.0319
 3521TIP3    H132126   3.645   3.240   0.437 -0.0277 -0.6648 -0.9289
 3521TIP3    H232127   3.555   3.172   0.538  0.1585 -2.4090 -1.9054
 3522TIP3   OH232128   1.493   3.995   1.013 -0.2351 -0.2380 -0.0079
 3522TIP3    H132129   1.525   4.072   1.059 -0.6284 -0.3544  0.4639
 3522TIP3    H232130   1.561   3.976   0.949  0.9133 -0.8015  1.3384
 3523TIP3   OH232131   3.456   3.558   8.386  0.0366 -0.8744 -0.1802
 3523TIP3    H132132   3.472   3.645   8.349 -0.2053 -0.5392  0.4783
 3523TIP3    H232133   3.363   3.542   8.371 -0.0600 -0.7428  0.2520
 3524TIP3   OH232134   4.194   0.854   8.561  0.2622  0.6639 -0.9095
 3524TIP3    H132135   4.218   0.908   8.486 -1.7706 -0.0124 -2.1380
 3524TIP3    H232136   4.148   0.779   8.523 -2.2970  1.1029  1.0424
 3525TIP3   OH232137   4.362   1.829   8.154 -0.6019 -0.3898  0.7422
 3525TIP3    H132138   4.409   1.819   8.071 -1.9043  1.3314 -0.2926
 3525TIP3    H232139   4.424   1.800   8.221  1.1335 -0.1949 -0.7043
 3526TIP3   OH232140   2.957   5.893   2.175 -0.8989  0.5060 -0.3224
 3526TIP3    H132141   2.992   5.963   2.120  0.0752 -1.7022 -2.7297
 3526TIP3    H232142   2.975   5.813   2.126 -2.7016 -1.3981  1.8914
 3527TIP3   OH232143   6.241   2.929   1.518  0.0098  0.3577  0.0246
 3527TIP3    H132144   6.297   2.853   1.532 -0.0597  0.3640  0.3520
 3527TIP3    H232145   6.302   3.002   1.507  0.0923  0.1475 -0.9821
 3528TIP3   OH232146   1.603   2.336   0.082  0.1246 -0.4070  0.1037
 3528TIP3    H132147   1.563   2.298   0.004  1.2714  0.1298 -0.7691
 3528TIP3    H232148   1.602   2.265   0.146 -0.1491 -1.0875 -0.6345
 3529TIP3   OH232149   3.764   0.449   6.862  0.1353  0.1359 -0.0007
 3529TIP3    H132150   3.811   0.452   6.945 -0.1516 -0.8009  0.2111
 3529TIP3    H232151   3.832   0.443   6.796  0.4345  2.3874  0.0255
 3530TIP3   OH232152   6.267   4.889   7.817 -0.1260 -0.4024  0.7709
 3530TIP3    H132153   6.198   4.831   7.846 -0.1988  0.0488  1.5087
 3530TIP3    H232154   6.287   4.944   7.893  0.7073 -0.2058  0.4279
 3531TIP3   OH232155   4.915   1.365   1.394  0.5768  0.2840  0.2353
 3531TIP3    H132156   4.865   1.389   1.316  0.7314  0.5821  0.2271
 3531TIP3    H232157   4.859   1.304   1.441  1.0343 -0.9828 -0.8039
 3532TIP3   OH232158   4.636   2.120   6.797 -0.4698 -0.2915  0.2008
 3532TIP3    H132159   4.577   2.054   6.762  0.0348 -2.6761  3.4213
 3532TIP3    H232160   4.723   2.094   6.766 -0.4465 -0.1925  0.1816
 3533TIP3   OH232161   3.456   4.140   6.933 -0.1817 -0.6462 -0.1153
 3533TIP3    H132162   3.466   4.051   6.899 -1.6669 -0.4864 -1.0821
 3533TIP3    H232163   3.482   4.134   7.025 -1.9047 -2.5003  0.3234
 3534TIP3   OH232164   3.249   5.307   7.077  0.1146 -0.7664 -0.5436
 3534TIP3    H132165   3.345   5.306   7.081  0.0872 -1.5848  1.6074
 3534TIP3    H232166   3.224   5.215   7.069 -0.5120 -0.5190 -1.6084
 3535TIP3   OH232167   4.344   0.684   0.562 -0.1142 -0.6317 -0.4944
 3535TIP3    H132168   4.286   0.608   0.562 -0.5753 -0.2882 -0.3837
 3535TIP3    H232169   4.417   0.659   0.619  0.7038 -1.6922 -1.9361
 3536TIP3   OH232170   3.677   1.603   8.505 -0.4611 -0.0059 -0.2171
 3536TIP3    H132171   3.585   1.585   8.526 -1.0577 -0.8430 -3.0092
 3536TIP3    H232172   3.677   1.691   8.469 -0.3706 -0.3223 -1.0278
 3537TIP3   OH232173   4.100   1.454   0.177 -0.0898 -0.0605  0.0660
 3537TIP3    H132174   4.151   1.491   0.104  1.4055 -0.6871  0.7622
 3537TIP3    H232175   4.155   1.467   0.254 -1.7889  0.8965  1.1853
 3538TIP3   OH232176   6.387   3.735   8.630 -0.3482  0.3700 -0.2040
 3538TIP3    H132177   6.400   3.678   8.706  0.9685  0.2278 -0.5132
 3538TIP3    H232178   6.308   3.702   8.588 -0.3134 -0.4214  0.3390
 3539TIP3   OH232179   6.204   6.332   0.270  0.3820 -0.1402  0.6447
 3539TIP3    H132180   6.245   6.368   0.192 -0.4847 -0.1275  0.1752
 3539TIP3    H232181   6.276   6.319   0.332  1.5122 -2.6426 -1.0522
 3540TIP3   OH232182   3.239   3.002   2.711 -0.4176 -0.1376  0.2847
 3540TIP3    H132183   3.195   2.938   2.656  1.4446 -0.6357 -0.6859
 3540TIP3    H232184   3.194   2.995   2.796  0.3721 -3.5275  0.5738
 3541TIP3   OH232185   3.559   1.761   1.415  0.6130 -0.0834 -0.5333
 3541TIP3    H132186   3.491   1.746   1.350 -0.9806  0.6282  0.8816
 3541TIP3    H232187   3.592   1.849   1.396  0.9939 -0.3489 -1.1006
 3542TIP3   OH232188   4.192   1.319   0.982 -0.7615  0.2248 -0.1213
 3542TIP3    H132189   4.236   1.263   1.045 -0.9052  1.4937  1.1455
 3542TIP3    H232190   4.263   1.363   0.935 -0.6552  0.8629  0.6252
 3543TIP3   OH232191   3.355   0.773   8.424 -0.6141  0.0666  0.4648
 3543TIP3    H132192   3.451   0.766   8.421 -0.5204  1.3743 -0.4820
 3543TIP3    H232193   3.326   0.684   8.446  0.7570 -0.7641 -0.8111
 3544TIP3   OH232194   1.630   3.968   6.994  0.2100 -0.0305  0.3306
 3544TIP3    H132195   1.697   4.034   6.975 -0.5755  0.9079  0.7325
 3544TIP3    H232196   1.660   3.926   7.074  1.1069 -0.7147 -0.3400
 3545TIP3   OH232197   1.266   4.535   8.504  0.1873 -0.6512  0.3862
 3545TIP3    H132198   1.212   4.512   8.428 -0.5381  0.3490  0.5739
 3545TIP3    H232199   1.288   4.451   8.544 -1.2139 -1.1019  0.2705
 3546TIP3   OH232200   5.164   6.648   7.043  0.4588 -0.2301 -0.3252
 3546TIP3    H132201   5.201   6.656   7.131  1.5484  1.2622 -0.8600
 3546TIP3    H232202   5.229   6.596   6.994  0.2197 -0.4343 -0.4245
 3547TIP3   OH232203   3.097   3.197   0.665 -0.1410  0.7252  0.0373
 3547TIP3    H132204   3.146   3.139   0.607  0.3195  1.4004 -0.2588
 3547TIP3    H232205   3.007   3.193   0.632 -0.7803 -2.0544  1.7778
 3548TIP3   OH232206   3.151   3.742   1.661 -0.4189 -0.7473 -0.0387
 3548TIP3    H132207   3.133   3.702   1.746 -0.9562 -0.8064 -0.1825
 3548TIP3    H232208   3.161   3.836   1.681  0.6763 -0.9097  0.2710
 3549TIP3   OH232209   4.324   3.887   1.277  0.1744  0.2483  0.1061
 3549TIP3    H132210   4.337   3.980   1.258 -1.2075  0.1397 -1.6701
 3549TIP3    H232211   4.245   3.884   1.331  1.4619  0.2146  2.0718
 3550TIP3   OH232212   0.082   4.783   7.218 -0.3660 -0.2574 -0.4451
 3550TIP3    H132213   0.001   4.753   7.260 -0.8712 -0.1789 -1.3249
 3550TIP3    H232214   0.115   4.705   7.173 -0.2112 -0.1769 -0.4690
 3551TIP3   OH232215   1.709   6.227   0.592 -0.5216 -0.1393 -0.1942
 3551TIP3    H132216   1.674   6.283   0.661  1.7067  0.5923  0.4234
 3551TIP3    H232217   1.772   6.282   0.545  1.0676 -1.8157 -0.1443
 3552TIP3   OH232218   1.542   0.333   7.420  0.5348  0.6110 -0.0671
 3552TIP3    H132219   1.612   0.398   7.415  1.4351 -0.3159  0.2320
 3552TIP3    H232220   1.480   0.359   7.351 -0.1647  2.9386  1.3034
 3553TIP3   OH232221   3.148   1.408   8.697  0.2475  0.5905 -0.0745
 3553TIP3    H132222   3.089   1.367   8.633  0.0816 -1.2207  1.1533
 3553TIP3    H232223   3.197   1.473   8.647 -0.9337  0.2885 -1.6947
 3554TIP3   OH232224   2.443   5.708   8.398 -0.1467  0.0254  0.0253
 3554TIP3    H132225   2.468   5.697   8.306  0.7451  0.3485  0.2274
 3554TIP3    H232226   2.452   5.621   8.436  1.8097  0.3428  0.3628
 3555TIP3   OH232227   1.469   5.069   1.193 -0.4884  0.4589 -0.4013
 3555TIP3    H132228   1.539   5.088   1.256 -1.4612 -0.0642  0.8865
 3555TIP3    H232229   1.504   5.098   1.109  1.2413  0.2935  0.2110
 3556TIP3   OH232230   0.903   2.690   0.177  0.4175 -0.6659  0.3835
 3556TIP3    H132231   0.848   2.748   0.231  0.9655 -0.9296  1.2300
 3556TIP3    H232232   0.971   2.748   0.142  0.0023 -0.4745 -0.1172
 3557TIP3   OH232233   2.035   3.405   1.029  0.1417  0.0358  0.1296
 3557TIP3    H132234   1.941   3.402   1.047  0.0769  1.8069  0.2410
 3557TIP3    H232235   2.042   3.398   0.934 -0.1538  0.5857  0.0645
 3558TIP3   OH232236   1.952   1.032   1.340 -0.0038  0.2677  0.4750
 3558TIP3    H132237   2.021   0.966   1.354 -1.3417 -1.4530 -0.5473
 3558TIP3    H232238   1.967   1.097   1.409  1.6465 -0.8812  1.2891
 3559TIP3   OH232239   1.871   3.295   8.788 -0.7532  0.3891  0.1102
 3559TIP3    H132240   1.927   3.334   8.855 -1.0765  1.5971 -0.3049
 3559TIP3    H232241   1.842   3.369   8.735 -2.5778 -0.2295  0.1847
 3560TIP3   OH232242   0.722   2.463   6.673  0.4290  0.1450  0.3014
 3560TIP3    H132243   0.790   2.521   6.638 -0.7210  1.2690 -0.1555
 3560TIP3    H232244   0.677   2.430   6.595 -0.3360  0.4188  0.6141
 3561TIP3   OH232245   3.999   3.692   1.134  0.1610 -0.1634  0.4585
 3561TIP3    H132246   4.080   3.740   1.119 -0.4496  0.8636  0.3648
 3561TIP3    H232247   4.017   3.641   1.213  0.8842  0.0726  0.4598
 3562TIP3   OH232248   6.537   4.465   8.076 -0.2044 -0.0017 -0.5676
 3562TIP3    H132249   6.627   4.481   8.106  0.6468  1.4570 -3.5179
 3562TIP3    H232250   6.547   4.432   7.986 -2.6356 -0.6295 -0.6805
 3563TIP3   OH232251   4.670   2.425   0.283 -0.4133 -0.7588 -0.2205
 3563TIP3    H132252   4.669   2.514   0.248  0.1553 -0.2364  1.0171
 3563TIP3    H232253   4.669   2.368   0.206 -0.9732  0.3167 -1.0226
 3564TIP3   OH232254   0.723   1.067   0.430 -0.2070  0.2423  0.0375
 3564TIP3    H132255   0.749   1.128   0.361 -0.6417 -0.5188 -0.8138
 3564TIP3    H232256   0.629   1.054   0.417 -0.3864  0.4523  1.0670
 3565TIP3   OH232257   2.925   2.629   0.965  0.3072  0.3780  0.4204
 3565TIP3    H132258   2.917   2.623   1.060  1.5287  1.4451  0.6247
 3565TIP3    H232259   2.975   2.551   0.939 -1.8951 -1.0883  0.3351
 3566TIP3   OH232260   0.935   5.332   1.754 -0.1430  0.3515 -0.9430
 3566TIP3    H132261   0.974   5.245   1.755 -0.0219  0.3142  2.7803
 3566TIP3    H232262   1.008   5.392   1.771 -0.7107  0.8384 -0.1205
 3567TIP3   OH232263   3.880   5.917   0.537 -0.5768 -0.9491  0.3809
 3567TIP3    H132264   3.841   5.904   0.624  0.6448 -1.5676  0.8580
 3567TIP3    H232265   3.892   5.828   0.503 -1.5337 -0.7024 -0.6713
 3568TIP3   OH232266   2.876   3.935   0.290 -0.0694 -0.5554 -0.2702
 3568TIP3    H132267   2.866   4.026   0.318  0.9987 -0.4755 -0.1253
 3568TIP3    H232268   2.786   3.902   0.285 -0.4356  0.3181  0.2856
 3569TIP3   OH232269   4.275   2.103   1.181 -0.7487  0.2063  0.2472
 3569TIP3    H132270   4.363   2.135   1.160 -0.9405 -0.5209 -1.8960
 3569TIP3    H232271   4.226   2.181   1.205  0.5550  0.5765  1.9487
 3570TIP3   OH232272   5.841   5.778   8.503  0.0181  0.8027 -0.2425
 3570TIP3    H132273   5.882   5.734   8.428  1.4348  0.1885  0.8318
 3570TIP3    H232274   5.802   5.707   8.554  0.1073  1.0673  0.2001
 3571TIP3   OH232275   0.977   0.155   6.998 -0.1471 -0.0377 -0.0867
 3571TIP3    H132276   0.903   0.100   6.974  0.8411 -1.1289 -0.7850
 3571TIP3    H232277   0.963   0.237   6.951 -0.0469 -0.8697 -1.6543
 3572TIP3   OH232278   6.176   4.639   2.698 -0.1710  0.0943 -0.4811
 3572TIP3    H132279   6.203   4.731   2.701 -2.3335  0.8172 -1.2686
 3572TIP3    H232280   6.258   4.590   2.704  0.9745  2.0279  1.0167
 3573TIP3   OH232281   2.816   0.835   8.818  0.3677 -0.0130 -0.0994
 3573TIP3    H132282   2.851   0.922   8.838 -2.6354  1.5530 -0.9355
 3573TIP3    H232283   2.775   0.806   8.900  1.3222 -0.6733  0.1650
 3574TIP3   OH232284   1.539   1.661   6.955 -0.2196 -0.0209  0.5307
 3574TIP3    H132285   1.588   1.714   6.893  0.3429 -1.3549 -0.1913
 3574TIP3    H232286   1.597   1.589   6.977 -1.1916 -0.6803  1.0256
 3575TIP3   OH232287   6.628   0.380   0.308  0.4763 -0.3289 -0.1577
 3575TIP3    H132288   6.651   0.401   0.398 -1.0114 -0.6485  0.3286
 3575TIP3    H232289   6.696   0.318   0.279  0.6685 -0.6376  0.9243
 3576TIP3   OH232290   1.515   0.768   1.477  0.1858 -0.3985  0.0413
 3576TIP3    H132291   1.548   0.738   1.393  0.7758 -0.6044  0.3396
 3576TIP3    H232292   1.593   0.785   1.529 -0.1287  1.1668  0.0573
 3577TIP3   OH232293   6.752   0.955   8.337 -0.0469 -0.5713  0.4716
 3577TIP3    H132294   6.686   1.011   8.378  1.4072  3.1304 -1.6308
 3577TIP3    H232295   6.836   0.995   8.361  1.0731 -1.4844 -1.5854
 3578TIP3   OH232296   2.697   6.411   1.404  0.2578 -0.5836 -0.1582
 3578TIP3    H132297   2.691   6.325   1.445  0.8547 -0.4337  0.2530
 3578TIP3    H232298   2.613   6.452   1.422  0.8873 -0.0989  1.8794
 3579TIP3   OH232299   2.556   3.578   8.097 -0.1614 -0.5118 -0.4937
 3579TIP3    H132300   2.484   3.601   8.040  0.6302 -1.2983 -1.8624
 3579TIP3    H232301   2.584   3.660   8.136 -0.9684 -0.0203 -0.9351
 3580TIP3   OH232302   4.059   2.795   2.007 -0.0448  0.4538  0.1130
 3580TIP3    H132303   4.034   2.874   2.054  1.6681  0.5645  0.8826
 3580TIP3    H232304   3.975   2.754   1.982 -0.9557  1.4238  1.4907
 3581TIP3   OH232305   1.507   5.388   8.323  0.0627  0.0415 -0.4411
 3581TIP3    H132306   1.488   5.337   8.244  3.0471 -0.3626 -1.0117
 3581TIP3    H232307   1.517   5.322   8.392  0.4162  0.1453 -0.3918
 3582TIP3   OH232308   4.895   6.161   8.520  0.4958 -0.2931 -0.3910
 3582TIP3    H132309   4.969   6.100   8.517  1.7365  1.1328  0.1471
 3582TIP3    H232310   4.886   6.192   8.430  0.3518 -0.6845 -0.5150
 3583TIP3   OH232311   2.121   3.790   2.276 -0.2467  0.6267  0.1507
 3583TIP3    H132312   2.175   3.834   2.341  2.0533 -0.5774 -0.8284
 3583TIP3    H232313   2.128   3.697   2.297  3.0107 -0.1627 -3.2823
 3584TIP3   OH232314   5.985   2.126   0.957  0.2367 -0.0238  0.3472
 3584TIP3    H132315   6.027   2.212   0.948 -0.9735  0.4681 -1.0711
 3584TIP3    H232316   5.935   2.133   1.039  0.4943  0.4657  0.4699
 3585TIP3   OH232317   2.653   3.845   8.101  0.5186 -0.1636 -0.1034
 3585TIP3    H132318   2.646   3.924   8.048  2.0430  0.8721  1.1477
 3585TIP3    H232319   2.745   3.822   8.099  0.2815 -1.2552  0.4777
 3586TIP3   OH232320   4.112   5.938   0.293 -0.3442 -0.1726 -0.3330
 3586TIP3    H132321   4.146   5.869   0.236  0.5605 -0.0859  0.0953
 3586TIP3    H232322   4.158   5.926   0.376 -1.1156  0.1599  0.1547
 3587TIP3   OH232323   6.397   3.152   1.509 -0.4301 -0.1008  0.0624
 3587TIP3    H132324   6.358   3.215   1.569  1.6701  1.5379 -0.1727
 3587TIP3    H232325   6.381   3.189   1.422  1.7354  0.7805 -0.0317
 3588TIP3   OH232326   4.750   0.913   7.756 -0.2430 -0.5224 -0.3157
 3588TIP3    H132327   4.697   0.969   7.813 -0.0153 -0.3697 -0.2501
 3588TIP3    H232328   4.696   0.836   7.741  0.7332 -1.8561  2.3393
 3589TIP3   OH232329   5.074   2.281   8.129 -0.6384  0.7993 -0.2011
 3589TIP3    H132330   5.083   2.373   8.151  0.5191  0.3160  1.5354
 3589TIP3    H232331   4.997   2.252   8.178 -1.0121  0.8172 -0.7577
 3590TIP3   OH232332   5.999   6.759   1.616  0.3973 -0.2922  0.1352
 3590TIP3    H132333   6.056   6.792   1.686 -0.0591 -1.1142  0.8997
 3590TIP3    H232334   5.927   6.822   1.613  1.4037  0.8858 -0.9901
 3591TIP3   OH232335   5.729   5.981   1.395 -0.0387  0.3310 -0.0588
 3591TIP3    H132336   5.803   5.981   1.334 -0.3364 -0.6249 -0.4331
 3591TIP3    H232337   5.664   6.037   1.352 -0.6274 -1.1192 -1.1136
 3592TIP3   OH232338   2.097   5.895   2.595  0.0623  0.3301 -0.4186
 3592TIP3    H132339   2.067   5.968   2.541 -0.4026  0.2332 -0.2890
 3592TIP3    H232340   2.019   5.865   2.642  0.4046  0.2203  0.0816
 3593TIP3   OH232341   6.264   4.244   0.422  0.7462  0.1938 -0.0183
 3593TIP3    H132342   6.228   4.247   0.333 -0.6381  0.9964  0.5217
 3593TIP3    H232343   6.224   4.167   0.462  0.0402  0.7575  0.4003
 3594TIP3   OH232344   3.516   2.506   6.634 -0.3029 -0.3288 -0.8055
 3594TIP3    H132345   3.531   2.416   6.607 -2.4102 -0.3389 -2.2416
 3594TIP3    H232346   3.429   2.504   6.675 -0.8691  1.1930 -1.8334
 3595TIP3   OH232347   0.278   5.629   8.381 -0.6241 -0.2801  0.5655
 3595TIP3    H132348   0.361   5.663   8.414 -1.9405  2.3334  1.4781
 3595TIP3    H232349   0.274   5.660   8.291 -1.0660  0.5758  0.8673
 3596TIP3   OH232350   4.761   6.804   7.706 -0.5883 -0.4346  0.5182
 3596TIP3    H132351   4.839   6.831   7.657 -0.5648 -1.5674 -0.0926
 3596TIP3    H232352   4.691   6.807   7.641 -0.6815 -1.3067  0.5793
 3597TIP3   OH232353   2.471   1.035   0.900  0.2643  0.1838  0.0351
 3597TIP3    H132354   2.396   0.975   0.901  0.2238  0.0129 -3.1561
 3597TIP3    H232355   2.544   0.983   0.935 -0.4092 -0.7285  0.1190
 3598TIP3   OH232356   0.133   3.008   1.973  0.5990  0.0093  0.1902
 3598TIP3    H132357   0.127   2.979   2.064  2.9595  2.1814  1.1406
 3598TIP3    H232358   0.060   3.069   1.963  1.6922  1.5801  1.4221
 3599TIP3   OH232359   0.227   0.256   1.627 -0.7176  0.3496  0.2575
 3599TIP3    H132360   0.134   0.275   1.643 -0.6118  2.8398 -1.4047
 3599TIP3    H232361   0.265   0.243   1.714 -2.3844  0.5931  1.0522
 3600TIP3   OH232362   4.067   4.306   8.259 -1.2005  0.4360  0.4364
 3600TIP3    H132363   4.125   4.376   8.290 -0.1044 -0.3156  0.1452
 3600TIP3    H232364   4.089   4.296   8.167 -0.3514 -1.1907  0.7731
 3601TIP3   OH232365   4.746   2.964   7.222  0.9055  0.2182 -0.0585
 3601TIP3    H132366   4.828   3.012   7.235  0.5720  0.4084  1.5239
 3601TIP3    H232367   4.686   3.028   7.184  1.3281  0.2190 -0.7390
 3602TIP3   OH232368   3.701   3.544   7.148 -0.2946  0.0936  0.4171
 3602TIP3    H132369   3.624   3.596   7.172  0.5414  0.5836  2.2616
 3602TIP3    H232370   3.741   3.594   7.077 -2.5276 -1.0604 -1.7964
 3603TIP3   OH232371   3.703   3.992   2.484 -0.0019 -0.4937 -0.1787
 3603TIP3    H132372   3.733   3.988   2.393  1.7022  0.2125  0.3100
 3603TIP3    H232373   3.676   4.083   2.496  0.6006 -0.3727  0.2658
 3604TIP3   OH232374   3.372   0.474   6.642  0.0512 -0.1096  0.1675
 3604TIP3    H132375   3.416   0.416   6.704 -0.5723 -0.1320  0.5995
 3604TIP3    H232376   3.319   0.532   6.696  0.6184  0.8342 -0.2721
 3605TIP3   OH232377   2.452   1.672   7.811  0.0458 -0.3699  0.0253
 3605TIP3    H132378   2.413   1.683   7.724  1.1531  0.9561 -0.3529
 3605TIP3    H232379   2.393   1.717   7.870 -1.1787 -2.0287  0.1328
 3606TIP3   OH232380   1.127   5.638   6.917  0.0061  0.0309 -0.1386
 3606TIP3    H132381   1.067   5.692   6.865 -0.8891 -1.1530 -0.3825
 3606TIP3    H232382   1.119   5.550   6.879  2.0247 -0.1395 -0.2718
 3607TIP3   OH232383   0.013   1.424   8.687  0.9028 -0.0402 -0.3379
 3607TIP3    H132384   0.015   1.348   8.745 -0.3459  0.3305  0.2271
 3607TIP3    H232385  -0.004   1.388   8.600 -1.4848 -0.3487  0.1776
 3608TIP3   OH232386   5.455   3.275   0.947 -0.4102  0.0816  0.7236
 3608TIP3    H132387   5.423   3.189   0.922 -1.1744  0.2903  0.9508
 3608TIP3    H232388   5.483   3.265   1.038 -0.3884  0.0369  0.7116
 3609TIP3   OH232389   1.225   1.112   7.151  0.6514  0.0786 -0.6797
 3609TIP3    H132390   1.145   1.161   7.169 -0.1109 -1.3036 -0.1674
 3609TIP3    H232391   1.195   1.031   7.110  1.6203 -1.2057  1.0060
 3610TIP3   OH232392   1.207   3.084   0.653  0.1463  0.7023  0.5150
 3610TIP3    H132393   1.125   3.113   0.691 -1.0180  0.2696 -1.5475
 3610TIP3    H232394   1.247   3.029   0.722 -2.5483 -1.2594  0.6700
 3611TIP3   OH232395   5.622   1.806   8.645 -0.0436 -0.2358 -0.1718
 3611TIP3    H132396   5.679   1.738   8.609 -0.5716 -0.3497 -0.8197
 3611TIP3    H232397   5.585   1.769   8.724  1.2663  0.0722  0.6041
 3612TIP3   OH232398   3.700   1.415   7.328 -0.4323  0.1305 -0.8282
 3612TIP3    H132399   3.620   1.414   7.275 -0.3474 -1.0809 -0.9730
 3612TIP3    H232400   3.769   1.390   7.266  0.0295  0.9334 -0.6478
 3613TIP3   OH232401   1.287   1.136   1.573  0.3943  0.0466 -0.2239
 3613TIP3    H132402   1.280   1.227   1.601 -2.5220  0.0204 -0.6284
 3613TIP3    H232403   1.206   1.119   1.526  0.4837 -2.9936  0.5245
 3614TIP3   OH232404   4.169   6.389   2.301 -0.5320  0.0016 -0.1994
 3614TIP3    H132405   4.186   6.466   2.355 -1.5158 -0.1075  0.2898
 3614TIP3    H232406   4.121   6.422   2.226 -0.6283 -0.0891 -0.1768
 3615TIP3   OH232407   4.070   5.573   7.410  0.4894  0.4936  0.4160
 3615TIP3    H132408   4.090   5.618   7.492  0.3140 -0.3184  0.9159
 3615TIP3    H232409   4.126   5.496   7.411  2.4540  1.7634 -1.4622
 3616TIP3   OH232410   5.308   4.484   0.013 -0.0316 -0.1607  0.1859
 3616TIP3    H132411   5.257   4.559   0.044 -2.0884 -1.1650 -0.5108
 3616TIP3    H232412   5.373   4.521  -0.046 -0.5295  1.1404  0.4323
 3617TIP3   OH232413   3.986   1.456   1.119 -0.0567  0.2556 -0.0543
 3617TIP3    H132414   4.040   1.382   1.092 -2.8758 -1.3331 -1.9129
 3617TIP3    H232415   3.971   1.505   1.039 -0.7026  1.0989  0.5710
 3618TIP3   OH232416   6.054   3.916   7.818 -0.1522  0.8126  0.3776
 3618TIP3    H132417   6.011   3.927   7.733 -0.9655 -1.2040  0.4604
 3618TIP3    H232418   6.017   3.984   7.874 -1.5195  0.5735 -0.2056
 3619TIP3   OH232419   6.615   3.350   1.121  0.1692 -0.4087  0.4004
 3619TIP3    H132420   6.643   3.317   1.035 -0.0831 -0.0701  0.1878
 3619TIP3    H232421   6.695   3.349   1.174  0.1672 -1.3527  0.3982
 3620TIP3   OH232422   4.034   5.575   1.279  0.8705  0.4280  0.4391
 3620TIP3    H132423   4.111   5.528   1.309  0.8318  0.2513  0.2625
 3620TIP3    H232424   4.067   5.659   1.247  0.8063  1.0445  1.9080
 3621TIP3   OH232425   0.964   4.283   2.229 -0.4233  0.5509  0.4862
 3621TIP3    H132426   0.914   4.364   2.232  1.1710  1.5951  0.0378
 3621TIP3    H232427   0.897   4.214   2.223 -1.7916  1.8715 -0.1124
 3622TIP3   OH232428   3.131   3.338   6.613 -0.0261  0.0029 -0.7252
 3622TIP3    H132429   3.059   3.346   6.550  1.1265 -0.5592 -2.1693
 3622TIP3    H232430   3.199   3.290   6.567  1.4673  0.8792  0.4344
 3623TIP3   OH232431   6.046   1.744   0.176  0.1111  0.1159 -0.3010
 3623TIP3    H132432   6.001   1.813   0.224  2.1518  0.9248  0.5734
 3623TIP3    H232433   6.112   1.711   0.238  2.1412  0.4803 -2.1559
 3624TIP3   OH232434   1.565   4.960   0.548  0.5151 -0.0136 -0.0472
 3624TIP3    H132435   1.601   5.048   0.536 -1.1461  0.5980 -0.7911
 3624TIP3    H232436   1.568   4.921   0.461 -1.7488  0.5299 -0.4134
 3625TIP3   OH232437   5.454   0.398   0.003 -0.0863 -0.3865 -0.0496
 3625TIP3    H132438   5.399   0.439  -0.063 -0.9367  0.7519  1.3162
 3625TIP3    H232439   5.515   0.343  -0.047  0.4396  1.7306 -1.8900
 3626TIP3   OH232440   0.813   2.929   0.359  0.0847  0.0193  0.2126
 3626TIP3    H132441   0.829   2.895   0.446 -0.9198 -0.3856  0.2564
 3626TIP3    H232442   0.881   2.996   0.346  0.4836 -0.1928  1.1350
 3627TIP3   OH232443   4.700   2.743   6.585 -0.4470  0.1598  0.5048
 3627TIP3    H132444   4.681   2.835   6.605  0.6735  0.5700 -0.2340
 3627TIP3    H232445   4.702   2.739   6.490 -2.2702 -1.0356  0.4817
 3628TIP3   OH232446   1.881   5.705   1.268 -0.1383  0.4719 -0.2278
 3628TIP3    H132447   1.788   5.696   1.289 -0.3747  1.9133 -0.6040
 3628TIP3    H232448   1.885   5.772   1.200  1.1080 -0.1867 -0.8501
 3629TIP3   OH232449   2.992   5.899   1.863  0.2748 -0.9313  0.1374
 3629TIP3    H132450   3.006   5.808   1.887  2.2926 -0.3934  1.2133
 3629TIP3    H232451   3.063   5.947   1.906 -1.1606  1.2629  0.2524
 3630TIP3   OH232452   0.624   0.156   0.305 -0.3286  0.2702  0.1053
 3630TIP3    H132453   0.581   0.075   0.275 -0.8645  0.5347  0.1466
 3630TIP3    H232454   0.599   0.163   0.397 -0.2191  0.4434  0.1221
 3631TIP3   OH232455   6.364   4.984   6.987  0.5566  0.3805 -0.0573
 3631TIP3    H132456   6.344   5.077   6.989  1.5651  0.6711 -1.7428
 3631TIP3    H232457   6.309   4.949   6.917 -1.2487 -0.7240  1.7750
 3632TIP3   OH232458   6.253   4.025   1.144 -0.1894 -0.3301 -0.3043
 3632TIP3    H132459   6.343   4.019   1.111 -0.2856  2.5342 -1.3689
 3632TIP3    H232460   6.223   3.934   1.149  2.3802 -1.2893 -1.0158
 3633TIP3   OH232461   0.059   5.437   8.811  0.3835 -0.1221  0.3309
 3633TIP3    H132462   0.068   5.387   8.730  0.7993 -2.1145  1.5264
 3633TIP3    H232463   0.122   5.396   8.871  0.5226  1.6867  1.4902
 3634TIP3   OH232464   5.199   6.287   8.290 -0.1154 -0.0195  0.2349
 3634TIP3    H132465   5.253   6.290   8.369  0.3939  2.5110 -0.1042
 3634TIP3    H232466   5.247   6.341   8.227 -0.5047 -1.9586 -1.8528
 3635TIP3   OH232467   3.217   0.952   7.375  0.5548 -0.1231 -0.5504
 3635TIP3    H132468   3.255   0.872   7.337 -0.8388 -1.0342 -0.1071
 3635TIP3    H232469   3.288   1.016   7.373  1.6239 -1.2906 -1.1779
 3636TIP3   OH232470   0.451   0.192   7.127 -0.4444  0.1676  0.3089
 3636TIP3    H132471   0.398   0.166   7.051  1.0888  0.0313 -0.7528
 3636TIP3    H232472   0.505   0.264   7.095  1.6791 -1.1888  0.6260
 3637TIP3   OH232473   0.256   1.765   6.960 -0.2182 -0.7417  0.4497
 3637TIP3    H132474   0.296   1.852   6.961 -0.7895 -0.4796  0.5085
 3637TIP3    H232475   0.310   1.714   7.020 -0.2812 -0.2521  0.9342
 3638TIP3   OH232476   4.102   2.113   7.310  0.4378  0.2079 -0.3124
 3638TIP3    H132477   4.166   2.052   7.273  0.0791  0.0326 -0.6591
 3638TIP3    H232478   4.049   2.060   7.370  0.1219  0.1700 -0.6183
 3639TIP3   OH232479   2.067   5.867   1.802  0.0219 -0.2855  0.0334
 3639TIP3    H132480   2.028   5.869   1.890 -2.6242  1.4659 -1.0264
 3639TIP3    H232481   2.080   5.774   1.783 -2.3876 -0.9292  1.1231
 3640TIP3   OH232482   4.366   0.886   6.377  0.2428  0.3207 -0.0667
 3640TIP3    H132483   4.300   0.928   6.322 -0.0986  1.0304  0.8655
 3640TIP3    H232484   4.317   0.822   6.429  0.8795 -1.9917 -2.1155
 3641TIP3   OH232485   5.603   5.644   1.102  0.0125  0.3553  0.8024
 3641TIP3    H132486   5.602   5.740   1.104 -0.6327  0.3693  0.2639
 3641TIP3    H232487   5.626   5.622   1.012 -0.8536  0.0207  0.6446
 3642TIP3   OH232488   1.632   6.487   2.403  0.2604  0.5475 -0.5467
 3642TIP3    H132489   1.676   6.464   2.485  0.2728  1.0567 -0.4082
 3642TIP3    H232490   1.551   6.436   2.405  0.5338  0.1082 -0.4961
 3643TIP3   OH232491   3.947   1.920   6.652  0.1400  0.4581  0.4940
 3643TIP3    H132492   3.864   1.954   6.618  1.2767  4.3517  1.1391
 3643TIP3    H232493   3.996   1.893   6.574 -0.6241  0.9166 -0.1604
 3644TIP3   OH232494   0.684   4.474   7.765 -0.1814  0.1633 -0.1644
 3644TIP3    H132495   0.664   4.430   7.682 -0.3977  1.5585 -0.8919
 3644TIP3    H232496   0.659   4.412   7.832 -0.8423 -0.6604 -1.1447
 3645TIP3   OH232497   3.196   3.976   2.349  0.0182  0.3032  0.0347
 3645TIP3    H132498   3.247   3.900   2.320 -0.3360 -0.0203  0.2541
 3645TIP3    H232499   3.245   4.011   2.423 -0.1229 -0.0590  0.3000
 3646TIP3   OH232500   3.914   5.625   0.502  0.3752 -0.5118  0.1000
 3646TIP3    H132501   3.826   5.595   0.477 -0.9584  2.4156  0.8341
 3646TIP3    H232502   3.929   5.583   0.587 -0.6144 -0.5669  0.2695
 3647TIP3   OH232503   6.583   3.069   0.725 -0.1535 -0.0658  0.1081
 3647TIP3    H132504   6.645   3.134   0.692 -1.4299  0.4052 -1.4600
 3647TIP3    H232505   6.519   3.119   0.775 -0.3852 -0.3041  0.0538
 3648TIP3   OH232506   0.770   4.868   0.083 -0.5149  0.0085 -0.5150
 3648TIP3    H132507   0.722   4.896   0.161 -2.3127 -0.2930 -1.4550
 3648TIP3    H232508   0.843   4.930   0.076 -0.1871 -0.0899  1.4919
 3649TIP3   OH232509   6.260   6.146   6.884 -0.3584 -0.0128  0.1060
 3649TIP3    H132510   6.304   6.168   6.967 -1.0147  0.6831  0.2843
 3649TIP3    H232511   6.331   6.139   6.821 -0.0253  2.3402  0.1166
 3650TIP3   OH232512   0.233   3.376   0.050 -0.0379 -0.3549 -0.2942
 3650TIP3    H132513   0.201   3.286   0.040 -1.0219 -0.0768  0.2220
 3650TIP3    H232514   0.237   3.390   0.145 -0.2972  0.2809 -0.3707
 3651TIP3   OH232515   1.305   4.878   1.054  0.1903 -0.3559 -0.0797
 3651TIP3    H132516   1.383   4.915   1.095  0.8521  0.1585 -1.7002
 3651TIP3    H232517   1.246   4.953   1.043  1.2625  0.2359 -2.7534
 3652TIP3   OH232518   0.781   4.090   1.102  0.3463  0.3308 -0.0280
 3652TIP3    H132519   0.714   4.031   1.136 -0.2927  0.3997 -1.1146
 3652TIP3    H232520   0.789   4.158   1.169 -0.9843  0.5470 -0.0566
 3653TIP3   OH232521   6.696   5.933   8.345  0.7214 -0.3683 -0.6500
 3653TIP3    H132522   6.759   5.999   8.315  0.2679  0.9602  1.0863
 3653TIP3    H232523   6.739   5.892   8.420 -0.5096  0.8044  0.7873
 3654TIP3   OH232524   4.765   0.305   2.116  0.0762  0.5564 -0.1279
 3654TIP3    H132525   4.727   0.218   2.121  1.1241  0.1122  0.3812
 3654TIP3    H232526   4.851   0.297   2.158  0.0496  1.9104  0.2428
 3655TIP3   OH232527   0.388   5.927   0.224  0.6223 -0.6552 -0.0334
 3655TIP3    H132528   0.365   6.007   0.272 -0.2988 -0.4379 -0.7910
 3655TIP3    H232529   0.376   5.856   0.287  0.6458 -0.2686  0.4118
 3656TIP3   OH232530   2.035   6.217   8.119  0.1706 -0.0305 -0.0566
 3656TIP3    H132531   2.006   6.290   8.063  1.0133 -0.4102 -1.0214
 3656TIP3    H232532   2.073   6.155   8.058  3.0969  0.4588  1.1289
 3657TIP3   OH232533   3.399   3.622   7.015 -0.1842 -0.4501  0.7663
 3657TIP3    H132534   3.441   3.700   6.981  1.7289 -1.9704 -0.5848
 3657TIP3    H232535   3.418   3.623   7.109  3.5291 -1.3205  0.1695
 3658TIP3   OH232536   2.229   4.039   6.436  0.0189 -0.4015 -1.0087
 3658TIP3    H132537   2.158   4.075   6.489 -1.3195 -1.6042 -1.9385
 3658TIP3    H232538   2.306   4.091   6.461 -1.3079  1.4020 -0.4823
 3659TIP3   OH232539   1.753   5.019   8.136  0.1154 -0.0203  0.0647
 3659TIP3    H132540   1.827   5.007   8.195 -0.2970  0.7667  0.7460
 3659TIP3    H232541   1.793   5.016   8.048  1.0047  0.7507  0.4271
 3660TIP3   OH232542   3.875   5.316   0.313  0.3700  0.3806  0.2362
 3660TIP3    H132543   3.867   5.319   0.217 -0.1321  0.5044  0.2754
 3660TIP3    H232544   3.839   5.231   0.337  0.8702  0.1791  0.2878
 3661TIP3   OH232545   4.810   1.179   0.020  0.2582 -0.6401 -0.3120
 3661TIP3    H132546   4.805   1.267   0.057 -0.0162 -0.8561  0.1602
 3661TIP3    H232547   4.724   1.164  -0.019  0.6730 -0.2536 -1.4106
 3662TIP3   OH232548   6.821   4.534   8.058 -0.0054 -0.3356  0.8708
 3662TIP3    H132549   6.805   4.619   8.018  0.0662 -0.0182  1.5218
 3662TIP3    H232550   6.904   4.543   8.104  0.7230 -1.1760 -0.2047
 3663TIP3   OH232551   0.232   6.223   7.347  0.4898 -0.3046 -0.7266
 3663TIP3    H132552   0.302   6.175   7.303  0.4431 -0.9204 -0.1552
 3663TIP3    H232553   0.239   6.196   7.439 -0.7529 -0.6884 -0.7309
 3664TIP3   OH232554   2.855   4.414   1.076  0.2155 -0.0818 -0.5412
 3664TIP3    H132555   2.889   4.468   1.147 -0.7454  0.7723 -0.7163
 3664TIP3    H232556   2.778   4.371   1.114 -0.4539  0.5793 -1.1347
 3665TIP3   OH232557   3.501   4.558   7.322  0.6319  0.7688  0.8167
 3665TIP3    H132558   3.416   4.525   7.292  1.0520 -0.0765  0.5143
 3665TIP3    H232559   3.557   4.481   7.323  1.7704  1.5495 -0.3101
 3666TIP3   OH232560   1.554   4.435   0.887 -0.0543  0.2836  0.1170
 3666TIP3    H132561   1.574   4.519   0.847  0.1372 -0.0819 -0.5719
 3666TIP3    H232562   1.552   4.453   0.981  2.8937  0.4711  0.2207
 3667TIP3   OH232563   1.309   5.294   8.684  0.3387 -0.0484  0.3261
 3667TIP3    H132564   1.226   5.295   8.733  0.5514 -2.1262  0.8248
 3667TIP3    H232565   1.282   5.304   8.593 -0.5799 -1.4817  0.4028
 3668TIP3   OH232566   0.464   0.419   0.823 -0.3193 -0.3196 -0.9051
 3668TIP3    H132567   0.453   0.326   0.844  0.6021 -0.5081 -1.2256
 3668TIP3    H232568   0.426   0.465   0.898 -1.9026 -0.9217 -1.2813
 3669TIP3   OH232569   4.044   1.068   7.293 -0.2352  0.6897  0.2958
 3669TIP3    H132570   4.071   1.156   7.269 -0.5551  1.5308  2.7450
 3669TIP3    H232571   3.962   1.054   7.246  0.6861  0.9494 -1.4828
 3670TIP3   OH232572   5.349   5.072   1.183 -0.5297 -0.1401 -0.1370
 3670TIP3    H132573   5.408   5.020   1.238 -2.0099 -0.8902  0.7798
 3670TIP3    H232574   5.365   5.162   1.210 -1.9716 -0.5448  2.3642
 3671TIP3   OH232575   0.659   5.914   1.655  0.5905 -0.0432  0.2101
 3671TIP3    H132576   0.600   5.923   1.729  0.6797 -1.8308  0.5309
 3671TIP3    H232577   0.623   5.841   1.604  2.0803 -0.6756  0.0152
 3672TIP3   OH232578   2.526   3.624   6.645  0.0105 -0.4035  0.3308
 3672TIP3    H132579   2.589   3.578   6.589 -0.5687 -1.2794  0.3849
 3672TIP3    H232580   2.526   3.714   6.612  1.9060 -0.1477  0.8591
 3673TIP3   OH232581   0.417   5.291   8.207 -0.5353 -0.0263 -0.3615
 3673TIP3    H132582   0.476   5.286   8.282  0.0424  0.9221 -0.7257
 3673TIP3    H232583   0.370   5.208   8.207 -1.8994  0.6234  2.1541
 3674TIP3   OH232584   1.838   3.301   7.682 -0.3167  0.0820  0.1903
 3674TIP3    H132585   1.857   3.394   7.672  1.1230 -0.3041 -0.9690
 3674TIP3    H232586   1.751   3.299   7.723 -1.1224  1.9352 -1.2586
 3675TIP3   OH232587   3.546   4.478   8.274 -0.2428 -0.4606 -0.0523
 3675TIP3    H132588   3.559   4.571   8.253 -0.8661 -0.4144 -0.2309
 3675TIP3    H232589   3.615   4.458   8.337 -0.8553  0.4356  0.9265
 3676TIP3   OH232590   1.609   1.097   7.160  0.1235  0.3350  0.5356
 3676TIP3    H132591   1.590   1.190   7.173 -1.6790 -0.2307  2.3660
 3676TIP3    H232592   1.605   1.085   7.065 -0.5856  1.9452  0.3323
 3677TIP3   OH232593   3.078   1.887   8.177 -0.3027 -0.7517 -0.6449
 3677TIP3    H132594   3.157   1.920   8.134  0.0322 -1.6812 -0.7757
 3677TIP3    H232595   3.018   1.867   8.106  0.0931 -1.8893 -0.6897
 3678TIP3   OH232596   1.394   0.951   0.747  0.4222  0.1127  0.0938
 3678TIP3    H132597   1.390   0.953   0.842 -1.6116  0.5958  0.0522
 3678TIP3    H232598   1.422   1.039   0.722  0.9867 -0.0242  0.2410
 3679TIP3   OH232599   4.224   2.341   6.193  0.0364 -0.3601 -0.0192
 3679TIP3    H132600   4.148   2.311   6.144 -0.0490  1.5234 -1.1021
 3679TIP3    H232601   4.226   2.436   6.180  1.3762 -0.0967  1.7102
 3680TIP3   OH232602   1.508   6.730   2.117 -0.1352 -0.3403  0.1810
 3680TIP3    H132603   1.434   6.687   2.075  0.9504 -1.0818 -1.0445
 3680TIP3    H232604   1.583   6.674   2.096  1.1059  1.4309 -0.3198
 3681TIP3   OH232605   3.461   6.566   8.105  0.4832 -0.0769  0.1274
 3681TIP3    H132606   3.422   6.511   8.036  1.1450 -0.9644  0.4508
 3681TIP3    H232607   3.466   6.653   8.065  1.3328 -0.6759 -1.1529
 3682TIP3   OH232608   0.874   2.633   0.816 -0.1870 -0.3826  0.6785
 3682TIP3    H132609   0.853   2.576   0.890 -1.6878  0.7216  1.1668
 3682TIP3    H232610   0.817   2.602   0.745 -2.4582  1.6055  1.5147
 3683TIP3   OH232611   4.573   2.258   6.514  0.2173  0.1232  0.1229
 3683TIP3    H132612   4.530   2.183   6.556  0.4584 -0.0989 -0.0219
 3683TIP3    H232613   4.564   2.329   6.578 -0.0877 -0.0026  0.2263
 3684TIP3   OH232614   4.424   3.451   1.503  0.1819 -0.0286 -0.3700
 3684TIP3    H132615   4.331   3.469   1.519  0.1969 -0.2187 -0.0693
 3684TIP3    H232616   4.428   3.426   1.411  0.1701  1.5942 -0.8441
 3685TIP3   OH232617   4.348   0.210   1.799 -0.2241 -0.3464 -0.0006
 3685TIP3    H132618   4.430   0.191   1.753 -0.0396  1.7839 -0.6536
 3685TIP3    H232619   4.343   0.143   1.867  2.6932  0.1718  0.8683
 3686TIP3   OH232620   1.883   1.133   0.172  0.0078  0.2500  0.1315
 3686TIP3    H132621   1.844   1.189   0.105 -1.4300  1.0671  1.6141
 3686TIP3    H232622   1.949   1.188   0.214 -1.0916  0.7449  1.2817
 3687TIP3   OH232623   0.849   4.016   1.959 -0.1723 -0.3500  0.2382
 3687TIP3    H132624   0.817   3.982   2.043  0.1307  0.4657  0.6953
 3687TIP3    H232625   0.826   4.109   1.960  0.9087 -0.0661 -0.0507
 3688TIP3   OH232626   0.538   6.327   8.017  0.2898 -0.5815  0.2271
 3688TIP3    H132627   0.620   6.347   7.971 -0.0782 -0.7109 -0.4961
 3688TIP3    H232628   0.564   6.318   8.109  1.4564 -2.8268 -0.2672
 3689TIP3   OH232629   3.317   4.458   8.624  0.4309 -0.2449  0.5386
 3689TIP3    H132630   3.260   4.534   8.614  0.0610 -0.6399 -0.4765
 3689TIP3    H232631   3.264   4.393   8.669  0.4096 -0.2718  0.4741
 3690TIP3   OH232632   4.111   5.630   8.542  0.0385 -0.3536  0.3218
 3690TIP3    H132633   4.182   5.574   8.573  0.8616  0.0144 -0.8135
 3690TIP3    H232634   4.042   5.569   8.516 -0.2141 -0.7031  1.7336
 3691TIP3   OH232635   3.919   6.674   7.879 -0.0451  0.3179  0.0486
 3691TIP3    H132636   3.940   6.629   7.797  0.9630 -2.3248  1.6232
 3691TIP3    H232637   3.842   6.628   7.913 -0.1115  0.9869  0.8306
 3692TIP3   OH232638   5.941   3.410   8.248 -0.0381 -0.0935  0.1983
 3692TIP3    H132639   5.951   3.481   8.185 -1.6260  0.1297  0.1629
 3692TIP3    H232640   5.856   3.372   8.228 -0.0047 -0.8404  1.3891
 3693TIP3   OH232641   5.603   6.682   0.678  0.1688  0.4741 -0.5534
 3693TIP3    H132642   5.523   6.670   0.626 -0.0266 -2.0372  0.1672
 3693TIP3    H232643   5.674   6.665   0.617  0.1227  1.7113 -0.9619
 3694TIP3   OH232644   4.192   4.870   1.638 -0.1138  0.0787 -0.1139
 3694TIP3    H132645   4.263   4.809   1.617 -0.3786  0.0780 -1.0458
 3694TIP3    H232646   4.234   4.937   1.693  0.5855  0.0094 -0.5530
 3695TIP3   OH232647   6.300   3.044   8.502  0.3032 -0.0106 -0.1665
 3695TIP3    H132648   6.304   2.958   8.543 -0.0815 -0.2502 -0.6335
 3695TIP3    H232649   6.335   3.031   8.414 -1.6385 -0.1372 -0.9718
 3696TIP3   OH232650   1.578   5.803   1.023 -0.5444  0.2557  0.2428
 3696TIP3    H132651   1.517   5.820   0.952 -0.3521 -0.6282 -0.1387
 3696TIP3    H232652   1.608   5.890   1.050 -2.6256  0.7840  1.0456
 3697TIP3   OH232653   2.418   6.183   6.428 -0.1037 -0.0742 -0.2352
 3697TIP3    H132654   2.441   6.095   6.398 -0.9601  0.0957 -1.4862
 3697TIP3    H232655   2.495   6.236   6.410  1.1500 -0.8882  2.2705
 3698TIP3   OH232656   0.405   1.744   8.248 -0.5779 -0.3733  0.0353
 3698TIP3    H132657   0.326   1.796   8.258 -1.4471 -1.6109 -0.2188
 3698TIP3    H232658   0.386   1.685   8.175  1.5785  1.0882 -1.8824
 3699TIP3   OH232659   6.664   6.417   1.976 -0.0402 -0.8484  0.5064
 3699TIP3    H132660   6.580   6.462   1.969  0.3977  0.1036  1.1498
 3699TIP3    H232661   6.689   6.427   2.068  1.9059  0.9797 -0.1589
 3700TIP3   OH232662   3.823   4.394   2.408 -0.2707  0.2768  0.0017
 3700TIP3    H132663   3.846   4.347   2.328 -1.0085  0.3944 -0.2860
 3700TIP3    H232664   3.752   4.342   2.447 -0.6602  0.8018  0.0085
 3701TIP3   OH232665   4.772   1.963   0.541 -0.3160 -0.1194 -0.4318
 3701TIP3    H132666   4.728   1.909   0.475 -0.3243  0.3648 -0.8255
 3701TIP3    H232667   4.778   2.049   0.501 -0.5837  0.2548  0.3205
 3702TIP3   OH232668   3.587   4.018   1.243 -0.1373 -0.5922 -0.1447
 3702TIP3    H132669   3.543   3.966   1.175 -1.3478 -0.4033  0.4718
 3702TIP3    H232670   3.588   3.962   1.320 -1.4704  0.2598  0.5327
 3703TIP3   OH232671   2.764   2.909   2.240  0.1780  0.4326  0.6451
 3703TIP3    H132672   2.776   2.814   2.246  3.6331  0.5802 -1.2012
 3703TIP3    H232673   2.813   2.944   2.314  0.9356  0.7859 -0.0050
 3704TIP3   OH232674   4.847   2.741   1.157  0.5359  0.0304 -0.1149
 3704TIP3    H132675   4.806   2.772   1.076 -0.1092 -0.1531  0.1348
 3704TIP3    H232676   4.792   2.776   1.227 -0.1296 -1.5263  0.1815
 3705TIP3   OH232677   3.662   1.158   6.875 -0.2864  0.3360  0.3630
 3705TIP3    H132678   3.716   1.134   6.800  0.0246  1.4298  0.2151
 3705TIP3    H232679   3.584   1.198   6.836 -0.8476 -0.4961  0.5986
 3706TIP3   OH232680   6.564   4.279   7.494  0.5610  0.5769 -0.0537
 3706TIP3    H132681   6.487   4.299   7.547  0.2448 -0.0013 -0.2781
 3706TIP3    H232682   6.622   4.354   7.505 -0.2386  1.2375 -0.2542
 3707TIP3   OH232683   0.722   4.925   6.953 -0.1865  0.0237 -0.2968
 3707TIP3    H132684   0.722   4.996   7.018 -1.0899 -2.1579  2.2548
 3707TIP3    H232685   0.677   4.962   6.877  2.1162  3.1406 -0.3359
 3708TIP3   OH232686   5.750   3.874   0.791 -0.1507 -0.1237 -0.1036
 3708TIP3    H132687   5.731   3.890   0.883 -0.2108 -0.0782 -0.1233
 3708TIP3    H232688   5.693   3.801   0.767 -0.3601  0.0662 -0.1838
 3709TIP3   OH232689   0.688   0.521   6.400  0.5325  0.0041 -0.0466
 3709TIP3    H132690   0.765   0.576   6.415  1.9251 -2.1621  1.3617
 3709TIP3    H232691   0.614   0.580   6.416  1.9265  1.3592  2.0526
 3710TIP3   OH232692   6.417   0.183   7.284 -0.1978  0.3094 -0.4679
 3710TIP3    H132693   6.425   0.216   7.374 -0.8082 -1.1120  0.1376
 3710TIP3    H232694   6.323   0.189   7.265 -0.1906 -0.2310 -0.6826
 3711TIP3   OH232695   1.960   5.277   8.163  0.4687  0.3589 -0.2512
 3711TIP3    H132696   1.908   5.277   8.244  0.8266  1.7292  0.0092
 3711TIP3    H232697   1.895   5.274   8.093  0.1741 -1.6193  0.0574
 3712TIP3   OH232698   6.606   0.605   7.582 -0.0453 -0.6591  0.1212
 3712TIP3    H132699   6.640   0.667   7.517 -0.9865 -0.4339 -0.1754
 3712TIP3    H232700   6.665   0.614   7.657  1.0519 -0.9071 -0.6767
 3713TIP3   OH232701   2.409   2.463   0.270  0.4092 -0.3181 -0.7312
 3713TIP3    H132702   2.499   2.488   0.249  0.0845 -0.4615 -2.4403
 3713TIP3    H232703   2.378   2.531   0.330  0.9366  1.0079 -1.8993
 3714TIP3   OH232704   6.399   2.670   0.185 -0.4589 -0.0178  0.1517
 3714TIP3    H132705   6.351   2.621   0.118  0.7889  0.2710 -0.9878
 3714TIP3    H232706   6.393   2.761   0.157  1.2759 -0.0353 -0.3804
 3715TIP3   OH232707   4.666   3.693   0.932  0.3959  0.1877  0.2219
 3715TIP3    H132708   4.674   3.601   0.957 -1.0759 -0.2527 -0.8453
 3715TIP3    H232709   4.657   3.740   1.016  0.6652 -0.6765  0.7458
 3716TIP3   OH232710   0.764   0.997   1.958  0.1262  0.3281  0.4167
 3716TIP3    H132711   0.822   0.932   1.918 -0.0148  0.9698 -0.8805
 3716TIP3    H232712   0.738   0.957   2.041  0.5281 -1.0012 -0.0593
 3717TIP3   OH232713   4.300   5.514   6.946 -0.9458 -0.1451 -0.9869
 3717TIP3    H132714   4.389   5.499   6.913 -0.6749 -0.0557 -0.3006
 3717TIP3    H232715   4.284   5.607   6.928 -1.6282 -0.5672 -2.8257
 3718TIP3   OH232716   5.332   3.368   1.680 -0.5726 -0.3358 -0.1757
 3718TIP3    H132717   5.340   3.374   1.775 -0.4321  2.3780 -0.2855
 3718TIP3    H232718   5.239   3.351   1.665 -1.0290  1.4125  0.4475
 3719TIP3   OH232719   6.361   2.363   7.964 -0.3146  0.7677 -0.1225
 3719TIP3    H132720   6.375   2.385   8.056 -2.5388  2.4120 -0.1141
 3719TIP3    H232721   6.449   2.361   7.927  0.6780 -0.4216  2.1001
 3720TIP3   OH232722   0.271   0.786   1.644 -0.0863  0.4135  0.1469
 3720TIP3    H132723   0.210   0.743   1.585  1.4993 -1.7298 -0.0779
 3720TIP3    H232724   0.291   0.720   1.710 -0.1361  2.0107  1.8228
 3721TIP3   OH232725   0.224   5.677   8.102 -0.7701 -0.0109 -0.0367
 3721TIP3    H132726   0.147   5.648   8.052  0.4446 -1.1851 -1.2982
 3721TIP3    H232727   0.298   5.633   8.061  0.8001  2.2268  0.2106
 3722TIP3   OH232728   6.082   4.271   0.152 -0.4453 -0.0191 -0.2397
 3722TIP3    H132729   6.078   4.349   0.096 -1.0635  0.0506 -0.1079
 3722TIP3    H232730   6.163   4.228   0.127 -1.1862 -0.5256 -1.9355
 3723TIP3   OH232731   5.303   0.086   0.790 -0.5798  0.6537 -0.4785
 3723TIP3    H132732   5.248   0.085   0.712  1.0238  0.2521 -1.6563
 3723TIP3    H232733   5.306  -0.006   0.818 -0.8528  0.7409 -0.1611
 3724TIP3   OH232734   1.633   0.697   1.228  0.0410 -0.0534  0.4237
 3724TIP3    H132735   1.553   0.670   1.182 -0.3255 -0.3100  1.1993
 3724TIP3    H232736   1.672   0.762   1.170 -1.7362  1.5436  0.9149
 3725TIP3   OH232737   1.357   5.521   0.070 -0.3790 -0.0793 -0.1723
 3725TIP3    H132738   1.369   5.445   0.012  0.4072  0.3609 -0.6128
 3725TIP3    H232739   1.263   5.534   0.074 -0.6017 -1.7769  0.8302
 3726TIP3   OH232740   5.153   4.903   8.012 -0.0789 -0.4033  0.0861
 3726TIP3    H132741   5.217   4.954   8.062 -0.5160  0.1639  0.0821
 3726TIP3    H232742   5.077   4.898   8.069  0.7493 -3.1556  1.1287
 3727TIP3   OH232743   5.634   5.973   8.135 -0.0763 -0.2617 -0.1545
 3727TIP3    H132744   5.677   6.044   8.184 -0.1765 -0.8819  0.8534
 3727TIP3    H232745   5.689   5.962   8.058 -0.3943  1.3231 -0.6599
 3728TIP3   OH232746   4.538   4.606   7.687 -0.1766 -0.6196 -0.6229
 3728TIP3    H132747   4.617   4.644   7.649 -0.3797 -0.0436 -0.4803
 3728TIP3    H232748   4.467   4.656   7.648 -0.4225 -0.5158 -0.0484
 3729TIP3   OH232749   1.379   3.941   8.325 -0.2210  0.0141 -0.4772
 3729TIP3    H132750   1.436   4.017   8.337  1.8673 -1.5004 -0.2659
 3729TIP3    H232751   1.378   3.898   8.411 -2.0094  0.1530 -0.3798
 3730TIP3   OH232752   4.912   5.507   7.079  0.3729 -0.0271  0.5020
 3730TIP3    H132753   4.958   5.590   7.095  0.9994 -0.1094 -0.7228
 3730TIP3    H232754   4.970   5.441   7.118  1.4552 -0.1476 -1.1972
 3731TIP3   OH232755   4.177   4.405   7.162 -0.3957 -0.5613 -0.8050
 3731TIP3    H132756   4.260   4.414   7.116 -0.4927 -1.3166 -1.1579
 3731TIP3    H232757   4.197   4.352   7.239 -0.1587  1.0342  0.2651
 3732TIP3   OH232758   5.473   5.604   8.542  0.0307 -0.0935 -0.0443
 3732TIP3    H132759   5.428   5.601   8.626 -0.1142  2.1501  0.0091
 3732TIP3    H232760   5.425   5.542   8.487  0.5364 -2.1180  1.6514
 3733TIP3   OH232761   6.504   1.440   1.250  0.1763 -0.8631  0.2373
 3733TIP3    H132762   6.566   1.370   1.231 -0.2356 -0.5964 -2.5546
 3733TIP3    H232763   6.558   1.512   1.284  1.9037  0.0681 -3.8647
 3734TIP3   OH232764   5.189   5.616   1.261 -0.1123 -0.4114 -0.1707
 3734TIP3    H132765   5.284   5.629   1.264 -0.2294  0.4937  0.0672
 3734TIP3    H232766   5.173   5.579   1.174  0.3469  0.5450 -0.6868
 3735TIP3   OH232767   5.699   1.282   8.428  0.1315 -0.1801 -0.6494
 3735TIP3    H132768   5.610   1.286   8.394 -0.0350 -0.0552 -0.2131
 3735TIP3    H232769   5.687   1.259   8.521  0.5405  0.1346 -0.5198
 3736TIP3   OH232770   3.017   4.085   2.535 -0.2187  0.4298 -0.3090
 3736TIP3    H132771   3.025   4.036   2.453  0.9575  1.1090 -0.6298
 3736TIP3    H232772   2.935   4.054   2.574 -0.4479 -0.4044 -1.4025
 3737TIP3   OH232773   3.138   0.997   0.685 -0.1200  0.1661  0.0046
 3737TIP3    H132774   3.135   1.045   0.768  0.9341  0.8083 -0.3134
 3737TIP3    H232775   3.208   0.933   0.696  0.7419  0.9523 -0.7325
 3738TIP3   OH232776   0.478   4.075   8.640 -0.3760 -0.2150 -0.1550
 3738TIP3    H132777   0.524   4.007   8.689  0.2705 -0.4809 -1.0907
 3738TIP3    H232778   0.386   4.056   8.653 -0.2047 -1.0140 -0.0395
 3739TIP3   OH232779   4.280   5.631   0.647 -0.8613 -0.4648  0.0121
 3739TIP3    H132780   4.262   5.703   0.708  1.6907  1.4348 -1.2947
 3739TIP3    H232781   4.286   5.553   0.703 -2.9858  0.4041  1.5662
 3740TIP3   OH232782   6.103   3.391   1.319 -0.8790 -0.0966 -0.5088
 3740TIP3    H132783   6.085   3.312   1.370 -0.5321 -0.0906 -0.3742
 3740TIP3    H232784   6.017   3.422   1.290 -0.9071 -1.5348 -2.0911
 3741TIP3   OH232785   6.458   3.584   8.346  0.2750 -0.1158  0.4132
 3741TIP3    H132786   6.383   3.592   8.404 -1.2392  0.3332 -1.5190
 3741TIP3    H232787   6.465   3.490   8.329 -0.1828 -0.1092  0.1861
 3742TIP3   OH232788   6.800   2.028   7.879 -0.0909 -0.5099 -0.6506
 3742TIP3    H132789   6.720   2.074   7.855  0.6961  1.1754 -0.1623
 3742TIP3    H232790   6.798   1.948   7.827 -0.5200  1.0255 -3.1426
 3743TIP3   OH232791   1.589   1.201   0.437 -0.2529 -0.0361 -0.1316
 3743TIP3    H132792   1.676   1.221   0.470  0.3632 -2.1366 -0.3679
 3743TIP3    H232793   1.535   1.191   0.515 -0.1257  0.5777  0.0370
 3744TIP3   OH232794   0.049   5.284   6.715  0.7598  0.0995 -0.1154
 3744TIP3    H132795   0.033   5.370   6.755 -1.5791 -0.1949 -0.2483
 3744TIP3    H232796  -0.038   5.255   6.686  1.6082 -1.9952 -0.7432
 3745TIP3   OH232797   6.515   6.017   7.599 -0.1841 -0.1959  0.0571
 3745TIP3    H132798   6.582   5.997   7.534 -1.1406 -1.0818 -0.6877
 3745TIP3    H232799   6.564   6.036   7.679  0.9407 -1.9271 -0.1748
 3746TIP3   OH232800   2.957   3.244   7.434  0.1505 -0.0914  0.6211
 3746TIP3    H132801   2.906   3.177   7.389 -1.2029  0.7013  0.9146
 3746TIP3    H232802   3.005   3.197   7.502 -3.1099 -0.4589  2.8618
 3747TIP3   OH232803   1.903   1.806   2.145 -0.7161  0.0271 -0.0852
 3747TIP3    H132804   1.992   1.839   2.127 -0.5251 -0.9553 -1.0697
 3747TIP3    H232805   1.855   1.882   2.174  0.2026  0.7906 -0.4941
 3748TIP3   OH232806   2.471   3.864   1.695 -0.1685 -0.4953 -0.0936
 3748TIP3    H132807   2.555   3.899   1.724 -0.1786 -0.3828 -0.1977
 3748TIP3    H232808   2.467   3.776   1.732  0.3615 -0.8123 -0.7602
 3749TIP3   OH232809   6.641   0.243   6.336  0.6354 -0.3490 -0.8472
 3749TIP3    H132810   6.596   0.324   6.362 -0.6033 -0.0774 -3.4616
 3749TIP3    H232811   6.730   0.254   6.367 -0.0127  1.1145  0.6365
 3750TIP3   OH232812   0.397   3.251   7.408  0.4489 -0.2574  0.3584
 3750TIP3    H132813   0.346   3.248   7.327 -1.0978  0.1026  1.2740
 3750TIP3    H232814   0.362   3.326   7.455  1.7301 -0.1108  1.1279
 3751TIP3   OH232815   0.350   6.152   8.295  0.3378 -0.5075 -0.6555
 3751TIP3    H132816   0.411   6.223   8.314 -0.1436  0.1697 -1.5499
 3751TIP3    H232817   0.398   6.072   8.317 -0.1310  0.1102  3.2738
 3752TIP3   OH232818   5.875   3.309   1.066 -0.4784 -0.0551  0.2244
 3752TIP3    H132819   5.837   3.353   1.142 -1.2979  0.8587 -0.6906
 3752TIP3    H232820   5.892   3.219   1.096 -0.2507  0.4384  1.6437
 3753TIP3   OH232821   4.495   4.057   7.820 -0.2240  0.4751 -0.0173
 3753TIP3    H132822   4.567   4.018   7.770 -0.6135  0.5823 -0.6837
 3753TIP3    H232823   4.427   4.074   7.754 -0.6208  0.9365  0.5005
 3754TIP3   OH232824   0.197   1.023   8.319 -0.3225  0.1976  0.4823
 3754TIP3    H132825   0.183   0.943   8.268 -2.2154  1.2403 -0.7182
 3754TIP3    H232826   0.266   1.070   8.271 -0.2906 -0.0046  0.3286
 3755TIP3   OH232827   4.989   2.628   1.836 -0.0871  0.6444  0.1653
 3755TIP3    H132828   4.981   2.555   1.775 -1.0959  1.8516 -1.2281
 3755TIP3    H232829   5.024   2.589   1.916 -2.1064 -1.6670  0.0312
 3756TIP3   OH232830   1.482   0.355   7.698 -0.1909 -0.6355  0.0711
 3756TIP3    H132831   1.564   0.308   7.706  0.3108 -0.2957 -2.3282
 3756TIP3    H232832   1.459   0.349   7.605 -2.3024  0.2394  0.4626
 3757TIP3   OH232833   5.089   4.457   8.091  0.0123 -0.1781  0.3257
 3757TIP3    H132834   5.180   4.430   8.081  0.0177 -0.1392  0.2735
 3757TIP3    H232835   5.062   4.417   8.174  0.3606  0.5860  0.8138
 3758TIP3   OH232836   2.145   2.247   1.849  0.7262  0.1918 -0.6070
 3758TIP3    H132837   2.113   2.333   1.823  2.2610  0.4392 -1.8564
 3758TIP3    H232838   2.229   2.265   1.891 -0.6280 -0.4203  2.6129
 3759TIP3   OH232839   3.510   0.978   0.730 -0.4115 -0.1861 -1.1676
 3759TIP3    H132840   3.440   1.043   0.727 -0.1342  0.1106 -1.3235
 3759TIP3    H232841   3.469   0.900   0.767 -1.3711 -0.7144 -3.2331
 3760TIP3   OH232842   5.053   6.395   0.402 -0.0135  1.1401  0.1402
 3760TIP3    H132843   5.000   6.474   0.392 -0.4911  0.8231  0.1895
 3760TIP3    H232844   5.072   6.366   0.313 -1.2890  0.3354  0.1086
 3761TIP3   OH232845   0.868   4.568   8.307  0.5878  0.4885 -0.3726
 3761TIP3    H132846   0.884   4.551   8.400 -1.1513  0.9619  0.0451
 3761TIP3    H232847   0.833   4.657   8.304  0.3400  0.3693 -1.4466
 3762TIP3   OH232848   4.915   2.602   8.690 -0.0011  0.3146  0.2602
 3762TIP3    H132849   4.947   2.518   8.659  0.7195  0.9761 -0.8616
 3762TIP3    H232850   4.820   2.596   8.683 -0.2686 -1.6457  3.5617
 3763TIP3   OH232851   0.524   6.124   7.292  0.0298 -0.5892 -0.4284
 3763TIP3    H132852   0.582   6.141   7.366  0.3614 -2.0819 -0.3232
 3763TIP3    H232853   0.574   6.154   7.216  0.0601  0.0956 -0.1498
 3764TIP3   OH232854   4.726   6.131   0.471  0.0922 -0.2326 -0.6272
 3764TIP3    H132855   4.739   6.044   0.434  0.9446  0.3074 -1.6524
 3764TIP3    H232856   4.691   6.183   0.399 -0.7269  0.2113  0.0647
 3765TIP3   OH232857   2.918   4.419   2.523  0.0631  0.1935 -0.5880
 3765TIP3    H132858   2.871   4.366   2.459 -0.0996  0.1011 -0.3922
 3765TIP3    H232859   2.906   4.509   2.493  0.1913  0.1360 -0.8216
 3766TIP3   OH232860   4.091   2.401   0.528 -0.0719  0.3575  0.6372
 3766TIP3    H132861   4.160   2.371   0.587 -0.4096  1.0224  1.3944
 3766TIP3    H232862   4.033   2.454   0.584  0.2003  1.9246 -0.4992
 3767TIP3   OH232863   1.389   6.222   7.829  0.1386 -0.4498  0.3225
 3767TIP3    H132864   1.410   6.276   7.906 -3.0471  1.5437  0.0116
 3767TIP3    H232865   1.422   6.272   7.755  0.3955 -0.7843  0.2086
 3768TIP3   OH232866   6.657   6.814   8.397  0.2753  0.3788  0.1971
 3768TIP3    H132867   6.569   6.825   8.431  0.8837 -0.9131  2.4103
 3768TIP3    H232868   6.713   6.862   8.459  1.4447 -2.1820  1.3119
 3769TIP3   OH232869   1.392   0.631   1.667  0.1644 -0.4810  0.7990
 3769TIP3    H132870   1.438   0.660   1.746  1.5480 -0.9268  0.1765
 3769TIP3    H232871   1.426   0.687   1.598 -0.1212 -0.9291  0.2922
 3770TIP3   OH232872   4.972   6.568   7.387  0.2950  0.5206 -0.1397
 3770TIP3    H132873   4.889   6.616   7.379 -0.4354 -0.1700  2.3382
 3770TIP3    H232874   5.038   6.637   7.399  0.0017  1.0484 -1.4068
 3771TIP3   OH232875   4.906   4.246   1.850  0.1676  0.0710  0.1727
 3771TIP3    H132876   4.850   4.169   1.840 -0.3555  0.5925 -1.1309
 3771TIP3    H232877   4.849   4.312   1.891  0.2345  0.1553  0.1316
 3772TIP3   OH232878   0.818   3.437   1.154 -0.3760 -0.5476  0.4144
 3772TIP3    H132879   0.898   3.385   1.153  0.2318  0.3497  1.0385
 3772TIP3    H232880   0.772   3.412   1.074  0.1229 -1.6861  0.4661
 3773TIP3   OH232881   3.641   2.425   8.435  0.4739 -0.0214 -0.0366
 3773TIP3    H132882   3.725   2.466   8.414 -0.4669  1.7313 -0.5863
 3773TIP3    H232883   3.597   2.488   8.492 -0.4555 -0.9550  0.3183
 3774TIP3   OH232884   4.233   3.363   7.959 -0.3829 -0.1458 -0.2276
 3774TIP3    H132885   4.311   3.311   7.978  0.2861  0.8470 -0.1821
 3774TIP3    H232886   4.236   3.377   7.864 -2.0297 -2.4456 -0.6920
 3775TIP3   OH232887   3.280   0.249   0.346  0.2651 -0.0592 -0.7749
 3775TIP3    H132888   3.213   0.318   0.347  0.8724  0.7515  3.0372
 3775TIP3    H232889   3.350   0.284   0.401  0.2420 -3.9134  2.1838
 3776TIP3   OH232890   5.888   2.090   8.398 -0.0267 -1.2412  0.9255
 3776TIP3    H132891   5.851   2.047   8.322  0.6066 -1.6787  0.8618
 3776TIP3    H232892   5.946   2.157   8.362 -1.2429 -0.0954  1.0200
 3777TIP3   OH232893   3.297   0.418   8.294 -0.1695 -0.3140  0.2470
 3777TIP3    H132894   3.249   0.465   8.226 -0.7931 -1.5088 -0.1604
 3777TIP3    H232895   3.370   0.377   8.248 -0.4790 -0.9611  0.3279
 3778TIP3   OH232896   2.375   2.926   5.987  0.5874  0.4243 -0.7370
 3778TIP3    H132897   2.462   2.964   5.985  0.2500  1.2156 -0.7056
 3778TIP3    H232898   2.315   3.001   5.987 -0.0685  0.0433  2.2186
 3779TIP3   OH232899   4.158   0.373   1.961  0.2614 -0.0830 -0.2290
 3779TIP3    H132900   4.224   0.332   1.906  0.3610 -0.6060  0.2707
 3779TIP3    H232901   4.178   0.342   2.050  1.5578  2.5576  0.5128
 3780TIP3   OH232902   4.026   5.187   1.848  0.7580  0.0785 -0.2063
 3780TIP3    H132903   4.006   5.210   1.939  0.2380 -1.1671  0.0222
 3780TIP3    H232904   4.086   5.255   1.818  1.2118  0.3193  1.1838
 3781TIP3   OH232905   4.175   0.137   8.706  0.0929 -0.1186  0.1021
 3781TIP3    H132906   4.266   0.142   8.678  0.3972  0.1162  1.0958
 3781TIP3    H232907   4.139   0.061   8.660  1.4522 -1.7014  1.5217
 3782TIP3   OH232908   4.070   4.657   7.230 -0.3054 -0.3591 -0.9593
 3782TIP3    H132909   4.051   4.677   7.138 -0.0712  2.1374 -0.5269
 3782TIP3    H232910   4.113   4.571   7.227  0.1212 -0.1284 -3.2363
 3783TIP3   OH232911   3.144   3.554   8.427 -0.6618 -0.1666  0.3182
 3783TIP3    H132912   3.108   3.567   8.515 -1.8320 -0.3735 -0.1167
 3783TIP3    H232913   3.072   3.517   8.377 -0.3495  0.9479 -1.0132
 3784TIP3   OH232914   0.170   0.683   7.381  0.3886 -0.1470  0.3641
 3784TIP3    H132915   0.256   0.723   7.393  0.4222  0.0363 -0.3925
 3784TIP3    H232916   0.127   0.693   7.465  1.0137 -0.0094  0.6769
 3785TIP3   OH232917   3.566   2.210   0.768 -0.2154 -0.5888  0.3265
 3785TIP3    H132918   3.579   2.123   0.805 -0.4833 -1.5115 -1.6231
 3785TIP3    H232919   3.477   2.207   0.731 -0.3423  0.6221  0.5003
 3786TIP3   OH232920   4.059   6.394   0.493  0.2886  0.4366 -0.2149
 3786TIP3    H132921   4.080   6.326   0.557 -0.0933  0.6011  0.0892
 3786TIP3    H232922   4.018   6.346   0.421 -3.6147  0.6566  1.5994
 3787TIP3   OH232923   3.063   2.426   0.825 -0.0919 -0.1308 -0.6021
 3787TIP3    H132924   3.051   2.333   0.843  3.7251 -0.8479 -0.8960
 3787TIP3    H232925   3.054   2.433   0.730 -1.5750  0.0736 -0.4637
 3788TIP3   OH232926   1.554   2.797   8.214  0.2825  0.3467  1.1431
 3788TIP3    H132927   1.554   2.790   8.310 -0.9834  1.9710  1.3051
 3788TIP3    H232928   1.512   2.882   8.196 -1.5100 -0.8792 -0.9065
 3789TIP3   OH232929   6.465   5.437   1.745  0.5195  0.1538 -0.1516
 3789TIP3    H132930   6.497   5.349   1.764 -0.3358  0.1223  1.2846
 3789TIP3    H232931   6.389   5.448   1.802  0.9635  2.0475  0.1538
 3790TIP3   OH232932   6.374   3.757   7.051 -0.1229 -0.2231  0.0504
 3790TIP3    H132933   6.334   3.720   6.973 -0.8897  0.4978  0.0934
 3790TIP3    H232934   6.465   3.776   7.024  0.6266 -3.0134  0.3239
 3791TIP3   OH232935   4.547   4.447   7.433 -0.2749 -0.0465  0.0249
 3791TIP3    H132936   4.501   4.461   7.350  0.8889  0.0039 -0.6217
 3791TIP3    H232937   4.477   4.443   7.499 -1.3152 -1.3193 -1.1089
 3792TIP3   OH232938   5.321   5.321   8.662 -0.7766 -0.5371  0.3394
 3792TIP3    H132939   5.365   5.365   8.734 -1.3591 -2.2550  1.8152
 3792TIP3    H232940   5.231   5.311   8.691 -1.4971  0.3173 -1.4108
 3793TIP3   OH232941   3.317   4.232   7.758  0.7167 -0.1227  0.2267
 3793TIP3    H132942   3.309   4.312   7.809  1.9988  0.1215  0.0822
 3793TIP3    H232943   3.254   4.171   7.797  2.1542 -0.1946  2.5631
 3794TIP3   OH232944   5.338   6.445   6.957  0.3536  0.4423 -0.1587
 3794TIP3    H132945   5.296   6.360   6.962 -1.5920  1.3191 -0.6521
 3794TIP3    H232946   5.415   6.438   7.013  0.3301 -1.6670 -0.3363
 3795TIP3   OH232947   2.772   2.796   8.204  0.0256  0.8875  0.4066
 3795TIP3    H132948   2.802   2.806   8.294  0.6612 -1.7085  0.5411
 3795TIP3    H232949   2.683   2.762   8.212  0.6347 -0.8572  0.1180
 3796TIP3   OH232950   2.297   3.119   8.294  0.3484 -0.2480  0.1196
 3796TIP3    H132951   2.325   3.102   8.205  0.6280 -1.4078  0.4122
 3796TIP3    H232952   2.345   3.056   8.347 -1.5763 -1.2083  0.8308
 3797TIP3   OH232953   2.967   2.349   6.355  0.0909 -0.0715  0.8970
 3797TIP3    H132954   2.872   2.356   6.346  0.2507 -0.2042 -1.7719
 3797TIP3    H232955   3.001   2.428   6.313  1.1778 -0.4261  1.0816
 3798TIP3   OH232956   5.537   5.312   8.188  0.4762  0.0408  0.0505
 3798TIP3    H132957   5.546   5.329   8.282 -2.2469  1.6421  0.1277
 3798TIP3    H232958   5.511   5.396   8.150 -0.9712 -1.1084 -1.7205
 3799TIP3   OH232959   2.634   0.751   0.791  0.1845  0.5957  0.7953
 3799TIP3    H132960   2.693   0.683   0.823  1.0033  0.9141  0.0298
 3799TIP3    H232961   2.556   0.704   0.762  1.4173 -0.2807 -1.3612
 3800TIP3   OH232962   2.755   6.651   0.002 -0.2646 -0.2189  0.2352
 3800TIP3    H132963   2.693   6.662   0.074 -0.0436 -1.0320  0.5646
 3800TIP3    H232964   2.712   6.589  -0.057 -0.0616 -0.2516  0.1220
 3801TIP3   OH232965   5.645   1.020   0.911 -0.0929 -0.2788 -0.5594
 3801TIP3    H132966   5.701   0.949   0.877  0.5407 -0.7471  1.3547
 3801TIP3    H232967   5.598   0.980   0.984  0.2617  1.2655  0.5444
 3802TIP3   OH232968   5.588   2.400   0.189 -0.4128  0.1160 -0.2694
 3802TIP3    H132969   5.653   2.335   0.217 -0.7773  0.0556  0.4531
 3802TIP3    H232970   5.637   2.482   0.184 -0.1820 -0.0122 -0.1487
 3803TIP3   OH232971   5.486   5.603   1.355 -0.1568 -0.6939 -0.4410
 3803TIP3    H132972   5.538   5.610   1.276  1.6605 -2.0171  0.5682
 3803TIP3    H232973   5.461   5.693   1.376 -0.1708 -0.2700 -2.1584
 3804TIP3   OH232974   4.610   3.100   8.740  0.4316  0.2174 -0.2591
 3804TIP3    H132975   4.575   3.090   8.828  0.3360  2.7833  0.0656
 3804TIP3    H232976   4.648   3.188   8.739  1.2370 -0.0921 -2.5132
 3805TIP3   OH232977   0.539   0.826   1.549 -0.5155 -0.0281  0.3329
 3805TIP3    H132978   0.448   0.797   1.560  0.0511 -1.2340  2.2539
 3805TIP3    H232979   0.591   0.746   1.556  0.7474  0.7063 -0.2672
 3806TIP3   OH232980   1.732   5.130   7.302  0.2315  0.1300 -0.8676
 3806TIP3    H132981   1.779   5.194   7.249  0.9059 -0.9686 -1.6466
 3806TIP3    H232982   1.651   5.174   7.326  0.2970  0.9774 -2.0846
 3807TIP3   OH232983   1.924   5.300   7.082 -0.2377  0.2470 -0.2534
 3807TIP3    H132984   1.847   5.350   7.110 -1.1916 -0.4738 -1.4710
 3807TIP3    H232985   1.887   5.224   7.037  1.1957 -0.6905  0.1103
 3808TIP3   OH232986   0.736   0.693   1.851 -0.2751  0.4704  0.2204
 3808TIP3    H132987   0.692   0.675   1.769  0.3007  2.7642 -0.6522
 3808TIP3    H232988   0.828   0.707   1.827 -0.1748  1.6097  1.1639
 3809TIP3   OH232989   4.006   3.133   1.817  0.0425  0.3461  0.3642
 3809TIP3    H132990   3.980   3.217   1.778 -3.3388 -0.6347  0.1778
 3809TIP3    H232991   3.966   3.134   1.904  0.8491 -0.6399  0.7578
 3810TIP3   OH232992   2.967   5.863   8.779  0.0650  0.1426  0.4025
 3810TIP3    H132993   2.968   5.768   8.791  0.8439  0.0870 -0.0101
 3810TIP3    H232994   2.913   5.896   8.850  0.3577 -0.5586  0.9609
 3811TIP3   OH232995   1.581   2.458   1.836 -0.3174  0.2021  0.1270
 3811TIP3    H132996   1.620   2.498   1.913 -0.6918  2.6139 -0.8514
 3811TIP3    H232997   1.489   2.480   1.841 -0.5063 -0.3810 -0.5660
 3812TIP3   OH232998   0.037   2.548   8.118  0.0327 -0.2255  0.3757
 3812TIP3    H132999  -0.024   2.510   8.056  1.0845 -0.4460 -0.5394
 3812TIP3    H233000   0.107   2.484   8.127 -0.4538 -0.5561  2.3978
 3813TIP3   OH233001   6.295   1.308   1.128 -0.1885 -0.3037  0.3636
 3813TIP3    H133002   6.312   1.217   1.103 -0.6195 -0.0436 -0.9559
 3813TIP3    H233003   6.370   1.333   1.182 -0.0354 -1.4166  0.6853
 3814TIP3   OH233004   5.284   2.083   6.813 -0.0374  0.0216 -0.0940
 3814TIP3    H133005   5.265   2.072   6.906  0.8701  0.7422  0.1930
 3814TIP3    H233006   5.347   2.155   6.810 -1.1645  1.0054 -1.3766
 3815TIP3   OH233007   1.317   5.766   8.141 -0.1906  1.0909 -0.3180
 3815TIP3    H133008   1.312   5.859   8.117 -0.4338  1.0574 -0.4099
 3815TIP3    H233009   1.286   5.763   8.232  0.3477  1.1673 -0.1288
 3816TIP3   OH233010   1.879   6.480   0.992 -0.5102 -0.2163 -0.3960
 3816TIP3    H133011   1.948   6.544   1.006 -1.6798  1.0583 -0.2508
 3816TIP3    H233012   1.847   6.460   1.079  0.6407 -1.9693 -0.3234
 3817TIP3   OH233013   3.771   3.606   0.138 -0.5822 -0.1467 -0.5214
 3817TIP3    H133014   3.722   3.687   0.151 -1.6139 -0.8191 -0.1474
 3817TIP3    H233015   3.790   3.574   0.226 -0.9147 -0.7419 -0.6608
 3818TIP3   OH233016   2.215   1.972   6.987 -0.1528 -0.4874  0.6209
 3818TIP3    H133017   2.130   1.949   6.950 -1.3195  2.9554  0.8420
 3818TIP3    H233018   2.254   2.030   6.921 -0.9897  3.3871  3.2418
 3819TIP3   OH233019   5.178   4.237   6.821  0.6600  0.1188 -0.8206
 3819TIP3    H133020   5.084   4.251   6.815  0.7512  0.5577 -1.4217
 3819TIP3    H233021   5.211   4.260   6.734  1.3792  0.4504 -0.4737
 3820TIP3   OH233022   3.170   2.874   2.192  0.4338 -0.0840  0.2415
 3820TIP3    H133023   3.113   2.945   2.163  1.1140 -0.1486 -1.3164
 3820TIP3    H233024   3.256   2.914   2.199  0.8206 -0.7365 -0.6440
 3821TIP3   OH233025   2.955   1.282   0.299 -0.9889  0.1032  0.0719
 3821TIP3    H133026   3.027   1.276   0.237 -0.5353  0.8153  0.5148
 3821TIP3    H233027   2.899   1.207   0.279 -0.7710  0.2345 -1.0866
 3822TIP3   OH233028   2.841   4.325   0.165 -0.1659 -0.4158  0.5720
 3822TIP3    H133029   2.771   4.314   0.101  0.4620 -1.1369 -0.0098
 3822TIP3    H233030   2.886   4.406   0.138  0.8680 -1.3663 -0.6788
 3823TIP3   OH233031   4.025   1.199   0.793 -0.0469 -0.0697 -0.0144
 3823TIP3    H133032   3.979   1.123   0.829 -1.6473  1.0394  0.3699
 3823TIP3    H233033   4.042   1.255   0.869 -2.2918  1.6868 -0.6857
 3824TIP3   OH233034   5.426   5.111   0.692  0.0044 -0.3090 -0.5744
 3824TIP3    H133035   5.361   5.062   0.743 -0.7852  0.8324 -0.4445
 3824TIP3    H233036   5.509   5.092   0.735 -0.5229 -0.1097  0.5661
 3825TIP3   OH233037   0.739   5.847   7.153 -0.6185 -0.1193 -0.8923
 3825TIP3    H133038   0.701   5.787   7.088 -1.3434 -0.5973 -0.0584
 3825TIP3    H233039   0.776   5.789   7.219 -0.8375  0.3558 -0.3496
 3826TIP3   OH233040   2.429   2.073   7.426 -0.0760 -0.0572  0.1728
 3826TIP3    H133041   2.523   2.079   7.442 -0.0954 -0.1377  0.3123
 3826TIP3    H233042   2.422   2.018   7.348 -0.0190 -0.2377  0.2944
 3827TIP3   OH233043   2.446   4.092   0.894 -0.5558  0.2516 -0.0279
 3827TIP3    H133044   2.542   4.087   0.898 -0.3200  1.6761 -2.2067
 3827TIP3    H233045   2.418   4.076   0.984  1.6771 -0.8094  0.5560
 3828TIP3   OH233046   6.148   4.081   0.867  0.2047  0.2588  0.3616
 3828TIP3    H133047   6.086   4.010   0.881 -0.1806  0.5058 -0.0661
 3828TIP3    H233048   6.234   4.041   0.880 -0.0645  0.2278  2.3112
 3829TIP3   OH233049   0.256   1.273   6.415  0.3960 -0.0224 -0.3012
 3829TIP3    H133050   0.340   1.287   6.371 -0.4492  0.5786 -1.7782
 3829TIP3    H233051   0.244   1.178   6.415  0.4817 -0.0436 -1.2640
 3830TIP3   OH233052   0.009   1.183   1.530  0.1500 -0.3208 -0.0489
 3830TIP3    H133053   0.088   1.149   1.572 -1.6106 -1.8643  2.2683
 3830TIP3    H233054  -0.035   1.234   1.598 -0.5934  1.0169 -1.4651
 3831TIP3   OH233055   0.020   5.223   8.583  0.1678 -0.8539 -0.2547
 3831TIP3    H133056  -0.076   5.220   8.588  0.1346  0.1007 -0.1221
 3831TIP3    H233057   0.050   5.190   8.667 -0.0074 -2.2962 -0.7293
 3832TIP3   OH233058   1.661   4.145   1.166 -0.5585  0.0089  0.4730
 3832TIP3    H133059   1.711   4.065   1.180  0.5711  0.6277  0.0702
 3832TIP3    H233060   1.613   4.157   1.248 -2.2335 -2.0651 -0.1013
 3833TIP3   OH233061   3.407   1.680   1.627  0.1724 -0.5972 -0.1266
 3833TIP3    H133062   3.331   1.629   1.600  0.2846 -0.0300 -1.6115
 3833TIP3    H233063   3.453   1.701   1.546 -0.1845  2.3385  0.2897
 3834TIP3   OH233064   2.020   0.961   7.888  0.0610  0.3452  0.0413
 3834TIP3    H133065   2.012   0.871   7.921 -0.0970 -0.5239 -2.2057
 3834TIP3    H233066   1.999   1.016   7.964  0.2776 -1.4907  1.5094
 3835TIP3   OH233067   4.587   1.701   0.560 -0.0639 -0.8880  0.6835
 3835TIP3    H133068   4.516   1.732   0.615 -0.4789  0.3410 -0.4940
 3835TIP3    H233069   4.572   1.607   0.551 -2.0388 -0.5327 -0.2039
 3836TIP3   OH233070   2.578   5.564   1.923 -0.0330 -0.4766  0.1755
 3836TIP3    H133071   2.502   5.510   1.902  0.1150 -0.8237  0.5255
 3836TIP3    H233072   2.541   5.641   1.967 -0.2968  0.0062 -0.8499
 3837TIP3   OH233073   4.714   2.988   1.491 -0.2706 -0.7115 -0.1089
 3837TIP3    H133074   4.756   3.065   1.529  0.2562 -0.6606 -0.7715
 3837TIP3    H233075   4.642   3.023   1.439 -1.0731 -0.7895  0.9184
 3838TIP3   OH233076   4.048   5.352   8.257  1.1782 -0.3778  0.1205
 3838TIP3    H133077   4.036   5.438   8.218  1.2981  0.1736  1.2420
 3838TIP3    H233078   3.979   5.298   8.219 -0.3953  0.8354  1.1061
 3839TIP3   OH233079   1.573   6.562   7.828  0.2462  0.4853  0.2830
 3839TIP3    H133080   1.575   6.505   7.752  0.4338  1.0054 -0.1068
 3839TIP3    H233081   1.665   6.569   7.855  0.0468 -0.7937  1.3964
 3840TIP3   OH233082   6.329   3.293   2.524  0.1983  0.0679  0.0359
 3840TIP3    H133083   6.347   3.384   2.546  3.3479  0.6301 -3.7145
 3840TIP3    H233084   6.249   3.296   2.472 -0.0208  0.6231  0.4027
 3841TIP3   OH233085   6.187   0.651   7.119  0.2754 -0.2494  0.4365
 3841TIP3    H133086   6.261   0.708   7.140  0.0150  0.4503 -0.4823
 3841TIP3    H233087   6.219   0.563   7.140  1.2587  0.0667  0.3534
 3842TIP3   OH233088   3.453   5.480   1.059 -0.5197 -0.5363 -0.7079
 3842TIP3    H133089   3.522   5.547   1.058 -0.3208 -0.7174  0.0312
 3842TIP3    H233090   3.491   5.408   1.110 -1.4824 -0.3947  0.2185
 3843TIP3   OH233091   4.879   5.099   6.772 -0.2557  0.6754 -0.2310
 3843TIP3    H133092   4.973   5.096   6.788 -0.3643  0.2076  0.3233
 3843TIP3    H233093   4.871   5.121   6.679  0.4071 -0.4762 -0.5702
 3844TIP3   OH233094   4.067   3.558   7.114 -0.3930  0.3020 -0.0103
 3844TIP3    H133095   4.065   3.646   7.077 -1.7496  0.2983  0.0010
 3844TIP3    H233096   4.127   3.565   7.189 -0.0976  1.0870 -0.3096
 3845TIP3   OH233097   1.975   5.559   7.129  0.2140  0.6510  0.0461
 3845TIP3    H133098   1.883   5.583   7.129  0.4967  1.8067 -0.5851
 3845TIP3    H233099   1.976   5.466   7.106 -0.8149  0.4996  0.5721
 3846TIP3   OH233100   5.550   2.461   7.297  0.6295 -0.9348  0.1357
 3846TIP3    H133101   5.500   2.539   7.323  2.5492  0.2571  0.4393
 3846TIP3    H233102   5.552   2.406   7.375 -1.3543 -1.7015 -0.2871
 3847TIP3   OH233103   6.364   4.292   8.414 -0.2708 -0.5783 -0.0592
 3847TIP3    H133104   6.401   4.360   8.470  1.6150 -0.9577 -0.7672
 3847TIP3    H233105   6.428   4.221   8.416 -0.4919 -0.9145 -2.0951
 3848TIP3   OH233106   1.873   0.043   1.968 -0.0584 -0.4969 -0.2253
 3848TIP3    H133107   1.793   0.052   1.916  0.4551  0.8768 -0.8382
 3848TIP3    H233108   1.879  -0.050   1.989 -1.3059 -0.7620 -0.9853
 3849TIP3   OH233109   0.217   5.468   1.004 -0.1872  0.3181 -0.4910
 3849TIP3    H133110   0.174   5.536   1.056  0.4432  0.3362  0.0124
 3849TIP3    H233111   0.197   5.491   0.913  0.2292  1.3151 -0.3416
 3850TIP3   OH233112   3.272   0.077   8.159  0.6939 -0.3248 -0.1340
 3850TIP3    H133113   3.329   0.074   8.236  0.2928 -1.3572  0.1448
 3850TIP3    H233114   3.322   0.031   8.091 -0.1091 -2.0354  0.3582
 3851TIP3   OH233115   2.299   6.466   8.604 -0.0217 -0.3813 -0.5002
 3851TIP3    H133116   2.345   6.464   8.687 -0.8564  0.3867  0.0031
 3851TIP3    H233117   2.221   6.411   8.617 -0.0439 -0.4368 -0.8407
 3852TIP3   OH233118   1.332   1.181   7.595  0.1061 -0.0332 -0.2846
 3852TIP3    H133119   1.276   1.183   7.673  1.6539  0.4855  0.8534
 3852TIP3    H233120   1.409   1.132   7.623  1.4232  1.5745 -0.9566
 3853TIP3   OH233121   3.258   3.456   8.786 -0.1303  0.0654 -0.4670
 3853TIP3    H133122   3.190   3.499   8.734  1.0604 -0.5169 -2.6275
 3853TIP3    H233123   3.269   3.370   8.746  1.3436 -0.1431  0.3029
 3854TIP3   OH233124   5.787   2.207   0.234  0.5102  0.5147  0.2908
 3854TIP3    H133125   5.877   2.222   0.206 -0.0421 -0.2655 -2.0917
 3854TIP3    H233126   5.776   2.112   0.232 -1.0242  0.6563 -1.9321
 3855TIP3   OH233127   1.890   2.774   6.435 -0.1170 -0.3521  0.1475
 3855TIP3    H133128   1.917   2.853   6.482  0.2293 -0.1595 -0.3630
 3855TIP3    H233129   1.797   2.764   6.457 -0.3948  0.6812 -0.4363
 3856TIP3   OH233130   5.475   2.999   8.817 -0.1368  0.1901  0.2244
 3856TIP3    H133131   5.407   2.981   8.882  0.2395 -1.1210  0.2825
 3856TIP3    H233132   5.433   2.982   8.733  0.6472 -2.6724  0.3342
 3857TIP3   OH233133   3.399   1.677   6.860  0.2385 -0.0573 -0.2990
 3857TIP3    H133134   3.346   1.701   6.784  0.2039  2.0225  0.3399
 3857TIP3    H233135   3.456   1.607   6.828 -1.1468 -0.6243 -1.6705
 3858TIP3   OH233136   3.102   3.296   0.251 -0.3408 -0.5879 -0.9542
 3858TIP3    H133137   3.084   3.205   0.273 -1.7692  0.0085  0.5327
 3858TIP3    H233138   3.189   3.313   0.288  0.0449 -1.3962 -1.4629
 3859TIP3   OH233139   6.191   4.780   6.162 -0.1011  0.4978 -0.0272
 3859TIP3    H133140   6.112   4.793   6.215 -1.1378  0.7179 -1.5791
 3859TIP3    H233141   6.213   4.688   6.174 -0.8427  0.3304  0.0645
 3860TIP3   OH233142   1.351   6.552   7.182 -0.0536  0.1709  0.1045
 3860TIP3    H133143   1.274   6.499   7.160  0.5256 -0.7330  0.2082
 3860TIP3    H233144   1.372   6.598   7.101  0.0510 -0.5555 -0.2880
 3861TIP3   OH233145   1.531   4.541   1.461 -0.4580  0.0183  0.1112
 3861TIP3    H133146   1.529   4.536   1.557  0.3369 -0.2268  0.1184
 3861TIP3    H233147   1.558   4.454   1.433  0.6660  0.4825 -0.2722
 3862TIP3   OH233148   5.670   5.502   6.753  0.0023  0.0875 -0.2270
 3862TIP3    H133149   5.764   5.502   6.738  0.0170  0.3251 -0.1392
 3862TIP3    H233150   5.640   5.416   6.723  0.1162  0.3488 -1.0985
 3863TIP3   OH233151   5.935   6.046   8.656  0.5891  0.5068 -0.4022
 3863TIP3    H133152   5.890   6.129   8.643 -1.1625 -0.2943  0.1932
 3863TIP3    H233153   5.866   5.980   8.651  1.9820 -0.9627 -1.2459
 3864TIP3   OH233154   4.213   5.816   7.014  0.1635 -0.2755  0.8500
 3864TIP3    H133155   4.163   5.887   6.973 -0.8737 -0.6846  1.3755
 3864TIP3    H233156   4.149   5.769   7.068  0.5832 -2.1993 -0.2097
 3865TIP3   OH233157   6.382   2.901   1.038 -0.6293 -0.1736 -0.3747
 3865TIP3    H133158   6.462   2.925   1.084 -0.2767 -0.5369 -0.7876
 3865TIP3    H233159   6.325   2.866   1.106  0.2967 -1.7505 -0.3657
 3866TIP3   OH233160   5.714   0.513   1.164  0.4415 -0.0717 -0.2210
 3866TIP3    H133161   5.781   0.445   1.166  1.3542  0.7911 -0.1458
 3866TIP3    H233162   5.637   0.473   1.205  0.2438 -1.7304 -2.1084
 3867TIP3   OH233163   3.991   2.383   2.048  0.1510  0.2034  0.6060
 3867TIP3    H133164   4.032   2.297   2.040 -2.0857 -0.8751 -0.1644
 3867TIP3    H233165   3.933   2.375   2.123 -0.1602  1.0173  0.4587
 3868TIP3   OH233166   0.466   5.288   0.303  0.7311 -0.4033 -0.0865
 3868TIP3    H133167   0.524   5.300   0.379  0.6838  0.3726 -0.1684
 3868TIP3    H233168   0.469   5.194   0.286 -0.5785 -0.8741  1.9085
 3869TIP3   OH233169   3.918   3.484   0.918  0.0484  0.0226  0.2024
 3869TIP3    H133170   3.911   3.577   0.900  4.1882  0.1384 -1.8177
 3869TIP3    H233171   3.974   3.478   0.995 -2.6583 -0.9010  2.2597
 3870TIP3   OH233172   4.930   3.536   2.449  0.2742 -0.1260 -0.3759
 3870TIP3    H133173   5.025   3.534   2.437  0.4720  2.9400 -0.2301
 3870TIP3    H233174   4.915   3.607   2.511 -2.1265 -0.8223 -0.0225
 3871TIP3   OH233175   1.241   3.800   0.847 -0.5630  0.6796 -0.3250
 3871TIP3    H133176   1.334   3.795   0.825 -0.6992  0.7168 -0.9438
 3871TIP3    H233177   1.198   3.748   0.779 -0.9495  0.2017  0.2770
 3872TIP3   OH233178   0.490   1.162   0.226 -0.1420 -0.4790 -0.9807
 3872TIP3    H133179   0.538   1.232   0.182  1.8453 -0.3220  1.2707
 3872TIP3    H233180   0.485   1.092   0.160  0.1762  0.7708 -2.3902
 3873TIP3   OH233181   3.983   1.537   6.548 -0.1758  0.1902  0.4559
 3873TIP3    H133182   4.024   1.464   6.501 -0.6521  0.2666 -0.0883
 3873TIP3    H233183   3.948   1.593   6.479 -1.2694  0.0815  0.8992
 3874TIP3   OH233184   4.761   3.060   2.633  0.6888  0.7465  0.1222
 3874TIP3    H133185   4.667   3.063   2.617  0.6951  0.6443  0.0591
 3874TIP3    H233186   4.797   3.129   2.577  0.6022  1.1092  0.5173
 3875TIP3   OH233187   0.483   4.154   0.219  0.1578  0.0935  0.1861
 3875TIP3    H133188   0.538   4.214   0.169 -0.3147  1.0588  0.7988
 3875TIP3    H233189   0.527   4.146   0.304 -0.8789  1.3127  0.8866
 3876TIP3   OH233190   4.568   4.497   1.444  0.1140  0.1727  0.0598
 3876TIP3    H133191   4.653   4.500   1.490 -0.1542  1.4432  0.4969
 3876TIP3    H233192   4.503   4.497   1.515 -0.2826 -1.9868 -0.2235
 3877TIP3   OH233193   0.475   1.847   1.983 -0.1297  0.5586  0.4675
 3877TIP3    H133194   0.524   1.863   2.064  0.0053  0.2543  0.4469
 3877TIP3    H233195   0.538   1.803   1.925 -1.1302 -2.1615  1.3235
 3878TIP3   OH233196   6.068   5.762   0.486  0.3720  0.0952  0.2499
 3878TIP3    H133197   6.004   5.806   0.542  1.2196  3.0234 -0.8908
 3878TIP3    H233198   6.093   5.828   0.422  2.0196 -2.0309 -1.4571
 3879TIP3   OH233199   0.637   4.439   2.180  0.4003  0.4605  0.4197
 3879TIP3    H133200   0.600   4.409   2.263 -1.8420  1.4595 -0.1466
 3879TIP3    H233201   0.698   4.508   2.205  1.5163 -0.7980  1.3444
 3880TIP3   OH233202   1.399   3.886   7.275 -0.2358  0.3510 -0.0389
 3880TIP3    H133203   1.315   3.877   7.318 -0.7340  0.4635 -0.9625
 3880TIP3    H233204   1.403   3.813   7.213  0.1328  0.6119 -0.3320
 3881TIP3   OH233205   6.422   3.692   8.082 -0.0881 -0.2021  0.5924
 3881TIP3    H133206   6.330   3.669   8.067  0.5019 -1.7522 -0.9575
 3881TIP3    H233207   6.441   3.654   8.168 -0.9078  0.1817  0.9544
 3882TIP3   OH233208   1.830   6.452   7.182  0.0511  0.5095  0.0495
 3882TIP3    H133209   1.885   6.382   7.218 -0.0398  0.8497  0.8804
 3882TIP3    H233210   1.851   6.453   7.088 -0.4536 -1.0740 -0.1104
 3883TIP3   OH233211   4.673   6.022   1.015 -0.2008  0.0762 -0.2157
 3883TIP3    H133212   4.649   6.086   1.082  0.4750  2.0519 -1.7838
 3883TIP3    H233213   4.697   6.074   0.939  2.3473 -1.9769 -0.9601
 3884TIP3   OH233214   2.442   2.831   8.195 -0.2096 -0.2125  0.1374
 3884TIP3    H133215   2.468   2.800   8.282  0.0294 -1.5279 -0.3847
 3884TIP3    H233216   2.384   2.762   8.162 -1.5225  0.9754 -0.1681
 3885TIP3   OH233217   4.301   6.203   2.481 -0.3534 -0.1260  0.1810
 3885TIP3    H133218   4.395   6.197   2.466 -0.3752  0.4942 -0.2658
 3885TIP3    H233219   4.270   6.263   2.412 -0.9164  0.4949  0.9612
 3886TIP3   OH233220   3.451   2.823   1.707  0.1135  0.1341  0.5007
 3886TIP3    H133221   3.490   2.810   1.794  2.6176  2.1606 -0.2038
 3886TIP3    H233222   3.517   2.789   1.646 -1.0926 -0.1875 -0.6555
 3887TIP3   OH233223   3.451   2.349   8.209 -0.2100  0.2493 -0.0510
 3887TIP3    H133224   3.426   2.257   8.207 -0.3601  0.2962 -0.3865
 3887TIP3    H233225   3.540   2.349   8.244 -0.2913 -0.0063  0.1553
 3888TIP3   OH233226   2.493   4.814   0.232  0.1209 -0.5467 -0.0168
 3888TIP3    H133227   2.423   4.846   0.176  0.0061 -1.2789 -0.2975
 3888TIP3    H233228   2.567   4.799   0.172 -0.5108 -2.9425 -0.3067
 3889TIP3   OH233229   1.772   0.212   8.580  0.1006  0.1766 -0.0259
 3889TIP3    H133230   1.840   0.159   8.621 -1.2172  0.0056  2.0673
 3889TIP3    H233231   1.699   0.211   8.642 -1.9597  0.1258 -2.2821
 3890TIP3   OH233232   3.003   4.630   7.984  0.5044  0.3190  0.1391
 3890TIP3    H133233   3.001   4.681   7.903  1.8287 -0.7411 -0.6016
 3890TIP3    H233234   2.924   4.577   7.981  0.3238  0.6050 -0.2434
 3891TIP3   OH233235   4.913   1.147   7.352 -0.0232 -0.0437  0.3156
 3891TIP3    H133236   4.914   1.112   7.441  0.5392 -2.0835 -0.4391
 3891TIP3    H233237   4.936   1.240   7.362  1.7276 -0.6215  2.1360
 3892TIP3   OH233238   4.241   0.001   7.429 -0.6861  0.5406  0.1640
 3892TIP3    H133239   4.184   0.076   7.443  0.8988  2.0984 -1.1844
 3892TIP3    H233240   4.183  -0.075   7.433 -2.5712  1.9175  0.3304
 3893TIP3   OH233241   2.398   1.680   8.444 -0.2457  0.8143  0.3451
 3893TIP3    H133242   2.449   1.607   8.481  0.4328  1.1230  0.0291
 3893TIP3    H233243   2.342   1.638   8.378 -1.2739  0.2976  1.5033
 3894TIP3   OH233244   5.213   5.317   0.719 -0.1366  0.0879 -0.2325
 3894TIP3    H133245   5.230   5.399   0.673 -1.1306 -0.4574 -1.6314
 3894TIP3    H233246   5.289   5.262   0.698 -0.1864  0.1348 -0.5414
 3895TIP3   OH233247   2.821   3.594   0.377  0.0731  0.3057  0.1267
 3895TIP3    H133248   2.891   3.579   0.314  1.2895 -0.6026  1.6316
 3895TIP3    H233249   2.865   3.614   0.459 -1.4631  1.3241  0.7649
 3896TIP3   OH233250   1.060   3.628   6.576 -0.3033 -0.7303  0.5873
 3896TIP3    H133251   1.155   3.631   6.572 -0.2726  0.1420  1.4627
 3896TIP3    H233252   1.032   3.719   6.564 -1.0130 -0.9399  0.5845
 3897TIP3   OH233253   5.365   3.564   1.225  0.2261 -0.3230  0.0649
 3897TIP3    H133254   5.420   3.490   1.199 -2.4717 -1.9024 -1.6002
 3897TIP3    H233255   5.386   3.632   1.162  2.2454  0.2132  1.2027
 3898TIP3   OH233256   5.638   6.403   8.002  0.4638  0.5097  0.0693
 3898TIP3    H133257   5.730   6.428   8.003  0.3594  1.3077 -2.3764
 3898TIP3    H233258   5.624   6.370   7.913 -1.6293  0.4866  0.3563
 3899TIP3   OH233259   3.241   1.466   1.488 -0.0104  0.0580 -0.1698
 3899TIP3    H133260   3.256   1.426   1.402  0.3895  0.7249 -0.4211
 3899TIP3    H233261   3.159   1.427   1.519  1.0773 -2.0426  0.2578
 3900TIP3   OH233262   4.612   3.425   0.726 -0.0022  0.0429  0.4598
 3900TIP3    H133263   4.530   3.472   0.741 -0.3838 -0.1172 -1.0620
 3900TIP3    H233264   4.593   3.363   0.656  1.3012 -0.3042  0.3802
 3901TIP3   OH233265   6.746   5.121   8.165  0.0865  0.7171  0.2930
 3901TIP3    H133266   6.717   5.181   8.234 -0.5870 -2.5097  3.0566
 3901TIP3    H233267   6.839   5.105   8.185  0.3223  0.9551 -0.5597
 3902TIP3   OH233268   1.178   3.149   8.055 -0.0524  1.0425 -0.0151
 3902TIP3    H133269   1.271   3.161   8.038  1.3287 -4.6361  1.4228
 3902TIP3    H233270   1.172   3.148   8.151 -1.3233  0.0090 -0.0862
 3903TIP3   OH233271   3.499   3.201   7.820 -0.2716 -0.4209 -0.0168
 3903TIP3    H133272   3.434   3.154   7.872 -0.4664 -0.8050 -0.5883
 3903TIP3    H233273   3.580   3.152   7.834 -0.2396 -0.3052  0.2102
 3904TIP3   OH233274   5.507   6.129   1.084  0.2599  0.1823  0.2738
 3904TIP3    H133275   5.421   6.089   1.089  1.4014 -2.4349  0.7796
 3904TIP3    H233276   5.524   6.160   1.173 -0.2494  0.9145  0.1165
 3905TIP3   OH233277   5.195   4.523   2.126  0.2412 -0.0671 -0.4936
 3905TIP3    H133278   5.188   4.434   2.091 -0.2206 -1.0278  1.8463
 3905TIP3    H233279   5.277   4.523   2.176  0.2420  0.8208 -0.4804
 3906TIP3   OH233280   6.648   5.638   1.620 -0.5238  0.2714 -0.5767
 3906TIP3    H133281   6.732   5.593   1.613 -0.8341 -0.2758 -0.8832
 3906TIP3    H233282   6.592   5.579   1.671 -0.9745  0.2374 -1.0916
 3907TIP3   OH233283   6.210   2.378   1.329 -0.3182  0.4266 -0.0387
 3907TIP3    H133284   6.289   2.398   1.280  0.3764 -1.5198  0.2214
 3907TIP3    H233285   6.158   2.459   1.325 -0.1002  0.5471 -3.5113
 3908TIP3   OH233286   1.668   3.825   8.153 -0.1788 -1.0211 -0.0155
 3908TIP3    H133287   1.705   3.745   8.190 -1.1534 -1.0269  1.0114
 3908TIP3    H233288   1.697   3.895   8.211  0.6059 -0.6167 -0.8638
 3909TIP3   OH233289   1.823   6.119   7.718  0.8396 -0.6615  0.2276
 3909TIP3    H133290   1.781   6.201   7.744  0.7892 -0.0528 -1.6577
 3909TIP3    H233291   1.754   6.053   7.725  0.7018 -0.4416  1.0981
 3910TIP3   OH233292   1.094   4.892   0.489  0.1084 -0.5139 -0.1404
 3910TIP3    H133293   1.131   4.980   0.482 -1.0965 -0.0685 -1.6338
 3910TIP3    H233294   1.040   4.895   0.568  1.6897 -0.5849  0.9744
 3911TIP3   OH233295   2.729   5.221   7.752 -0.1598 -0.5314 -0.0514
 3911TIP3    H133296   2.755   5.209   7.661 -2.0328 -0.7095 -0.6130
 3911TIP3    H233297   2.769   5.304   7.778 -0.2665 -0.0642 -1.3042
 3912TIP3   OH233298   2.216   5.340   0.829  0.3600  0.4313 -0.3641
 3912TIP3    H133299   2.275   5.313   0.758  0.9748  1.1547 -0.1378
 3912TIP3    H233300   2.232   5.276   0.898  0.5009  0.3223 -0.4943
 3913TIP3   OH233301   3.208   1.463   0.552 -0.0456 -0.3678 -0.1466
 3913TIP3    H133302   3.264   1.393   0.519 -0.8395 -0.5403 -1.1771
 3913TIP3    H233303   3.162   1.424   0.627  1.7712  0.0302  1.2510
 3914TIP3   OH233304   4.089   1.391   1.526  0.5451 -0.1008  0.0841
 3914TIP3    H133305   4.095   1.427   1.615  0.4476  0.0869  0.0155
 3914TIP3    H233306   4.076   1.297   1.539  0.0851 -0.0157  0.2786
 3915TIP3   OH233307   4.831   2.336   6.536  0.2064 -0.5624 -0.8323
 3915TIP3    H133308   4.763   2.283   6.493  0.1192 -0.2227 -1.1193
 3915TIP3    H233309   4.883   2.273   6.585 -1.2698 -0.6596  0.6843
 3916TIP3   OH233310   3.365   2.101   6.754  1.2270 -0.4250 -0.5844
 3916TIP3    H133311   3.424   2.141   6.689  0.4217 -2.0741 -2.4282
 3916TIP3    H233312   3.421   2.042   6.804  1.8049  0.6630  0.0948
 3917TIP3   OH233313   1.667   1.662   7.600 -0.3065 -0.6766 -0.0551
 3917TIP3    H133314   1.572   1.655   7.585 -0.6743  2.2961  0.2846
 3917TIP3    H233315   1.678   1.643   7.693 -0.5281 -1.2406 -0.1405
 3918TIP3   OH233316   6.643   4.013   8.644  0.5751 -0.0952  0.2338
 3918TIP3    H133317   6.552   4.002   8.616  0.8721 -0.2443 -0.6979
 3918TIP3    H233318   6.687   4.050   8.568  1.0156  1.2705  1.1240
 3919TIP3   OH233319   1.566   2.218   1.721  0.0925  0.0354 -0.3478
 3919TIP3    H133320   1.566   2.313   1.733 -0.6312 -0.2275  2.3103
 3919TIP3    H233321   1.655   2.191   1.746 -0.3489 -0.1498  1.1504
 3920TIP3   OH233322   4.841   1.437   0.561  0.1785  0.0202  0.3140
 3920TIP3    H133323   4.857   1.507   0.497 -1.4111 -1.0750 -1.3771
 3920TIP3    H233324   4.873   1.358   0.518 -0.6144 -0.7005  1.0318
 3921TIP3   OH233325   1.821   4.365   1.361 -0.4384  0.1418  0.0261
 3921TIP3    H133326   1.752   4.332   1.418 -0.5436  2.0185  1.0959
 3921TIP3    H233327   1.854   4.443   1.407  1.7089 -0.1310 -0.9392
 3922TIP3   OH233328   5.091   4.551   8.628 -0.1917 -0.2094  0.0416
 3922TIP3    H133329   5.147   4.522   8.700 -1.6634  0.0565  1.3432
 3922TIP3    H233330   5.003   4.521   8.652 -1.0868  1.7445 -0.5691
 3923TIP3   OH233331   1.032   5.093   1.031 -0.6661 -0.1754  0.1391
 3923TIP3    H133332   1.081   5.082   1.113 -0.7850 -3.1054 -0.0721
 3923TIP3    H233333   0.943   5.113   1.059 -0.7075 -1.1615  0.7440
 3924TIP3   OH233334   5.519   0.727   8.814  0.5093 -0.2433  0.5078
 3924TIP3    H133335   5.552   0.679   8.738  0.5397 -2.5046  1.8553
 3924TIP3    H233336   5.423   0.724   8.804  0.5218  1.6217 -0.6386
 3925TIP3   OH233337   3.167   0.066   6.548  1.0191 -0.0362 -0.6945
 3925TIP3    H133338   3.213  -0.003   6.500 -0.7201 -0.7474 -1.4479
 3925TIP3    H233339   3.075   0.038   6.548  0.5615  1.2744  0.7820
 3926TIP3   OH233340   6.774   6.390   0.055  0.4505 -0.6112 -0.1531
 3926TIP3    H133341   6.716   6.357   0.123 -0.2413 -1.9862 -1.3771
 3926TIP3    H233342   6.798   6.313   0.003  2.0611  0.1825 -0.6676
 3927TIP3   OH233343   2.510   0.457   0.952  0.3006  0.2153 -0.2559
 3927TIP3    H133344   2.484   0.529   1.009  1.8949 -0.1772  1.0440
 3927TIP3    H233345   2.477   0.481   0.866  0.8926  2.5897  0.1085
 3928TIP3   OH233346   4.692   2.641   7.882 -0.2967 -0.1196 -0.0678
 3928TIP3    H133347   4.712   2.706   7.815 -0.8314 -0.7454 -0.8619
 3928TIP3    H233348   4.772   2.634   7.934 -0.0008  0.6498 -0.4017
 3929TIP3   OH233349   0.843   6.347   0.972  0.5875  0.2355  0.2696
 3929TIP3    H133350   0.832   6.355   0.877  2.2872  0.1271  0.0388
 3929TIP3    H233351   0.892   6.425   0.998 -0.3356  0.5469  1.1711
 3930TIP3   OH233352   4.592   6.244   1.228 -0.5582  0.1312  0.4711
 3930TIP3    H133353   4.558   6.269   1.142  1.7855  2.2807  0.0505
 3930TIP3    H233354   4.600   6.327   1.275  0.9642 -0.6643  1.6990
 3931TIP3   OH233355   0.560   1.535   8.362  0.0200  0.0110  0.0788
 3931TIP3    H133356   0.624   1.526   8.291 -0.5274  1.7758 -0.6893
 3931TIP3    H233357   0.500   1.603   8.332 -1.3123 -0.5032  1.4612
 3932TIP3   OH233358   4.452   6.644   1.765 -0.0016  0.3045  0.0390
 3932TIP3    H133359   4.530   6.593   1.744  0.0479 -0.0628  1.0427
 3932TIP3    H233360   4.485   6.720   1.812 -0.2244  0.2408  0.3024
 3933TIP3   OH233361   0.044   2.681   0.480 -0.5817  0.1727 -0.1836
 3933TIP3    H133362   0.036   2.599   0.431  0.5505 -1.1411  1.6874
 3933TIP3    H233363   0.078   2.743   0.416 -2.6181 -0.4107 -1.9795
 3934TIP3   OH233364   3.694   4.100   6.724  0.1717 -0.5044 -0.5085
 3934TIP3    H133365   3.669   4.012   6.752 -0.4951 -0.1779 -0.0498
 3934TIP3    H233366   3.787   4.107   6.744 -0.3371 -0.1640  2.0270
 3935TIP3   OH233367   4.737   3.603   8.667  0.2737 -0.2391 -0.2580
 3935TIP3    H133368   4.716   3.640   8.582  0.5553  1.0204  0.1917
 3935TIP3    H233369   4.747   3.679   8.724 -2.6990 -1.0714  1.5830
 3936TIP3   OH233370   0.029   1.845   1.584  0.3437 -0.3723  0.1753
 3936TIP3    H133371  -0.055   1.866   1.623  0.8091  0.4778  0.7764
 3936TIP3    H233372   0.076   1.929   1.583  0.4173 -0.3854 -2.0819
 3937TIP3   OH233373   4.429   2.778   0.283 -0.3941  0.5722 -0.7371
 3937TIP3    H133374   4.383   2.761   0.201  0.8396  0.4230 -1.4273
 3937TIP3    H233375   4.388   2.720   0.347  0.8394 -1.8526 -2.0423
 3938TIP3   OH233376   2.170   5.500   6.635  0.1187  0.4572  0.1095
 3938TIP3    H133377   2.124   5.491   6.718 -0.4034  0.8554 -0.1276
 3938TIP3    H233378   2.217   5.583   6.642  1.4247 -0.2937  0.6340
 3939TIP3   OH233379   6.110   2.849   8.495  0.4213 -0.2152 -0.6139
 3939TIP3    H133380   6.168   2.897   8.436  0.0245  1.1832  0.0776
 3939TIP3    H233381   6.155   2.767   8.512  1.9216  0.5908 -0.5549
 3940TIP3   OH233382   3.629   4.297   8.084  0.0773  0.3576  0.4076
 3940TIP3    H133383   3.598   4.351   8.156 -0.4602 -0.0344  0.4762
 3940TIP3    H233384   3.659   4.216   8.126  1.3183  0.7749  0.3563
 3941TIP3   OH233385   5.194   4.675   2.353 -0.1194 -0.4180 -0.2256
 3941TIP3    H133386   5.100   4.684   2.370 -0.1337 -0.0379 -0.4797
 3941TIP3    H233387   5.216   4.753   2.303  0.6081  0.1595  0.9579
 3942TIP3   OH233388   2.022   3.807   0.637  0.4493  0.7767 -0.3885
 3942TIP3    H133389   1.974   3.889   0.627 -0.4481  0.4260  0.8633
 3942TIP3    H233390   2.092   3.827   0.699 -0.7576  0.2308  1.2063
 3943TIP3   OH233391   6.663   4.840   8.691  0.4062 -0.2584  0.9641
 3943TIP3    H133392   6.739   4.894   8.712 -0.3214  0.9797  0.5373
 3943TIP3    H233393   6.606   4.898   8.640 -0.4354 -1.4229  0.5390
 3944TIP3   OH233394   2.589   1.308   0.032 -0.4664  0.0122 -0.2097
 3944TIP3    H133395   2.653   1.370   0.067  0.6275 -1.5129  0.6403
 3944TIP3    H233396   2.642   1.243  -0.015 -1.4656 -0.8312 -0.1968
 3945TIP3   OH233397   5.003   0.410   8.453  0.0459  0.1321  0.6164
 3945TIP3    H133398   4.911   0.394   8.431  0.4103 -0.4387 -0.5700
 3945TIP3    H233399   5.009   0.505   8.466 -0.3855  0.4044 -0.9618
 3946TIP3   OH233400   0.712   6.449   7.318 -0.0935 -0.3957  0.1372
 3946TIP3    H133401   0.691   6.533   7.359 -0.2075 -0.2844 -0.1481
 3946TIP3    H233402   0.783   6.468   7.258 -1.3788 -0.1009 -1.3602
 3947TIP3   OH233403   5.825   6.329   7.364  0.4868 -0.2081 -0.0277
 3947TIP3    H133404   5.829   6.268   7.290 -0.7592 -0.0272 -0.2774
 3947TIP3    H233405   5.916   6.342   7.390  0.9588 -0.2953 -1.5241
 3948TIP3   OH233406   5.082   0.721   1.285 -0.0416  0.1985  0.0780
 3948TIP3    H133407   5.033   0.705   1.203  0.7492  1.9510 -0.7818
 3948TIP3    H233408   5.165   0.677   1.271 -0.2964 -0.3898  0.3849
 3949TIP3   OH233409   3.369   0.996   0.340 -0.5607  0.2687 -0.1632
 3949TIP3    H133410   3.449   0.991   0.287 -0.9314  1.5300 -0.8884
 3949TIP3    H233411   3.372   0.918   0.396  2.3265  1.4228  1.5026
 3950TIP3   OH233412   4.646   1.154   6.298  0.4778 -0.2402 -0.6041
 3950TIP3    H133413   4.652   1.237   6.346 -0.8932  0.1672 -1.1028
 3950TIP3    H233414   4.557   1.153   6.263  0.4642 -1.9410 -0.5831
 3951TIP3   OH233415   4.820   6.197   0.173  0.0594  0.3218 -0.3338
 3951TIP3    H133416   4.742   6.174   0.225  0.0788 -0.8708 -0.8079
 3951TIP3    H233417   4.792   6.188   0.082  0.5760  0.4975 -0.5139
 3952TIP3   OH233418   4.358   2.744   7.276  0.1242 -1.2999  0.3294
 3952TIP3    H133419   4.424   2.675   7.279  2.1334  0.4799  0.2640
 3952TIP3    H233420   4.399   2.812   7.222 -1.2386  0.4252  1.3841
 3953TIP3   OH233421   4.304   0.262   8.032  0.5005  0.1136 -0.0249
 3953TIP3    H133422   4.382   0.291   7.985 -0.1082  0.9217 -0.5660
 3953TIP3    H233423   4.247   0.226   7.965  0.2858 -0.2180  0.3273
 3954TIP3   OH233424   1.305   3.806   1.699  0.2682  0.5066 -0.3718
 3954TIP3    H133425   1.389   3.762   1.691  1.4472  2.5951 -0.0692
 3954TIP3    H233426   1.292   3.849   1.614 -1.6193 -1.5546 -1.2305
 3955TIP3   OH233427   1.937   1.366   7.921 -0.1759  0.4853  0.4039
 3955TIP3    H133428   1.891   1.441   7.958 -0.1818  0.2678  0.8424
 3955TIP3    H233429   1.999   1.405   7.858 -1.7757  0.6982 -1.1037
 3956TIP3   OH233430   3.490   3.208   0.862  0.1454  0.3277  0.1580
 3956TIP3    H133431   3.548   3.253   0.800  1.7545  0.5964  1.7550
 3956TIP3    H233432   3.547   3.188   0.936 -2.2955  2.6926  2.8950
 3957TIP3   OH233433   6.106   2.224   7.969 -0.2083 -0.0435 -0.0733
 3957TIP3    H133434   6.168   2.294   7.950 -0.1007 -0.1386 -0.0766
 3957TIP3    H233435   6.025   2.251   7.926 -0.1404  0.0340 -0.1536
 3958TIP3   OH233436   4.242   2.774   2.522  0.5553  0.2491 -0.1931
 3958TIP3    H133437   4.158   2.735   2.548  1.2428 -1.1967 -0.0413
 3958TIP3    H233438   4.296   2.699   2.497  1.2066  1.2871 -2.0989
 3959TIP3   OH233439   5.178   5.230   7.174  0.5137  0.1501 -0.0815
 3959TIP3    H133440   5.224   5.170   7.234  0.7975 -2.2657 -2.4822
 3959TIP3    H233441   5.249   5.269   7.122  0.1358 -0.1576 -0.8400
 3960TIP3   OH233442   6.395   0.410   1.864  0.1992 -0.0936  0.3652
 3960TIP3    H133443   6.369   0.492   1.823 -1.1586 -0.1283  1.0591
 3960TIP3    H233444   6.318   0.353   1.854  2.0730 -2.3789 -2.6882
 3961TIP3   OH233445   4.182   2.033   0.870 -0.7259  0.0023 -0.1776
 3961TIP3    H133446   4.101   2.083   0.884  0.5472  1.7837  1.2568
 3961TIP3    H233447   4.212   2.011   0.958  0.1484 -1.0081 -0.7096
 3962TIP3   OH233448   1.111   2.717   0.470 -0.1522 -0.4013 -0.0507
 3962TIP3    H133449   1.192   2.733   0.518 -0.9231  0.2145  1.0735
 3962TIP3    H233450   1.104   2.790   0.408 -0.8629  0.6716  1.2604
 3963TIP3   OH233451   5.208   5.137   0.249 -0.1722  0.5733 -0.5922
 3963TIP3    H133452   5.201   5.233   0.246 -1.2313  0.5632  0.5954
 3963TIP3    H233453   5.292   5.118   0.208  1.3963  2.2433  1.5832
 3964TIP3   OH233454   2.186   1.875   2.127  0.6726 -0.5252 -0.1952
 3964TIP3    H133455   2.248   1.814   2.086  1.7424  0.1978  0.3052
 3964TIP3    H233456   2.188   1.852   2.220  0.0995 -0.5668 -0.1927
 3965TIP3   OH233457   1.770   6.699   1.201  0.1962  0.1548  0.3753
 3965TIP3    H133458   1.751   6.792   1.210 -1.2989 -0.1701  0.7737
 3965TIP3    H233459   1.695   6.655   1.241 -0.1703 -1.2480 -1.6933
 3966TIP3   OH233460   5.779   1.479   8.226  0.3218 -0.1704  0.0541
 3966TIP3    H133461   5.818   1.426   8.295 -0.3595  0.9146  1.3044
 3966TIP3    H233462   5.715   1.421   8.185 -0.3557 -0.3681  1.3424
 3967TIP3   OH233463   3.765   5.034   7.345 -0.2199 -0.0141 -0.6664
 3967TIP3    H133464   3.775   5.042   7.250  1.1526 -0.1549 -0.5492
 3967TIP3    H233465   3.810   4.953   7.368  0.4263  0.5839  0.2406
 3968TIP3   OH233466   5.641   4.770   0.454  0.2641 -0.5973 -0.0991
 3968TIP3    H133467   5.719   4.800   0.407  0.5083  0.9339  1.2067
 3968TIP3    H233468   5.650   4.674   0.456  1.1086 -0.5824 -1.6328
 3969TIP3   OH233469   5.680   2.587   8.059 -0.5542 -0.1654 -0.2426
 3969TIP3    H133470   5.706   2.542   7.978  0.2133  0.7690 -0.5422
 3969TIP3    H233471   5.762   2.616   8.097 -0.8984 -0.7582  0.9929
 3970TIP3   OH233472   2.347   2.748   7.213 -0.0653  0.3005  0.6192
 3970TIP3    H133473   2.309   2.757   7.125 -1.2456 -2.7432  0.6692
 3970TIP3    H233474   2.289   2.800   7.269  1.0276  2.7481 -0.3715
 3971TIP3   OH233475   1.357   0.027   0.745 -0.1043 -0.4468 -0.0248
 3971TIP3    H133476   1.285  -0.035   0.739 -1.1509  0.8450 -1.7626
 3971TIP3    H233477   1.352   0.061   0.835 -3.0942  1.1608 -0.6661
 3972TIP3   OH233478   0.925   6.739   0.693  0.2593  0.7381 -0.3458
 3972TIP3    H133479   0.892   6.654   0.663  0.4255  0.5783 -0.0792
 3972TIP3    H233480   1.002   6.718   0.745  0.7604  1.1053 -0.9240
 3973TIP3   OH233481   4.361   5.101   6.982  0.1429 -0.1643 -0.5416
 3973TIP3    H133482   4.378   5.153   6.903  0.0441  1.4367  0.4405
 3973TIP3    H233483   4.424   5.134   7.046  0.7354 -1.9621 -0.1461
 3974TIP3   OH233484   4.336   4.778   7.627  0.7690 -0.4595  0.1379
 3974TIP3    H133485   4.330   4.793   7.532 -0.6713 -1.0684  0.0948
 3974TIP3    H233486   4.294   4.854   7.666  2.3021  0.3069  0.3654
 3975TIP3   OH233487   0.054   0.992   8.079 -0.0207  0.5726  0.3190
 3975TIP3    H133488  -0.008   0.964   8.011 -0.2316 -0.1235  0.7763
 3975TIP3    H233489   0.002   0.990   8.160 -0.1145  2.6001  0.3487
 3976TIP3   OH233490   2.693   5.376   6.746 -0.5778 -0.6313 -0.3313
 3976TIP3    H133491   2.724   5.311   6.683 -0.2627  1.0222 -1.9750
 3976TIP3    H233492   2.703   5.459   6.701  0.5323  0.7594  2.2675
 3977TIP3   OH233493   1.980   2.108   2.357  0.0968  0.4364  0.4213
 3977TIP3    H133494   1.953   2.098   2.266  1.4601 -2.1559  0.2134
 3977TIP3    H233495   2.063   2.155   2.353 -0.6105  1.7441  0.4990
 3978TIP3   OH233496   2.849   1.159   8.343  0.3907  0.0636 -0.1513
 3978TIP3    H133497   2.879   1.228   8.284 -1.1619  0.5470 -0.4290
 3978TIP3    H233498   2.862   1.078   8.293  0.9895  0.2798 -0.3506
 3979TIP3   OH233499   4.788   2.712   1.579  0.2243  0.3310 -0.3065
 3979TIP3    H133500   4.808   2.685   1.669  0.9088 -0.0110 -0.5496
 3979TIP3    H233501   4.802   2.806   1.578  2.2998  0.0690 -0.5523
 3980TIP3   OH233502   1.764   5.813   8.460  0.3756 -0.0295 -0.0477
 3980TIP3    H133503   1.842   5.860   8.430 -0.2710  1.0130 -0.1350
 3980TIP3    H233504   1.729   5.773   8.380  0.7280 -0.3892 -0.0308
 3981TIP3   OH233505   1.389   0.652   0.999  0.1096 -0.0389  0.2372
 3981TIP3    H133506   1.445   0.717   0.957 -1.2644  0.9457 -0.1480
 3981TIP3    H233507   1.303   0.694   1.005 -1.8164 -2.8491 -3.0775
 3982TIP3   OH233508   3.694   2.706   6.437  0.1152 -0.0575 -0.4188
 3982TIP3    H133509   3.601   2.728   6.438  0.0616 -0.2226  1.5428
 3982TIP3    H233510   3.699   2.630   6.379 -0.3932  2.0007 -3.3680
 3983TIP3   OH233511   3.691   1.442   1.086  0.0054 -0.0212  0.6764
 3983TIP3    H133512   3.768   1.403   1.128 -0.7453 -1.7135  0.5756
 3983TIP3    H233513   3.621   1.432   1.150  0.1168  2.8194  1.3478
 3984TIP3   OH233514   1.380   1.283   1.278 -0.0689 -0.0372  0.0881
 3984TIP3    H133515   1.309   1.318   1.332 -0.2835  0.5738 -0.5728
 3984TIP3    H233516   1.458   1.330   1.307 -0.4207  1.3544 -1.0684
 3985TIP3   OH233517   2.924   0.471   1.229 -0.7261  0.2858  0.1127
 3985TIP3    H133518   2.829   0.480   1.236 -0.6198  2.4269 -0.4504
 3985TIP3    H233519   2.959   0.534   1.293  0.2460  1.4600 -1.4890
 3986TIP3   OH233520   4.710   4.207   7.162  0.3106 -0.4639  0.7104
 3986TIP3    H133521   4.696   4.283   7.105  1.4490  0.1202  1.1634
 3986TIP3    H233522   4.746   4.245   7.243  0.0690 -1.4094  1.2753
 3987TIP3   OH233523   1.121   6.551   0.488 -0.7045 -0.3232 -0.0727
 3987TIP3    H133524   1.183   6.580   0.556 -1.1152 -1.1160  0.6607
 3987TIP3    H233525   1.043   6.525   0.537 -0.8277 -1.3755 -0.8149
 3988TIP3   OH233526   5.790   3.479   8.645  0.2428  0.2661  0.0037
 3988TIP3    H133527   5.835   3.394   8.641  0.6180  0.4850 -0.4776
 3988TIP3    H233528   5.855   3.539   8.682 -0.4784  0.0618  1.7065
 3989TIP3   OH233529   0.880   4.821   1.265 -0.2089 -0.4532 -0.2448
 3989TIP3    H133530   0.832   4.868   1.332  0.3854 -0.5281  0.2421
 3989TIP3    H233531   0.955   4.877   1.245  0.0439 -0.7939 -0.2709
 3990TIP3   OH233532   4.947   3.559   6.327 -0.8574 -0.2317  0.6120
 3990TIP3    H133533   4.900   3.557   6.410 -1.6778  1.1380  0.2266
 3990TIP3    H233534   5.040   3.564   6.351 -1.0936  0.1984  1.4583
 3991TIP3   OH233535   5.096   2.783   8.763 -0.4105 -0.2442  0.3446
 3991TIP3    H133536   5.027   2.718   8.750 -2.1102  0.8648  3.0041
 3991TIP3    H233537   5.156   2.742   8.825  0.6053 -0.6532 -0.8690
 3992TIP3   OH233538   1.519   4.201   8.809  0.2439  0.0515 -0.2438
 3992TIP3    H133539   1.575   4.238   8.877 -1.1759 -0.0262  1.0055
 3992TIP3    H233540   1.544   4.108   8.805  0.3346  0.0588  0.1687
 3993TIP3   OH233541   4.644   2.887   7.474  0.3294 -0.2757  0.0102
 3993TIP3    H133542   4.690   2.902   7.391 -1.8720  1.1353 -1.0248
 3993TIP3    H233543   4.613   2.797   7.468 -0.6439  0.1224 -1.1601
 3994TIP3   OH233544   5.860   1.530   0.822  0.2723 -0.0640  0.0207
 3994TIP3    H133545   5.955   1.520   0.828  0.4081 -0.4243 -2.1381
 3994TIP3    H233546   5.826   1.442   0.807 -0.1812  0.2919 -1.2262
 3995TIP3   OH233547   3.773   5.497   7.899  0.2635  0.1053  0.5032
 3995TIP3    H133548   3.700   5.543   7.857  2.5422  3.0508 -0.5901
 3995TIP3    H233549   3.810   5.442   7.830 -0.1679 -0.4781  0.7256
 3996TIP3   OH233550   3.789   0.925   8.232 -0.4278 -0.1367  0.4195
 3996TIP3    H133551   3.751   0.940   8.146  0.9097 -2.0491 -0.5879
 3996TIP3    H233552   3.791   1.011   8.273 -0.0539  1.0340 -1.9127
 3997TIP3   OH233553   6.423   1.514   0.936 -0.1100  0.2038  0.4642
 3997TIP3    H133554   6.354   1.477   0.990  1.1044 -3.7567 -0.3778
 3997TIP3    H233555   6.397   1.493   0.846  0.9386  0.9949 -0.0449
 3998TIP3   OH233556   6.382   1.401   8.747  0.2227  0.4158  0.1419
 3998TIP3    H133557   6.345   1.394   8.659  0.3298 -0.2224  0.1419
 3998TIP3    H233558   6.306   1.404   8.805  0.1582 -0.2909  0.1008
 3999TIP3   OH233559   6.193   2.698   0.910  0.0418  0.0466 -0.0749
 3999TIP3    H133560   6.226   2.609   0.919  1.2368  0.4957  0.2361
 3999TIP3    H233561   6.189   2.713   0.816  0.7867 -0.0195 -0.1262
 4000TIP3   OH233562   1.291   6.535   1.049 -0.6612 -0.4730 -0.5205
 4000TIP3    H133563   1.331   6.482   1.118 -1.2755 -2.0784 -1.3504
 4000TIP3    H233564   1.201   6.550   1.079 -0.8373 -0.9119 -0.8188
 4001TIP3   OH233565   3.321   2.988   6.399  0.5199  0.8579 -1.0210
 4001TIP3    H133566   3.292   3.079   6.411 -0.9406  0.2120  0.9002
 4001TIP3    H233567   3.244   2.942   6.366  1.3193  0.3377 -2.2077
 4002TIP3   OH233568   0.497   1.486   2.402  0.1065 -0.1558 -0.5098
 4002TIP3    H133569   0.511   1.530   2.486  2.0341  0.4113 -1.0687
 4002TIP3    H233570   0.429   1.537   2.358  0.9833  1.1647 -0.3730
 4003TIP3   OH233571   1.865   0.464   7.424  0.3110 -0.3559  0.5379
 4003TIP3    H133572   1.862   0.513   7.506  0.5574  2.0061 -0.7818
 4003TIP3    H233573   1.860   0.531   7.356 -0.5357 -2.2809 -1.3979
 4004TIP3   OH233574   3.307   6.258   1.887  0.2254  0.0898 -0.1672
 4004TIP3    H133575   3.365   6.287   1.957  0.7332 -1.9034  0.2722
 4004TIP3    H233576   3.248   6.333   1.873  1.1739  1.1450  1.2168
 4005TIP3   OH233577   4.626   0.383   1.242 -0.2890 -0.0926 -0.5056
 4005TIP3    H133578   4.707   0.385   1.191 -1.1193 -1.1843 -1.9228
 4005TIP3    H233579   4.572   0.452   1.203  1.1499  3.1378  2.6825
 4006TIP3   OH233580   0.424   3.561   8.515  0.2601  0.3251  0.1022
 4006TIP3    H133581   0.361   3.610   8.462 -0.7315 -0.5271  0.4645
 4006TIP3    H233582   0.414   3.470   8.487  0.4346  0.0063  1.0431
 4007TIP3   OH233583   4.382   5.756   1.163  0.3551 -0.0971  0.8406
 4007TIP3    H133584   4.440   5.783   1.092  1.1292  0.8586  1.7970
 4007TIP3    H233585   4.426   5.681   1.203  0.1242 -0.3770  0.5739
 4008TIP3   OH233586   2.205   4.280   8.527  0.2090 -0.1739  0.1401
 4008TIP3    H133587   2.177   4.193   8.498 -1.1086 -0.4421  2.0392
 4008TIP3    H233588   2.208   4.332   8.447 -3.0492 -0.9082 -0.6110
 4009TIP3   OH233589   4.694   5.565   8.189  0.0250  0.7424 -0.0351
 4009TIP3    H133590   4.762   5.505   8.158 -0.1005  0.3568  0.4379
 4009TIP3    H233591   4.737   5.617   8.257 -0.6264 -0.7191  1.5516
 4010TIP3   OH233592   5.064   1.919   8.276  0.1800 -0.5033  0.0891
 4010TIP3    H133593   5.059   1.919   8.181  0.2561 -1.2143  0.0839
 4010TIP3    H233594   5.004   1.988   8.304 -2.5024 -2.5517 -0.3212
 4011TIP3   OH233595   4.035   6.278   8.382  0.0883  0.3112  0.5775
 4011TIP3    H133596   4.066   6.367   8.395  0.4140  0.4480 -0.9861
 4011TIP3    H233597   3.945   6.288   8.351  0.1069  0.0987  0.4507
 4012TIP3   OH233598   0.369   0.999   8.600 -0.1743  0.3118 -0.3677
 4012TIP3    H133599   0.444   1.055   8.578  0.0036  0.2948  0.1590
 4012TIP3    H233600   0.307   1.012   8.528 -1.0457  2.8194  0.6991
 4013TIP3   OH233601   1.084   6.611   1.269 -0.2326  0.0481 -0.0890
 4013TIP3    H133602   1.109   6.553   1.341 -1.3850 -0.6755 -0.2471
 4013TIP3    H233603   0.999   6.579   1.241  0.1532  0.3910 -1.7210
 4014TIP3   OH233604   3.454   6.651   2.475 -0.2596 -0.7220  0.0678
 4014TIP3    H133605   3.396   6.654   2.551 -0.8448 -0.4017 -0.3840
 4014TIP3    H233606   3.541   6.635   2.511 -0.0263  2.2309  1.0862
 4015TIP3   OH233607   3.498   2.520   6.204  0.9844  0.0195  0.3218
 4015TIP3    H133608   3.411   2.488   6.179  2.0250 -0.8663 -2.5631
 4015TIP3    H233609   3.481   2.606   6.243 -1.0896  0.9220 -2.2437
 4016TIP3   OH233610   6.241   2.495   1.732  0.4174 -0.5235 -0.2632
 4016TIP3    H133611   6.173   2.474   1.795  1.2931 -0.1924  0.8155
 4016TIP3    H233612   6.282   2.411   1.712  1.4706 -0.3966  1.1972
 4017TIP3   OH233613   3.049   5.361   0.623  0.6731  0.1592  0.7320
 4017TIP3    H133614   2.968   5.393   0.664  1.4823  2.3227  0.7589
 4017TIP3    H233615   3.088   5.304   0.688 -0.2780 -0.0280  1.1561
 4018TIP3   OH233616   1.415   6.600   6.907 -0.6337  0.5719  0.8301
 4018TIP3    H133617   1.390   6.610   6.815  0.8354  3.2985  0.6234
 4018TIP3    H233618   1.497   6.647   6.915 -0.6284  0.2745  3.5412
 4019TIP3   OH233619   1.980   4.221   2.241 -1.3270 -0.2703 -0.1394
 4019TIP3    H133620   1.925   4.260   2.173 -2.1105 -2.8000 -1.0544
 4019TIP3    H233621   2.031   4.154   2.195 -0.4455 -0.7132  1.4241
 4020TIP3   OH233622   4.280   4.062   7.628  0.1703 -0.0139  0.2251
 4020TIP3    H133623   4.203   4.043   7.680  0.2080  0.4876  0.4769
 4020TIP3    H233624   4.291   3.986   7.571 -0.9734  0.2559 -0.3809
 4021TIP3   OH233625   1.447   1.401   8.380 -0.0264 -0.0986  0.2215
 4021TIP3    H133626   1.483   1.312   8.389  1.5528  0.6750  2.3362
 4021TIP3    H233627   1.437   1.432   8.470  0.7429  2.3731 -0.4763
 4022TIP3   OH233628   3.220   4.454   0.239 -0.4927 -0.4034 -0.0062
 4022TIP3    H133629   3.266   4.395   0.179  0.4302 -0.3865  0.6533
 4022TIP3    H233630   3.245   4.542   0.209  0.1903 -0.3984  0.5532
 4023TIP3   OH233631   2.383   4.720   7.343  0.6087  0.3245 -0.3457
 4023TIP3    H133632   2.306   4.762   7.381  0.4819 -1.1166  1.0454
 4023TIP3    H233633   2.352   4.684   7.259  0.3330  1.5752 -0.8007
 4024TIP3   OH233634   0.462   1.540   6.501  0.0829  0.0608 -0.2331
 4024TIP3    H133635   0.471   1.470   6.437  1.4073  0.4068 -0.4448
 4024TIP3    H233636   0.552   1.564   6.524 -0.3555  1.0892  0.4907
 4025TIP3   OH233637   6.513   2.557   6.791 -0.5754 -0.3566 -0.1499
 4025TIP3    H133638   6.475   2.475   6.762  0.1836 -0.9015  0.3570
 4025TIP3    H233639   6.462   2.625   6.746 -1.9215 -1.0610  0.2648
 4026TIP3   OH233640   4.133   6.309   0.810  0.3966 -0.3084  0.0484
 4026TIP3    H133641   4.140   6.256   0.890  2.4925 -1.5227 -0.8589
 4026TIP3    H233642   4.117   6.246   0.741  0.4912  0.5197 -0.7463
 4027TIP3   OH233643   5.163   3.212   8.571 -0.2966  0.6787  0.3834
 4027TIP3    H133644   5.097   3.269   8.532 -0.5703  1.2130  1.5927
 4027TIP3    H233645   5.144   3.213   8.665  1.1210  0.4513  0.7058
 4028TIP3   OH233646   6.357   4.918   0.316  0.4110  0.2308 -0.1088
 4028TIP3    H133647   6.431   4.962   0.273  1.4153  1.1502  2.3969
 4028TIP3    H233648   6.392   4.834   0.345  0.4233  0.5776  0.8975
 4029TIP3   OH233649   1.371   0.976   1.285 -0.1579 -0.3162 -0.0378
 4029TIP3    H133650   1.368   1.070   1.269 -0.3726 -0.3713 -0.3379
 4029TIP3    H233651   1.445   0.964   1.344  0.3014 -0.0321 -0.5449
 4030TIP3   OH233652   3.349   4.830   2.201  0.0155  0.0391  0.5179
 4030TIP3    H133653   3.440   4.804   2.189 -0.4443 -0.9762 -1.1523
 4030TIP3    H233654   3.353   4.919   2.236  1.6425  0.2941 -0.2436
 4031TIP3   OH233655   5.059   6.549   8.015  0.4945  0.0023 -0.0282
 4031TIP3    H133656   5.020   6.571   8.100 -1.7297  0.4181 -1.0779
 4031TIP3    H233657   5.146   6.516   8.037 -0.0442 -0.0366  2.4120
 4032TIP3   OH233658   5.111   3.745   6.554  0.4390  0.5042 -0.0165
 4032TIP3    H133659   5.201   3.758   6.525  0.4804  3.7701  1.1368
 4032TIP3    H233660   5.118   3.685   6.627  1.6018  0.1851 -0.3750
 4033TIP3   OH233661   0.062   1.471   2.425  0.0002  0.4441  0.1286
 4033TIP3    H133662   0.009   1.400   2.387 -1.1773  0.6041  1.4012
 4033TIP3    H233663   0.026   1.551   2.386 -0.0681  0.4901  0.2875
 4034TIP3   OH233664   3.191   2.374   2.312 -0.7302  0.2877 -0.1043
 4034TIP3    H133665   3.243   2.435   2.364  0.6633  1.2280 -2.4081
 4034TIP3    H233666   3.167   2.425   2.234 -0.6251 -1.7068 -1.5011
 4035TIP3   OH233667   2.630   6.117   8.269 -0.0236  0.1161 -0.0813
 4035TIP3    H133668   2.654   6.034   8.227  1.1579  1.4911 -2.3030
 4035TIP3    H233669   2.669   6.111   8.356 -0.0616 -1.6881 -0.1490
 4036TIP3   OH233670   5.326   2.468   8.551 -0.9418  0.2595  0.4226
 4036TIP3    H133671   5.417   2.438   8.557 -0.2707  1.1660 -2.9814
 4036TIP3    H233672   5.313   2.519   8.630  1.0292 -1.0362  1.6799
 4037TIP3   OH233673   1.049   5.164   7.422 -0.0520 -0.7851 -0.4131
 4037TIP3    H133674   1.027   5.103   7.352 -0.9214 -0.0393 -0.7945
 4037TIP3    H233675   1.107   5.113   7.480  2.9787 -0.6157 -3.0473
 4038TIP3   OH233676   5.101   0.661   0.996  0.2912  0.7913  0.2461
 4038TIP3    H133677   5.133   0.727   0.935 -1.7331 -1.2236 -3.3608
 4038TIP3    H233678   5.143   0.580   0.969 -2.1811 -0.5570  0.1105
 4039TIP3   OH233679   2.987   6.030   8.436 -0.3755  0.0055  0.3048
 4039TIP3    H133680   3.048   6.001   8.369  0.2018  1.4654  0.1711
 4039TIP3    H233681   3.042   6.061   8.507 -0.9593  0.6702  0.4815
 4040TIP3   OH233682   5.034   5.136   6.377  0.2343 -0.1982 -0.8800
 4040TIP3    H133683   5.035   5.041   6.376  0.7978 -0.2011 -0.5002
 4040TIP3    H233684   4.967   5.159   6.442  1.3336 -0.3630  0.3632
 4041TIP3   OH233685   2.185   2.035   6.664  0.5303 -0.0206 -0.7015
 4041TIP3    H133686   2.229   1.962   6.619  0.0538 -0.7102 -0.0727
 4041TIP3    H233687   2.099   1.999   6.688 -0.0482  1.0293 -1.1413
 4042TIP3   OH233688   6.815   6.695   0.243  0.4479 -0.4762  0.2387
 4042TIP3    H133689   6.866   6.652   0.174 -1.5622 -0.8522 -1.0913
 4042TIP3    H233690   6.795   6.625   0.305  0.7626 -0.5174  0.2974
 4043TIP3   OH233691   3.261   1.423   1.220 -0.2301  0.0134 -0.3528
 4043TIP3    H133692   3.255   1.368   1.142 -2.5775 -0.7016  0.2493
 4043TIP3    H233693   3.219   1.506   1.194  0.1319  0.2338 -0.2310
 4044TIP3   OH233694   4.330   4.553   6.727 -0.2663 -0.1761  0.0825
 4044TIP3    H133695   4.278   4.630   6.752 -0.2779 -0.5169  1.1664
 4044TIP3    H233696   4.421   4.583   6.732 -0.2231 -0.4951  1.5131
 4045TIP3   OH233697   5.576   0.173   8.695  0.2181  0.8462 -0.1149
 4045TIP3    H133698   5.582   0.157   8.789  3.1081 -1.3010 -0.5450
 4045TIP3    H233699   5.558   0.087   8.657  1.6161  1.1767 -1.6475
 4046TIP3   OH233700   4.349   4.267   0.825  0.0136 -0.3461 -0.0420
 4046TIP3    H133701   4.302   4.325   0.765 -1.1892 -0.8040  0.4159
 4046TIP3    H233702   4.361   4.319   0.905 -0.1479 -0.3831  0.0071
 4047TIP3   OH233703   5.513   4.981   8.795  0.1404  0.0880 -0.3674
 4047TIP3    H133704   5.588   5.031   8.762  0.6460  0.7213  1.6045
 4047TIP3    H233705   5.527   4.976   8.890 -0.3845 -3.0121 -0.3343
 4048TIP3   OH233706   5.977   3.020   1.523  0.1946 -0.0096  0.4970
 4048TIP3    H133707   6.071   3.006   1.515  0.5689  1.9249  1.0038
 4048TIP3    H233708   5.969   3.107   1.562 -1.8166  0.5806 -1.0604
 4049TIP3   OH233709   5.104   4.920   6.949 -0.2144 -0.1194 -0.0365
 4049TIP3    H133710   5.193   4.952   6.933  0.2184 -1.5200 -0.5397
 4049TIP3    H233711   5.076   4.883   6.866 -0.4233 -1.6568  0.6878
 4050TIP3   OH233712   5.779   0.914   0.178 -0.1906 -0.2673 -0.0360
 4050TIP3    H133713   5.695   0.944   0.214  0.4055 -1.3738  2.5049
 4050TIP3    H233714   5.844   0.972   0.217  0.3124  0.1248 -1.4228
 4051TIP3   OH233715   6.655   6.440   1.527  0.1118  0.0137  0.0841
 4051TIP3    H133716   6.614   6.512   1.480 -0.6026  0.3635  1.2065
 4051TIP3    H233717   6.586   6.406   1.585  0.7797 -0.7911  0.4370
 4052TIP3   OH233718   4.316   2.935   0.026  0.5222 -0.4232 -0.4365
 4052TIP3    H133719   4.339   2.912  -0.064  0.3466  0.4964 -0.7194
 4052TIP3    H233720   4.400   2.949   0.070  0.6013  1.8719 -1.1921
 4053TIP3   OH233721   0.257   6.341   8.546  0.6642 -0.7193 -0.3340
 4053TIP3    H133722   0.278   6.344   8.453  1.3050 -1.4051 -0.2202
 4053TIP3    H233723   0.268   6.431   8.576  0.1560 -0.4349 -0.9742
 4054TIP3   OH233724   5.912   0.346   7.469 -0.4014 -0.2407  0.2884
 4054TIP3    H133725   5.888   0.279   7.405 -1.2400 -0.2166  0.5728
 4054TIP3    H233726   5.833   0.399   7.479 -0.6649 -0.9342  2.2111
 4055TIP3   OH233727   1.511   1.863   0.665  0.1017 -0.1309 -0.1500
 4055TIP3    H133728   1.444   1.918   0.705 -1.3170 -0.7442 -1.5719
 4055TIP3    H233729   1.505   1.780   0.711  1.4989  0.5033  1.2606
 4056TIP3   OH233730   4.528   6.147   7.686 -0.5146  0.2993 -0.4156
 4056TIP3    H133731   4.469   6.102   7.626 -0.0128 -0.0096 -0.6850
 4056TIP3    H233732   4.577   6.077   7.729 -0.8166  0.5246  0.3006
 4057TIP3   OH233733   0.221   4.647   0.650  0.2604 -0.1016 -0.1601
 4057TIP3    H133734   0.264   4.579   0.599  1.1120  0.7849 -0.6715
 4057TIP3    H233735   0.165   4.693   0.587 -1.3307 -1.1093  0.4523
 4058TIP3   OH233736   2.764   1.833   1.142  0.2324  0.0680  0.1773
 4058TIP3    H133737   2.779   1.758   1.084  0.4827 -1.5657  2.2519
 4058TIP3    H233738   2.674   1.859   1.124 -0.5905 -2.0759  0.7935
 4059TIP3   OH233739   3.022   4.918   0.633 -0.9782 -0.2361  0.2198
 4059TIP3    H133740   3.063   4.940   0.717  0.5329  0.6048 -0.7024
 4059TIP3    H233741   3.095   4.892   0.577 -1.7139  0.9907 -1.3807
 4060TIP3   OH233742   5.185   0.841   7.169 -0.0532  0.1346  0.2110
 4060TIP3    H133743   5.187   0.912   7.106 -0.9781 -0.9591 -1.1135
 4060TIP3    H233744   5.093   0.833   7.194 -0.0270 -0.8393  0.0372
 4061TIP3   OH233745   5.897   4.453   7.579  0.8272 -0.1567 -0.0279
 4061TIP3    H133746   5.948   4.386   7.625 -1.0134 -1.5232  0.1275
 4061TIP3    H233747   5.941   4.462   7.495  1.2310 -1.4507  0.0104
 4062TIP3   OH233748   6.442   1.979   1.266  0.0981 -0.5457  0.2691
 4062TIP3    H133749   6.508   2.013   1.205 -0.9911 -0.5609 -0.9633
 4062TIP3    H233750   6.396   1.911   1.216 -1.6118  0.2607  0.6840
 4063TIP3   OH233751   4.212   4.752   1.058 -0.0724 -0.1907 -0.2195
 4063TIP3    H133752   4.146   4.810   1.094 -0.4194  0.4282 -1.7790
 4063TIP3    H233753   4.281   4.810   1.025  0.0545 -0.7124 -0.8871
 4064TIP3   OH233754   5.401   6.599   8.384  0.0444 -0.2528  0.5170
 4064TIP3    H133755   5.402   6.662   8.311 -1.5117  1.4828  1.9143
 4064TIP3    H233756   5.474   6.540   8.365  1.0948  1.4996 -1.2715
 4065TIP3   OH233757   5.186   2.691   6.560  0.4149  0.1913 -0.0760
 4065TIP3    H133758   5.116   2.637   6.523 -1.1951  1.8247  0.3953
 4065TIP3    H233759   5.176   2.776   6.515  1.0248  0.9536  1.1809
 4066TIP3   OH233760   5.460   2.047   7.548  0.3026  0.4560 -0.3855
 4066TIP3    H133761   5.471   2.134   7.511  2.2256  0.9549  1.1518
 4066TIP3    H233762   5.392   2.056   7.614  0.7777  0.9178  0.0494
 4067TIP3   OH233763   2.442   4.368   6.534 -0.0192  0.3384  0.3264
 4067TIP3    H133764   2.354   4.395   6.507  0.1126  1.2306  0.7534
 4067TIP3    H233765   2.443   4.273   6.519 -1.0835  0.2963  0.4030
 4068TIP3   OH233766   2.200   1.312   0.560  0.2156  0.3452  1.0762
 4068TIP3    H133767   2.228   1.243   0.620  0.2138  0.9643  1.8009
 4068TIP3    H233768   2.230   1.283   0.474  1.6274  0.2120  1.5994
 4069TIP3   OH233769   0.414   5.814   1.462 -0.7919 -0.5286 -0.5486
 4069TIP3    H133770   0.353   5.876   1.503 -0.2733 -0.6389  0.4054
 4069TIP3    H233771   0.438   5.855   1.380 -0.5460  0.4950  0.0192
 4070TIP3   OH233772   3.183   4.885   8.795 -0.2754 -1.0356  0.0649
 4070TIP3    H133773   3.274   4.898   8.768 -0.4402 -1.0053 -0.4856
 4070TIP3    H233774   3.160   4.964   8.843 -0.0018 -1.0604  0.2412
 4071TIP3   OH233775   1.873   4.893   8.566  0.0233  0.6468  0.7721
 4071TIP3    H133776   1.825   4.976   8.568  0.3304  0.8205  0.9877
 4071TIP3    H233777   1.880   4.868   8.658 -1.5073 -0.4580  0.6306
 4072TIP3   OH233778   4.714   2.921   0.518  0.1854 -0.8569  0.7947
 4072TIP3    H133779   4.648   2.856   0.544 -0.9966  1.0826  3.0038
 4072TIP3    H233780   4.667   3.004   0.514  2.2415  0.4191  1.2509
 4073TIP3   OH233781   2.340   5.365   1.272  0.7079  0.4160  0.1347
 4073TIP3    H133782   2.395   5.389   1.197  2.3364 -4.0575 -0.3782
 4073TIP3    H233783   2.254   5.348   1.234  0.8729  0.4903 -0.2769
 4074TIP3   OH233784   2.641   4.386   0.634  0.0293 -0.4066  0.2962
 4074TIP3    H133785   2.547   4.379   0.654 -0.2544  0.9539 -0.4135
 4074TIP3    H233786   2.648   4.465   0.580  1.5458 -0.6891  0.0306
 4075TIP3   OH233787   4.880   1.098   0.761 -0.2646 -0.1991 -0.4126
 4075TIP3    H133788   4.866   1.174   0.817  1.2287 -1.0308  1.1702
 4075TIP3    H233789   4.816   1.034   0.793 -1.3001  0.2348 -1.5331
 4076TIP3   OH233790   2.871   0.868   1.211  0.8260  0.6599 -0.8305
 4076TIP3    H133791   2.808   0.808   1.250  0.0514  1.6721 -0.4891
 4076TIP3    H233792   2.881   0.938   1.276  2.3714  0.4791 -0.8444
 4077TIP3   OH233793   1.254   0.406   7.845  0.3360  0.2479  0.3626
 4077TIP3    H133794   1.330   0.394   7.788  1.5926  0.8260  1.8541
 4077TIP3    H233795   1.192   0.338   7.817  1.4468 -0.3394 -0.7736
 4078TIP3   OH233796   6.790   1.472   1.359 -0.6684 -0.0606  0.2040
 4078TIP3    H133797   6.817   1.395   1.409 -0.6553  0.0852  0.4221
 4078TIP3    H233798   6.718   1.509   1.410 -0.6384  0.1043  0.1254
 4079TIP3   OH233799   4.613   6.538   0.479  0.2182 -0.0512 -0.0272
 4079TIP3    H133800   4.653   6.507   0.560 -0.3501 -0.0874  0.2469
 4079TIP3    H233801   4.521   6.512   0.487  0.4806 -1.5198 -1.4151
 4080TIP3   OH233802   6.022   3.424   7.004  0.0668 -0.0689  0.1363
 4080TIP3    H133803   5.995   3.505   7.048 -0.2233 -0.7221  1.2048
 4080TIP3    H233804   6.105   3.446   6.962 -0.2391  0.9089  0.0306
 4081TIP3   OH233805   6.492   3.363   7.376 -0.7259  0.1265  0.3692
 4081TIP3    H133806   6.441   3.283   7.365 -1.0717  0.2780  0.8509
 4081TIP3    H233807   6.539   3.373   7.293 -1.2337 -0.1823  0.0408
 4082TIP3   OH233808   1.494   0.308   8.379  0.2779  0.1375  0.0931
 4082TIP3    H133809   1.462   0.219   8.394  1.3886 -0.3937 -0.5723
 4082TIP3    H233810   1.529   0.306   8.290  0.9150  1.0688  0.3100
 4083TIP3   OH233811   4.557   5.508   6.688  0.2602  0.8486  0.2786
 4083TIP3    H133812   4.606   5.568   6.746 -0.4098  1.5381  0.1457
 4083TIP3    H233813   4.621   5.485   6.620  1.0074  0.1554  1.1841
 4084TIP3   OH233814   5.771   4.393   0.081  0.4352 -0.0981  0.7000
 4084TIP3    H133815   5.719   4.399   0.001 -0.5342  1.2195  1.3858
 4084TIP3    H233816   5.729   4.322   0.131  0.6634 -0.5092  0.3133
 4085TIP3   OH233817   0.122   6.075   6.695 -0.0450 -0.0620  0.0137
 4085TIP3    H133818   0.084   6.092   6.609 -0.6539 -1.3484  0.0128
 4085TIP3    H233819   0.217   6.076   6.680 -0.0085  2.7661 -0.0538
 4086TIP3   OH233820   1.803   2.417   7.169  0.8304 -0.0543  0.0487
 4086TIP3    H133821   1.785   2.408   7.076  1.3963  2.6261 -0.4067
 4086TIP3    H233822   1.894   2.389   7.179  0.0661 -2.6906  0.3122
 4087TIP3   OH233823   0.902   3.141   0.142  0.1890  0.8216  0.2105
 4087TIP3    H133824   0.899   3.198   0.066  0.6414 -1.6923 -1.8232
 4087TIP3    H233825   0.817   3.097   0.144 -0.0228  1.2187  1.5261
 4088TIP3   OH233826   4.915   4.834   0.768 -0.7123  0.2374  0.2546
 4088TIP3    H133827   5.010   4.827   0.764 -0.7893 -0.4217 -0.4684
 4088TIP3    H233828   4.886   4.832   0.677 -1.3135  2.2932  0.3430
 4089TIP3   OH233829   3.684   3.650   6.872 -0.4044 -0.1352 -0.0845
 4089TIP3    H133830   3.776   3.667   6.850 -0.3921  0.1949  0.2125
 4089TIP3    H233831   3.648   3.608   6.794  0.0289 -0.3690 -0.1627
 4090TIP3   OH233832   1.791   4.206   8.176  0.3814  0.9482 -0.3106
 4090TIP3    H133833   1.884   4.187   8.170  0.3876  1.3600 -2.4658
 4090TIP3    H233834   1.785   4.301   8.161 -0.3571  1.0459  0.4813
 4091TIP3   OH233835   4.814   2.961   0.843 -0.6614  0.6667 -0.4782
 4091TIP3    H133836   4.885   2.900   0.820 -1.2296 -0.8651  1.5119
 4091TIP3    H233837   4.808   3.020   0.768  0.8947 -0.8411 -1.8937
 4092TIP3   OH233838   1.584   0.653   7.664 -0.2709  0.2673  0.1618
 4092TIP3    H133839   1.605   0.717   7.732  0.7903 -0.0681  0.1807
 4092TIP3    H233840   1.563   0.572   7.712  2.7798 -0.6606  0.1509
 4093TIP3   OH233841   6.632   4.053   7.763  0.1080  0.1748  0.3902
 4093TIP3    H133842   6.721   4.048   7.797  0.8387  1.0196 -1.2760
 4093TIP3    H233843   6.641   4.039   7.669 -1.7280 -1.3134  0.3583
 4094TIP3   OH233844   3.361   4.239   0.552 -0.2155  0.2926  0.2850
 4094TIP3    H133845   3.377   4.159   0.501 -1.3815  0.8614 -1.0282
 4094TIP3    H233846   3.298   4.212   0.619 -0.4623  0.0525 -0.0370
 4095TIP3   OH233847   1.829   1.631   6.768 -0.7055  0.2249 -0.0701
 4095TIP3    H133848   1.849   1.685   6.692 -0.5340  1.7122  0.9831
 4095TIP3    H233849   1.781   1.556   6.733  2.7933 -1.2978 -2.1869
 4096TIP3   OH233850   1.750   2.802   0.534  0.2055 -0.4151 -0.1996
 4096TIP3    H133851   1.816   2.870   0.520  0.1411 -0.4923 -0.9180
 4096TIP3    H233852   1.667   2.845   0.514 -0.1524  0.1479  2.2544
 4097TIP3   OH233853   4.589   0.706   7.740 -0.0089  0.1162 -0.5439
 4097TIP3    H133854   4.532   0.668   7.807  0.5266 -0.1112 -0.2082
 4097TIP3    H233855   4.531   0.723   7.666 -0.4966 -0.1892 -0.2378
 4098TIP3   OH233856   0.020   2.887   6.658  0.6854 -0.0826 -0.6523
 4098TIP3    H133857   0.057   2.799   6.654  1.2689  0.1493 -0.4699
 4098TIP3    H233858   0.020   2.918   6.567  0.6559 -0.2017 -0.6920
 4099TIP3   OH233859   2.717   3.610   7.316  0.1749 -0.3441 -0.2658
 4099TIP3    H133860   2.755   3.672   7.378  0.3958 -0.7845  0.0538
 4099TIP3    H233861   2.680   3.541   7.372 -1.1697  0.1090 -0.5683
 4100TIP3   OH233862   0.507   6.212   8.589 -0.1352 -0.3465 -0.1450
 4100TIP3    H133863   0.434   6.274   8.578 -1.1155 -1.5532 -0.6009
 4100TIP3    H233864   0.468   6.135   8.630  1.4297 -0.0279  2.1257
 4101TIP3   OH233865   1.179   3.836   1.417 -0.1883  0.1937 -0.1991
 4101TIP3    H133866   1.265   3.873   1.397  1.4340 -2.9806  0.3329
 4101TIP3    H233867   1.125   3.859   1.341  1.3532  1.5158 -0.9515
 4102TIP3   OH233868   4.805   0.949   0.508  0.9113  0.0634 -0.1657
 4102TIP3    H133869   4.822   1.011   0.579 -1.9222 -1.3109  1.8793
 4102TIP3    H233870   4.779   1.004   0.434  0.2547  1.3850  1.0099
 4103TIP3   OH233871   1.214   1.810   8.092 -0.0749 -0.1939  0.2427
 4103TIP3    H133872   1.119   1.797   8.093  0.1195 -1.9019  0.1111
 4103TIP3    H233873   1.239   1.791   8.002  0.2405  1.8404 -0.1415
 4104TIP3   OH233874   4.958   3.668   6.846 -0.6693  0.0315 -0.1272
 4104TIP3    H133875   4.965   3.716   6.928 -0.1757  3.6185 -2.0480
 4104TIP3    H233876   4.874   3.696   6.809 -0.4144 -0.6833 -1.2993
 4105TIP3   OH233877   0.091   3.715   6.943  0.3479  0.0396 -0.2278
 4105TIP3    H133878   0.170   3.727   6.996 -0.1502 -2.2021  1.1454
 4105TIP3    H233879   0.124   3.698   6.854  1.3300  0.5858  0.0179
 4106TIP3   OH233880   6.419   1.016   8.508  0.1131 -0.3329 -0.0036
 4106TIP3    H133881   6.470   1.097   8.499  0.3844 -0.5874 -0.8063
 4106TIP3    H233882   6.329   1.043   8.490  0.3240 -0.3704 -1.1697
 4107TIP3   OH233883   6.510   6.074   0.965  0.3661 -0.0301 -0.4484
 4107TIP3    H133884   6.518   5.981   0.944 -1.2215 -0.2327 -0.2967
 4107TIP3    H233885   6.531   6.119   0.883  0.4082 -0.5444 -0.7241
 4108TIP3   OH233886   0.085   3.698   1.102 -0.2596 -0.5719 -0.3124
 4108TIP3    H133887   0.180   3.699   1.115 -0.2831 -0.9696 -0.1002
 4108TIP3    H233888   0.058   3.612   1.131 -0.7669 -0.2477  0.1876
 4109TIP3   OH233889   0.575   0.822   0.718  0.6756  0.0621  0.5189
 4109TIP3    H133890   0.583   0.870   0.801  3.1759  2.0936 -0.7368
 4109TIP3    H233891   0.650   0.763   0.718 -0.5466 -1.5568  0.5871
 4110TIP3   OH233892   4.631   5.757   8.777  0.3234 -0.0682  0.4514
 4110TIP3    H133893   4.635   5.675   8.827  0.4640  0.3716  1.1624
 4110TIP3    H233894   4.670   5.735   8.692 -1.4032 -1.2652 -0.0929
 4111TIP3   OH233895   2.454   4.728   0.486 -0.3042 -0.0583 -0.4901
 4111TIP3    H133896   2.388   4.661   0.470  0.5766 -1.2298  0.5933
 4111TIP3    H233897   2.473   4.764   0.400 -2.9460  0.9316 -0.7399
 4112TIP3   OH233898   6.322   1.527   0.671 -0.4488  0.2808  0.1600
 4112TIP3    H133899   6.335   1.464   0.600  2.0273 -1.0134  1.6059
 4112TIP3    H233900   6.374   1.603   0.646 -1.6710  0.9087 -0.5620
 4113TIP3   OH233901   2.716   3.730   2.179  0.5811 -0.1111  0.2437
 4113TIP3    H133902   2.771   3.778   2.242 -0.7080 -0.0976  1.4193
 4113TIP3    H233903   2.630   3.728   2.221 -0.5856  0.7399 -1.9663
 4114TIP3   OH233904   2.154   1.489   0.981  0.9263  0.2864  0.2379
 4114TIP3    H133905   2.164   1.486   1.076 -0.8089 -1.0373  0.4383
 4114TIP3    H233906   2.192   1.407   0.950 -0.0789 -0.1055  0.0010
 4115TIP3   OH233907   0.867   6.128   8.212  0.0709  0.7046 -0.1745
 4115TIP3    H133908   0.856   6.064   8.142  0.2292  0.6298 -0.1304
 4115TIP3    H233909   0.925   6.195   8.175  2.2654 -0.5992  0.7082
 4116TIP3   OH233910   4.494   4.011   8.567  0.0637 -0.0347  0.2202
 4116TIP3    H133911   4.472   3.919   8.580 -0.8273  0.2856  1.0310
 4116TIP3    H233912   4.440   4.038   8.492  0.5612 -0.2461 -0.2209
 4117TIP3   OH233913   1.713   5.686   7.087  0.5812  0.4877  0.0436
 4117TIP3    H133914   1.727   5.766   7.036 -0.0400  1.4823  1.3484
 4117TIP3    H233915   1.663   5.716   7.164  2.5951 -0.6906  1.9062
 4118TIP3   OH233916   3.293   6.369   0.734  0.0580 -0.1268  0.7232
 4118TIP3    H133917   3.211   6.401   0.697 -0.6109 -2.2901  0.2263
 4118TIP3    H233918   3.299   6.411   0.820 -0.7429  1.2659  0.1389
 4119TIP3   OH233919   4.951   1.224   8.244  0.4326 -0.2128  0.0660
 4119TIP3    H133920   4.860   1.248   8.261  0.7175  0.8670  0.1153
 4119TIP3    H233921   5.003   1.279   8.303  1.2350  0.9786 -1.6603
 4120TIP3   OH233922   6.805   0.383   1.664 -0.2858  0.3266 -0.5821
 4120TIP3    H133923   6.724   0.425   1.635 -0.8685 -0.0299  0.4654
 4120TIP3    H233924   6.825   0.426   1.748 -0.1273 -0.5105 -0.1854
 4121TIP3   OH233925   6.077   6.798   0.705  0.3499 -0.1389  0.0603
 4121TIP3    H133926   6.006   6.854   0.736 -0.0651 -0.3735 -0.4450
 4121TIP3    H233927   6.058   6.786   0.612 -1.1600 -3.4106  0.6767
 4122TIP3   OH233928   6.624   6.236   0.203 -0.3245  0.3694  0.4678
 4122TIP3    H133929   6.602   6.227   0.296  1.6652 -1.4413  0.8382
 4122TIP3    H233930   6.576   6.165   0.160 -0.6862  0.7653  0.2125
 4123TIP3   OH233931   0.580   2.194   7.590 -0.6540  0.0066  0.3468
 4123TIP3    H133932   0.517   2.248   7.638 -3.2034 -1.8216 -0.6959
 4123TIP3    H233933   0.610   2.130   7.653 -0.5853  0.2974  0.6107
 4124TIP3   OH233934   0.970   2.841   7.804  0.1394 -0.0606 -0.1427
 4124TIP3    H133935   1.064   2.832   7.817 -0.0966 -0.2926  1.8203
 4124TIP3    H233936   0.944   2.908   7.868 -1.1237 -0.5383 -0.1291
 4125TIP3   OH233937   1.796   6.507   6.340  0.3008 -0.0641  0.3160
 4125TIP3    H133938   1.705   6.499   6.368 -0.0401 -0.6130 -0.8978
 4125TIP3    H233939   1.815   6.601   6.346 -1.1516  0.4326 -1.7734
 4126TIP3   OH233940   4.362   6.037   8.438  0.2021  0.5129 -0.7884
 4126TIP3    H133941   4.400   6.028   8.351 -0.2791 -1.3604 -0.8561
 4126TIP3    H233942   4.353   5.947   8.470 -0.2086  1.1225  0.9488
 4127TIP3   OH233943   5.345   1.099   6.975  0.4916 -0.2386  0.4047
 4127TIP3    H133944   5.312   1.137   7.056 -1.7852  1.7698 -1.3251
 4127TIP3    H233945   5.438   1.123   6.973 -0.1632  2.6348  0.9127
 4128TIP3   OH233946   3.925   2.963   7.570  0.8249  0.2126 -0.2707
 4128TIP3    H133947   3.858   3.030   7.564  0.8720  0.2971  0.1306
 4128TIP3    H233948   3.936   2.932   7.480  0.8956  0.8320 -0.4789
 4129TIP3   OH233949   6.690   5.018   7.049 -0.0757 -0.0881  0.3956
 4129TIP3    H133950   6.655   4.950   7.106 -0.5594  0.9936  1.4433
 4129TIP3    H233951   6.719   4.972   6.971  1.2848 -1.7285  1.7909
 4130TIP3   OH233952   1.578   5.857   7.302  0.2402  0.5434  0.1869
 4130TIP3    H133953   1.570   5.772   7.345 -0.8125  0.3636 -0.3468
 4130TIP3    H233954   1.652   5.899   7.346  1.5597 -1.1180 -0.3422
 4131TIP3   OH233955   4.684   0.298   6.859 -0.0290 -0.4925  0.3603
 4131TIP3    H133956   4.744   0.227   6.838 -1.8351 -1.2657 -2.7493
 4131TIP3    H233957   4.712   0.370   6.802 -1.8159 -0.7930 -0.9680
 4132TIP3   OH233958   3.488   6.288   2.080 -0.0372 -0.1682 -0.0671
 4132TIP3    H133959   3.481   6.329   2.166 -0.2271 -1.6334  0.6394
 4132TIP3    H233960   3.576   6.253   2.077 -0.2610 -0.7250 -0.1953
 4133TIP3   OH233961   0.674   3.558   2.225  0.1195  0.3027 -0.2617
 4133TIP3    H133962   0.708   3.475   2.258 -0.2140 -0.4245 -1.6551
 4133TIP3    H233963   0.720   3.571   2.142 -0.4487  1.0904 -0.4663
 4134TIP3   OH233964   4.131   5.044   0.228  0.2843  0.0474  0.8391
 4134TIP3    H133965   4.056   5.054   0.287 -0.4246  0.3208 -0.0682
 4134TIP3    H233966   4.203   5.015   0.284 -0.4240  0.0713  1.7844
 4135TIP3   OH233967   4.739   1.201   1.494 -0.0754 -0.0282 -0.7585
 4135TIP3    H133968   4.699   1.200   1.581  1.5680  1.7366  0.0773
 4135TIP3    H233969   4.750   1.109   1.472  1.4143 -0.5739  1.8648
 4136TIP3   OH233970   1.791   0.818   7.545 -0.1961 -0.4783  0.2366
 4136TIP3    H133971   1.750   0.819   7.458 -0.8270  0.0958  0.5315
 4136TIP3    H233972   1.729   0.769   7.600 -0.0893 -0.3241  0.4957
 4137TIP3   OH233973   3.744   2.956   7.837 -0.1539 -0.4380  0.1631
 4137TIP3    H133974   3.705   2.873   7.809 -2.4110  0.4702  0.4142
 4137TIP3    H233975   3.817   2.970   7.777 -1.0584 -1.5519 -1.2618
 4138TIP3   OH233976   4.915   5.579   1.311  0.3011 -0.5158  0.4046
 4138TIP3    H133977   4.941   5.489   1.288  0.7686 -0.5048  0.8897
 4138TIP3    H233978   4.987   5.613   1.363  0.2585  0.2541 -0.0275
 4139TIP3   OH233979   0.488   0.394   8.644  0.1710  0.1227  0.1940
 4139TIP3    H133980   0.548   0.343   8.699  0.4875  1.1364  0.8173
 4139TIP3    H233981   0.541   0.466   8.611 -0.1743 -0.1554 -0.9986
 4140TIP3   OH233982   3.311   2.145   2.099  0.5754  0.1005 -0.4037
 4140TIP3    H133983   3.336   2.237   2.104 -1.1050  0.5989 -0.3332
 4140TIP3    H233984   3.235   2.138   2.157  0.9583 -1.4396 -0.0445
 4141TIP3   OH233985   1.710   5.457   1.492  0.5882  0.6177  0.0122
 4141TIP3    H133986   1.799   5.439   1.520 -0.1039 -1.8106  0.8672
 4141TIP3    H233987   1.690   5.543   1.530  1.3241 -0.4460  3.1862
 4142TIP3   OH233988   2.339   3.359   1.322  0.3919 -0.1770 -0.1528
 4142TIP3    H133989   2.423   3.316   1.336  1.7950  1.3054 -3.1924
 4142TIP3    H233990   2.352   3.448   1.356 -0.7587 -0.5533  1.3795
 4143TIP3   OH233991   4.413   5.795   7.622 -0.6161  0.1673 -0.3076
 4143TIP3    H133992   4.465   5.783   7.542 -1.2505 -0.2142 -0.6627
 4143TIP3    H233993   4.375   5.710   7.640 -1.0444  0.4217  0.0133
 4144TIP3   OH233994   5.505   3.338   1.470 -0.1389  0.0126  0.4336
 4144TIP3    H133995   5.468   3.325   1.557  0.8054 -0.6550  0.7597
 4144TIP3    H233996   5.547   3.424   1.474 -1.9515  0.9578 -0.0723
 4145TIP3   OH233997   5.525   0.868   1.095  0.1212 -0.5594 -1.0254
 4145TIP3    H133998   5.534   0.839   1.186  0.0455  0.2299 -0.7555
 4145TIP3    H233999   5.499   0.790   1.047 -1.3108 -0.6898 -0.1059
 4146TIP3   OH234000   0.582   6.782   1.098  0.3063  0.0146 -0.1560
 4146TIP3    H134001   0.592   6.797   1.004 -0.5342  0.3497 -0.2007
 4146TIP3    H234002   0.488   6.788   1.114  0.4654  0.2632  0.7618
 4147TIP3   OH234003   4.422   5.441   0.105 -0.6574 -0.1822  0.2646
 4147TIP3    H134004   4.464   5.491   0.175  0.4117 -0.1776 -0.3596
 4147TIP3    H234005   4.348   5.397   0.148 -1.2645  1.4453  0.9510
 4148TIP3   OH234006   1.905   4.756   7.700 -0.0478  0.1588  0.2572
 4148TIP3    H134007   1.996   4.783   7.701 -0.1248  0.4163  0.9940
 4148TIP3    H234008   1.871   4.789   7.617  0.7611 -0.7639 -0.4616
 4149TIP3   OH234009   2.761   4.953   7.823 -0.4753  0.2265  0.0809
 4149TIP3    H134010   2.787   5.038   7.786  2.6787 -0.1650  1.1478
 4149TIP3    H234011   2.831   4.893   7.798 -2.2863 -1.9932 -0.0441
 4150TIP3   OH234012   1.243   4.215   1.439  0.3237 -0.3755  0.5368
 4150TIP3    H134013   1.196   4.177   1.514 -1.1661 -1.9629 -1.1118
 4150TIP3    H234014   1.218   4.307   1.440 -0.7484 -0.6535  1.2177
 4151TIP3   OH234015   0.010   6.461   1.765  0.3236 -0.2556 -0.0695
 4151TIP3    H134016  -0.030   6.433   1.683 -0.1808 -2.2814  0.8034
 4151TIP3    H234017  -0.053   6.435   1.833  1.8862 -1.0992  1.1459
 4152TIP3   OH234018   4.428   1.048   1.985 -0.2937 -0.5068 -0.6464
 4152TIP3    H134019   4.399   1.004   2.065  0.1491 -2.6041 -1.5736
 4152TIP3    H234020   4.411   1.140   2.001  0.9382 -0.6802  2.3905
 4153TIP3   OH234021   2.135   0.528   0.533  0.2961 -0.7569  0.4805
 4153TIP3    H134022   2.219   0.553   0.573  1.0930  1.5730 -2.3820
 4153TIP3    H234023   2.084   0.609   0.530 -1.2836 -1.7121  0.2699
 4154TIP3   OH234024   4.748   5.895   0.347  0.4594  0.1086 -0.3070
 4154TIP3    H134025   4.819   5.881   0.284 -1.2261 -2.2627 -1.8610
 4154TIP3    H234026   4.735   5.809   0.387 -0.7011  0.8059  0.8632
 4155TIP3   OH234027   2.318   0.096   8.147  0.3587  0.0212 -0.1393
 4155TIP3    H134028   2.291   0.177   8.104  2.2203  1.1809  0.7801
 4155TIP3    H234029   2.387   0.122   8.207  0.0910 -2.0672  1.1655
 4156TIP3   OH234030   4.867   1.658   7.605 -0.3032  0.0932  0.4697
 4156TIP3    H134031   4.956   1.693   7.610  0.0244 -0.8334  2.1100
 4156TIP3    H234032   4.860   1.624   7.516  0.5026  1.3341 -0.1087
 4157TIP3   OH234033   1.061   1.389   7.576  0.3678 -0.0031  0.1771
 4157TIP3    H134034   1.071   1.295   7.559  1.3256  0.3263 -1.3974
 4157TIP3    H234035   0.973   1.399   7.610 -0.0909 -1.3856 -0.5310
 4158TIP3   OH234036   6.247   1.405   6.604  0.2758 -0.1098  0.0213
 4158TIP3    H134037   6.223   1.490   6.642 -0.8738  0.1158 -1.1024
 4158TIP3    H234038   6.168   1.378   6.555  1.5093 -0.5425 -1.8434
 4159TIP3   OH234039   2.137   4.588   8.564 -0.3937 -0.5533  0.1309
 4159TIP3    H134040   2.150   4.679   8.536 -1.8623 -0.1895  0.5325
 4159TIP3    H234041   2.140   4.592   8.660 -3.0245 -0.4394  0.2724
 4160TIP3   OH234042   5.600   2.033   6.864 -0.2161  0.1699 -0.1551
 4160TIP3    H134043   5.599   2.090   6.787  0.3161 -0.0127 -0.3031
 4160TIP3    H234044   5.683   1.986   6.858  0.0853  0.5496  0.8160
 4161TIP3   OH234045   4.397   1.400   1.215 -0.0121 -0.0726  0.7511
 4161TIP3    H134046   4.442   1.457   1.153 -1.9028  0.2464 -0.3932
 4161TIP3    H234047   4.321   1.450   1.244 -1.1958 -1.6096  0.4694
 4162TIP3   OH234048   6.598   5.112   2.248 -0.3557 -0.1392 -0.4826
 4162TIP3    H134049   6.652   5.054   2.195 -0.7593 -0.7573 -0.2317
 4162TIP3    H234050   6.606   5.078   2.337 -1.3705 -0.4183 -0.4826
 4163TIP3   OH234051   1.234   6.572   8.433  0.1627  0.0888 -0.2172
 4163TIP3    H134052   1.164   6.618   8.386  0.4547  2.3088  1.3392
 4163TIP3    H234053   1.314   6.598   8.388  0.1919 -0.3285 -0.4064
 4164TIP3   OH234054   3.514   5.480   6.470  0.2167 -0.2676 -0.2396
 4164TIP3    H134055   3.593   5.524   6.502  0.0318 -0.0385 -0.0941
 4164TIP3    H234056   3.517   5.393   6.508 -0.6592  0.4147  1.4792
 4165TIP3   OH234057   5.786   0.439   7.137  0.1461  0.0145  0.1764
 4165TIP3    H134058   5.829   0.510   7.184  0.1584 -0.1415  0.4003
 4165TIP3    H234059   5.711   0.415   7.191 -0.0695  0.1038 -0.0806
 4166TIP3   OH234060   0.473   0.343   1.417 -0.1446 -0.6478 -0.8299
 4166TIP3    H134061   0.464   0.339   1.512  1.7411 -1.1075 -0.6335
 4166TIP3    H234062   0.533   0.272   1.395 -0.3348 -0.3799 -2.3424
 4167TIP3   OH234063   1.178   3.317   1.194  0.1143  0.7515 -0.2289
 4167TIP3    H134064   1.204   3.322   1.287  0.4898  1.9258 -0.3751
 4167TIP3    H234065   1.243   3.371   1.149 -1.4866  2.2543 -0.8595
 4168TIP3   OH234066   5.890   4.434   7.888 -0.4180  0.1792 -0.6924
 4168TIP3    H134067   5.840   4.479   7.957 -0.9710 -0.3928 -0.7043
 4168TIP3    H234068   5.842   4.453   7.808  1.1891  2.2939 -1.2288
 4169TIP3   OH234069   4.265   1.977   7.509  0.1747  0.1009  0.1483
 4169TIP3    H134070   4.343   2.030   7.525  0.3703 -0.3820  0.8744
 4169TIP3    H234071   4.205   2.000   7.581 -0.9759  1.5583 -1.1967
 4170TIP3   OH234072   2.280   5.128   1.020 -0.4966 -0.2924 -0.1830
 4170TIP3    H134073   2.343   5.086   1.078 -0.5161  0.9864  0.8005
 4170TIP3    H234074   2.196   5.115   1.064 -0.7569 -0.7676 -0.7920
 4171TIP3   OH234075   0.481   4.903   8.432  0.4613  0.4541  0.2627
 4171TIP3    H134076   0.395   4.907   8.474  0.6745  0.1881  0.7351
 4171TIP3    H234077   0.525   4.830   8.475  0.0928 -0.9048 -1.5319
 4172TIP3   OH234078   2.426   0.663   1.104 -0.0177  0.7166 -0.1730
 4172TIP3    H134079   2.376   0.722   1.048 -1.2345 -0.3576 -0.2800
 4172TIP3    H234080   2.430   0.707   1.188 -2.3363  0.2928  0.2307
 4173TIP3   OH234081   5.406   1.718   6.924  0.1265 -0.1369 -0.3821
 4173TIP3    H134082   5.412   1.783   6.854  0.7486  0.5660  0.3187
 4173TIP3    H234083   5.326   1.669   6.904 -1.9009  2.5782  0.5421
 4174TIP3   OH234084   2.744   3.083   0.500  0.1875  0.4352  0.0663
 4174TIP3    H134085   2.796   3.162   0.487  0.1806  0.2421 -1.2529
 4174TIP3    H234086   2.702   3.096   0.585 -0.6416  2.3308 -0.5833
 4175TIP3   OH234087   1.784   3.241   2.520 -0.3573 -0.3577 -0.1158
 4175TIP3    H134088   1.809   3.277   2.434  0.0964 -0.9239 -0.2274
 4175TIP3    H234089   1.867   3.239   2.569 -0.2079 -1.9974 -0.3870
 4176TIP3   OH234090   0.320   4.934   8.738 -0.2296 -0.0360  0.4849
 4176TIP3    H134091   0.332   4.839   8.742  0.6430 -0.1315 -2.3263
 4176TIP3    H234092   0.230   4.948   8.767 -0.4352 -1.7314  0.7926
 4177TIP3   OH234093   3.895   4.274   0.536 -0.4806  0.5773  0.2661
 4177TIP3    H134094   3.868   4.312   0.620 -1.5340 -0.4662  0.4279
 4177TIP3    H234095   3.928   4.187   0.558 -0.5264  0.3893 -0.3809
 4178TIP3   OH234096   3.220   2.281   1.335 -0.0395 -0.2432  0.0221
 4178TIP3    H134097   3.245   2.190   1.320  0.5159 -0.2732  1.0237
 4178TIP3    H234098   3.143   2.295   1.280  1.1028 -0.7011 -1.7674
 4179TIP3   OH234099   2.604   0.822   0.219  0.7384 -0.4480 -0.4031
 4179TIP3    H134100   2.533   0.770   0.256  0.9521  1.0006  2.3078
 4179TIP3    H234101   2.599   0.906   0.266  1.7045  1.2265 -3.0770
 4180TIP3   OH234102   6.733   4.423   1.237 -0.8165 -0.5618 -0.3191
 4180TIP3    H134103   6.755   4.331   1.223 -1.0935 -0.4137 -1.8593
 4180TIP3    H234104   6.817   4.469   1.234 -0.4761 -0.8981  2.0536
 4181TIP3   OH234105   4.818   5.887   0.776 -0.1840  0.2855  0.3802
 4181TIP3    H134106   4.790   5.922   0.861 -1.2857 -1.2675  0.7150
 4181TIP3    H234107   4.744   5.904   0.718 -0.0861 -0.0518  0.1523
 4182TIP3   OH234108   4.512   1.478   8.713  0.3235 -0.1758  0.2891
 4182TIP3    H134109   4.476   1.428   8.786 -2.2897  0.0816 -0.6961
 4182TIP3    H234110   4.515   1.416   8.640  0.1843  0.2677 -0.1006
 4183TIP3   OH234111   2.693   2.325   6.366 -0.9229 -0.3647 -0.4251
 4183TIP3    H134112   2.640   2.404   6.356 -1.5024 -0.2273  2.7134
 4183TIP3    H234113   2.642   2.257   6.321 -1.9909  0.4810 -0.5457
 4184TIP3   OH234114   1.181   4.950   8.685 -0.4414  0.2287 -0.4900
 4184TIP3    H134115   1.148   4.911   8.603 -0.7331  0.6149 -0.5580
 4184TIP3    H234116   1.267   4.986   8.661 -0.0585 -0.5807 -0.3681
 4185TIP3   OH234117   0.629   1.932   8.218  0.0533  0.2597  0.1946
 4185TIP3    H134118   0.572   2.005   8.195 -0.9101 -0.6706 -0.4815
 4185TIP3    H234119   0.575   1.854   8.202  1.2514 -0.6174  0.3225
 4186TIP3   OH234120   1.977   5.239   6.277  0.1593 -0.3550 -0.2037
 4186TIP3    H134121   1.888   5.204   6.278  1.2251 -3.2761  0.2693
 4186TIP3    H234122   1.977   5.308   6.343 -1.4079 -1.2341  0.7544
 4187TIP3   OH234123   5.651   0.114   8.177 -0.4227  0.0110  0.0814
 4187TIP3    H134124   5.630   0.075   8.092 -3.2636 -0.1712  0.7682
 4187TIP3    H234125   5.671   0.040   8.233 -1.6243 -0.1641  0.3110
 4188TIP3   OH234126   6.354   6.660   7.117 -0.2525 -0.7357 -0.7360
 4188TIP3    H134127   6.300   6.588   7.084 -3.3248  0.9796  0.0554
 4188TIP3    H234128   6.333   6.665   7.210  2.6005 -0.9164  0.0000
 4189TIP3   OH234129   6.591   3.506   8.622  0.3010 -0.0911  0.0692
 4189TIP3    H134130   6.528   3.561   8.575 -2.1203 -1.0081  2.0640
 4189TIP3    H234131   6.652   3.569   8.662  1.6254  0.7585 -2.9816
 4190TIP3   OH234132   2.217   4.237   0.796 -0.1537 -0.2500 -0.2151
 4190TIP3    H134133   2.214   4.330   0.815  1.4970  0.2178 -2.0026
 4190TIP3    H234134   2.295   4.205   0.842 -0.8184 -0.8176  0.5517
 4191TIP3   OH234135   0.006   4.820   7.581 -0.4220 -0.4328 -0.6454
 4191TIP3    H134136  -0.016   4.829   7.674  0.2856  0.1398 -0.5184
 4191TIP3    H234137  -0.072   4.851   7.535 -0.2510  0.7042 -0.2191
 4192TIP3   OH234138   4.333   5.774   6.280 -0.4841 -0.5399  0.0517
 4192TIP3    H134139   4.375   5.852   6.245 -2.0728  0.2779 -0.1230
 4192TIP3    H234140   4.380   5.755   6.361  0.9271 -0.3477 -0.6948
 4193TIP3   OH234141   3.153   4.279   2.639  0.3345 -0.3897 -0.1836
 4193TIP3    H134142   3.105   4.350   2.596  1.6291 -0.3289 -1.5874
 4193TIP3    H234143   3.109   4.199   2.609  2.6282 -0.5312 -3.7442
 4194TIP3   OH234144   3.435   1.500   8.547  0.3606  0.5089  0.3765
 4194TIP3    H134145   3.369   1.567   8.530  0.2890  0.0325 -1.4542
 4194TIP3    H234146   3.419   1.434   8.480  2.0345 -0.1238  0.5634
 4195TIP3   OH234147   3.553   4.760   8.218 -0.1992  0.7401 -0.8378
 4195TIP3    H134148   3.478   4.819   8.214  0.3043  1.5580  0.7714
 4195TIP3    H234149   3.615   4.805   8.276  0.8765 -0.6350 -0.8813
 4196TIP3   OH234150   1.514   3.907   0.460  0.3601  0.0583  0.8043
 4196TIP3    H134151   1.443   3.849   0.433 -0.0437  1.1921 -0.6926
 4196TIP3    H234152   1.589   3.879   0.409  0.2175  0.6820  0.2312
 4197TIP3   OH234153   5.854   0.774   8.096 -0.5845  0.6114 -0.3406
 4197TIP3    H134154   5.812   0.838   8.039  2.0895  1.4554 -1.5080
 4197TIP3    H234155   5.932   0.818   8.129 -0.8337 -0.6657  2.1995
 4198TIP3   OH234156   0.089   0.723   8.629 -0.1954 -0.3953  0.0771
 4198TIP3    H134157   0.075   0.664   8.554 -2.9697  0.5779 -0.2899
 4198TIP3    H234158   0.155   0.679   8.682 -0.6765 -2.8413 -1.1955
 4199TIP3   OH234159   1.165   0.204   8.478 -0.2891 -0.0944 -0.4697
 4199TIP3    H134160   1.256   0.180   8.494  0.2157  0.6091 -2.0469
 4199TIP3    H234161   1.142   0.264   8.549  0.1012 -1.1246  0.5588
 4200TIP3   OH234162   6.264   5.693   1.354 -0.5029 -0.4883 -0.3123
 4200TIP3    H134163   6.251   5.682   1.448  1.5717  1.3938  0.2689
 4200TIP3    H234164   6.224   5.777   1.333 -1.5794 -1.2190 -1.2931
 4201TIP3   OH234165   4.765   1.859   8.034  0.1766 -0.2089 -0.7389
 4201TIP3    H134166   4.741   1.810   7.956  0.0076 -0.7953 -0.3248
 4201TIP3    H234167   4.731   1.947   8.019 -0.7463 -0.5853 -0.8906
 4202TIP3   OH234168   3.877   2.020   1.112 -0.3166 -0.3987 -0.0580
 4202TIP3    H134169   3.966   1.990   1.128 -0.7378 -1.4564  0.3522
 4202TIP3    H234170   3.887   2.095   1.053  0.8674 -0.2003  0.3657
 4203TIP3   OH234171   2.998   3.515   7.648  0.0677  0.0343 -0.1887
 4203TIP3    H134172   2.914   3.539   7.689 -0.6514 -2.3705 -0.1240
 4203TIP3    H234173   3.038   3.454   7.710  2.3326  1.7654  0.1769
 4204TIP3   OH234174   5.098   4.372   1.707  0.4672  0.2357  0.1288
 4204TIP3    H134175   5.040   4.319   1.762  0.4077  1.3984  1.2306
 4204TIP3    H234176   5.177   4.382   1.760  0.8529  0.4313 -0.4842
 4205TIP3   OH234177   3.705   1.321   2.339  0.1475 -0.3385  0.8011
 4205TIP3    H134178   3.620   1.365   2.341 -0.1345 -0.7893 -0.4765
 4205TIP3    H234179   3.744   1.341   2.424 -1.2577 -0.1750  1.4398
 4206TIP3   OH234180   0.909   5.856   6.889 -0.0806  0.3570  0.2803
 4206TIP3    H134181   0.956   5.907   6.824 -0.1747  0.1354  0.0394
 4206TIP3    H234182   0.817   5.867   6.867 -0.1662  1.0510  0.9432
 4207TIP3   OH234183   4.993   2.190   6.702 -0.3558 -0.1541  0.1859
 4207TIP3    H134184   5.083   2.183   6.669 -0.0325  1.5428  0.6097
 4207TIP3    H234185   4.978   2.107   6.747  0.4417 -1.0924 -1.1884
 4208TIP3   OH234186   0.454   5.466   8.662 -0.2018 -0.4071  0.0260
 4208TIP3    H134187   0.545   5.478   8.635  0.4859  0.2163  2.3489
 4208TIP3    H234188   0.438   5.372   8.650  1.1557 -0.7460  0.6287
 4209TIP3   OH234189   1.046   4.971   7.210 -0.9214  0.1910 -0.0908
 4209TIP3    H134190   1.012   4.968   7.120  0.0532  1.1352 -0.5103
 4209TIP3    H234191   1.128   4.922   7.206 -1.6050 -1.0994  0.6657
 4210TIP3   OH234192   3.676   2.123   7.345  0.1332  0.4948 -0.6766
 4210TIP3    H134193   3.590   2.163   7.360  0.2346  0.0349  1.5399
 4210TIP3    H234194   3.738   2.195   7.361  0.2724 -0.1564  2.2791
 4211TIP3   OH234195   5.576   3.209   6.643 -0.6892  0.0834 -0.6545
 4211TIP3    H134196   5.492   3.175   6.674 -0.7071 -0.7479 -1.5697
 4211TIP3    H234197   5.640   3.141   6.666 -0.6930 -0.5485 -2.2925
 4212TIP3   OH234198   5.451   1.827   7.887 -0.4380 -0.2296  0.0037
 4212TIP3    H134199   5.455   1.790   7.975 -2.5956  0.2374  0.3400
 4212TIP3    H234200   5.494   1.762   7.832 -0.0163 -1.0251  1.2311
 4213TIP3   OH234201   2.088   6.143   1.077 -1.0010 -0.0776 -0.1725
 4213TIP3    H134202   2.129   6.123   0.993 -1.7537  0.5231 -0.6962
 4213TIP3    H234203   2.156   6.125   1.142 -0.8867 -1.9887 -0.7708
 4214TIP3   OH234204   2.282   0.307   6.493  0.4474 -0.2719 -0.3042
 4214TIP3    H134205   2.189   0.293   6.512 -0.6479  0.1987 -4.3733
 4214TIP3    H234206   2.323   0.221   6.507 -0.5711 -0.5348  1.3385
 4215TIP3   OH234207   1.551   5.809   6.769 -0.0598 -0.2169 -0.4699
 4215TIP3    H134208   1.554   5.718   6.799  0.5829  0.3025  1.1577
 4215TIP3    H234209   1.612   5.812   6.695  1.9312 -0.6028  1.0725
 4216TIP3   OH234210   3.888   4.472   8.616 -0.1272  0.0119  0.1295
 4216TIP3    H134211   3.847   4.501   8.698 -1.0967 -1.9980  0.4216
 4216TIP3    H234212   3.952   4.540   8.595 -1.8806  2.0384  1.0054
 4217TIP3   OH234213   4.673   5.807   6.727 -0.3186  0.5232 -0.4464
 4217TIP3    H134214   4.750   5.800   6.784 -0.7795 -0.5531  0.0684
 4217TIP3    H234215   4.599   5.815   6.787 -0.9638 -2.0203 -0.7801
 4218TIP3   OH234216   6.199   3.959   1.448  0.4467  0.3068  0.1791
 4218TIP3    H134217   6.290   3.966   1.478  1.4577 -0.5399 -2.4292
 4218TIP3    H234218   6.194   4.016   1.371 -1.1046 -0.0424 -0.0192
 4219TIP3   OH234219   0.188   2.670   8.341 -0.1962  0.3956  0.3801
 4219TIP3    H134220   0.143   2.590   8.367 -0.6747 -0.3562 -2.4757
 4219TIP3    H234221   0.123   2.720   8.292  1.1371  0.7582 -1.1058
 4220TIP3   OH234222   5.093   4.139   6.493 -0.3026  0.1399 -0.3303
 4220TIP3    H134223   5.078   4.210   6.431  1.5111 -0.1156 -1.1140
 4220TIP3    H234224   5.169   4.168   6.544  1.5882 -1.9051 -1.8071
 4221TIP3   OH234225   3.137   4.953   6.502  0.3069 -0.3996  0.2255
 4221TIP3    H134226   3.209   4.987   6.448  0.0454 -0.9620 -0.4944
 4221TIP3    H234227   3.085   5.030   6.523  0.6654 -0.1041  0.0443
 4222TIP3   OH234228   2.174   0.010   6.411 -0.5710  0.2443  0.1019
 4222TIP3    H134229   2.208   0.032   6.498 -2.6370 -0.5576  1.1844
 4222TIP3    H234230   2.150  -0.082   6.418 -3.0350  0.7907 -0.5093
 4223TIP3   OH234231   6.396   3.313   8.350  0.1978  0.5360 -0.1752
 4223TIP3    H134232   6.342   3.302   8.429 -1.0100 -3.0039 -1.2679
 4223TIP3    H234233   6.333   3.310   8.278  1.5838 -2.5106 -1.4556
 4224TIP3   OH234234   2.496   5.332   6.949  0.3872 -0.1691 -0.1278
 4224TIP3    H134235   2.552   5.332   6.872  0.1742 -1.1597 -0.3035
 4224TIP3    H234236   2.556   5.339   7.023  0.5538  1.4467 -0.3783
 4225TIP3   OH234237   2.402   5.698   0.732 -0.2076  0.4538  0.1901
 4225TIP3    H134238   2.487   5.659   0.714  0.1963  1.0169  0.7978
 4225TIP3    H234239   2.401   5.779   0.680 -0.7790 -0.0286 -0.5730
 4226TIP3   OH234240   0.264   3.991   1.175  0.1433 -1.0575  0.3428
 4226TIP3    H134241   0.280   4.065   1.233  1.9182 -1.7540  0.8259
 4226TIP3    H234242   0.301   4.017   1.091 -0.8197 -0.7359  0.0089
 4227TIP3   OH234243   0.130   4.845   1.082  0.6021  0.0560  0.1713
 4227TIP3    H134244   0.120   4.819   1.173  1.5621 -0.4591  0.1457
 4227TIP3    H234245   0.095   4.933   1.078  1.3518  0.4280  1.2384
 4228TIP3   OH234246   1.790   0.836   8.125  0.5454 -0.1102 -0.4274
 4228TIP3    H134247   1.727   0.899   8.161  0.7031  0.3434 -0.9434
 4228TIP3    H234248   1.863   0.837   8.187  0.5054  0.1395 -0.3844
 4229TIP3   OH234249   3.521   0.591   7.889  0.2633 -0.4870  0.6901
 4229TIP3    H134250   3.480   0.540   7.819 -1.7082  1.5571  0.2511
 4229TIP3    H234251   3.588   0.643   7.844  1.1817 -1.4858  0.8777
 4230TIP3   OH234252   2.578   3.077   8.104  0.3281 -0.4592  0.0501
 4230TIP3    H134253   2.608   2.987   8.091 -1.2342 -0.9876 -0.1135
 4230TIP3    H234254   2.483   3.071   8.099  0.0809  0.8798  2.0839
 4231TIP3   OH234255   4.980   4.381   7.667 -0.4392  0.0460  0.3053
 4231TIP3    H134256   4.909   4.383   7.603 -1.1438  0.3595  1.0772
 4231TIP3    H234257   5.036   4.309   7.639 -0.7126  0.1975 -0.6739
 4232TIP3   OH234258   5.008   4.177   1.518  0.0682 -0.5831  0.4512
 4232TIP3    H134259   5.048   4.230   1.587 -1.2990  0.8094  0.2153
 4232TIP3    H234260   4.992   4.092   1.560 -0.7891  0.2455  1.8945
 4233TIP3   OH234261   3.188   3.032   1.418  0.5905 -0.3730 -0.1597
 4233TIP3    H134262   3.170   3.084   1.497 -2.6723  1.2637 -1.7702
 4233TIP3    H234263   3.279   3.051   1.397  0.9248  0.7928  2.0405
 4234TIP3   OH234264   2.097   5.615   8.621  0.1203 -0.3179 -0.2456
 4234TIP3    H134265   2.103   5.605   8.526 -0.4526 -1.4278 -0.1735
 4234TIP3    H234266   2.186   5.596   8.652  0.1377 -0.6746 -0.5042
 4235TIP3   OH234267   6.637   1.798   7.365  0.5472 -0.2563 -0.2748
 4235TIP3    H134268   6.685   1.859   7.309 -0.6242 -0.4492 -1.5536
 4235TIP3    H234269   6.608   1.852   7.439 -3.2907  1.7604 -2.9126
 4236TIP3   OH234270   3.586   1.721   2.255  0.3355 -0.3436  0.2831
 4236TIP3    H134271   3.552   1.797   2.208  0.6010 -0.0823  0.5075
 4236TIP3    H234272   3.659   1.756   2.307  2.2408 -1.2080 -1.6484
 4237TIP3   OH234273   3.794   6.756   1.334  0.0582  0.0733  0.3228
 4237TIP3    H134274   3.799   6.851   1.349 -0.0164  0.1460 -0.0827
 4237TIP3    H234275   3.798   6.717   1.421  1.6375  0.3833  0.4268
 4238TIP3   OH234276   5.840   0.055   0.526  0.7326 -0.5109 -0.1239
 4238TIP3    H134277   5.861   0.143   0.497 -0.3200 -0.7812 -1.8858
 4238TIP3    H234278   5.908  -0.000   0.487  0.8153 -0.5856  0.1257
 4239TIP3   OH234279   3.154   0.285   6.785 -0.1455  0.3978  0.0346
 4239TIP3    H134280   3.106   0.364   6.759 -2.3253 -0.7376  0.3844
 4239TIP3    H234281   3.151   0.229   6.707 -1.1999 -0.4975  0.6993
 4240TIP3   OH234282   0.551   5.875   8.337 -0.4688  0.6888  0.0596
 4240TIP3    H134283   0.521   5.833   8.417 -0.6612  0.7026 -0.0060
 4240TIP3    H234284   0.647   5.870   8.342 -0.4549  1.4095  0.6744
 4241TIP3   OH234285   0.034   2.616   6.619  0.3337 -0.3711 -0.0083
 4241TIP3    H134286   0.042   2.547   6.553  0.5495 -0.0344 -0.3407
 4241TIP3    H234287  -0.057   2.644   6.614  0.2643 -0.5823  0.0775
 4242TIP3   OH234288   4.495   5.299   0.534  0.2380 -0.4440  0.1510
 4242TIP3    H134289   4.509   5.389   0.563 -0.3888  0.7468 -2.8782
 4242TIP3    H234290   4.575   5.253   0.561  1.6211  1.5989 -0.1930
 4243TIP3   OH234291   5.145   3.412   7.152  0.0010 -0.1740  0.2510
 4243TIP3    H134292   5.140   3.321   7.123  0.6819 -0.1498  0.0405
 4243TIP3    H234293   5.199   3.410   7.231  1.6404  0.2561 -0.7970
 4244TIP3   OH234294   3.318   0.171   1.629 -0.3281 -0.8195  0.2370
 4244TIP3    H134295   3.226   0.190   1.610  0.0969 -0.4862 -1.6095
 4244TIP3    H234296   3.364   0.252   1.610  0.7754 -1.9267 -2.2053
 4245TIP3   OH234297   6.425   2.199   2.071  0.6987 -0.0699  0.2935
 4245TIP3    H134298   6.422   2.111   2.034 -0.0519 -0.2892  0.8437
 4245TIP3    H234299   6.476   2.188   2.152 -2.3471 -0.8090  2.3035
 4246TIP3   OH234300   2.860   3.292   6.765 -0.2610 -0.4088 -0.2944
 4246TIP3    H134301   2.894   3.309   6.677  3.2011 -0.5725  0.8804
 4246TIP3    H234302   2.767   3.312   6.758  0.5665  3.8705 -2.9465
 4247TIP3   OH234303   6.309   2.538   2.311  0.0409  0.1920 -0.1307
 4247TIP3    H134304   6.227   2.574   2.344  0.5913  0.8784  0.5600
 4247TIP3    H234305   6.375   2.570   2.373  0.5949 -1.9238  0.4478
 4248TIP3   OH234306   1.012   2.044   7.423  0.1314 -0.2080 -0.0050
 4248TIP3    H134307   0.938   2.035   7.484 -0.4386 -2.3190 -0.9198
 4248TIP3    H234308   0.972   2.071   7.341  0.6016  0.2349 -0.0934
 4249TIP3   OH234309   4.342   5.375   1.118  0.1380 -0.0106 -0.1001
 4249TIP3    H134310   4.419   5.430   1.135  0.6141 -0.8970  0.6884
 4249TIP3    H234311   4.291   5.378   1.198 -0.9207  0.9469 -0.7765
 4250TIP3   OH234312   2.523   1.010   6.605  0.2677 -0.1661 -0.2655
 4250TIP3    H134313   2.570   0.952   6.546  0.0396  0.1019 -0.7208
 4250TIP3    H234314   2.588   1.074   6.632  0.0879  0.4492 -1.2192
 4251TIP3   OH234315   5.211   1.529   1.978  0.1151 -0.2933 -0.6207
 4251TIP3    H134316   5.263   1.585   1.921  0.2903  1.1297  0.8628
 4251TIP3    H234317   5.142   1.587   2.011  0.5277 -0.8279  1.2552
 4252TIP3   OH234318   5.004   6.160   0.522  0.0542 -0.2463 -0.1890
 4252TIP3    H134319   4.917   6.129   0.495 -0.5377  0.8460  0.3924
 4252TIP3    H234320   5.020   6.236   0.466  0.4574 -0.1890  0.0007
 4253TIP3   OH234321   1.088   5.766   1.631 -0.1553  0.2034  0.3297
 4253TIP3    H134322   1.090   5.767   1.535 -0.2102 -0.9348  0.3015
 4253TIP3    H234323   1.037   5.688   1.653  3.7898 -2.4365  1.2500
 4254TIP3   OH234324   0.257   1.874   0.835 -0.0191 -0.2607  0.0775
 4254TIP3    H134325   0.336   1.883   0.781 -0.8089  0.2637 -1.0474
 4254TIP3    H234326   0.269   1.938   0.905 -0.0978  0.8970 -0.9382
 4255TIP3   OH234327   4.822   3.701   7.645  0.0268 -0.2414  0.1869
 4255TIP3    H134328   4.896   3.704   7.583  0.3978  1.4962  0.6623
 4255TIP3    H234329   4.803   3.608   7.654  2.9684 -0.8726  0.9679
 4256TIP3   OH234330   4.260   1.547   7.933 -0.0748 -0.4816 -0.1677
 4256TIP3    H134331   4.316   1.619   7.903 -1.0541  1.4087  2.2092
 4256TIP3    H234332   4.301   1.518   8.014 -1.7054 -0.0137  0.8715
 4257TIP3   OH234333   6.489   1.763   0.611 -0.0079 -0.5452 -0.1237
 4257TIP3    H134334   6.447   1.785   0.528 -0.5622 -1.1733 -0.0169
 4257TIP3    H234335   6.510   1.848   0.650  0.1228 -0.2405 -0.8308
 4258TIP3   OH234336   0.769   4.579   1.858  0.2532 -0.1511 -0.4374
 4258TIP3    H134337   0.748   4.670   1.837 -0.5934 -0.5290 -1.2990
 4258TIP3    H234338   0.713   4.558   1.933  2.6115  0.9140  1.8016
 4259TIP3   OH234339   3.644   6.348   1.470 -0.1443 -0.2020  0.5288
 4259TIP3    H134340   3.657   6.395   1.388 -0.7732  1.5173  1.3721
 4259TIP3    H234341   3.728   6.356   1.516  0.7874 -2.6313 -0.6010
 4260TIP3   OH234342   5.807   3.250   7.007  0.7487 -0.0734 -0.4596
 4260TIP3    H134343   5.883   3.307   7.016  2.1623 -1.3591 -3.0820
 4260TIP3    H234344   5.804   3.200   7.088  2.1452  0.6431  0.0518
 4261TIP3   OH234345   3.541   5.003   7.763  0.0688 -0.3221 -0.2313
 4261TIP3    H134346   3.575   5.078   7.812 -0.7134  0.8000 -1.3400
 4261TIP3    H234347   3.619   4.958   7.731  0.5486  0.4639 -0.2026
 4262TIP3   OH234348   4.948   5.102   7.136  0.3577 -0.7444 -0.2595
 4262TIP3    H134349   5.017   5.169   7.139 -0.1861 -0.1634 -0.4775
 4262TIP3    H234350   4.984   5.033   7.080  0.2051  0.2135 -1.5736
 4263TIP3   OH234351   2.767   6.646   1.527 -0.0313 -0.4657 -0.3138
 4263TIP3    H134352   2.783   6.552   1.516 -0.9919 -0.9127  1.6482
 4263TIP3    H234353   2.682   6.661   1.485 -0.5293 -0.7861  0.5466
 4264TIP3   OH234354   5.385   1.988   8.804  0.2286  0.0638 -0.2029
 4264TIP3    H134355   5.429   2.047   8.743  3.1918 -0.0788  1.5888
 4264TIP3    H234356   5.427   1.904   8.791 -0.1960 -0.3451  0.9351
 4265TIP3   OH234357   3.039   3.244   1.599 -0.2522  0.6114 -0.0892
 4265TIP3    H134358   3.031   3.323   1.546 -1.4902  0.3004 -0.4168
 4265TIP3    H234359   2.963   3.190   1.573 -1.6022  0.9400  2.7923
 4266TIP3   OH234360   6.337   2.194   1.748 -0.0555  0.1379  0.6126
 4266TIP3    H134361   6.368   2.105   1.761 -0.4305 -0.1498 -0.3739
 4266TIP3    H234362   6.378   2.245   1.818  1.4275 -0.5151  0.2505
 4267TIP3   OH234363   0.913   2.999   8.019  0.3432  0.0675 -0.3073
 4267TIP3    H134364   0.912   2.904   8.030  2.6173 -0.2937 -2.3791
 4267TIP3    H234365   0.987   3.029   8.072 -1.3671  1.0002  1.7088
 4268TIP3   OH234366   2.247   1.794   7.923 -0.4090  0.1380  0.4380
 4268TIP3    H134367   2.182   1.823   7.986 -0.4526  2.0369 -0.4153
 4268TIP3    H234368   2.291   1.874   7.894  0.5044 -0.8094 -0.9502
 4269TIP3   OH234369   1.651   2.230   0.953 -0.7886 -0.8582 -0.2643
 4269TIP3    H134370   1.723   2.191   1.002 -0.0807  0.1596 -0.4491
 4269TIP3    H234371   1.581   2.241   1.017  0.6405  1.8685  1.0117
 4270TIP3   OH234372   1.241   4.638   1.174  0.4805 -0.3330 -0.0684
 4270TIP3    H134373   1.245   4.726   1.138  0.6395 -0.3221 -0.0256
 4270TIP3    H234374   1.215   4.583   1.101 -0.5168 -0.1232  0.1170
 4271TIP3   OH234375   3.528   5.233   0.611  0.0699 -0.2087  0.5348
 4271TIP3    H134376   3.550   5.177   0.685 -1.0024 -1.9334 -0.3963
 4271TIP3    H234377   3.439   5.264   0.629  0.6207  1.1783  1.0020
 4272TIP3   OH234378   0.238   3.357   0.991  0.4689 -0.1553  0.3100
 4272TIP3    H134379   0.258   3.308   1.070 -0.4498  1.4378  1.6118
 4272TIP3    H234380   0.308   3.422   0.983  1.2153 -1.0670 -0.9046
 4273TIP3   OH234381   5.520   2.820   7.470  0.1154 -0.9751 -0.2118
 4273TIP3    H134382   5.613   2.818   7.450  0.3804  1.5410  0.4978
 4273TIP3    H234383   5.477   2.821   7.384  0.6871 -2.1787 -0.5435
 4274TIP3   OH234384   3.887   6.277   7.623 -0.0298 -0.0659 -0.4331
 4274TIP3    H134385   3.843   6.192   7.622 -2.5281  1.1095  0.4577
 4274TIP3    H234386   3.900   6.297   7.715 -2.3145  1.7717 -0.4006
 4275TIP3   OH234387   4.785   2.848   7.707  0.5466  0.0397 -0.6643
 4275TIP3    H134388   4.704   2.867   7.661 -0.5068 -1.4039  0.4963
 4275TIP3    H234389   4.835   2.792   7.647  0.5965  0.7554 -1.2921
 4276TIP3   OH234390   2.026   1.578   0.494  0.5427  0.1355 -0.8069
 4276TIP3    H134391   2.106   1.526   0.485  0.6020 -0.1427  0.9327
 4276TIP3    H234392   1.957   1.521   0.459  0.9007 -0.2687 -0.8721
 4277TIP3   OH234393   1.830   5.858   1.527 -0.9799 -0.0710  0.4012
 4277TIP3    H134394   1.760   5.815   1.479 -1.0414  1.0334 -0.5650
 4277TIP3    H234395   1.815   5.952   1.512  1.3987  0.1849 -0.9307
 4278TIP3   OH234396   1.822   2.420   8.731  0.4695 -0.2455 -0.4880
 4278TIP3    H134397   1.901   2.382   8.771 -0.6981 -1.7381  0.4888
 4278TIP3    H234398   1.757   2.419   8.801 -0.2395  1.6955 -1.0432
 4279TIP3   OH234399   1.584   4.241   7.760  0.3711  0.0092 -0.1538
 4279TIP3    H134400   1.661   4.269   7.810 -0.6363  3.0982 -0.1081
 4279TIP3    H234401   1.512   4.293   7.796 -1.3250 -1.1064 -1.7369
 4280TIP3   OH234402   1.813   6.106   7.147  0.0745 -0.5235  0.3030
 4280TIP3    H134403   1.862   6.088   7.227  0.0563 -1.2972  0.1475
 4280TIP3    H234404   1.876   6.148   7.089  0.1803 -0.2721  0.6024
 4281TIP3   OH234405   1.872   5.344   8.417 -0.6525 -0.2001  0.0229
 4281TIP3    H134406   1.915   5.427   8.395  0.2700 -0.6993 -0.1109
 4281TIP3    H234407   1.942   5.290   8.455 -1.0573 -1.2062 -0.6343
 4282TIP3   OH234408   1.716   6.119   8.164 -0.3483 -0.0340 -0.0571
 4282TIP3    H134409   1.632   6.085   8.195 -0.3154 -0.5501 -0.5185
 4282TIP3    H234410   1.750   6.050   8.106  0.3349  0.2217  0.0308
 4283TIP3   OH234411   2.114   0.284   8.323  0.3290  0.6259  1.0130
 4283TIP3    H134412   2.095   0.194   8.299  0.7372  0.4312  1.4062
 4283TIP3    H234413   2.032   0.331   8.309 -0.1380  0.0168  1.6600
 4284TIP3   OH234414   5.644   0.811   7.598 -0.3678 -0.8461 -0.0112
 4284TIP3    H134415   5.649   0.902   7.567  1.4568 -0.7591  0.3715
 4284TIP3    H234416   5.657   0.819   7.693 -0.8013 -1.4659  0.0998
 4285TIP3   OH234417   4.505   0.013   1.414  0.9194 -0.5612 -0.2025
 4285TIP3    H134418   4.418   0.040   1.384  0.9412 -0.2633  0.0036
 4285TIP3    H234419   4.541   0.090   1.458  1.5322 -0.4939 -0.8115
 4286TIP3   OH234420   2.223   2.219   0.740  0.3091  0.1400  0.1409
 4286TIP3    H134421   2.137   2.178   0.727 -1.1907  3.7324 -3.4500
 4286TIP3    H234422   2.204   2.293   0.799  0.3982  1.9988 -2.0472
 4287TIP3   OH234423   6.461   3.182   1.963  0.4886 -0.6466 -0.2442
 4287TIP3    H134424   6.479   3.276   1.955  0.4688 -0.6715 -0.5873
 4287TIP3    H234425   6.396   3.176   2.033  0.7103 -0.4304 -0.0148
 4288TIP3   OH234426   2.172   2.831   1.973 -0.3597 -0.3967 -0.5531
 4288TIP3    H134427   2.209   2.848   2.060 -1.5439 -0.6292  0.0286
 4288TIP3    H234428   2.086   2.794   1.991 -1.4209  1.2851 -1.8145
 4289TIP3   OH234429   1.112   6.173   1.554  0.5699 -0.3849  0.2030
 4289TIP3    H134430   1.020   6.151   1.571  0.3948 -0.1949 -0.4646
 4289TIP3    H234431   1.116   6.187   1.459  1.2361 -0.1441  0.2626
 4290TIP3   OH234432   6.341   6.721   0.693  0.5902 -0.1609 -0.3498
 4290TIP3    H134433   6.249   6.748   0.689  0.3536 -0.6078  1.2712
 4290TIP3    H234434   6.390   6.803   0.683  0.0453  0.0311 -1.6415
 4291TIP3   OH234435   4.314   1.140   7.235  0.4981  0.2017 -0.6035
 4291TIP3    H134436   4.274   1.108   7.153 -1.3209  1.3934 -0.2521
 4291TIP3    H234437   4.241   1.179   7.283  1.4464 -0.8097  1.7967
 4292TIP3   OH234438   5.941   0.071   7.362 -0.2166  0.3588 -0.0608
 4292TIP3    H134439   5.847   0.089   7.358 -0.4318 -0.7444 -0.5287
 4292TIP3    H234440   5.947  -0.024   7.351  0.9067  0.3060  0.8826
 4293TIP3   OH234441   4.865   5.161   1.504  0.9665 -0.7774  0.2753
 4293TIP3    H134442   4.873   5.071   1.470  1.0492 -0.5300 -0.3878
 4293TIP3    H234443   4.831   5.150   1.592  1.0712 -1.4701  0.2419
 4294TIP3   OH234444   1.425   1.051   2.009  0.0362 -0.2756 -0.1936
 4294TIP3    H134445   1.444   1.111   2.082  0.1474 -0.4953 -0.0404
 4294TIP3    H234446   1.455   0.966   2.040  1.5949 -0.1056 -1.1123
 4295TIP3   OH234447   1.451   1.935   7.139  0.1415  0.4650  0.6096
 4295TIP3    H134448   1.467   1.952   7.231  0.3767  1.2610  0.4233
 4295TIP3    H234449   1.359   1.958   7.126 -0.1819 -0.5973  0.8521
 4296TIP3   OH234450   5.789   3.056   0.019 -0.5573  0.1370 -0.5759
 4296TIP3    H134451   5.761   2.990   0.082 -0.1488  1.0313  0.6034
 4296TIP3    H234452   5.721   3.124   0.024  1.1435  1.8573  1.5774
 4297TIP3   OH234453   6.782   0.976   8.626 -0.2968  0.2521  0.1625
 4297TIP3    H134454   6.840   0.901   8.641 -1.4136 -0.6515  0.0647
 4297TIP3    H234455   6.702   0.938   8.591 -0.6881  1.5601 -0.4122
 4298TIP3   OH234456   1.050   5.742   1.351  0.2304 -0.1314 -0.0632
 4298TIP3    H134457   1.110   5.803   1.309  3.1125 -2.1759  0.8065
 4298TIP3    H234458   1.018   5.687   1.279  1.3474 -0.5603 -0.2488
 4299TIP3   OH234459   6.111   5.575   0.721  0.2330 -0.3748  0.1060
 4299TIP3    H134460   6.152   5.638   0.662  1.0999 -1.0353 -0.0110
 4299TIP3    H234461   6.141   5.600   0.808  1.4697 -1.2658 -0.0413
 4300TIP3   OH234462   6.299   4.340   0.803  0.0609 -0.0250 -0.7709
 4300TIP3    H134463   6.240   4.265   0.809  0.9461 -0.8776 -2.1913
 4300TIP3    H234464   6.246   4.409   0.762  0.0084 -0.7934 -2.0637
 4301TIP3   OH234465   0.191   6.272   1.890 -0.1457 -0.2709 -0.7856
 4301TIP3    H134466   0.133   6.249   1.963  1.6553  2.1876  1.6256
 4301TIP3    H234467   0.139   6.328   1.834 -0.3622  1.5140  1.0911
 4302TIP3   OH234468   2.220   5.998   0.860 -0.0519  0.4595  0.5999
 4302TIP3    H134469   2.259   5.969   0.778  1.5230 -0.3232  1.5839
 4302TIP3    H234470   2.130   5.966   0.857  0.8678 -2.3522  0.5219
 4303TIP3   OH234471   5.024   5.251   7.459  0.0517  0.1958 -0.3970
 4303TIP3    H134472   5.024   5.269   7.365  0.3440  0.2068 -0.3961
 4303TIP3    H234473   4.965   5.177   7.470 -0.8145  0.8577 -0.4614
 4304TIP3   OH234474   2.606   2.655   7.262 -0.1515 -0.7164 -0.5590
 4304TIP3    H134475   2.602   2.683   7.170  0.0487 -1.3773 -0.7713
 4304TIP3    H234476   2.561   2.725   7.309 -0.0768 -0.2668 -1.1350
 4305TIP3   OH234477   5.065   0.390   7.900  0.0011 -0.0390  0.1030
 4305TIP3    H134478   5.038   0.323   7.837  2.0503 -1.8717  1.0231
 4305TIP3    H234479   5.006   0.378   7.974  0.3520 -0.8694  0.2617
 4306TIP3   OH234480   0.276   2.827   8.012 -0.1158 -0.2208 -0.2980
 4306TIP3    H134481   0.306   2.802   8.099 -0.2231 -2.5067 -0.8526
 4306TIP3    H234482   0.285   2.922   8.010  2.3219 -0.3281  1.2915
 4307TIP3   OH234483   0.918   5.980   1.724 -0.4659  0.0881 -1.1027
 4307TIP3    H134484   0.826   5.973   1.698 -0.7370  0.8726 -0.3800
 4307TIP3    H234485   0.957   5.897   1.696 -1.6045 -0.6350 -0.5892
 4308TIP3   OH234486   5.428   4.237   8.787 -0.1908  0.0406 -0.0375
 4308TIP3    H134487   5.386   4.200   8.865  0.1804  1.0732  0.6692
 4308TIP3    H234488   5.393   4.326   8.781 -0.3772 -0.1010 -1.1855
 4309TIP3   OH234489   3.271   3.209   2.324  0.4742  0.0224  0.0859
 4309TIP3    H134490   3.274   3.219   2.419 -1.1852 -1.3246  0.3382
 4309TIP3    H234491   3.307   3.122   2.308 -1.1314 -0.6201 -0.2699
 4310TIP3   OH234492   4.273   3.262   7.186  0.0839  0.0162  0.2553
 4310TIP3    H134493   4.188   3.238   7.147  1.0132 -2.0389 -0.6122
 4310TIP3    H234494   4.318   3.309   7.115  0.2622 -0.2383  0.2023
 4311TIP3   OH234495   3.579   2.395   0.216 -0.5158 -0.0004 -0.0870
 4311TIP3    H134496   3.483   2.399   0.224 -0.3135  2.0108  3.1535
 4311TIP3    H234497   3.610   2.385   0.306  2.3616 -2.8898 -1.2101
 4312TIP3   OH234498   2.863   1.500   1.128 -0.1947  0.0438  0.5954
 4312TIP3    H134499   2.830   1.516   1.217 -2.6525  0.1372 -0.2414
 4312TIP3    H234500   2.784   1.501   1.073  0.6529 -3.9519 -1.0935
 4313TIP3   OH234501   4.288   2.538   7.432  0.1685  0.2429 -0.2524
 4313TIP3    H134502   4.268   2.469   7.369  1.3936  0.8820 -1.3913
 4313TIP3    H234503   4.290   2.618   7.380  1.5253  0.7446  0.5191
 4314TIP3   OH234504   2.252   4.471   8.343  0.4050  0.6661 -0.2336
 4314TIP3    H134505   2.343   4.492   8.364  0.5123  0.1756 -0.2037
 4314TIP3    H234506   2.201   4.515   8.411  0.6930 -0.1124  0.5100
 4315TIP3   OH234507   1.659   5.533   1.902  0.1420 -0.2075 -0.8533
 4315TIP3    H134508   1.678   5.565   1.814 -0.6194  0.4913 -0.7807
 4315TIP3    H234509   1.621   5.608   1.948 -0.8042 -0.9425 -0.3730
 4316TIP3   OH234510   6.162   3.116   0.119 -0.1013 -0.4521 -0.1621
 4316TIP3    H134511   6.129   3.028   0.135 -0.6450 -0.2641 -0.2307
 4316TIP3    H234512   6.086   3.173   0.131  0.0001 -0.0924 -1.1264
 4317TIP3   OH234513   6.584   3.602   6.162  0.1414  0.0984  0.2929
 4317TIP3    H134514   6.508   3.545   6.151  1.3748 -2.0951  2.0125
 4317TIP3    H234515   6.555   3.672   6.220 -0.9748  0.2690 -0.4536
 4318TIP3   OH234516   0.155   5.104   0.455  0.3428 -0.3073  0.3580
 4318TIP3    H134517   0.144   5.149   0.372  1.9852  0.1323  0.3483
 4318TIP3    H234518   0.130   5.169   0.521  0.3371 -0.2021  0.2526
 4319TIP3   OH234519   0.506   3.815   6.728  0.3520 -0.0196  0.4178
 4319TIP3    H134520   0.459   3.820   6.645  0.7128 -1.2915  0.1136
 4319TIP3    H234521   0.448   3.764   6.785  0.4697  0.1340  0.6718
 4320TIP3   OH234522   3.195   5.789   0.505 -0.0436 -0.1700 -0.1022
 4320TIP3    H134523   3.184   5.880   0.532 -1.9650 -0.2012 -0.6743
 4320TIP3    H234524   3.281   5.788   0.462 -0.4722  1.6354 -1.1112
 4321TIP3   OH234525   2.001   4.084   1.151  0.1756  0.1743  0.3785
 4321TIP3    H134526   2.018   4.083   1.245  2.5370 -0.4726  0.0075
 4321TIP3    H234527   2.004   3.992   1.125  0.4189  0.4089 -0.4536
 4322TIP3   OH234528   3.726   5.598   1.618  0.5570  0.1535  0.6284
 4322TIP3    H134529   3.640   5.632   1.643  0.2066  0.4806 -0.9064
 4322TIP3    H234530   3.762   5.665   1.559  1.2961 -0.5884  0.2099
 4323TIP3   OH234531   0.349   4.258   1.756 -0.3647  0.2022 -0.6278
 4323TIP3    H134532   0.303   4.224   1.833 -0.0050  0.1723 -0.4235
 4323TIP3    H234533   0.436   4.219   1.761 -0.6270 -0.5459 -1.5601
 4324TIP3   OH234534   3.369   4.800   6.332  0.3979 -0.3314 -0.5041
 4324TIP3    H134535   3.401   4.879   6.376 -1.0377  0.0150 -0.0333
 4324TIP3    H234536   3.402   4.728   6.386 -0.1853  0.0433  0.3896
 4325TIP3   OH234537   3.300   6.770   1.147  0.1931  0.4769  0.2422
 4325TIP3    H134538   3.337   6.813   1.224  0.2036 -0.9172  1.0597
 4325TIP3    H234539   3.245   6.837   1.106  1.6453  1.8159  0.3920
 4326TIP3   OH234540   3.230   5.697   6.571 -0.3506  0.3527 -0.2959
 4326TIP3    H134541   3.172   5.772   6.582 -0.1756  0.4680 -0.1498
 4326TIP3    H234542   3.318   5.733   6.583 -0.2899  0.0460  0.2454
 4327TIP3   OH234543   3.654   6.619   8.745 -0.0044 -0.3227 -0.3017
 4327TIP3    H134544   3.572   6.571   8.755  0.1247 -0.4440  0.1984
 4327TIP3    H234545   3.698   6.577   8.671 -1.1226  0.7916 -1.6581
 4328TIP3   OH234546   5.941   5.651   8.005 -0.5950  0.2212 -0.0938
 4328TIP3    H134547   5.984   5.730   7.971 -0.0592  0.8311  1.9000
 4328TIP3    H234548   5.882   5.683   8.072 -1.6335 -0.9544 -0.4122
 4329TIP3   OH234549   3.088   6.564   0.792  0.0278  0.0130 -0.0545
 4329TIP3    H134550   3.117   6.628   0.727 -0.9069  1.0141  0.4896
 4329TIP3    H234551   3.159   6.560   0.855 -0.5186  1.6641  0.7120
 4330TIP3   OH234552   2.395   6.430   0.050 -0.9021 -0.0193  0.4391
 4330TIP3    H134553   2.451   6.359   0.080 -0.5117 -0.1304 -0.5390
 4330TIP3    H234554   2.309   6.411   0.089 -0.2400  0.2831  2.1377
 4331TIP3   OH234555   5.673   2.972   1.011  1.2777 -0.2252  0.0092
 4331TIP3    H134556   5.678   2.921   1.092  1.9485  0.3052  0.3138
 4331TIP3    H234557   5.582   2.963   0.982  0.6467  0.7306  1.5820
 4332TIP3   OH234558   6.407   5.767   0.844 -0.0205  0.6448  0.1909
 4332TIP3    H134559   6.331   5.746   0.899  0.1312 -0.4579 -0.0025
 4332TIP3    H234560   6.468   5.695   0.859  1.2837  1.8422  0.8384
 4333TIP3   OH234561   3.752   5.757   0.172 -0.3667  0.1170  0.0086
 4333TIP3    H134562   3.762   5.719   0.084 -1.5987  1.5420 -0.8091
 4333TIP3    H234563   3.713   5.688   0.224 -3.1713  0.3098 -1.5988
 4334TIP3   OH234564   3.088   2.784   0.176  0.8533  0.0378  0.2746
 4334TIP3    H134565   3.142   2.863   0.174  2.9935 -1.3572 -0.5604
 4334TIP3    H234566   3.008   2.811   0.221  0.9095  3.0042 -1.1921
 4335TIP3   OH234567   1.109   0.439   7.226 -0.3532 -0.2181 -0.4110
 4335TIP3    H134568   1.101   0.520   7.175 -1.0485  0.6290  0.9886
 4335TIP3    H234569   1.023   0.428   7.266  0.1027 -1.0035  0.3783
 4336TIP3   OH234570   0.161   5.213   1.928  0.6247  0.1843  0.1004
 4336TIP3    H134571   0.184   5.295   1.971 -0.4352  0.6852 -0.2631
 4336TIP3    H234572   0.184   5.145   1.992  2.0497  0.7128  0.1779
 4337TIP3   OH234573   3.932   0.774   6.295 -0.0568  0.1845 -0.4275
 4337TIP3    H134574   3.864   0.830   6.333 -2.5098 -2.4166 -0.6713
 4337TIP3    H234575   3.957   0.818   6.214 -1.1647  1.4280 -0.1203
 4338TIP3   OH234576   5.936   5.283   7.618  0.7085  0.4126 -0.1794
 4338TIP3    H134577   6.002   5.241   7.674  1.7783  2.3834  0.1453
 4338TIP3    H234578   5.977   5.365   7.591 -1.5240  1.6004 -0.1947
 4339TIP3   OH234579   1.935   4.577   7.149 -0.4444  0.4350  0.5283
 4339TIP3    H134580   1.880   4.592   7.226 -0.2777  0.4993  0.6363
 4339TIP3    H234581   2.023   4.603   7.178 -0.7504  2.7715 -0.3753
 4340TIP3   OH234582   2.650   5.632   0.652 -0.4598  0.3847 -0.1067
 4340TIP3    H134583   2.675   5.621   0.560  0.4577  0.3421  0.1383
 4340TIP3    H234584   2.719   5.686   0.690 -0.1728 -0.6163  0.8443
 4341TIP3   OH234585   4.335   5.075   7.746 -0.0915  0.1022 -0.7625
 4341TIP3    H134586   4.253   5.124   7.754  0.8046  1.4114  1.1332
 4341TIP3    H234587   4.339   5.021   7.825  1.9544  1.8972  0.4645
 4342TIP3   OH234588   4.654   5.294   8.810 -0.0348 -0.0156  0.5049
 4342TIP3    H134589   4.728   5.271   8.867 -1.0356 -0.2231  1.7797
 4342TIP3    H234590   4.580   5.307   8.870 -1.1878 -0.3946 -0.7554
 4343TIP3   OH234591   5.872   5.385   7.941  0.2522 -0.1271  0.0510
 4343TIP3    H134592   5.926   5.344   7.873 -0.4135  2.5820 -2.3140
 4343TIP3    H234593   5.913   5.471   7.955 -2.3906  1.3252 -0.5615
 4344TIP3   OH234594   0.748   0.338   7.847 -0.0553  0.9031 -0.4443
 4344TIP3    H134595   0.704   0.254   7.833  2.1047 -0.2488 -0.8087
 4344TIP3    H234596   0.737   0.384   7.764 -1.4683  1.1308 -0.1621
 4345TIP3   OH234597   0.302   3.310   8.394 -0.6392  0.7011  0.2863
 4345TIP3    H134598   0.220   3.288   8.437 -1.8573  0.6661 -1.9380
 4345TIP3    H234599   0.349   3.226   8.388  0.1263  0.8937  2.5199
 4346TIP3   OH234600   5.732   5.820   0.253 -0.1927  0.3822 -0.2271
 4346TIP3    H134601   5.695   5.851   0.336  3.2959 -1.2389  2.1973
 4346TIP3    H234602   5.749   5.899   0.203  0.3691  1.7237  1.9479
 4347TIP3   OH234603   1.096   2.028   0.387  0.1649  0.2064 -0.2292
 4347TIP3    H134604   1.141   2.087   0.326  0.7490  1.5163  1.3810
 4347TIP3    H234605   1.030   2.082   0.429 -2.2241 -1.3886 -1.6586
 4348TIP3   OH234606   3.876   3.758   0.883  0.2464 -0.5701  0.0109
 4348TIP3    H134607   3.958   3.774   0.836 -0.0811 -0.1007 -0.4075
 4348TIP3    H234608   3.893   3.793   0.971  0.5032 -0.4861 -0.0691
 4349TIP3   OH234609   2.488   3.724   6.902  0.5142 -0.0387  0.0059
 4349TIP3    H134610   2.502   3.689   6.815 -1.3837 -0.4220 -0.2033
 4349TIP3    H234611   2.426   3.662   6.943 -3.3459  3.0507 -0.5256
 4350TIP3   OH234612   0.884   5.745   7.633  0.3954 -0.2624 -0.0782
 4350TIP3    H134613   0.975   5.758   7.661  0.3630 -0.5714  0.1764
 4350TIP3    H234614   0.835   5.740   7.715 -0.0418  1.1856 -0.2289
 4351TIP3   OH234615   3.254   2.593   1.861  0.5802  0.1578  0.1733
 4351TIP3    H134616   3.192   2.666   1.855 -1.1842 -1.1916  1.0126
 4351TIP3    H234617   3.334   2.626   1.820 -0.0673  2.6237  0.7341
 4352TIP3   OH234618   4.825   3.318   8.066  0.3342  0.0808  0.3841
 4352TIP3    H134619   4.900   3.375   8.082 -0.3178  0.7791  0.9875
 4352TIP3    H234620   4.811   3.324   7.971  0.4620  0.6769  0.3993
 4353TIP3   OH234621   2.769   2.241   1.123  0.5379 -0.3669 -0.2655
 4353TIP3    H134622   2.767   2.188   1.042 -0.3377 -1.7105  0.5898
 4353TIP3    H234623   2.791   2.178   1.192  1.0623  0.7220  0.5893
 4354TIP3   OH234624   0.177   1.910   7.254 -0.0970  0.0524 -0.8765
 4354TIP3    H134625   0.092   1.951   7.272 -0.0380  0.8022 -2.1757
 4354TIP3    H234626   0.200   1.939   7.166  0.3031 -2.2410 -1.5966
 4355TIP3   OH234627   0.522   4.228   2.346  0.1085 -0.1231  0.2791
 4355TIP3    H134628   0.477   4.190   2.421 -0.0425  0.7178  0.6304
 4355TIP3    H234629   0.455   4.234   2.278 -0.8994  2.8169  1.3749
 4356TIP3   OH234630   6.278   0.838   0.440 -0.1241 -0.7319 -0.0063
 4356TIP3    H134631   6.338   0.804   0.374 -1.2416  1.0442 -2.0727
 4356TIP3    H234632   6.304   0.929   0.451 -1.3541 -0.4078  0.3529
 4357TIP3   OH234633   5.758   5.701   1.844 -0.6502  0.4562 -0.2952
 4357TIP3    H134634   5.693   5.678   1.777 -0.1885 -0.5987 -0.3951
 4357TIP3    H234635   5.762   5.624   1.901  1.7000 -0.1841 -1.2272
 4358TIP3   OH234636   5.666   4.371   8.633  0.7554  0.5607  0.4444
 4358TIP3    H134637   5.612   4.450   8.632  0.5653  0.4301 -0.0651
 4358TIP3    H234638   5.649   4.330   8.548  0.5762 -0.2097  0.8452
 4359TIP3   OH234639   2.458   2.240   8.410 -0.0035 -0.7926 -0.7005
 4359TIP3    H134640   2.534   2.200   8.368  0.1053  1.1574 -2.5254
 4359TIP3    H234641   2.394   2.169   8.417  0.6061 -1.5848 -2.6243
 4360TIP3   OH234642   2.400   2.691   6.183 -0.0088  0.3020  0.0918
 4360TIP3    H134643   2.399   2.753   6.110  0.1863 -1.6470 -1.6781
 4360TIP3    H234644   2.313   2.652   6.182  0.3677 -0.5586  0.1630
 4361TIP3   OH234645   3.617   5.740   1.038 -0.0542  0.5408  0.2834
 4361TIP3    H134646   3.709   5.728   1.062  0.1445 -0.2688 -0.7823
 4361TIP3    H234647   3.599   5.832   1.057  0.9810  0.7186  0.4850
 4362TIP3   OH234648   2.824   5.146   6.864 -0.1361  0.0263 -0.7676
 4362TIP3    H134649   2.766   5.216   6.891  0.9056  0.3208  0.8781
 4362TIP3    H234650   2.803   5.131   6.772 -2.1061  0.7638 -0.4922
 4363TIP3   OH234651   2.635   6.503   1.023  0.1493 -0.2611  0.1353
 4363TIP3    H134652   2.674   6.416   1.021 -0.4422 -0.5149 -1.7561
 4363TIP3    H234653   2.691   6.553   1.083  2.4763 -1.0217 -1.2778
 4364TIP3   OH234654   6.820   3.711   7.770  0.0612  0.4590  0.2683
 4364TIP3    H134655   6.745   3.656   7.747 -0.3700  0.8845  0.6259
 4364TIP3    H234656   6.797   3.748   7.856  0.2916  1.2781 -0.0127
 4365TIP3   OH234657   6.749   4.533   6.663  0.0847  0.2299  1.1641
 4365TIP3    H134658   6.673   4.582   6.633  0.4174 -0.3473 -0.7675
 4365TIP3    H234659   6.724   4.441   6.653  0.9177  0.0361  0.7833
 4366TIP3   OH234660   4.350   4.456   1.627 -0.0615  0.2961 -0.4825
 4366TIP3    H134661   4.399   4.450   1.710  0.0815 -0.0787 -0.5943
 4366TIP3    H234662   4.267   4.413   1.646 -0.3388  0.8884 -0.3080
 4367TIP3   OH234663   6.338   1.537   7.839  0.1248 -0.2543 -0.2071
 4367TIP3    H134664   6.428   1.571   7.841  0.6239 -1.5361  1.1835
 4367TIP3    H234665   6.322   1.516   7.747  0.5712  1.6726 -0.7543
 4368TIP3   OH234666   4.654   4.387   0.434 -0.6598  0.0557  0.4550
 4368TIP3    H134667   4.573   4.339   0.415 -0.9667 -0.3319  2.5240
 4368TIP3    H234668   4.720   4.318   0.445 -0.2107  0.3333 -0.4213
 4369TIP3   OH234669   6.641   5.619   7.544 -0.4298 -0.4239 -0.2517
 4369TIP3    H134670   6.562   5.664   7.513  0.5616  1.8738  0.2944
 4369TIP3    H234671   6.711   5.652   7.487  0.1648 -2.4751 -0.7773
 4370TIP3   OH234672   2.941   6.685   0.451 -0.1135 -0.1372 -0.5336
 4370TIP3    H134673   2.933   6.770   0.408 -3.0090 -0.9416 -1.7962
 4370TIP3    H234674   2.892   6.694   0.533  0.7466 -0.2251  0.0076
 4371TIP3   OH234675   2.940   1.226   0.566  0.2700  0.2134  0.1929
 4371TIP3    H134676   2.926   1.133   0.551 -0.8081  0.4348 -0.2828
 4371TIP3    H234677   2.970   1.260   0.482 -0.5674  0.5038 -0.0016
 4372TIP3   OH234678   4.980   3.194   6.565 -0.1071 -0.4080  0.4137
 4372TIP3    H134679   4.977   3.270   6.624  1.3494  0.2498 -0.3003
 4372TIP3    H234680   5.054   3.212   6.507  0.1950 -2.3369  0.1439
 4373TIP3   OH234681   2.187   5.665   0.419 -0.3873 -0.1033  0.3911
 4373TIP3    H134682   2.191   5.740   0.359  2.8448  1.0848  1.8570
 4373TIP3    H234683   2.278   5.636   0.428 -0.7055 -0.4472  4.3322
 4374TIP3   OH234684   0.161   1.636   0.901  0.1541 -0.3965  0.4158
 4374TIP3    H134685   0.236   1.597   0.946  0.3296  0.0076  0.4731
 4374TIP3    H234686   0.186   1.727   0.887  0.0319 -0.4712 -0.3374
 4375TIP3   OH234687   6.464   3.084   6.593  0.0464  0.4999  0.0268
 4375TIP3    H134688   6.369   3.090   6.579  0.0315 -0.3912 -0.3176
 4375TIP3    H234689   6.502   3.127   6.517 -0.0766 -1.3805 -1.1811
 4376TIP3   OH234690   4.518   5.274   8.299  0.0407 -0.0076  0.3114
 4376TIP3    H134691   4.524   5.273   8.203  0.8730  0.4541  0.3504
 4376TIP3    H234692   4.435   5.231   8.318  0.1717 -0.6918 -0.5939
 4377TIP3   OH234693   0.594   2.718   7.156  0.1448  0.4305 -0.3070
 4377TIP3    H134694   0.523   2.655   7.141 -1.1329  1.7783 -0.1237
 4377TIP3    H234695   0.665   2.687   7.099 -0.4404 -1.1396 -0.2459
 4378TIP3   OH234696   0.100   6.745   8.011  0.7061 -0.4105  0.0338
 4378TIP3    H134697   0.047   6.718   8.085 -1.5972  0.0865 -1.3219
 4378TIP3    H234698   0.190   6.732   8.039 -0.1012 -0.9574  2.6007
 4379TIP3   OH234699   5.352   6.724   1.800  0.0247  0.6276  0.4125
 4379TIP3    H134700   5.383   6.643   1.760 -2.0002  0.9689 -2.1401
 4379TIP3    H234701   5.264   6.703   1.831 -0.1796  1.6123  0.5304
 4380TIP3   OH234702   6.810   2.247   8.469 -0.3624 -0.5433 -0.4212
 4380TIP3    H134703   6.779   2.257   8.559  1.7447 -0.2063  0.3332
 4380TIP3    H234704   6.830   2.153   8.462 -0.2005 -0.5073 -0.4294
 4381TIP3   OH234705   2.414   4.382   7.151  0.2398  0.1603 -0.6978
 4381TIP3    H134706   2.413   4.293   7.116  1.5781  0.5907 -1.9115
 4381TIP3    H234707   2.461   4.374   7.234 -2.4694 -0.7677  0.8934
 4382TIP3   OH234708   5.356   2.378   2.166 -1.2424  0.1099  0.1001
 4382TIP3    H134709   5.327   2.286   2.165 -0.5133 -0.1222 -0.1306
 4382TIP3    H234710   5.411   2.384   2.244 -0.4648  0.0839 -0.4355
 4383TIP3   OH234711   2.730   2.070   0.925  0.2909 -0.0218  0.0838
 4383TIP3    H134712   2.684   2.112   0.852 -1.0519 -1.5553  0.0046
 4383TIP3    H234713   2.752   1.983   0.894  1.3298 -0.0841  0.9092
 4384TIP3   OH234714   5.524   0.104   0.137  0.3471 -0.3611  0.2855
 4384TIP3    H134715   5.456   0.102   0.205  0.0133 -1.7568 -0.0576
 4384TIP3    H234716   5.605   0.122   0.185 -0.1539  0.5541  0.8012
 4385TIP3   OH234717   1.433   1.990   8.435 -0.1632 -0.1214 -0.1492
 4385TIP3    H134718   1.489   2.022   8.364 -1.7785  0.3645 -1.2673
 4385TIP3    H234719   1.428   1.895   8.421  0.1980 -0.1355 -0.1778
 4386TIP3   OH234720   3.545   3.919   1.672 -0.0767  0.1889  0.5389
 4386TIP3    H134721   3.555   3.852   1.605 -0.4057  0.7361 -0.0752
 4386TIP3    H234722   3.451   3.924   1.687 -0.0749  0.6663  0.4152
 4387TIP3   OH234723   5.448   1.839   7.187 -0.3377  0.5155  0.1425
 4387TIP3    H134724   5.399   1.779   7.130  1.2855  0.0301 -0.8045
 4387TIP3    H234725   5.383   1.871   7.250 -2.3800  1.5868 -2.3597
 4388TIP3   OH234726   6.265   4.861   8.362  0.2574  0.6907  0.4317
 4388TIP3    H134727   6.335   4.812   8.317 -1.1582 -2.3788  1.2962
 4388TIP3    H234728   6.186   4.842   8.311 -0.2556  2.9428  0.2851
 4389TIP3   OH234729   4.660   2.272   0.062 -0.6989  0.2403  0.1803
 4389TIP3    H134730   4.686   2.284  -0.029 -1.4225 -1.6761 -0.3337
 4389TIP3    H234731   4.572   2.234   0.057 -1.1398  0.9697  1.7109
 4390TIP3   OH234732   4.687   1.477   6.238 -0.3852 -0.5705  0.5574
 4390TIP3    H134733   4.705   1.529   6.317 -0.9553  0.9722 -0.2687
 4390TIP3    H234734   4.771   1.437   6.216 -0.3327 -1.4279  2.2071
 4391TIP3   OH234735   6.537   4.024   1.092 -0.3040  0.5243 -0.1611
 4391TIP3    H134736   6.631   4.009   1.091 -0.2789  0.6848 -0.2238
 4391TIP3    H234737   6.528   4.119   1.083 -0.4889  0.4559 -0.7195
 4392TIP3   OH234738   5.704   2.370   0.915 -0.0106 -0.6119  0.0527
 4392TIP3    H134739   5.753   2.307   0.968 -0.6761 -0.6349  0.6631
 4392TIP3    H234740   5.721   2.455   0.957 -1.0111 -0.7054  0.6818
 4393TIP3   OH234741   3.166   3.074   7.106  0.2131  0.4378 -0.1604
 4393TIP3    H134742   3.125   3.146   7.154  0.4218  0.2996  0.2366
 4393TIP3    H234743   3.154   3.095   7.014 -1.3882  0.0517 -0.0730
 4394TIP3   OH234744   2.245   5.950   7.107  0.5725 -0.4939  0.0930
 4394TIP3    H134745   2.328   5.903   7.107 -0.5918 -2.6584  1.0857
 4394TIP3    H234746   2.253   6.014   7.178  2.0240  0.6670 -1.0287
 4395TIP3   OH234747   2.040   1.380   8.447 -0.1977  0.4027 -0.0428
 4395TIP3    H134748   2.119   1.425   8.419 -0.5534  0.4544 -1.0089
 4395TIP3    H234749   1.979   1.450   8.469 -0.2770  0.3750 -0.1742
 4396TIP3   OH234750   6.461   1.868   7.807 -0.5123  0.4684  0.0309
 4396TIP3    H134751   6.482   1.790   7.858  0.6405 -0.4382 -1.7297
 4396TIP3    H234752   6.446   1.936   7.872 -3.1408 -1.5010  1.7216
 4397TIP3   OH234753   1.161   5.041   0.794  0.1398  0.6156 -0.3623
 4397TIP3    H134754   1.090   4.978   0.783 -0.2466  0.9134  0.3597
 4397TIP3    H234755   1.136   5.091   0.871  0.5787  1.4743 -0.7677
 4398TIP3   OH234756   0.489   5.388   2.051  0.1586 -0.6781 -0.2148
 4398TIP3    H134757   0.498   5.293   2.060 -0.7629 -0.6392  1.6904
 4398TIP3    H234758   0.400   5.406   2.080  0.2106  0.7500 -0.8850
 4399TIP3   OH234759   1.471   6.254   1.516 -0.4256  0.0081 -0.4698
 4399TIP3    H134760   1.458   6.204   1.435 -0.7734 -0.9629  0.1722
 4399TIP3    H234761   1.445   6.194   1.586 -3.0489  1.8030  0.2342
 4400TIP3   OH234762   4.085   1.856   0.697 -0.2367  0.4478 -0.5812
 4400TIP3    H134763   4.133   1.906   0.763  0.2873  1.6503 -1.8317
 4400TIP3    H234764   3.995   1.854   0.728  0.1720  0.2036  0.6210
 4401TIP3   OH234765   1.051   6.570   7.733 -0.5875 -0.2524 -0.4028
 4401TIP3    H134766   0.958   6.589   7.742 -0.2235  0.7880  1.8784
 4401TIP3    H234767   1.078   6.621   7.657 -1.4622  1.2930  0.2716
 4402TIP3   OH234768   0.725   3.053   0.709  0.5007 -0.5183 -0.1681
 4402TIP3    H134769   0.753   2.973   0.665  2.0344  0.0312 -0.2888
 4402TIP3    H234770   0.649   3.028   0.760 -0.7212 -1.4291 -2.2832
 4403TIP3   OH234771   4.353   2.573   0.509 -0.5444 -0.4033 -0.3348
 4403TIP3    H134772   4.344   2.486   0.547 -1.2362  0.0512  0.5606
 4403TIP3    H234773   4.265   2.609   0.509 -0.4115 -0.0293 -1.5270
 4404TIP3   OH234774   1.221   5.748   1.098  0.6079  0.4828 -0.2227
 4404TIP3    H134775   1.299   5.697   1.076  0.3005 -0.3178  0.4735
 4404TIP3    H234776   1.163   5.739   1.022 -1.4130 -4.1203  1.5146
 4405TIP3   OH234777   4.962   5.278   7.927 -0.3937  0.6666  0.1309
 4405TIP3    H134778   4.953   5.339   8.000  0.3555  0.3177  0.5322
 4405TIP3    H234779   4.874   5.273   7.889 -0.8808  0.5979  1.2212
 4406TIP3   OH234780   0.497   1.077   7.637  0.7599 -0.2084  0.0427
 4406TIP3    H134781   0.549   1.149   7.673  1.1570  0.4043 -1.6263
 4406TIP3    H234782   0.546   0.999   7.658  1.5344  0.2296 -0.0966
 4407TIP3   OH234783   2.307   4.767   1.002  0.0559  0.2060  0.0777
 4407TIP3    H134784   2.385   4.759   1.056  0.1925 -0.7919 -0.2510
 4407TIP3    H234785   2.332   4.827   0.932  0.1550  0.7964  0.6088
 4408TIP3   OH234786   4.275   2.252   2.069  0.5244 -0.5780  0.3553
 4408TIP3    H134787   4.236   2.196   2.137 -0.9840  0.0952  0.0778
 4408TIP3    H234788   4.266   2.201   1.988  0.0749 -0.3571  0.2658
 4409TIP3   OH234789   4.240   4.020   0.686 -0.0177 -0.3743  0.6058
 4409TIP3    H134790   4.207   4.098   0.641 -0.4037  0.6807  2.5705
 4409TIP3    H234791   4.302   4.054   0.750 -0.5504 -1.6165  1.8429
 4410TIP3   OH234792   4.991   1.414   7.241 -0.0291 -0.1556  0.5730
 4410TIP3    H134793   4.948   1.497   7.262  0.9929  0.1452  1.5551
 4410TIP3    H234794   5.084   1.431   7.254  0.7445 -0.1509 -3.6136
 4411TIP3   OH234795   2.490   5.711   1.191 -0.1226  0.2339 -0.0972
 4411TIP3    H134796   2.451   5.758   1.118  2.6692  0.5355 -1.5302
 4411TIP3    H234797   2.584   5.727   1.183  0.2989  1.6355  4.5069
 4412TIP3   OH234798   6.357   6.677   7.382 -0.1144 -0.4331  0.0549
 4412TIP3    H134799   6.439   6.699   7.428 -0.1115 -0.3435  0.0076
 4412TIP3    H234800   6.298   6.750   7.403  0.0615 -0.1192 -0.5201
 4413TIP3   OH234801   2.404   5.017   1.250  0.0985  0.0748  0.3438
 4413TIP3    H134802   2.446   5.102   1.261  0.6337  0.3465 -2.8345
 4413TIP3    H234803   2.342   5.012   1.323  1.8558  1.9943  2.1223
 4414TIP3   OH234804   1.900   3.035   8.661 -0.3161 -0.3958  0.0454
 4414TIP3    H134805   1.904   3.068   8.571  2.2767 -1.1422 -0.1730
 4414TIP3    H234806   1.918   3.111   8.716 -0.2693 -0.2702 -0.1456
 4415TIP3   OH234807   2.392   5.114   8.596  0.2577 -0.4177  0.0446
 4415TIP3    H134808   2.328   5.177   8.628 -1.4595 -1.9777 -0.1262
 4415TIP3    H234809   2.444   5.163   8.532  0.3636  1.3339  1.4060
 4416TIP3   OH234810   2.226   2.209   1.189  0.0326  0.6188  0.0063
 4416TIP3    H134811   2.192   2.278   1.246  0.4006 -0.3476  1.4646
 4416TIP3    H234812   2.267   2.147   1.249 -2.4742 -2.1739 -0.9487
 4417TIP3   OH234813   5.655   1.060   7.475  0.3209 -0.5193  0.1148
 4417TIP3    H134814   5.726   1.123   7.464 -0.6057  0.6128  0.4397
 4417TIP3    H234815   5.587   1.109   7.522 -0.6801 -1.5688 -0.2105
 4418TIP3   OH234816   2.176   4.482   0.020 -0.0275  0.0790 -0.4190
 4418TIP3    H134817   2.205   4.394   0.045 -1.4983 -0.4704 -0.5432
 4418TIP3    H234818   2.119   4.510   0.091 -0.0912  0.6600 -0.6957
 4419TIP3   OH234819   3.366   0.065   7.640 -0.0827 -0.4893  0.0519
 4419TIP3    H134820   3.360   0.114   7.722  0.0308  0.7080 -0.6285
 4419TIP3    H234821   3.290   0.095   7.589 -0.5498 -1.7436 -0.0241
 4420TIP3   OH234822   3.465   5.361   8.034  0.0245  0.0073 -0.0007
 4420TIP3    H134823   3.496   5.370   8.124 -2.2582 -1.5803  1.0475
 4420TIP3    H234824   3.542   5.335   7.984  1.5587  1.8733  1.2415
 4421TIP3   OH234825   1.346   2.233   7.652  0.4325  0.2486  0.5021
 4421TIP3    H134826   1.350   2.140   7.677 -0.1060  0.2440  0.6010
 4421TIP3    H234827   1.437   2.259   7.638  0.4674 -1.1808 -2.7931
 4422TIP3   OH234828   5.936   2.942   1.059  0.0534  0.2788  0.4935
 4422TIP3    H134829   5.920   3.004   1.130 -1.0604 -1.3132  1.6850
 4422TIP3    H234830   5.855   2.943   1.007  0.9462  1.6153 -0.9682
 4423TIP3   OH234831   3.203   2.354   1.742 -0.0996  0.1895 -0.5323
 4423TIP3    H134832   3.155   2.385   1.665 -2.0621 -1.0854  0.1039
 4423TIP3    H234833   3.225   2.433   1.791 -1.9978  0.8245 -0.6358
 4424TIP3   OH234834   4.898   0.744   8.338 -0.8271  0.1996  0.3796
 4424TIP3    H134835   4.956   0.811   8.303 -3.1755  0.8318 -2.7432
 4424TIP3    H234836   4.811   0.784   8.338 -1.8230 -1.7791  1.6173
 4425TIP3   OH234837   2.471   1.816   8.168  0.5859  0.2400 -0.0442
 4425TIP3    H134838   2.504   1.727   8.180 -2.8031 -1.2497 -0.6142
 4425TIP3    H234839   2.423   1.834   8.249  1.0876  1.5192 -0.0192
 4426TIP3   OH234840   1.375   3.562   8.303  0.3081 -0.1533  0.3463
 4426TIP3    H134841   1.314   3.530   8.236 -0.2240  0.5422  0.4888
 4426TIP3    H234842   1.373   3.494   8.371  0.3534 -0.5460 -0.0343
 4427TIP3   OH234843   6.022   2.143   1.347 -0.2464  0.1481  0.1954
 4427TIP3    H134844   5.951   2.119   1.288  1.0966 -1.1646 -0.9595
 4427TIP3    H234845   5.998   2.230   1.379 -0.7320  1.2705 -2.8490
 4428TIP3   OH234846   2.206   0.345   0.779 -0.4911 -0.2801 -0.1174
 4428TIP3    H134847   2.288   0.393   0.767  0.1812 -1.5723 -0.8628
 4428TIP3    H234848   2.161   0.353   0.695 -0.3354 -1.0322 -0.2712
 4429TIP3   OH234849   4.624   2.013   0.790 -0.0972 -0.4982  0.1535
 4429TIP3    H134850   4.675   1.975   0.718 -1.0794 -0.1357 -0.7735
 4429TIP3    H234851   4.675   2.088   0.819 -0.3069  0.1642 -1.1023
 4430TIP3   OH234852   6.132   2.003   7.718 -0.1124  0.4754  0.1329
 4430TIP3    H134853   6.117   1.910   7.702  2.4058  0.0282 -0.1620
 4430TIP3    H234854   6.121   2.014   7.812 -0.8081 -0.0281  0.1173
 4431TIP3   OH234855   4.234   6.744   0.737 -0.3342 -0.5189  0.2826
 4431TIP3    H134856   4.184   6.665   0.760 -0.7947 -0.3556 -0.1336
 4431TIP3    H234857   4.260   6.730   0.646 -0.3600 -0.2208  0.2289
 4432TIP3   OH234858   3.140   1.234   0.113  0.1689 -0.0148 -0.2360
 4432TIP3    H134859   3.230   1.234   0.146 -0.0652 -0.3445  0.4054
 4432TIP3    H234860   3.147   1.275   0.026  1.2328 -1.7568 -1.0253
 4433TIP3   OH234861   0.169   1.734   0.036 -0.2432  0.6911  0.4025
 4433TIP3    H134862   0.191   1.682   0.114  0.8499  1.6110  0.7468
 4433TIP3    H234863   0.127   1.672  -0.023  0.3201 -0.3989  1.1018
 4434TIP3   OH234864   0.493   1.289   0.501  0.1582 -0.0578 -0.4064
 4434TIP3    H134865   0.451   1.375   0.492  1.0813  0.5523  0.7987
 4434TIP3    H234866   0.491   1.252   0.412  1.5600  2.0906 -1.4222
 4435TIP3   OH234867   5.481   3.799   8.622  0.3062  0.1456 -0.0005
 4435TIP3    H134868   5.402   3.852   8.623 -0.2081 -0.6101  0.2319
 4435TIP3    H234869   5.514   3.802   8.711 -0.8665 -1.5634  0.5478
 4436TIP3   OH234870   4.830   6.792   8.775 -0.3061 -0.2146 -0.2582
 4436TIP3    H134871   4.918   6.828   8.762 -0.3071 -0.7244 -1.9773
 4436TIP3    H234872   4.788   6.801   8.689 -2.3365  1.0257  0.7814
 4437TIP3   OH234873   3.496   6.184   7.689  0.3880 -0.0345 -0.0846
 4437TIP3    H134874   3.579   6.141   7.668 -0.0339 -1.4078  0.9778
 4437TIP3    H234875   3.433   6.146   7.627  0.2148 -0.1949  0.1911
 4438TIP3   OH234876   5.598   4.212   0.436  0.1508 -0.1335 -0.8362
 4438TIP3    H134877   5.652   4.177   0.507 -0.2000 -0.4872 -0.7390
 4438TIP3    H234878   5.509   4.212   0.472  0.2178  1.3974 -0.6298
 4439TIP3   OH234879   0.844   5.691   7.360 -0.3721 -0.0736 -0.6611
 4439TIP3    H134880   0.872   5.601   7.342 -0.4880 -0.4188  0.7464
 4439TIP3    H234881   0.864   5.704   7.453  0.7734  1.7764 -1.1106
 4440TIP3   OH234882   5.127   6.819   8.271 -0.1647 -0.1194 -0.0227
 4440TIP3    H134883   5.077   6.870   8.334 -0.9613  0.4629 -1.1103
 4440TIP3    H234884   5.070   6.745   8.249 -0.6101  0.5904 -1.3290
 4441TIP3   OH234885   1.836   2.451   1.688  0.3009 -0.2251 -0.2797
 4441TIP3    H134886   1.841   2.497   1.605 -1.3460 -0.2336 -0.4237
 4441TIP3    H234887   1.752   2.479   1.726  0.4305 -1.1922  0.7824
 4442TIP3   OH234888   4.259   0.104   1.422 -0.4555  0.0589 -0.2956
 4442TIP3    H134889   4.180   0.096   1.476  2.1695 -1.6312  3.7829
 4442TIP3    H234890   4.304   0.181   1.455  0.9095 -0.5856 -0.5664
 4443TIP3   OH234891   4.165   5.756   1.641 -0.7795  0.0017  0.5178
 4443TIP3    H134892   4.124   5.681   1.683  0.3481 -1.1978 -0.4384
 4443TIP3    H234893   4.246   5.769   1.688 -1.8972  1.9946  2.0210
 4444TIP3   OH234894   2.909   0.689   6.962  0.4616  0.2754  0.1012
 4444TIP3    H134895   2.969   0.620   6.992 -0.8224 -0.9871 -0.1322
 4444TIP3    H234896   2.845   0.643   6.907  0.2734  1.8596 -1.0813
 4445TIP3   OH234897   1.930   1.110   0.816  0.1812  0.0182  0.1427
 4445TIP3    H134898   1.915   1.204   0.804 -2.4933 -0.5509 -2.3299
 4445TIP3    H234899   1.940   1.099   0.910 -0.1253  2.7140  0.5746
 4446TIP3   OH234900   3.929   5.942   0.089  1.0085  0.1968  0.3190
 4446TIP3    H134901   3.991   5.959   0.160  0.4299 -0.1977  0.9344
 4446TIP3    H234902   3.877   5.867   0.120  0.5145  0.2445 -0.3681
 4447TIP3   OH234903   6.137   0.997   7.253  0.5244  0.0193 -0.0567
 4447TIP3    H134904   6.075   1.070   7.251  2.6694  2.0366  1.7211
 4447TIP3    H234905   6.197   1.014   7.180  3.4937  2.5887  2.6747
 4448TIP3   OH234906   4.654   3.596   8.310 -0.1311 -0.1205  0.9899
 4448TIP3    H134907   4.654   3.609   8.215  0.8806 -1.5583  0.7643
 4448TIP3    H234908   4.566   3.565   8.329 -1.3470  2.9914  1.0133
 4449TIP3   OH234909   1.356   4.347   7.891  0.3633 -0.2998  0.3716
 4449TIP3    H134910   1.346   4.268   7.944 -0.0053 -0.5434 -0.0566
 4449TIP3    H234911   1.342   4.419   7.953 -0.4629 -0.5870  0.5339
 4450TIP3   OH234912   0.343   1.663   1.132  0.2686 -0.0549  0.3678
 4450TIP3    H134913   0.318   1.572   1.151  0.4140 -0.2498 -0.3521
 4450TIP3    H234914   0.431   1.656   1.095  0.8623  0.5077  1.6176
 4451TIP3   OH234915   3.473   6.816   6.896 -0.5532  0.0507 -0.0580
 4451TIP3    H134916   3.543   6.802   6.960 -1.8077 -1.6759  1.0153
 4451TIP3    H234917   3.519   6.832   6.814  1.1228  2.7539  1.2478
 4452TIP3   OH234918   2.395   5.063   6.134 -0.5737  0.4023 -0.8039
 4452TIP3    H134919   2.438   4.998   6.079 -2.1120 -1.5294  0.1659
 4452TIP3    H234920   2.302   5.055   6.113 -0.8476  2.0694 -0.4015
 4453TIP3   OH234921   0.489   1.737   0.083  0.0987  0.2265 -0.1838
 4453TIP3    H134922   0.423   1.673   0.110 -0.7750  0.5179 -1.5396
 4453TIP3    H234923   0.552   1.686   0.032  0.9006 -0.0374  1.0455
 4454TIP3   OH234924   2.314   4.578   0.683  0.3643  0.2236 -0.3487
 4454TIP3    H134925   2.296   4.542   0.770  1.2351 -0.4619 -0.4313
 4454TIP3    H234926   2.378   4.648   0.699  0.2893  0.3043 -0.4042
 4455TIP3   OH234927   5.326   4.149   0.213  0.0962 -0.0822  0.1741
 4455TIP3    H134928   5.405   4.198   0.235 -0.8938  1.1086  1.2947
 4455TIP3    H234929   5.341   4.061   0.249  1.3068 -0.1992 -0.5604
 4456TIP3   OH234930   2.437   2.082   6.496  0.4028  0.0713  0.8480
 4456TIP3    H134931   2.394   2.163   6.525  1.1899  0.5716  0.6540
 4456TIP3    H234932   2.406   2.015   6.557  1.3630  0.9226  2.3444
 4457TIP3   OH234933   0.010   6.272   1.040 -0.1278 -0.5216 -0.3717
 4457TIP3    H134934   0.027   6.312   0.955  0.2348 -1.1549 -0.6030
 4457TIP3    H234935  -0.054   6.330   1.082 -1.1162 -0.7719 -1.5013
 4458TIP3   OH234936   2.269   5.673   1.384  0.1046 -0.3966  0.7475
 4458TIP3    H134937   2.267   5.593   1.332 -0.7615  1.0381 -1.5761
 4458TIP3    H234938   2.347   5.720   1.355 -1.1552  1.0886 -0.4031
 4459TIP3   OH234939   2.052   6.124   7.846 -0.5005 -0.3719  0.0152
 4459TIP3    H134940   1.963   6.139   7.816 -1.2773 -0.6355  2.0139
 4459TIP3    H234941   2.059   6.029   7.856  0.3387 -0.4378 -1.0106
 4460TIP3   OH234942   2.311   4.083   7.830 -0.1524  0.6460  0.3893
 4460TIP3    H134943   2.269   4.004   7.796  0.2453  0.7554 -0.3947
 4460TIP3    H234944   2.301   4.077   7.925  0.1590 -0.5039  0.3671
 4461TIP3   OH234945   4.621   4.354   6.963  0.4345 -0.3396 -0.4035
 4461TIP3    H134946   4.630   4.377   6.871  1.4873 -1.4080 -0.5905
 4461TIP3    H234947   4.544   4.297   6.965  0.9703 -1.0996 -0.7972
 4462TIP3   OH234948   5.161   4.166   7.551 -0.1656  0.0529 -0.0676
 4462TIP3    H134949   5.193   4.144   7.464 -0.0558 -1.2334  0.2826
 4462TIP3    H234950   5.185   4.091   7.605  0.1322  1.0161  1.1676
 4463TIP3   OH234951   4.732   6.505   1.048  0.0182  0.2984 -0.3309
 4463TIP3    H134952   4.825   6.501   1.073 -0.0520 -0.7089 -0.1800
 4463TIP3    H234953   4.686   6.522   1.130 -0.1757 -2.5603  0.2777
 4464TIP3   OH234954   5.521   1.328   0.198 -0.1085  0.0322 -0.1830
 4464TIP3    H134955   5.438   1.375   0.188  0.9083  1.6445 -1.5143
 4464TIP3    H234956   5.588   1.396   0.193  1.3309 -1.2322  0.8685
 4465TIP3   OH234957   1.606   4.048   6.617 -0.7940 -0.3116  0.0904
 4465TIP3    H134958   1.678   4.064   6.556 -0.4430 -0.1817  0.5328
 4465TIP3    H234959   1.620   3.959   6.649 -0.2740  0.0410  0.8954
 4466TIP3   OH234960   3.861   1.434   8.648  0.1294 -0.2553  0.7852
 4466TIP3    H134961   3.834   1.477   8.567 -0.7965  1.2287  1.8339
 4466TIP3    H234962   3.789   1.374   8.668  0.7839 -1.3130  0.0501
 4467TIP3   OH234963   1.223   0.365   0.129  0.2748 -0.2189 -0.6480
 4467TIP3    H134964   1.296   0.309   0.153  0.5813 -0.8444 -2.8340
 4467TIP3    H234965   1.258   0.454   0.133  0.0975 -0.1876  1.7269
 4468TIP3   OH234966   3.005   2.921   8.127 -0.3544  0.0021  0.0169
 4468TIP3    H134967   3.059   2.850   8.092  0.0416 -0.3015  1.1886
 4468TIP3    H234968   2.920   2.881   8.144 -0.5279  0.1344 -0.5190
 4469TIP3   OH234969   0.488   1.050   1.436  0.2824  0.2811  0.0897
 4469TIP3    H134970   0.514   0.967   1.476 -0.6893 -0.5592 -1.0077
 4469TIP3    H234971   0.525   1.047   1.348  0.8029  1.3158  0.2545
 4470TIP3   OH234972   3.539   3.624   6.163  0.7870 -0.5839 -0.4389
 4470TIP3    H134973   3.609   3.684   6.136  0.3566 -0.1673 -0.6427
 4470TIP3    H234974   3.549   3.618   6.258  0.6726  0.0271 -0.3826
 4471TIP3   OH234975   3.882   3.527   7.649 -0.0001  0.0814 -0.3465
 4471TIP3    H134976   3.812   3.462   7.653  0.1636 -0.0931 -0.2901
 4471TIP3    H234977   3.957   3.480   7.612  0.2552  0.1119  0.1166
 4472TIP3   OH234978   1.200   4.471   0.902  0.2170 -0.4634 -0.2685
 4472TIP3    H134979   1.153   4.422   0.835  0.6294 -1.6675  0.3061
 4472TIP3    H234980   1.229   4.405   0.965  0.1506  0.5928  0.9178
 4473TIP3   OH234981   1.170   4.391   2.083  0.7373  0.1698  0.4621
 4473TIP3    H134982   1.104   4.365   2.148 -0.9609  0.6950 -0.9732
 4473TIP3    H234983   1.165   4.486   2.079  0.2779  0.1063 -0.9487
 4474TIP3   OH234984   5.258   6.746   8.811 -0.5460  0.0547 -0.3300
 4474TIP3    H134985   5.274   6.661   8.854 -0.9844  0.6246  1.0206
 4474TIP3    H234986   5.297   6.810   8.871 -2.8361  1.0396  0.2226
 4475TIP3   OH234987   1.638   4.271   0.241 -0.0685  0.3641 -0.3693
 4475TIP3    H134988   1.560   4.320   0.268  0.8360  2.8752 -1.9720
 4475TIP3    H234989   1.656   4.213   0.314 -3.9447 -1.0324 -0.3019
 4476TIP3   OH234990   6.747   4.188   7.193 -0.2220  0.0220 -0.9671
 4476TIP3    H134991   6.822   4.132   7.212 -1.1843 -0.8561  0.4826
 4476TIP3    H234992   6.730   4.174   7.100 -0.5422 -2.3371 -0.6286
 4477TIP3   OH234993   2.982   2.517   7.749 -0.0609  0.4806  0.1896
 4477TIP3    H134994   2.931   2.438   7.765 -0.2608  0.6268  0.2789
 4477TIP3    H234995   2.976   2.567   7.830  0.0245  0.6098  0.1177
 4478TIP3   OH234996   5.178   1.455   6.988 -0.0491 -0.1995  0.1026
 4478TIP3    H134997   5.096   1.489   6.953 -0.2769 -1.6036 -0.8404
 4478TIP3    H234998   5.151   1.389   7.052  0.3512 -0.2973  0.1744
 4479TIP3   OH234999   4.906   5.623   0.668  0.0050 -0.8737 -0.2388
 4479TIP3    H135000   4.932   5.531   0.673  1.0669 -0.5033  1.9121
 4479TIP3    H235001   4.859   5.640   0.749 -1.8549  0.0595 -1.4226
 4480TIP3   OH235002   5.463   5.294   7.779  0.1662  0.2894  0.0359
 4480TIP3    H135003   5.513   5.237   7.837  1.1204 -0.3220 -1.3084
 4480TIP3    H235004   5.376   5.299   7.818  1.0510  0.7975  2.0789
 4481TIP3   OH235005   5.204   3.974   1.347 -0.5383 -0.0030 -0.0088
 4481TIP3    H135006   5.117   3.963   1.387 -0.3019 -1.5598  0.1524
 4481TIP3    H235007   5.222   4.067   1.355 -2.7533  0.6015 -1.2385
 4482TIP3   OH235008   6.435   6.353   1.682  0.4183 -0.0345 -0.7261
 4482TIP3    H135009   6.396   6.378   1.765  1.1600  0.1445 -0.4262
 4482TIP3    H235010   6.395   6.268   1.661  0.3918 -0.1856 -0.0823
 4483TIP3   OH235011   5.216   4.734   0.381  0.2301  0.3676  0.0660
 4483TIP3    H135012   5.224   4.646   0.344  1.3590  0.7376 -0.6268
 4483TIP3    H235013   5.271   4.733   0.459 -2.2100 -0.4346  1.8843
 4484TIP3   OH235014   0.060   4.081   1.787 -0.2972  0.3382  0.0486
 4484TIP3    H135015  -0.001   4.149   1.758  1.5166  1.8833 -0.3380
 4484TIP3    H235016   0.119   4.126   1.848  1.2642 -0.7316 -0.6023
 4485TIP3   OH235017   5.671   5.398   0.809 -0.1849  0.2472  0.5187
 4485TIP3    H135018   5.724   5.337   0.758 -0.2721 -0.6881  1.5110
 4485TIP3    H235019   5.707   5.484   0.787 -1.4979  0.1262 -2.6104
 4486TIP3   OH235020   5.281   0.944   8.112  0.4659  0.3327  0.1266
 4486TIP3    H135021   5.307   0.852   8.109 -0.4575  0.0710 -0.3033
 4486TIP3    H235022   5.330   0.980   8.185  0.6705 -0.5586  0.4475
 4487TIP3   OH235023   1.122   0.327   0.583  1.0749  0.2277  0.2929
 4487TIP3    H135024   1.040   0.354   0.542  1.3784  2.2770  0.9243
 4487TIP3    H235025   1.110   0.343   0.676  1.9468 -0.1193  0.4797
 4488TIP3   OH235026   0.646   3.452   7.336  0.1088  0.2128  0.0266
 4488TIP3    H135027   0.593   3.513   7.388 -1.1089  1.3943 -2.4244
 4488TIP3    H235028   0.730   3.497   7.325 -0.7024  1.4326 -1.5640
 4489TIP3   OH235029   6.030   2.249   7.142  0.1294  0.0469 -0.4251
 4489TIP3    H135030   5.972   2.274   7.213 -0.7924 -0.5929 -0.9277
 4489TIP3    H235031   6.101   2.201   7.185 -0.0191  0.3198  0.1377
 4490TIP3   OH235032   2.765   2.570   0.449  0.2022  0.1731 -0.1770
 4490TIP3    H135033   2.730   2.481   0.448 -0.5991  0.4824 -0.5154
 4490TIP3    H235034   2.742   2.604   0.536 -0.9270  0.5896 -0.6184
 4491TIP3   OH235035   4.729   5.090   2.232  0.4782  0.3057 -0.2103
 4491TIP3    H135036   4.742   5.013   2.287  1.3288  0.0621 -0.7427
 4491TIP3    H235037   4.678   5.059   2.158 -0.7703  0.6604  0.4762
 4492TIP3   OH235038   3.229   2.484   6.145 -0.0693  0.0017 -0.2762
 4492TIP3    H135039   3.158   2.516   6.200 -1.6906 -2.1845 -0.9471
 4492TIP3    H235040   3.211   2.520   6.058  0.1024  0.0746 -0.2832
 4493TIP3   OH235041   3.327   0.245   7.872 -0.5924  0.3203  0.0917
 4493TIP3    H135042   3.269   0.244   7.949 -0.6786 -0.1460  0.0178
 4493TIP3    H235043   3.288   0.311   7.814 -0.9078  0.1895  0.1521
 4494TIP3   OH235044   2.440   2.889   1.856  0.3020 -0.0688  0.2861
 4494TIP3    H135045   2.361   2.856   1.899  0.4887  0.0237  0.7056
 4494TIP3    H235046   2.493   2.811   1.840 -0.4199 -0.2906 -1.1466
 4495TIP3   OH235047   2.897   1.712   7.170  0.0001 -0.5588 -0.2570
 4495TIP3    H135048   2.938   1.795   7.195 -1.6793  0.3687 -0.4587
 4495TIP3    H235049   2.917   1.703   7.076 -2.4049  1.2688 -1.0468
 4496TIP3   OH235050   4.262   2.383   1.001 -0.3453  0.6168  0.4567
 4496TIP3    H135051   4.200   2.393   1.074 -1.9776 -4.8425  0.2488
 4496TIP3    H235052   4.342   2.351   1.042 -0.2139  0.5069  0.1163
 4497TIP3   OH235053   2.829   5.892   1.360 -0.1596 -0.3197  0.0025
 4497TIP3    H135054   2.800   5.920   1.273 -1.0731 -0.8873  0.1089
 4497TIP3    H235055   2.920   5.920   1.365 -0.1181 -0.2075 -1.1064
 4498TIP3   OH235056   3.505   2.287   1.376 -0.0871  0.0207  0.1999
 4498TIP3    H135057   3.410   2.275   1.369  0.0192 -0.8677  0.1986
 4498TIP3    H235058   3.515   2.373   1.418 -0.9406 -0.9229  2.5122
 4499TIP3   OH235059   2.312   3.661   7.449 -0.5379  0.1198  0.0271
 4499TIP3    H135060   2.279   3.640   7.361 -1.4314  0.1356  0.3502
 4499TIP3    H235061   2.306   3.756   7.455 -0.5469  0.1124  0.1378
 4500TIP3   OH235062   6.444   4.015   8.010  0.2070 -0.1866  0.3729
 4500TIP3    H135063   6.406   4.095   7.973  1.0354  0.3593  0.6706
 4500TIP3    H235064   6.376   3.980   8.067  0.0300  0.6045  0.6550
 4501TIP3   OH235065   4.433   3.165   6.231 -0.3514  0.5053  0.5347
 4501TIP3    H135066   4.357   3.106   6.221  0.5554 -0.6650  0.3152
 4501TIP3    H235067   4.395   3.248   6.259 -1.5344 -0.6636  2.6813
 4502TIP3   OH235068   3.599   1.506   7.047  0.1257  0.0538 -0.3841
 4502TIP3    H135069   3.522   1.450   7.051 -0.8532  1.2987 -0.8534
 4502TIP3    H235070   3.630   1.499   6.956 -0.2499  0.5616 -0.5596
 4503TIP3   OH235071   0.138   3.238   0.526  1.0351 -0.4488  0.1419
 4503TIP3    H135072   0.053   3.248   0.569  1.1078 -1.7880  0.6416
 4503TIP3    H235073   0.132   3.293   0.448 -0.5218 -0.9775 -0.1395
 4504TIP3   OH235074   1.448   1.688   2.604 -0.2587  0.4851 -0.1181
 4504TIP3    H135075   1.499   1.700   2.683  0.7330  2.1517 -0.9659
 4504TIP3    H235076   1.358   1.674   2.635  0.3417 -0.4558  1.3125
 4505TIP3   OH235077   0.194   4.469   7.376 -0.4125 -0.2854  0.3205
 4505TIP3    H135078   0.139   4.420   7.314 -0.3158  0.6203 -0.5089
 4505TIP3    H235079   0.136   4.486   7.451 -1.0683  0.0581 -0.2476
 4506TIP3   OH235080   2.294   5.958   1.710 -0.2715 -0.0927 -0.5425
 4506TIP3    H135081   2.210   5.934   1.749  0.7341 -2.0734  0.5272
 4506TIP3    H235082   2.307   5.894   1.640  0.8107 -0.4660 -0.0128
 4507TIP3   OH235083   0.260   2.235   2.213 -0.3136  0.3504 -0.1108
 4507TIP3    H135084   0.314   2.172   2.166  1.0776  2.1878 -1.1124
 4507TIP3    H235085   0.170   2.204   2.201  0.2217 -0.7172 -1.6489
 4508TIP3   OH235086   0.254   3.268   1.511  0.5172  0.7382 -0.0796
 4508TIP3    H135087   0.341   3.269   1.470  2.0306  0.3579  2.8213
 4508TIP3    H235088   0.248   3.181   1.551 -1.4556  0.5803 -0.6053
 4509TIP3   OH235089   0.180   0.728   7.969  0.3215 -0.3842  0.0628
 4509TIP3    H135090   0.170   0.763   8.057 -1.9873 -0.2667 -0.1776
 4509TIP3    H235091   0.204   0.636   7.983 -0.3632 -0.4600  0.8471
 4510TIP3   OH235092   0.271   0.573   0.330 -0.0774  0.0536 -0.4252
 4510TIP3    H135093   0.332   0.634   0.288  0.5814  0.3564  0.9211
 4510TIP3    H235094   0.314   0.488   0.324 -0.2321 -0.0001 -0.8209
 4511TIP3   OH235095   0.490   3.215   1.410  0.4714 -0.3104  0.6256
 4511TIP3    H135096   0.575   3.255   1.431 -0.7527  1.6275  2.1681
 4511TIP3    H235097   0.496   3.196   1.316  1.4836  2.8298 -0.0876
 4512TIP3   OH235098   2.892   2.094   6.428 -1.2343 -0.2434 -0.2557
 4512TIP3    H135099   2.820   2.111   6.367 -1.3168  1.6632  0.3026
 4512TIP3    H235100   2.934   2.180   6.440  0.9527 -1.2461 -0.3219
 4513TIP3   OH235101   2.767   4.547   8.408  0.2924 -0.7939  0.5826
 4513TIP3    H135102   2.826   4.490   8.359  0.8311  0.9468 -0.8990
 4513TIP3    H235103   2.818   4.626   8.424 -2.0605  1.5420 -2.3334
 4514TIP3   OH235104   4.955   6.428   8.634 -0.4824  0.2933 -0.6466
 4514TIP3    H135105   4.969   6.353   8.577  0.5975 -1.1111  1.3368
 4514TIP3    H235106   5.027   6.488   8.612 -0.5980  0.1824 -1.3522
 4515TIP3   OH235107   4.616   2.702   1.345 -0.0614  0.0296 -0.5572
 4515TIP3    H135108   4.678   2.712   1.418  0.9578 -0.7996 -1.2769
 4515TIP3    H235109   4.531   2.693   1.387  0.3124  0.9545  0.4744
 4516TIP3   OH235110   0.464   0.653   7.436  0.1949 -0.0248 -0.0424
 4516TIP3    H135111   0.512   0.640   7.355  0.5309 -2.1538  0.4259
 4516TIP3    H235112   0.445   0.564   7.467  0.5608  0.6745  2.4698
 4517TIP3   OH235113   1.870   2.572   1.181  0.3292  0.4430 -0.0035
 4517TIP3    H135114   1.891   2.646   1.124  0.7137 -0.8235 -1.5513
 4517TIP3    H235115   1.782   2.547   1.156  0.6560 -0.3837 -0.3413
 4518TIP3   OH235116   6.718   1.746   0.849 -0.4594  0.3004 -0.4497
 4518TIP3    H135117   6.686   1.778   0.764 -0.1144  0.8279 -0.3852
 4518TIP3    H235118   6.798   1.698   0.827  0.3324  1.5008 -0.3086
 4519TIP3   OH235119   0.498   5.618   7.550  0.6534  0.2887 -0.1586
 4519TIP3    H135120   0.534   5.705   7.538  0.6931  0.2836 -0.0774
 4519TIP3    H235121   0.542   5.564   7.485  0.5427  0.3539 -0.2876
 4520TIP3   OH235122   5.829   4.757   8.527 -0.2170  0.2877  0.1666
 4520TIP3    H135123   5.796   4.730   8.613  0.6307 -0.3060  0.3200
 4520TIP3    H235124   5.909   4.705   8.515 -0.5728  0.0093 -1.1894
 4521TIP3   OH235125   5.739   3.972   6.493 -0.6714  0.3078 -0.5487
 4521TIP3    H135126   5.716   4.002   6.405 -0.7905  0.9715 -0.2960
 4521TIP3    H235127   5.655   3.950   6.533 -0.8781  2.4340  0.2680
 4522TIP3   OH235128   0.693   3.492   1.744  0.1054  0.2979  0.5768
 4522TIP3    H135129   0.713   3.585   1.759  1.2318  0.2194 -0.2913
 4522TIP3    H235130   0.619   3.474   1.801 -0.3574  1.8252  0.5001
 4523TIP3   OH235131   0.024   1.722   8.008 -0.5120  0.4883 -0.1345
 4523TIP3    H135132   0.026   1.626   8.003 -2.7505  0.3226  0.7929
 4523TIP3    H235133   0.113   1.749   7.986  0.7921 -1.8992  1.6271
 4524TIP3   OH235134   2.899   6.063   0.637  0.4839 -0.1941 -0.2103
 4524TIP3    H135135   2.893   6.143   0.690  1.3862  1.7807 -2.8303
 4524TIP3    H235136   2.992   6.040   0.640  0.2725 -1.0429  0.3057
 4525TIP3   OH235137   5.452   1.480   7.049 -0.0463  0.0165  0.3103
 4525TIP3    H135138   5.361   1.453   7.053 -0.8533  2.5473  0.6939
 4525TIP3    H235139   5.450   1.569   7.014  2.1265  0.7167  1.7106
 4526TIP3   OH235140   5.989   0.367   7.798  0.2129 -0.4610  0.5353
 4526TIP3    H135141   5.962   0.443   7.849 -1.6874 -0.6250 -0.1594
 4526TIP3    H235142   5.990   0.398   7.707  1.2233 -0.8041  0.4081
 4527TIP3   OH235143   4.356   5.455   0.845 -0.0153  0.5175 -0.0249
 4527TIP3    H135144   4.451   5.451   0.854  0.1057 -0.4568 -1.4195
 4527TIP3    H235145   4.322   5.433   0.932  1.0018  3.4203  1.2175
 4528TIP3   OH235146   4.508   3.604   7.340  0.0437 -0.1710 -0.0522
 4528TIP3    H135147   4.481   3.559   7.419 -1.5315  1.4771  0.4183
 4528TIP3    H235148   4.560   3.678   7.371 -0.6331  0.5204 -0.5074
 4529TIP3   OH235149   5.722   1.393   1.071 -0.0194 -0.5655 -0.3421
 4529TIP3    H135150   5.778   1.342   1.130  0.3767  0.7267  0.4388
 4529TIP3    H235151   5.782   1.430   1.007  0.1659  1.2255  0.7857
 4530TIP3   OH235152   0.052   4.363   7.824  0.7014 -0.1147 -0.5469
 4530TIP3    H135153  -0.007   4.413   7.768  0.1215  0.1261  0.2737
 4530TIP3    H235154   0.042   4.401   7.911 -1.1572 -2.7917  0.5383
 4531TIP3   OH235155   0.915   1.859   8.664 -0.2748 -0.1130 -0.4724
 4531TIP3    H135156   0.858   1.866   8.587 -0.0781  1.3618 -0.5243
 4531TIP3    H235157   1.002   1.845   8.629 -0.1088  1.0486 -0.5715
 4532TIP3   OH235158   1.236   6.760   8.676 -0.4685  0.3207  0.0305
 4532TIP3    H135159   1.144   6.788   8.685 -0.4193  1.0769 -1.3974
 4532TIP3    H235160   1.241   6.727   8.586  0.3927 -0.8523  0.4917
 4533TIP3   OH235161   0.181   6.399   0.355  0.2990  0.5554 -0.0085
 4533TIP3    H135162   0.104   6.432   0.401  0.7144  2.1152 -0.3966
 4533TIP3    H235163   0.240   6.474   0.349  0.6368  0.1710 -2.2643
 4534TIP3   OH235164   0.430   2.396   7.726  0.1347 -0.5040 -0.8295
 4534TIP3    H135165   0.340   2.409   7.754 -0.3402 -0.9252 -2.1438
 4534TIP3    H235166   0.464   2.485   7.715  0.3263 -0.3124  0.9422
 4535TIP3   OH235167   5.301   1.021   0.977 -0.5103  0.2204 -0.8311
 4535TIP3    H135168   5.298   1.102   0.925 -0.0008 -0.0261 -1.2450
 4535TIP3    H235169   5.374   1.035   1.038 -1.6032  0.8416  0.3864
 4536TIP3   OH235170   2.421   5.314   0.647  0.2696  1.1146  0.2817
 4536TIP3    H135171   2.478   5.292   0.573 -1.1259 -0.0971 -0.4736
 4536TIP3    H235172   2.391   5.403   0.629  0.5249  1.0979 -0.2363
 4537TIP3   OH235173   0.670   5.026   0.300  0.0030  0.0637  0.2090
 4537TIP3    H135174   0.722   5.085   0.355  0.4849 -0.0846 -0.0880
 4537TIP3    H235175   0.589   5.013   0.350  0.3931  0.0095  0.8462
 4538TIP3   OH235176   3.623   5.648   0.771  0.4296 -0.0903  0.0225
 4538TIP3    H135177   3.606   5.709   0.843 -0.7828  0.7401 -0.9018
 4538TIP3    H235178   3.587   5.564   0.801  0.0588  0.2131  0.4407
 4539TIP3   OH235179   3.502   1.161   8.166  0.1471 -0.3234  0.0022
 4539TIP3    H135180   3.554   1.157   8.246 -0.2829  0.1094  0.3078
 4539TIP3    H235181   3.565   1.148   8.096  0.2727 -2.5915  0.4679
 4540TIP3   OH235182   6.571   2.906   2.453 -0.4332 -0.2509  0.2782
 4540TIP3    H135183   6.567   2.985   2.398  0.7934  0.1377  0.7266
 4540TIP3    H235184   6.561   2.939   2.542  2.1187 -0.3090  0.6596
 4541TIP3   OH235185   5.074   0.124   8.752 -0.0599 -0.3660  0.0833
 4541TIP3    H135186   5.135   0.050   8.756  0.0764 -0.3396 -1.1891
 4541TIP3    H235187   5.113   0.190   8.810  1.7680  0.0871 -1.5354
 4542TIP3   OH235188   3.758   2.081   6.888  0.0871 -0.3837  0.3704
 4542TIP3    H135189   3.693   2.148   6.910 -3.1849 -3.2380  0.3752
 4542TIP3    H235190   3.766   2.085   6.793  1.1680  0.9829  0.4950
 4543TIP3   OH235191   1.162   0.559   8.341  0.0668  0.2750 -0.1581
 4543TIP3    H135192   1.211   0.523   8.414 -1.7514 -2.3885 -0.0820
 4543TIP3    H235193   1.188   0.506   8.266 -2.4670 -1.1929 -0.1234
 4544TIP3   OH235194   3.536   2.568   7.529 -0.1283 -0.6522  0.3237
 4544TIP3    H135195   3.475   2.640   7.514  1.1726  0.0818 -1.8382
 4544TIP3    H235196   3.482   2.500   7.570 -1.8302  0.8038  0.6369
 4545TIP3   OH235197   5.840   1.277   7.441 -0.3546 -0.0936 -0.0800
 4545TIP3    H135198   5.793   1.317   7.368 -0.2753 -0.5281 -0.3789
 4545TIP3    H235199   5.805   1.318   7.519 -1.1908 -0.3710 -0.2983
 4546TIP3   OH235200   6.360   1.295   7.414  0.0552 -0.3554 -0.4279
 4546TIP3    H135201   6.295   1.237   7.453 -1.2785  0.2840 -1.6126
 4546TIP3    H235202   6.421   1.236   7.369 -0.1654 -0.9201  0.0009
 4547TIP3   OH235203   6.550   3.673   7.422  0.1590 -0.1629 -0.6638
 4547TIP3    H135204   6.635   3.693   7.460 -0.7101  1.7261  0.4221
 4547TIP3    H235205   6.543   3.578   7.428  1.3750 -0.1865  1.0420
 4548TIP3   OH235206   5.226   3.134   0.643 -0.3195  0.1570 -0.2176
 4548TIP3    H135207   5.217   3.184   0.724 -0.9867 -0.0078 -0.1866
 4548TIP3    H235208   5.144   3.085   0.635 -0.0224 -0.2738 -0.6922
 4549TIP3   OH235209   3.467   0.011   0.786 -0.2898 -0.0787  0.1196
 4549TIP3    H135210   3.379  -0.013   0.757 -0.0340 -1.0226  0.1087
 4549TIP3    H235211   3.463   0.003   0.881 -0.4290  0.6371  0.1808
 4550TIP3   OH235212   3.077   2.787   1.883 -0.8184 -0.1151  0.1280
 4550TIP3    H135213   3.061   2.834   1.802 -1.5048  1.2407  1.0141
 4550TIP3    H235214   2.994   2.792   1.931  0.2594  1.3547  2.0000
 4551TIP3   OH235215   3.281   4.385   6.946  0.3298  0.3750  0.0640
 4551TIP3    H135216   3.321   4.468   6.919 -0.5321 -0.1584 -3.2458
 4551TIP3    H235217   3.344   4.318   6.919  0.0643 -0.1723  0.7721
 4552TIP3   OH235218   3.693   4.943   7.028  0.0280  0.0676  0.3216
 4552TIP3    H135219   3.720   4.948   6.936  2.1502 -2.0599  0.7297
 4552TIP3    H235220   3.619   4.882   7.028  1.8550 -2.2677  0.2584
 4553TIP3   OH235221   6.393   2.841   7.991 -0.4587 -0.8423 -0.2330
 4553TIP3    H135222   6.477   2.824   7.949  0.4904  0.8664  0.8684
 4553TIP3    H235223   6.328   2.827   7.922  0.8776 -0.2618 -1.6607
 4554TIP3   OH235224   6.418   4.783   1.518  1.0804  0.2218  1.1141
 4554TIP3    H135225   6.421   4.878   1.505 -0.9004  0.1378 -0.3601
 4554TIP3    H235226   6.471   4.747   1.447 -0.6578  0.1703 -0.2240
 4555TIP3   OH235227   2.467   6.618   7.846  0.0582  0.0926  0.6087
 4555TIP3    H135228   2.445   6.569   7.767 -0.6573  1.0638  0.1882
 4555TIP3    H235229   2.462   6.710   7.820  0.0126  0.4301  1.7261
 4556TIP3   OH235230   1.373   3.131   0.979  0.2043  0.2707  0.2789
 4556TIP3    H135231   1.411   3.067   0.919  0.1991 -0.0022  0.5650
 4556TIP3    H235232   1.328   3.079   1.045  0.7184  0.5518  0.8657
 4557TIP3   OH235233   3.294   5.633   7.442  0.1273 -0.2843  0.5349
 4557TIP3    H135234   3.381   5.664   7.468 -0.1817  0.3210  0.8554
 4557TIP3    H235235   3.260   5.589   7.520  0.0929 -0.4152  0.4476
 4558TIP3   OH235236   2.793   6.445   7.482  0.1025  0.1097 -0.2141
 4558TIP3    H135237   2.786   6.484   7.395 -0.8821 -1.1243 -0.7083
 4558TIP3    H235238   2.709   6.464   7.523  0.0353 -0.5119 -0.0549
 4559TIP3   OH235239   2.638   3.596   2.487  0.2931 -0.1979  0.1477
 4559TIP3    H135240   2.661   3.537   2.559 -2.4166 -0.8345  0.5938
 4559TIP3    H235241   2.722   3.615   2.445  1.9704 -0.0041  3.2587
 4560TIP3   OH235242   0.368   3.982   1.428 -0.9178 -0.1556 -0.1809
 4560TIP3    H135243   0.389   3.969   1.521 -1.3026 -0.0583 -0.0786
 4560TIP3    H235244   0.286   3.935   1.416 -0.8676 -0.1687 -0.4750
 4561TIP3   OH235245   4.578   6.601   8.418  0.5146  0.1543  0.1535
 4561TIP3    H135246   4.533   6.673   8.375  0.7016 -0.1913 -0.6306
 4561TIP3    H235247   4.547   6.522   8.373  1.3728 -0.1401  0.0568
 4562TIP3   OH235248   1.117   4.106   1.672  0.4442 -0.1608  0.5866
 4562TIP3    H135249   1.116   4.121   1.767 -1.6628  0.7202  0.4775
 4562TIP3    H235250   1.069   4.024   1.660  0.3391 -0.0527  0.2590
 4563TIP3   OH235251   6.408   5.769   7.533 -0.4712 -0.4453  0.1523
 4563TIP3    H135252   6.442   5.855   7.556  1.0955 -0.0141 -3.2440
 4563TIP3    H235253   6.339   5.753   7.597  2.5933  0.9206  4.2082
 4564TIP3   OH235254   3.031   3.196   1.874 -0.1596 -0.4228  0.1848
 4564TIP3    H135255   2.937   3.210   1.880 -0.0125  0.3416  1.0343
 4564TIP3    H235256   3.051   3.197   1.781 -0.4847  3.2306  0.0080
 4565TIP3   OH235257   6.089   1.180   7.508  0.3388 -0.0938  0.1947
 4565TIP3    H135258   6.077   1.086   7.500 -1.7758 -0.0399  1.7402
 4565TIP3    H235259   6.001   1.216   7.494  1.1356  1.6624 -0.5081
 4566TIP3   OH235260   2.988   1.361   1.519  0.4667 -0.3923  0.2007
 4566TIP3    H135261   2.970   1.302   1.592  0.6444 -0.5253  0.1387
 4566TIP3    H235262   2.950   1.317   1.443 -1.7618  0.8058  0.5428
 4567TIP3   OH235263   5.404   0.547   1.411 -0.1051 -0.3161  0.6669
 4567TIP3    H135264   5.365   0.551   1.498 -0.7371 -0.4116  0.3911
 4567TIP3    H235265   5.490   0.508   1.425  0.4837  1.1905  1.4707
 4568TIP3   OH235266   5.854   5.028   0.851  0.1303  0.3344  0.1608
 4568TIP3    H135267   5.783   5.062   0.905  0.7467 -0.4139  1.4925
 4568TIP3    H235268   5.877   4.944   0.891 -0.1490 -0.8200 -1.9560
 4569TIP3   OH235269   2.286   2.840   2.236 -0.9499 -0.4111  0.1291
 4569TIP3    H135270   2.364   2.807   2.191 -0.1484  1.5165  0.0049
 4569TIP3    H235271   2.305   2.829   2.329  0.5268  2.0532  0.2142
 4570TIP3   OH235272   1.519   6.554   6.409 -0.4063 -0.5524  0.2969
 4570TIP3    H135273   1.511   6.617   6.338  1.2977 -1.4091 -0.7432
 4570TIP3    H235274   1.528   6.607   6.488 -2.8306  0.4142 -0.0148
 4571TIP3   OH235275   1.310   0.834   8.008  0.1846 -0.2278  0.1111
 4571TIP3    H135276   1.357   0.804   8.085 -0.1415  0.9833  0.8095
 4571TIP3    H235277   1.310   0.930   8.015 -1.5793 -0.1587 -0.3322
 4572TIP3   OH235278   1.650   6.667   0.616 -0.4464 -0.4209 -0.1269
 4572TIP3    H135279   1.608   6.735   0.668  0.4647  0.4129 -0.4531
 4572TIP3    H235280   1.656   6.591   0.675  0.0167  0.3134  0.7981
 4573TIP3   OH235281   0.377   1.392   7.568  0.2797 -0.7527 -0.1983
 4573TIP3    H135282   0.462   1.407   7.527 -0.2964 -1.5400 -1.7763
 4573TIP3    H235283   0.314   1.400   7.496 -0.9020 -1.0824  0.7578
 4574TIP3   OH235284   3.951   2.422   8.689  0.0598 -0.0717  0.4250
 4574TIP3    H135285   3.876   2.387   8.737 -0.0588 -0.5641 -0.1157
 4574TIP3    H235286   3.913   2.464   8.612  0.4072 -1.4675 -0.5416
 4575TIP3   OH235287   5.498   0.945   1.592  0.4231 -0.2437 -0.0965
 4575TIP3    H135288   5.561   0.924   1.661 -0.6643 -2.3600  0.3236
 4575TIP3    H235289   5.414   0.947   1.637  0.1724  4.1518 -0.3116
 4576TIP3   OH235290   2.627   2.951   0.985 -0.1672  0.1667  0.0871
 4576TIP3    H135291   2.680   2.893   0.930 -0.9323 -0.2616 -0.2181
 4576TIP3    H235292   2.580   3.007   0.923  0.3901  0.9641  0.3731
 4577TIP3   OH235293   6.648   3.656   6.997  0.0238  0.0675 -0.5119
 4577TIP3    H135294   6.742   3.672   6.990  0.2304 -1.0368 -0.3800
 4577TIP3    H235295   6.615   3.667   6.908  0.2362  0.6207 -0.5300
 4578TIP3   OH235296   5.184   1.721   7.230  0.1716  0.0453 -0.0055
 4578TIP3    H135297   5.193   1.805   7.274 -0.1668  0.3300 -0.4773
 4578TIP3    H235298   5.189   1.656   7.301 -0.2407  0.4956  0.4389
 4579TIP3   OH235299   6.663   6.653   2.728 -0.4230 -0.4986 -0.4883
 4579TIP3    H135300   6.723   6.722   2.701  0.5625 -1.1700 -0.0933
 4579TIP3    H235301   6.585   6.699   2.759  1.2167  0.6377  2.3164
 4580TIP3   OH235302   2.887   3.552   1.719 -0.4214 -0.1827  0.4863
 4580TIP3    H135303   2.896   3.457   1.706  0.8056 -0.0470  0.2310
 4580TIP3    H235304   2.976   3.585   1.715 -0.6210  0.7617  2.4907
 4581TIP3   OH235305   0.114   0.516   0.954  0.3259 -0.3417 -0.6728
 4581TIP3    H135306   0.153   0.522   0.867  1.7512  1.2121  0.0156
 4581TIP3    H235307   0.188   0.522   1.015 -0.5728 -2.0173  0.6670
 4582TIP3   OH235308   5.474   6.520   2.316 -0.0252 -0.3254 -0.9066
 4582TIP3    H135309   5.388   6.561   2.317  0.5514  0.9642  0.7039
 4582TIP3    H235310   5.532   6.584   2.276  1.0354  0.9693  2.3281
 4583TIP3   OH235311   3.201   6.110   0.868  0.0172 -0.2848 -0.0816
 4583TIP3    H135312   3.215   6.037   0.929 -0.7472 -1.9949 -1.8213
 4583TIP3    H235313   3.162   6.179   0.921  0.9917 -1.0407  1.6943
 4584TIP3   OH235314   0.499   2.202   8.411  0.0340 -0.4816 -0.3631
 4584TIP3    H135315   0.424   2.182   8.467 -0.6212  0.7707 -0.7475
 4584TIP3    H235316   0.465   2.194   8.322  0.2044  0.5312 -0.5389
 4585TIP3   OH235317   0.431   3.877   0.257  0.2237  0.1577  0.4200
 4585TIP3    H135318   0.524   3.872   0.278 -0.0356 -1.2745  1.3315
 4585TIP3    H235319   0.411   3.971   0.261  2.0232  0.7341 -1.7155
 4586TIP3   OH235320   0.051   4.719   0.161  1.0515 -0.1188  0.4659
 4586TIP3    H135321   0.031   4.806   0.127 -0.3786 -0.5406  0.1442
 4586TIP3    H235322   0.095   4.735   0.244  1.5627  0.9033  0.0208
 4587TIP3   OH235323   0.576   4.691   1.425  0.7346 -0.0653  0.2455
 4587TIP3    H135324   0.585   4.633   1.350 -1.9826 -1.3206  0.7690
 4587TIP3    H235325   0.545   4.635   1.496  1.0166  1.4933  1.6936
 4588TIP3   OH235326   5.678   5.921   1.071  0.2320  0.2798 -0.0319
 4588TIP3    H135327   5.610   5.987   1.060 -0.6182 -0.5164  0.2437
 4588TIP3    H235328   5.759   5.970   1.077 -0.1280  1.1670 -1.9227
 4589TIP3   OH235329   4.783   3.188   0.675 -0.6072  0.0354  0.5752
 4589TIP3    H135330   4.832   3.217   0.599 -0.2335  0.4078  0.9562
 4589TIP3    H235331   4.765   3.268   0.725 -1.0035 -0.1796  0.7908
 4590TIP3   OH235332   6.600   6.203   0.747  0.0629  0.1844  0.3653
 4590TIP3    H135333   6.542   6.223   0.674  0.1492 -0.1635  0.2012
 4590TIP3    H235334   6.641   6.287   0.769 -0.9453  0.5570  0.8694
 4591TIP3   OH235335   0.331   1.619   8.021  0.3485 -0.0086 -0.3231
 4591TIP3    H135336   0.364   1.547   7.968  0.8620  1.2746 -1.8212
 4591TIP3    H235337   0.297   1.682   7.958 -1.2102  0.5488  1.0027
 4592TIP3   OH235338   3.967   1.112   1.538 -0.4349 -0.7690 -0.2919
 4592TIP3    H135339   4.015   1.077   1.463  0.9848  1.7829 -0.7087
 4592TIP3    H235340   4.001   1.066   1.614  0.5102 -1.0996 -0.9091
 4593TIP3   OH235341   0.293   4.322   8.751  0.8301  0.3444  0.1258
 4593TIP3    H135342   0.284   4.236   8.711 -0.1680  0.7191 -0.5041
 4593TIP3    H235343   0.300   4.305   8.845 -2.3965 -0.3489  0.3706
 4594TIP3   OH235344   6.044   1.228   7.146 -0.2245  0.6484 -0.7530
 4594TIP3    H135345   5.960   1.275   7.152  0.8157  2.9216 -2.5374
 4594TIP3    H235346   6.063   1.225   7.052  1.6929  0.1525 -0.3837
 4595TIP3   OH235347   2.205   3.030   7.769 -0.2744  0.0244  0.1488
 4595TIP3    H135348   2.150   2.967   7.723  0.0244  0.0818 -0.2964
 4595TIP3    H235349   2.198   3.110   7.717 -0.0427  0.1309  0.2773
 4596TIP3   OH235350   5.220   2.777   8.210 -0.3328  0.1298 -0.2274
 4596TIP3    H135351   5.200   2.870   8.216 -1.3406 -0.1616  2.6237
 4596TIP3    H235352   5.185   2.740   8.292  1.5987 -2.4448 -0.4484
 4597TIP3   OH235353   3.073   4.207   0.957  0.1100 -0.2913 -0.1450
 4597TIP3    H135354   3.016   4.248   0.891  1.0087  1.7387  0.2540
 4597TIP3    H235355   3.054   4.254   1.038  0.9670 -0.8875  0.4219
 4598TIP3   OH235356   1.556   4.754   7.029  0.1530 -0.2622  0.8979
 4598TIP3    H135357   1.648   4.773   7.049  0.0885  0.6884  0.3598
 4598TIP3    H235358   1.549   4.765   6.934 -0.2474 -1.5794  0.7456
 4599TIP3   OH235359   1.918   4.432   7.645 -0.0376 -0.1367  0.2665
 4599TIP3    H135360   1.944   4.522   7.626  1.1507 -0.3489  0.8559
 4599TIP3    H235361   1.914   4.389   7.559 -0.3880  0.4121  0.0056
 4600TIP3   OH235362   1.917   4.633   1.357  0.3814 -0.1584 -0.0405
 4600TIP3    H135363   1.984   4.632   1.288  1.2793 -1.6473  0.7876
 4600TIP3    H235364   1.869   4.714   1.343 -0.1418 -0.8542 -3.0511
 4601TIP3   OH235365   3.071   2.435   1.535  0.7392  0.0545 -0.5158
 4601TIP3    H135366   2.976   2.437   1.522  0.5124  1.3360  1.0530
 4601TIP3    H235367   3.106   2.415   1.448 -0.9460 -0.0820 -1.2069
 4602TIP3   OH235368   4.094   0.326   7.263 -0.0293  0.7507 -0.3342
 4602TIP3    H135369   4.185   0.301   7.281 -0.4031  0.3456  1.1336
 4602TIP3    H235370   4.054   0.335   7.350 -1.7437 -0.3824 -0.9503
 4603TIP3   OH235371   4.605   5.934   1.684 -0.2322 -0.5869 -0.3481
 4603TIP3    H135372   4.644   5.910   1.768 -0.6580  1.2812  0.4182
 4603TIP3    H235373   4.516   5.960   1.706  0.2124  1.7484 -1.0466
 4604TIP3   OH235374   6.389   3.244   1.251  0.1533  0.0406 -0.5459
 4604TIP3    H135375   6.467   3.264   1.200  0.2081 -0.9193 -0.8671
 4604TIP3    H235376   6.318   3.243   1.187 -0.3597  2.0770 -0.0856
 4605TIP3   OH235377   6.596   1.351   7.574  0.2452  0.6842 -0.2139
 4605TIP3    H135378   6.518   1.348   7.520  0.7480 -0.9014 -0.9107
 4605TIP3    H235379   6.650   1.279   7.542  1.2629  0.7116  1.3393
 4606TIP3   OH235380   4.548   3.797   0.682  0.3584 -0.1740  0.0594
 4606TIP3    H135381   4.548   3.883   0.725 -0.1832  0.1631 -0.5923
 4606TIP3    H235382   4.616   3.748   0.727  1.5685  1.0256 -0.3854
 4607TIP3   OH235383   4.664   0.009   1.825 -0.3168 -0.3010 -0.0317
 4607TIP3    H135384   4.631   0.099   1.819 -2.6551 -1.0266  0.6288
 4607TIP3    H235385   4.755   0.015   1.797 -0.6074  2.1415 -0.7479
 4608TIP3   OH235386   1.636   6.730   7.034  0.0785  0.4383  0.1981
 4608TIP3    H135387   1.686   6.678   6.971 -0.0324  0.3004  0.2239
 4608TIP3    H235388   1.678   6.816   7.032  0.2417  0.3583  0.1309
 4609TIP3   OH235389   6.339   2.871   6.866  0.1737 -0.1397 -0.1967
 4609TIP3    H135390   6.367   2.835   6.782  0.8280 -2.3249  0.8726
 4609TIP3    H235391   6.419   2.876   6.918 -0.4799 -0.7552  0.9254
 4610TIP3   OH235392   6.749   5.871   0.136  0.0468  0.5859  0.7783
 4610TIP3    H135393   6.799   5.794   0.110 -2.1203 -1.8409  3.1148
 4610TIP3    H235394   6.806   5.917   0.198  1.1110  0.5000 -0.1225
 4611TIP3   OH235395   6.642   4.583   1.654  0.3599  0.3861 -0.1103
 4611TIP3    H135396   6.589   4.638   1.711  0.5840 -1.2620  1.8169
 4611TIP3    H235397   6.591   4.574   1.574  0.0391  2.7977 -0.2343
 4612TIP3   OH235398   2.478   2.645   6.905  0.3969  0.1032  0.5055
 4612TIP3    H135399   2.440   2.671   6.989  0.0279  0.7297  0.1536
 4612TIP3    H235400   2.438   2.704   6.841 -0.0821 -1.0081 -0.2582
 4613TIP3   OH235401   5.353   1.746   1.314 -0.1837 -0.1425  0.9226
 4613TIP3    H135402   5.411   1.675   1.287 -0.0741 -0.1969  1.3017
 4613TIP3    H235403   5.388   1.776   1.398  0.0736  0.7014  0.5287
 4614TIP3   OH235404   1.733   1.360   6.972 -0.2068 -0.4035  0.3585
 4614TIP3    H135405   1.768   1.447   6.955  1.3285 -1.1077 -0.3386
 4614TIP3    H235406   1.683   1.339   6.893 -1.2005  0.1207  0.8369
 4615TIP3   OH235407   1.969   5.956   2.074 -0.1949 -0.0694 -0.3613
 4615TIP3    H135408   1.987   6.040   2.030  0.9432 -0.3001 -0.3764
 4615TIP3    H235409   1.982   5.975   2.167  3.2304 -0.8970 -0.5442
 4616TIP3   OH235410   2.964   4.326   7.995  0.7663  0.0612  0.3527
 4616TIP3    H135411   2.999   4.239   7.977  1.0624 -0.2014  1.9706
 4616TIP3    H235412   3.040   4.384   7.991  1.0305 -0.1640  1.7027
 4617TIP3   OH235413   2.216   3.561   7.210  0.2817  0.2867 -0.0753
 4617TIP3    H135414   2.229   3.466   7.199  0.8999  0.3259  0.3077
 4617TIP3    H235415   2.187   3.590   7.124  0.2716 -0.2232 -0.2522
 4618TIP3   OH235416   4.097   2.321   1.583 -0.4797 -0.0883 -0.0641
 4618TIP3    H135417   4.092   2.269   1.664  1.0108  0.7494  0.6059
 4618TIP3    H235418   4.077   2.410   1.610  2.0646  0.5766 -0.1621
 4619TIP3   OH235419   5.710   6.500   8.320  0.2650 -0.0171 -0.5286
 4619TIP3    H135420   5.793   6.545   8.336  1.2554 -1.5991 -0.9561
 4619TIP3    H235421   5.722   6.456   8.236 -1.8613  1.5227 -1.7384
 4620TIP3   OH235422   6.044   5.526   7.533  0.1232 -0.2865  0.3964
 4620TIP3    H135423   5.963   5.560   7.495  0.2476  0.4966  0.8044
 4620TIP3    H235424   6.104   5.516   7.459  0.1396  0.5692  0.2895
 4621TIP3   OH235425   2.005   1.364   0.756  0.7211 -0.8150  0.1301
 4621TIP3    H135426   2.082   1.364   0.698  0.0035  0.1408 -0.8556
 4621TIP3    H235427   2.026   1.428   0.823  0.6884 -0.3808 -0.2727
 4622TIP3   OH235428   1.659   6.662   7.294 -0.3577  0.1960 -0.7649
 4622TIP3    H135429   1.632   6.702   7.211  1.0207  1.0754 -0.8280
 4622TIP3    H235430   1.725   6.598   7.270  1.1941  1.5334 -0.2784
 4623TIP3   OH235431   2.104   4.356   1.211 -0.1107 -0.1232  0.0631
 4623TIP3    H135432   2.073   4.385   1.297  2.2259 -0.6427  1.1840
 4623TIP3    H235433   2.188   4.314   1.230  0.2699 -0.6384 -2.4583
 4624TIP3   OH235434   5.448   2.671   6.961  0.0316  0.3696  0.0030
 4624TIP3    H135435   5.534   2.659   6.921 -0.1681 -0.9602 -0.0661
 4624TIP3    H235436   5.388   2.673   6.887 -0.1756 -0.5258  0.1369
 4625TIP3   OH235437   2.766   2.249   7.073 -0.0172  0.1403 -0.0028
 4625TIP3    H135438   2.699   2.314   7.094 -1.4721 -1.5283  0.7245
 4625TIP3    H235439   2.819   2.243   7.153  0.6212  0.9462 -0.3398
 4626TIP3   OH235440   4.408   2.433   1.334 -0.1842  0.1134 -0.6216
 4626TIP3    H135441   4.423   2.486   1.255  0.9298  1.8810  0.6736
 4626TIP3    H235442   4.322   2.460   1.365 -0.9986 -1.1976 -1.6157
 4627TIP3   OH235443   2.877   2.002   6.959 -0.5562  0.0524  0.2722
 4627TIP3    H135444   2.857   2.088   6.997  0.6528 -0.3528  1.9400
 4627TIP3    H235445   2.943   2.019   6.893 -0.6824  0.4589  0.2465
 4628TIP3   OH235446   5.025   3.674   1.530  0.2060 -0.1516  0.0590
 4628TIP3    H135447   5.061   3.634   1.450  1.3789  2.0210 -0.5842
 4628TIP3    H235448   4.984   3.601   1.577  2.1584 -2.0723 -1.0429
 4629TIP3   OH235449   3.985   6.074   2.817 -0.1826 -0.2345 -0.5519
 4629TIP3    H135450   4.019   6.043   2.733 -0.5194  2.3873 -1.7684
 4629TIP3    H235451   4.048   6.142   2.844 -1.0047  0.1531  0.4478
 4630TIP3   OH235452   3.274   6.536   7.850 -0.2547  0.2815 -0.2131
 4630TIP3    H135453   3.229   6.555   7.768  1.6662  0.1923 -1.3443
 4630TIP3    H235454   3.205   6.500   7.907 -2.2357  2.8820 -0.7740
 4631TIP3   OH235455   5.099   2.147   7.898  0.0099 -0.3516  0.2535
 4631TIP3    H135456   5.100   2.175   7.989  2.8969  2.2683 -0.4406
 4631TIP3    H235457   5.052   2.216   7.851  0.6597 -0.4359 -0.5529
 4632TIP3   OH235458   5.496   1.995   0.369 -0.0052  0.3939  0.4349
 4632TIP3    H135459   5.481   2.084   0.402 -0.2746  0.6686 -0.4189
 4632TIP3    H235460   5.588   1.977   0.389 -0.1125  0.6198  1.1713
 4633TIP3   OH235461   2.203   0.318   1.822 -0.0843  0.1917  0.3130
 4633TIP3    H135462   2.280   0.267   1.848 -0.9263 -0.7579  1.0020
 4633TIP3    H235463   2.161   0.342   1.904 -1.2943 -0.5125 -0.0748
 4634TIP3   OH235464   3.866   1.673   6.753  0.4359 -0.0601  0.0058
 4634TIP3    H135465   3.927   1.601   6.732  0.2563 -0.6080  1.2879
 4634TIP3    H235466   3.916   1.752   6.732  0.3071 -0.5134 -2.3569
 4635TIP3   OH235467   2.363   2.378   8.150  0.4219  0.2203 -0.1822
 4635TIP3    H135468   2.408   2.361   8.233  0.6865 -0.9142 -0.5444
 4635TIP3    H235469   2.356   2.292   8.108  0.2286  0.7669 -1.3101
 4636TIP3   OH235470   0.974   3.225   8.699 -0.1593 -1.0327 -0.3228
 4636TIP3    H135471   0.975   3.308   8.652  2.5704  1.1009  3.0523
 4636TIP3    H235472   1.066   3.201   8.708 -0.6503 -2.3220  2.1401
 4637TIP3   OH235473   3.864   5.348   0.044  0.2268  0.4542 -0.3301
 4637TIP3    H135474   3.896   5.328  -0.043 -2.6230  1.1914 -1.6927
 4637TIP3    H235475   3.806   5.424   0.031 -0.2408  0.6256  2.2065
 4638TIP3   OH235476   3.331   3.963   6.531  0.1050  0.0925 -0.1964
 4638TIP3    H135477   3.284   4.046   6.535  0.3607  0.2273  0.0178
 4638TIP3    H235478   3.423   3.986   6.543 -0.0098 -0.4411  2.1779
 4639TIP3   OH235479   2.156   4.481   0.941  0.7474 -0.1260  0.0415
 4639TIP3    H135480   2.139   4.471   1.035 -1.3626  1.4920 -0.0863
 4639TIP3    H235481   2.069   4.487   0.902  1.5856 -0.6724 -2.0278
 4640TIP3   OH235482   5.843   0.825   0.963 -0.1279 -0.0355 -0.2493
 4640TIP3    H135483   5.914   0.844   1.024  0.4286  1.3370 -1.2656
 4640TIP3    H235484   5.797   0.750   1.001  2.3353 -1.4896  0.0126
 4641TIP3   OH235485   1.416   5.551   1.691 -0.0816  0.5520  0.1907
 4641TIP3    H135486   1.467   5.625   1.723  0.8995 -0.2170  0.4567
 4641TIP3    H235487   1.379   5.581   1.608  0.5619  1.2202  0.1374
 4642TIP3   OH235488   5.377   1.357   8.386  0.1259 -0.2777 -0.2468
 4642TIP3    H135489   5.328   1.287   8.430 -0.4562 -0.1027 -0.5920
 4642TIP3    H235490   5.370   1.432   8.444  0.7563 -0.5011  0.1264
 4643TIP3   OH235491   1.805   5.136   1.833  0.0809 -0.5224 -0.3241
 4643TIP3    H135492   1.857   5.210   1.803  0.3877 -0.5804  0.0554
 4643TIP3    H235493   1.841   5.060   1.788 -1.0616 -0.2964 -1.7234
 4644TIP3   OH235494   5.618   5.095   1.010 -0.3331 -0.3604  0.2513
 4644TIP3    H135495   5.562   5.172   1.011 -0.0618 -0.1644  1.4509
 4644TIP3    H235496   5.584   5.038   1.079 -0.2331 -1.1041 -0.2945
 4645TIP3   OH235497   5.559   4.904   8.010  0.2263  0.6427  0.3487
 4645TIP3    H135498   5.506   4.956   8.071 -1.2688  2.2920 -2.2014
 4645TIP3    H235499   5.619   4.967   7.970  2.1416 -0.6626  0.9875
 4646TIP3   OH235500   3.590   6.008   1.098  0.3944  0.0200 -0.0500
 4646TIP3    H135501   3.519   6.063   1.134  0.3528  0.1602 -0.3456
 4646TIP3    H235502   3.607   6.045   1.012  0.1362 -0.6479 -0.3947
 4647TIP3   OH235503   2.894   1.175   1.727 -0.8413  0.1856 -0.3649
 4647TIP3    H135504   2.847   1.103   1.768  1.1657 -0.5062  0.8303
 4647TIP3    H235505   2.900   1.242   1.795 -2.0854  1.2604 -1.2495
 4648TIP3   OH235506   1.944   2.647   7.001 -0.1213  0.4045  0.0406
 4648TIP3    H135507   1.904   2.561   6.998  0.7726 -0.0196  0.0272
 4648TIP3    H235508   1.889   2.701   6.944  0.4345 -0.6279 -1.5277
 4649TIP3   OH235509   6.613   4.595   0.218 -0.0295  0.2462 -0.4799
 4649TIP3    H135510   6.578   4.631   0.299  1.4574  0.5514  0.0621
 4649TIP3    H235511   6.681   4.658   0.192 -1.6017  1.1020 -2.9143
 4650TIP3   OH235512   3.118   0.200   8.390 -0.4827  0.6866 -0.0763
 4650TIP3    H135513   3.183   0.261   8.357  0.0216 -0.5142 -1.3967
 4650TIP3    H235514   3.147   0.114   8.358 -1.1236 -0.2846  1.7465
 4651TIP3   OH235515   5.685   2.974   7.692 -0.5413  0.3513 -0.1480
 4651TIP3    H135516   5.746   3.014   7.755 -0.6323  0.3588 -0.0642
 4651TIP3    H235517   5.645   2.902   7.740 -1.1705  0.8241  0.0511
 4652TIP3   OH235518   2.990   3.763   8.239 -0.0161  0.5699  0.0596
 4652TIP3    H135519   3.033   3.756   8.154 -0.3230  0.7914 -0.1140
 4652TIP3    H235520   2.929   3.688   8.241  1.1245 -0.3809  0.7449
 4653TIP3   OH235521   3.740   4.115   8.344  0.0700 -0.3574  0.0876
 4653TIP3    H135522   3.730   4.045   8.409 -0.0705 -1.8364 -1.4748
 4653TIP3    H235523   3.705   4.078   8.263 -2.3801  2.3873 -0.2743
 4654TIP3   OH235524   6.572   6.751   7.536 -0.0512  0.6812 -0.4495
 4654TIP3    H135525   6.577   6.832   7.587  0.1753  1.2599 -1.3807
 4654TIP3    H235526   6.658   6.711   7.545 -0.9483 -0.8843  2.2677
 4655TIP3   OH235527   6.491   3.442   1.932  0.0745 -0.3142  0.0926
 4655TIP3    H135528   6.546   3.505   1.978 -0.9034  0.6597 -0.0340
 4655TIP3    H235529   6.469   3.485   1.849 -0.4524 -0.8966 -0.0796
 4656TIP3   OH235530   3.577   6.138   0.113  0.4713 -0.0139  0.4301
 4656TIP3    H135531   3.606   6.081   0.184 -2.8498 -1.2174  0.9804
 4656TIP3    H235532   3.519   6.201   0.154  0.5486  0.9432 -0.8641
 4657TIP3   OH235533   4.341   6.526   1.239  0.1250 -0.9446  0.5946
 4657TIP3    H135534   4.344   6.530   1.334  0.8158 -1.7839  0.6244
 4657TIP3    H235535   4.250   6.504   1.219 -0.0791 -0.5117  1.0460
 4658TIP3   OH235536   0.214   3.025   8.241 -0.6834 -0.4281 -0.2116
 4658TIP3    H135537   0.260   2.964   8.299  2.2169  1.2277 -0.5331
 4658TIP3    H235538   0.141   3.058   8.294  0.4827 -0.7132  1.6812
 4659TIP3   OH235539   1.728   4.499   8.199 -0.0273  0.0817  0.0122
 4659TIP3    H135540   1.810   4.486   8.246  0.6675  1.6626 -0.6946
 4659TIP3    H235541   1.713   4.593   8.201 -1.5498 -0.1201 -0.3424
 4660TIP3   OH235542   4.575   4.652   6.850  0.4048  0.0376  0.0908
 4660TIP3    H135543   4.600   4.606   6.930  0.3948  1.2139  0.7873
 4660TIP3    H235544   4.646   4.716   6.837 -0.3086  0.8120 -0.0399
 4661TIP3   OH235545   5.865   6.780   2.244 -0.1932  0.1082 -0.0834
 4661TIP3    H135546   5.946   6.733   2.221  0.5281  0.3772  1.7491
 4661TIP3    H235547   5.873   6.864   2.198  1.9644  1.2806  2.1821
 4662TIP3   OH235548   1.263   4.199   7.627 -0.7730 -0.1284 -0.0972
 4662TIP3    H135549   1.287   4.179   7.718  0.4286  0.4920 -0.2650
 4662TIP3    H235550   1.235   4.290   7.630 -2.8860 -0.7289  0.0281
 4663TIP3   OH235551   1.945   3.162   1.533 -0.5965 -0.7924 -0.3907
 4663TIP3    H135552   2.012   3.193   1.473 -0.0298  1.1818  1.1606
 4663TIP3    H235553   1.966   3.070   1.548  0.7116 -0.6568 -1.2627
 4664TIP3   OH235554   0.499   4.941   7.994 -0.2776 -0.0258  0.6911
 4664TIP3    H135555   0.500   5.019   7.939 -0.9291  0.2948  1.1301
 4664TIP3    H235556   0.451   4.876   7.943  1.0431 -0.4487 -0.0678
 4665TIP3   OH235557   3.643   3.540   1.721 -0.1679 -0.0788  0.4630
 4665TIP3    H135558   3.557   3.574   1.745 -0.8692 -1.1507 -0.4768
 4665TIP3    H235559   3.698   3.618   1.716 -1.7294  0.9783 -1.6027
 4666TIP3   OH235560   4.480   1.356   7.766  0.2073  0.2764 -0.3051
 4666TIP3    H135561   4.544   1.393   7.827 -1.0345  0.0038  1.2395
 4666TIP3    H235562   4.474   1.421   7.696 -0.1800  1.9037  1.1542
 4667TIP3   OH235563   0.547   1.502   0.969 -0.0840 -0.3003 -0.0921
 4667TIP3    H135564   0.550   1.533   0.878  2.0110 -2.3283 -0.8034
 4667TIP3    H235565   0.480   1.434   0.968 -2.5993  1.9769  0.8073
 4668TIP3   OH235566   4.615   3.474   7.108 -0.5108  0.4719 -0.7345
 4668TIP3    H135567   4.639   3.546   7.050  0.5442  0.0543 -0.8444
 4668TIP3    H235568   4.594   3.516   7.191  2.1675  0.8040 -0.1481
 4669TIP3   OH235569   4.561   4.892   1.183 -0.7834  0.2848  0.0076
 4669TIP3    H135570   4.535   4.939   1.262  1.4390 -2.3443  2.5775
 4669TIP3    H235571   4.619   4.952   1.136 -0.3619  1.1721  1.6002
 4670TIP3   OH235572   0.041   1.301   8.453 -0.5965  0.5314 -0.5405
 4670TIP3    H135573   0.086   1.381   8.426 -1.5063  1.0959 -0.4052
 4670TIP3    H235574   0.107   1.232   8.443  0.3934  1.3835 -0.0573
 4671TIP3   OH235575   1.030   3.731   6.875  0.2426 -0.0116 -0.0509
 4671TIP3    H135576   0.937   3.752   6.865  0.3530  0.9709  0.7764
 4671TIP3    H235577   1.055   3.695   6.790 -1.1534 -1.3909  0.0796
 4672TIP3   OH235578   3.736   0.268   6.553 -0.2335 -0.3942  0.0204
 4672TIP3    H135579   3.741   0.310   6.468  1.4220 -0.3605  0.1116
 4672TIP3    H235580   3.818   0.291   6.597  0.2375 -2.7174  0.5152
 4673TIP3   OH235581   1.608   6.020   0.441 -0.4432 -0.6216  0.1437
 4673TIP3    H135582   1.614   6.036   0.347  0.5769  1.5151  0.5025
 4673TIP3    H235583   1.649   6.097   0.481  0.3110 -2.0441  2.3116
 4674TIP3   OH235584   3.521   5.767   1.404 -0.5376 -0.0253  0.0462
 4674TIP3    H135585   3.584   5.838   1.395 -2.2297  1.4714 -0.5089
 4674TIP3    H235586   3.508   5.758   1.499  0.2936 -0.1660  0.1483
 4675TIP3   OH235587   0.549   6.059   1.105 -0.7766 -0.1883  0.0609
 4675TIP3    H135588   0.572   5.968   1.126 -1.7222 -1.4735 -3.6894
 4675TIP3    H235589   0.461   6.070   1.140 -1.1837 -1.2240 -0.5808
 4676TIP3   OH235590   3.437   3.006   0.677  0.0692 -0.0752 -0.4874
 4676TIP3    H135591   3.432   3.076   0.742  0.4934  0.6526 -1.2141
 4676TIP3    H235592   3.444   2.926   0.728  1.2011  0.5439  0.3731
 4677TIP3   OH235593   1.342   2.917   7.151 -0.2129  0.4412  0.0654
 4677TIP3    H135594   1.299   2.832   7.141  0.1996  0.2460 -0.0457
 4677TIP3    H235595   1.412   2.902   7.213  0.7452  0.3703 -1.0042
 4678TIP3   OH235596   6.179   2.601   6.980  0.0519  0.2381  0.3163
 4678TIP3    H135597   6.151   2.657   6.907 -3.2102 -2.0751 -0.4191
 4678TIP3    H235598   6.247   2.545   6.943  0.9718  1.4393  0.1305
 4679TIP3   OH235599   5.885   0.602   7.866 -0.2263 -0.3979  0.0061
 4679TIP3    H135600   5.890   0.627   7.959  0.4381 -3.0379  0.7610
 4679TIP3    H235601   5.791   0.604   7.846 -0.2866  1.6554  0.2329
 4680TIP3   OH235602   0.006   3.360   1.299  0.0026 -0.0356 -0.6274
 4680TIP3    H135603  -0.045   3.303   1.357 -0.4121 -0.0023 -0.9562
 4680TIP3    H235604   0.079   3.389   1.353 -0.0762 -0.4488 -0.2887
 4681TIP3   OH235605   1.586   6.025   7.831  0.3799  0.1911 -0.2428
 4681TIP3    H135606   1.545   5.947   7.793  0.9249 -0.1463 -0.1423
 4681TIP3    H235607   1.522   6.095   7.816  0.1495 -0.1472 -0.8623
 4682TIP3   OH235608   5.405   0.822   6.393  0.2244 -0.3128  0.0438
 4682TIP3    H135609   5.477   0.758   6.391 -0.1061 -0.6681 -1.2304
 4682TIP3    H235610   5.363   0.808   6.478 -0.1195 -2.1140 -0.3835
 4683TIP3   OH235611   5.410   5.553   8.032 -0.1548 -0.1703  0.0972
 4683TIP3    H135612   5.370   5.541   7.946 -0.4412 -2.4605  0.4740
 4683TIP3    H235613   5.465   5.631   8.023  0.3362 -0.7322 -2.3483
 4684TIP3   OH235614   2.989   4.552   1.282 -0.3145 -0.3677  0.2615
 4684TIP3    H135615   3.029   4.573   1.198  0.3841  1.6611  1.0357
 4684TIP3    H235616   3.064   4.541   1.341 -0.7699 -2.4465  0.5296
 4685TIP3   OH235617   2.285   0.091   0.602 -0.5945  0.0896  0.2538
 4685TIP3    H135618   2.274   0.123   0.691 -3.1160  1.0137 -0.2884
 4685TIP3    H235619   2.198   0.100   0.563  0.1012 -1.6030 -1.8842
 4686TIP3   OH235620   0.313   5.084   7.562  0.0474  0.6298  0.1763
 4686TIP3    H135621   0.225   5.048   7.553 -0.1767  1.2352 -0.0774
 4686TIP3    H235622   0.307   5.173   7.527  1.2352  0.0086 -1.7896
 4687TIP3   OH235623   2.959   2.902   1.642 -0.1741  0.3131 -0.3771
 4687TIP3    H135624   3.018   2.862   1.579  0.7759 -1.0358  1.2968
 4687TIP3    H235625   2.872   2.871   1.617  0.4599 -2.3311  0.4414
 4688TIP3   OH235626   4.971   4.525   6.883  0.0503  0.3754 -0.4437
 4688TIP3    H135627   4.956   4.430   6.877  2.1538 -0.0338 -0.1112
 4688TIP3    H235628   5.012   4.548   6.800  0.1691  0.8642 -0.2524
 4689TIP3   OH235629   5.358   3.479   8.658  0.1903  0.2395 -0.1485
 4689TIP3    H135630   5.340   3.474   8.564 -1.1066  2.9417 -0.1422
 4689TIP3    H235631   5.438   3.531   8.664 -0.1812  0.7656  0.2629
 4690TIP3   OH235632   6.310   5.371   0.280 -0.3557 -0.2925 -0.2146
 4690TIP3    H135633   6.230   5.422   0.287 -1.2826 -1.8636  1.4584
 4690TIP3    H235634   6.349   5.376   0.367  0.0213 -1.6298 -0.2878
 4691TIP3   OH235635   1.833   4.972   2.687  0.0535  1.3802 -0.7152
 4691TIP3    H135636   1.747   4.980   2.727  0.8713  0.2624  1.4059
 4691TIP3    H235637   1.822   4.905   2.620 -1.0641  2.4123 -1.6040
 4692TIP3   OH235638   0.245   0.570   6.868 -0.4357  0.3614 -0.0222
 4692TIP3    H135639   0.177   0.637   6.863 -1.9414 -0.9464  1.6334
 4692TIP3    H235640   0.200   0.489   6.845  1.0909 -0.2880 -0.9131
 4693TIP3   OH235641   2.710   1.024   0.691 -0.2209 -0.8473 -0.3543
 4693TIP3    H135642   2.682   0.966   0.762 -0.1684  0.9212  1.1996
 4693TIP3    H235643   2.775   0.973   0.643 -0.9188 -2.4329  0.3042
 4694TIP3   OH235644   2.093   2.363   8.510 -0.0755 -0.5284  0.2524
 4694TIP3    H135645   2.166   2.360   8.448 -0.5764 -1.2568 -0.3199
 4694TIP3    H235646   2.020   2.322   8.464 -0.8503  0.1608  0.8212
 4695TIP3   OH235647   6.090   5.991   8.449  0.5039  0.1938  0.3206
 4695TIP3    H135648   6.028   5.924   8.418 -0.7864  1.1707  0.7101
 4695TIP3    H235649   6.053   6.020   8.532  0.3231  2.2927 -0.4442
 4696TIP3   OH235650   5.803   5.631   7.425  0.2796  0.5366 -0.0489
 4696TIP3    H135651   5.786   5.720   7.456 -0.9977  0.0813  0.6078
 4696TIP3    H235652   5.754   5.624   7.343  2.3090  1.1808 -1.4213
 4697TIP3   OH235653   0.914   3.485   8.024  0.0686 -0.2464  0.3992
 4697TIP3    H135654   0.875   3.523   7.945 -1.2243  1.6185  1.8484
 4697TIP3    H235655   0.841   3.441   8.067  0.8792 -1.7113  0.3392
 4698TIP3   OH235656   5.948   4.739   6.315  0.0997 -0.3844  0.0149
 4698TIP3    H135657   5.938   4.808   6.380 -0.2431 -0.5148  0.1015
 4698TIP3    H235658   5.869   4.686   6.324 -0.1289 -0.1781 -0.7793
 4699TIP3   OH235659   2.844   0.601   0.971  0.3020  0.0365  0.1530
 4699TIP3    H135660   2.856   0.587   1.065  2.2188 -1.1729 -0.2191
 4699TIP3    H235661   2.930   0.629   0.940 -0.7753  2.3400 -0.9774
 4700TIP3   OH235662   2.213   1.749   6.312 -0.0580  0.0083  0.2391
 4700TIP3    H135663   2.227   1.665   6.355 -1.3444  0.0476  0.7860
 4700TIP3    H235664   2.117   1.758   6.307 -0.0390  2.4209  2.1797
 4701TIP3   OH235665   6.675   4.156   0.550 -0.2403  0.1213  0.1396
 4701TIP3    H135666   6.639   4.244   0.562 -1.2750 -0.1880 -0.5905
 4701TIP3    H235667   6.763   4.161   0.589 -0.8968  1.0146  1.5822
 4702TIP3   OH235668   3.289   2.006   7.524 -0.5633 -0.4304  0.0541
 4702TIP3    H135669   3.383   2.007   7.542 -0.3684 -1.6769 -0.7557
 4702TIP3    H235670   3.277   2.070   7.454 -0.7014  1.4067  1.6745
 4703TIP3   OH235671   2.035   0.265   7.336  0.0297 -0.1622 -0.6534
 4703TIP3    H135672   2.078   0.283   7.252 -1.5259 -0.2658 -1.4969
 4703TIP3    H235673   1.977   0.340   7.350  0.0325 -0.3031  0.1789
 4704TIP3   OH235674   6.266   2.560   0.636  0.6488 -0.0081 -0.1053
 4704TIP3    H135675   6.273   2.512   0.719  1.1728  1.2773  0.6352
 4704TIP3    H235676   6.173   2.581   0.627  0.5986 -0.1041  0.1965
 4705TIP3   OH235677   0.970   2.180   0.011  0.1409  0.1895 -0.2729
 4705TIP3    H135678   0.925   2.096   0.024  1.0841 -0.2852  0.0331
 4705TIP3    H235679   0.930   2.238   0.075  2.9284 -1.4198  3.2769
 4706TIP3   OH235680   5.904   2.429   0.044  0.1544  0.0280 -0.0873
 4706TIP3    H135681   5.915   2.407  -0.048 -0.0939 -1.2181  0.1652
 4706TIP3    H235682   5.962   2.369   0.091 -2.4058 -1.9416  0.7861
 4707TIP3   OH235683   0.117   6.417   1.284  0.0275 -0.0248  0.4889
 4707TIP3    H135684   0.139   6.509   1.297 -1.3688  0.2848  0.8101
 4707TIP3    H235685   0.162   6.393   1.202 -0.6695  1.3308 -0.3271
 4708TIP3   OH235686   3.018   6.282   8.343  0.0876 -0.0514 -0.1956
 4708TIP3    H135687   2.970   6.204   8.372  0.1934 -0.6405 -1.5217
 4708TIP3    H235688   3.022   6.338   8.421 -0.8775 -0.9219  0.5158
 4709TIP3   OH235689   5.841   2.493   7.848 -0.4166 -0.0407 -0.1703
 4709TIP3    H135690   5.823   2.404   7.880 -0.4220  0.3567  0.9908
 4709TIP3    H235691   5.843   2.485   7.753 -0.1325 -1.3415 -0.0695
 4710TIP3   OH235692   2.073   5.435   6.886 -0.4282 -0.6797  0.0557
 4710TIP3    H135693   2.122   5.484   6.951 -0.1095 -0.2964 -0.4673
 4710TIP3    H235694   2.036   5.361   6.934 -0.1137 -0.4548  0.6459
 4711TIP3   OH235695   1.370   2.926   8.568  0.8048  0.5899 -0.3716
 4711TIP3    H135696   1.408   2.961   8.487  0.0218  0.1364 -0.9383
 4711TIP3    H235697   1.373   2.831   8.557  2.5567  0.4336  0.9974
 4712TIP3   OH235698   5.596   4.319   1.194 -0.3229  0.4129 -0.5449
 4712TIP3    H135699   5.608   4.353   1.105 -1.3299  0.5192 -0.6456
 4712TIP3    H235700   5.526   4.373   1.231 -0.4068 -0.1099  0.0709
 4713TIP3   OH235701   5.685   0.128   7.313 -0.0103 -0.0166  0.2912
 4713TIP3    H135702   5.643   0.105   7.231 -1.3157 -1.8446  1.3909
 4713TIP3    H235703   5.629   0.196   7.351 -0.5474 -0.6015  0.5630
 4714TIP3   OH235704   1.241   4.888   6.084  0.0117 -0.4608  0.3920
 4714TIP3    H135705   1.164   4.879   6.142  0.9364  0.8592  1.9169
 4714TIP3    H235706   1.312   4.845   6.132  0.8459  0.8221  0.3385
 4715TIP3   OH235707   2.328   0.444   8.291 -0.5712 -0.6272 -0.1760
 4715TIP3    H135708   2.260   0.379   8.304 -0.0477 -1.4273 -1.2766
 4715TIP3    H235709   2.363   0.426   8.203  0.4346  0.3394 -0.0046
 4716TIP3   OH235710   3.787   5.185   1.289  0.1408  0.0349 -0.0609
 4716TIP3    H135711   3.859   5.170   1.228 -0.3165 -0.3032 -0.5256
 4716TIP3    H235712   3.822   5.246   1.354  0.5245  0.6713 -0.8588
 4717TIP3   OH235713   0.199   5.264   0.145  0.2685  0.0214 -0.0278
 4717TIP3    H135714   0.279   5.229   0.184  0.4652  0.7512  0.2432
 4717TIP3    H235715   0.162   5.190   0.096  0.8347 -0.4673  0.2627
 4718TIP3   OH235716   2.574   5.206   1.110 -0.5867  0.3675  0.0225
 4718TIP3    H135717   2.642   5.266   1.141  0.3676 -0.4385 -0.4590
 4718TIP3    H235718   2.534   5.251   1.036  0.0509  0.4567 -0.2707
 4719TIP3   OH235719   1.628   3.810   6.751  0.5946  0.2147  0.0735
 4719TIP3    H135720   1.630   3.855   6.836 -1.9115  0.4492  0.0896
 4719TIP3    H235721   1.697   3.744   6.757  0.6238  0.3777  2.2252
 4720TIP3   OH235722   2.438   0.760   1.512 -0.3863 -0.0351  0.2988
 4720TIP3    H135723   2.396   0.691   1.461  1.0697  0.5516 -1.7863
 4720TIP3    H235724   2.375   0.779   1.582 -2.0392 -1.5142 -0.7014
 4721TIP3   OH235725   2.332   3.258   0.962  0.2717 -0.1042  0.1030
 4721TIP3    H135726   2.421   3.242   0.994  0.6871  0.7541 -0.5634
 4721TIP3    H235727   2.340   3.338   0.909 -0.7221 -0.5239 -0.7109
 4722TIP3   OH235728   0.394   6.737   0.194 -0.3195 -0.1628 -0.4093
 4722TIP3    H135729   0.345   6.818   0.205 -0.6640 -0.5967  1.6168
 4722TIP3    H235730   0.333   6.679   0.147 -2.0264 -0.7962  2.3351
 4723TIP3   OH235731   4.898   1.075   6.372 -0.6041 -0.9529  0.0888
 4723TIP3    H135732   4.807   1.104   6.361  0.1370  1.6748  0.1684
 4723TIP3    H235733   4.893   0.979   6.372 -3.4909 -0.9007  1.1802
 4724TIP3   OH235734   4.799   5.322   2.081 -0.5363  0.0823  0.4082
 4724TIP3    H135735   4.767   5.250   2.135 -1.3321  1.5551  2.0000
 4724TIP3    H235736   4.809   5.395   2.142  4.0331  0.3435 -0.3407
 4725TIP3   OH235737   0.293   3.780   7.160 -0.0685 -0.2785 -0.6485
 4725TIP3    H135738   0.352   3.757   7.088  1.7471  1.8577  0.0383
 4725TIP3    H235739   0.323   3.728   7.234 -0.1511 -0.4331 -0.7226
 4726TIP3   OH235740   4.381   6.153   6.425  0.5003  0.0093 -0.0932
 4726TIP3    H135741   4.372   6.248   6.418  2.0401  0.2608  0.8133
 4726TIP3    H235742   4.443   6.129   6.356 -0.0554 -0.3852 -0.4682
 4727TIP3   OH235743   6.433   4.506   8.544  0.6095  0.0323 -0.0366
 4727TIP3    H135744   6.358   4.559   8.572  0.8584 -0.2305  1.2220
 4727TIP3    H235745   6.500   4.523   8.610  1.8070  0.5163 -1.3221
 4728TIP3   OH235746   2.402   0.853   7.985  1.0850  0.6685  0.2923
 4728TIP3    H135747   2.359   0.935   8.010  1.0519  0.5924  0.4831
 4728TIP3    H235748   2.492   0.879   7.966  1.3592  0.5740  1.4136
 4729TIP3   OH235749   5.165   4.292   2.000 -0.0500 -0.3303 -0.0321
 4729TIP3    H135750   5.218   4.213   2.013  0.1413 -0.0951  0.6739
 4729TIP3    H235751   5.092   4.263   1.946  1.8010 -0.2322 -2.7586
 4730TIP3   OH235752   6.350   6.481   6.774  0.5163 -0.2501 -0.0991
 4730TIP3    H135753   6.444   6.485   6.793  0.5365  0.4200 -0.3064
 4730TIP3    H235754   6.344   6.433   6.692  0.7819  0.6958 -0.6932
 4731TIP3   OH235755   0.734   6.569   1.469  0.4366 -0.2460  0.0070
 4731TIP3    H135756   0.685   6.621   1.533  1.5032 -1.6660  2.1337
 4731TIP3    H235757   0.723   6.479   1.500  1.7363 -0.8931 -1.3316
 4732TIP3   OH235758   2.947   5.104   1.293 -0.0845 -0.0975 -0.1510
 4732TIP3    H135759   2.917   5.126   1.205  0.1085 -0.3957 -0.2905
 4732TIP3    H235760   2.993   5.021   1.283 -0.3901 -0.3234  0.2945
 4733TIP3   OH235761   5.267   6.209   2.499  0.5151  0.1047  0.4827
 4733TIP3    H135762   5.254   6.190   2.406  1.7872  0.8812  0.1158
 4733TIP3    H235763   5.328   6.141   2.528  1.0149  0.5364  0.4559
 4734TIP3   OH235764   0.080   6.252   7.958  0.5153 -0.1170 -0.2856
 4734TIP3    H135765   0.075   6.346   7.938  0.4498 -0.1347 -0.3538
 4734TIP3    H235766   0.171   6.229   7.939  0.4739 -0.1154 -0.4887
 4735TIP3   OH235767   5.129   3.981   0.388 -0.4791  0.2695  0.0090
 4735TIP3    H135768   5.034   3.974   0.379 -0.2344 -1.0047 -2.4546
 4735TIP3    H235769   5.157   4.025   0.308  1.0090  0.8646  0.8264
 4736TIP3   OH235770   2.275   2.512   7.347 -0.2299  0.5636  0.0329
 4736TIP3    H135771   2.184   2.540   7.336 -0.2191  0.8314  0.6392
 4736TIP3    H235772   2.327   2.587   7.319 -0.1989  0.8488  0.8564
 4737TIP3   OH235773   4.065   6.606   8.304 -0.0147  0.8872 -0.0596
 4737TIP3    H135774   4.125   6.663   8.256 -0.1802  1.1206  0.0081
 4737TIP3    H235775   4.014   6.562   8.237  0.8054  0.0379 -0.1609
 4738TIP3   OH235776   0.077   1.155   8.778 -0.4498  0.1334  0.0111
 4738TIP3    H135777   0.032   1.111   8.850 -1.1932 -1.4248 -1.3614
 4738TIP3    H235778   0.040   1.117   8.698  1.0490  1.0919 -1.2117
 4739TIP3   OH235779   1.963   3.387   6.586  0.1035 -0.8685 -0.2638
 4739TIP3    H135780   2.028   3.332   6.543  1.8807 -0.7656  2.0302
 4739TIP3    H235781   2.008   3.471   6.599  0.0945 -1.1796  2.4784
 4740TIP3   OH235782   6.423   2.484   2.087 -0.2225 -0.0789 -0.1209
 4740TIP3    H135783   6.387   2.514   2.170  0.0961  0.3222 -0.1269
 4740TIP3    H235784   6.419   2.389   2.092  0.1170 -0.0624  0.4962
 4741TIP3   OH235785   0.267   5.355   6.977  0.6047  0.6413  0.5058
 4741TIP3    H135786   0.325   5.373   6.903  0.7411 -0.3293  0.3693
 4741TIP3    H235787   0.193   5.414   6.964  0.0875 -0.2781 -1.0288
 4742TIP3   OH235788   0.037   0.549   0.558  0.5726  0.2893  0.0588
 4742TIP3    H135789   0.128   0.571   0.575  0.4389  1.4462 -0.5943
 4742TIP3    H235790   0.012   0.606   0.485 -0.8338  0.4160  0.6094
 4743TIP3   OH235791   5.992   5.859   7.827  0.3013  0.0425 -0.0883
 4743TIP3    H135792   6.070   5.909   7.804 -0.1215 -0.2099 -2.2584
 4743TIP3    H235793   5.920   5.921   7.821  0.2292  0.1086  1.2205
 4744TIP3   OH235794   1.448   4.647   0.603  0.3148  0.0283 -0.1298
 4744TIP3    H135795   1.372   4.600   0.568 -1.2698  2.5584 -0.4135
 4744TIP3    H235796   1.433   4.649   0.697 -0.5080  1.2691 -0.2598
 4745TIP3   OH235797   2.905   5.337   0.336  0.4404  0.3740 -0.2648
 4745TIP3    H135798   2.921   5.253   0.293 -1.0257 -0.1484  0.1377
 4745TIP3    H235799   2.942   5.326   0.424 -0.7114 -0.2790  0.1607
 4746TIP3   OH235800   1.713   3.920   0.841 -0.0008 -0.1315 -0.0397
 4746TIP3    H135801   1.744   3.937   0.751  1.3706  1.2990  0.6458
 4746TIP3    H235802   1.788   3.879   0.884  0.3549  1.6552  1.1542
 4747TIP3   OH235803   5.135   2.529   7.318  0.8373 -0.1767  0.0443
 4747TIP3    H135804   5.066   2.465   7.302 -1.0307  1.4009  1.2970
 4747TIP3    H235805   5.133   2.585   7.240 -0.2134  0.6045  0.6064
 4748TIP3   OH235806   1.469   5.318   7.344 -0.0683  0.5902  0.0835
 4748TIP3    H135807   1.387   5.332   7.391  0.1829  0.8203  0.4631
 4748TIP3    H235808   1.444   5.313   7.252 -0.4698  1.0175  0.1652
 4749TIP3   OH235809   3.343   3.762   6.743  0.5932  0.1663 -0.0008
 4749TIP3    H135810   3.311   3.816   6.670  1.6953  0.1218 -0.5363
 4749TIP3    H235811   3.279   3.691   6.750  0.7061 -0.0877 -1.2381
 4750TIP3   OH235812   3.832   4.084   1.867 -0.4195 -0.7778 -0.0913
 4750TIP3    H135813   3.871   4.170   1.876  0.6947 -1.4533  2.1332
 4750TIP3    H235814   3.738   4.098   1.881 -0.4965  0.2576 -1.4328
 4751TIP3   OH235815   5.190   6.056   1.748  0.1289  0.3900  0.7629
 4751TIP3    H135816   5.115   6.096   1.704 -0.6539 -0.3253  1.3892
 4751TIP3    H235817   5.175   5.962   1.739  1.2129  0.2307  0.4922
 4752TIP3   OH235818   4.867   2.469   7.343 -0.3309  0.2144 -0.3325
 4752TIP3    H135819   4.822   2.406   7.288 -1.3430  0.5632  0.0712
 4752TIP3    H235820   4.875   2.548   7.289 -1.1778  0.5026 -0.0539
 4753TIP3   OH235821   0.868   5.053   2.309  0.2604 -0.1398 -0.6589
 4753TIP3    H135822   0.800   5.086   2.250 -1.0284 -2.8090 -0.8355
 4753TIP3    H235823   0.943   5.036   2.252 -0.4648 -1.2589 -1.3299
 4754TIP3   OH235824   2.955   1.998   0.109  0.5292 -0.3294 -0.1800
 4754TIP3    H135825   2.935   2.091   0.095 -0.2930 -0.6056 -0.9139
 4754TIP3    H235826   3.050   1.992   0.096  0.8594  0.6654  1.4385
 4755TIP3   OH235827   2.011   4.756   0.883  0.6546  0.0276  0.3101
 4755TIP3    H135828   2.096   4.717   0.903  0.5131 -0.8178 -0.6481
 4755TIP3    H235829   1.948   4.702   0.931  0.5040 -0.6705 -0.6216
 4756TIP3   OH235830   4.155   5.988   2.582  0.4478 -0.2999 -0.3118
 4756TIP3    H135831   4.201   6.067   2.554  1.3380 -0.4007  0.7858
 4756TIP3    H235832   4.225   5.922   2.589 -0.2578 -1.1660 -1.0811
 4757TIP3   OH235833   5.953   0.982   0.692 -0.1342 -0.1295  0.1901
 4757TIP3    H135834   5.978   0.933   0.613  2.1340  0.0599  0.7064
 4757TIP3    H235835   5.952   0.916   0.762 -0.1680  0.0314  0.3418
 4758TIP3   OH235836   6.421   0.261   8.248  0.0470 -0.0722  0.0294
 4758TIP3    H135837   6.516   0.249   8.239 -0.0379 -0.3514 -0.4926
 4758TIP3    H235838   6.410   0.355   8.265  0.4358 -0.0859  0.3758
 4759TIP3   OH235839   0.999   0.127   8.028 -0.3485 -0.0804 -0.0791
 4759TIP3    H135840   1.071   0.129   7.966  0.8297  0.9563  1.2456
 4759TIP3    H235841   1.004   0.041   8.069 -1.2127 -0.8195 -1.4380
 4760TIP3   OH235842   1.489   2.565   7.086 -0.1047 -0.0007  0.1017
 4760TIP3    H135843   1.518   2.504   7.019  0.1883  0.7023 -0.4280
 4760TIP3    H235844   1.420   2.617   7.044  0.4843  0.8340  0.1381
 4761TIP3   OH235845   2.300   1.289   8.768  0.2775 -0.2620 -0.2450
 4761TIP3    H135846   2.300   1.384   8.759 -1.5969  0.0793  2.2547
 4761TIP3    H235847   2.385   1.269   8.806  0.8449  0.3412 -1.1529
 4762TIP3   OH235848   2.169   2.098   8.335 -0.4455 -0.2441  0.4002
 4762TIP3    H135849   2.217   2.091   8.253 -2.8126 -2.3865 -0.9345
 4762TIP3    H235850   2.114   2.176   8.323  2.3680  2.2040  1.9248
 4763TIP3   OH235851   1.036   3.127   1.549 -0.1897 -0.1833  0.0846
 4763TIP3    H135852   1.077   3.205   1.512  1.5089 -1.5057 -0.9900
 4763TIP3    H235853   1.021   3.070   1.474 -1.8617 -0.7323  0.7856
 4764TIP3   OH235854   4.564   2.452   6.735 -0.2473 -0.6301 -0.1330
 4764TIP3    H135855   4.640   2.508   6.719 -0.3678 -0.4154  0.0531
 4764TIP3    H235856   4.505   2.505   6.787  0.3507 -1.4935  1.4912
 4765TIP3   OH235857   5.051   4.154   0.194 -0.3663 -0.2050 -0.1678
 4765TIP3    H135858   5.120   4.191   0.248 -0.4676  0.2400 -0.3366
 4765TIP3    H235859   5.066   4.190   0.107 -0.0815 -1.0779 -0.4961
 4766TIP3   OH235860   2.970   5.671   8.475  0.0488 -0.4212 -0.1581
 4766TIP3    H135861   2.928   5.680   8.389  1.8909  0.9096 -0.9790
 4766TIP3    H235862   2.967   5.759   8.513  0.5266 -0.6835  0.5084
 4767TIP3   OH235863   0.085   1.349   7.397 -0.2300 -0.3046  0.0108
 4767TIP3    H135864   0.081   1.333   7.491 -1.5353 -3.9540 -0.4973
 4767TIP3    H235865   0.023   1.420   7.381 -0.5271 -0.1202  1.8116
 4768TIP3   OH235866   5.573   4.322   8.175 -0.6443 -0.0194  0.4209
 4768TIP3    H135867   5.615   4.394   8.224 -2.6845  1.3391  0.2772
 4768TIP3    H235868   5.565   4.252   8.240 -0.6334  0.6941  1.2228
 4769TIP3   OH235869   0.400   0.966   0.049 -0.1195  0.5362  0.4501
 4769TIP3    H135870   0.334   0.960   0.117  0.3240  0.4711  0.8830
 4769TIP3    H235871   0.351   0.965  -0.034 -0.5264 -1.6646  0.6781
 4770TIP3   OH235872   0.088   1.070   2.533 -0.7320  0.0118  1.1264
 4770TIP3    H135873   0.120   1.058   2.444 -1.8123 -0.8087  0.8295
 4770TIP3    H235874   0.132   1.003   2.584 -1.2332 -0.4943  0.9052
 4771TIP3   OH235875   1.136   1.291   2.098 -0.6071  0.0212  0.0796
 4771TIP3    H135876   1.094   1.334   2.172 -1.3692 -0.1635 -0.2309
 4771TIP3    H235877   1.227   1.278   2.126 -0.9142 -0.1777  1.0396
 4772TIP3   OH235878   0.873   0.687   0.655 -0.0881  0.3625  0.3369
 4772TIP3    H135879   0.874   0.599   0.691 -0.1132 -0.2569 -1.0982
 4772TIP3    H235880   0.954   0.694   0.605  0.5256  1.6160  1.4418
 4773TIP3   OH235881   0.450   6.609   6.655  0.2595  0.3265 -0.4519
 4773TIP3    H135882   0.492   6.636   6.574  1.2012 -0.6078 -0.2909
 4773TIP3    H235883   0.464   6.514   6.660 -2.7522 -0.2611 -0.8957
 4774TIP3   OH235884   1.636   3.665   0.352 -0.5246 -0.0715 -0.4036
 4774TIP3    H135885   1.612   3.574   0.366  0.3953 -0.2089  0.4172
 4774TIP3    H235886   1.705   3.682   0.417 -0.0216  0.9308 -1.1704
 4775TIP3   OH235887   1.562   4.174   8.349 -0.5746  0.5323  0.5176
 4775TIP3    H135888   1.640   4.148   8.300  0.3833 -0.5512  2.4584
 4775TIP3    H235889   1.565   4.270   8.351 -0.8620  0.6486 -1.7367
 4776TIP3   OH235890   5.960   6.702   6.567 -0.6806  0.1260 -0.1362
 4776TIP3    H135891   5.924   6.757   6.497 -0.3123  0.4113 -0.1041
 4776TIP3    H235892   5.884   6.681   6.621 -0.7416  1.0970  0.1855
 4777TIP3   OH235893   3.791   4.926   0.917  0.4006  0.1240 -0.4952
 4777TIP3    H135894   3.854   4.895   0.981 -2.0627 -0.4484  1.8223
 4777TIP3    H235895   3.734   4.851   0.900 -0.7982  1.0967 -1.0171
 4778TIP3   OH235896   3.601   3.289   1.626 -0.1484  0.5615  0.6217
 4778TIP3    H135897   3.610   3.308   1.533 -0.3796 -0.6673  0.3370
 4778TIP3    H235898   3.629   3.370   1.670  0.7321  0.8842 -0.4917
 4779TIP3   OH235899   3.115   4.606   1.012 -0.7168 -0.1002 -0.1475
 4779TIP3    H135900   3.209   4.617   0.994 -0.5089  0.4051  1.1115
 4779TIP3    H235901   3.085   4.543   0.947 -0.2396  2.1789 -2.7881
 4780TIP3   OH235902   1.383   3.011   6.771 -0.2803 -0.0302 -0.5785
 4780TIP3    H135903   1.350   3.059   6.846  1.6140  2.4877 -1.2192
 4780TIP3    H235904   1.456   2.960   6.805 -0.2097  0.1321 -0.4883
 4781TIP3   OH235905   1.709   6.476   7.567 -0.3034  0.0762  0.6142
 4781TIP3    H135906   1.728   6.552   7.512 -0.0008 -0.1452  0.4123
 4781TIP3    H235907   1.772   6.410   7.540  2.0081  0.9584  3.3872
 4782TIP3   OH235908   0.933   5.905   0.408 -0.0475  0.0241  0.3019
 4782TIP3    H135909   0.920   5.999   0.425 -0.6511  0.1746 -0.9078
 4782TIP3    H235910   0.987   5.903   0.329 -2.2049 -0.6157 -1.2320
 4783TIP3   OH235911   3.009   6.656   6.753 -0.2613 -0.5556 -0.7664
 4783TIP3    H135912   2.993   6.562   6.758  0.6563 -0.7101 -0.7154
 4783TIP3    H235913   2.924   6.693   6.728 -0.9789 -1.2620  0.5375
 4784TIP3   OH235914   4.683   5.039   7.962  0.0551 -0.7357 -0.6231
 4784TIP3    H135915   4.673   4.950   7.997  2.9612 -0.7773  0.4386
 4784TIP3    H235916   4.733   5.027   7.881 -0.5434 -0.1226 -1.0944
 4785TIP3   OH235917   6.183   5.645   7.743 -0.2118  0.4465  0.1622
 4785TIP3    H135918   6.150   5.589   7.674  0.2315  0.7625 -0.3133
 4785TIP3    H235919   6.109   5.700   7.768 -0.1794  0.8177 -0.5534
 4786TIP3   OH235920   2.245   1.416   1.430  0.4793 -0.2059 -0.4003
 4786TIP3    H135921   2.287   1.479   1.371 -1.0203  0.5980 -0.6490
 4786TIP3    H235922   2.318   1.370   1.471  1.6591  1.8681 -0.0187
 4787TIP3   OH235923   3.646   1.781   7.840  0.2283 -0.4574 -0.2281
 4787TIP3    H135924   3.667   1.688   7.841  2.3261 -0.0674 -1.5500
 4787TIP3    H235925   3.649   1.806   7.747 -2.0777  0.6067 -0.1004
 4788TIP3   OH235926   6.177   0.039   7.501  0.3649  0.6452 -0.0509
 4788TIP3    H135927   6.106   0.048   7.438  1.5975 -1.3158 -1.8754
 4788TIP3    H235928   6.200   0.129   7.524 -2.1242  1.3420 -0.0165
 4789TIP3   OH235929   6.221   5.360   7.347 -0.8220  0.4648 -0.0484
 4789TIP3    H135930   6.227   5.432   7.285  1.7144 -1.7971 -2.7624
 4789TIP3    H235931   6.277   5.385   7.420  1.2743  0.7428 -1.6564
 4790TIP3   OH235932   4.251   2.346   7.250 -0.0464  0.0043  0.3048
 4790TIP3    H135933   4.325   2.285   7.247 -0.3759 -0.3628 -1.9546
 4790TIP3    H235934   4.177   2.291   7.275 -0.2570 -0.4763 -1.2810
 4791TIP3   OH235935   4.342   4.396   1.313 -0.0722 -0.3452 -0.0020
 4791TIP3    H135936   4.394   4.442   1.378  0.2065 -0.0162 -0.4463
 4791TIP3    H235937   4.251   4.419   1.333  0.0801  0.6211 -0.3775
 4792TIP3   OH235938   4.177   1.556   0.642 -0.7136 -0.0926  0.0334
 4792TIP3    H135939   4.243   1.500   0.683 -0.0003  0.8352  0.1850
 4792TIP3    H235940   4.196   1.643   0.675 -1.9990  0.2063  0.0367
 4793TIP3   OH235941   3.927   1.344   0.579 -0.7043  0.0195  0.4986
 4793TIP3    H135942   3.959   1.292   0.652  1.1437 -2.3946 -1.8164
 4793TIP3    H235943   3.911   1.280   0.509 -0.9399  2.3035 -1.6979
 4794TIP3   OH235944   0.520   0.574   7.911  0.4469 -0.1958 -0.3689
 4794TIP3    H135945   0.578   0.528   7.971  0.9219  0.0552 -0.6346
 4794TIP3    H235946   0.514   0.663   7.946 -1.2056 -0.6712  0.6724
 4795TIP3   OH235947   3.006   1.845   0.538  0.8127  0.0268  0.3100
 4795TIP3    H135948   3.077   1.875   0.595  0.7275 -0.0103  0.4359
 4795TIP3    H235949   3.049   1.788   0.475  0.7221 -0.9787  1.1284
 4796TIP3   OH235950   6.799   2.232   8.777  0.2357 -0.5382  0.5122
 4796TIP3    H135951   6.881   2.280   8.786 -0.9788  1.4546  1.6346
 4796TIP3    H235952   6.822   2.141   8.796  2.0961  0.0311  1.1577
 4797TIP3   OH235953   5.228   0.550   0.232  0.7777  0.5661 -0.2916
 4797TIP3    H135954   5.255   0.489   0.300  1.6523  1.0939 -0.1554
 4797TIP3    H235955   5.210   0.495   0.156  0.8636  0.0771  0.0384
 4798TIP3   OH235956   6.675   3.041   8.114 -0.1491  0.1456 -0.1511
 4798TIP3    H135957   6.629   3.048   8.030  2.4987 -2.1907 -1.9841
 4798TIP3    H235958   6.704   3.131   8.132 -2.4127  1.0471 -0.6493
 4799TIP3   OH235959   0.872   6.061   1.389  0.0288  0.1938 -0.4363
 4799TIP3    H135960   0.861   5.973   1.426  0.0172  0.1665 -0.5039
 4799TIP3    H235961   0.861   6.048   1.295 -1.3210  0.4730 -0.3442
 4800TIP3   OH235962   5.507   1.107   0.665 -0.1741  0.0136 -0.3229
 4800TIP3    H135963   5.531   1.194   0.634  0.3528 -0.6349 -1.8266
 4800TIP3    H235964   5.546   1.100   0.752  2.6817  0.0756 -1.5121
 4801TIP3   OH235965   0.553   6.418   7.609  0.0929 -0.0562  0.2235
 4801TIP3    H135966   0.523   6.356   7.674  2.0060 -1.8251 -0.4585
 4801TIP3    H235967   0.539   6.374   7.525 -0.0272  1.1226 -0.3993
 4802TIP3   OH235968   2.126   5.200   8.462  0.2033 -0.5014  0.4479
 4802TIP3    H135969   2.159   5.249   8.538 -1.3557  0.8561  0.3152
 4802TIP3    H235970   2.164   5.245   8.387  1.0438 -1.2964  0.3908
 4803TIP3   OH235971   2.889   5.014   1.744 -0.6148 -0.1368 -0.6041
 4803TIP3    H135972   2.905   5.005   1.650  1.0099  0.1777 -0.3825
 4803TIP3    H235973   2.861   4.927   1.772 -0.8164 -0.3105 -1.3292
 4804TIP3   OH235974   1.280   0.199   1.655  0.1486 -0.3271 -0.0644
 4804TIP3    H135975   1.274   0.200   1.750  2.8441  0.1210  0.1591
 4804TIP3    H235976   1.242   0.115   1.629  0.9745 -1.2290  1.5428
 4805TIP3   OH235977   6.390   4.317   1.586 -0.1985  0.0833 -0.3617
 4805TIP3    H135978   6.468   4.362   1.619  2.1142 -2.3803 -2.0175
 4805TIP3    H235979   6.390   4.335   1.492 -1.0835 -0.7044 -0.5317
 4806TIP3   OH235980   0.375   4.160   8.171 -0.0958  0.4384  0.3644
 4806TIP3    H135981   0.283   4.181   8.154 -0.6638  0.4619  3.0033
 4806TIP3    H235982   0.384   4.068   8.144 -0.9501  0.3633  0.2989
 4807TIP3   OH235983   3.722   6.772   0.997  0.4803 -0.2964  0.8167
 4807TIP3    H135984   3.741   6.692   1.045  1.7517 -1.3857 -1.3283
 4807TIP3    H235985   3.751   6.754   0.908 -1.1577  1.8339 -0.2421
 4808TIP3   OH235986   1.046   1.752   7.651  0.1492 -0.0484 -0.6600
 4808TIP3    H135987   0.977   1.810   7.620  1.1142  0.7654 -1.3914
 4808TIP3    H235988   1.060   1.690   7.579 -2.3184 -2.6640  0.9059
 4809TIP3   OH235989   3.195   4.238   1.860 -0.0372 -0.4207  0.2243
 4809TIP3    H135990   3.239   4.202   1.937 -1.8781  0.2797  1.6746
 4809TIP3    H235991   3.117   4.281   1.895 -2.3303 -2.2597 -2.2729
 4810TIP3   OH235992   1.375   3.373   7.177 -0.3853  0.2400 -0.6631
 4810TIP3    H135993   1.314   3.435   7.137 -0.4040  0.5955 -0.1024
 4810TIP3    H235994   1.459   3.420   7.179 -0.4405  0.3273 -0.0734
 4811TIP3   OH235995   2.972   0.143   7.264 -0.2540  0.0274 -0.3730
 4811TIP3    H135996   2.932   0.212   7.317 -0.1836  0.0349 -0.3293
 4811TIP3    H235997   2.971   0.177   7.175  0.0345  0.2010 -0.3103
 4812TIP3   OH235998   1.854   0.548   6.678 -0.3274  0.5843  0.3389
 4812TIP3    H135999   1.855   0.612   6.608 -0.7133  0.5868  0.3305
 4812TIP3    H236000   1.816   0.470   6.638 -1.1561  0.7863  0.7049
 4813TIP3   OH236001   1.722   6.064   2.428  0.2081 -0.1944  0.1490
 4813TIP3    H136002   1.812   6.096   2.436  0.1801  0.0335 -0.3980
 4813TIP3    H236003   1.678   6.098   2.506  0.4429  0.2227  0.1049
 4814TIP3   OH236004   6.159   6.120   2.141  0.2274 -0.0019 -0.2957
 4814TIP3    H136005   6.069   6.123   2.110  0.3807  1.3552 -0.6422
 4814TIP3    H236006   6.171   6.202   2.190  1.1360 -0.3713  0.1310
 4815TIP3   OH236007   6.629   0.427   0.619 -0.2098 -0.5327  0.1425
 4815TIP3    H136008   6.569   0.482   0.670 -0.0330 -0.5024  0.3204
 4815TIP3    H236009   6.710   0.478   0.615  0.1713 -1.0659  0.8692
 4816TIP3   OH236010   0.202   5.866   2.017 -0.2642 -0.2234  0.5955
 4816TIP3    H136011   0.185   5.775   2.042 -0.9893 -0.3550 -0.3122
 4816TIP3    H236012   0.139   5.883   1.947  0.2775  0.7923  0.3431
 4817TIP3   OH236013   1.128   5.562   8.649 -0.0062  0.2440 -0.1495
 4817TIP3    H136014   1.113   5.606   8.732 -1.3921 -0.0063 -0.2470
 4817TIP3    H236015   1.081   5.479   8.656  0.2660 -0.0024 -1.0072
 4818TIP3   OH236016   0.546   2.087   7.309 -0.0242 -0.2550 -0.0349
 4818TIP3    H136017   0.456   2.116   7.293 -0.5990 -2.5143 -1.4250
 4818TIP3    H236018   0.560   2.101   7.403 -2.0553 -0.4394  0.3376
 4819TIP3   OH236019   2.428   5.857   2.276  0.2984 -0.8001 -0.3107
 4819TIP3    H136020   2.458   5.767   2.266 -3.5226 -2.2461 -0.4583
 4819TIP3    H236021   2.384   5.858   2.361 -0.1166  0.8244 -0.5088
 4820TIP3   OH236022   6.513   6.568   0.230  0.1330 -0.1889 -0.3825
 4820TIP3    H136023   6.423   6.558   0.198 -1.0848  0.4414  2.5566
 4820TIP3    H236024   6.539   6.480   0.255 -0.6578 -0.0611  1.0255
 4821TIP3   OH236025   5.926   5.197   8.251  0.1454  0.0764  0.1390
 4821TIP3    H136026   6.004   5.233   8.294  1.0618 -0.8874 -0.6709
 4821TIP3    H236027   5.901   5.122   8.306  0.6331 -0.4626 -0.3692
 4822TIP3   OH236028   3.105   4.038   7.906  0.3021  0.0274 -0.1232
 4822TIP3    H136029   3.095   3.947   7.876  0.3495 -0.3145  0.8671
 4822TIP3    H236030   3.185   4.037   7.958  0.3622  0.6641 -0.1994
 4823TIP3   OH236031   4.022   4.993   1.456  0.0174  0.1711  0.7330
 4823TIP3    H136032   3.956   5.010   1.523  0.3039  0.4950  0.9362
 4823TIP3    H236033   4.097   4.958   1.504  0.0000 -0.1863  0.5049
 4824TIP3   OH236034   6.791   2.084   6.895  0.2175 -0.2226 -0.2981
 4824TIP3    H136035   6.785   2.171   6.937  0.0373 -0.0218 -0.7413
 4824TIP3    H236036   6.702   2.065   6.865 -0.0552 -1.1800  1.0076
 4825TIP3   OH236037   2.886   2.257   7.327 -0.2184 -0.1957  0.1993
 4825TIP3    H136038   2.909   2.350   7.329  0.9074 -0.4546 -0.3293
 4825TIP3    H236039   2.877   2.232   7.419  0.4222  0.2169  0.3783
 4826TIP3   OH236040   6.231   1.733   0.855  0.7490  0.7824  0.6806
 4826TIP3    H136041   6.197   1.652   0.818  0.3207  1.9313 -1.6005
 4826TIP3    H236042   6.321   1.737   0.825  0.5662  1.4746  0.2225
 4827TIP3   OH236043   1.962   1.052   6.358  0.3901  0.4811 -0.4996
 4827TIP3    H136044   1.973   1.005   6.441 -0.5828  1.1767  0.0625
 4827TIP3    H236045   2.023   1.011   6.298  2.5332  1.1678  1.0645
 4828TIP3   OH236046   1.083   5.792   2.563  1.0528 -0.0603 -0.1800
 4828TIP3    H136047   0.999   5.825   2.532  1.2982 -0.1198 -0.9197
 4828TIP3    H236048   1.062   5.707   2.603  1.0056 -0.9594 -2.0327
 4829TIP3   OH236049   3.246   2.007   1.315  0.0335 -0.0351 -0.4721
 4829TIP3    H136050   3.209   1.949   1.381  1.9982  1.6802  2.3078
 4829TIP3    H236051   3.311   1.952   1.270  1.7561 -0.1601  2.0005
 4830TIP3   OH236052   5.077   0.996   0.325  0.5292 -0.5766 -0.5809
 4830TIP3    H136053   4.992   1.010   0.282 -0.6423 -1.2512  1.4096
 4830TIP3    H236054   5.073   0.907   0.358  2.0088 -0.5829 -0.3613
 4831TIP3   OH236055   0.931   1.773   8.133 -0.1813  0.3857 -0.6228
 4831TIP3    H136056   0.863   1.806   8.193 -0.3399  2.3791 -1.8030
 4831TIP3    H236057   0.944   1.682   8.160 -1.9219  0.5132  0.8990
 4832TIP3   OH236058   6.497   4.689   0.465 -0.2662 -0.5512  0.5656
 4832TIP3    H136059   6.429   4.637   0.508 -0.8467  0.7369  1.2557
 4832TIP3    H236060   6.533   4.744   0.535  0.6409 -0.3399 -0.0541
 4833TIP3   OH236061   1.830   0.649   1.429 -0.0613 -0.0995 -0.0802
 4833TIP3    H136062   1.754   0.666   1.373  0.8069 -0.3592 -1.3783
 4833TIP3    H236063   1.897   0.709   1.396  0.6678 -0.7147  0.2626
 4834TIP3   OH236064   3.279   1.232   7.811  0.8802 -0.1292 -0.4923
 4834TIP3    H136065   3.208   1.216   7.750  0.6271  1.1738 -0.5683
 4834TIP3    H236066   3.357   1.198   7.767  0.3346 -1.4838 -0.4449
 4835TIP3   OH236067   1.737   3.604   0.837 -0.0123  0.5715  0.3347
 4835TIP3    H136068   1.812   3.650   0.873 -0.1785  0.2953  1.0481
 4835TIP3    H236069   1.758   3.511   0.846  0.5920  0.4529 -1.6610
 4836TIP3   OH236070   3.182   6.547   7.573  0.0065  0.2200  0.1511
 4836TIP3    H136071   3.130   6.619   7.539 -0.4072 -1.0909 -2.2392
 4836TIP3    H236072   3.138   6.468   7.541  1.4313 -1.0494  1.1580
 4837TIP3   OH236073   4.732   4.121   7.527 -0.3866  0.0624  0.1203
 4837TIP3    H136074   4.799   4.076   7.476  0.6938  1.9152 -0.1744
 4837TIP3    H236075   4.763   4.117   7.617 -0.5019 -0.1167  0.1539
 4838TIP3   OH236076   5.373   5.854   1.371  0.3901 -0.1041 -0.2077
 4838TIP3    H136077   5.280   5.858   1.393  0.7548  0.4527  1.3822
 4838TIP3    H236078   5.380   5.900   1.287 -0.8067 -0.4253 -0.4940
 4839TIP3   OH236079   0.006   6.195   8.671 -0.6961 -0.0594 -0.4216
 4839TIP3    H136080   0.030   6.105   8.689 -1.6970 -0.5275 -1.3013
 4839TIP3    H236081   0.082   6.232   8.626  0.0839 -0.1643  0.7841
 4840TIP3   OH236082   1.845   2.795   1.030 -0.2141 -0.0117  0.2449
 4840TIP3    H136083   1.844   2.890   1.034  1.8815  0.0196  1.3020
 4840TIP3    H236084   1.810   2.774   0.943 -0.5609  1.7100 -0.0606
 4841TIP3   OH236085   6.536   6.127   2.190 -0.2051  0.4646 -0.0239
 4841TIP3    H136086   6.614   6.143   2.243 -0.4321  0.7690  0.2197
 4841TIP3    H236087   6.468   6.180   2.231 -0.5160  0.2789 -0.2965
 4842TIP3   OH236088   4.858   1.980   6.799 -0.0658 -0.2495 -0.0836
 4842TIP3    H136089   4.886   1.947   6.884 -0.3498 -0.5900 -0.1186
 4842TIP3    H236090   4.820   1.904   6.755 -0.1767 -0.0126 -0.4041
 4843TIP3   OH236091   6.008   6.440   7.159 -0.2885  0.3183  0.2858
 4843TIP3    H136092   6.076   6.387   7.119 -1.0179 -1.6569  1.4917
 4843TIP3    H236093   5.954   6.471   7.085 -0.1111 -1.0359 -0.4347
 4844TIP3   OH236094   0.918   5.335   8.489 -0.2540 -0.2883  0.0996
 4844TIP3    H136095   1.001   5.291   8.470  0.0252  0.1755  0.2455
 4844TIP3    H236096   0.870   5.272   8.543  0.3270 -0.2438  0.6816
 4845TIP3   OH236097   3.667   5.081   0.433 -0.1951 -0.1617  0.6600
 4845TIP3    H136098   3.614   5.071   0.354  1.2640 -1.8588 -0.1810
 4845TIP3    H236099   3.622   5.148   0.484 -1.1272  1.0610 -1.6389
 4846TIP3   OH236100   4.857   2.565   0.627  0.0119  0.1437  0.5208
 4846TIP3    H136101   4.762   2.569   0.624  0.0620  1.0322 -0.7381
 4846TIP3    H236102   4.882   2.524   0.544  0.7906  2.3042 -0.3754
 4847TIP3   OH236103   5.483   1.646   0.607  1.0011  0.3603  0.2947
 4847TIP3    H136104   5.420   1.715   0.585  1.7466  0.8874 -0.2401
 4847TIP3    H236105   5.517   1.670   0.693  1.7491  1.0378 -0.1804
 4848TIP3   OH236106   3.972   2.710   7.967  0.1517 -0.0035  0.1564
 4848TIP3    H136107   4.052   2.744   8.008 -0.2420 -0.6629  1.5399
 4848TIP3    H236108   3.986   2.616   7.961 -0.8790 -0.2607  1.3111
 4849TIP3   OH236109   3.690   3.516   0.407  0.2070 -0.0249  0.4267
 4849TIP3    H136110   3.611   3.463   0.405  0.6229 -0.6847 -1.7994
 4849TIP3    H236111   3.754   3.466   0.355  1.5866  1.2126  0.8570
 4850TIP3   OH236112   5.622   6.433   7.120 -0.9227  0.0991  0.0361
 4850TIP3    H136113   5.687   6.420   7.051  0.0648  0.0941  0.9375
 4850TIP3    H236114   5.635   6.359   7.179 -1.6673  0.1707  0.2978
 4851TIP3   OH236115   0.590   5.367   1.374  0.1984  0.4499 -0.1871
 4851TIP3    H136116   0.610   5.392   1.284  1.2828  0.5517  0.0670
 4851TIP3    H236117   0.675   5.362   1.417 -0.3532  1.5616  1.1312
 4852TIP3   OH236118   1.819   3.574   7.691  0.1237  0.3682 -0.0928
 4852TIP3    H136119   1.841   3.618   7.609  3.2325 -0.0270  0.4151
 4852TIP3    H236120   1.785   3.644   7.747 -0.2479  1.0044 -1.0781
 4853TIP3   OH236121   6.267   6.421   7.043 -0.0614  0.1165  0.8884
 4853TIP3    H136122   6.262   6.422   6.948 -0.2243  0.5963  0.9010
 4853TIP3    H236123   6.293   6.331   7.065  1.2428  0.3412  0.3402
 4854TIP3   OH236124   2.550   2.271   6.883  0.0026  0.4458 -0.0076
 4854TIP3    H136125   2.562   2.205   6.951 -1.8834 -2.0962 -1.9187
 4854TIP3    H236126   2.609   2.245   6.812 -0.3965  1.0792 -0.5943
 4855TIP3   OH236127   2.359   2.533   1.850 -0.5230 -0.3278 -0.4139
 4855TIP3    H136128   2.267   2.521   1.829 -0.2472 -0.0936 -1.9030
 4855TIP3    H236129   2.384   2.454   1.898 -0.9590 -1.5025 -2.0181
 4856TIP3   OH236130   1.066   1.343   1.004  0.4528 -0.6072 -0.2415
 4856TIP3    H136131   1.045   1.313   0.916  2.8183  0.2083 -1.1582
 4856TIP3    H236132   1.162   1.344   1.007  0.4367  0.8589  1.8173
 4857TIP3   OH236133   2.861   6.096   6.656  0.2167 -0.3440 -0.3397
 4857TIP3    H136134   2.927   6.027   6.654  1.6304  0.9290 -1.8788
 4857TIP3    H236135   2.812   6.084   6.574 -0.0327 -0.0002 -0.2422
 4858TIP3   OH236136   4.737   0.473   8.446  0.4031  0.1336 -0.2122
 4858TIP3    H136137   4.686   0.493   8.525 -1.2379 -1.2643 -0.8516
 4858TIP3    H236138   4.752   0.558   8.405  1.0402  0.8639  1.4311
 4859TIP3   OH236139   1.592   0.716   0.286  0.0331  0.6285  0.1244
 4859TIP3    H136140   1.646   0.783   0.244  1.0154 -0.0058  0.3310
 4859TIP3    H236141   1.591   0.741   0.379 -1.2577  1.4453 -0.0954
 4860TIP3   OH236142   4.628   0.846   6.285 -0.3986 -0.0669 -0.2492
 4860TIP3    H136143   4.534   0.841   6.306 -0.5677  2.3791 -0.0970
 4860TIP3    H236144   4.641   0.937   6.258  2.0675 -0.1731  0.3706
 4861TIP3   OH236145   0.204   1.735   0.484 -0.5669 -0.6475  0.2918
 4861TIP3    H136146   0.111   1.754   0.477 -0.5857 -1.0374 -0.6761
 4861TIP3    H236147   0.245   1.820   0.498 -1.0843 -0.5027  0.9615
 4862TIP3   OH236148   2.073   3.886   8.075  0.2629  0.5186 -0.1640
 4862TIP3    H136149   2.167   3.883   8.056 -0.0461  0.9149 -1.8798
 4862TIP3    H236150   2.056   3.806   8.125  1.0158 -1.0834 -2.3073
 4863TIP3   OH236151   6.224   1.183   0.252 -0.1420  0.0755  0.1274
 4863TIP3    H136152   6.288   1.144   0.312 -0.6617 -1.3120 -0.1981
 4863TIP3    H236153   6.154   1.215   0.310  0.8702  1.7526  0.5009
 4864TIP3   OH236154   6.063   1.875   1.871 -0.1641 -0.0460 -0.3104
 4864TIP3    H136155   6.079   1.863   1.964 -0.0011  1.0019 -0.1994
 4864TIP3    H236156   6.015   1.796   1.845 -0.3669 -0.2645  0.6891
 4865TIP3   OH236157   3.572   1.310   2.038 -0.1629  0.2929  0.7860
 4865TIP3    H136158   3.583   1.228   2.087 -1.7387  0.4447  1.4287
 4865TIP3    H236159   3.631   1.372   2.081  1.1889 -0.5152  0.1773
 4866TIP3   OH236160   0.615   3.931   0.870 -0.4952  0.1481 -0.2479
 4866TIP3    H136161   0.699   3.975   0.878 -0.6664  0.8687 -2.0028
 4866TIP3    H236162   0.633   3.840   0.895  1.1129 -0.0072 -1.7755
 4867TIP3   OH236163   3.463   3.041   8.677 -0.0949  0.4450  0.0564
 4867TIP3    H136164   3.398   3.106   8.706 -0.4583 -0.2054  0.7535
 4867TIP3    H236165   3.416   2.957   8.683  0.2799  0.1426 -1.0868
 4868TIP3   OH236166   2.679   2.879   7.102 -0.6438  0.0827  0.1523
 4868TIP3    H136167   2.723   2.912   7.181 -0.7476  0.2159  0.1544
 4868TIP3    H236168   2.696   2.945   7.036 -0.3861 -0.1261  0.0071
 4869TIP3   OH236169   2.827   5.066   8.734 -0.1215 -0.6676  0.4020
 4869TIP3    H136170   2.882   5.105   8.802 -1.0563 -1.1168  1.4459
 4869TIP3    H236171   2.786   5.141   8.691  0.0648 -0.3962  0.6901
 4870TIP3   OH236172   3.267   6.010   7.528  0.2590  0.2767 -0.0433
 4870TIP3    H136173   3.204   5.980   7.463  0.6039  1.3931 -0.9290
 4870TIP3    H236174   3.216   6.019   7.609 -0.3612 -0.3095 -0.3650
 4871TIP3   OH236175   6.362   0.175   0.766 -0.3551 -0.1320  0.4046
 4871TIP3    H136176   6.298   0.210   0.829 -1.0640  1.0876 -0.9436
 4871TIP3    H236177   6.325   0.195   0.680  0.3757 -2.1316 -0.4505
 4872TIP3   OH236178   0.874   4.584   2.185  0.5939 -0.0820  0.4752
 4872TIP3    H136179   0.883   4.627   2.271 -0.5904 -0.0343  0.5921
 4872TIP3    H236180   0.957   4.602   2.141  0.0323  2.7381  0.3502
 4873TIP3   OH236181   3.486   3.828   1.082 -0.1484 -0.1642 -0.1948
 4873TIP3    H136182   3.538   3.822   1.002  1.6283 -1.6130  0.9535
 4873TIP3    H236183   3.415   3.765   1.070  1.0129 -1.5520 -0.0732
 4874TIP3   OH236184   6.650   2.348   6.868 -0.6502  0.2209 -0.0983
 4874TIP3    H136185   6.630   2.320   6.778  0.9382 -0.7302 -0.1790
 4874TIP3    H236186   6.647   2.444   6.863  1.5504  0.2894 -1.7398
 4875TIP3   OH236187   6.817   3.279   0.906 -0.4519 -0.6627 -0.3200
 4875TIP3    H136188   6.819   3.185   0.921  0.3366 -0.6452 -0.2848
 4875TIP3    H236189   6.891   3.314   0.955 -0.7564 -0.0168 -0.2987
 4876TIP3   OH236190   2.892   2.629   1.236  0.4267  0.1404 -0.3852
 4876TIP3    H136191   2.942   2.547   1.235  1.0729  0.5140  0.3219
 4876TIP3    H236192   2.912   2.668   1.321 -1.6078 -0.0010  0.1891
 4877TIP3   OH236193   4.770   2.770   8.342  0.1962 -0.3404 -0.2573
 4877TIP3    H136194   4.791   2.831   8.271 -1.0456  0.0498 -0.3078
 4877TIP3    H236195   4.780   2.822   8.422 -2.3187  0.4443 -0.3620
 4878TIP3   OH236196   5.855   5.389   8.610  0.3887  0.2416 -0.1438
 4878TIP3    H136197   5.803   5.469   8.618  0.2803  0.0062  2.0258
 4878TIP3    H236198   5.941   5.419   8.579  0.0169  1.0343 -0.4495
 4879TIP3   OH236199   1.623   3.356   8.454 -0.2080 -0.2480 -0.4198
 4879TIP3    H136200   1.703   3.366   8.505  0.3015 -0.1100 -1.2201
 4879TIP3    H236201   1.555   3.395   8.508  0.9210  3.6102 -1.4783
 4880TIP3   OH236202   5.144   3.332   7.473  0.2832  0.4404  0.0238
 4880TIP3    H136203   5.064   3.299   7.514  1.2998 -0.3009  1.4715
 4880TIP3    H236204   5.213   3.313   7.536  1.7287  0.3522 -1.5278
 4881TIP3   OH236205   2.639   1.611   0.196  0.7139  0.2197 -0.7575
 4881TIP3    H136206   2.643   1.608   0.291 -1.1817 -0.7454 -0.6403
 4881TIP3    H236207   2.707   1.550   0.167 -0.5431 -1.7072  0.1263
 4882TIP3   OH236208   3.068   3.908   8.666 -0.1654  0.1345 -0.3749
 4882TIP3    H136209   2.989   3.959   8.648  0.4337  0.7493 -1.4015
 4882TIP3    H236210   3.054   3.872   8.753 -2.6861 -1.8852 -1.4701
 4883TIP3   OH236211   5.194   3.996   0.828 -0.4682 -0.5284  0.1811
 4883TIP3    H136212   5.191   3.921   0.768  1.2364 -0.1405 -0.4641
 4883TIP3    H236213   5.176   4.071   0.772 -0.7207 -0.3324  0.5282
 4884TIP3   OH236214   5.179   2.564   2.039 -0.0429  0.3068 -0.4353
 4884TIP3    H136215   5.240   2.626   2.079 -0.1128  0.3951 -0.4634
 4884TIP3    H236216   5.192   2.482   2.087 -0.7475  0.6448  0.3576
 4885TIP3   OH236217   4.170   6.697   8.010  0.3044  0.2951 -0.4542
 4885TIP3    H136218   4.087   6.649   7.998  0.6563  0.4150 -4.6512
 4885TIP3    H236219   4.151   6.760   8.080 -3.2910  0.5752 -1.4847
 4886TIP3   OH236220   1.288   4.242   6.551 -0.4110  0.2168  0.5241
 4886TIP3    H136221   1.358   4.278   6.496  0.6302 -0.9208  1.0567
 4886TIP3    H236222   1.273   4.310   6.617  0.5668  0.2701  0.7079
 4887TIP3   OH236223   5.836   4.184   1.338  0.7363 -0.3123 -0.3956
 4887TIP3    H136224   5.907   4.197   1.275  0.7854 -0.8410 -0.4560
 4887TIP3    H236225   5.758   4.217   1.293  0.7809 -0.6329 -0.7164
 4888TIP3   OH236226   3.021   1.025   8.577  0.1256  0.0791  0.4895
 4888TIP3    H136227   3.017   0.968   8.500 -0.2962 -0.8132  1.1571
 4888TIP3    H236228   2.976   1.105   8.550  1.3338  0.4022 -0.6890
 4889TIP3   OH236229   4.989   3.463   7.855  0.5003 -0.0694 -0.1606
 4889TIP3    H136230   5.042   3.465   7.934 -0.3045 -1.8480  0.4886
 4889TIP3    H236231   5.037   3.407   7.795  0.5309  0.3097 -0.4954
 4890TIP3   OH236232   5.420   3.888   7.754  0.3801  0.2617  0.0250
 4890TIP3    H136233   5.431   3.846   7.840  0.6689 -1.5237 -0.8286
 4890TIP3    H236234   5.329   3.915   7.752  0.9462  2.7150  1.8611
 4891TIP3   OH236235   1.185   6.087   7.700 -0.5591 -0.0400 -0.0769
 4891TIP3    H136236   1.143   6.168   7.669  0.5431  1.2333  1.5708
 4891TIP3    H236237   1.273   6.114   7.725 -0.6842 -1.3725  2.0607
 4892TIP3   OH236238   2.947   3.967   1.862 -0.3548  0.0143  0.4685
 4892TIP3    H136239   2.944   4.025   1.786  3.4713  0.2056  0.2506
 4892TIP3    H236240   2.974   4.024   1.934  0.4981 -0.9409  0.9306
 4893TIP3   OH236241   4.254   1.246   7.884  0.6324  0.3388  0.4730
 4893TIP3    H136242   4.329   1.269   7.830 -0.0132  0.5675 -0.3471
 4893TIP3    H236243   4.217   1.330   7.912 -0.8434  0.3494 -1.2985
 4894TIP3   OH236244   5.374   4.857   6.719 -0.1982  0.1748 -0.0796
 4894TIP3    H136245   5.317   4.908   6.661  2.3166  4.1542  0.5352
 4894TIP3    H236246   5.461   4.866   6.679  0.8982 -0.7650  1.9656
 4895TIP3   OH236247   1.578   6.369   7.223 -0.5953 -0.1607  0.3050
 4895TIP3    H136248   1.672   6.387   7.224 -0.6547  0.5164  3.0355
 4895TIP3    H236249   1.537   6.455   7.216 -1.0678 -0.4815 -1.3392
 4896TIP3   OH236250   1.749   6.754   2.598  0.0567 -0.1037 -0.4478
 4896TIP3    H136251   1.762   6.739   2.691 -1.8734 -2.5100 -0.4838
 4896TIP3    H236252   1.837   6.773   2.565  1.1720 -1.5202  1.4887
 4897TIP3   OH236253   0.827   5.323   1.479 -0.3798 -0.3433 -0.1042
 4897TIP3    H136254   0.911   5.316   1.434  0.2341 -1.7900  1.1955
 4897TIP3    H236255   0.844   5.377   1.556 -0.9608  0.4227 -0.4925
 4898TIP3   OH236256   0.752   6.409   1.826  0.0443  0.2224 -0.2232
 4898TIP3    H136257   0.824   6.351   1.850 -0.9008 -0.4626  1.0759
 4898TIP3    H236258   0.700   6.357   1.765 -0.4013 -0.0367  0.3675
 4899TIP3   OH236259   2.860   2.149   7.588  0.3038 -0.0882  0.2772
 4899TIP3    H136260   2.800   2.129   7.659  0.8795 -0.3014  0.7055
 4899TIP3    H236261   2.947   2.148   7.628  0.5798  0.4590 -0.2814
 4900TIP3   OH236262   0.441   6.571   8.647 -0.8335  0.1313  0.6353
 4900TIP3    H136263   0.484   6.654   8.669 -1.5866  0.4952  0.7654
 4900TIP3    H236264   0.394   6.589   8.566 -0.0254 -0.5198  0.0153
 4901TIP3   OH236265   1.331   2.079   1.803  0.3305 -0.1182 -0.1701
 4901TIP3    H136266   1.283   2.079   1.885  1.2859  0.2656  0.4012
 4901TIP3    H236267   1.413   2.124   1.823 -0.3709  2.1212 -1.8931
 4902TIP3   OH236268   5.798   6.594   1.546  0.0053 -0.3654  0.4207
 4902TIP3    H136269   5.842   6.676   1.568  0.6104 -0.4529 -0.4210
 4902TIP3    H236270   5.781   6.600   1.452 -3.7083  0.5731  1.0303
 4903TIP3   OH236271   3.567   6.027   1.783  0.1235  0.5009 -0.3062
 4903TIP3    H136272   3.536   6.033   1.693  0.8155  0.9567 -0.5224
 4903TIP3    H236273   3.505   5.968   1.826  0.6349 -0.9277 -1.4571
 4904TIP3   OH236274   0.543   6.165   7.732  0.2336  0.1467  0.1042
 4904TIP3    H136275   0.599   6.197   7.803  0.4174 -0.9422  0.4747
 4904TIP3    H236276   0.467   6.128   7.777  1.0795 -2.0251 -0.1026
 4905TIP3   OH236277   4.722   6.193   0.815 -0.4147 -0.0636 -0.4787
 4905TIP3    H136278   4.760   6.281   0.818  0.4211 -0.4233  0.1224
 4905TIP3    H236279   4.718   6.171   0.722  0.7652  0.0491 -0.5760
 4906TIP3   OH236280   2.068   2.621   6.735 -0.4908 -0.1434 -0.4185
 4906TIP3    H136281   1.983   2.663   6.744  0.3215  1.5249 -0.2594
 4906TIP3    H236282   2.062   2.542   6.790 -1.7635  0.1909 -0.0544
 4907TIP3   OH236283   5.842   6.498   7.604 -0.6012 -0.1560 -0.0978
 4907TIP3    H136284   5.867   6.418   7.557  0.0626  0.0479 -0.0972
 4907TIP3    H236285   5.756   6.520   7.569  0.0702  0.2440 -1.5594
 4908TIP3   OH236286   3.336   6.256   7.460  0.3014  0.1463 -0.4389
 4908TIP3    H136287   3.295   6.170   7.463 -1.2479  0.8315 -0.7052
 4908TIP3    H236288   3.384   6.257   7.377 -0.7078 -0.0376 -1.0468
 4909TIP3   OH236289   0.865   4.399   0.306 -0.2613  0.0327  0.9951
 4909TIP3    H136290   0.851   4.305   0.318 -1.2327 -0.0344 -0.3349
 4909TIP3    H236291   0.936   4.405   0.243 -1.7286  0.0881 -0.7323
 4910TIP3   OH236292   6.729   5.067   1.332  0.1997  0.6537 -0.1524
 4910TIP3    H136293   6.640   5.038   1.354  0.1563  1.4045  0.7462
 4910TIP3    H236294   6.783   4.988   1.343 -0.3829  0.1282 -0.9640
 4911TIP3   OH236295   0.881   6.704   8.099 -0.0480  0.1339  0.1941
 4911TIP3    H136296   0.790   6.726   8.080  0.0214  0.0593 -0.2438
 4911TIP3    H236297   0.903   6.753   8.178 -1.1300 -1.4971  1.5849
 4912TIP3   OH236298   6.055   6.544   0.820  0.5824  0.3306  0.0548
 4912TIP3    H136299   6.149   6.528   0.830  1.1312  2.2409 -1.2608
 4912TIP3    H236300   6.051   6.624   0.767 -1.7988 -0.3191 -0.8743
 4913TIP3   OH236301   6.411   1.403   0.438  0.1441  0.2942 -0.2741
 4913TIP3    H136302   6.430   1.344   0.366  0.2518 -0.2744  0.2158
 4913TIP3    H236303   6.492   1.452   0.451  0.1605  0.3179 -0.4571
 4914TIP3   OH236304   3.114   4.115   6.931 -0.0095 -0.1953  0.1564
 4914TIP3    H136305   3.133   4.141   6.841  1.5158 -1.1054  0.1764
 4914TIP3    H236306   3.113   4.197   6.981  0.9657  0.1527 -0.3825
 4915TIP3   OH236307   5.349   6.062   7.885  0.0708  0.7610  0.4486
 4915TIP3    H136308   5.383   5.972   7.888 -2.6809 -0.4131 -0.5989
 4915TIP3    H236309   5.322   6.074   7.794 -1.5199  1.8788  1.0403
 4916TIP3   OH236310   5.137   2.564   6.828 -0.0757 -0.2624 -0.0832
 4916TIP3    H136311   5.046   2.535   6.821  0.2488 -1.4663  0.3114
 4916TIP3    H236312   5.153   2.611   6.746 -1.5912  1.6620  0.6459
 4917TIP3   OH236313   1.760   0.151   0.410 -0.1949  0.3424  0.0392
 4917TIP3    H136314   1.732   0.061   0.396  1.3207  0.0913 -1.8049
 4917TIP3    H236315   1.753   0.192   0.324  0.0378  1.7285  0.6511
 4918TIP3   OH236316   5.226   0.822   0.820  0.1117 -0.0137  0.0307
 4918TIP3    H136317   5.274   0.875   0.884 -0.0088  0.2995 -0.1348
 4918TIP3    H236318   5.221   0.878   0.742  0.3551 -0.4356 -0.2879
 4919TIP3   OH236319   3.596   4.765   0.517 -0.3092 -0.4951 -0.1580
 4919TIP3    H136320   3.638   4.775   0.603  1.0175 -2.2237 -0.5413
 4919TIP3    H236321   3.575   4.671   0.512 -0.0775 -0.4833 -1.8389
 4920TIP3   OH236322   4.354   2.952   0.885 -0.5741 -0.0351 -0.4600
 4920TIP3    H136323   4.302   2.891   0.833 -0.5215 -0.5885  0.1215
 4920TIP3    H236324   4.291   3.006   0.931 -0.6270  0.9791 -1.6707
 4921TIP3   OH236325   6.511   2.518   7.093 -0.1942 -0.0682  0.4434
 4921TIP3    H136326   6.596   2.476   7.083  0.3439  1.3705 -1.4787
 4921TIP3    H236327   6.448   2.451   7.067  0.3656 -0.9504  1.3036
 4922TIP3   OH236328   5.643   1.447   7.301  0.1443  0.3896 -0.1398
 4922TIP3    H136329   5.602   1.473   7.218 -1.8221 -0.0778  0.6559
 4922TIP3    H236330   5.586   1.379   7.336  2.1247 -0.9861  0.5841
 4923TIP3   OH236331   3.818   4.712   1.142  0.4046 -0.4321  0.4325
 4923TIP3    H136332   3.726   4.710   1.114  0.1254  0.6700  1.1983
 4923TIP3    H236333   3.817   4.673   1.229  0.4653  0.5621  0.8974
 4924TIP3   OH236334   3.630   4.541   2.138  0.7352  0.4300 -0.4133
 4924TIP3    H136335   3.712   4.495   2.157  0.4265  0.7422  2.0239
 4924TIP3    H236336   3.641   4.626   2.179 -0.7297  0.5605 -0.2485
 4925TIP3   OH236337   6.246   4.725   8.646  0.3919 -0.0091 -0.1937
 4925TIP3    H136338   6.243   4.807   8.695 -2.3413 -0.3781  0.4075
 4925TIP3    H236339   6.241   4.753   8.554 -2.6957  0.5706  0.0415
 4926TIP3   OH236340   0.610   4.280   8.772  0.0265 -0.3187 -0.6625
 4926TIP3    H136341   0.563   4.234   8.703  0.7091 -0.1414 -1.2561
 4926TIP3    H236342   0.628   4.366   8.735  1.5056 -0.6484 -0.7430
 4927TIP3   OH236343   2.648   5.086   7.195  0.5279  0.2383  0.2904
 4927TIP3    H136344   2.694   5.156   7.149  1.1845 -1.4966 -1.8361
 4927TIP3    H236345   2.675   5.006   7.151  0.4579 -1.5152  3.1359
 4928TIP3   OH236346   4.274   1.510   0.388 -0.2032 -0.5117  0.0696
 4928TIP3    H136347   4.221   1.525   0.466  0.7368  0.2348  0.5796
 4928TIP3    H236348   4.359   1.483   0.421  0.4423  0.5480 -0.6590
 4929TIP3   OH236349   0.422   4.817   7.670  0.0695 -0.4732 -0.0521
 4929TIP3    H136350   0.347   4.801   7.613 -0.1016  1.3578 -0.4049
 4929TIP3    H236351   0.438   4.911   7.663  0.7402 -0.3686  2.0859
 4930TIP3   OH236352   0.302   0.888   7.817 -0.7090 -0.4366 -0.5828
 4930TIP3    H136353   0.388   0.859   7.849 -1.0596 -1.4612 -0.5208
 4930TIP3    H236354   0.240   0.848   7.878 -1.2197  0.6958 -0.3323
 4931TIP3   OH236355   2.019   3.196   0.340  0.1540 -0.2239 -0.3271
 4931TIP3    H136356   2.092   3.212   0.280  1.0448  0.7117  0.9464
 4931TIP3    H236357   1.971   3.278   0.343 -1.1406 -0.8997 -1.3296
 4932TIP3   OH236358   1.554   2.707   1.009 -0.2815  0.4193 -0.1367
 4932TIP3    H136359   1.547   2.770   0.937  1.3102  1.2968  0.4379
 4932TIP3    H236360   1.598   2.631   0.970  0.9905  1.0687 -0.0154
 4933TIP3   OH236361   3.997   1.207   0.263 -0.0059  0.2105  0.3920
 4933TIP3    H136362   3.912   1.185   0.223  0.1507  0.5346 -0.1313
 4933TIP3    H236363   4.026   1.284   0.215  0.4039  0.3342  0.8375
 4934TIP3   OH236364   4.707   0.895   0.889  0.4139 -0.4411 -0.1250
 4934TIP3    H136365   4.777   0.838   0.859  0.1571  0.7370 -3.3629
 4934TIP3    H236366   4.631   0.837   0.900  0.2757 -0.8893 -2.8732
 4935TIP3   OH236367   6.811   4.956   2.127 -0.1199  0.0953 -0.5727
 4935TIP3    H136368   6.896   4.995   2.111 -0.4186  0.4588 -1.3351
 4935TIP3    H236369   6.828   4.886   2.191  0.1350  2.6542  2.3941
 4936TIP3   OH236370   5.792   5.896   7.466  0.7818 -0.1429  0.2611
 4936TIP3    H136371   5.883   5.912   7.441  0.3711 -1.0743 -2.0347
 4936TIP3    H236372   5.745   5.886   7.383 -1.1998 -0.8641  1.3993
 4937TIP3   OH236373   1.228   3.587   7.499  0.7717  0.1797 -0.1520
 4937TIP3    H136374   1.311   3.600   7.453  0.4989  0.4316 -0.5855
 4937TIP3    H236375   1.250   3.532   7.574  1.4668  0.8863  0.1747
 4938TIP3   OH236376   3.120   3.157   8.163  0.3395  0.1338  0.1428
 4938TIP3    H136377   3.173   3.145   8.242 -0.5238  2.1529  1.1100
 4938TIP3    H236378   3.086   3.070   8.143  1.9870 -0.7450  0.9431
 4939TIP3   OH236379   4.323   6.735   0.491 -0.0434 -0.6988  0.1136
 4939TIP3    H136380   4.315   6.643   0.463  0.2796 -0.9186  0.7169
 4939TIP3    H236381   4.363   6.780   0.417 -0.5039 -0.9807 -0.3107
 4940TIP3   OH236382   4.326   3.435   6.967  0.4625  0.5908 -0.4990
 4940TIP3    H136383   4.266   3.436   6.892  0.3730 -1.5778 -0.5308
 4940TIP3    H236384   4.411   3.414   6.929  0.6720  0.8032 -0.1437
 4941TIP3   OH236385   4.608   0.800   8.317  0.2985  0.1665 -0.1211
 4941TIP3    H136386   4.557   0.740   8.371  0.6696 -0.8188 -0.8352
 4941TIP3    H236387   4.568   0.794   8.230  1.5344 -0.5506 -0.6723
 4942TIP3   OH236388   0.266   5.991   1.625 -0.3561 -0.1913 -0.4556
 4942TIP3    H136389   0.303   6.077   1.607  3.5946 -1.8889 -1.7420
 4942TIP3    H236390   0.195   6.007   1.686  1.4593  3.7693  0.9631
 4943TIP3   OH236391   1.938   1.030   6.663 -0.1451 -0.2591  0.3090
 4943TIP3    H136392   1.907   1.002   6.748 -0.2221  2.1884  1.1767
 4943TIP3    H236393   1.863   1.077   6.625  0.8984  1.5573  0.3799
 4944TIP3   OH236394   3.550   4.608   1.144  0.2128 -0.3270 -0.8642
 4944TIP3    H136395   3.583   4.593   1.233  0.5378 -0.1456 -0.9502
 4944TIP3    H236396   3.486   4.678   1.154  1.1767  0.5963 -0.9451
 4945TIP3   OH236397   2.862   4.283   0.790  0.7324 -0.0770 -0.5873
 4945TIP3    H136398   2.919   4.358   0.807 -0.1731  0.7048 -0.8580
 4945TIP3    H236399   2.787   4.321   0.742 -0.6196 -0.8171  0.8385
 4946TIP3   OH236400   5.735   4.374   0.942  0.4510 -0.1186 -0.1180
 4946TIP3    H136401   5.776   4.413   0.864  0.0447 -0.7249 -0.6471
 4946TIP3    H236402   5.782   4.413   1.016  0.0397  1.3689 -0.6268
 4947TIP3   OH236403   6.470   1.074   0.358  0.4505  0.0537 -0.3757
 4947TIP3    H136404   6.511   1.156   0.330  0.7371 -0.1081 -0.4294
 4947TIP3    H236405   6.539   1.026   0.404 -0.3434  0.8652  1.7882
 4948TIP3   OH236406   3.525   4.216   7.191 -0.3252  0.6290 -0.4961
 4948TIP3    H136407   3.573   4.228   7.273  0.0009  2.0762 -0.8683
 4948TIP3    H236408   3.437   4.247   7.211 -0.6461 -0.3719 -0.3079
 4949TIP3   OH236409   0.399   6.451   1.361  0.0377 -0.0923 -0.2507
 4949TIP3    H136410   0.343   6.398   1.303  1.1976 -2.0195  0.2933
 4949TIP3    H236411   0.486   6.443   1.323  0.4796  0.2044  0.6923
 4950TIP3   OH236412   5.575   0.076   0.464 -0.0505  0.0015  0.5787
 4950TIP3    H136413   5.661   0.063   0.504 -0.1791  0.0740  0.8786
 4950TIP3    H236414   5.524   0.123   0.530 -0.9844 -1.8556  1.2482
 4951TIP3   OH236415   5.619   6.624   1.978 -0.1294  0.1074 -0.3872
 4951TIP3    H136416   5.576   6.560   1.922 -0.7333  0.3179 -0.1654
 4951TIP3    H236417   5.677   6.572   2.034  0.0115 -0.1593 -0.7777
 4952TIP3   OH236418   5.080   3.124   2.026 -0.2089  0.1719 -0.2420
 4952TIP3    H136419   5.152   3.178   2.059 -0.4217  0.4791 -0.2860
 4952TIP3    H236420   5.045   3.082   2.105  1.0553 -1.2635 -0.3854
 4953TIP3   OH236421   5.204   2.304   0.316  0.1819  0.0702 -0.3277
 4953TIP3    H136422   5.198   2.211   0.294 -2.3593 -0.2874  1.4189
 4953TIP3    H236423   5.135   2.346   0.264  0.7223  0.8513 -0.4402
 4954TIP3   OH236424   2.981   3.235   8.630  0.7058  0.3247 -0.0432
 4954TIP3    H136425   2.934   3.160   8.593  0.7138  0.0999  0.3904
 4954TIP3    H236426   3.061   3.243   8.577 -0.2988  1.3792 -1.4931
 4955TIP3   OH236427   6.624   6.641   7.101  0.0740 -0.1369 -0.6435
 4955TIP3    H136428   6.629   6.612   7.010  0.6894  1.4109 -1.1248
 4955TIP3    H236429   6.530   6.650   7.118 -0.0762 -1.1193 -0.8775
 4956TIP3   OH236430   5.940   1.839   1.530 -0.2468 -0.8409 -0.1476
 4956TIP3    H136431   5.954   1.765   1.589 -0.5619  0.2702  1.3618
 4956TIP3    H236432   6.026   1.878   1.519  0.0367 -1.7546 -1.4516
 4957TIP3   OH236433   4.634   6.219   8.417  0.2487  0.1235 -0.3422
 4957TIP3    H136434   4.716   6.264   8.433  0.1946  0.0885  0.0522
 4957TIP3    H236435   4.638   6.141   8.472  0.1981 -0.1761 -0.7616
 4958TIP3   OH236436   1.696   5.413   7.185 -0.0417  0.1149  0.4697
 4958TIP3    H136437   1.655   5.494   7.156 -2.5702 -0.5000  2.0567
 4958TIP3    H236438   1.647   5.387   7.263  1.5485 -2.2581  0.7985
 4959TIP3   OH236439   1.134   3.799   7.904  1.0414 -0.1378  0.5334
 4959TIP3    H136440   1.218   3.805   7.951  1.7232  2.3372 -0.7882
 4959TIP3    H236441   1.157   3.814   7.813 -0.9003  1.3182  0.2195
 4960TIP3   OH236442   1.347   0.456   2.444  0.1106  0.0674  0.2757
 4960TIP3    H136443   1.435   0.425   2.465 -0.1730 -0.8953  0.1010
 4960TIP3    H236444   1.361   0.531   2.385  0.8194  0.6139  1.1187
 4961TIP3   OH236445   1.969   6.550   7.684  0.7612  0.0021 -0.4128
 4961TIP3    H136446   2.048   6.511   7.646 -1.1828 -1.2911 -3.4286
 4961TIP3    H236447   1.924   6.591   7.611 -1.9312 -0.2710  0.9583
 4962TIP3   OH236448   5.054   0.675   6.929 -0.4130 -0.0332 -0.0439
 4962TIP3    H136449   5.103   0.613   6.983 -0.9504 -0.2671  0.1740
 4962TIP3    H236450   5.109   0.754   6.929  1.0766 -0.9908 -1.6164
 4963TIP3   OH236451   1.941   1.052   7.570  0.1785 -0.2070 -0.3442
 4963TIP3    H136452   1.975   1.062   7.659 -0.6209 -0.6091  0.0234
 4963TIP3    H236453   1.903   0.964   7.569  0.0192 -0.1383 -1.0338
 4964TIP3   OH236454   3.103   1.542   8.020  0.2686  0.4118  0.9971
 4964TIP3    H136455   3.065   1.630   8.014 -1.4713 -0.3810 -2.0075
 4964TIP3    H236456   3.150   1.531   7.937  2.5554 -0.6884  2.3515
 4965TIP3   OH236457   2.057   4.137   8.160  0.4287  0.1520 -0.1945
 4965TIP3    H136458   2.097   4.146   8.247  2.4513  0.7029 -1.1548
 4965TIP3    H236459   2.060   4.043   8.142  1.0241  0.1582 -0.1343
 4966TIP3   OH236460   0.300   3.613   2.609  0.3335  0.5643 -0.4209
 4966TIP3    H136461   0.215   3.651   2.586  1.1324  1.7289 -1.5941
 4966TIP3    H236462   0.357   3.635   2.536  1.5001 -0.7803  0.0270
 4967TIP3   OH236463   6.748   6.335   8.447 -0.6225 -0.3301 -0.3618
 4967TIP3    H136464   6.656   6.310   8.439 -0.9167  0.0440  1.5122
 4967TIP3    H236465   6.774   6.305   8.534  0.6341  0.8088 -0.3081
 4968TIP3   OH236466   6.191   1.904   0.579  0.4591  0.6958  0.2968
 4968TIP3    H136467   6.232   1.830   0.623  0.1864  0.3194 -0.0763
 4968TIP3    H236468   6.179   1.969   0.649  0.6062  0.3518  0.6500
 4969TIP3   OH236469   2.581   1.720   1.419  0.1370 -0.5795  0.7536
 4969TIP3    H136470   2.549   1.634   1.393 -0.6595  0.3282 -1.5793
 4969TIP3    H236471   2.675   1.718   1.402  0.1227 -0.9954  0.7364
 4970TIP3   OH236472   2.830   1.536   0.811 -0.3524 -0.1829 -0.5872
 4970TIP3    H136473   2.915   1.502   0.839  0.1973  1.6469  0.1165
 4970TIP3    H236474   2.774   1.458   0.804  0.9849 -1.2753  0.3173
 4971TIP3   OH236475   2.871   6.182   7.414  0.3024 -0.6841  0.0055
 4971TIP3    H136476   2.843   6.272   7.431  0.1297 -0.9367  1.1842
 4971TIP3    H236477   2.794   6.128   7.432  0.8504 -1.1927  0.9548
 4972TIP3   OH236478   1.744   5.926   1.885  0.3315 -0.3254 -0.5974
 4972TIP3    H136479   1.807   5.936   1.957  1.1837 -0.7938 -1.2630
 4972TIP3    H236480   1.678   5.867   1.920  0.6104 -0.3596 -0.1133
 4973TIP3   OH236481   1.219   4.391   7.279  0.5331 -0.5149 -0.2744
 4973TIP3    H136482   1.314   4.396   7.267  0.2714  1.2414 -2.0885
 4973TIP3    H236483   1.206   4.417   7.371  1.7022  1.3754 -0.5878
 4974TIP3   OH236484   6.090   0.841   8.223  0.6588 -0.0772 -0.3485
 4974TIP3    H136485   6.135   0.823   8.306 -0.4411 -2.3888 -0.1926
 4974TIP3    H236486   6.129   0.781   8.160 -0.9997 -0.9370 -0.6070
 4975TIP3   OH236487   5.939   3.026   7.823 -0.4527 -0.0273  0.4113
 4975TIP3    H136488   5.949   2.931   7.838  1.9199  0.0140 -0.5547
 4975TIP3    H236489   5.955   3.065   7.909 -0.3832 -0.4465  0.5944
 4976TIP3   OH236490   2.996   6.168   1.893  0.2080 -0.5289 -0.4650
 4976TIP3    H136491   2.985   6.074   1.883  1.0700 -0.6279 -0.5633
 4976TIP3    H236492   2.944   6.207   1.823 -1.0010 -0.8794  0.2099
 4977TIP3   OH236493   4.689   0.887   7.432  0.7697 -0.2085 -0.1834
 4977TIP3    H136494   4.627   0.956   7.456  0.7510 -0.0357 -0.6939
 4977TIP3    H236495   4.676   0.876   7.338  0.8352 -0.8553 -0.1169
 4978TIP3   OH236496   2.573   0.132   6.990 -0.8134 -0.0140  0.2103
 4978TIP3    H136497   2.519   0.211   6.990 -1.1265 -0.2255  0.0095
 4978TIP3    H236498   2.596   0.119   6.898  1.1829  1.1537  0.4931
 4979TIP3   OH236499   4.678   0.025   8.550 -0.4878  0.0776 -0.1791
 4979TIP3    H136500   4.599  -0.004   8.505  0.1340  0.6092 -1.6506
 4979TIP3    H236501   4.731   0.066   8.482 -0.3726  2.7270  1.3734
 4980TIP3   OH236502   5.664   0.887   7.885  0.3444  0.1038 -0.3461
 4980TIP3    H136503   5.602   0.818   7.908  2.2396 -0.9894  1.8620
 4980TIP3    H236504   5.611   0.967   7.882 -1.0131 -0.4432  3.3782
 4981TIP3   OH236505   1.641   0.096   1.824  0.3928  0.5904 -0.2984
 4981TIP3    H136506   1.631   0.089   1.729  0.6031  1.5502 -0.3988
 4981TIP3    H236507   1.552   0.107   1.857  0.3161  0.2191 -0.3718
 4982TIP3   OH236508   5.846   0.041   6.373  0.0953  0.0984 -0.2733
 4982TIP3    H136509   5.750   0.046   6.383  0.1132 -0.2945  0.1107
 4982TIP3    H236510   5.860   0.049   6.279 -0.5523 -3.2666 -0.7852
 4983TIP3   OH236511   0.901   1.334   0.496 -0.3571 -0.2890 -0.1734
 4983TIP3    H136512   0.855   1.302   0.418  0.1283 -1.3286 -0.0439
 4983TIP3    H236513   0.990   1.301   0.486 -0.3336 -0.5733  0.9099
 4984TIP3   OH236514   3.649   0.657   0.580 -0.3079  0.5976  0.7818
 4984TIP3    H136515   3.637   0.659   0.485 -0.9994  2.4144  0.8653
 4984TIP3    H236516   3.650   0.750   0.606 -0.8049  0.1295  2.6249
 4985TIP3   OH236517   4.910   4.840   8.714 -0.3947 -0.4533  0.3087
 4985TIP3    H136518   4.846   4.795   8.768  1.3002 -0.6892  2.2622
 4985TIP3    H236519   4.965   4.888   8.776 -0.3804  2.0615 -1.4769
 4986TIP3   OH236520   2.371   0.444   0.160 -0.2983 -0.5047  0.1865
 4986TIP3    H136521   2.416   0.446   0.075 -2.1772 -1.3075 -0.9015
 4986TIP3    H236522   2.345   0.352   0.170  0.0098 -0.4509  1.7429
 4987TIP3   OH236523   4.373   0.361   0.857  0.6967 -0.0694 -0.0892
 4987TIP3    H136524   4.440   0.423   0.825  0.1860  0.6643  0.2254
 4987TIP3    H236525   4.296   0.416   0.871  0.8427 -0.3728  2.2261
 4988TIP3   OH236526   3.428   2.687   8.347 -0.5061 -0.1369  0.1848
 4988TIP3    H136527   3.487   2.756   8.376  1.7125 -1.8700  0.0990
 4988TIP3    H236528   3.453   2.671   8.256 -1.7114 -0.3644 -0.1281
 4989TIP3   OH236529   6.029   2.392   1.064 -0.0149  0.0048  0.3032
 4989TIP3    H136530   6.033   2.486   1.048 -0.9356  0.0491  0.2808
 4989TIP3    H236531   6.002   2.384   1.155  1.6295 -0.2523  0.7991
 4990TIP3   OH236532   3.428   6.529   0.394 -0.2930  0.0646 -0.3146
 4990TIP3    H136533   3.334   6.547   0.403 -0.1917  0.1378  0.7150
 4990TIP3    H236534   3.432   6.444   0.351 -0.8135  0.6644 -1.5913
 4991TIP3   OH236535   6.805   2.292   1.282 -0.2340  0.1004  0.5680
 4991TIP3    H136536   6.770   2.361   1.224  0.2579  0.5750  0.8266
 4991TIP3    H236537   6.897   2.314   1.293  0.4039 -1.6711 -0.8564
 4992TIP3   OH236538   5.461   6.292   2.180 -0.1721  0.7991  0.1774
 4992TIP3    H136539   5.473   6.350   2.255 -0.3717 -0.4658  1.2251
 4992TIP3    H236540   5.400   6.225   2.211  0.6565 -0.4213 -0.7264
 4993TIP3   OH236541   6.059   5.501   0.321  0.0910  0.4321 -0.3944
 4993TIP3    H136542   5.991   5.518   0.256 -0.7541  1.8115  0.7649
 4993TIP3    H236543   6.027   5.546   0.400  0.3416 -2.3316  1.4234
 4994TIP3   OH236544   1.142   2.604   8.114 -0.0265  0.4531 -0.2911
 4994TIP3    H136545   1.229   2.624   8.149  0.7478 -0.4195 -1.6038
 4994TIP3    H236546   1.130   2.510   8.132 -0.8509  0.6463  0.1857
 4995TIP3   OH236547   5.561   5.369   1.042 -0.3277  0.0774  0.1859
 4995TIP3    H136548   5.518   5.454   1.031 -0.9570 -0.3860 -1.2564
 4995TIP3    H236549   5.616   5.360   0.964  0.3203 -0.5025  0.7091
 4996TIP3   OH236550   5.408   6.068   8.469 -0.0790 -0.0633  0.1372
 4996TIP3    H136551   5.498   6.037   8.477 -0.0839 -0.1327 -0.0806
 4996TIP3    H236552   5.416   6.164   8.470 -0.0116 -0.0692  0.2111
 4997TIP3   OH236553   4.418   3.631   1.124  0.2253  0.2764  0.1042
 4997TIP3    H136554   4.370   3.713   1.120 -0.1446  0.2741  2.7698
 4997TIP3    H236555   4.506   3.656   1.153 -0.0406 -0.2797  1.4566
 4998TIP3   OH236556   6.641   2.392   1.674 -0.3942  0.0991 -1.0127
 4998TIP3    H136557   6.688   2.323   1.721  1.2575  1.2555 -0.8613
 4998TIP3    H236558   6.608   2.449   1.742 -1.4689 -0.3393 -1.1498
 4999TIP3   OH236559   1.505   4.272   6.359 -0.8755  0.0051  0.3060
 4999TIP3    H136560   1.563   4.312   6.294 -0.6252 -1.1419 -0.2108
 4999TIP3    H236561   1.507   4.178   6.338 -0.8426 -0.3843  1.9406
 5000TIP3   OH236562   3.866   5.379   7.303 -0.2418  0.2853 -0.5979
 5000TIP3    H136563   3.904   5.462   7.332  1.0308 -1.3835  3.2508
 5000TIP3    H236564   3.934   5.338   7.250 -0.4134  1.1471 -1.5129
 5001TIP3   OH236565   2.081   0.537   8.112 -0.1227 -0.3449 -0.1565
 5001TIP3    H136566   2.128   0.592   8.175 -0.4887 -1.8590  1.5147
 5001TIP3    H236567   2.148   0.479   8.075  0.3971  1.5675 -2.4370
 5002TIP3   OH236568   5.423   1.273   7.348 -0.5518  0.0580  0.0684
 5002TIP3    H136569   5.394   1.182   7.361 -0.2897 -0.0154  0.1470
 5002TIP3    H236570   5.342   1.324   7.349 -0.7824 -0.2749 -0.8239
 5003TIP3   OH236571   0.398   3.828   7.763 -0.1135  0.3402  0.0244
 5003TIP3    H136572   0.442   3.793   7.685  0.2083 -0.3110  0.4922
 5003TIP3    H236573   0.313   3.784   7.763 -0.3442  0.7744 -0.2700
 5004TIP3   OH236574   0.737   3.756   1.859  0.1273 -0.3561 -0.0984
 5004TIP3    H136575   0.784   3.696   1.916  0.8132  1.3519  1.1839
 5004TIP3    H236576   0.790   3.835   1.857 -2.6072  1.6596  1.4009
 5005TIP3   OH236577   2.724   2.829   1.578 -0.4318  0.2953 -0.0915
 5005TIP3    H136578   2.693   2.744   1.609 -0.9243  0.0454 -1.2004
 5005TIP3    H236579   2.648   2.887   1.587  0.3243  1.0388  2.0693
 5006TIP3   OH236580   4.129   0.519   0.061 -0.0310  0.8490 -0.6181
 5006TIP3    H136581   4.212   0.561   0.084 -0.5017  1.5017 -0.0523
 5006TIP3    H236582   4.102   0.474   0.141  1.0522 -1.6075 -1.5481
 5007TIP3   OH236583   5.761   0.028   1.888  0.5564 -0.2106 -0.1513
 5007TIP3    H136584   5.811   0.084   1.948 -0.4024  0.4457  0.0631
 5007TIP3    H236585   5.728  -0.043   1.943  0.6600 -0.2572 -0.1488
 5008TIP3   OH236586   0.286   0.590   1.817 -0.5678 -0.0799 -0.5121
 5008TIP3    H136587   0.211   0.535   1.836  0.7042 -0.8592  3.0716
 5008TIP3    H236588   0.358   0.529   1.801  0.3912  0.4449  1.4138
 5009TIP3   OH236589   6.420   0.163   7.688 -0.5756 -0.1215 -0.0037
 5009TIP3    H136590   6.333   0.126   7.677  0.0067 -1.4404 -0.4100
 5009TIP3    H236591   6.406   0.258   7.688 -1.9417 -0.2972 -0.5597
 5010TIP3   OH236592   5.832   0.982   1.651  0.4149 -0.3399 -0.0117
 5010TIP3    H136593   5.798   1.047   1.591  0.4232  0.2131  0.5734
 5010TIP3    H236594   5.827   1.023   1.737  0.4346 -1.1018  0.3676
 5011TIP3   OH236595   0.422   5.114   7.073 -0.2920  0.5200  0.2723
 5011TIP3    H136596   0.454   5.081   7.157 -0.3886  1.3691  0.6592
 5011TIP3    H236597   0.409   5.208   7.088  0.5492  0.8668 -0.9505
 5012TIP3   OH236598   5.364   4.653   6.925 -0.4448 -0.3745 -0.4190
 5012TIP3    H136599   5.369   4.708   6.847  0.8938 -0.5782 -0.4970
 5012TIP3    H236600   5.348   4.714   6.997 -0.3881 -0.0468 -0.6816
 5013TIP3   OH236601   4.155   2.469   7.668  0.3773 -0.3183 -0.0323
 5013TIP3    H136602   4.192   2.480   7.581  0.6186  0.2409  0.1367
 5013TIP3    H236603   4.095   2.542   7.678 -0.3842 -0.9297 -0.1016
 5014TIP3   OH236604   0.804   5.515   7.994  0.2034 -0.2423 -0.0103
 5014TIP3    H136605   0.812   5.588   8.054 -2.1356 -1.1742  1.5829
 5014TIP3    H236606   0.748   5.452   8.039  2.2547 -3.1708 -1.2009
 5015TIP3   OH236607   1.472   0.978   1.736 -0.0284 -0.2077 -0.1233
 5015TIP3    H136608   1.394   1.004   1.687  0.7334  1.1059 -0.6748
 5015TIP3    H236609   1.447   0.987   1.828 -0.9230 -1.0482 -0.2653
 5016TIP3   OH236610   3.298   4.711   1.583  0.3922 -0.1289 -0.1501
 5016TIP3    H136611   3.330   4.637   1.635 -0.4220  0.6640  1.5411
 5016TIP3    H236612   3.359   4.716   1.509  0.0146 -2.9546 -0.7497
 5017TIP3   OH236613   3.971   5.950   1.596 -0.8131 -0.1763 -0.6091
 5017TIP3    H136614   4.030   5.876   1.608 -1.1367 -0.2119  0.9716
 5017TIP3    H236615   4.011   6.021   1.648 -1.3542  0.2506 -0.7671
 5018TIP3   OH236616   4.308   2.423   6.591 -0.1353 -0.0946 -0.2194
 5018TIP3    H136617   4.341   2.471   6.515 -1.1451 -1.4280 -1.5580
 5018TIP3    H236618   4.381   2.422   6.653  0.8468  0.6957 -1.3296
 5019TIP3   OH236619   3.545   4.829   1.799  0.3781 -0.2725  0.1402
 5019TIP3    H136620   3.525   4.747   1.845 -0.2402 -0.0220  0.3333
 5019TIP3    H236621   3.515   4.813   1.709  0.2749 -0.2674  0.1731
 5020TIP3   OH236622   3.089   2.869   2.539 -0.7442  0.1108  0.4812
 5020TIP3    H136623   3.015   2.928   2.526 -0.0204  1.1374  0.8448
 5020TIP3    H236624   3.109   2.835   2.452 -0.3447  1.4501  0.0241
 5021TIP3   OH236625   0.763   0.266   8.118 -0.3416 -0.2074  0.0121
 5021TIP3    H136626   0.848   0.234   8.091  0.6455  2.2804 -0.0728
 5021TIP3    H236627   0.733   0.322   8.046 -1.0725  0.6021  0.9008
 5022TIP3   OH236628   1.216   1.910   1.225 -0.7051 -0.1751  0.1759
 5022TIP3    H136629   1.296   1.881   1.181 -0.0849  1.0645  0.4335
 5022TIP3    H236630   1.217   1.867   1.310  0.2416  0.6222  0.5868
 5023TIP3   OH236631   1.025   0.451   1.641 -0.4158 -0.5089  0.5314
 5023TIP3    H136632   1.079   0.404   1.704  1.7011 -0.4927 -1.1528
 5023TIP3    H236633   1.050   0.543   1.650 -0.3060 -0.4699 -0.1048
 5024TIP3   OH236634   3.486   1.483   2.327  0.1121 -0.3165 -0.2519
 5024TIP3    H136635   3.536   1.565   2.322 -1.4417  0.7110  0.3359
 5024TIP3    H236636   3.405   1.507   2.372 -0.3445 -2.2146  0.0096
 5025TIP3   OH236637   1.938   5.965   8.758 -0.3763 -0.2086  0.5870
 5025TIP3    H136638   1.884   5.886   8.747 -0.2838 -0.2603  0.5006
 5025TIP3    H236639   2.027   5.936   8.737 -0.7940  0.7720 -3.1973
 5026TIP3   OH236640   2.965   1.601   6.654  0.6238 -1.0357 -0.5605
 5026TIP3    H136641   2.918   1.522   6.681  1.0747 -1.2827 -0.4950
 5026TIP3    H236642   2.921   1.628   6.573  0.9082 -1.7488 -0.9614
 5027TIP3   OH236643   6.629   5.465   7.830  0.1030  0.1496 -0.1331
 5027TIP3    H136644   6.699   5.511   7.877 -0.5403  0.1219  0.8720
 5027TIP3    H236645   6.552   5.520   7.843  0.1034  0.6891 -2.0526
 5028TIP3   OH236646   2.445   5.091   7.777  0.2485  0.2724 -0.2523
 5028TIP3    H136647   2.420   5.125   7.691  0.4667  0.7532 -0.1282
 5028TIP3    H236648   2.538   5.113   7.785 -0.1370  1.6196  0.7612
 5029TIP3   OH236649   4.275   1.271   1.747  0.1612  0.1815  0.1921
 5029TIP3    H136650   4.315   1.271   1.834 -1.3529 -2.6728  0.9822
 5029TIP3    H236651   4.271   1.364   1.723  1.3762  0.9951  2.7794
 5030TIP3   OH236652   4.167   1.560   1.325  0.1774  0.4025  0.0709
 5030TIP3    H136653   4.094   1.525   1.275 -0.7355  2.2871 -0.0119
 5030TIP3    H236654   4.164   1.513   1.408  0.1482 -0.9567 -0.6676
 5031TIP3   OH236655   1.156   3.266   7.348 -0.0194  0.2049 -0.2111
 5031TIP3    H136656   1.217   3.274   7.275  0.4331  1.8225  0.2888
 5031TIP3    H236657   1.211   3.250   7.425 -0.3649  0.0129  0.0043
 5032TIP3   OH236658   5.325   3.140   0.281  0.4595 -0.3049 -0.0833
 5032TIP3    H136659   5.270   3.141   0.203  0.9108  0.3370 -0.4050
 5032TIP3    H236660   5.307   3.055   0.322  0.9103 -1.0583 -1.3795
 5033TIP3   OH236661   0.575   1.154   0.711  0.1482 -0.2499  0.0535
 5033TIP3    H136662   0.543   1.200   0.634  0.4080 -0.3788 -0.1321
 5033TIP3    H236663   0.612   1.072   0.678  0.1388 -0.3674  0.3266
 5034TIP3   OH236664   3.822   0.878   1.250 -0.1747  0.4931  0.1933
 5034TIP3    H136665   3.748   0.934   1.228 -0.5661  0.1844  0.7012
 5034TIP3    H236666   3.838   0.828   1.169 -0.1691  0.9465 -0.0884
 5035TIP3   OH236667   5.306   1.874   0.538  0.0485  0.3321  0.8980
 5035TIP3    H136668   5.317   1.929   0.616 -2.7006  0.8554  0.9975
 5035TIP3    H236669   5.356   1.920   0.470 -0.2989  1.7148  1.5463
 5036TIP3   OH236670   2.937   2.061   0.402 -0.1429 -0.3100  0.2215
 5036TIP3    H136671   2.959   2.019   0.318  2.5048  0.2949  0.5306
 5036TIP3    H236672   2.932   1.988   0.464  1.9871 -0.4797  0.2740
 5037TIP3   OH236673   2.300   6.244   7.056  0.1000 -0.2604 -0.2851
 5037TIP3    H136674   2.356   6.292   7.117 -0.4840  1.1399 -0.8106
 5037TIP3    H236675   2.359   6.180   7.015  1.0075  0.2805  0.1391
 5038TIP3   OH236676   4.705   3.718   6.987 -0.0467  0.4167  0.3384
 5038TIP3    H136677   4.702   3.813   6.977 -0.6794  0.4529  0.8715
 5038TIP3    H236678   4.764   3.703   7.061 -0.1167  0.4035  0.3917
 5039TIP3   OH236679   4.499   0.684   6.840  0.3587  0.2747  0.0768
 5039TIP3    H136680   4.437   0.613   6.857 -0.9327  1.5250  0.8748
 5039TIP3    H236681   4.531   0.668   6.752 -2.0273  0.1996 -0.8498
 5040TIP3   OH236682   6.483   5.364   8.724 -0.0812 -0.2226 -0.6378
 5040TIP3    H136683   6.440   5.450   8.735  1.1227  0.5835 -1.9041
 5040TIP3    H236684   6.559   5.367   8.782 -1.0411 -1.1979  0.7266
 5041TIP3   OH236685   4.164   4.043   7.192  0.1989 -0.1890 -0.2804
 5041TIP3    H136686   4.256   4.022   7.175  0.2004 -0.5186  0.1005
 5041TIP3    H236687   4.115   3.970   7.155  0.0596  0.1757 -0.8305
 5042TIP3   OH236688   0.330   3.616   7.396  0.1644  0.3434  0.0773
 5042TIP3    H136689   0.358   3.558   7.467  0.9797  0.0803 -0.4454
 5042TIP3    H236690   0.260   3.568   7.352  1.9174 -1.0160 -1.3618
 5043TIP3   OH236691   1.257   5.387   1.155 -0.2895 -0.2701  0.4897
 5043TIP3    H136692   1.293   5.415   1.071 -0.1479 -0.7233  0.3955
 5043TIP3    H236693   1.333   5.376   1.211 -0.2434 -1.4790  0.2143
 5044TIP3   OH236694   3.308   6.640   1.748  0.2183 -0.3635  0.1028
 5044TIP3    H136695   3.310   6.562   1.693 -0.9069  0.7774 -1.6374
 5044TIP3    H236696   3.396   6.678   1.739  0.3034 -0.6368 -0.2192
 5045TIP3   OH236697   2.357   4.981   1.653 -0.3147  0.0482  0.1562
 5045TIP3    H136698   2.439   5.029   1.664 -0.7023  1.1231 -1.2994
 5045TIP3    H236699   2.382   4.889   1.655  0.6345  0.3129  1.7237
 5046TIP3   OH236700   0.524   4.964   6.756 -0.0048  0.0488  0.4614
 5046TIP3    H136701   0.466   4.916   6.816 -0.7959 -0.5378 -0.7510
 5046TIP3    H236702   0.484   5.051   6.749  0.3005  0.2481  1.0528
 5047TIP3   OH236703   5.739   3.102   0.764 -0.1873 -0.5967 -0.5596
 5047TIP3    H136704   5.722   3.110   0.858 -0.1468 -2.1648 -0.3970
 5047TIP3    H236705   5.655   3.119   0.723  0.1218  1.7702 -0.3896
 5048TIP3   OH236706   5.068   6.021   7.419 -0.4010  0.0604 -0.0195
 5048TIP3    H136707   5.081   6.085   7.350 -0.3732  0.3078  0.2117
 5048TIP3    H236708   5.096   5.937   7.381 -0.9457  0.0933 -0.5021
 5049TIP3   OH236709   4.100   5.122   7.931 -0.1139  0.6920  0.3298
 5049TIP3    H136710   4.138   5.093   8.014 -0.0128 -0.3745 -0.0713
 5049TIP3    H236711   4.035   5.055   7.910  1.4175 -0.3248 -1.5468
 5050TIP3   OH236712   1.622   4.447   6.557  1.0646 -0.5153  0.3361
 5050TIP3    H136713   1.616   4.384   6.485  1.2702 -0.2353  0.0678
 5050TIP3    H236714   1.635   4.393   6.635 -2.2771 -1.0289  0.6597
 5051TIP3   OH236715   0.061   1.982   0.044 -0.1788 -0.0188 -0.1289
 5051TIP3    H136716   0.108   2.027   0.114 -0.3276  1.3878 -0.8952
 5051TIP3    H236717   0.093   1.892   0.047 -0.5340 -0.1273  2.0384
 5052TIP3   OH236718   6.547   1.384   6.918 -0.3771 -0.1748 -0.3213
 5052TIP3    H136719   6.495   1.334   6.856 -1.2047  1.3976 -0.9617
 5052TIP3    H236720   6.631   1.397   6.874 -0.9654  0.9469 -1.1506
 5053TIP3   OH236721   4.182   5.392   0.261  0.0337 -0.6283 -0.4605
 5053TIP3    H136722   4.170   5.483   0.288  1.0562 -0.3963 -0.7494
 5053TIP3    H236723   4.097   5.350   0.278 -0.3117  0.2691  0.0813
 5054TIP3   OH236724   5.806   2.602   1.660  0.2613  0.2060 -0.5700
 5054TIP3    H136725   5.715   2.632   1.649  0.9480  2.2852 -1.0718
 5054TIP3    H236726   5.810   2.573   1.751 -0.3487  2.3887  0.2139
 5055TIP3   OH236727   1.702   0.804   0.003  0.2423  0.3025  0.1056
 5055TIP3    H136728   1.745   0.795   0.088  0.4261 -0.1159 -0.0289
 5055TIP3    H236729   1.717   0.895  -0.022  0.1070  0.4575  0.5612
 5056TIP3   OH236730   4.742   6.706   7.351  0.1986  0.0727  0.1700
 5056TIP3    H136731   4.672   6.722   7.414  0.9650  0.1242  1.0244
 5056TIP3    H236732   4.734   6.777   7.288 -0.6550 -0.0516  0.1197
 5057TIP3   OH236733   1.691   0.959   0.864 -0.0703  0.9396 -0.0384
 5057TIP3    H136734   1.725   0.993   0.947  0.0409  0.6085  0.0562
 5057TIP3    H236735   1.742   1.004   0.797 -0.2597  1.3160  0.0671
 5058TIP3   OH236736   3.551   3.611   0.674 -0.5873  0.1195 -0.2074
 5058TIP3    H136737   3.600   3.529   0.681 -1.0861 -0.2111 -0.4933
 5058TIP3    H236738   3.465   3.585   0.639 -0.0569  0.9936 -2.3527
 5059TIP3   OH236739   1.032   2.980   7.397  0.1802  0.1012  0.2428
 5059TIP3    H136740   1.027   2.901   7.344 -0.0869  0.6412 -0.5513
 5059TIP3    H236741   1.123   2.985   7.425  0.9583  1.0953 -2.1960
 5060TIP3   OH236742   4.630   0.294   7.507 -0.2738 -0.7377  0.3585
 5060TIP3    H136743   4.694   0.294   7.437 -0.8187  1.0897 -0.1799
 5060TIP3    H236744   4.677   0.327   7.583 -0.5633  0.6826 -0.0571
 5061TIP3   OH236745   4.719   4.793   7.299 -0.1192 -0.4417  0.1090
 5061TIP3    H136746   4.790   4.738   7.268  0.3204 -0.1634  0.5919
 5061TIP3    H236747   4.680   4.830   7.220  0.0534 -0.8620 -0.1736
 5062TIP3   OH236748   0.195   5.932   8.759 -0.5003  0.5173 -0.3679
 5062TIP3    H136749   0.177   5.854   8.810  0.1293  0.4309 -0.2755
 5062TIP3    H236750   0.277   5.967   8.795  1.2370 -0.8050 -2.7476
 5063TIP3   OH236751   6.535   1.323   0.730 -0.1529  0.1921  0.1024
 5063TIP3    H136752   6.523   1.356   0.641 -1.8448  1.7299  0.8372
 5063TIP3    H236753   6.563   1.399   0.781 -2.5052  0.2276  1.5153
 5064TIP3   OH236754   2.479   0.604   8.471  0.2635  0.3377 -0.1924
 5064TIP3    H136755   2.417   0.570   8.407 -2.0905  1.3616  1.4200
 5064TIP3    H236756   2.450   0.694   8.486  1.7852  0.6528  1.0866
 5065TIP3   OH236757   6.258   2.107   7.223  0.4547 -0.8014  0.0444
 5065TIP3    H136758   6.314   2.117   7.299  0.8324  2.0255 -0.5043
 5065TIP3    H236759   6.308   2.143   7.150 -0.6534 -1.6503 -1.2104
 5066TIP3   OH236760   3.695   1.498   5.922 -0.4788  0.1989  0.1467
 5066TIP3    H136761   3.625   1.522   5.982 -0.7659  2.4828 -0.9715
 5066TIP3    H236762   3.746   1.579   5.912  1.3561 -0.9679 -0.3225
 5067TIP3   OH236763   5.344   5.026   6.993 -0.7185  0.0068 -0.0229
 5067TIP3    H136764   5.329   5.026   7.088  1.2809  1.3687  0.3581
 5067TIP3    H236765   5.438   5.009   6.984 -1.0316 -0.9759 -1.8286
 5068TIP3   OH236766   1.937   1.911   6.643 -0.0760  0.2236 -0.9323
 5068TIP3    H136767   1.933   1.943   6.553 -2.1668 -1.9272 -1.7103
 5068TIP3    H236768   2.002   1.841   6.640  1.4118  1.5079 -0.2039
 5069TIP3   OH236769   1.721   3.609   8.290 -0.6360  0.3040  0.2162
 5069TIP3    H136770   1.783   3.536   8.282 -0.1516  0.8256 -1.0182
 5069TIP3    H236771   1.710   3.621   8.384  0.8362 -0.0667  0.4549
 5070TIP3   OH236772   6.272   4.598   6.458  0.2874 -0.2819 -0.3633
 5070TIP3    H136773   6.280   4.548   6.377 -0.9768 -1.3167  0.1199
 5070TIP3    H236774   6.356   4.584   6.503  0.8370 -0.0385 -1.2764
 5071TIP3   OH236775   5.320   2.574   0.012 -0.2988  0.4621 -0.3827
 5071TIP3    H136776   5.325   2.513   0.086  1.6583 -1.9623 -2.3335
 5071TIP3    H236777   5.411   2.603  -0.001 -0.5210  0.4969 -2.0592
 5072TIP3   OH236778   6.031   2.757   6.799 -0.1130 -0.3819  0.0978
 5072TIP3    H136779   5.948   2.746   6.753  0.7787  0.0958 -1.7279
 5072TIP3    H236780   6.051   2.850   6.792  0.1817 -0.3380  1.2702
 5073TIP3   OH236781   3.236   0.485   7.295  0.0535  0.4164 -0.3058
 5073TIP3    H136782   3.309   0.536   7.259  1.7494 -2.4726 -1.3325
 5073TIP3    H236783   3.171   0.482   7.224 -0.5142  1.8635  0.1171
 5074TIP3   OH236784   1.266   5.471   8.209  0.2904  0.1514 -0.1673
 5074TIP3    H136785   1.328   5.514   8.269  0.3257  0.3234 -0.3262
 5074TIP3    H236786   1.315   5.398   8.172 -0.0454 -0.5696  0.7697
 5075TIP3   OH236787   4.614   0.287   1.785 -0.0968  0.3257 -0.7239
 5075TIP3    H136788   4.646   0.289   1.695  0.0047 -0.8867 -0.7254
 5075TIP3    H236789   4.605   0.379   1.809  1.7356  0.7049 -1.3155
 5076TIP3   OH236790   1.160   6.779   1.489 -0.6944 -0.2768  0.0028
 5076TIP3    H136791   1.158   6.687   1.462  3.7630 -1.4319  2.5727
 5076TIP3    H236792   1.209   6.823   1.420 -0.9395 -0.2921 -0.1822
 5077TIP3   OH236793   3.939   2.297   7.634  0.2214 -0.4653 -0.0054
 5077TIP3    H136794   4.014   2.352   7.658  0.2563 -0.1173 -0.8905
 5077TIP3    H236795   3.914   2.327   7.547 -1.0126 -0.5137  0.3122
 5078TIP3   OH236796   5.315   4.854   7.477  0.6433 -0.5706 -0.1907
 5078TIP3    H136797   5.221   4.861   7.461  0.7318  1.2448 -0.1447
 5078TIP3    H236798   5.349   4.943   7.464  2.1420 -0.8926  1.1259
 5079TIP3   OH236799   5.287   3.765   8.015  0.4923  0.4094 -0.4319
 5079TIP3    H136800   5.200   3.759   7.977 -0.4716 -2.2575  1.8493
 5079TIP3    H236801   5.274   3.806   8.100  1.6861  1.1708 -0.5909
 5080TIP3   OH236802   1.933   5.346   1.651 -0.1924 -0.1291  0.4517
 5080TIP3    H136803   1.975   5.427   1.621 -0.8446 -0.5201 -1.6129
 5080TIP3    H236804   1.998   5.278   1.636  0.1668 -0.0992  1.7276
 5081TIP3   OH236805   5.754   5.593   5.981  0.3427 -0.3382 -0.1905
 5081TIP3    H136806   5.776   5.670   5.929 -0.2345 -0.2883 -0.3785
 5081TIP3    H236807   5.794   5.520   5.934  0.9339 -0.1472  0.0162
 5082TIP3   OH236808   5.585   3.597   1.462  0.0109  0.4965  0.2275
 5082TIP3    H136809   5.611   3.610   1.371 -1.3292 -1.4487 -0.4978
 5082TIP3    H236810   5.505   3.648   1.471 -0.7061 -0.5122 -0.1852
 5083TIP3   OH236811   1.591   0.229   7.151 -0.2954 -0.1087  0.3062
 5083TIP3    H136812   1.510   0.217   7.201  0.6503 -0.5051  1.8328
 5083TIP3    H236813   1.622   0.316   7.178 -0.6467  0.4184 -0.9462
 5084TIP3   OH236814   5.464   3.001   7.029  0.3047  0.0643 -0.7422
 5084TIP3    H136815   5.412   2.968   6.955  1.3780 -0.1783 -1.4052
 5084TIP3    H236816   5.533   3.054   6.988  1.2073 -0.4829  0.0524
 5085TIP3   OH236817   4.390   0.886   1.628  0.3483  0.1758  0.1870
 5085TIP3    H136818   4.352   0.859   1.545  0.6774  2.0395 -0.6331
 5085TIP3    H236819   4.332   0.956   1.659  1.5048  1.1124  0.3171
 5086TIP3   OH236820   2.162   3.840   1.850 -0.2821 -0.7937 -0.0284
 5086TIP3    H136821   2.249   3.805   1.830  1.0320  1.8253  0.7518
 5086TIP3    H236822   2.174   3.891   1.930 -3.0823 -2.1728  1.4491
 5087TIP3   OH236823   3.856   3.358   2.204  0.3856 -0.2835 -0.2456
 5087TIP3    H136824   3.764   3.336   2.186 -0.2767  2.4099 -0.5758
 5087TIP3    H236825   3.857   3.380   2.297  0.5833  0.1597 -0.3522
 5088TIP3   OH236826   1.039   5.051   1.313  0.8203  0.1220 -0.7448
 5088TIP3    H136827   1.052   5.145   1.328  0.0292  0.0217  0.7170
 5088TIP3    H236828   1.093   5.008   1.379 -1.2157 -0.3682  0.7098
 5089TIP3   OH236829   5.110   1.200   7.967  0.8463 -0.1534 -0.3672
 5089TIP3    H136830   5.171   1.228   8.035  0.1636  1.3399 -0.3327
 5089TIP3    H236831   5.024   1.217   8.004  0.4208 -1.3858 -0.7635
 5090TIP3   OH236832   6.392   2.850   0.682 -0.1309 -0.4576 -0.2254
 5090TIP3    H136833   6.402   2.839   0.777  0.4995  1.0480 -0.0938
 5090TIP3    H236834   6.467   2.904   0.656 -1.7638  1.4723 -1.1284
 5091TIP3   OH236835   2.055   4.552   8.058  0.4240 -0.2472  0.2215
 5091TIP3    H136836   2.092   4.593   8.136  0.7252 -1.4121  0.7184
 5091TIP3    H236837   2.075   4.459   8.069 -2.0139 -0.8420  0.1358
 5092TIP3   OH236838   0.518   1.607   0.684 -0.4885 -0.2646  0.5435
 5092TIP3    H136839   0.606   1.588   0.715 -0.2458  0.9971  0.6813
 5092TIP3    H236840   0.527   1.609   0.588  0.1170  1.9116  0.6016
 5093TIP3   OH236841   3.950   1.657   7.906  0.2554 -0.1183 -0.3063
 5093TIP3    H136842   3.905   1.608   7.974 -0.7463  0.6147 -0.4134
 5093TIP3    H236843   4.007   1.593   7.863  2.7431 -0.1542  2.6988
 5094TIP3   OH236844   4.890   3.270   2.471  0.3288 -0.1907 -0.2825
 5094TIP3    H136845   4.944   3.259   2.392  1.0565  1.2697 -0.0146
 5094TIP3    H236846   4.865   3.362   2.470 -2.1612 -0.7883 -0.3555
 5095TIP3   OH236847   1.855   2.025   1.482 -0.7144 -0.1828 -0.2998
 5095TIP3    H136848   1.933   1.970   1.468 -1.0580 -0.4935 -1.0263
 5095TIP3    H236849   1.884   2.113   1.458 -0.3584 -0.1629  0.1993
 5096TIP3   OH236850   2.927   4.103   1.623 -0.8253 -0.1021  0.7931
 5096TIP3    H136851   2.867   4.178   1.621 -1.7236 -0.8197 -1.0780
 5096TIP3    H236852   2.903   4.051   1.547  1.0918 -1.3048  0.9553
 5097TIP3   OH236853   2.256   2.904   0.602  0.0342  0.5712  0.4559
 5097TIP3    H136854   2.282   2.994   0.620 -0.5155  0.8370 -0.0312
 5097TIP3    H236855   2.245   2.864   0.688  2.1553  0.3913  0.7049
 5098TIP3   OH236856   3.232   1.780   1.873  1.0096  0.1418  0.1222
 5098TIP3    H136857   3.298   1.719   1.843  0.9944  0.5261 -0.7253
 5098TIP3    H236858   3.162   1.725   1.907  2.2116 -0.2582  2.0897
 5099TIP3   OH236859   0.083   3.517   7.300  0.4539 -0.1519  0.1717
 5099TIP3    H136860   0.075   3.547   7.209  0.5234  0.8475  0.4851
 5099TIP3    H236861   0.036   3.434   7.302  0.4473 -0.1778 -0.7811
 5100TIP3   OH236862   2.553   2.373   7.227 -0.0108 -0.5487 -0.0764
 5100TIP3    H136863   2.471   2.345   7.186 -0.3883 -1.7084  1.3492
 5100TIP3    H236864   2.531   2.452   7.275 -0.0930 -0.3958 -0.3677
 5101TIP3   OH236865   2.260   0.448   1.086  0.1429 -0.1952  0.7162
 5101TIP3    H136866   2.312   0.528   1.098  0.9916 -0.6593  0.2501
 5101TIP3    H236867   2.199   0.469   1.016  0.7016 -0.0951  0.2444
 5102TIP3   OH236868   5.226   3.140   1.291 -0.0269  0.2612 -0.5406
 5102TIP3    H136869   5.183   3.139   1.377 -0.4582 -4.7623 -0.5327
 5102TIP3    H236870   5.154   3.137   1.228  0.3116  1.0592 -0.9808
 5103TIP3   OH236871   1.786   6.580   8.635  0.7382 -0.4631 -0.0558
 5103TIP3    H136872   1.790   6.639   8.560 -0.4367  0.4752  0.5818
 5103TIP3    H236873   1.774   6.637   8.711  1.7666 -1.4017  0.8482
 5104TIP3   OH236874   1.020   3.461   0.861 -0.1089 -0.1873  0.2782
 5104TIP3    H136875   0.968   3.386   0.830  0.5463 -0.6924  0.3653
 5104TIP3    H236876   1.009   3.527   0.793 -0.6392 -0.3858  0.1618
 5105TIP3   OH236877   0.668   4.756   7.782 -0.0300  0.2849  0.8826
 5105TIP3    H136878   0.590   4.785   7.734  0.5210 -1.5592 -1.2862
 5105TIP3    H236879   0.652   4.664   7.802  0.7145  0.4412  2.3494
 5106TIP3   OH236880   5.951   5.975   0.685 -0.4051  0.2690 -0.2121
 5106TIP3    H136881   5.974   6.031   0.759 -2.4551  1.0231 -0.0648
 5106TIP3    H236882   5.951   6.035   0.610 -1.9213  0.3593 -0.1718
 5107TIP3   OH236883   5.495   3.776   0.766 -0.0221  0.1737 -0.1586
 5107TIP3    H136884   5.453   3.861   0.751  0.0264 -0.1471 -2.4029
 5107TIP3    H236885   5.477   3.726   0.687  0.9607 -1.5062  0.6312
 5108TIP3   OH236886   6.626   2.786   7.855  0.4910 -0.4914 -0.3915
 5108TIP3    H136887   6.621   2.782   7.759  1.2568  1.0140 -0.5363
 5108TIP3    H236888   6.720   2.781   7.874  0.2469 -2.6252  0.4311
 5109TIP3   OH236889   6.341   0.546   8.323 -0.4614  0.0790 -0.6623
 5109TIP3    H136890   6.311   0.636   8.310 -0.9576 -0.2262 -1.7444
 5109TIP3    H236891   6.392   0.550   8.404 -1.9668  0.9607  0.2877
 5110TIP3   OH236892   4.260   3.134   2.224 -0.7008  0.0045 -0.0264
 5110TIP3    H136893   4.349   3.168   2.213 -0.8942  1.8005  2.8328
 5110TIP3    H236894   4.203   3.205   2.193 -1.0929  0.5237  1.7751
 5111TIP3   OH236895   0.909   4.802   2.373 -0.1514 -0.5967 -0.8053
 5111TIP3    H136896   0.899   4.895   2.351 -1.7122 -0.8180 -1.1566
 5111TIP3    H236897   0.958   4.802   2.455 -0.8844  0.5794 -0.3406
 5112TIP3   OH236898   1.817   1.600   8.086 -0.1371 -0.5274  0.2645
 5112TIP3    H136899   1.770   1.580   8.167 -0.0361 -1.0610  0.1970
 5112TIP3    H236900   1.885   1.662   8.113 -0.8907  0.2784  0.3540
 5113TIP3   OH236901   0.598   0.034   1.380  0.5542  0.0288 -0.3172
 5113TIP3    H136902   0.505   0.021   1.397  0.2910  0.4165 -1.4372
 5113TIP3    H236903   0.619  -0.028   1.310  0.9205  0.6320 -0.7441
 5114TIP3   OH236904   5.510   0.079   6.986  0.1927 -0.3127 -0.0955
 5114TIP3    H136905   5.560   0.028   7.049  0.1180 -0.9781 -0.5735
 5114TIP3    H236906   5.457   0.015   6.939  1.5648 -0.0735 -2.0675
 5115TIP3   OH236907   4.645   2.657   8.659 -0.3251  0.2816  0.1300
 5115TIP3    H136908   4.652   2.601   8.581 -0.4130  3.0427 -2.0017
 5115TIP3    H236909   4.552   2.660   8.678 -0.1968 -1.4723  1.2678
 5116TIP3   OH236910   5.973   3.877   7.249 -0.2099 -0.1771  0.2306
 5116TIP3    H136911   6.014   3.940   7.190 -0.6937  0.8978  1.0064
 5116TIP3    H236912   5.910   3.929   7.299  0.1937 -1.0583  1.7042
 5117TIP3   OH236913   0.149   0.875   7.167  0.4713 -0.6263  0.1729
 5117TIP3    H136914   0.171   0.785   7.195  0.2421 -1.3937 -1.9414
 5117TIP3    H236915   0.115   0.865   7.079 -0.9814  1.4221  0.4269
 5118TIP3   OH236916   6.761   0.754   1.621  0.0415  0.0410  0.2720
 5118TIP3    H136917   6.678   0.707   1.614 -1.5562  2.7406 -0.6063
 5118TIP3    H236918   6.763   0.787   1.711 -0.1579  0.5002  0.1100
 5119TIP3   OH236919   4.736   4.727   0.049  0.2284  0.0355  0.4304
 5119TIP3    H136920   4.705   4.783   0.121 -2.2113 -1.5212  0.7494
 5119TIP3    H236921   4.740   4.639   0.088  0.4276 -0.5809 -0.9318
 5120TIP3   OH236922   1.384   2.940   1.584  0.0340  0.1686 -0.3469
 5120TIP3    H136923   1.331   2.943   1.663 -1.6864 -0.6626 -1.3951
 5120TIP3    H236924   1.450   3.009   1.596  0.2983 -0.4352  2.0817
 5121TIP3   OH236925   3.846   3.374   7.299 -0.0900 -0.5027 -0.5419
 5121TIP3    H136926   3.777   3.434   7.270 -0.5620  1.4491  3.8561
 5121TIP3    H236927   3.926   3.408   7.260 -0.7969  1.1582 -0.6032
 5122TIP3   OH236928   0.328   4.916   0.680 -0.3614 -0.1035 -0.5566
 5122TIP3    H136929   0.363   4.923   0.769  0.7076 -0.0623 -0.9595
 5122TIP3    H236930   0.319   4.822   0.666 -1.0901 -0.0964 -0.2131
 5123TIP3   OH236931   2.577   2.957   7.450 -0.4397 -0.2006 -0.2398
 5123TIP3    H136932   2.507   2.936   7.512  1.0817 -1.3034  1.2087
 5123TIP3    H236933   2.650   2.984   7.505  1.3672 -2.3373 -1.4389
 5124TIP3   OH236934   1.500   2.181   8.662  0.2814  0.6307  0.1668
 5124TIP3    H136935   1.488   2.185   8.567 -2.4796 -0.2336  0.4006
 5124TIP3    H236936   1.563   2.111   8.675 -1.3610 -1.1404 -0.9723
 5125TIP3   OH236937   2.086   2.052   7.900 -0.5444 -0.3339  0.4255
 5125TIP3    H136938   1.997   2.043   7.933  0.0194 -2.9673  1.4850
 5125TIP3    H236939   2.090   1.992   7.825  0.4427 -0.6098  0.6791
 5126TIP3   OH236940   3.086   4.115   2.153  0.0062 -0.6831 -0.3199
 5126TIP3    H136941   3.116   4.064   2.228  0.8845 -0.5038 -0.5338
 5126TIP3    H236942   3.163   4.165   2.126 -0.5731  0.0137 -0.7182
 5127TIP3   OH236943   4.983   5.998   8.255  0.3612  0.0618 -0.0683
 5127TIP3    H136944   5.054   6.022   8.195 -0.0499 -0.1864 -0.6575
 5127TIP3    H236945   5.028   5.966   8.333  0.9111  1.0924  0.0659
 5128TIP3   OH236946   2.478   2.049   1.209 -0.9236  0.7293 -0.1061
 5128TIP3    H136947   2.553   2.089   1.253 -1.1932 -0.7121  1.8017
 5128TIP3    H236948   2.481   2.083   1.119  2.1371  0.5306 -0.1623
 5129TIP3   OH236949   3.029   5.793   0.916 -0.1722 -0.0440 -0.3141
 5129TIP3    H136950   3.109   5.761   0.874  0.4254 -1.8220  1.9720
 5129TIP3    H236951   3.061   5.857   0.981 -0.8439  0.8252 -0.8157
 5130TIP3   OH236952   0.628   2.267   1.574  0.1019  0.5804 -0.0016
 5130TIP3    H136953   0.699   2.212   1.606  1.3930  2.2436  0.1460
 5130TIP3    H236954   0.553   2.208   1.564  0.7192 -0.7220  2.4512
 5131TIP3   OH236955   2.784   1.953   7.411 -0.1451 -0.0553  0.4122
 5131TIP3    H136956   2.812   2.024   7.470 -0.0525  0.6388 -0.4487
 5131TIP3    H236957   2.859   1.940   7.353  0.3154 -1.7194  1.3245
 5132TIP3   OH236958   3.048   3.463   1.427  0.2045  0.2802  0.1998
 5132TIP3    H136959   3.113   3.526   1.460  0.2606 -0.1398  0.8983
 5132TIP3    H236960   3.036   3.488   1.335  0.1589  1.3724  0.4816
 5133TIP3   OH236961   5.108   5.911   1.471 -0.2219 -0.0406 -0.3930
 5133TIP3    H136962   5.072   5.918   1.383  0.1388  1.0477 -0.4709
 5133TIP3    H236963   5.074   5.988   1.517  2.2112  1.2818 -0.5851
 5134TIP3   OH236964   0.599   5.281   2.495  0.7697  0.3096  0.1790
 5134TIP3    H136965   0.583   5.197   2.538 -0.8823 -0.1245 -1.1538
 5134TIP3    H236966   0.633   5.258   2.409 -1.0138  0.8862 -0.7352
 5135TIP3   OH236967   2.935   4.639   7.022  0.8183  0.6454  0.4838
 5135TIP3    H136968   2.903   4.640   6.932  0.6791  0.2604  0.5258
 5135TIP3    H236969   2.870   4.587   7.070 -0.5244  2.9210  1.3362
 5136TIP3   OH236970   6.144   3.052   0.894  0.4924 -0.4953  0.2571
 5136TIP3    H136971   6.057   3.020   0.920  0.1478 -0.7602 -1.1549
 5136TIP3    H236972   6.204   3.007   0.954 -0.1958 -1.7980  0.0102
 5137TIP3   OH236973   5.263   4.892   2.150 -0.0630  0.0032 -0.4732
 5137TIP3    H136974   5.202   4.966   2.155  0.3704  0.5003 -1.7854
 5137TIP3    H236975   5.320   4.914   2.075  2.8277  0.4236  1.6477
 5138TIP3   OH236976   6.113   1.213   0.596 -0.0346  0.4032 -0.4342
 5138TIP3    H136977   6.052   1.157   0.644 -0.8017  2.1484  0.7435
 5138TIP3    H236978   6.198   1.196   0.636 -0.3920  0.6031  0.4348
 5139TIP3   OH236979   0.301   1.530   0.230 -0.0133 -0.1411 -0.2705
 5139TIP3    H136980   0.260   1.556   0.313  0.5660  0.2863 -0.1039
 5139TIP3    H236981   0.310   1.435   0.236 -2.2385 -0.4533 -0.9154
 5140TIP3   OH236982   5.637   2.296   8.176 -0.1109 -0.1012 -0.0899
 5140TIP3    H136983   5.613   2.309   8.084 -0.1043  0.3969 -0.0251
 5140TIP3    H236984   5.553   2.302   8.223 -0.0150  0.5053  0.0198
 5141TIP3   OH236985   2.655   1.474   7.545 -0.4937 -0.1761 -0.2728
 5141TIP3    H136986   2.658   1.570   7.543  0.0449 -0.1900 -2.0288
 5141TIP3    H236987   2.724   1.447   7.486 -1.4532 -1.6343 -0.7781
 5142TIP3   OH236988   0.628   4.130   0.453  0.5027  0.5433  0.5821
 5142TIP3    H136989   0.639   4.198   0.520  0.5899  0.1179  0.9984
 5142TIP3    H236990   0.717   4.100   0.435  0.3541 -0.4599  1.4372
 5143TIP3   OH236991   5.579   2.311   7.043 -0.1597  0.2272 -0.6413
 5143TIP3    H136992   5.506   2.319   6.982 -0.8202  1.5044  0.2733
 5143TIP3    H236993   5.555   2.367   7.117  0.9164 -0.7670  0.5013
 5144TIP3   OH236994   1.438   1.957   6.845 -0.0393  0.6372  0.1918
 5144TIP3    H136995   1.472   1.924   6.928  0.2493  1.8069  0.5490
 5144TIP3    H236996   1.495   1.918   6.779  0.2524  0.3688  0.5947
 5145TIP3   OH236997   0.883   3.273   0.680 -0.6174 -0.2055  0.2212
 5145TIP3    H136998   0.832   3.196   0.705 -0.6726 -0.8778 -1.7902
 5145TIP3    H236999   0.835   3.310   0.606  1.4865 -0.5306 -1.3731
 5146TIP3   OH237000   6.804   4.498   0.424  0.4397  0.0863  0.2380
 5146TIP3    H137001   6.797   4.433   0.354 -0.2001 -0.0708  0.4368
 5146TIP3    H237002   6.716   4.502   0.462  0.4953  0.9931  0.3008
 5147TIP3   OH237003   4.564   4.246   8.431  0.1639 -0.1344 -0.0024
 5147TIP3    H137004   4.625   4.190   8.478  0.1044  0.3345  0.6503
 5147TIP3    H237005   4.502   4.276   8.498 -0.5165 -0.2480 -0.5683
 5148TIP3   OH237006   1.664   1.785   0.427  0.5600  0.2320 -0.1005
 5148TIP3    H137007   1.611   1.812   0.502  1.4116  0.0699  0.5645
 5148TIP3    H237008   1.747   1.830   0.438  0.6261  0.3742 -1.0720
 5149TIP3   OH237009   0.756   6.347   8.680  0.1634  0.5172  0.2145
 5149TIP3    H137010   0.690   6.282   8.656 -0.5932  1.3388  0.0321
 5149TIP3    H237011   0.730   6.426   8.633 -0.3979  1.7048  2.3531
 5150TIP3   OH237012   1.718   0.065   0.877  0.5400  0.0391 -0.0499
 5150TIP3    H137013   1.657  -0.006   0.896 -0.5410  1.5410  2.5805
 5150TIP3    H237014   1.767   0.078   0.958  2.0586  1.0781 -1.0606
 5151TIP3   OH237015   2.964   1.981   8.652  0.6988  0.1147 -0.5273
 5151TIP3    H137016   2.971   1.971   8.747  0.4401 -1.6851 -0.6496
 5151TIP3    H237017   2.907   2.057   8.639  1.5627  1.0048  0.7288
 5152TIP3   OH237018   1.220   2.475   7.245 -0.1812  0.5181  0.1312
 5152TIP3    H137019   1.316   2.476   7.254  0.0922 -2.2280 -1.2360
 5152TIP3    H237020   1.189   2.432   7.325 -0.3712  1.8546  0.8068
 5153TIP3   OH237021   3.320   0.166   2.031  0.4059  0.5119 -0.1705
 5153TIP3    H137022   3.402   0.215   2.028  0.1899  0.8362 -0.8580
 5153TIP3    H237023   3.258   0.219   1.981 -0.6259  1.0083  1.5328
 5154TIP3   OH237024   2.855   2.990   1.946  0.0737 -0.5451 -0.0455
 5154TIP3    H137025   2.766   3.025   1.935  0.0447 -0.7647 -0.5358
 5154TIP3    H237026   2.895   2.999   1.859  0.4134 -0.7694  0.0886
 5155TIP3   OH237027   2.629   1.573   8.257 -0.5177  0.0202  0.2088
 5155TIP3    H137028   2.583   1.548   8.337  0.6625  1.6326  1.4597
 5155TIP3    H237029   2.719   1.585   8.284 -0.2790  1.5969 -1.1542
 5156TIP3   OH237030   0.280   1.573   6.700  0.1305 -1.0353 -0.2115
 5156TIP3    H137031   0.318   1.648   6.745 -1.0684  0.5567 -1.7171
 5156TIP3    H237032   0.350   1.540   6.644  0.5951 -0.9019  0.2838
 5157TIP3   OH237033   4.232   2.916   7.468  1.1315 -0.2754 -0.0178
 5157TIP3    H137034   4.156   2.948   7.419 -0.4403 -0.0713  2.3676
 5157TIP3    H237035   4.221   2.820   7.469  0.4008 -0.1962  1.0185
 5158TIP3   OH237036   2.902   6.780   7.680 -0.0785 -0.3923 -0.9260
 5158TIP3    H137037   2.820   6.773   7.630 -0.4768 -1.3342 -0.1739
 5158TIP3    H237038   2.971   6.767   7.614 -0.4842  0.9002 -1.6566
 5159TIP3   OH237039   5.108   1.191   6.501 -0.3128 -0.5323  0.0525
 5159TIP3    H137040   5.028   1.201   6.450  0.8012 -0.6616 -1.8195
 5159TIP3    H237041   5.124   1.097   6.502  1.9198 -0.3783 -3.2379
 5160TIP3   OH237042   2.738   0.352   8.562  0.1973 -0.5054 -0.1375
 5160TIP3    H137043   2.819   0.302   8.575  0.1147 -0.2051  1.9169
 5160TIP3    H237044   2.716   0.385   8.650 -0.9257  1.3196 -1.0402
 5161TIP3   OH237045   1.071   3.301   6.632 -0.2856  0.3891  0.2541
 5161TIP3    H137046   0.986   3.268   6.602  0.5247 -0.9454 -0.6486
 5161TIP3    H237047   1.091   3.373   6.572 -0.1318 -0.2182 -0.4324
 5162TIP3   OH237048   0.197   1.430   1.566 -0.2808 -0.0092 -0.1892
 5162TIP3    H137049   0.127   1.378   1.606  0.1368  0.1659  0.7874
 5162TIP3    H237050   0.206   1.506   1.622  0.9137 -0.1858 -0.1208
 5163TIP3   OH237051   5.279   6.736   2.348  0.1881  0.1412  0.0478
 5163TIP3    H137052   5.249   6.827   2.345  0.1118  0.2475  2.3440
 5163TIP3    H237053   5.260   6.708   2.437  2.5305 -1.3315  0.1531
 5164TIP3   OH237054   4.899   6.704   1.643  0.0081  0.3349 -0.3061
 5164TIP3    H137055   4.949   6.622   1.636  0.2966  0.4322  0.5374
 5164TIP3    H237056   4.954   6.769   1.598  1.5839  0.8398  2.1470
 5165TIP3   OH237057   2.139   4.573   1.909  0.5619  0.2086  0.5892
 5165TIP3    H137058   2.145   4.595   2.002  0.3249 -0.0811  0.6749
 5165TIP3    H237059   2.053   4.605   1.883  0.8456  0.7794  0.3330
 5166TIP3   OH237060   1.217   2.808   0.090  0.5776  0.0446 -0.4269
 5166TIP3    H137061   1.300   2.855   0.080  0.2327  0.5338 -1.0218
 5166TIP3    H237062   1.160   2.845   0.023 -0.4018  0.3169  0.5269
 5167TIP3   OH237063   4.459   0.036   8.279  0.3830 -0.2354 -0.1023
 5167TIP3    H137064   4.364   0.043   8.271  0.3553 -0.0997  0.3314
 5167TIP3    H237065   4.486   0.118   8.319  0.6717 -0.3229 -0.1156
 5168TIP3   OH237066   4.405   1.505   6.179  0.0815 -0.2056 -0.0800
 5168TIP3    H137067   4.407   1.591   6.137 -0.3820  0.5110  1.2960
 5168TIP3    H237068   4.497   1.479   6.185  0.2969  0.6316  0.3503
 5169TIP3   OH237069   3.790   5.028   2.065  0.0160  0.5402  0.1611
 5169TIP3    H137070   3.858   5.087   2.099  0.4882  0.5041 -0.6962
 5169TIP3    H237071   3.774   5.059   1.976 -0.6033  0.1098  0.1197
 5170TIP3   OH237072   5.731   5.207   7.424 -0.0731 -0.4019  0.2508
 5170TIP3    H137073   5.636   5.206   7.411 -0.6011  3.4394  2.3591
 5170TIP3    H237074   5.763   5.266   7.356  0.5188 -0.1101  0.7840
 5171TIP3   OH237075   3.851   1.086   0.047 -0.2612 -0.2295  0.2907
 5171TIP3    H137076   3.851   1.144  -0.029  0.9158 -0.2172  0.2772
 5171TIP3    H237077   3.894   1.006   0.016  1.8393  0.4223  1.3822
 5172TIP3   OH237078   4.950   4.121   8.043  0.5050  0.0671  0.4822
 5172TIP3    H137079   4.887   4.067   8.092  0.8877 -1.0506 -0.2105
 5172TIP3    H237080   5.033   4.108   8.089  0.3445  1.1840  1.1258
 5173TIP3   OH237081   1.802   4.219   7.491  0.0336  0.1814  0.1367
 5173TIP3    H137082   1.733   4.196   7.553  1.2295  0.0464  1.4603
 5173TIP3    H237083   1.874   4.159   7.511  0.6036  0.3989 -1.1297
 5174TIP3   OH237084   1.316   1.451   0.769  0.2843  0.3355  0.2006
 5174TIP3    H137085   1.274   1.379   0.816  1.9982  0.1100  1.5025
 5174TIP3    H237086   1.248   1.484   0.710 -0.9457 -1.4916  0.5000
 5175TIP3   OH237087   5.927   2.751   8.137  0.1066 -0.4689  0.4344
 5175TIP3    H137088   5.966   2.833   8.109 -2.1780  1.0353  1.4299
 5175TIP3    H237089   5.999   2.687   8.130  2.2143  1.7503  0.4884
 5176TIP3   OH237090   4.258   5.478   1.385 -0.2412  0.0117  0.6006
 5176TIP3    H137091   4.353   5.485   1.394 -0.2776  2.3272 -0.2179
 5176TIP3    H237092   4.233   5.410   1.448  1.7358  0.7198  2.2752
 5177TIP3   OH237093   0.388   5.175   1.478  0.6210  0.4411 -0.2230
 5177TIP3    H137094   0.444   5.101   1.454  1.6042  0.6606  1.2936
 5177TIP3    H237095   0.437   5.252   1.450  0.3632  0.5847 -0.2829
 5178TIP3   OH237096   3.535   3.194   8.493  0.1468  0.1310  0.5584
 5178TIP3    H137097   3.545   3.267   8.553  0.3595  1.2235 -0.7544
 5178TIP3    H237098   3.515   3.119   8.549  0.2660  1.1133  1.9616
 5179TIP3   OH237099   4.542   1.142   8.757  0.2397  0.5525 -0.5462
 5179TIP3    H137100   4.457   1.097   8.756 -0.1060  1.2101 -1.3667
 5179TIP3    H237101   4.545   1.191   8.675  1.7899 -0.1311 -0.9414
 5180TIP3   OH237102   2.738   1.608   8.680 -0.1351 -0.3779  0.2620
 5180TIP3    H137103   2.754   1.538   8.743 -1.7705 -0.5366  0.5454
 5180TIP3    H237104   2.695   1.677   8.731  2.1566  1.2576  0.1936
 5181TIP3   OH237105   4.331   6.805   2.803  0.3366 -0.0501  0.7415
 5181TIP3    H137106   4.423   6.814   2.777  0.4414 -1.2465  0.6612
 5181TIP3    H237107   4.282   6.832   2.725  0.6106  0.3995  0.7177
 5182TIP3   OH237108   6.574   6.067   1.818 -0.0622  0.0086 -0.4336
 5182TIP3    H137109   6.586   6.161   1.827 -1.4320  0.2919 -1.3326
 5182TIP3    H237110   6.505   6.045   1.881 -0.3660 -0.2424 -0.8499
 5183TIP3   OH237111   2.950   5.792   7.860  0.1123 -0.4399 -0.3570
 5183TIP3    H137112   3.029   5.737   7.862 -0.3107 -1.0517 -0.3586
 5183TIP3    H237113   2.911   5.776   7.775 -0.7409 -1.1735  0.1627
 5184TIP3   OH237114   2.498   4.002   8.649 -0.1983  0.2648 -0.0061
 5184TIP3    H137115   2.550   3.950   8.587  1.0638 -1.0095  2.0037
 5184TIP3    H237116   2.428   3.942   8.677 -0.1950  0.4874  0.4916
 5185TIP3   OH237117   5.549   3.299   5.984  0.2071  0.1639  0.0905
 5185TIP3    H137118   5.584   3.354   6.053 -0.2347  0.4639  0.0805
 5185TIP3    H237119   5.566   3.209   6.013 -0.2911  0.2770  0.7598
 5186TIP3   OH237120   0.257   3.907   0.023  0.1209  0.5270  0.0329
 5186TIP3    H137121   0.315   3.874   0.091 -2.1411 -0.6264  1.5166
 5186TIP3    H237122   0.186   3.842   0.018 -0.8097  1.5951 -2.0461
 5187TIP3   OH237123   2.879   3.055   1.072 -0.0408 -0.5984 -0.1604
 5187TIP3    H137124   2.909   3.031   0.985 -0.5999 -0.4458 -0.4031
 5187TIP3    H237125   2.788   3.024   1.075 -1.1814  2.3934 -0.8765
 5188TIP3   OH237126   4.220   6.297   1.550 -0.2206 -0.3019 -0.8008
 5188TIP3    H137127   4.313   6.316   1.538 -0.3864  0.0079 -1.6315
 5188TIP3    H237128   4.188   6.273   1.463 -1.4330  1.9624 -1.0568
 5189TIP3   OH237129   2.118   5.957   2.308 -0.2007 -0.1725 -0.4258
 5189TIP3    H137130   2.180   6.008   2.360 -0.8061 -0.9916  1.1634
 5189TIP3    H237131   2.173   5.905   2.249  0.5248  0.4106 -0.2770
 5190TIP3   OH237132   4.631   4.250   0.744 -0.7934  0.0842 -0.3411
 5190TIP3    H137133   4.624   4.202   0.662 -1.2435 -1.4925  0.5692
 5190TIP3    H237134   4.540   4.255   0.776 -0.4844 -0.5360  0.6959
 5191TIP3   OH237135   2.215   2.706   0.835 -0.6528 -0.2507  0.0947
 5191TIP3    H137136   2.215   2.620   0.794 -0.7933  0.3665 -1.2775
 5191TIP3    H237137   2.133   2.710   0.884 -0.1525 -1.2684  1.0496
 5192TIP3   OH237138   5.065   1.902   1.811 -0.3047 -0.3068 -0.1013
 5192TIP3    H137139   5.130   1.966   1.781  0.6253 -1.4369 -0.5839
 5192TIP3    H237140   4.981   1.948   1.805  0.4405  1.1842  0.5383
 5193TIP3   OH237141   5.127   5.994   8.501  0.3491 -0.5837 -0.2981
 5193TIP3    H137142   5.163   5.941   8.572  1.2318  1.5612  0.9247
 5193TIP3    H237143   5.203   6.034   8.460 -0.3356  0.2080 -0.8118
 5194TIP3   OH237144   0.040   6.517   7.840 -0.2694 -0.7952 -0.0076
 5194TIP3    H137145  -0.053   6.500   7.827 -0.1702  0.2443 -2.6123
 5194TIP3    H237146   0.044   6.609   7.864  0.0795 -0.8901  0.3016
 5195TIP3   OH237147   6.785   2.561   1.519  0.0586 -0.2510 -0.1443
 5195TIP3    H137148   6.860   2.513   1.484  0.4453 -2.2107  2.9497
 5195TIP3    H237149   6.729   2.492   1.556 -2.0722  1.3551 -0.2402
 5196TIP3   OH237150   1.071   0.044   7.232 -0.5654 -0.4028  0.2716
 5196TIP3    H137151   1.007  -0.027   7.225 -0.8284 -0.0732 -0.7723
 5196TIP3    H237152   1.040   0.110   7.170  1.2965 -0.6428 -0.9769
 5197TIP3   OH237153   6.260   3.362   8.119 -0.4752  0.0876 -0.0823
 5197TIP3    H137154   6.206   3.296   8.074  0.4428 -0.0137 -1.1014
 5197TIP3    H237155   6.209   3.442   8.114 -0.7792 -0.1258 -0.5513
 5198TIP3   OH237156   2.906   4.579   0.119 -0.6695 -0.0527 -0.2725
 5198TIP3    H137157   2.936   4.655   0.169 -0.6325  0.8248 -1.5583
 5198TIP3    H237158   2.843   4.616   0.056 -0.1523 -0.9689 -1.3549
 5199TIP3   OH237159   4.829   3.913   1.335 -0.4358 -0.0859  0.1909
 5199TIP3    H137160   4.844   3.915   1.430 -0.3293  0.0667  0.1713
 5199TIP3    H237161   4.816   4.004   1.311 -1.5676 -0.2307  0.2273
 5200TIP3   OH237162   6.399   4.580   6.907  0.3577 -0.1260  0.1794
 5200TIP3    H137163   6.386   4.621   6.993  1.7583 -0.4111  0.5441
 5200TIP3    H237164   6.484   4.536   6.913  0.8443  0.4843 -1.6046
 5201TIP3   OH237165   1.372   3.781   7.771  0.1999 -0.0146  0.0054
 5201TIP3    H137166   1.402   3.831   7.695 -3.0928  2.3433  0.0497
 5201TIP3    H237167   1.410   3.827   7.846 -0.4537  0.6296 -0.0559
 5202TIP3   OH237168   4.924   0.792   8.645  0.4736 -0.0421  0.0033
 5202TIP3    H137169   4.831   0.815   8.655  0.8828  1.8785 -0.1428
 5202TIP3    H237170   4.951   0.766   8.733  0.5248  2.5788  0.8545
 5203TIP3   OH237171   2.057   4.561   7.410  0.1950  0.0172 -0.6280
 5203TIP3    H137172   2.147   4.596   7.413  0.8886 -1.7389  0.0575
 5203TIP3    H237173   2.068   4.467   7.398 -1.4579 -0.6103  1.8841
 5204TIP3   OH237174   3.128   4.886   1.294 -0.3038  0.2220  0.0591
 5204TIP3    H137175   3.223   4.878   1.299 -0.1670  0.6785 -1.3041
 5204TIP3    H237176   3.106   4.859   1.205 -1.3396  1.0380  0.0446
 5205TIP3   OH237177   6.004   2.614   0.685 -0.3501 -0.0405  0.4464
 5205TIP3    H137178   5.975   2.693   0.640 -1.7554 -1.3707 -1.1230
 5205TIP3    H237179   5.951   2.610   0.764 -0.3254  0.5385  0.4941
 5206TIP3   OH237180   1.321   2.973   7.523 -0.1038  0.0814 -0.0705
 5206TIP3    H137181   1.318   3.010   7.611 -2.3963 -1.2093  0.4640
 5206TIP3    H237182   1.414   2.952   7.509  0.3335  0.5240  1.9386
 5207TIP3   OH237183   3.106   6.461   8.074 -0.6443 -0.2733  0.2065
 5207TIP3    H137184   3.082   6.511   8.152 -0.5037  0.4859 -0.2247
 5207TIP3    H237185   3.054   6.501   8.004  0.7467  0.4167 -0.4644
 5208TIP3   OH237186   2.126   1.723   6.665  0.4729 -0.0726 -0.4436
 5208TIP3    H137187   2.157   1.652   6.609  0.3708 -1.8730  1.6529
 5208TIP3    H237188   2.156   1.699   6.753 -0.7081  1.8145  0.5426
 5209TIP3   OH237189   4.796   4.166   0.365  0.3731 -0.4474  0.0246
 5209TIP3    H137190   4.874   4.156   0.310 -0.4006 -1.3098 -0.9591
 5209TIP3    H237191   4.755   4.079   0.365 -0.5970 -0.0084  0.5241
 5210TIP3   OH237192   0.703   6.647   1.963  0.6336  0.2695  0.0599
 5210TIP3    H137193   0.715   6.567   1.913 -0.5694 -0.8344  1.4403
 5210TIP3    H237194   0.736   6.626   2.051  2.1098  1.9481 -0.0341
 5211TIP3   OH237195   5.852   2.190   7.848 -0.8010 -0.3427 -0.1390
 5211TIP3    H137196   5.814   2.106   7.874  3.1434 -2.0753  0.7424
 5211TIP3    H237197   5.867   2.182   7.754 -0.8175 -0.4565 -0.1321
 5212TIP3   OH237198   2.978   6.562   7.842 -0.0836 -0.2259  0.0339
 5212TIP3    H137199   2.954   6.646   7.803  0.6491  0.1324  0.3444
 5212TIP3    H237200   2.921   6.499   7.799 -0.9605  0.4897  0.1284
 5213TIP3   OH237201   3.103   2.152   7.706  0.0163 -0.4211 -0.4207
 5213TIP3    H137202   3.078   2.060   7.714 -2.1451  0.2038  0.9011
 5213TIP3    H237203   3.183   2.151   7.654  0.5222 -3.0902  0.2889
 5214TIP3   OH237204   2.515   5.155   8.313 -0.7264 -0.2802 -0.0506
 5214TIP3    H137205   2.491   5.238   8.272 -0.0122 -0.0998 -0.1196
 5214TIP3    H237206   2.524   5.094   8.240  0.2510 -0.0323 -0.1557
 5215TIP3   OH237207   2.770   5.068   0.211 -0.4765  0.2330 -0.4222
 5215TIP3    H137208   2.683   5.070   0.170 -0.1678 -1.7501 -1.2213
 5215TIP3    H237209   2.817   4.998   0.167  0.8122 -0.1667  1.4843
 5216TIP3   OH237210   4.865   3.372   6.152 -0.3575  0.7272  0.7995
 5216TIP3    H137211   4.878   3.456   6.197  0.0937  1.0803  0.0498
 5216TIP3    H237212   4.954   3.343   6.131 -0.5617  0.7563 -0.1565
 5217TIP3   OH237213   5.647   3.370   7.855 -1.0639  0.2561 -0.4066
 5217TIP3    H137214   5.631   3.395   7.764  0.4182  1.6882 -0.3398
 5217TIP3    H237215   5.586   3.424   7.906 -0.7952  0.6373 -0.4838
 5218TIP3   OH237216   2.235   2.706   1.237 -0.0170 -0.3106  0.2327
 5218TIP3    H137217   2.292   2.727   1.163  2.1073 -0.1874  1.7865
 5218TIP3    H237218   2.179   2.783   1.248  0.1617 -0.0284 -0.7941
 5219TIP3   OH237219   6.128   1.464   0.908 -0.0457 -0.0485 -0.4382
 5219TIP3    H137220   6.176   1.438   0.829 -1.2292 -0.7002 -0.9757
 5219TIP3    H237221   6.142   1.391   0.969 -0.7711 -0.5025 -0.7961
 5220TIP3   OH237222   1.069   5.303   1.365  0.1474 -0.0689  0.2711
 5220TIP3    H137223   1.106   5.350   1.290  2.2268 -1.9383  0.0173
 5220TIP3    H237224   1.142   5.295   1.426 -1.1166  0.1060  1.8613
 5221TIP3   OH237225   5.482   3.281   1.226  0.1329  0.2686 -0.0686
 5221TIP3    H137226   5.504   3.319   1.311 -1.8817  3.2009 -0.6846
 5221TIP3    H237227   5.395   3.242   1.239 -0.3991  1.1421 -0.8067
 5222TIP3   OH237228   0.416   0.842   6.899  0.0561 -0.0443 -0.1523
 5222TIP3    H137229   0.496   0.833   6.848  1.2871 -0.6627  1.7504
 5222TIP3    H237230   0.395   0.753   6.928 -0.7352  0.2534  0.2360
 5223TIP3   OH237231   4.108   1.504   7.717 -0.6204 -0.0359  0.2126
 5223TIP3    H137232   4.143   1.548   7.640 -0.7492 -0.6838 -0.2283
 5223TIP3    H237233   4.169   1.526   7.787 -0.6292  0.7480 -0.0179
 5224TIP3   OH237234   4.010   3.444   8.610  0.1221 -0.8171  0.1133
 5224TIP3    H137235   3.919   3.421   8.593 -0.3330  0.1799  1.0464
 5224TIP3    H237236   4.015   3.452   8.706  0.4245  1.9459 -0.0473
 5225TIP3   OH237237   6.467   5.038   1.554  0.1167 -0.1823 -0.1498
 5225TIP3    H137238   6.406   5.027   1.626  0.8985 -0.4101  0.4896
 5225TIP3    H237239   6.531   5.102   1.586  0.9817 -0.9613 -0.2954
 5226TIP3   OH237240   0.785   4.992   1.460 -0.3940 -0.5730 -0.3154
 5226TIP3    H137241   0.692   4.992   1.434 -0.9395  0.9750  1.4062
 5226TIP3    H237242   0.812   5.084   1.451  1.0209 -1.0150 -0.8444
 5227TIP3   OH237243   1.788   5.938   7.501 -0.0093  0.1150 -0.4209
 5227TIP3    H137244   1.875   5.933   7.463  0.3117  0.0654  0.3026
 5227TIP3    H237245   1.776   6.031   7.520  0.3086 -0.0096  0.4262
 5228TIP3   OH237246   5.251   2.410   1.386 -0.3239  0.1936  0.2524
 5228TIP3    H137247   5.272   2.498   1.353  1.1886 -0.5340 -0.9069
 5228TIP3    H237248   5.182   2.379   1.328 -0.4268  0.3971  0.2663
 5229TIP3   OH237249   2.138   3.924   0.872 -0.0833 -0.1067 -0.0062
 5229TIP3    H137250   2.211   3.895   0.926 -0.9034 -2.0049  0.1673
 5229TIP3    H237251   2.143   4.020   0.875  1.7052 -0.1760  0.9023
 5230TIP3   OH237252   1.223   6.595   0.756  0.5184 -0.1633 -0.6191
 5230TIP3    H137253   1.270   6.524   0.713 -0.4075 -0.6961 -0.7891
 5230TIP3    H237254   1.257   6.596   0.845  0.5808 -0.7829 -0.6328
 5231TIP3   OH237255   0.093   0.773   6.454 -0.6884 -0.2649 -0.2206
 5231TIP3    H137256   0.061   0.794   6.542  0.5925 -0.5863  0.3435
 5231TIP3    H237257   0.083   0.855   6.405 -3.7201 -0.7182 -0.5495
 5232TIP3   OH237258   0.281   1.278   7.232 -0.0383  0.1409 -0.3824
 5232TIP3    H137259   0.223   1.299   7.305  0.2406 -1.4506  0.3291
 5232TIP3    H237260   0.341   1.352   7.226 -0.0460  0.2746  1.0298
 5233TIP3   OH237261   2.067   6.279   1.338  0.1434  0.0403  0.0838
 5233TIP3    H137262   2.041   6.236   1.256  1.5192 -2.0134  0.6560
 5233TIP3    H237263   2.146   6.233   1.366  0.1176  1.1565  2.2128
 5234TIP3   OH237264   4.412   0.293   8.630 -0.1454 -0.0359  0.4458
 5234TIP3    H137265   4.329   0.309   8.586 -0.3774 -3.1904 -0.4991
 5234TIP3    H237266   4.476   0.288   8.559  0.8996  2.2152  1.1525
 5235TIP3   OH237267   5.796   1.722   7.994  0.4085  0.7494  0.1135
 5235TIP3    H137268   5.815   1.668   8.071 -2.3295  1.4946  1.4315
 5235TIP3    H237269   5.818   1.665   7.920 -0.7048 -1.5731  1.4390
 5236TIP3   OH237270   0.963   3.388   1.680  0.2649  0.3340 -0.9772
 5236TIP3    H137271   0.929   3.309   1.636 -1.9267  1.5246 -1.5483
 5236TIP3    H237272   0.888   3.447   1.686  1.3087  1.5677  1.4163
 5237TIP3   OH237273   4.600   3.812   1.175  0.7041  0.0115 -0.4643
 5237TIP3    H137274   4.521   3.847   1.216  0.8725  1.4169 -1.2647
 5237TIP3    H237275   4.672   3.841   1.231  0.6964 -1.0951  0.1529
 5238TIP3   OH237276   4.820   6.082   7.775 -0.5221  0.2801  0.7459
 5238TIP3    H137277   4.897   6.032   7.751 -1.4216 -0.7370 -0.1362
 5238TIP3    H237278   4.801   6.136   7.698 -0.9705  0.1553  0.7648
 5239TIP3   OH237279   0.183   2.437   7.844  0.3525  0.5680  0.3025
 5239TIP3    H137280   0.142   2.519   7.873 -1.2882 -0.7639  2.0356
 5239TIP3    H237281   0.208   2.393   7.925  0.0190 -1.2152 -0.5135
 5240TIP3   OH237282   3.061   6.758   7.436 -0.3817 -0.0737 -0.1287
 5240TIP3    H137283   3.138   6.725   7.390  0.5634  1.4787  0.2549
 5240TIP3    H237284   3.022   6.821   7.375  0.2386  1.1631  0.7016
 5241TIP3   OH237285   5.817   3.588   2.199 -0.0403 -0.2782 -0.0261
 5241TIP3    H137286   5.724   3.609   2.190  0.0093 -0.7218 -1.9459
 5241TIP3    H237287   5.861   3.673   2.198 -0.3507 -0.1154 -0.3936
 5242TIP3   OH237288   1.575   6.079   0.180 -0.5252  0.4229 -0.1767
 5242TIP3    H137289   1.509   6.013   0.161  0.0152  0.0753 -0.8442
 5242TIP3    H237290   1.581   6.131   0.100 -0.7842  1.1590  0.2640
 5243TIP3   OH237291   1.467   0.649   1.931  0.4682 -0.9178 -0.0945
 5243TIP3    H137292   1.440   0.575   1.985 -1.0545 -0.9190 -0.7911
 5243TIP3    H237293   1.476   0.722   1.993  1.9799 -1.6543  0.5941
 5244TIP3   OH237294   1.537   6.407   0.972 -0.1870  0.1061  0.1562
 5244TIP3    H137295   1.508   6.413   1.063 -0.9658  0.1751 -0.0920
 5244TIP3    H237296   1.464   6.365   0.926  0.0263  0.4682 -0.5199
 5245TIP3   OH237297   3.937   0.158   1.081 -0.6506  0.7345  0.0949
 5245TIP3    H137298   3.912   0.067   1.067  2.0211 -0.1412  0.4482
 5245TIP3    H237299   4.012   0.172   1.023  0.5305  1.9064  1.7805
 5246TIP3   OH237300   6.675   4.650   7.317 -0.3807  0.6320  0.3769
 5246TIP3    H137301   6.623   4.730   7.325  0.1534  1.4519 -2.8721
 5246TIP3    H237302   6.626   4.596   7.255  0.7644 -0.2619  0.2202
 5247TIP3   OH237303   6.570   5.029   0.179 -0.6083 -0.3592 -0.4485
 5247TIP3    H137304   6.664   5.020   0.165 -0.6754 -0.6031 -0.7289
 5247TIP3    H237305   6.541   5.089   0.111 -0.7664 -0.7883 -0.7610
 5248TIP3   OH237306   3.595   4.302   8.496  0.5364  0.4698  0.1175
 5248TIP3    H137307   3.501   4.300   8.476  0.5293 -1.2381  0.2597
 5248TIP3    H237308   3.633   4.231   8.445  2.0039  1.9161 -0.9489
 5249TIP3   OH237309   5.846   4.908   1.256  0.3586  0.1137  0.4925
 5249TIP3    H137310   5.788   4.920   1.331  0.6770  0.1393  0.7338
 5249TIP3    H237311   5.799   4.847   1.199 -1.1153  2.0967 -0.5628
 5250TIP3   OH237312   6.066   3.738   1.545 -0.4493 -0.1355  0.4289
 5250TIP3    H137313   6.022   3.750   1.629 -0.2002  1.5898  0.3466
 5250TIP3    H237314   6.089   3.827   1.517 -1.0859 -0.6047 -1.7616
 5251TIP3   OH237315   0.239   2.848   1.418 -0.1395 -0.0059  0.7507
 5251TIP3    H137316   0.249   2.767   1.369  0.0538  0.9918 -0.9231
 5251TIP3    H237317   0.324   2.891   1.412 -0.3311  0.4762  1.3453
 5252TIP3   OH237318   0.248   6.007   2.500  0.0369 -0.2958  0.4454
 5252TIP3    H137319   0.222   5.915   2.501 -0.5813 -0.1925 -1.5364
 5252TIP3    H237320   0.250   6.030   2.407 -0.7027  1.9430  0.9232
 5253TIP3   OH237321   5.513   5.817   7.032  0.4546 -0.4617 -0.2605
 5253TIP3    H137322   5.442   5.877   7.012  0.0926 -0.7542  0.1099
 5253TIP3    H237323   5.566   5.814   6.953 -0.8875 -1.5285 -1.1708
 5254TIP3   OH237324   6.291   4.352   1.837 -0.1354 -0.7309  0.0370
 5254TIP3    H137325   6.224   4.289   1.863  0.3469 -0.9140  0.8694
 5254TIP3    H237326   6.300   4.339   1.742  1.0983 -3.0846  0.3916
 5255TIP3   OH237327   0.998   1.524   8.156  0.2495 -0.6186 -0.5676
 5255TIP3    H137328   1.046   1.486   8.229  1.2736 -1.3766 -1.5820
 5255TIP3    H237329   1.051   1.501   8.079 -2.2368 -2.3999 -1.8798
 5256TIP3   OH237330   4.510   5.690   8.027 -0.6663 -0.1889  0.1865
 5256TIP3    H137331   4.539   5.635   8.099 -0.0978  1.2499  1.0961
 5256TIP3    H237332   4.586   5.695   7.969  0.8741  2.9674  2.1990
 5257TIP3   OH237333   6.221   6.628   8.670 -0.3472  0.4976  0.0378
 5257TIP3    H137334   6.270   6.656   8.592 -0.9185 -0.4897 -0.6901
 5257TIP3    H237335   6.151   6.692   8.678 -0.1221  0.7629 -0.0884
 5258TIP3   OH237336   6.709   3.773   0.776 -0.2211 -0.4033 -0.0898
 5258TIP3    H137337   6.760   3.694   0.757  0.2228  0.1881 -1.4898
 5258TIP3    H237338   6.653   3.785   0.699 -1.9380 -0.5782  1.0679
 5259TIP3   OH237339   0.780   6.605   1.206  0.3290 -0.0213  0.3637
 5259TIP3    H137340   0.784   6.573   1.296 -1.7869  0.4005  0.6571
 5259TIP3    H237341   0.687   6.601   1.182  0.8701 -0.5302 -1.9725
 5260TIP3   OH237342   3.736   2.139   7.757  0.0672  0.0824  0.3657
 5260TIP3    H137343   3.760   2.115   7.846 -1.1016 -0.8741  0.4512
 5260TIP3    H237344   3.815   2.180   7.721  0.3761  0.9790  1.9962
 5261TIP3   OH237345   1.529   1.134   8.368 -0.0571  0.2746  0.1835
 5261TIP3    H137346   1.475   1.059   8.394  3.5277 -3.0279 -0.8909
 5261TIP3    H237347   1.539   1.124   8.273  0.4707  2.2024  0.0023
 5262TIP3   OH237348   4.276   0.365   1.552 -0.2035  0.1242 -0.0156
 5262TIP3    H137349   4.249   0.455   1.571 -1.1073 -0.2044  0.3022
 5262TIP3    H237350   4.278   0.322   1.637  0.8276 -0.0064 -0.0942
 5263TIP3   OH237351   5.198   2.606   0.613 -0.3077 -0.9982  0.0842
 5263TIP3    H137352   5.280   2.561   0.593 -0.3140  0.0608 -2.7482
 5263TIP3    H237353   5.146   2.597   0.533 -1.5094  1.4195  0.4990
 5264TIP3   OH237354   2.476   0.776   7.241 -0.2402  0.1181  0.0416
 5264TIP3    H137355   2.386   0.801   7.220 -1.0805 -1.5850  1.3044
 5264TIP3    H237356   2.481   0.782   7.337  0.0219 -2.5597  0.2801
 5265TIP3   OH237357   5.074   2.923   8.539  0.4052 -0.3665  0.2847
 5265TIP3    H137358   5.102   2.871   8.614 -1.2946 -0.2420  1.0410
 5265TIP3    H237359   4.991   2.962   8.565  0.3645  0.6695 -1.2216
 5266TIP3   OH237360   1.372   2.500   0.987  0.4291 -0.5913  0.2078
 5266TIP3    H137361   1.409   2.579   1.026  1.2234 -1.4448  1.2504
 5266TIP3    H237362   1.373   2.518   0.892 -1.3733  1.4402  0.5066
 5267TIP3   OH237363   0.766   3.808   2.179 -0.1248 -0.6575  0.3523
 5267TIP3    H137364   0.857   3.781   2.193  0.1189 -0.2976 -0.4991
 5267TIP3    H237365   0.714   3.743   2.226  0.5625 -0.9947  0.6568
 5268TIP3   OH237366   3.371   3.227   2.618  0.2970  0.5035  0.2179
 5268TIP3    H137367   3.445   3.262   2.668  0.0552  1.2956  0.0223
 5268TIP3    H237368   3.354   3.141   2.658  1.0712  0.4784  0.5103
 5269TIP3   OH237369   2.449   5.612   0.352 -0.0118  0.0365  0.0838
 5269TIP3    H137370   2.501   5.681   0.310  0.9524 -0.1897  0.8720
 5269TIP3    H237371   2.511   5.539   0.363  0.4525  0.8319  3.8680
 5270TIP3   OH237372   1.432   0.974   7.360 -0.2674 -0.2060 -0.2068
 5270TIP3    H137373   1.428   1.051   7.417 -0.1378 -0.7657  0.5732
 5270TIP3    H237374   1.480   1.005   7.283  0.7812  0.2164  0.5774
 5271TIP3   OH237375   4.075   0.031   1.942 -0.3501  0.3496 -0.5648
 5271TIP3    H137376   4.150   0.079   1.977 -0.8354  0.8015 -0.1144
 5271TIP3    H237377   4.112  -0.048   1.904  0.0500 -1.1069  2.5911
 5272TIP3   OH237378   0.735   5.644   1.346 -0.0640 -0.3479  0.5492
 5272TIP3    H137379   0.806   5.640   1.283 -0.7026 -1.3305 -0.1423
 5272TIP3    H237380   0.775   5.621   1.429  0.4027 -1.0257  0.1448
 5273TIP3   OH237381   5.156   1.391   1.480 -0.4262 -0.1323  0.7201
 5273TIP3    H137382   5.069   1.396   1.442 -0.9032 -0.3014  1.7784
 5273TIP3    H237383   5.160   1.465   1.541 -0.2833 -0.8378  1.5828
 5274TIP3   OH237384   4.376   1.373   0.805 -0.7185 -0.7010 -0.1329
 5274TIP3    H137385   4.464   1.403   0.782 -1.3600  0.9514 -0.5930
 5274TIP3    H237386   4.383   1.278   0.805  0.5759 -0.6871 -2.2466
 5275TIP3   OH237387   1.421   3.601   1.962 -0.4491  0.4708  0.4211
 5275TIP3    H137388   1.352   3.566   1.906 -0.2285 -0.3835  0.6687
 5275TIP3    H237389   1.462   3.524   2.001  0.8362  0.9353  0.0618
 5276TIP3   OH237390   2.222   2.282   6.807  0.2373  0.1154 -0.2229
 5276TIP3    H137391   2.175   2.208   6.769  0.2842  0.4217 -0.8790
 5276TIP3    H237392   2.154   2.332   6.853  0.5593 -1.6305  2.3815
 5277TIP3   OH237393   2.454   3.065   7.238 -0.0715 -0.2108  0.0120
 5277TIP3    H137394   2.494   3.035   7.320  1.8457 -0.2535 -0.8970
 5277TIP3    H237395   2.439   2.985   7.188 -1.4926 -0.2076  0.3911
 5278TIP3   OH237396   4.678   3.352   8.777 -0.0906 -0.7774 -0.2603
 5278TIP3    H137397   4.702   3.444   8.787  2.0455 -1.2575 -0.5766
 5278TIP3    H237398   4.601   3.352   8.720  0.8449  0.7114 -1.5483
 5279TIP3   OH237399   0.246   1.543   8.609  0.2337  0.2426  0.3150
 5279TIP3    H137400   0.207   1.535   8.522  0.6026 -0.2430  0.1899
 5279TIP3    H237401   0.189   1.493   8.667 -0.4321  1.1841  0.4981
 5280TIP3   OH237402   5.417   6.626   1.340  0.2398  0.7276  0.3045
 5280TIP3    H137403   5.437   6.594   1.428  0.3106 -0.8076 -0.2363
 5280TIP3    H237404   5.500   6.621   1.293 -0.4777 -1.9342 -0.8433
 5281TIP3   OH237405   0.234   4.544   1.780 -0.4285 -0.0464  0.0666
 5281TIP3    H137406   0.223   4.449   1.789  0.1097 -0.2120 -0.9669
 5281TIP3    H237407   0.324   4.561   1.807 -1.0188  0.4203  1.9027
 5282TIP3   OH237408   6.767   6.641   8.210  0.4841  0.1121 -0.4104
 5282TIP3    H137409   6.746   6.719   8.261 -0.4311 -1.2666  1.4566
 5282TIP3    H237410   6.692   6.583   8.223  1.6612 -1.5512 -0.6955
 5283TIP3   OH237411   5.319   0.259   1.142  0.6259  0.1048 -0.1579
 5283TIP3    H137412   5.322   0.354   1.146  1.8934  0.0678  0.2661
 5283TIP3    H237413   5.410   0.231   1.156  0.2834 -1.1610 -0.2989
 5284TIP3   OH237414   5.596   6.310   0.359 -0.0863  0.2225  0.1222
 5284TIP3    H137415   5.519   6.357   0.392 -0.7328 -0.2100 -0.7392
 5284TIP3    H237416   5.663   6.326   0.425 -0.1565  2.6734 -0.2811
 5285TIP3   OH237417   2.819   4.681   6.775 -0.0727 -0.4637  0.4082
 5285TIP3    H137418   2.754   4.624   6.733 -0.3470  0.3813 -0.3475
 5285TIP3    H237419   2.798   4.768   6.743  1.3292 -0.1474  0.3072
 5286TIP3   OH237420   4.116   1.952   8.100  0.1839 -0.4988 -0.1121
 5286TIP3    H137421   4.192   1.909   8.138 -1.0640 -1.3741  1.4732
 5286TIP3    H237422   4.136   2.046   8.107 -0.1973 -0.5398  3.3754
 5287TIP3   OH237423   1.725   1.176   7.442 -0.3385  0.6088 -0.1329
 5287TIP3    H137424   1.742   1.129   7.360 -0.0833 -0.2909  0.4257
 5287TIP3    H237425   1.796   1.149   7.500 -0.8831  0.7320  0.5953
 5288TIP3   OH237426   4.604   5.275   8.037  0.2129 -0.6682  0.1027
 5288TIP3    H137427   4.660   5.349   8.012 -0.8055  1.0558  2.4980
 5288TIP3    H237428   4.640   5.200   7.989  2.0015  1.1401 -1.5660
 5289TIP3   OH237429   1.465   3.465   6.787 -0.8337 -0.4247 -0.3372
 5289TIP3    H137430   1.437   3.396   6.728 -1.5667  0.0174 -0.5177
 5289TIP3    H237431   1.545   3.499   6.747  0.6651 -2.4301  0.7615
 5290TIP3   OH237432   1.379   3.482   0.230 -0.6626  0.2215 -0.3633
 5290TIP3    H137433   1.417   3.409   0.182 -1.0666  0.6100 -1.3062
 5290TIP3    H237434   1.382   3.455   0.322  2.0318  0.3129 -0.3590
 5291TIP3   OH237435   4.866   2.541   6.716 -0.2703  0.1979 -0.1567
 5291TIP3    H137436   4.850   2.463   6.662 -2.4452 -0.9009  1.9197
 5291TIP3    H237437   4.842   2.614   6.659 -1.7521 -0.8678 -0.9658
 5292TIP3   OH237438   2.791   3.021   7.590 -0.0797 -0.1616  0.4322
 5292TIP3    H137439   2.884   3.038   7.573  0.4501 -2.1532  1.0095
 5292TIP3    H237440   2.780   3.042   7.683 -0.7190  1.8961 -0.0604
 5293TIP3   OH237441   1.693   6.441   0.773  0.3146  0.4198  0.6606
 5293TIP3    H137442   1.778   6.462   0.812  0.4717  0.2488  0.4185
 5293TIP3    H237443   1.634   6.429   0.847  0.0810  2.2409  0.8180
 5294TIP3   OH237444   1.419   0.756   8.250  0.4860  0.6854 -0.2412
 5294TIP3    H137445   1.408   0.774   8.343  0.5820  1.8454 -0.4410
 5294TIP3    H237446   1.358   0.684   8.232 -0.0725  0.9423  0.5583
 5295TIP3   OH237447   1.664   4.765   1.670  0.2451 -0.1495  0.7175
 5295TIP3    H137448   1.709   4.689   1.708 -0.0442  0.0119  1.3871
 5295TIP3    H237449   1.683   4.837   1.730  0.0129  0.1701  0.4092
 5296TIP3   OH237450   4.763   5.728   7.907  0.1954 -0.1861 -0.1786
 5296TIP3    H137451   4.837   5.698   7.961  0.3243  0.9940  0.3539
 5296TIP3    H237452   4.797   5.728   7.818  0.6802 -0.1570  0.0020
 5297TIP3   OH237453   3.587   3.411   1.403 -0.1538 -0.2627  0.5120
 5297TIP3    H137454   3.496   3.428   1.426 -0.4386 -1.2443  0.1817
 5297TIP3    H237455   3.583   3.369   1.317  0.7463  1.3787 -0.3718
 5298TIP3   OH237456   6.006   2.465   0.372 -0.3361 -0.4562  0.4414
 5298TIP3    H137457   6.059   2.400   0.326 -0.1779 -0.8137  1.1173
 5298TIP3    H237458   6.067   2.538   0.387 -0.6754  0.1252 -0.8574
 5299TIP3   OH237459   6.000   1.884   0.864 -0.2587 -0.5535  0.1653
 5299TIP3    H137460   6.000   1.977   0.887  0.2625 -0.5787  0.2799
 5299TIP3    H237461   6.093   1.862   0.856 -0.3681 -1.1754  0.6040
 5300TIP3   OH237462   5.483   5.812   7.846  0.1705  0.3088  0.6948
 5300TIP3    H137463   5.562   5.758   7.857  0.5486  0.6801 -0.1272
 5300TIP3    H237464   5.425   5.759   7.792  0.2499  0.4268  0.4928
 5301TIP3   OH237465   2.200   5.299   8.703 -0.2126 -0.1872 -0.2538
 5301TIP3    H137466   2.247   5.381   8.719  0.0972 -0.5675  0.8718
 5301TIP3    H237467   2.112   5.315   8.736 -0.2749 -0.1748 -0.4236
 5302TIP3   OH237468   2.904   5.406   1.984  0.1211 -0.1304  0.1095
 5302TIP3    H137469   2.856   5.325   2.001 -0.3905  0.4956  1.8369
 5302TIP3    H237470   2.840   5.464   1.943  0.0715 -0.1021  0.2266
 5303TIP3   OH237471   3.326   4.089   0.951  0.0134 -0.6078 -0.2938
 5303TIP3    H137472   3.248   4.141   0.968 -0.3040 -1.3511  0.6245
 5303TIP3    H237473   3.293   4.005   0.921  0.4723 -0.7815 -0.3227
 5304TIP3   OH237474   2.971   5.559   8.760  0.7162 -0.1552  0.1129
 5304TIP3    H137475   2.982   5.594   8.671 -1.9193  0.5042 -0.0388
 5304TIP3    H237476   2.906   5.489   8.751  1.6968 -1.2603  1.2961
 5305TIP3   OH237477   2.137   2.943   7.350 -0.5231 -0.7033  0.2196
 5305TIP3    H137478   2.086   2.883   7.404 -2.1038  0.0092 -0.4033
 5305TIP3    H237479   2.215   2.963   7.402 -1.2126 -1.3029  1.5157
 5306TIP3   OH237480   1.954   4.914   1.740  0.2209  0.0630  0.1887
 5306TIP3    H137481   1.921   4.848   1.802 -0.4389  0.1963 -0.0081
 5306TIP3    H237482   1.992   4.863   1.669  2.2601 -0.1065  1.3271
 5307TIP3   OH237483   3.341   6.732   2.216  0.4036  0.6219  0.1268
 5307TIP3    H137484   3.397   6.716   2.292 -1.1782  1.4434  1.5324
 5307TIP3    H237485   3.345   6.827   2.204  0.8849  0.4636 -1.0365
 5308TIP3   OH237486   5.883   1.267   6.795  0.3595 -0.0240  0.4754
 5308TIP3    H137487   5.974   1.237   6.796 -0.0982 -1.7521 -1.8567
 5308TIP3    H237488   5.832   1.187   6.782 -1.2197  1.2942 -2.0642
 5309TIP3   OH237489   5.621   4.030   2.266 -0.3476 -0.2032  0.3959
 5309TIP3    H137490   5.596   4.114   2.304 -0.7618  0.3064 -0.9345
 5309TIP3    H237491   5.541   3.998   2.224 -0.0835 -1.0653  0.5315
 5310TIP3   OH237492   2.355   3.652   7.941  0.1252 -0.1797  0.2311
 5310TIP3    H137493   2.387   3.667   7.852  0.0130  0.6102  0.3091
 5310TIP3    H237494   2.261   3.636   7.930  0.2735 -1.0037  0.1313
 5311TIP3   OH237495   1.835   3.765   7.859  0.2223 -0.1773 -0.3909
 5311TIP3    H137496   1.769   3.738   7.922 -0.2747  0.3807 -0.6681
 5311TIP3    H237497   1.871   3.846   7.895 -0.2088  0.2554 -0.9262
 5312TIP3   OH237498   5.677   6.697   7.131  0.7771  0.0676  0.4025
 5312TIP3    H137499   5.708   6.606   7.128  1.5630  0.3319  0.1645
 5312TIP3    H237500   5.727   6.741   7.062 -1.3603  0.1747 -1.1788
 5313TIP3   OH237501   1.660   5.135   1.027 -0.6160 -0.2177  0.2834
 5313TIP3    H137502   1.708   5.217   1.042 -0.1056 -0.4545 -0.0155
 5313TIP3    H237503   1.615   5.149   0.943  0.8021 -0.8325 -0.6188
 5314TIP3   OH237504   6.200   5.231   7.058  0.1888  0.1292  0.3956
 5314TIP3    H137505   6.194   5.206   7.150 -0.8226 -0.1413  0.2695
 5314TIP3    H237506   6.254   5.310   7.058 -2.7972  2.4077  1.7181
 5315TIP3   OH237507   6.683   4.204   0.011 -0.2422  0.3389 -0.1126
 5315TIP3    H137508   6.644   4.134  -0.042  1.0184 -1.0616  0.7398
 5315TIP3    H237509   6.710   4.269  -0.053 -1.6723  0.1915 -0.9156
 5316TIP3   OH237510   0.931   4.854   8.343  0.6736 -0.0193 -0.0686
 5316TIP3    H137511   0.976   4.774   8.372 -0.1726 -0.5777 -0.2630
 5316TIP3    H237512   0.888   4.886   8.423  1.6587  0.6898  0.1893
 5317TIP3   OH237513   0.999   4.877   6.267 -0.2943 -0.1120 -0.0209
 5317TIP3    H137514   0.906   4.854   6.280 -0.8480  1.9489  0.0338
 5317TIP3    H237515   1.047   4.812   6.319 -1.5883 -2.0034 -1.0284
 5318TIP3   OH237516   5.698   4.424   2.545  0.0550  0.3019 -0.1092
 5318TIP3    H137517   5.773   4.467   2.585  0.1800 -1.5834  1.9046
 5318TIP3    H237518   5.622   4.455   2.595  0.0393 -0.9824  0.7124
 5319TIP3   OH237519   2.126   2.811   1.673 -1.0202 -0.1789  0.2311
 5319TIP3    H137520   2.128   2.782   1.764 -0.1123  0.2518  0.3630
 5319TIP3    H237521   2.034   2.825   1.654 -1.2817 -0.9867  0.8495
 5320TIP3   OH237522   2.424   0.315   0.523 -0.0609  0.1276  0.1700
 5320TIP3    H137523   2.345   0.280   0.483 -0.1430 -0.6751  1.0180
 5320TIP3    H237524   2.396   0.396   0.566 -0.4505 -0.2449  0.6138
 5321TIP3   OH237525   4.328   0.854   7.117  0.1041  0.7423  0.1637
 5321TIP3    H137526   4.323   0.936   7.165  1.2743  2.5188 -2.5009
 5321TIP3    H237527   4.254   0.857   7.056  0.2700 -0.0830 -0.0958
 5322TIP3   OH237528   2.988   6.199   7.990  0.3462  0.0371  0.6532
 5322TIP3    H137529   2.926   6.244   7.933  0.9415 -1.2454 -1.1118
 5322TIP3    H237530   3.038   6.269   8.033 -0.5870  1.0446  0.1294
 5323TIP3   OH237531   5.010   4.770   1.128 -0.3165  0.6561 -0.0493
 5323TIP3    H137532   5.032   4.853   1.170 -0.9985  2.3890 -2.8704
 5323TIP3    H237533   5.094   4.739   1.093 -0.2588  0.7785 -0.0220
 5324TIP3   OH237534   1.126   4.712   0.707 -0.1598 -0.4540 -0.4165
 5324TIP3    H137535   1.183   4.787   0.690  1.9685 -1.8846 -0.0120
 5324TIP3    H237536   1.042   4.751   0.732  0.6119  1.7627 -1.0478
 5325TIP3   OH237537   0.744   1.075   1.601  0.5425  0.0308  0.5065
 5325TIP3    H137538   0.704   0.989   1.615 -1.0882  0.4959 -0.9398
 5325TIP3    H237539   0.674   1.138   1.622  0.6740  0.8986 -1.4211
 5326TIP3   OH237540   5.547   6.318   0.090 -0.5426  0.2624  0.0819
 5326TIP3    H137541   5.576   6.301   0.180  0.4355 -0.2866 -0.3273
 5326TIP3    H237542   5.616   6.372   0.052  0.4068 -1.7262 -1.1601
 5327TIP3   OH237543   3.720   2.914   1.280  0.7393 -0.1524  0.8663
 5327TIP3    H137544   3.776   2.979   1.321  0.9432 -0.3095  0.8385
 5327TIP3    H237545   3.633   2.932   1.315  0.7518  0.2836  0.6769
 5328TIP3   OH237546   5.779   6.146   6.760 -0.4053  0.0654 -0.1418
 5328TIP3    H137547   5.718   6.094   6.812 -0.2185 -1.9772 -1.7912
 5328TIP3    H237548   5.792   6.094   6.680  3.1850  0.5917 -0.0530
 5329TIP3   OH237549   5.848   3.156   7.512  0.0372  1.0552  0.0157
 5329TIP3    H137550   5.927   3.190   7.554  1.9629 -0.8691 -1.7916
 5329TIP3    H237551   5.816   3.088   7.573  0.0480  1.4659  0.4910
 5330TIP3   OH237552   4.881   6.266   8.256  0.2480  0.0007 -0.3501
 5330TIP3    H137553   4.914   6.180   8.230  0.9758  0.3248 -0.5396
 5330TIP3    H237554   4.828   6.295   8.182 -0.3026 -0.4384 -0.1316
 5331TIP3   OH237555   1.394   6.427   0.608  0.3197  0.4634 -0.0797
 5331TIP3    H137556   1.411   6.405   0.517 -1.2543  1.2018 -0.5763
 5331TIP3    H237557   1.477   6.464   0.639  0.5738  1.1627 -1.5083
 5332TIP3   OH237558   3.255   3.833   0.695 -0.1257  0.1299 -0.1758
 5332TIP3    H137559   3.223   3.914   0.656  1.6683  1.3307  0.7541
 5332TIP3    H237560   3.186   3.769   0.675 -1.5451  1.8229 -1.0214
 5333TIP3   OH237561   6.228   5.966   7.745  0.0985  0.2336  0.1757
 5333TIP3    H137562   6.323   5.971   7.739  0.1312  1.7121  1.3841
 5333TIP3    H237563   6.203   6.038   7.803 -1.8102  0.1985 -0.5161
 5334TIP3   OH237564   6.544   2.560   1.847  0.1307  0.4514  0.1965
 5334TIP3    H137565   6.497   2.517   1.918  0.1812  0.5683  0.3020
 5334TIP3    H237566   6.585   2.637   1.888 -0.4356  0.9233 -0.1056
 5335TIP3   OH237567   6.613   4.521   2.229  0.1376  0.0887  0.3091
 5335TIP3    H137568   6.706   4.512   2.208 -0.2758 -0.1186 -1.6493
 5335TIP3    H237569   6.568   4.480   2.155 -1.5273  0.7900  0.8895
 5336TIP3   OH237570   2.053   0.847   0.778 -0.3606 -0.1122 -0.5015
 5336TIP3    H137571   2.036   0.940   0.792 -0.3002 -0.2697  0.7248
 5336TIP3    H237572   1.975   0.815   0.733 -1.0748  0.2275  0.4556
 5337TIP3   OH237573   1.640   2.527   2.836 -0.0573 -0.3664  0.1362
 5337TIP3    H137574   1.684   2.595   2.785 -2.3371  1.1179  0.0146
 5337TIP3    H237575   1.646   2.449   2.781 -0.0024  0.4866 -1.1150
 5338TIP3   OH237576   6.077   0.237   7.198 -0.2866  0.3723  0.4513
 5338TIP3    H137577   6.040   0.157   7.236 -0.1066  0.7421  1.4512
 5338TIP3    H237578   6.006   0.273   7.145 -0.0784 -0.9065 -0.7692
 5339TIP3   OH237579   1.128   2.944   0.291 -0.4721 -0.0313 -0.3573
 5339TIP3    H137580   1.195   3.002   0.328 -0.9144  0.7336 -0.7460
 5339TIP3    H237581   1.178   2.877   0.245  0.0828 -0.7552  1.2238
 5340TIP3   OH237582   5.038   2.884   7.155  0.2414 -0.2837  0.0628
 5340TIP3    H137583   4.958   2.846   7.118  0.4678 -0.0231 -0.7094
 5340TIP3    H237584   5.108   2.828   7.122  0.5254  0.4632 -0.6296
 5341TIP3   OH237585   0.974   4.608   7.416  0.2453 -0.4304  0.4738
 5341TIP3    H137586   0.938   4.692   7.388 -0.4353 -1.1005 -0.7413
 5341TIP3    H237587   0.897   4.552   7.427  0.8260 -1.6702 -1.4130
 5342TIP3   OH237588   5.405   1.897   1.579  0.0210 -0.2772 -0.3942
 5342TIP3    H137589   5.405   1.913   1.673  1.9654 -1.4002 -0.1526
 5342TIP3    H237590   5.387   1.982   1.539 -2.1506 -0.0134  0.9583
 5343TIP3   OH237591   2.630   0.946   8.676 -0.0618 -0.5642 -0.4385
 5343TIP3    H137592   2.686   0.891   8.731 -0.5317  0.1438  0.8084
 5343TIP3    H237593   2.545   0.945   8.721  0.2028  2.0231  0.2756
 5344TIP3   OH237594   3.230   0.615   0.222 -0.4624 -0.0661  0.2518
 5344TIP3    H137595   3.237   0.609   0.127 -1.6103  0.2014  0.1347
 5344TIP3    H237596   3.225   0.524   0.251 -1.0113 -0.1313 -0.0299
 5345TIP3   OH237597   6.066   4.707   6.625 -0.0388 -0.1815 -0.2936
 5345TIP3    H137598   6.131   4.670   6.565 -0.2480  0.6886 -1.0740
 5345TIP3    H237599   6.011   4.763   6.570 -1.8395 -1.3434  0.2249
 5346TIP3   OH237600   5.525   1.738   0.090 -0.2869 -0.0516  0.3096
 5346TIP3    H137601   5.497   1.658   0.134  0.2016 -1.9840 -2.5638
 5346TIP3    H237602   5.607   1.762   0.133  0.8014 -2.5258 -0.2215
 5347TIP3   OH237603   2.787   3.148   7.846 -0.4245  0.4264 -0.3586
 5347TIP3    H137604   2.816   3.228   7.801 -1.2810  1.4639  0.8644
 5347TIP3    H237605   2.723   3.178   7.910 -0.4575 -1.2024  0.4289
 5348TIP3   OH237606   0.473   2.219   0.577 -0.2294  0.2187 -0.6018
 5348TIP3    H137607   0.538   2.260   0.520  0.2371  0.4817  0.1027
 5348TIP3    H237608   0.390   2.261   0.554 -0.2349 -0.4103 -1.7935
 5349TIP3   OH237609   0.564   2.693   1.549  0.2919  0.4331  0.3281
 5349TIP3    H137610   0.492   2.721   1.605 -1.0128 -2.4186  0.2562
 5349TIP3    H237611   0.614   2.632   1.602 -1.3450 -2.8462 -1.5844
 5350TIP3   OH237612   6.471   0.834   8.296 -0.7293 -0.2758  0.6388
 5350TIP3    H137613   6.552   0.785   8.310  0.4070  1.5223  0.6083
 5350TIP3    H237614   6.459   0.885   8.375 -1.0150  0.5940  0.0522
 5351TIP3   OH237615   3.706   3.029   1.600  0.4909 -0.1338 -0.0782
 5351TIP3    H137616   3.783   3.049   1.547  0.6130 -1.1580 -0.3136
 5351TIP3    H237617   3.654   3.109   1.599  0.2054 -0.2846 -2.2421
 5352TIP3   OH237618   2.410   2.724   0.108 -1.0146 -0.0095 -0.1137
 5352TIP3    H137619   2.357   2.654   0.070 -1.9631  0.6822 -0.1152
 5352TIP3    H237620   2.346   2.788   0.139 -0.1629  1.4939 -1.3059
 5353TIP3   OH237621   3.839   6.078   1.220 -0.0471  0.3226  0.1174
 5353TIP3    H137622   3.790   6.000   1.193  0.7624  0.0222 -0.5591
 5353TIP3    H237623   3.820   6.143   1.152  2.4057 -0.6010 -1.6202
 5354TIP3   OH237624   1.963   3.753   1.679  0.1524  0.4488  0.2269
 5354TIP3    H137625   1.915   3.695   1.738 -1.0927  1.9735  0.7760
 5354TIP3    H237626   2.046   3.768   1.723  0.9955 -1.7935 -0.4730
 5355TIP3   OH237627   2.009   2.232   7.059  0.4695  0.1420  0.0473
 5355TIP3    H137628   1.964   2.282   6.991  0.0108 -1.4974 -0.9050
 5355TIP3    H237629   1.975   2.143   7.051  1.4917 -0.4288  1.4661
 5356TIP3   OH237630   5.668   4.454   7.723 -0.3207  0.5574 -0.4262
 5356TIP3    H137631   5.730   4.458   7.651 -1.4687 -0.2768 -1.5178
 5356TIP3    H237632   5.584   4.436   7.681 -0.8361 -1.1596  1.1933
 5357TIP3   OH237633   1.839   6.820   8.010  0.6295  0.3020  0.5000
 5357TIP3    H137634   1.820   6.820   8.104  0.3916  0.0882  0.4535
 5357TIP3    H237635   1.763   6.865   7.971  0.3794 -0.2488  0.3430
 5358TIP3   OH237636   3.608   3.792   0.857  0.0552 -0.1241  0.1168
 5358TIP3    H137637   3.702   3.781   0.873  0.0839 -0.6083 -0.3479
 5358TIP3    H237638   3.589   3.732   0.785 -0.1189  1.6794 -1.4338
 5359TIP3   OH237639   2.151   6.699   1.635  0.0433  0.7340  0.2486
 5359TIP3    H137640   2.152   6.610   1.601  1.5463  1.2061 -1.0939
 5359TIP3    H237641   2.182   6.692   1.725  2.5434  0.1121 -0.5876
 5360TIP3   OH237642   4.047   4.722   8.685 -0.2620  0.5485 -0.4268
 5360TIP3    H137643   4.131   4.757   8.653  0.4252 -0.3867  0.2824
 5360TIP3    H237644   4.012   4.792   8.740  1.1837  0.1487  1.1247
 5361TIP3   OH237645   1.800   0.157   2.343 -0.2645 -0.2000 -0.0971
 5361TIP3    H137646   1.812   0.198   2.428  0.0105 -0.9743  0.2376
 5361TIP3    H237647   1.880   0.177   2.295 -1.1990  1.9487 -0.9217
 5362TIP3   OH237648   1.899   0.598   8.527 -0.1276  0.0358  0.4421
 5362TIP3    H137649   1.855   0.608   8.442 -1.5456  0.7750  1.2276
 5362TIP3    H237650   1.929   0.686   8.549 -0.7225  0.0620  1.1945
 5363TIP3   OH237651   3.666   0.968   0.225 -0.1742 -0.1224  0.4230
 5363TIP3    H137652   3.726   0.895   0.239 -0.1267 -0.0220  0.7482
 5363TIP3    H237653   3.718   1.033   0.177  0.0839  0.1084  1.0075
 5364TIP3   OH237654   3.101   0.642   0.905  0.0231 -0.1677 -0.0374
 5364TIP3    H137655   3.115   0.724   0.952  1.9459 -0.5566  0.1769
 5364TIP3    H237656   3.131   0.659   0.816 -0.3699 -0.3953 -0.2153
 5365TIP3   OH237657   2.335   6.496   1.261 -0.2630  0.1102 -0.3106
 5365TIP3    H137658   2.371   6.514   1.347  1.4818  1.9807 -1.3353
 5365TIP3    H237659   2.245   6.529   1.265 -0.2594  0.0120  0.8291
 5366TIP3   OH237660   5.102   1.463   6.594 -0.1242  0.6177  0.1061
 5366TIP3    H137661   5.081   1.504   6.510 -1.0433 -0.0999 -0.0295
 5366TIP3    H237662   5.085   1.370   6.580  0.1029  0.4387  0.9769
 5367TIP3   OH237663   5.644   0.513   0.249  0.0938 -0.4839  0.1725
 5367TIP3    H137664   5.564   0.527   0.198  0.5332  0.5032 -0.2669
 5367TIP3    H237665   5.681   0.432   0.214 -0.1174 -0.3307 -0.4122
 5368TIP3   OH237666   1.353   1.612   0.027 -0.5648  0.5992  0.0506
 5368TIP3    H137667   1.283   1.567  -0.020  0.0874 -0.4099  0.0185
 5368TIP3    H237668   1.308   1.663   0.094 -1.3121 -0.2683  0.2188
 5369TIP3   OH237669   5.485   0.036   1.581 -0.1372 -0.5528  0.2137
 5369TIP3    H137670   5.451   0.123   1.564  0.2746 -0.3008  0.6400
 5369TIP3    H237671   5.426  -0.000   1.648 -1.1557 -1.1591 -0.9791
 5370TIP3   OH237672   1.731   0.151   1.175 -0.0196 -0.3898  0.1360
 5370TIP3    H137673   1.666   0.213   1.142  0.2156 -0.2570 -0.0864
 5370TIP3    H237674   1.801   0.206   1.210  0.2944 -0.5213 -0.2696
 5371TIP3   OH237675   3.524   1.974   0.555 -0.5378  0.3898  0.2956
 5371TIP3    H137676   3.588   2.032   0.513  1.0939 -0.8623  0.9626
 5371TIP3    H237677   3.547   1.886   0.525 -1.0006 -0.2480  1.7207
 5372TIP3   OH237678   0.456   0.224   8.119  0.2924  1.1113  0.3555
 5372TIP3    H137679   0.546   0.193   8.112 -0.4524 -1.1248  0.0376
 5372TIP3    H237680   0.464   0.313   8.155  2.5870  0.8742  0.5631
 5373TIP3   OH237681   4.350   6.265   8.074 -0.5137 -0.0256 -0.5667
 5373TIP3    H137682   4.262   6.267   8.111 -0.5803 -2.0806 -0.4621
 5373TIP3    H237683   4.365   6.172   8.056  1.0745  0.4588 -1.9473
 5374TIP3   OH237684   5.379   2.120   1.439 -1.0593  0.1848 -0.0434
 5374TIP3    H137685   5.314   2.160   1.381 -1.5364  0.5084  0.6972
 5374TIP3    H237686   5.463   2.155   1.408 -1.2392 -0.1520 -0.9383
 5375TIP3   OH237687   5.061   1.730   6.708  0.3236 -0.6256 -0.2725
 5375TIP3    H137688   4.967   1.741   6.713  0.1516 -1.2001 -1.6215
 5375TIP3    H237689   5.073   1.636   6.691  1.2879 -1.1032  2.4728
 5376TIP3   OH237690   3.862   2.610   8.482  0.5628 -0.1586  0.6353
 5376TIP3    H137691   3.880   2.573   8.396 -1.3283 -0.0138  0.1302
 5376TIP3    H237692   3.860   2.705   8.468  1.0850 -0.0830  1.0290
 5377TIP3   OH237693   4.764   1.292   7.104 -0.1523 -0.0187  0.5694
 5377TIP3    H137694   4.817   1.337   7.171 -0.1739 -0.4006  0.8478
 5377TIP3    H237695   4.676   1.288   7.142 -0.3888  0.6099  0.1101
 5378TIP3   OH237696   4.414   3.810   1.548  0.4571  0.1059  0.0149
 5378TIP3    H137697   4.356   3.849   1.482 -0.6286 -1.6860 -0.1406
 5378TIP3    H237698   4.355   3.769   1.611  1.5388 -0.5400  0.6372
 5379TIP3   OH237699   5.669   0.484   7.527  0.1754  0.8842  0.0823
 5379TIP3    H137700   5.675   0.548   7.598 -2.0816  0.6003  0.6105
 5379TIP3    H237701   5.629   0.407   7.567 -0.5353  0.4740 -1.3333
 5380TIP3   OH237702   6.600   5.567   0.862  0.3751 -0.2763  1.0495
 5380TIP3    H137703   6.644   5.594   0.943  0.7690 -1.1141  1.1262
 5380TIP3    H237704   6.596   5.471   0.868 -1.9625 -0.2236  1.3149
 5381TIP3   OH237705   0.868   1.597   7.866  0.1289 -0.0508  0.4199
 5381TIP3    H137706   0.953   1.554   7.876 -0.1994 -0.5029  1.4093
 5381TIP3    H237707   0.881   1.685   7.901  0.7742  0.6642 -1.5123
 5382TIP3   OH237708   3.704   6.677   7.321  0.2482 -0.3563 -0.3953
 5382TIP3    H137709   3.625   6.685   7.374 -0.2837 -2.1361 -0.8268
 5382TIP3    H237710   3.679   6.710   7.235  0.2529 -0.0598 -0.2821
 5383TIP3   OH237711   3.411   4.896   6.754  0.0378 -0.1524  0.4792
 5383TIP3    H137712   3.428   4.921   6.663  0.4142 -1.0186  0.2910
 5383TIP3    H237713   3.391   4.978   6.799  0.2506  0.3373 -0.3001
 5384TIP3   OH237714   0.273   1.636   2.324  0.1249  0.9066  0.0091
 5384TIP3    H137715   0.204   1.587   2.367 -0.2690  0.5952 -0.9400
 5384TIP3    H237716   0.242   1.727   2.324 -0.7188  0.6410 -1.1916
 5385TIP3   OH237717   0.304   5.485   7.200  0.4674  0.1993  0.4593
 5385TIP3    H137718   0.302   5.444   7.113 -1.7998 -0.9436  0.9649
 5385TIP3    H237719   0.253   5.566   7.189  0.6320  0.3214  0.6025
 5386TIP3   OH237720   4.936   3.335   0.188  0.4177 -0.1886  0.1195
 5386TIP3    H137721   4.925   3.278   0.112  0.0242 -0.7572  0.5925
 5386TIP3    H237722   5.014   3.387   0.168  1.7163 -1.9724  0.3322
 5387TIP3   OH237723   5.539   0.752   0.724 -0.0929 -0.4892 -0.0858
 5387TIP3    H137724   5.497   0.673   0.757  1.1676 -1.1804 -0.0839
 5387TIP3    H237725   5.631   0.729   0.715 -0.0361  0.3054 -2.1725
 5388TIP3   OH237726   2.010   5.765   0.191  0.2036  0.4230  0.1505
 5388TIP3    H137727   1.918   5.767   0.163  0.2684 -0.3392 -0.1463
 5388TIP3    H237728   2.010   5.813   0.274 -0.3870  0.7996 -0.0606
 5389TIP3   OH237729   1.109   2.651   1.814  0.3047  0.1339 -0.0502
 5389TIP3    H137730   1.143   2.740   1.805  1.2409 -0.1725  0.3023
 5389TIP3    H237731   1.186   2.598   1.831 -0.4291 -0.5043  1.4391
 5390TIP3   OH237732   2.777   1.540   0.433  0.0149  0.5315 -0.4450
 5390TIP3    H137733   2.858   1.579   0.401  0.3213 -0.7222 -1.2543
 5390TIP3    H237734   2.800   1.506   0.520  0.6057 -0.5348 -0.9981
 5391TIP3   OH237735   1.926   1.042   1.068  0.2457 -0.6619  0.0341
 5391TIP3    H137736   1.913   1.054   1.162  0.4932 -0.1653  0.0107
 5391TIP3    H237737   1.951   0.950   1.058  2.5697 -0.1794  0.7283
 5392TIP3   OH237738   4.133   3.578   1.348 -0.3263  0.6766 -0.1505
 5392TIP3    H137739   4.206   3.573   1.410  1.3908 -0.9564 -2.1401
 5392TIP3    H237740   4.057   3.546   1.397  1.0445 -0.9880  1.0055
 5393TIP3   OH237741   6.665   2.164   8.148 -0.6841 -0.0711 -0.2806
 5393TIP3    H137742   6.585   2.139   8.102 -0.9631  0.1407  0.0868
 5393TIP3    H237743   6.680   2.092   8.210  0.0293 -0.6609 -1.1069
 5394TIP3   OH237744   2.252   5.683   7.648 -0.2633  0.4169 -0.2636
 5394TIP3    H137745   2.302   5.744   7.594 -0.1663  0.9746  0.4472
 5394TIP3    H237746   2.217   5.736   7.719 -1.0155 -0.1674 -0.1831
 5395TIP3   OH237747   2.734   2.702   8.756 -0.5158  0.0459 -0.0361
 5395TIP3    H137748   2.689   2.619   8.745 -0.5080  0.0866 -0.3747
 5395TIP3    H237749   2.826   2.683   8.739 -0.7004  0.4185 -1.6498
 5396TIP3   OH237750   5.588   2.618   8.370 -0.0143  0.1943 -0.1138
 5396TIP3    H137751   5.608   2.528   8.396  2.1427  0.4048 -0.8576
 5396TIP3    H237752   5.513   2.610   8.312 -0.6710 -0.9592  0.8391
 5397TIP3   OH237753   4.614   5.498   0.860  0.3831  0.1917  0.1622
 5397TIP3    H137754   4.603   5.525   0.769  1.3579 -0.5564 -0.1947
 5397TIP3    H237755   4.604   5.579   0.910 -0.9510  0.4848 -0.5265
 5398TIP3   OH237756   0.641   6.336   1.181 -0.2413  0.1102  0.0258
 5398TIP3    H137757   0.598   6.256   1.152 -0.4281  0.4907 -0.7669
 5398TIP3    H237758   0.712   6.350   1.119 -0.7166  0.9995 -0.3361
 5399TIP3   OH237759   0.642   5.233   1.764 -0.2517  0.3303 -0.3517
 5399TIP3    H137760   0.723   5.273   1.732  0.5736 -0.8790  0.1400
 5399TIP3    H237761   0.573   5.293   1.737  0.5192  0.1061 -3.1362
 5400TIP3   OH237762   0.177   6.281   2.538 -0.2400  0.3003 -0.0816
 5400TIP3    H137763   0.220   6.196   2.541  0.9318  0.9007  1.3655
 5400TIP3    H237764   0.156   6.294   2.445 -0.6287 -1.6257 -0.2999
 5401TIP3   OH237765   4.213   1.735   1.013  0.8164  0.0282  0.5315
 5401TIP3    H137766   4.152   1.696   0.950 -0.4007  1.7978  0.5416
 5401TIP3    H237767   4.287   1.764   0.960  0.0519  1.0039 -0.0237
 5402TIP3   OH237768   3.946   1.676   8.740 -0.0076  0.4340  0.2146
 5402TIP3    H137769   3.906   1.599   8.699 -0.0315 -0.4186  1.7251
 5402TIP3    H237770   4.036   1.650   8.758  0.4292  1.3274 -0.6217
 5403TIP3   OH237771   0.719   2.285   8.563 -0.6651 -0.1492  0.3413
 5403TIP3    H137772   0.690   2.278   8.654 -0.4250 -2.1791  0.3078
 5403TIP3    H237773   0.643   2.257   8.512 -1.0709  1.7453 -0.1763
 5404TIP3   OH237774   0.667   0.876   7.192  0.0589 -1.0598 -0.1079
 5404TIP3    H137775   0.646   0.783   7.194 -1.8390 -0.6973 -0.6769
 5404TIP3    H237776   0.582   0.919   7.197  0.9458  0.6684  0.9274
 5405TIP3   OH237777   0.584   2.920   7.350 -0.1690 -0.3024  0.2228
 5405TIP3    H137778   0.671   2.912   7.388  1.3559  0.0117 -2.9119
 5405TIP3    H237779   0.579   2.850   7.284 -1.8088  0.4474 -0.5221
 5406TIP3   OH237780   6.711   4.851   8.350  0.0880 -0.3016  0.3191
 5406TIP3    H137781   6.641   4.910   8.378 -0.6497  0.8268 -3.3216
 5406TIP3    H237782   6.666   4.771   8.323  0.6978 -1.1382  1.6818
 5407TIP3   OH237783   5.871   2.914   0.606  0.6299 -0.3879  0.4474
 5407TIP3    H137784   5.828   2.986   0.651  2.7703  1.9100 -0.9272
 5407TIP3    H237785   5.801   2.868   0.561 -0.7063  1.6232  0.3477
 5408TIP3   OH237786   4.417   2.349   0.350 -0.3654 -0.1365 -0.0611
 5408TIP3    H137787   4.500   2.385   0.317 -0.3790  0.8017  0.8608
 5408TIP3    H237788   4.370   2.426   0.383 -0.7581 -0.8939  1.2181
 5409TIP3   OH237789   1.616   1.118   2.425  0.6326 -0.0083  0.1078
 5409TIP3    H137790   1.593   1.026   2.409  1.4159  0.0437 -1.4639
 5409TIP3    H237791   1.560   1.143   2.498  0.3034 -1.6941  0.4931
 5410TIP3   OH237792   5.982   1.017   7.743 -0.0103 -0.1667  0.0543
 5410TIP3    H137793   5.926   0.957   7.695  1.0619 -0.0118 -1.4280
 5410TIP3    H237794   6.060   0.967   7.763 -0.0225  0.0830  0.7823
 5411TIP3   OH237795   3.643   2.610   8.141  0.2950  0.0270  0.3240
 5411TIP3    H137796   3.719   2.575   8.188  0.5405  2.4477  1.9223
 5411TIP3    H237797   3.667   2.700   8.119 -0.9674 -0.1146 -1.9455
 5412TIP3   OH237798   2.154   2.950   1.276  0.0086 -0.3987 -0.1690
 5412TIP3    H137799   2.130   2.987   1.191  1.9289 -1.8867 -1.4540
 5412TIP3    H237800   2.209   3.018   1.316 -0.1865 -0.0331 -0.5119
 5413TIP3   OH237801   6.525   4.985   8.040  0.1069  0.1135  0.6958
 5413TIP3    H137802   6.561   5.071   8.062  0.8650 -0.4760  1.8413
 5413TIP3    H237803   6.578   4.954   7.967  0.0991  0.4406  0.5510
 5414TIP3   OH237804   5.812   0.652   0.058  0.2221 -0.8533  0.3906
 5414TIP3    H137805   5.721   0.666   0.086  0.7830 -0.0147  1.9119
 5414TIP3    H237806   5.847   0.740   0.048  0.3439 -1.1197 -2.1900
 5415TIP3   OH237807   1.218   4.774   1.453 -0.4382  0.8975  0.1479
 5415TIP3    H137808   1.248   4.777   1.544  0.5525 -0.8053 -0.0802
 5415TIP3    H237809   1.295   4.747   1.403 -1.2219  0.8393 -1.0689
 5416TIP3   OH237810   5.374   6.646   7.263  0.6049  0.8209 -0.2261
 5416TIP3    H137811   5.357   6.569   7.317  0.1586  1.3077  0.3465
 5416TIP3    H237812   5.441   6.618   7.201 -0.5930 -0.4597 -0.9899
 5417TIP3   OH237813   2.832   4.233   2.129 -0.2026 -0.1337 -0.1664
 5417TIP3    H137814   2.902   4.175   2.159 -0.2295 -1.3144 -2.1909
 5417TIP3    H237815   2.752   4.185   2.149 -0.3569  0.3885  0.4840
 5418TIP3   OH237816   0.324   2.482   7.452  0.8470 -0.2630 -0.0104
 5418TIP3    H137817   0.344   2.405   7.505 -0.2414 -0.1825  0.5361
 5418TIP3    H237818   0.408   2.528   7.445  1.5179 -1.4881 -0.3570
 5419TIP3   OH237819   5.622   0.557   1.653  0.4022  0.4453  0.0397
 5419TIP3    H137820   5.539   0.594   1.683 -0.1493 -0.7511  0.0576
 5419TIP3    H237821   5.663   0.627   1.602  0.2549  1.6955  1.5796
 5420TIP3   OH237822   6.104   0.568   8.736  0.2503  0.6622 -0.0709
 5420TIP3    H137823   6.148   0.540   8.656 -0.7444  1.4832 -0.9332
 5420TIP3    H237824   6.024   0.610   8.706 -1.0037 -0.5398  1.4328
 5421TIP3   OH237825   0.185   5.267   8.014 -0.0272 -0.3312 -0.4712
 5421TIP3    H137826   0.260   5.299   8.064 -0.3745  0.4312 -0.4087
 5421TIP3    H237827   0.182   5.173   8.031 -0.2463 -0.0628  1.1006
 5422TIP3   OH237828   5.196   1.768   0.260 -0.5184 -0.1874  0.4011
 5422TIP3    H137829   5.202   1.807   0.347  0.3606 -0.3569  0.4251
 5422TIP3    H237830   5.270   1.806   0.212 -1.5176  0.5993 -0.5601
 5423TIP3   OH237831   3.649   2.800   0.669 -0.5241  0.3267 -0.3127
 5423TIP3    H137832   3.553   2.798   0.669 -0.5300 -1.4743 -1.0875
 5423TIP3    H237833   3.673   2.772   0.757 -0.7189 -0.3088 -0.4580
 5424TIP3   OH237834   6.244   1.892   8.154  0.3682 -0.1821  0.1514
 5424TIP3    H137835   6.178   1.854   8.096  0.2964 -2.3148  1.5373
 5424TIP3    H237836   6.193   1.930   8.226  0.5705  0.2163  0.0878
 5425TIP3   OH237837   5.260   3.837   0.581 -0.3669  0.1125  0.3425
 5425TIP3    H137838   5.204   3.881   0.517  0.7158  1.2459  0.1352
 5425TIP3    H237839   5.279   3.752   0.542 -0.3603  0.4790 -0.4803
 5426TIP3   OH237840   2.013   2.075   2.073  0.3743 -0.0413  0.4582
 5426TIP3    H137841   2.027   2.119   1.990  0.5942  0.2149  0.6297
 5426TIP3    H237842   2.088   2.015   2.082 -0.2768 -0.9670 -0.0997
 5427TIP3   OH237843   6.741   5.249   0.895  0.3022 -0.4763 -0.3725
 5427TIP3    H137844   6.739   5.289   0.982  1.5714  2.8823 -1.7126
 5427TIP3    H237845   6.825   5.204   0.891  0.9495  0.6666 -0.2951
 5428TIP3   OH237846   2.435   5.483   1.671 -0.9231  0.6861  0.0654
 5428TIP3    H137847   2.405   5.448   1.754  2.0573 -0.0821  0.9416
 5428TIP3    H237848   2.392   5.429   1.605 -0.4182 -1.2211  1.2503
 5429TIP3   OH237849   5.634   3.788   7.368 -0.1976 -0.3714  0.0211
 5429TIP3    H137850   5.729   3.797   7.358 -0.1218 -1.7400 -0.8661
 5429TIP3    H237851   5.602   3.877   7.384  1.3820 -0.0762  1.8546
 5430TIP3   OH237852   4.203   6.587   1.924 -0.5021 -0.0742 -0.6660
 5430TIP3    H137853   4.236   6.601   2.012  0.5840 -2.7255 -0.5794
 5430TIP3    H237854   4.274   6.615   1.866 -0.4109 -0.2709 -0.6478
 5431TIP3   OH237855   1.655   1.900   0.158 -0.0997  0.7829  0.2445
 5431TIP3    H137856   1.676   1.831   0.221 -3.3627 -1.0592 -0.4553
 5431TIP3    H237857   1.685   1.981   0.200  2.4341 -0.8487  1.8171
 5432TIP3   OH237858   4.174   5.660   1.999 -0.2130 -0.0398  0.0587
 5432TIP3    H137859   4.228   5.636   2.074 -1.1213  1.4910  1.2724
 5432TIP3    H237860   4.095   5.607   2.008  0.6617 -1.6433 -1.2318
 5433TIP3   OH237861   4.203   4.800   6.683  0.4860 -0.0571  0.4229
 5433TIP3    H137862   4.207   4.888   6.646  1.5721 -0.5448 -0.6746
 5433TIP3    H237863   4.117   4.767   6.656  0.6503  0.1475 -0.3729
 5434TIP3   OH237864   0.785   4.147   0.118  0.4117 -0.5885  0.1325
 5434TIP3    H137865   0.858   4.207   0.103 -0.5369  1.1255  1.8830
 5434TIP3    H237866   0.721   4.169   0.050  0.4939 -0.3458  0.1343
 5435TIP3   OH237867   4.916   3.266   8.441  0.5566 -0.5348 -0.2331
 5435TIP3    H137868   4.879   3.328   8.378  2.0364 -1.1876 -1.8115
 5435TIP3    H237869   4.967   3.205   8.388  1.8712 -1.1190  1.5990
 5436TIP3   OH237870   2.411   4.034   1.174 -0.0447  0.3191  0.5423
 5436TIP3    H137871   2.449   3.948   1.191  0.4419  0.4326  0.0726
 5436TIP3    H237872   2.403   4.074   1.260 -0.4828 -0.2767  0.7860
 5437TIP3   OH237873   3.287   2.351   0.247  0.1355 -0.0393 -0.2581
 5437TIP3    H137874   3.284   2.306   0.163  0.4326  0.4335 -0.5242
 5437TIP3    H237875   3.287   2.281   0.312 -1.0268 -0.4010 -0.6190
 5438TIP3   OH237876   1.825   4.674   7.942  0.0332 -0.1400 -0.2987
 5438TIP3    H137877   1.908   4.635   7.971 -0.1490  0.0260  0.4665
 5438TIP3    H237878   1.844   4.707   7.854  1.2853  1.4323  0.5154
 5439TIP3   OH237879   3.174   4.137   0.157 -0.4168  0.7020 -0.0955
 5439TIP3    H137880   3.125   4.072   0.207  1.6815 -1.5544 -0.7841
 5439TIP3    H237881   3.251   4.157   0.210 -0.3081  1.5409 -0.5423
 5440TIP3   OH237882   3.938   0.354   0.811  0.8965  0.4450  0.0190
 5440TIP3    H137883   4.016   0.300   0.828  0.4371 -1.9624 -4.1157
 5440TIP3    H237884   3.864   0.295   0.827  0.1385  1.2793 -0.3103
 5441TIP3   OH237885   0.868   1.431   7.209  0.5341 -0.0797  0.4975
 5441TIP3    H137886   0.783   1.471   7.222  0.2497  0.0977 -1.5620
 5441TIP3    H237887   0.872   1.360   7.273 -0.5289  0.8270  1.5965
 5442TIP3   OH237888   3.488   1.135   7.670  0.2995 -0.4661  0.4091
 5442TIP3    H137889   3.478   1.155   7.576 -0.5867  0.6765  0.7170
 5442TIP3    H237890   3.490   1.040   7.674 -0.0065 -0.5402 -0.7475
 5443TIP3   OH237891   3.073   6.013   7.339 -0.0553 -0.2092  0.1335
 5443TIP3    H137892   3.008   6.078   7.366  0.4894  0.9020 -1.1364
 5443TIP3    H237893   3.027   5.929   7.347 -0.5188  0.2008  2.5997
 5444TIP3   OH237894   6.692   2.376   7.985  0.3973  0.0934  0.6765
 5444TIP3    H137895   6.698   2.310   8.054  0.7770  2.2678  2.8783
 5444TIP3    H237896   6.736   2.337   7.910  1.3475 -1.8322  2.1506
 5445TIP3   OH237897   0.790   6.690   7.508  0.4970  0.2448  0.3224
 5445TIP3    H137898   0.756   6.671   7.596  0.3320  1.1501  0.4555
 5445TIP3    H237899   0.734   6.759   7.474  1.1557  0.5708 -0.1225
 5446TIP3   OH237900   2.357   0.318   1.595 -0.1328  0.5718 -1.3561
 5446TIP3    H137901   2.353   0.223   1.580  0.5356  0.4237 -0.6190
 5446TIP3    H237902   2.302   0.332   1.672  0.0041  0.7499 -1.2924
 5447TIP3   OH237903   1.492   1.286   0.186 -0.0110 -0.9408 -0.0375
 5447TIP3    H137904   1.545   1.269   0.264  0.6928 -0.5378 -0.4169
 5447TIP3    H237905   1.547   1.341   0.131 -1.6042  1.3287  0.4742
 5448TIP3   OH237906   6.297   5.143   6.061 -0.1121  0.2631 -0.5714
 5448TIP3    H137907   6.385   5.139   6.025 -0.0887  1.2667 -0.6720
 5448TIP3    H237908   6.241   5.110   5.991  0.0214  1.3588 -1.2189
 5449TIP3   OH237909   2.756   4.476   7.139  0.1847  0.1431 -0.1362
 5449TIP3    H137910   2.773   4.383   7.130 -3.3600 -0.7500  1.0519
 5449TIP3    H237911   2.740   4.489   7.232  1.0039  2.0682 -0.2058
 5450TIP3   OH237912   2.709   4.499   2.264  0.8210  0.6398 -0.0705
 5450TIP3    H137913   2.744   4.531   2.181  1.5446  2.1863  0.7831
 5450TIP3    H237914   2.615   4.488   2.248  1.0366  0.3499 -1.2416
 5451TIP3   OH237915   6.342   1.555   2.151  0.4245  0.0157 -1.0424
 5451TIP3    H137916   6.248   1.559   2.134 -0.0257  1.2165  1.2401
 5451TIP3    H237917   6.366   1.463   2.139 -1.2534 -0.4862 -0.7636
 5452TIP3   OH237918   1.561   6.677   6.642 -0.7467  0.4833  0.1099
 5452TIP3    H137919   1.556   6.771   6.625  1.7964  0.3745 -1.7972
 5452TIP3    H237920   1.642   6.666   6.691 -0.2043 -0.8483 -1.0258
 5453TIP3   OH237921   5.282   5.983   1.139 -0.0677 -0.1128  0.7086
 5453TIP3    H137922   5.194   6.021   1.134 -0.6613 -1.5567 -2.4354
 5453TIP3    H237923   5.297   5.947   1.051  3.7641  0.2193  1.0831
 5454TIP3   OH237924   0.467   5.441   1.124 -0.2303  0.5689  0.4147
 5454TIP3    H137925   0.383   5.450   1.080 -0.0442  0.9932  0.1490
 5454TIP3    H237926   0.446   5.393   1.205 -0.3320 -1.6883 -0.8613
 5455TIP3   OH237927   1.927   1.806   0.400  0.0801 -0.3422 -0.7499
 5455TIP3    H137928   1.975   1.791   0.319  0.6777 -2.0949 -0.1233
 5455TIP3    H237929   1.935   1.723   0.448 -3.0546 -0.5444 -0.3458
 5456TIP3   OH237930   1.571   3.348   0.369 -0.2166  0.0413  0.3997
 5456TIP3    H137931   1.543   3.290   0.298 -0.7297  1.0273 -0.2309
 5456TIP3    H237932   1.516   3.324   0.443 -1.2386  0.4866 -0.1970
 5457TIP3   OH237933   3.099   0.626   0.538  0.0646  0.1471 -0.2095
 5457TIP3    H137934   3.014   0.670   0.540 -0.1748 -0.3032 -0.4251
 5457TIP3    H237935   3.081   0.539   0.502  0.3050 -0.6059  1.3733
 5458TIP3   OH237936   2.146   5.286   0.526 -0.0569  0.1164  0.3281
 5458TIP3    H137937   2.088   5.324   0.460  0.4688  0.2095 -0.0771
 5458TIP3    H237938   2.214   5.241   0.477  0.0287 -0.2880  0.8068
 5459TIP3   OH237939   4.758   2.110   7.684  0.3630  0.0053 -0.2745
 5459TIP3    H137940   4.745   2.139   7.774 -1.2694  0.1966 -0.5406
 5459TIP3    H237941   4.681   2.058   7.664  1.2272 -0.9623 -1.2163
 5460TIP3   OH237942   4.091   0.748   0.423  0.0913  1.0902 -0.1680
 5460TIP3    H137943   4.149   0.694   0.478  0.0196  1.3915  0.2057
 5460TIP3    H237944   4.131   0.745   0.336 -0.6005 -0.6221 -0.4652
 5461TIP3   OH237945   6.253   2.519   8.722  0.1088  0.1545  0.0599
 5461TIP3    H137946   6.255   2.445   8.783  2.4507  0.2055  0.1282
 5461TIP3    H237947   6.191   2.492   8.654 -2.2394 -0.0866  2.1235
 5462TIP3   OH237948   2.622   0.799   6.481  0.7863  0.5403 -0.4173
 5462TIP3    H137949   2.628   0.746   6.401  0.7009  0.3706 -0.3104
 5462TIP3    H237950   2.619   0.736   6.552  0.5309  0.6865 -0.2982
 5463TIP3   OH237951   4.261   4.063   1.682 -0.8951  0.2645  0.1313
 5463TIP3    H137952   4.258   3.972   1.712  0.5575 -0.5582 -1.9683
 5463TIP3    H237953   4.343   4.097   1.718  0.0807 -0.2520 -1.4941
 5464TIP3   OH237954   6.160   4.602   0.753 -0.2848 -0.3402 -0.5389
 5464TIP3    H137955   6.220   4.592   0.680  1.1424  1.0064  0.3783
 5464TIP3    H237956   6.153   4.697   0.766 -0.1323 -0.5381  1.3188
 5465TIP3   OH237957   6.493   0.737   7.173 -0.5881  0.2836  0.1434
 5465TIP3    H137958   6.440   0.804   7.217  1.0456  2.0438 -0.4702
 5465TIP3    H237959   6.579   0.744   7.213  0.8170  1.5492 -2.8185
 5466TIP3   OH237960   3.063   0.464   7.028 -0.1260  0.1337 -0.1037
 5466TIP3    H137961   3.019   0.387   6.993 -0.4817 -0.0541  0.7424
 5466TIP3    H237962   3.157   0.445   7.018 -0.1706 -1.0366  1.3807
 5467TIP3   OH237963   0.399   2.200   1.798  0.0632  0.4850  0.4504
 5467TIP3    H137964   0.427   2.117   1.759 -0.7066  1.0822 -1.5295
 5467TIP3    H237965   0.477   2.234   1.842  0.4213 -1.2010  1.2122
 5468TIP3   OH237966   5.341   6.459   8.066  0.2737  0.1985  0.1303
 5468TIP3    H137967   5.407   6.393   8.045  0.0547 -0.2827  0.8922
 5468TIP3    H237968   5.391   6.533   8.101  0.5470  0.5841 -1.0226
 5469TIP3   OH237969   0.187   5.647   1.218  0.0618 -0.1403 -0.3315
 5469TIP3    H137970   0.254   5.613   1.277  0.3413  0.9044 -0.0328
 5469TIP3    H237971   0.148   5.720   1.265 -0.2217  0.2372 -1.1425
 5470TIP3   OH237972   4.074   6.351   1.914 -0.7116  0.0225  0.1130
 5470TIP3    H137973   4.008   6.344   1.983 -1.1366  0.2436 -0.2681
 5470TIP3    H237974   4.107   6.441   1.922 -0.7083  0.0246  0.0728
 5471TIP3   OH237975   0.794   6.444   8.198  0.2785  0.4611 -0.2557
 5471TIP3    H137976   0.884   6.419   8.175  1.0113  1.7175  1.0641
 5471TIP3    H237977   0.788   6.536   8.170 -0.3114  0.6394  0.4486
 5472TIP3   OH237978   5.014   4.748   8.194 -0.7663 -0.0340 -0.0821
 5472TIP3    H137979   4.967   4.703   8.264 -0.8293 -0.9181 -0.6765
 5472TIP3    H237980   5.077   4.684   8.162 -1.7459 -0.1891 -1.8318
 5473TIP3   OH237981   0.530   5.614   1.697 -0.3198  0.1125  0.2418
 5473TIP3    H137982   0.453   5.561   1.678 -0.4115  0.0695  0.7170
 5473TIP3    H237983   0.495   5.695   1.734 -0.2299  0.8984 -1.3041
 5474TIP3   OH237984   0.479   5.817   0.954  0.4346 -0.0597  0.0216
 5474TIP3    H137985   0.486   5.729   0.917  0.6040  0.1086 -0.3506
 5474TIP3    H237986   0.501   5.875   0.881 -2.9933  0.4797 -0.7598
 5475TIP3   OH237987   0.470   4.550   8.115  0.5140 -0.0019  0.5322
 5475TIP3    H137988   0.459   4.587   8.027 -1.3232  2.0856  1.5468
 5475TIP3    H237989   0.490   4.458   8.100 -1.4062 -0.1083 -2.0692
 5476TIP3   OH237990   2.760   6.427   6.676 -0.7483 -0.4007  0.1708
 5476TIP3    H137991   2.767   6.502   6.735 -0.5644 -0.0033 -0.3478
 5476TIP3    H237992   2.677   6.386   6.699 -0.7870 -0.1112  0.5475
 5477TIP3   OH237993   6.253   1.441   7.615 -0.0621 -0.1631 -0.0123
 5477TIP3    H137994   6.301   1.416   7.536  0.0934 -1.0036  0.3347
 5477TIP3    H237995   6.201   1.363   7.637  0.6873 -0.3261  1.2960
 5478TIP3   OH237996   6.472   4.024   1.560  0.0970 -0.0536 -0.3368
 5478TIP3    H137997   6.560   4.057   1.542  0.5241 -1.5248 -1.1156
 5478TIP3    H237998   6.462   4.031   1.655  0.5916  1.1861 -0.3590
 5479TIP3   OH237999   5.503   5.668   7.585 -0.2101  0.6441  0.2874
 5479TIP3    H138000   5.454   5.586   7.589 -0.7457  0.8600 -1.2287
 5479TIP3    H238001   5.573   5.657   7.649 -1.0578 -0.4589  1.0696
 5480TIP3   OH238002   2.482   4.942   8.102  0.2989 -0.1119  0.4986
 5480TIP3    H138003   2.458   4.881   8.172 -1.3457 -0.3288 -0.1814
 5480TIP3    H238004   2.423   5.017   8.114  1.5799  0.8859  0.6976
 5481TIP3   OH238005   3.946   1.328   8.076  0.8206  0.1562 -0.6554
 5481TIP3    H138006   3.911   1.417   8.075  0.4024 -0.0046 -0.6943
 5481TIP3    H238007   4.023   1.333   8.132  0.1696  0.3079  0.2417
 5482TIP3   OH238008   2.602   2.631   1.739 -0.0679  0.9946 -0.1327
 5482TIP3    H138009   2.645   2.656   1.821 -1.9715  0.9669  0.9395
 5482TIP3    H238010   2.523   2.585   1.767 -0.8317  1.1071 -1.9872
 5483TIP3   OH238011   0.531   1.689   0.419  0.0288 -0.3806 -0.3986
 5483TIP3    H138012   0.443   1.705   0.384 -0.3115  0.1032  0.6260
 5483TIP3    H238013   0.564   1.776   0.440 -0.0618 -0.6803  1.1030
 5484TIP3   OH238014   2.505   6.376   7.218 -0.3054  0.5596 -0.5477
 5484TIP3    H138015   2.495   6.426   7.299 -0.9300 -1.0243  0.4023
 5484TIP3    H238016   2.584   6.412   7.177  1.7006 -0.3765  2.1803
 5485TIP3   OH238017   2.865   2.538   7.326  0.0921  0.4102  0.1682
 5485TIP3    H138018   2.781   2.569   7.291  0.2324 -1.8664 -2.5275
 5485TIP3    H238019   2.874   2.583   7.410 -2.7136  2.4729 -0.4969
 5486TIP3   OH238020   0.565   5.510   7.298 -0.1791  0.2841 -0.3823
 5486TIP3    H138021   0.486   5.506   7.244  0.7517 -2.1334 -1.7121
 5486TIP3    H238022   0.636   5.525   7.235  0.6628  0.1554  0.5146
 5487TIP3   OH238023   2.055   0.030   2.185  0.3923 -0.1904  0.6233
 5487TIP3    H138024   2.067   0.121   2.213  0.4229 -0.6467  2.2277
 5487TIP3    H238025   2.016   0.037   2.098  0.0547  1.3615  0.8554
 5488TIP3   OH238026   0.121   5.745   2.500  0.2683  0.0296 -0.7464
 5488TIP3    H138027   0.148   5.659   2.530  0.1832 -0.5166 -2.1406
 5488TIP3    H238028   0.036   5.730   2.459 -0.4396  1.0565  0.2901
 5489TIP3   OH238029   1.017   5.528   7.180  0.1005 -0.0163 -0.3705
 5489TIP3    H138030   1.050   5.574   7.103  1.6284 -0.9878 -0.3489
 5489TIP3    H238031   1.081   5.458   7.195 -0.3731 -0.1031  1.5398
 5490TIP3   OH238032   0.077   1.585   1.869 -0.1324  0.1361 -0.8884
 5490TIP3    H138033   0.133   1.589   1.946  0.1432 -1.5150 -0.9715
 5490TIP3    H238034   0.137   1.596   1.795  0.1013 -1.3843 -0.9661
 5491TIP3   OH238035   4.543   6.244   7.183 -0.0331  0.4306 -1.0063
 5491TIP3    H138036   4.449   6.266   7.178 -0.2726 -0.2026  0.3497
 5491TIP3    H238037   4.587   6.329   7.184 -0.6517  0.7554 -0.7161
 5492TIP3   OH238038   5.283   0.997   0.099  0.7389  0.4397  0.1981
 5492TIP3    H138039   5.248   0.974   0.014  0.6991 -0.6596  0.4965
 5492TIP3    H238040   5.223   0.957   0.162 -0.7505  3.4084  0.8388
 5493TIP3   OH238041   5.319   3.120   6.042  0.3613  0.1288 -0.5058
 5493TIP3    H138042   5.387   3.179   6.010  0.7785  0.4826  0.9565
 5493TIP3    H238043   5.339   3.109   6.135 -2.9198  2.1452  0.6093
 5494TIP3   OH238044   2.542   1.311   8.179  0.4292  0.4013 -0.0066
 5494TIP3    H138045   2.619   1.258   8.159  0.6042 -0.8281  3.2365
 5494TIP3    H238046   2.578   1.393   8.214  0.2986  0.1992  0.6257
 5495TIP3   OH238047   4.147   0.470   0.591  0.3977  0.1360 -0.0377
 5495TIP3    H138048   4.198   0.390   0.605  0.5992  0.0548 -1.0925
 5495TIP3    H238049   4.113   0.493   0.677  0.2096 -1.1732  0.2598
 5496TIP3   OH238050   6.119   4.182   1.961  0.5428  0.2449 -0.5720
 5496TIP3    H138051   6.143   4.093   1.988  1.3840  0.4389 -0.6432
 5496TIP3    H238052   6.042   4.203   2.014  1.5185  0.2106  0.9314
 5497TIP3   OH238053   5.597   4.348   1.640 -0.0974 -0.0270  0.4223
 5497TIP3    H138054   5.687   4.317   1.642 -0.1084 -0.0785  2.8886
 5497TIP3    H238055   5.595   4.422   1.701 -1.0454  2.2053 -2.0621
 5498TIP3   OH238056   4.362   6.422   0.718 -0.2438  0.0090 -0.7588
 5498TIP3    H138057   4.274   6.409   0.752 -0.0742 -0.6008 -0.5424
 5498TIP3    H238058   4.414   6.448   0.794  0.3028 -2.0988 -0.3464
 5499TIP3   OH238059   1.417   4.256   0.756  0.0712 -0.1103 -0.2024
 5499TIP3    H138060   1.447   4.318   0.821  0.9258 -0.6419 -0.0759
 5499TIP3    H238061   1.323   4.245   0.774 -0.1181  1.2131 -0.3110
 5500TIP3   OH238062   3.979   4.124   7.403  0.7111  0.2061  0.1597
 5500TIP3    H138063   4.049   4.099   7.343 -0.0886 -0.1236 -0.6509
 5500TIP3    H238064   4.001   4.214   7.429  2.1192 -0.3230  0.9388
 5501TIP3   OH238065   3.292   4.363   7.219 -0.5793 -0.7463 -0.4315
 5501TIP3    H138066   3.269   4.365   7.126 -2.3556  0.5775 -0.0033
 5501TIP3    H238067   3.236   4.429   7.259  1.8942  0.5254  1.2085
 5502TIP3   OH238068   6.799   3.235   7.338  0.1460  0.0775 -0.4514
 5502TIP3    H138069   6.735   3.166   7.323 -0.3471  1.0026 -2.9787
 5502TIP3    H238070   6.820   3.228   7.432 -0.7964 -2.6460 -0.3607
 5503TIP3   OH238071   4.033   0.349   7.773 -0.4806 -0.7307 -0.1147
 5503TIP3    H138072   4.122   0.338   7.739  0.9138  0.5295  2.7793
 5503TIP3    H238073   4.023   0.277   7.835  0.2991  1.4588  2.7377
 5504TIP3   OH238074   5.715   2.770   7.036  0.3793  0.4413  0.3664
 5504TIP3    H138075   5.772   2.842   7.010  0.3640  0.4863  0.4572
 5504TIP3    H238076   5.650   2.811   7.094 -1.2979  0.9298 -1.7062
 5505TIP3   OH238077   3.543   1.061   7.112  0.1997  0.7598 -0.0409
 5505TIP3    H138078   3.482   0.989   7.129 -0.8082  1.8347  1.0524
 5505TIP3    H238079   3.560   1.056   7.018 -1.5767  0.4165 -0.3769
 5506TIP3   OH238080   3.339   4.019   8.066  0.2638 -0.2439  0.0609
 5506TIP3    H138081   3.377   3.938   8.102  1.0014 -0.0400 -0.2532
 5506TIP3    H238082   3.410   4.059   8.016 -0.0132  0.7474  0.4423
 5507TIP3   OH238083   1.842   0.308   8.048 -0.2565  0.3804  0.2811
 5507TIP3    H138084   1.886   0.328   8.131  0.4708  1.8823 -0.4138
 5507TIP3    H238085   1.762   0.361   8.050 -0.5144 -0.0027  0.2421
 5508TIP3   OH238086   1.813   2.300   0.558 -0.1832  0.0830 -0.6096
 5508TIP3    H138087   1.844   2.225   0.609 -0.5858 -0.9959 -1.8844
 5508TIP3    H238088   1.885   2.319   0.498 -0.4371  0.1044 -0.9116
 5509TIP3   OH238089   6.072   6.028   8.158 -0.0499 -0.1782  0.4921
 5509TIP3    H138090   6.144   6.070   8.111 -0.0808 -0.4540  0.1949
 5509TIP3    H238091   6.100   6.027   8.250 -0.6456  1.7553  0.7283
 5510TIP3   OH238092   0.921   2.490   7.210  0.0875 -0.0152 -0.8671
 5510TIP3    H138093   1.011   2.461   7.225  1.7470  4.1771 -1.3677
 5510TIP3    H238094   0.909   2.485   7.116 -0.2414 -0.5263 -0.8049
 5511TIP3   OH238095   3.491   2.512   7.915 -0.2621 -0.1412  0.1926
 5511TIP3    H138096   3.535   2.528   7.999 -0.3552  1.2611  0.0107
 5511TIP3    H238097   3.400   2.495   7.939 -0.2039 -0.1608  0.4031
 5512TIP3   OH238098   1.802   5.040   0.118  0.0734 -0.0246  0.4415
 5512TIP3    H138099   1.842   5.119   0.155  0.5312 -0.4012  0.7491
 5512TIP3    H238100   1.708   5.057   0.122  0.1829  1.1783 -0.9366
 5513TIP3   OH238101   1.523   4.236   1.406  0.5340 -0.2595  0.7601
 5513TIP3    H138102   1.529   4.222   1.501  1.0245 -2.8846  0.4135
 5513TIP3    H238103   1.429   4.244   1.389  0.2818 -1.8925  1.2473
 5514TIP3   OH238104   6.368   3.517   1.032 -0.0202 -0.2420 -0.2194
 5514TIP3    H138105   6.444   3.461   1.045 -0.4563 -0.8457 -0.1993
 5514TIP3    H238106   6.297   3.456   1.011 -0.2970  0.3793 -1.1543
 5515TIP3   OH238107   1.653   5.591   0.083 -0.2301  1.0696 -0.3560
 5515TIP3    H138108   1.605   5.671   0.061 -0.4546  0.8345 -0.7283
 5515TIP3    H238109   1.722   5.585   0.017 -0.2011  0.9650 -0.3171
 5516TIP3   OH238110   3.290   1.406   6.382  0.4882  0.2725  0.0079
 5516TIP3    H138111   3.245   1.385   6.464  1.1240 -1.3232 -0.0103
 5516TIP3    H238112   3.232   1.372   6.314 -1.5628  4.2686 -0.5197
 5517TIP3   OH238113   3.362   2.384   7.628  0.1230 -0.1390 -0.0721
 5517TIP3    H138114   3.268   2.397   7.634 -0.3332 -2.3836 -1.0603
 5517TIP3    H238115   3.382   2.321   7.697  1.1572  1.2416  0.9373
 5518TIP3   OH238116   0.386   4.548   7.195  0.1561  0.1341 -0.0528
 5518TIP3    H138117   0.359   4.509   7.278  1.5917  0.4102  0.5684
 5518TIP3    H238118   0.472   4.510   7.178 -0.5869 -0.8009 -2.0206
 5519TIP3   OH238119   6.633   1.021   7.018  0.7287 -0.6899  0.9425
 5519TIP3    H138120   6.695   1.078   6.973 -1.3360  0.7134 -0.3331
 5519TIP3    H238121   6.606   0.957   6.952 -1.7352  0.9114  0.2156
 5520TIP3   OH238122   3.440   6.701   7.436  0.2761  0.4712 -0.1482
 5520TIP3    H138123   3.370   6.675   7.376  1.9542 -1.3560 -1.4179
 5520TIP3    H238124   3.434   6.797   7.439 -2.5300  0.3729  0.1927
 5521TIP3   OH238125   1.705   5.424   0.599 -0.1757  0.0291  0.6189
 5521TIP3    H138126   1.713   5.354   0.534 -2.5020  1.2255 -1.1023
 5521TIP3    H238127   1.672   5.498   0.550  0.3356  1.7774  2.7690
 5522TIP3   OH238128   2.612   5.266   0.821 -0.3569  0.3084  0.3886
 5522TIP3    H138129   2.652   5.186   0.786  1.5141  1.3854 -0.0624
 5522TIP3    H238130   2.538   5.283   0.763  0.3867 -0.0550 -0.6962
 5523TIP3   OH238131   2.063   0.126   0.961 -0.2647  0.3060 -0.2543
 5523TIP3    H138132   2.137   0.177   0.929  0.1143 -0.4703 -0.6539
 5523TIP3    H238133   2.001   0.191   0.993 -0.9732  1.2061 -3.1666
 5524TIP3   OH238134   2.653   4.178   1.711 -0.3140  0.3601 -0.1522
 5524TIP3    H138135   2.686   4.268   1.723 -0.6648  0.5789 -0.7728
 5524TIP3    H238136   2.594   4.164   1.784  0.5928  0.2288  0.5673
 5525TIP3   OH238137   5.795   3.761   7.672 -0.0495  0.8341 -0.7065
 5525TIP3    H138138   5.824   3.733   7.758  0.5608  1.5735 -0.6590
 5525TIP3    H238139   5.857   3.720   7.611 -0.4549  0.3455 -0.7989
 5526TIP3   OH238140   5.678   3.325   0.057 -0.0092  0.0289 -0.1163
 5526TIP3    H138141   5.704   3.391  -0.008 -0.1433  0.4953  0.2953
 5526TIP3    H238142   5.615   3.371   0.114  1.6489  0.2932  1.6096
 5527TIP3   OH238143   3.607   3.787   0.248 -0.0575  0.2351  0.1699
 5527TIP3    H138144   3.602   3.792   0.344 -0.7224  0.2561  0.1364
 5527TIP3    H238145   3.525   3.746   0.222  0.0341  0.4190 -0.4092
 5528TIP3   OH238146   5.865   4.085   8.296 -0.7040 -0.6954 -0.6447
 5528TIP3    H138147   5.951   4.106   8.261  0.2436 -1.8505  0.8836
 5528TIP3    H238148   5.825   4.029   8.229  0.2664 -1.2510 -0.7710
 5529TIP3   OH238149   2.572   1.083   1.419 -0.7665 -0.2455 -0.5333
 5529TIP3    H138150   2.523   1.101   1.499 -1.2515 -0.4049 -0.7900
 5529TIP3    H238151   2.632   1.012   1.442  0.1479  0.6919  0.0936
 5530TIP3   OH238152   1.159   5.964   0.801  0.4455  0.1968 -0.0807
 5530TIP3    H138153   1.210   5.894   0.842 -0.0300 -0.0696  0.0701
 5530TIP3    H238154   1.204   5.982   0.719 -0.5569 -1.7421 -1.1384
 5531TIP3   OH238155   1.814   4.806   7.088  0.0249 -0.6087 -0.2627
 5531TIP3    H138156   1.852   4.720   7.104  1.9475 -0.1862 -2.0780
 5531TIP3    H238157   1.890   4.862   7.068 -1.2008  1.4081  0.3899
 5532TIP3   OH238158   0.266   1.000   1.206 -0.0269 -0.2625 -0.1823
 5532TIP3    H138159   0.289   0.974   1.295 -0.6556 -1.1073 -0.2556
 5532TIP3    H238160   0.184   1.048   1.215 -0.3435 -0.7639 -0.3494
 5533TIP3   OH238161   3.047   3.155   7.905  0.0654 -0.2555  0.0809
 5533TIP3    H138162   2.952   3.148   7.900 -0.1506  2.0519 -0.1127
 5533TIP3    H238163   3.066   3.159   7.999 -0.0195 -0.6203  0.1159
 5534TIP3   OH238164   6.173   0.457   2.325 -0.6003  0.9996 -0.5342
 5534TIP3    H138165   6.105   0.420   2.269  0.3273 -0.2460 -0.8976
 5534TIP3    H238166   6.194   0.386   2.386 -0.5148  1.8060  0.3864
 5535TIP3   OH238167   5.129   3.042   8.294 -0.2491  0.2052 -0.0631
 5535TIP3    H138168   5.195   3.110   8.308  1.3111 -1.0659 -0.8358
 5535TIP3    H238169   5.139   2.984   8.370 -0.7519  0.2085  0.0061
 5536TIP3   OH238170   1.970   1.112   8.467  0.0942  0.1844  0.3446
 5536TIP3    H138171   1.923   1.144   8.390 -0.2064 -0.4955  0.2403
 5536TIP3    H238172   2.014   1.190   8.502  1.5774  0.2291 -1.4492
 5537TIP3   OH238173   3.889   2.008   7.444  0.7631  0.2071 -0.3195
 5537TIP3    H138174   3.893   1.944   7.514 -0.5799  2.1069  1.5985
 5537TIP3    H238175   3.796   2.025   7.431  1.0520  1.2050 -1.3026
 5538TIP3   OH238176   1.589   3.072   7.882 -0.5241  0.2080 -0.5072
 5538TIP3    H138177   1.548   3.103   7.962  0.6430  0.2171  0.1087
 5538TIP3    H238178   1.621   3.151   7.839 -0.2651  0.1193 -0.4794
 5539TIP3   OH238179   1.549   0.690   7.389  0.3142  0.2441 -0.0906
 5539TIP3    H138180   1.555   0.679   7.484  0.5987  0.2554 -0.1038
 5539TIP3    H238181   1.458   0.711   7.372 -0.3138 -2.2430 -0.0804
 5540TIP3   OH238182   1.420   0.247   7.992 -0.1196 -1.0188  0.3694
 5540TIP3    H138183   1.382   0.303   7.923  0.5764  0.0110  0.8044
 5540TIP3    H238184   1.348   0.235   8.054 -0.4933 -1.2414 -0.0900
 5541TIP3   OH238185   3.550   3.396   8.176  0.3040 -0.1063 -0.1944
 5541TIP3    H138186   3.533   3.471   8.233  0.2634  0.0567 -0.4197
 5541TIP3    H238187   3.472   3.389   8.122 -0.6310 -1.6182  1.2348
 5542TIP3   OH238188   2.039   1.390   1.219  0.0903 -0.4600  0.2334
 5542TIP3    H138189   2.052   1.305   1.178  0.3595 -1.0118  1.4277
 5542TIP3    H238190   2.106   1.395   1.287  0.5013  0.9911 -0.2385
 5543TIP3   OH238191   1.398   4.691   0.872  0.1506  0.7747  0.0851
 5543TIP3    H138192   1.361   4.753   0.935 -0.6266  0.1807  0.2258
 5543TIP3    H238193   1.329   4.625   0.860  1.3422 -0.6174  0.6879
 5544TIP3   OH238194   6.198   2.650   8.064  0.4198 -0.4413  0.1270
 5544TIP3    H138195   6.200   2.624   7.972 -1.0462  1.2159 -0.4370
 5544TIP3    H238196   6.249   2.731   8.067  0.0896 -0.2502  0.6805
 5545TIP3   OH238197   6.728   1.590   8.285 -0.0097 -0.4557  0.3269
 5545TIP3    H138198   6.689   1.503   8.274  0.3955 -0.7936  1.4989
 5545TIP3    H238199   6.661   1.650   8.252 -0.3725 -1.1936 -0.3153
 5546TIP3   OH238200   2.672   3.830   0.488 -0.1618 -0.4088  0.0526
 5546TIP3    H138201   2.733   3.859   0.555 -2.6722 -0.2804  2.4704
 5546TIP3    H238202   2.718   3.758   0.443  2.1079  0.3681  0.9927
 5547TIP3   OH238203   0.906   4.878   0.745 -0.1201  0.3692 -0.3369
 5547TIP3    H138204   0.849   4.803   0.763  0.7673 -0.4492 -0.8739
 5547TIP3    H238205   0.846   4.947   0.714 -1.2470  0.6831  2.2856
 5548TIP3   OH238206   1.152   0.854   1.421  0.2117  0.1640 -0.1622
 5548TIP3    H138207   1.082   0.888   1.365  0.4711 -1.7848 -1.7794
 5548TIP3    H238208   1.233   0.878   1.376  0.5252  0.3164  0.4577
 5549TIP3   OH238209   3.038   6.515   1.318  0.0038 -0.2338  0.1472
 5549TIP3    H138210   3.062   6.574   1.389 -0.5616 -0.0531  0.1955
 5549TIP3    H238211   2.953   6.548   1.287  1.6949  1.7615 -2.8520
 5550TIP3   OH238212   2.071   2.505   1.816 -0.1835  0.0414  0.0249
 5550TIP3    H138213   2.045   2.584   1.864 -0.5060  2.3438 -3.5548
 5550TIP3    H238214   1.988   2.470   1.782  0.2165 -0.0596 -0.8671
 5551TIP3   OH238215   6.535   5.855   2.109  0.0706  0.2256  0.1098
 5551TIP3    H138216   6.571   5.943   2.122  0.1717  0.1404  0.4228
 5551TIP3    H238217   6.443   5.863   2.135 -0.2586  0.5398 -1.0745
 5552TIP3   OH238218   5.558   3.524   0.895  0.6669  0.2890  0.2217
 5552TIP3    H138219   5.521   3.438   0.877  0.0751  0.7580 -0.9329
 5552TIP3    H238220   5.504   3.584   0.844  0.8688  1.3853  1.2577
 5553TIP3   OH238221   2.471   6.523   8.109  0.5821 -0.0046  0.1945
 5553TIP3    H138222   2.566   6.518   8.107  0.6699  1.1474 -1.7010
 5553TIP3    H238223   2.450   6.590   8.043 -1.4185  1.6006  2.2967
 5554TIP3   OH238224   6.164   5.324   0.565  0.3907 -0.2791  0.0106
 5554TIP3    H138225   6.153   5.408   0.523  0.3002 -0.5146 -0.4400
 5554TIP3    H238226   6.233   5.338   0.631  0.1540  0.2181  0.1547
 5555TIP3   OH238227   2.645   6.488   2.214  0.0886  0.3207  0.0409
 5555TIP3    H138228   2.635   6.437   2.133  1.1076 -1.6036  1.0438
 5555TIP3    H238229   2.575   6.553   2.211 -1.8681 -1.7137 -0.9110
 5556TIP3   OH238230   1.620   5.715   1.327 -0.0773 -0.0127 -0.1557
 5556TIP3    H138231   1.607   5.790   1.270 -0.8919 -0.0615 -0.0452
 5556TIP3    H238232   1.534   5.673   1.332  0.0015 -0.0734  1.0085
 5557TIP3   OH238233   3.171   5.004   7.970 -0.3878  0.6199 -0.7281
 5557TIP3    H138234   3.232   4.939   7.937  0.7267 -0.0449  2.3713
 5557TIP3    H238235   3.102   4.953   8.013 -0.4109  1.4360  0.2375
 5558TIP3   OH238236   1.499   1.695   8.587  0.2554  0.6511  0.5907
 5558TIP3    H138237   1.443   1.666   8.659 -0.4537 -0.0901 -0.2358
 5558TIP3    H238238   1.442   1.748   8.531  0.6080  0.6284  0.2023
 5559TIP3   OH238239   1.308   5.621   1.427 -0.1266  0.4502  0.3546
 5559TIP3    H138240   1.252   5.669   1.366 -0.3391  1.2188  1.1351
 5559TIP3    H238241   1.281   5.530   1.417 -1.6648  0.8227  0.8373
 5560TIP3   OH238242   6.247   3.274   1.679 -0.1084  0.0498  0.5057
 5560TIP3    H138243   6.306   3.325   1.735  1.0102  0.6991 -1.1874
 5560TIP3    H238244   6.166   3.326   1.677  0.8149  1.5175 -0.7283
 5561TIP3   OH238245   1.621   1.701   1.413  0.3215 -0.0694  0.2961
 5561TIP3    H138246   1.685   1.641   1.376 -0.2746 -0.8702  0.5246
 5561TIP3    H238247   1.537   1.673   1.376 -0.3802 -1.2230  2.5322
 5562TIP3   OH238248   4.676   3.165   6.430  0.8800  0.0686 -0.5762
 5562TIP3    H138249   4.637   3.251   6.419  1.7554  0.5780  0.0855
 5562TIP3    H238250   4.603   3.104   6.427 -0.1451  1.0590  1.6978
 5563TIP3   OH238251   3.091   3.331   7.196  0.2786  0.4475 -0.1165
 5563TIP3    H138252   3.054   3.378   7.270 -0.2898 -0.7390  0.3867
 5563TIP3    H238253   3.022   3.333   7.129 -0.8012 -1.7859  0.8302
 5564TIP3   OH238254   3.315   0.147   7.317 -0.3110 -0.2575 -0.0270
 5564TIP3    H138255   3.245   0.116   7.259 -0.3701  1.5885 -1.0105
 5564TIP3    H238256   3.273   0.211   7.374  0.6771  1.4542 -1.1384
 5565TIP3   OH238257   4.412   1.717   7.029  0.5942  0.5871  0.0729
 5565TIP3    H138258   4.322   1.742   7.051  0.6154 -0.4273  1.3899
 5565TIP3    H238259   4.465   1.793   7.052 -0.0033  1.6291 -1.7502
 5566TIP3   OH238260   3.770   1.196   7.727 -0.5416  0.0822 -0.2608
 5566TIP3    H138261   3.679   1.194   7.756 -0.6108 -0.3188 -0.5072
 5566TIP3    H238262   3.776   1.274   7.671 -0.3938  0.8992  0.8592
 5567TIP3   OH238263   4.445   2.247   7.966  0.0925  0.8511  0.3166
 5567TIP3    H138264   4.452   2.319   7.903  1.9803 -0.9125 -1.6756
 5567TIP3    H238265   4.453   2.168   7.912  0.6294 -0.8092  2.6773
 5568TIP3   OH238266   3.015   1.806   1.350 -0.6063 -0.1010 -0.2837
 5568TIP3    H138267   3.043   1.716   1.332 -0.5209 -0.4079  1.2006
 5568TIP3    H238268   2.930   1.814   1.308 -0.1934 -0.5504 -1.2407
 5569TIP3   OH238269   1.898   0.413   6.913  0.7411 -0.3449 -0.1061
 5569TIP3    H138270   1.883   0.474   6.840 -1.3587 -1.7175 -0.9230
 5569TIP3    H238271   1.885   0.466   6.991 -1.4755  0.2632 -0.7986
 5570TIP3   OH238272   4.483   5.127   0.311  0.2073  0.5582  0.0304
 5570TIP3    H138273   4.463   5.216   0.339  0.1160 -0.0703  2.1080
 5570TIP3    H238274   4.408   5.075   0.341 -0.1238 -0.1388 -1.8463
 5571TIP3   OH238275   2.012   4.045   7.590 -0.5413  0.2156 -0.1941
 5571TIP3    H138276   2.107   4.030   7.591 -0.7319 -1.5191 -1.9820
 5571TIP3    H238277   1.989   4.059   7.682  1.2524 -0.6916  0.4476
 5572TIP3   OH238278   0.753   4.657   0.789 -0.5931  0.1861  0.0540
 5572TIP3    H138279   0.681   4.594   0.780  0.8761 -1.7267  0.8663
 5572TIP3    H238280   0.759   4.672   0.883  0.9265 -0.8082  0.1534
 5573TIP3   OH238281   2.296   0.693   0.289 -0.4935  0.1701  0.1107
 5573TIP3    H138282   2.260   0.734   0.210 -1.1537 -0.3490  0.1338
 5573TIP3    H238283   2.317   0.603   0.261  2.0617  0.8123 -0.2713
 5574TIP3   OH238284   4.063   4.425   7.820 -0.3256  0.1490 -0.7772
 5574TIP3    H138285   4.107   4.509   7.832 -0.3333  0.1888 -1.0288
 5574TIP3    H238286   4.007   4.417   7.898  2.3884 -1.3440  1.1935
 5575TIP3   OH238287   2.621   2.448   8.682 -0.0887 -0.1815 -0.3956
 5575TIP3    H138288   2.558   2.479   8.616  0.3589 -0.3340 -0.8957
 5575TIP3    H238289   2.568   2.395   8.742 -1.2672  2.8003  1.4543
 5576TIP3   OH238290   5.467   5.161   7.527  0.5804  0.1653 -0.1131
 5576TIP3    H138291   5.515   5.115   7.596  1.1771  1.1736  0.1748
 5576TIP3    H238292   5.459   5.251   7.560 -0.1535  0.3762 -0.8518
 5577TIP3   OH238293   5.535   1.027   0.284  0.0887  0.0330  0.2810
 5577TIP3    H138294   5.469   0.992   0.225 -0.4384 -0.4384  1.1363
 5577TIP3    H238295   5.528   1.122   0.274 -0.6135 -0.0206  0.2483
 5578TIP3   OH238296   2.734   5.191   8.484  0.0027  0.2314 -0.4546
 5578TIP3    H138297   2.802   5.136   8.444  1.0074  2.8496 -2.7100
 5578TIP3    H238298   2.659   5.183   8.425 -0.9708 -1.0138  0.8896
 5579TIP3   OH238299   1.580   1.947   1.529  0.5935 -0.0121  0.5746
 5579TIP3    H138300   1.673   1.968   1.537  1.2146 -1.4186 -1.7992
 5579TIP3    H238301   1.578   1.852   1.517 -0.9334  0.1724 -1.1797
 5580TIP3   OH238302   6.350   2.147   0.457 -0.2787  0.5351 -0.1454
 5580TIP3    H138303   6.415   2.077   0.446 -1.4737 -0.3316 -2.5746
 5580TIP3    H238304   6.289   2.113   0.523 -0.3466 -0.3576 -0.6457
 5581TIP3   OH238305   3.027   1.550   7.347  0.0952  0.4468 -0.4244
 5581TIP3    H138306   3.045   1.479   7.285  0.7188  0.3367 -0.1236
 5581TIP3    H238307   2.977   1.614   7.297 -0.9894 -0.4597 -0.5488
 5582TIP3   OH238308   5.355   4.443   8.067 -0.4933  0.4811  0.3595
 5582TIP3    H138309   5.380   4.379   8.134 -1.1546  0.1774  0.3222
 5582TIP3    H238310   5.438   4.477   8.035 -0.1582  0.3784  1.0948
 5583TIP3   OH238311   3.391   2.802   7.811 -0.5593 -0.1959  0.2053
 5583TIP3    H138312   3.433   2.720   7.835 -1.2835 -0.5240  0.3805
 5583TIP3    H238313   3.410   2.814   7.718  1.1913  0.4345  0.6179
 5584TIP3   OH238314   2.710   3.865   7.004 -0.0812  0.0921  0.6636
 5584TIP3    H138315   2.636   3.815   6.969  1.5711 -1.3176 -1.0839
 5584TIP3    H238316   2.706   3.949   6.957 -1.0796  0.3958  1.2745
 5585TIP3   OH238317   6.413   2.083   8.042  0.4175 -0.4074 -0.1164
 5585TIP3    H138318   6.349   2.144   8.005 -0.1821 -0.1410  1.2965
 5585TIP3    H238319   6.361   2.016   8.086  1.0700  0.2133  1.6952
 5586TIP3   OH238320   6.089   4.858   7.077 -0.0127 -0.3293  0.3663
 5586TIP3    H138321   6.038   4.849   6.996 -0.3783 -0.0866  0.5688
 5586TIP3    H238322   6.171   4.812   7.058 -0.3434 -0.8128  0.0696
 5587TIP3   OH238323   1.382   0.646   7.132 -0.6746 -0.2970 -0.5312
 5587TIP3    H138324   1.413   0.716   7.074 -0.8352  0.1538 -0.0764
 5587TIP3    H238325   1.319   0.689   7.190 -2.2738 -1.1973 -1.5085
 5588TIP3   OH238326   5.649   2.181   8.807  0.3802 -0.8145 -0.1571
 5588TIP3    H138327   5.730   2.172   8.857  1.0408  1.2438 -0.7554
 5588TIP3    H238328   5.597   2.245   8.856  0.7181  0.6477 -1.6084
 5589TIP3   OH238329   5.278   6.371   6.677 -0.0163 -0.6025  0.1560
 5589TIP3    H138330   5.236   6.307   6.735 -4.2804  0.7345 -1.0381
 5589TIP3    H238331   5.278   6.452   6.729  0.0551 -0.3273 -0.2752
 5590TIP3   OH238332   5.721   0.747   1.491 -0.1819 -0.0762 -0.8849
 5590TIP3    H138333   5.701   0.780   1.404 -1.5880  3.0666  0.4816
 5590TIP3    H238334   5.772   0.817   1.532 -1.2370 -0.5795  1.4471
 5591TIP3   OH238335   2.161   0.018   7.901 -0.7276 -0.2620 -0.3991
 5591TIP3    H138336   2.190   0.051   7.986 -1.1397  1.3108 -0.8255
 5591TIP3    H238337   2.122  -0.067   7.920  0.2820 -0.4959  0.7874
 5592TIP3   OH238338   4.733   3.479   7.786 -0.3136  0.3066  0.6390
 5592TIP3    H138339   4.721   3.399   7.734 -1.6268  0.7976  0.1470
 5592TIP3    H238340   4.826   3.479   7.808  0.2286 -0.1309 -1.3770
 5593TIP3   OH238341   6.613   6.283   6.815  0.3514 -0.4469 -0.5526
 5593TIP3    H138342   6.533   6.240   6.786 -1.1301 -0.3577  2.9648
 5593TIP3    H238343   6.584   6.367   6.851  2.3361  0.4987 -1.0109
 5594TIP3   OH238344   4.912   4.710   2.353  0.1340  0.0987  0.0264
 5594TIP3    H138345   4.838   4.771   2.356  1.0494  1.3572 -1.5111
 5594TIP3    H238346   4.872   4.625   2.337 -1.0694  0.5361  0.5647
 5595TIP3   OH238347   5.580   3.838   0.080  0.6611 -0.0748  0.0846
 5595TIP3    H138348   5.528   3.826   0.159  0.4395 -0.5973 -0.1387
 5595TIP3    H238349   5.671   3.824   0.108  0.4815 -1.4344  0.0115
 5596TIP3   OH238350   1.732   6.115   1.426 -0.0119 -0.6459  0.4520
 5596TIP3    H138351   1.657   6.102   1.485  0.5439 -1.4122  1.0123
 5596TIP3    H238352   1.782   6.186   1.465  0.4416 -1.2597  1.0136
 5597TIP3   OH238353   6.309   4.290   8.158 -0.2464  0.0762 -0.5442
 5597TIP3    H138354   6.337   4.281   8.249 -2.9716  1.7584  0.6145
 5597TIP3    H238355   6.371   4.352   8.120 -0.6561  1.6146  1.0936
 5598TIP3   OH238356   1.776   3.918   1.260 -0.0076 -0.5950  0.2288
 5598TIP3    H138357   1.722   3.861   1.315 -0.1481  1.9686  3.0689
 5598TIP3    H238358   1.864   3.911   1.298  0.3434 -0.2736 -0.5137
 5599TIP3   OH238359   6.093   0.501   1.150  0.5395  0.4928  0.1240
 5599TIP3    H138360   6.027   0.440   1.184 -0.3920  0.0718 -2.2462
 5599TIP3    H238361   6.176   0.456   1.162 -0.0847 -1.1149 -1.1283
 5600TIP3   OH238362   1.667   2.602   2.424 -0.5388  0.8265  0.5848
 5600TIP3    H138363   1.736   2.632   2.366 -0.9797  1.1976  0.2418
 5600TIP3    H238364   1.681   2.649   2.506 -0.3791  0.8883  0.5198
 5601TIP3   OH238365   3.904   0.597   2.524  0.1341  0.3753 -0.2789
 5601TIP3    H138366   3.863   0.515   2.496  1.4605 -0.0934 -0.9065
 5601TIP3    H238367   3.928   0.583   2.615  0.2634  0.1183 -0.3544
 5602TIP3   OH238368   0.211   1.258   2.668 -0.3067 -0.1628  0.2746
 5602TIP3    H138369   0.169   1.340   2.694 -1.2129  0.5635 -3.0342
 5602TIP3    H238370   0.144   1.210   2.620  1.2324 -1.2367 -0.8993
 5603TIP3   OH238371   3.647   6.579   6.766 -0.2835  0.1918 -0.6342
 5603TIP3    H138372   3.613   6.657   6.722 -1.0774 -0.9490 -2.1253
 5603TIP3    H238373   3.691   6.529   6.697  0.0808 -0.7628  0.2547
 5604TIP3   OH238374   2.647   2.211   0.697 -0.0902 -0.5914  0.0587
 5604TIP3    H138375   2.688   2.223   0.612 -2.7443 -0.7164 -1.3514
 5604TIP3    H238376   2.578   2.146   0.682 -0.3647 -0.9554  2.4154
 5605TIP3   OH238377   3.331   2.091   8.278  0.5916 -0.3317 -0.0374
 5605TIP3    H138378   3.362   2.022   8.220  0.6697 -1.9260  1.8117
 5605TIP3    H238379   3.286   2.045   8.349 -0.5333  1.5979  0.5852
 5606TIP3   OH238380   0.830   1.265   1.791 -0.1346 -0.3142  0.2832
 5606TIP3    H138381   0.818   1.174   1.765 -0.5925 -0.4966  1.0868
 5606TIP3    H238382   0.923   1.271   1.814 -0.5607 -1.2655  2.6074
 5607TIP3   OH238383   1.693   2.602   8.574 -0.3115  0.3461  0.5780
 5607TIP3    H138384   1.691   2.547   8.652 -2.2331  0.6315  0.7717
 5607TIP3    H238385   1.783   2.594   8.542 -0.5421 -3.2411  0.3517
 5608TIP3   OH238386   2.986   3.508   7.374 -0.1425  0.1894  0.6163
 5608TIP3    H138387   3.007   3.559   7.452 -1.2817 -0.7408  1.5794
 5608TIP3    H238388   2.949   3.427   7.408  0.4576 -0.7625 -0.8841
 5609TIP3   OH238389   2.549   6.628   0.480  0.2628 -0.4559  0.3325
 5609TIP3    H138390   2.552   6.535   0.501 -0.5858 -0.2328  1.5379
 5609TIP3    H238391   2.470   6.638   0.427  1.8321 -0.8385 -2.2719
 5610TIP3   OH238392   1.377   2.023   0.142  0.0781 -0.1578 -0.5038
 5610TIP3    H138393   1.347   1.944   0.188 -0.0240 -0.4972 -1.1427
 5610TIP3    H238394   1.459   1.997   0.101 -0.0058  0.0434 -0.8004
 5611TIP3   OH238395   6.461   5.157   1.826  0.2077  0.1648 -0.3305
 5611TIP3    H138396   6.529   5.157   1.894 -1.7953  1.0660  1.8403
 5611TIP3    H238397   6.392   5.102   1.862 -0.8912  0.6039 -1.6855
 5612TIP3   OH238398   1.649   5.734   0.597 -0.4903 -0.1678  0.3078
 5612TIP3    H138399   1.657   5.829   0.587 -0.1764 -0.3704 -1.9006
 5612TIP3    H238400   1.693   5.715   0.679 -1.2780  1.6673  1.2271
 5613TIP3   OH238401   1.794   3.047   1.889  0.0959  0.1439  0.3354
 5613TIP3    H138402   1.768   3.129   1.930 -0.2789 -0.2763  0.9612
 5613TIP3    H238403   1.777   2.980   1.956  1.7517 -0.2895  0.3816
 5614TIP3   OH238404   4.887   2.227   0.491  0.3247 -0.0078  0.6414
 5614TIP3    H138405   4.920   2.189   0.409 -0.0254  0.3631  0.3217
 5614TIP3    H238406   4.960   2.219   0.552  0.6716 -0.0768  0.2263
 5615TIP3   OH238407   2.916   3.053   8.380  0.1616  0.2495 -0.4844
 5615TIP3    H138408   2.880   2.967   8.403  1.0410  0.3090  1.2850
 5615TIP3    H238409   2.984   3.033   8.315  1.2016 -0.5795  0.7922
 5616TIP3   OH238410   6.798   5.650   7.953  0.2841 -0.4417  0.4586
 5616TIP3    H138411   6.721   5.664   8.009  0.1023 -1.3284  0.4413
 5616TIP3    H238412   6.788   5.714   7.883 -0.0631 -0.0665  0.8448
 5617TIP3   OH238413   2.152   5.263   7.326  0.4124  0.1076 -0.2481
 5617TIP3    H138414   2.187   5.299   7.245 -0.1843 -0.6400 -0.8565
 5617TIP3    H238415   2.128   5.174   7.304 -1.9280  0.5913  0.0913
 5618TIP3   OH238416   3.563   0.322   0.426 -0.2790 -0.0838 -0.0569
 5618TIP3    H138417   3.588   0.390   0.488  0.2767  0.9274 -1.3339
 5618TIP3    H238418   3.646   0.281   0.400 -0.7125 -2.7112  2.1818
 5619TIP3   OH238419   5.587   4.394   7.124 -0.1094 -0.1892  0.2412
 5619TIP3    H138420   5.521   4.391   7.054 -2.0096  1.5435  1.8494
 5619TIP3    H238421   5.657   4.336   7.093 -2.7007 -2.7954 -1.2112
 5620TIP3   OH238422   1.149   3.224   8.317 -0.1492 -0.1510  0.0894
 5620TIP3    H138423   1.214   3.277   8.363  0.0951 -1.9080  1.8694
 5620TIP3    H238424   1.065   3.248   8.357 -0.1872 -0.3241  0.1118
 5621TIP3   OH238425   4.631   1.178   1.798  0.7458 -0.1376 -0.0873
 5621TIP3    H138426   4.572   1.122   1.849  1.2676 -0.4534  0.1783
 5621TIP3    H238427   4.655   1.248   1.858 -0.9954  1.1867 -0.8375
 5622TIP3   OH238428   6.198   3.106   8.069  0.5162 -0.5186  0.9344
 5622TIP3    H138429   6.248   3.081   8.146  0.0554  1.0019  1.7525
 5622TIP3    H238430   6.107   3.084   8.090  0.5516 -1.4103  0.2427
 5623TIP3   OH238431   4.448   5.263   6.751  0.2309  0.2345 -0.2813
 5623TIP3    H138432   4.479   5.354   6.756 -0.0260  0.4305 -1.7845
 5623TIP3    H238433   4.450   5.242   6.657 -1.0739 -0.8233 -0.1046
 5624TIP3   OH238434   5.342   5.571   0.654  0.7501  0.3149 -0.2056
 5624TIP3    H138435   5.431   5.571   0.618  0.0452 -1.3183 -2.0970
 5624TIP3    H238436   5.290   5.621   0.591 -0.0403 -0.5211 -0.2480
 5625TIP3   OH238437   4.582   3.145   0.441 -0.2478  0.5069 -0.3618
 5625TIP3    H138438   4.559   3.134   0.533  1.3676  0.2400  0.0531
 5625TIP3    H238439   4.598   3.239   0.432 -0.5382  0.5531 -0.4129
 5626TIP3   OH238440   3.123   3.891   7.224  1.0844 -0.2757 -0.1162
 5626TIP3    H138441   3.184   3.880   7.150  0.4373  1.1855 -0.8993
 5626TIP3    H238442   3.037   3.877   7.186  0.5674  2.5165 -0.1795
 5627TIP3   OH238443   4.917   4.695   7.930 -0.6441  0.5004  0.3744
 5627TIP3    H138444   4.960   4.715   8.013  2.2017 -1.5648 -0.4463
 5627TIP3    H238445   4.907   4.600   7.930  1.0959  0.2139 -2.2829
 5628TIP3   OH238446   1.512   5.998   7.057  0.1358  0.0404  0.4238
 5628TIP3    H138447   1.510   5.960   7.145 -0.4108 -0.1450  0.3367
 5628TIP3    H238448   1.574   5.944   7.008  1.1531  0.7108  0.9442
 5629TIP3   OH238449   2.358   1.705   2.317 -0.0199  0.3196  0.2725
 5629TIP3    H138450   2.328   1.653   2.242 -1.3049 -0.3709  1.2089
 5629TIP3    H238451   2.349   1.645   2.392  1.9727  0.7350  0.8821
 5630TIP3   OH238452   5.026   2.057   0.305  0.1283  0.6164 -0.4756
 5630TIP3    H138453   4.942   2.046   0.260  0.5413 -0.6639 -0.9617
 5630TIP3    H238454   5.085   1.997   0.261  0.7962 -0.0091  1.1957
 5631TIP3   OH238455   6.452   2.368   8.537 -0.0324 -0.5229 -0.2185
 5631TIP3    H138456   6.527   2.424   8.523 -0.8026  0.9044  1.0659
 5631TIP3    H238457   6.418   2.349   8.449  0.4926  0.6738 -0.6886
 5632TIP3   OH238458   0.829   3.016   8.604  0.5289 -0.3958  0.8472
 5632TIP3    H138459   0.878   3.091   8.636 -1.2761  0.2404  2.3234
 5632TIP3    H238460   0.789   3.047   8.523  1.4341 -0.4656  0.3661
 5633TIP3   OH238461   4.219   1.067   6.952 -0.1262  0.1478  0.2147
 5633TIP3    H138462   4.178   1.142   6.909  0.6675 -0.5865 -1.9859
 5633TIP3    H238463   4.294   1.046   6.896  0.0930 -1.8233  1.1694
 5634TIP3   OH238464   3.234   5.673   0.745 -0.2698  0.7181 -0.0192
 5634TIP3    H138465   3.224   5.725   0.665 -0.8981  1.1177  0.3080
 5634TIP3    H238466   3.251   5.584   0.713 -0.3936  0.8934 -0.5964
 5635TIP3   OH238467   0.013   6.109   2.052 -0.0473 -0.0800 -0.5040
 5635TIP3    H138468  -0.073   6.138   2.082  0.2336  0.5704 -0.3188
 5635TIP3    H238469   0.028   6.028   2.101 -0.8583 -0.5915 -1.0717
 5636TIP3   OH238470   0.409   5.820   1.795 -0.3332 -0.5613  0.1935
 5636TIP3    H138471   0.358   5.824   1.875 -0.6281 -2.3289  0.1352
 5636TIP3    H238472   0.355   5.865   1.730 -0.4335  0.2169  0.8013
 5637TIP3   OH238473   5.396   0.766   0.269 -0.1568 -0.1318  0.0850
 5637TIP3    H138474   5.327   0.703   0.247 -0.0953  0.3353 -1.5444
 5637TIP3    H238475   5.457   0.762   0.195  0.2377  1.3154  0.3024
 5638TIP3   OH238476   1.390   2.327   7.948 -0.6056 -0.0167 -0.2438
 5638TIP3    H138477   1.342   2.390   7.894 -1.6457  1.0780  1.8293
 5638TIP3    H238478   1.387   2.246   7.898 -0.0775  1.3013 -2.5431
 5639TIP3   OH238479   6.074   3.372   8.480 -0.0525  0.0038  0.2135
 5639TIP3    H138480   6.020   3.392   8.404  0.2595 -1.0620 -0.3025
 5639TIP3    H238481   6.014   3.337   8.545 -0.2508  0.4936  0.2952
 5640TIP3   OH238482   4.361   5.375   7.349  0.5604  0.3126 -0.7757
 5640TIP3    H138483   4.292   5.390   7.285 -2.6935  0.1244  2.3452
 5640TIP3    H238484   4.381   5.281   7.341 -0.0725  0.2124 -1.2360
 5641TIP3   OH238485   3.426   2.410   2.009 -0.0453  0.0079 -0.4410
 5641TIP3    H138486   3.429   2.494   2.054  3.2065  0.7400 -1.7878
 5641TIP3    H238487   3.439   2.431   1.917  2.0825 -2.0052 -0.6837
 5642TIP3   OH238488   3.086   2.722   6.876 -0.0263  0.0512  0.0528
 5642TIP3    H138489   3.039   2.640   6.860 -1.1627  0.7823 -0.3980
 5642TIP3    H238490   3.062   2.747   6.965  0.6632 -0.3020  0.3531
 5643TIP3   OH238491   0.666   5.123   1.184 -0.6714 -0.0448  0.0020
 5643TIP3    H138492   0.577   5.109   1.154  0.0557 -1.3039 -1.7484
 5643TIP3    H238493   0.684   5.047   1.240 -1.3504  1.2848  2.1454
 5644TIP3   OH238494   0.908   3.383   7.509 -0.9142  0.7881 -0.4861
 5644TIP3    H138495   0.980   3.345   7.460 -1.7019  0.9952 -1.8556
 5644TIP3    H238496   0.947   3.409   7.592 -0.0389 -1.7340  0.0045
 5645TIP3   OH238497   4.347   0.391   1.236 -0.5571 -0.5066  0.3747
 5645TIP3    H138498   4.421   0.356   1.287 -0.7629 -2.0452 -0.3264
 5645TIP3    H238499   4.339   0.332   1.161 -0.9477  1.0802 -0.9017
 5646TIP3   OH238500   5.014   5.353   0.402 -0.3504 -0.6956  0.3570
 5646TIP3    H138501   5.016   5.287   0.471 -2.5991  0.1072  1.3052
 5646TIP3    H238502   5.104   5.360   0.372  0.8684 -0.6776  3.6521
 5647TIP3   OH238503   3.224   1.711   6.621 -0.6921  0.3629  0.4120
 5647TIP3    H138504   3.157   1.646   6.600 -0.4733 -0.5333  2.2755
 5647TIP3    H238505   3.190   1.793   6.584 -1.9453 -0.4083 -0.2228
 5648TIP3   OH238506   0.713   1.525   6.632 -0.0376  0.3659 -0.1432
 5648TIP3    H138507   0.752   1.440   6.614  0.0051  0.2357  0.5507
 5648TIP3    H238508   0.743   1.547   6.720  0.4322  1.3622 -0.5344
 5649TIP3   OH238509   5.891   4.472   1.137 -0.7717 -0.1403 -0.7535
 5649TIP3    H138510   5.955   4.537   1.108 -1.4999  1.9384  1.9387
 5649TIP3    H238511   5.944   4.394   1.156  0.7912  1.0471 -0.0110
 5650TIP3   OH238512   2.814   1.425   0.119 -0.2799  0.4736 -0.0306
 5650TIP3    H138513   2.863   1.393   0.195 -0.4673  0.7337  0.1999
 5650TIP3    H238514   2.872   1.408   0.044 -0.0607  0.2927  0.1788
 5651TIP3   OH238515   3.588   5.587   8.676  0.1274  0.1880 -0.4884
 5651TIP3    H138516   3.632   5.671   8.688 -0.2125  0.5306 -1.5630
 5651TIP3    H238517   3.573   5.581   8.581 -1.4848 -0.2585 -0.2229
 5652TIP3   OH238518   0.409   1.952   0.303  0.0287  0.3938  0.4783
 5652TIP3    H138519   0.387   1.940   0.211  1.8395  0.9716 -0.0712
 5652TIP3    H238520   0.493   1.997   0.302  0.1768  0.2536  2.4247
 5653TIP3   OH238521   6.060   5.940   6.569  0.0865  0.1265 -0.2765
 5653TIP3    H138522   6.135   5.990   6.537 -1.1029  3.4279  1.6442
 5653TIP3    H238523   6.004   5.928   6.492 -0.4367  3.5385 -0.5843
 5654TIP3   OH238524   5.088   6.693   6.620 -0.3068 -0.3217 -0.1864
 5654TIP3    H138525   4.997   6.720   6.603 -0.7582 -2.3963 -1.3449
 5654TIP3    H238526   5.119   6.658   6.537  1.4633 -0.0212  0.2962
 5655TIP3   OH238527   0.520   2.897   1.313 -0.1040  0.1953 -0.1888
 5655TIP3    H138528   0.606   2.936   1.307  0.4425 -0.9465 -0.0704
 5655TIP3    H238529   0.535   2.809   1.349 -1.3806  0.2240  0.4979
 5656TIP3   OH238530   4.872   3.710   8.089  0.4098  0.2338 -0.1195
 5656TIP3    H138531   4.925   3.642   8.130 -0.7752 -0.1934  0.7352
 5656TIP3    H238532   4.919   3.731   8.008  1.6215 -0.4689  0.3703
 5657TIP3   OH238533   4.571   1.945   7.059 -0.5799 -0.1159  0.1205
 5657TIP3    H138534   4.485   1.963   7.022 -0.7713 -0.2752  0.4801
 5657TIP3    H238535   4.626   2.016   7.027 -0.9782  0.2944  0.3299
 5658TIP3   OH238536   6.494   3.225   6.869  0.1948 -0.2711 -0.9261
 5658TIP3    H138537   6.425   3.191   6.811 -0.4521  0.9595 -0.9136
 5658TIP3    H238538   6.552   3.273   6.810  0.4042 -0.3359 -0.7698
 5659TIP3   OH238539   0.372   1.015   0.959  0.1922 -0.0379  0.3024
 5659TIP3    H138540   0.331   1.041   1.041  0.1234 -0.6683  0.4721
 5659TIP3    H238541   0.411   0.929   0.977  1.6991  0.5802  0.1867
 5660TIP3   OH238542   5.191   1.596   1.656 -0.3508 -0.4327 -0.7397
 5660TIP3    H138543   5.123   1.647   1.700 -0.9882 -0.4706 -1.6480
 5660TIP3    H238544   5.273   1.643   1.676 -0.9639  1.2077 -1.8897
 5661TIP3   OH238545   3.340   3.518   1.096  0.1891 -0.3550  0.5272
 5661TIP3    H138546   3.263   3.462   1.107 -0.9957  0.9726 -0.6408
 5661TIP3    H238547   3.314   3.582   1.030  2.7304 -0.6146 -0.8511
 5662TIP3   OH238548   1.458   6.417   1.225  0.1291 -0.3412 -0.3976
 5662TIP3    H138549   1.516   6.436   1.299  0.1443 -0.3916 -0.3963
 5662TIP3    H238550   1.426   6.328   1.242  0.3076 -0.4387 -0.5661
 5663TIP3   OH238551   2.905   6.783   2.275 -0.1604 -0.3625 -0.6795
 5663TIP3    H138552   2.864   6.767   2.360 -1.6707  0.7358 -1.1468
 5663TIP3    H238553   2.993   6.746   2.283 -0.1436  0.0134  1.4625
 5664TIP3   OH238554   5.192   0.317   0.115 -0.2845 -0.5612 -0.1963
 5664TIP3    H138555   5.215   0.244   0.172 -0.3734 -0.3161  0.1538
 5664TIP3    H238556   5.271   0.331   0.061  0.0184 -0.3964  0.2864
 5665TIP3   OH238557   6.244   3.929   0.095 -0.3112 -0.4502  0.0916
 5665TIP3    H138558   6.153   3.958   0.085 -0.0463  0.1487 -0.7591
 5665TIP3    H238559   6.293   4.010   0.109  0.1716 -0.7118 -0.0691
 5666TIP3   OH238560   0.433   4.112   7.803 -0.3074  0.6963 -0.3461
 5666TIP3    H138561   0.507   4.129   7.861 -2.1135  2.1900  1.7046
 5666TIP3    H238562   0.425   4.017   7.802  1.8773  0.4538 -1.0489
 5667TIP3   OH238563   5.326   0.542   6.960 -0.2086 -0.4829  0.2048
 5667TIP3    H138564   5.400   0.484   6.979  0.9150  0.8583  0.1360
 5667TIP3    H238565   5.349   0.584   6.877 -1.1952 -0.2361  0.0426
 5668TIP3   OH238566   0.650   1.329   0.064  0.5827 -0.6281 -0.5794
 5668TIP3    H138567   0.665   1.382   0.142 -0.3762  0.0635 -0.8428
 5668TIP3    H238568   0.735   1.325   0.021  1.0379 -0.7246  0.3189
 5669TIP3   OH238569   5.515   2.025   8.140 -0.2625  0.4047  0.0770
 5669TIP3    H138570   5.492   2.073   8.061 -0.8401 -0.6433 -0.4060
 5669TIP3    H238571   5.448   2.051   8.204  1.4383  2.9908  1.0146
 5670TIP3   OH238572   3.804   1.415   7.582 -0.5393  0.2378  0.7302
 5670TIP3    H138573   3.898   1.424   7.594 -0.6696  1.9274  0.7561
 5670TIP3    H238574   3.792   1.410   7.487 -0.4268 -0.1143  0.7319
 5671TIP3   OH238575   0.848   2.313   8.145 -0.0554 -0.9546 -0.1419
 5671TIP3    H138576   0.772   2.259   8.126 -0.4541 -1.2659  2.0545
 5671TIP3    H238577   0.823   2.401   8.116 -0.7706 -1.2808 -0.5324
 5672TIP3   OH238578   6.178   0.209   1.384 -0.2866  0.1714  0.5725
 5672TIP3    H138579   6.100   0.262   1.376 -1.1473 -0.9372  1.3845
 5672TIP3    H238580   6.246   0.270   1.413 -1.2917  0.7941  1.6972
 5673TIP3   OH238581   2.806   1.814   8.505  0.2339 -0.1940  0.2407
 5673TIP3    H138582   2.782   1.758   8.579 -1.0457  0.5082  0.3878
 5673TIP3    H238583   2.867   1.877   8.543 -2.2383  1.7066  1.4064
 5674TIP3   OH238584   5.028   6.489   1.071  0.0713 -0.3260  0.4475
 5674TIP3    H138585   5.091   6.483   1.143 -0.7126  1.6301  1.3909
 5674TIP3    H238586   5.082   6.485   0.992  1.5282  1.8755  1.2267
 5675TIP3   OH238587   5.552   4.707   7.518  0.0989  0.0181  0.2915
 5675TIP3    H138588   5.531   4.614   7.507  0.1101  0.2115 -1.6525
 5675TIP3    H238589   5.472   4.753   7.492  1.4731  0.6393 -3.5806
 5676TIP3   OH238590   1.462   3.652   7.007  0.4476 -0.4641  0.5989
 5676TIP3    H138591   1.460   3.586   6.937  0.7371  0.3505 -0.2004
 5676TIP3    H238592   1.553   3.683   7.006  0.5943 -0.8327  1.7210
 5677TIP3   OH238593   1.650   6.462   0.081 -0.1073  0.8540 -0.3036
 5677TIP3    H138594   1.629   6.506  -0.001  1.5429 -1.9547 -2.4442
 5677TIP3    H238595   1.743   6.439   0.072  0.1787  0.6240  2.4790
 5678TIP3   OH238596   4.925   3.030   1.235 -0.8179 -0.2145  0.4780
 5678TIP3    H138597   4.940   3.045   1.328 -2.0689 -0.0027  0.6634
 5678TIP3    H238598   4.944   2.937   1.222  1.6228  0.2214  0.4428
 5679TIP3   OH238599   2.266   4.598   7.116  0.4563  0.4521  0.4630
 5679TIP3    H138600   2.290   4.505   7.120 -0.7926  0.1232  0.5685
 5679TIP3    H238601   2.343   4.640   7.078  0.4617 -0.8355 -1.0552
 5680TIP3   OH238602   4.189   1.959   0.088  0.1805  0.4974  0.3329
 5680TIP3    H138603   4.216   2.035   0.139 -1.8983  1.4684  0.1050
 5680TIP3    H238604   4.109   1.929   0.130 -1.0881  0.7690 -1.7638
 5681TIP3   OH238605   1.329   3.122   0.396 -0.6660 -0.1405  0.5172
 5681TIP3    H138606   1.262   3.178   0.358  0.6793  0.8748 -0.4667
 5681TIP3    H238607   1.307   3.117   0.489 -1.3958  1.2069  0.4370
 5682TIP3   OH238608   6.018   6.058   0.415 -0.0392  0.1204 -0.5404
 5682TIP3    H138609   6.113   6.057   0.424 -0.1632 -1.9667  1.4207
 5682TIP3    H238610   6.002   6.085   0.325  2.5419 -2.9673 -2.1209
 5683TIP3   OH238611   4.539   0.642   1.563  0.4351  0.5737  0.0046
 5683TIP3    H138612   4.522   0.583   1.637 -0.6475  1.3318  0.3891
 5683TIP3    H238613   4.477   0.714   1.575  0.4068  0.8425 -1.5095
 5684TIP3   OH238614   2.385   5.214   7.526  0.2493 -0.2390  1.1236
 5684TIP3    H138615   2.306   5.217   7.471  1.4724 -1.4761 -0.8133
 5684TIP3    H238616   2.451   5.261   7.475  1.3798 -1.2503  1.6045
 5685TIP3   OH238617   4.520   0.786   2.153  0.3219  0.0240  0.1051
 5685TIP3    H138618   4.444   0.828   2.193  0.8201 -1.1059  2.3945
 5685TIP3    H238619   4.593   0.845   2.173  0.2438  0.6375 -1.2794
 5686TIP3   OH238620   1.354   0.204   0.515  0.4250 -0.3388  0.5334
 5686TIP3    H138621   1.352   0.142   0.587  1.6345  0.0193  0.9049
 5686TIP3    H238622   1.276   0.258   0.526 -0.2618 -1.3347  0.6070
 5687TIP3   OH238623   1.843   6.170   0.160  0.1859 -0.0825  0.0543
 5687TIP3    H138624   1.769   6.202   0.210 -3.4940 -0.5576 -4.3958
 5687TIP3    H238625   1.829   6.076   0.152  0.5723 -0.0420 -1.6870
 5688TIP3   OH238626   0.773   0.050   8.554 -0.1185  0.0841 -0.3714
 5688TIP3    H138627   0.738   0.134   8.523  1.0991  0.6114 -0.3646
 5688TIP3    H238628   0.776  -0.005   8.475  0.3100  0.4909 -0.6462
 5689TIP3   OH238629   4.341   2.553   2.390  0.2118  0.7704  0.5119
 5689TIP3    H138630   4.276   2.581   2.326 -1.9676 -1.0051  1.8113
 5689TIP3    H238631   4.395   2.489   2.343 -0.2009  0.8169 -0.0305
 5690TIP3   OH238632   4.360   2.578   8.392 -0.6793  0.0369 -0.3508
 5690TIP3    H138633   4.425   2.511   8.370  0.4636  1.1309 -0.3882
 5690TIP3    H238634   4.388   2.656   8.344 -2.0947  0.5080 -0.4622
 5691TIP3   OH238635   0.093   2.189   7.482 -0.4407  0.2374  0.1010
 5691TIP3    H138636   0.061   2.245   7.411  1.5491  1.3178 -0.0086
 5691TIP3    H238637   0.047   2.220   7.559 -2.2738 -0.6322 -0.5736
 5692TIP3   OH238638   2.951   0.904   7.242 -0.3596 -0.3065 -0.3292
 5692TIP3    H138639   2.983   0.983   7.286 -2.5310  1.3858 -1.5569
 5692TIP3    H238640   2.899   0.859   7.308  0.5111 -0.5076  0.2407
 5693TIP3   OH238641   3.373   2.896   7.143 -0.1291  0.0671 -0.5499
 5693TIP3    H138642   3.299   2.956   7.136 -0.1296  0.1729  0.3210
 5693TIP3    H238643   3.382   2.860   7.055 -1.9213 -0.7627 -0.4535
 5694TIP3   OH238644   1.535   1.072   8.115 -0.0496 -0.0509 -0.3669
 5694TIP3    H138645   1.453   1.101   8.074  0.1680  2.3382  0.7242
 5694TIP3    H238646   1.601   1.083   8.048 -0.5560 -1.9626 -1.2463
 5695TIP3   OH238647   2.350   5.018   0.454  0.0249  0.0675 -0.2142
 5695TIP3    H138648   2.429   4.969   0.478 -0.1811  0.3415  1.1469
 5695TIP3    H238649   2.293   5.010   0.531 -0.9101  0.6192 -0.8274
 5696TIP3   OH238650   2.572   5.641   7.861  0.7753  0.3335 -0.5290
 5696TIP3    H138651   2.626   5.720   7.860 -0.8629  1.4863 -1.6527
 5696TIP3    H238652   2.549   5.626   7.770 -0.4555 -0.3741 -0.1306
 5697TIP3   OH238653   4.666   4.129   1.520 -0.2333 -0.5482 -0.4226
 5697TIP3    H138654   4.754   4.137   1.485 -1.2163 -1.5487 -3.4823
 5697TIP3    H238655   4.631   4.218   1.522 -0.6827 -0.5128 -3.9276
 5698TIP3   OH238656   0.916   1.338   8.806 -0.5175 -0.0053 -0.4088
 5698TIP3    H138657   0.989   1.280   8.783 -0.6457 -0.1224 -0.5239
 5698TIP3    H238658   0.875   1.360   8.722 -0.2274  0.5782 -0.4038
 5699TIP3   OH238659   1.360   4.799   0.380 -0.6615 -0.5382  0.1056
 5699TIP3    H138660   1.366   4.787   0.475 -2.8391 -0.0978  0.3311
 5699TIP3    H238661   1.270   4.826   0.364 -0.0708  0.3729 -2.0086
 5700TIP3   OH238662   2.862   1.167   6.327 -0.3391 -0.3816  0.2889
 5700TIP3    H138663   2.768   1.180   6.338 -0.4042 -0.6084  0.0020
 5700TIP3    H238664   2.877   1.076   6.352  0.3688  0.5838  3.9083
 5701TIP3   OH238665   2.437   3.803   0.151 -0.1476  0.2685  0.4104
 5701TIP3    H138666   2.386   3.784   0.072  0.3550 -1.3269  0.4326
 5701TIP3    H238667   2.524   3.768   0.132  0.0006 -0.0638  1.6389
 5702TIP3   OH238668   6.442   4.063   0.662 -0.0255 -0.1056 -0.4142
 5702TIP3    H138669   6.517   4.083   0.606  0.7323 -0.6789  0.3815
 5702TIP3    H238670   6.368   4.059   0.601  0.4508  1.1256 -1.1188
 5703TIP3   OH238671   4.569   0.507   7.060 -0.5376 -0.0963 -0.7605
 5703TIP3    H138672   4.486   0.530   7.102  0.5551  0.4249  1.1940
 5703TIP3    H238673   4.571   0.411   7.060 -1.3345 -0.1241 -1.2822
 5704TIP3   OH238674   3.146   6.527   0.317  0.0185  0.3366 -0.0885
 5704TIP3    H138675   3.078   6.578   0.360  2.2366  3.1580  0.3505
 5704TIP3    H238676   3.117   6.520   0.226 -0.1829  2.8487 -0.2705
 5705TIP3   OH238677   4.996   5.598   8.701  0.0543  0.3875  0.1609
 5705TIP3    H138678   4.905   5.613   8.675  0.5873  2.1834 -0.8445
 5705TIP3    H238679   5.008   5.504   8.693 -1.5474  0.1847 -0.2310
 5706TIP3   OH238680   4.793   3.016   6.703  0.0575  0.0148 -0.4598
 5706TIP3    H138681   4.837   3.069   6.638 -1.0454  0.2233 -1.0584
 5706TIP3    H238682   4.716   3.067   6.729  0.0351 -0.4252  0.3868
 5707TIP3   OH238683   1.917   3.411   8.293 -0.3940  0.2308  0.2807
 5707TIP3    H138684   1.984   3.388   8.358  0.2863  0.4383 -0.3375
 5707TIP3    H238685   1.900   3.329   8.246  0.7337  0.5622 -0.7411
 5708TIP3   OH238686   2.276   5.314   8.237 -0.3192 -0.0389  0.3676
 5708TIP3    H138687   2.244   5.250   8.172 -0.1965 -0.3506  0.6112
 5708TIP3    H238688   2.242   5.398   8.207 -1.4084 -0.3646  0.6505
 5709TIP3   OH238689   6.529   4.582   8.781 -0.8898 -0.8665  0.0063
 5709TIP3    H138690   6.562   4.672   8.784  0.7246 -1.3441 -1.8988
 5709TIP3    H238691   6.561   4.543   8.863  0.8179 -0.4661 -0.4257
 5710TIP3   OH238692   6.704   6.016   1.549  0.4091  0.1101  0.3533
 5710TIP3    H138693   6.767   6.086   1.562 -0.1047  1.0707 -1.9199
 5710TIP3    H238694   6.621   6.053   1.578  0.5356 -0.4711  1.5087
 5711TIP3   OH238695   5.813   6.330   1.564  0.5826  0.2620 -0.0787
 5711TIP3    H138696   5.794   6.423   1.577  0.5577  0.0784  1.2922
 5711TIP3    H238697   5.851   6.301   1.647 -1.7311 -1.5334  0.4442
 5712TIP3   OH238698   6.398   2.059   0.188 -0.4965  0.1999 -0.2944
 5712TIP3    H138699   6.374   2.093   0.102  0.0052  0.4822 -0.3280
 5712TIP3    H238700   6.378   2.130   0.248 -0.0444  0.3253 -0.2867
 5713TIP3   OH238701   3.686   3.338   7.687  0.1899  0.1090 -0.0966
 5713TIP3    H138702   3.602   3.329   7.732 -0.5245  1.7088 -1.0132
 5713TIP3    H238703   3.671   3.302   7.600 -0.4687  2.7947 -1.2209
 5714TIP3   OH238704   0.798   4.177   7.588 -0.0749 -0.1692  0.3309
 5714TIP3    H138705   0.719   4.219   7.553  0.3948  0.7421  0.3280
 5714TIP3    H238706   0.854   4.165   7.511 -0.2188 -0.8391  0.3288
 5715TIP3   OH238707   4.439   5.660   0.282  0.1285 -0.1121 -0.0903
 5715TIP3    H138708   4.348   5.654   0.311 -0.5828 -0.9128 -2.2566
 5715TIP3    H238709   4.469   5.746   0.312 -0.3830 -0.8980  3.0457
 5716TIP3   OH238710   1.261   5.849   6.813 -0.1550  0.3667  0.2865
 5716TIP3    H138711   1.355   5.835   6.822 -0.2176 -1.9350 -1.6629
 5716TIP3    H238712   1.221   5.780   6.867 -0.5688 -2.2767 -3.0733
 5717TIP3   OH238713   6.612   2.851   8.433  0.0438 -0.2264 -1.0263
 5717TIP3    H138714   6.660   2.844   8.350  1.2616  1.1226 -0.4929
 5717TIP3    H238715   6.583   2.943   8.435 -0.1588 -0.3061 -0.0538
 5718TIP3   OH238716   0.920   4.316   1.495 -0.1009 -0.0488  0.2443
 5718TIP3    H138717   0.975   4.376   1.444  2.0821 -0.2937  2.1415
 5718TIP3    H238718   0.979   4.279   1.560 -1.7184 -3.1360  0.1534
 5719TIP3   OH238719   2.185   6.708   8.524  0.5382  0.8430 -0.2640
 5719TIP3    H138720   2.214   6.663   8.445  0.6401  2.2224 -1.0320
 5719TIP3    H238721   2.261   6.704   8.583 -0.1322 -1.8582  0.5947
 5720TIP3   OH238722   3.956   2.893   8.659 -0.1874  0.5423  0.4825
 5720TIP3    H138723   3.880   2.868   8.607  0.8636 -2.4170  0.1988
 5720TIP3    H238724   3.919   2.927   8.740 -1.8094  0.3094 -0.1195
 5721TIP3   OH238725   3.955   6.442   8.112  0.0591 -0.4914 -0.2973
 5721TIP3    H138726   3.985   6.404   8.029  0.1232 -0.0624 -0.4738
 5721TIP3    H238727   3.866   6.410   8.122  0.5654 -1.7691  0.2258
 5722TIP3   OH238728   4.917   2.017   1.284  0.1212 -0.3304  0.3657
 5722TIP3    H138729   4.975   1.947   1.253 -1.0610 -1.5078  0.7241
 5722TIP3    H238730   4.863   2.039   1.209 -0.5880 -0.9384  0.6896
 5723TIP3   OH238731   2.909   6.256   0.125 -0.5169 -0.0229 -0.4181
 5723TIP3    H138732   2.933   6.348   0.127 -1.1529  0.1438  0.1980
 5723TIP3    H238733   2.969   6.214   0.188 -1.1045  0.2049  0.3047
 5724TIP3   OH238734   1.463   1.290   1.794 -0.1492  0.0065  0.0882
 5724TIP3    H138735   1.416   1.244   1.863 -1.3623  1.3165  0.1704
 5724TIP3    H238736   1.531   1.228   1.766  0.7966 -0.3624  2.8419
 5725TIP3   OH238737   3.898   4.774   7.972  0.0616 -0.2772  0.5915
 5725TIP3    H138738   3.878   4.864   7.998 -0.4088 -0.6783  1.6751
 5725TIP3    H238739   3.816   4.727   7.985  0.3610 -0.9126  0.2302
 5726TIP3   OH238740   3.082   4.928   7.338 -0.4339 -0.4644 -0.4365
 5726TIP3    H138741   3.176   4.945   7.332 -0.5713  0.4681 -0.1432
 5726TIP3    H238742   3.042   5.015   7.335 -1.2438 -0.8039  0.2151
 5727TIP3   OH238743   6.222   6.655   8.312  0.4238  0.4201 -0.3584
 5727TIP3    H138744   6.245   6.748   8.316  0.6233  0.4022 -1.0027
 5727TIP3    H238745   6.294   6.611   8.357  0.6272  0.5333 -0.5688
 5728TIP3   OH238746   6.014   1.903   7.982  0.3034 -0.3051 -0.0242
 5728TIP3    H138747   5.981   1.979   8.031  0.7123 -1.6945  2.5819
 5728TIP3    H238748   5.936   1.850   7.965 -0.1556  1.0613 -2.7861
 5729TIP3   OH238749   1.641   3.248   0.879  0.0198  0.4115  0.1326
 5729TIP3    H138750   1.700   3.276   0.949 -0.2470 -2.0747  1.4724
 5729TIP3    H238751   1.554   3.249   0.919 -0.0236 -1.9463  0.2040
 5730TIP3   OH238752   5.443   2.977   7.889 -0.4176  0.2433 -0.1212
 5730TIP3    H138753   5.409   2.964   7.800 -0.2270 -1.7038  0.0310
 5730TIP3    H238754   5.449   2.888   7.925  0.5385  0.9056  1.4654
 5731TIP3   OH238755   1.841   2.364   0.262  0.3156  0.7725  0.7933
 5731TIP3    H138756   1.831   2.459   0.256 -1.3170  0.5458 -1.6406
 5731TIP3    H238757   1.932   2.351   0.289  1.2295  3.0608 -0.8534
 5732TIP3   OH238758   0.257   1.813   7.858  0.2447  0.1376  0.3046
 5732TIP3    H138759   0.290   1.902   7.851  0.5198  0.0565  0.5722
 5732TIP3    H238760   0.229   1.791   7.769  3.6896 -0.8772 -0.6655
 5733TIP3   OH238761   3.310   5.443   0.562 -0.5026  0.4492  0.9202
 5733TIP3    H138762   3.351   5.408   0.483  0.9151  0.1634  1.7432
 5733TIP3    H238763   3.225   5.399   0.567  0.2642 -1.1279  0.6644
 5734TIP3   OH238764   2.251   0.664   7.733  0.1084 -0.1462 -0.0285
 5734TIP3    H138765   2.311   0.640   7.804  0.2260  1.9708  0.6536
 5734TIP3    H238766   2.245   0.759   7.737 -1.5004 -0.1180 -1.5794
 5735TIP3   OH238767   0.340   3.513   0.559  0.0506  0.0777 -0.3966
 5735TIP3    H138768   0.405   3.472   0.617 -1.4954 -2.1020 -0.0617
 5735TIP3    H238769   0.287   3.439   0.527 -2.6616  1.7852 -0.1571
 5736TIP3   OH238770   5.515   1.051   8.229 -0.2947  0.0302  0.0982
 5736TIP3    H138771   5.566   0.972   8.246  1.6981  1.0099 -1.0890
 5736TIP3    H238772   5.484   1.078   8.316  2.1713  0.0130  1.0482
 5737TIP3   OH238773   1.792   4.699   8.396  0.0661  0.1053  0.0222
 5737TIP3    H138774   1.838   4.622   8.428  1.5010  0.3105 -1.4215
 5737TIP3    H238775   1.828   4.772   8.446  0.3758  0.1043 -0.1964
 5738TIP3   OH238776   6.797   0.914   6.698  0.4698  0.3439  0.4655
 5738TIP3    H138777   6.710   0.883   6.721  0.0030  2.0669  1.1721
 5738TIP3    H238778   6.795   1.008   6.716  2.3204  0.5133  0.0248
 5739TIP3   OH238779   2.756   3.860   1.645 -0.1493 -0.1471  0.5044
 5739TIP3    H138780   2.786   3.925   1.708  0.0121  0.8606 -0.5866
 5739TIP3    H238781   2.724   3.911   1.571  1.4321 -1.3058 -1.0645
 5740TIP3   OH238782   1.431   5.810   7.655  0.0906 -0.5767  0.3779
 5740TIP3    H138783   1.454   5.742   7.591  1.5584 -0.6130  0.8928
 5740TIP3    H238784   1.420   5.889   7.602 -2.0210 -1.2390 -0.2750
 5741TIP3   OH238785   0.101   1.983   8.525 -0.2045  0.1979 -0.3839
 5741TIP3    H138786   0.173   2.043   8.545  1.3397 -1.1345 -1.6684
 5741TIP3    H238787   0.130   1.899   8.560 -1.7099 -0.1368  0.1303
 5742TIP3   OH238788   2.454   3.937   8.324 -0.3323 -0.6594 -0.2025
 5742TIP3    H138789   2.530   3.923   8.381 -0.0445 -1.9845 -0.8759
 5742TIP3    H238790   2.406   3.854   8.327 -0.9256 -0.3575 -0.9712
 5743TIP3   OH238791   2.102   5.519   0.072  0.4653  0.2582  0.2800
 5743TIP3    H138792   2.110   5.556  -0.015  1.7749 -0.0238  0.2628
 5743TIP3    H238793   2.059   5.587   0.124 -0.2228  0.4621 -0.5404
 5744TIP3   OH238794   0.329   1.270   8.767  0.3702 -0.1565  0.2057
 5744TIP3    H138795   0.362   1.208   8.832  0.2427  0.3254  0.7367
 5744TIP3    H238796   0.234   1.258   8.769  0.3266  0.2182  0.4807
 5745TIP3   OH238797   4.322   5.280   6.469  0.5188 -0.2456 -0.3670
 5745TIP3    H138798   4.413   5.270   6.496  0.5228 -0.6390 -0.5238
 5745TIP3    H238799   4.325   5.338   6.393  0.6021  0.0506 -0.1380
 5746TIP3   OH238800   1.842   4.989   7.884  1.1923 -0.0882 -0.6506
 5746TIP3    H138801   1.927   4.992   7.839  0.3656  2.4191 -2.2403
 5746TIP3    H238802   1.784   4.944   7.822  1.1288 -1.0711  0.0902
 5747TIP3   OH238803   5.806   6.463   2.314 -0.0185  0.2473  0.0473
 5747TIP3    H138804   5.745   6.461   2.388  0.1638  1.2249  0.2408
 5747TIP3    H238805   5.838   6.553   2.313  0.0810  0.2069 -1.1412
 5748TIP3   OH238806   5.573   4.594   7.978  0.3399  0.8169 -0.0351
 5748TIP3    H138807   5.607   4.575   7.890  2.7559 -0.4756  1.0873
 5748TIP3    H238808   5.609   4.680   8.000 -1.0376  1.5795 -0.6067
 5749TIP3   OH238809   6.251   6.104   1.638 -0.2928 -0.0733 -0.5494
 5749TIP3    H138810   6.193   6.040   1.680 -0.8804  0.6673 -0.2010
 5749TIP3    H238811   6.196   6.147   1.573 -0.4275  1.2476  0.3753
 5750TIP3   OH238812   0.659   5.904   0.496 -0.1208 -0.4350  0.1684
 5750TIP3    H138813   0.726   5.949   0.444 -2.2357  0.3759 -2.0413
 5750TIP3    H238814   0.650   5.818   0.455 -0.5528 -0.4861  0.3624
 5751TIP3   OH238815   1.044   5.623   0.615  0.5227 -0.2997 -0.0811
 5751TIP3    H138816   1.061   5.573   0.536 -3.5475  0.2998 -1.5722
 5751TIP3    H238817   1.000   5.703   0.585  2.2939  1.8842  2.5796
 5752TIP3   OH238818   2.062   4.136   0.604  0.0434  0.4692  0.1757
 5752TIP3    H138819   2.104   4.152   0.688 -0.9409 -1.5260  1.1155
 5752TIP3    H238820   1.975   4.175   0.613  0.4300  1.5545 -0.5084
 5753TIP3   OH238821   2.956   2.123   1.553 -0.2154  0.5087  0.8784
 5753TIP3    H138822   3.025   2.187   1.538  0.3920 -0.7667 -2.6726
 5753TIP3    H238823   2.993   2.063   1.617  1.4577  0.6248  0.0816
 5754TIP3   OH238824   4.204   5.852   0.812  0.1752 -0.0636  0.6045
 5754TIP3    H138825   4.167   5.823   0.895  0.5260 -1.1649  0.3927
 5754TIP3    H238826   4.267   5.920   0.835  0.1832 -0.2798  1.2168
 5755TIP3   OH238827   5.232   6.760   7.472 -0.5684 -0.0097 -0.0467
 5755TIP3    H138828   5.253   6.848   7.503 -1.5291  0.2850 -0.1773
 5755TIP3    H238829   5.315   6.724   7.441  0.1579  0.2483  1.4626
 5756TIP3   OH238830   5.677   5.405   7.632  0.2280  0.2217 -0.1634
 5756TIP3    H138831   5.752   5.370   7.586  0.3061 -1.8106  1.3549
 5756TIP3    H238832   5.645   5.332   7.685 -1.9223  1.4443  0.3569
 5757TIP3   OH238833   3.911   3.690   0.496  0.4418  0.1569  0.2377
 5757TIP3    H138834   3.853   3.616   0.478 -1.7273  1.8387 -0.0589
 5757TIP3    H238835   3.854   3.756   0.535  2.8103  0.7265  3.1685
 5758TIP3   OH238836   5.536   3.182   7.459  0.3804 -0.0219 -0.3445
 5758TIP3    H138837   5.616   3.149   7.502 -0.9180 -2.8409  0.1531
 5758TIP3    H238838   5.525   3.124   7.383 -2.1959 -1.0802  0.7148
 5759TIP3   OH238839   1.031   6.799   8.306 -0.1958 -0.2137 -0.2018
 5759TIP3    H138840   1.094   6.798   8.234  2.0782 -1.5764  1.6467
 5759TIP3    H238841   1.073   6.853   8.373 -0.5872 -1.7507  1.3563
 5760TIP3   OH238842   3.440   6.371   8.605  0.2581  0.5145  0.4440
 5760TIP3    H138843   3.362   6.397   8.653 -1.1758 -0.0690 -1.4340
 5760TIP3    H238844   3.418   6.389   8.513  1.0416 -2.6569 -0.4977
 5761TIP3   OH238845   1.606   4.421   0.608  0.0258 -0.3750  0.6574
 5761TIP3    H138846   1.558   4.502   0.591 -0.4487 -0.9201 -0.7706
 5761TIP3    H238847   1.544   4.366   0.657 -0.7496 -0.9561 -0.9081
 5762TIP3   OH238848   4.726   6.077   6.968 -0.0121 -0.2868  0.3660
 5762TIP3    H138849   4.635   6.051   6.954 -0.4158  0.5385  1.2734
 5762TIP3    H238850   4.734   6.161   6.921  0.3667 -0.5017  0.0456
 5763TIP3   OH238851   2.729   2.638   0.730  0.4247  0.2002 -0.5176
 5763TIP3    H138852   2.809   2.665   0.774 -0.4285  0.7901  0.7063
 5763TIP3    H238853   2.702   2.558   0.775 -1.3556  1.7054  1.2372
 5764TIP3   OH238854   4.677   4.935   0.591  0.4792  0.0695 -0.2024
 5764TIP3    H138855   4.751   4.955   0.533  1.3370 -2.4568 -0.1253
 5764TIP3    H238856   4.605   4.989   0.558  1.3830 -0.0798 -2.6109
 5765TIP3   OH238857   3.527   0.106   6.649  0.1686 -0.1782  0.6464
 5765TIP3    H138858   3.482   0.117   6.566  0.7552  1.7972  0.5320
 5765TIP3    H238859   3.609   0.154   6.639  2.1115 -3.0933  1.0731
 5766TIP3   OH238860   2.393   3.499   0.784 -0.2648 -0.2614  0.2461
 5766TIP3    H138861   2.478   3.499   0.740 -1.4950  1.5628 -2.3514
 5766TIP3    H238862   2.335   3.451   0.725 -1.9387  2.0973 -0.1348
 5767TIP3   OH238863   0.402   2.127   8.168 -0.5461 -0.1295 -0.3514
 5767TIP3    H138864   0.332   2.078   8.124  0.1101  0.3357 -1.9931
 5767TIP3    H238865   0.444   2.177   8.097  0.7064  0.4859  0.7911
 5768TIP3   OH238866   1.802   0.134   6.986 -0.1267 -0.2666 -0.5296
 5768TIP3    H138867   1.745   0.187   7.042  0.1919 -0.8594  0.3914
 5768TIP3    H238868   1.854   0.198   6.937 -1.7866  0.2776 -1.6247
 5769TIP3   OH238869   5.942   0.958   2.286 -0.1212 -0.7387  0.4370
 5769TIP3    H138870   5.972   0.871   2.313 -1.7232 -1.0427  1.3760
 5769TIP3    H238871   5.885   0.987   2.357 -0.6901  0.5136 -0.4906
 5770TIP3   OH238872   1.180   5.276   7.880  0.2940  0.1504 -0.3757
 5770TIP3    H138873   1.237   5.338   7.925  1.2019  0.1829 -1.5280
 5770TIP3    H238874   1.131   5.330   7.817  1.9725 -0.3870 -2.2580
 5771TIP3   OH238875   4.874   2.958   8.199 -0.4519 -0.4304 -0.5828
 5771TIP3    H138876   4.882   2.950   8.104  0.2876 -1.5859 -0.4465
 5771TIP3    H238877   4.962   2.982   8.228 -0.8279  0.5811 -0.2358
 5772TIP3   OH238878   4.263   4.544   2.365 -0.2239  0.2695  0.2865
 5772TIP3    H138879   4.199   4.541   2.437 -0.3105 -0.5057  0.1870
 5772TIP3    H238880   4.218   4.500   2.293 -1.2009  3.3542 -1.1319
 5773TIP3   OH238881   6.159   0.732   0.143  0.2233  0.0974  0.4713
 5773TIP3    H138882   6.093   0.705   0.207  1.3958 -1.8093  0.9560
 5773TIP3    H238883   6.138   0.683   0.064  0.5256  0.1922  0.3291
 5774TIP3   OH238884   5.707   5.968   1.967 -0.3308  0.7245 -0.6098
 5774TIP3    H138885   5.694   5.874   1.954  0.1705  0.2802  1.6271
 5774TIP3    H238886   5.620   6.006   1.951 -0.5926 -0.1435 -1.3350
 5775TIP3   OH238887   1.808   6.621   2.814  0.0236  0.6666 -0.4725
 5775TIP3    H138888   1.851   6.551   2.765 -0.3040  1.4383 -1.9216
 5775TIP3    H238889   1.727   6.582   2.846  0.7561 -0.1654  0.4316
 5776TIP3   OH238890   4.922   6.427   7.009  0.2966  0.0307  0.1740
 5776TIP3    H138891   4.886   6.411   6.922 -1.3809  2.1206  0.3936
 5776TIP3    H238892   5.014   6.400   7.003  0.3118  0.4592 -2.3415
 5777TIP3   OH238893   3.941   4.814   7.416  0.7859 -0.0936  0.1506
 5777TIP3    H138894   3.947   4.750   7.345 -0.3066 -1.0640  0.8774
 5777TIP3    H238895   4.031   4.822   7.448  0.9976 -1.0837 -0.1376
 5778TIP3   OH238896   4.783   6.312   8.016  0.1004  0.4693  0.7530
 5778TIP3    H138897   4.770   6.217   8.016  0.9111  0.3362 -0.5513
 5778TIP3    H238898   4.701   6.347   8.051 -0.8589 -0.6515 -0.2808
 5779TIP3   OH238899   4.126   1.991   8.620 -0.1564  0.1377  0.3615
 5779TIP3    H138900   4.064   2.058   8.649  0.0162  0.4648 -0.0075
 5779TIP3    H238901   4.170   1.963   8.700 -0.6571  0.0289  0.6012
 5780TIP3   OH238902   2.812   0.443   8.130  0.0111 -0.3169  0.2287
 5780TIP3    H138903   2.903   0.439   8.102  1.2807 -0.1143  3.8409
 5780TIP3    H238904   2.792   0.355   8.161 -1.1759 -0.4417 -0.7986
 5781TIP3   OH238905   1.984   4.990   8.294  0.3171  0.1005 -0.0795
 5781TIP3    H138906   2.016   5.074   8.262  2.6114 -1.1755 -1.4162
 5781TIP3    H238907   1.997   4.993   8.389 -2.9124  2.4527  0.4740
 5782TIP3   OH238908   4.092   2.919   2.267 -0.1358 -0.9171  0.3019
 5782TIP3    H138909   4.128   2.857   2.330  0.7882  0.2041  0.9244
 5782TIP3    H238910   4.164   2.980   2.249 -0.8374 -0.3505 -0.7092
 5783TIP3   OH238911   0.457   3.048   2.671  0.1832 -0.0640 -0.2687
 5783TIP3    H138912   0.486   2.992   2.598  0.2356  1.0033 -1.0940
 5783TIP3    H238913   0.537   3.089   2.703 -0.0494  0.7768 -0.7408
 5784TIP3   OH238914   2.942   3.406   0.807  0.0636 -0.3550 -0.7078
 5784TIP3    H138915   2.971   3.477   0.751  0.9994 -0.4048 -0.3035
 5784TIP3    H238916   3.004   3.335   0.791  1.3916  0.1928  1.5617
 5785TIP3   OH238917   0.472   6.637   1.549 -0.1220  0.4421 -0.4238
 5785TIP3    H138918   0.453   6.566   1.488  0.3172  0.6930 -0.8609
 5785TIP3    H238919   0.404   6.629   1.616  0.3450 -0.8384 -0.0662
 5786TIP3   OH238920   3.076   0.540   6.646 -0.3951  0.5473 -0.1026
 5786TIP3    H138921   2.982   0.547   6.660 -0.2860  1.5306  0.2162
 5786TIP3    H238922   3.097   0.612   6.585 -0.3497 -1.6375 -2.9000
 5787TIP3   OH238923   5.625   2.116   0.811  0.1896 -0.2954 -0.4782
 5787TIP3    H138924   5.696   2.115   0.747  0.3273  0.6681 -0.3614
 5787TIP3    H238925   5.636   2.199   0.857 -0.0892 -0.8339  0.5905
 5788TIP3   OH238926   5.707   3.469   6.864 -0.1452  0.3004 -0.2394
 5788TIP3    H138927   5.738   3.387   6.904  0.3884  0.6902  0.1688
 5788TIP3    H238928   5.747   3.538   6.918 -0.8112  0.8266 -0.4104
 5789TIP3   OH238929   5.126   2.127   0.583  0.6951 -0.0219 -0.4213
 5789TIP3    H138930   5.173   2.080   0.651  0.6699 -1.1893 -1.1874
 5789TIP3    H238931   5.106   2.061   0.517  1.3566  1.2189 -1.9139
 5790TIP3   OH238932   3.372   5.268   0.921  0.0330 -0.4030  0.1358
 5790TIP3    H138933   3.464   5.243   0.916  0.5059  1.0858  0.7378
 5790TIP3    H238934   3.374   5.363   0.935 -1.5801 -0.4136  0.6254
 5791TIP3   OH238935   4.545   5.154   7.279 -0.0158  0.2172 -0.0573
 5791TIP3    H138936   4.585   5.083   7.229  1.0370  0.0380  1.0145
 5791TIP3    H238937   4.602   5.229   7.263 -0.2879  0.4409  0.0197
 5792TIP3   OH238938   3.492   2.249   8.596 -0.5089 -0.0053 -0.4614
 5792TIP3    H138939   3.549   2.289   8.530  3.1405 -1.9904  1.2003
 5792TIP3    H238940   3.520   2.157   8.598 -1.9683 -0.4772  2.3566
 5793TIP3   OH238941   1.677   3.107   0.041 -0.3100  0.1791 -0.1721
 5793TIP3    H138942   1.759   3.146   0.012 -0.2682 -0.3855 -0.8421
 5793TIP3    H238943   1.695   3.012   0.040 -0.2255  0.1216  1.9337
 5794TIP3   OH238944   1.797   5.268   7.921  0.1121 -0.0063 -0.1978
 5794TIP3    H138945   1.708   5.287   7.892 -0.0892 -0.4317  0.1298
 5794TIP3    H238946   1.802   5.172   7.922  0.7550  0.0114 -0.7670
 5795TIP3   OH238947   6.465   1.269   6.679 -0.2458 -0.1724 -0.1904
 5795TIP3    H138948   6.452   1.181   6.645  0.5576 -0.4610  0.2264
 5795TIP3    H238949   6.382   1.314   6.662 -0.7982 -1.1204 -0.0705
 5796TIP3   OH238950   3.356   1.310   8.338  0.4900 -0.6746  0.3719
 5796TIP3    H138951   3.405   1.247   8.285 -1.4931 -0.3768 -2.0500
 5796TIP3    H238952   3.301   1.256   8.394  2.3312 -0.9991  1.9634
 5797TIP3   OH238953   0.239   1.941   2.262  0.6444  0.6495  0.2768
 5797TIP3    H138954   0.280   1.950   2.177 -0.3420  0.9020 -0.1890
 5797TIP3    H238955   0.146   1.932   2.243  0.6891 -2.6623  1.1342
 5798TIP3   OH238956   6.073   4.175   7.449 -0.3203 -0.4077 -0.2327
 5798TIP3    H138957   6.001   4.162   7.510  0.1923  0.0394  0.4904
 5798TIP3    H238958   6.146   4.127   7.488 -0.2901 -1.1098 -1.1075
 5799TIP3   OH238959   6.581   4.450   0.653  0.1319 -0.0350 -0.5377
 5799TIP3    H138960   6.582   4.494   0.738  0.3162 -0.3823 -0.3599
 5799TIP3    H238961   6.489   4.429   0.639 -0.3094  2.2434 -1.5831
 5800TIP3   OH238962   0.199   0.314   2.134  0.1338 -0.5655 -0.3255
 5800TIP3    H138963   0.113   0.355   2.148 -0.3026 -1.5426 -0.0364
 5800TIP3    H238964   0.242   0.319   2.219  1.2866  1.8770 -0.9599
 5801TIP3   OH238965   1.791   5.092   6.989  0.0151 -0.1180  0.0233
 5801TIP3    H138966   1.740   5.042   7.053 -2.3611  0.8211 -0.9954
 5801TIP3    H238967   1.788   5.039   6.909  1.3245 -0.3896  0.1305
 5802TIP3   OH238968   4.208   1.570   8.738  0.6370 -0.0330  0.0892
 5802TIP3    H138969   4.279   1.625   8.705  1.3977  0.7692  2.8304
 5802TIP3    H238970   4.201   1.499   8.675  0.9204  2.1214 -2.5679
 5803TIP3   OH238971   2.799   5.955   0.148 -0.2468 -0.7890 -0.4038
 5803TIP3    H138972   2.860   6.020   0.183  2.4149 -2.0459 -2.3539
 5803TIP3    H238973   2.790   5.890   0.218 -0.6022  0.1698  0.4632
 5804TIP3   OH238974   5.662   4.065   8.709 -0.1610  0.2934 -0.0017
 5804TIP3    H138975   5.658   4.146   8.760  0.2716 -0.0675  0.6133
 5804TIP3    H238976   5.631   3.997   8.769 -0.0714 -0.0688 -0.3628
 5805TIP3   OH238977   4.041   0.525   7.494 -0.4111 -0.0557 -0.0994
 5805TIP3    H138978   3.953   0.552   7.468 -1.4120 -2.9012  0.0029
 5805TIP3    H238979   4.038   0.521   7.589 -0.1366 -0.0715 -0.0907
 5806TIP3   OH238980   0.044   1.380   0.556  0.1174 -0.0239  0.1725
 5806TIP3    H138981   0.045   1.363   0.650 -1.0662  0.4795  0.2992
 5806TIP3    H238982   0.121   1.435   0.541  2.2608 -2.7880  0.2479
 5807TIP3   OH238983   0.133   4.179   0.636 -0.3538  0.7066  0.0020
 5807TIP3    H138984   0.196   4.109   0.656  0.0246  1.3619  1.2558
 5807TIP3    H238985   0.078   4.184   0.714  0.8903  3.0916  0.8331
 5808TIP3   OH238986   4.280   4.443   0.634 -0.2224 -0.1885 -0.3372
 5808TIP3    H138987   4.245   4.532   0.640 -2.4113 -0.9943 -0.1905
 5808TIP3    H238988   4.372   4.452   0.656 -0.3750  2.0529 -0.3878
 5809TIP3   OH238989   1.852   1.036   6.931 -0.3558  0.1032  0.1311
 5809TIP3    H138990   1.774   1.091   6.940  0.1852  0.8778  0.1645
 5809TIP3    H238991   1.921   1.084   6.977  0.7951  0.7557 -2.1564
 5810TIP3   OH238992   1.420   5.591   7.975 -0.1250 -0.0945 -0.0794
 5810TIP3    H138993   1.353   5.622   8.036 -1.3374 -2.3441 -0.1553
 5810TIP3    H238994   1.433   5.663   7.914 -0.0205  1.6299  1.8864
 5811TIP3   OH238995   6.741   6.466   2.526  0.5748 -0.2876 -0.1174
 5811TIP3    H138996   6.822   6.425   2.555  1.0749  0.6103 -0.2121
 5811TIP3    H238997   6.703   6.505   2.605  0.4309 -0.3740 -0.1428
 5812TIP3   OH238998   0.775   2.023   1.550 -0.5357 -0.0756 -0.1675
 5812TIP3    H138999   0.853   1.980   1.585  0.1852  0.5704 -0.9157
 5812TIP3    H239000   0.777   2.003   1.456 -0.4422  1.1562 -0.4506
 5813TIP3   OH239001   2.250   0.429   6.245  0.0124 -0.1935  0.2423
 5813TIP3    H139002   2.208   0.359   6.195  0.9520 -0.7398  0.1767
 5813TIP3    H239003   2.279   0.385   6.326  1.1789 -0.0568 -0.0773
 5814TIP3   OH239004   2.388   1.106   8.525  0.5791 -0.5715  0.3124
 5814TIP3    H139005   2.474   1.131   8.558  1.0364  1.1457 -1.9757
 5814TIP3    H239006   2.327   1.165   8.571  0.6372 -1.4849  1.5989
 5815TIP3   OH239007   5.353   2.806   0.734  0.2957 -0.3166 -0.1769
 5815TIP3    H139008   5.363   2.880   0.675  1.5909 -0.5904 -0.3311
 5815TIP3    H239009   5.299   2.743   0.685  1.2627 -0.4955 -1.0560
 5816TIP3   OH239010   0.635   1.500   1.459 -0.0156  0.0198  0.0774
 5816TIP3    H139011   0.713   1.466   1.503 -0.0696 -0.6462 -0.3291
 5816TIP3    H239012   0.609   1.430   1.399  0.6169  1.2668 -1.7357
 5817TIP3   OH239013   2.917   2.519   0.180  0.2476 -0.4554 -0.0021
 5817TIP3    H139014   2.836   2.554   0.217  0.3938  0.3278 -0.4035
 5817TIP3    H239015   2.972   2.596   0.166  0.6658 -0.8744 -0.6919
 5818TIP3   OH239016   6.507   4.225   1.343  0.2458 -0.0537 -0.0697
 5818TIP3    H139017   6.504   4.148   1.399 -1.6853 -0.7285 -1.0320
 5818TIP3    H239018   6.592   4.220   1.299  0.3145 -1.3894  0.1977
 5819TIP3   OH239019   5.024   4.973   0.128 -0.7488  0.2143 -0.2127
 5819TIP3    H139020   4.940   4.992   0.170 -1.5235  0.0010 -1.6007
 5819TIP3    H239021   5.089   5.016   0.183 -1.4198 -2.0457  2.6162
 5820TIP3   OH239022   5.334   0.838   8.401  0.4768  0.8826 -0.9076
 5820TIP3    H139023   5.382   0.768   8.357 -0.3686 -0.2514 -0.0954
 5820TIP3    H239024   5.392   0.867   8.471  1.3491  1.9016 -2.0033
 5821TIP3   OH239025   1.843   5.511   2.769 -0.0284  0.3364 -0.3226
 5821TIP3    H139026   1.920   5.531   2.715 -0.3469 -0.5468 -1.1313
 5821TIP3    H239027   1.769   5.547   2.719 -0.1444  1.4456  0.5895
 5822TIP3   OH239028   1.352   0.048   8.351 -0.1637 -0.4049  0.3320
 5822TIP3    H139029   1.405  -0.025   8.319  1.5523  0.6686  0.5851
 5822TIP3    H239030   1.341   0.104   8.275 -1.1005 -0.6931  0.2456
 5823TIP3   OH239031   6.643   5.378   0.144 -0.1257 -0.3377  0.1650
 5823TIP3    H139032   6.729   5.362   0.103 -0.1092 -1.7781  0.7359
 5823TIP3    H239033   6.664   5.406   0.233 -0.2530 -0.7412  0.3206
 5824TIP3   OH239034   1.086   3.372   2.280 -0.2740 -0.1198  0.2858
 5824TIP3    H139035   1.034   3.300   2.244 -1.0699  0.2449  0.6816
 5824TIP3    H239036   1.063   3.448   2.227  0.6657 -0.1642 -0.2188
 5825TIP3   OH239037   0.854   4.843   7.363  0.1091 -0.3106 -0.0012
 5825TIP3    H139038   0.915   4.882   7.301 -0.2201 -0.6096 -0.5220
 5825TIP3    H239039   0.773   4.830   7.313 -0.8838  1.4499  1.0691
 5826TIP3   OH239040   2.461   6.358   0.591 -0.0515 -0.0924 -0.5046
 5826TIP3    H139041   2.516   6.299   0.539  1.5360  0.8131  0.0630
 5826TIP3    H239042   2.445   6.310   0.672 -0.3733 -0.4913 -0.8009
 5827TIP3   OH239043   5.311   0.929   7.630  0.0052 -0.8238  0.0040
 5827TIP3    H139044   5.229   0.966   7.661 -0.0114 -1.0469  0.2225
 5827TIP3    H239045   5.332   0.860   7.692 -0.2398 -1.5513 -0.7002
 5828TIP3   OH239046   2.186   6.386   0.225 -0.1657 -0.2689  0.0710
 5828TIP3    H139047   2.195   6.378   0.320  2.3496 -1.2665 -0.1646
 5828TIP3    H239048   2.116   6.450   0.212 -2.9008 -2.4729  2.5441
 5829TIP3   OH239049   4.670   0.882   8.634  0.5414  0.6139  0.1874
 5829TIP3    H139050   4.669   0.953   8.571 -3.6201  0.0665 -0.6723
 5829TIP3    H239051   4.628   0.918   8.712 -0.5276 -0.4733  0.1595
 5830TIP3   OH239052   1.139   0.725   1.694 -0.4470  0.3828 -0.3172
 5830TIP3    H139053   1.232   0.706   1.681 -1.0474 -1.3795 -2.6741
 5830TIP3    H239054   1.120   0.797   1.635 -0.6059  0.6808  0.0925
 5831TIP3   OH239055   3.815   0.759   8.632  0.0005 -0.3876  0.6065
 5831TIP3    H139056   3.892   0.781   8.686 -0.8977 -1.0164  2.1975
 5831TIP3    H239057   3.768   0.694   8.683 -1.6478  0.0513 -0.2997
 5832TIP3   OH239058   1.750   5.478   7.527 -0.1344 -0.2755 -0.0835
 5832TIP3    H139059   1.798   5.398   7.546  0.1813 -0.0408  0.1104
 5832TIP3    H239060   1.817   5.543   7.508 -0.4073 -0.7969 -3.3968
 5833TIP3   OH239061   2.333   3.114   0.732  0.2355  0.1746 -0.0103
 5833TIP3    H139062   2.354   3.187   0.674  1.1552  0.2480  0.3992
 5833TIP3    H239063   2.333   3.152   0.820  1.6106 -0.4721  0.2982
 5834TIP3   OH239064   3.165   3.914   8.399 -0.2487  0.0378  0.0111
 5834TIP3    H139065   3.143   3.906   8.492 -0.4807 -1.2538 -0.1452
 5834TIP3    H239066   3.111   3.849   8.356  0.3914  0.1356 -0.9551
 5835TIP3   OH239067   6.740   5.431   0.387 -0.2693 -0.0012 -0.3080
 5835TIP3    H139068   6.728   5.483   0.466 -1.1378 -0.9672  0.2176
 5835TIP3    H239069   6.822   5.464   0.348  0.9351 -0.4445  1.7295
 5836TIP3   OH239070   2.014   3.369   0.739  0.1385  0.9539  0.6566
 5836TIP3    H139071   2.067   3.418   0.675  0.9052 -1.1466 -0.4210
 5836TIP3    H239072   1.939   3.338   0.688  0.0437  0.4083  1.1258
 5837TIP3   OH239073   2.302   6.250   1.973  0.1401 -0.7976  0.1008
 5837TIP3    H139074   2.335   6.233   1.885  0.2611  1.1015 -0.2630
 5837TIP3    H239075   2.358   6.197   2.030  1.6445 -0.2365 -0.7905
 5838TIP3   OH239076   6.184   5.646   0.990 -0.3732  0.2780  0.0906
 5838TIP3    H139077   6.176   5.556   1.021  1.9149  0.1672  0.5949
 5838TIP3    H239078   6.180   5.699   1.069 -1.3325  0.6105 -0.1674
 5839TIP3   OH239079   4.771   3.802   6.598  0.1792  0.2723 -0.3292
 5839TIP3    H139080   4.781   3.833   6.509  0.1322  0.1753 -0.3687
 5839TIP3    H239081   4.797   3.710   6.595 -1.8100 -0.3189 -0.6804
 5840TIP3   OH239082   2.038   6.247   7.062 -0.4518  0.4394 -0.4586
 5840TIP3    H139083   2.014   6.326   7.012 -3.3710  1.2264  1.9328
 5840TIP3    H239084   2.134   6.245   7.058 -0.4101  1.9863 -3.6219
 5841TIP3   OH239085   1.602   1.520   0.484 -0.1648 -0.1010 -0.1399
 5841TIP3    H139086   1.507   1.523   0.475 -0.0637  0.8965 -1.0425
 5841TIP3    H239087   1.633   1.603   0.449  1.0592 -0.4711 -0.0031
 5842TIP3   OH239088   1.422   6.792   2.384 -0.1729  1.1734  0.3389
 5842TIP3    H139089   1.367   6.871   2.386 -0.7301  0.8970 -1.7993
 5842TIP3    H239090   1.430   6.771   2.291 -1.5611 -2.3475  0.8831
 5843TIP3   OH239091   3.006   6.537   0.074  0.0375  0.0202 -0.6958
 5843TIP3    H139092   2.917   6.566   0.056 -0.0663 -0.6828 -1.3867
 5843TIP3    H239093   3.059   6.580   0.008  0.0988 -0.1381 -0.7518
 5844TIP3   OH239094   1.042   4.914   8.000  0.6884  0.3851 -0.2868
 5844TIP3    H139095   0.990   4.993   8.010  0.7516  0.7163 -2.3288
 5844TIP3    H239096   0.979   4.842   8.009  0.4974  0.6652  0.7496
 5845TIP3   OH239097   3.025   1.875   7.684 -0.3506  0.4624 -0.0762
 5845TIP3    H139098   3.116   1.865   7.658 -0.4725  1.4360 -0.9238
 5845TIP3    H239099   2.975   1.843   7.609 -0.6989  1.6765 -0.3876
 5846TIP3   OH239100   1.540   1.840   7.931  0.1255 -0.7956 -0.0657
 5846TIP3    H139101   1.573   1.860   8.018  1.2009  0.7709 -0.7790
 5846TIP3    H239102   1.449   1.869   7.932  0.2509 -0.4123  0.4349
 5847TIP3   OH239103   1.015   1.134   8.044 -0.7867 -0.0145 -0.1787
 5847TIP3    H139104   1.008   1.040   8.062  2.3084 -0.0830  1.4493
 5847TIP3    H239105   0.944   1.173   8.095  0.1554 -1.2731  2.2697
 5848TIP3   OH239106   3.523   1.350   6.526  0.0193  0.0840 -0.3283
 5848TIP3    H139107   3.463   1.327   6.455  0.2539  0.8361 -0.7836
 5848TIP3    H239108   3.576   1.271   6.539 -0.3146 -0.2034 -0.6929
 5849TIP3   OH239109   4.162   4.511   0.950 -0.0749 -0.4140  0.2538
 5849TIP3    H139110   4.181   4.579   1.014 -0.8673  0.3169 -0.2748
 5849TIP3    H239111   4.150   4.557   0.867 -0.9735 -1.1488 -0.0485
 5850TIP3   OH239112   2.285   3.921   6.976  0.0186 -0.1324  0.3830
 5850TIP3    H139113   2.215   3.859   6.998  1.1818 -0.9101  2.0574
 5850TIP3    H239114   2.360   3.865   6.954  0.5557  0.6974  0.0608
 5851TIP3   OH239115   3.634   5.240   7.847  0.4057 -0.2548 -0.2228
 5851TIP3    H139116   3.727   5.219   7.848  0.3396 -0.7067 -1.7836
 5851TIP3    H239117   3.624   5.304   7.777 -0.2308  1.0175  0.9829
 5852TIP3   OH239118   1.774   6.551   8.193 -0.2174  0.1604  0.2538
 5852TIP3    H139119   1.702   6.491   8.213 -1.5580  1.8044  0.5383
 5852TIP3    H239120   1.769   6.563   8.099  0.4172 -0.5837  0.1126
 5853TIP3   OH239121   4.202   5.043   6.567 -0.3398 -0.2367  0.0534
 5853TIP3    H139122   4.137   5.026   6.500 -0.9023  0.5365  0.3975
 5853TIP3    H239123   4.251   5.118   6.536 -0.0141 -0.4290  0.0911
 5854TIP3   OH239124   5.025   6.758   0.989 -0.4358 -0.3543  0.1390
 5854TIP3    H139125   4.984   6.683   1.033 -0.5445 -0.1404  0.4107
 5854TIP3    H239126   5.102   6.722   0.946 -1.8132 -1.0939 -1.8127
 5855TIP3   OH239127   3.750   4.807   8.563  0.3217  0.0072 -0.0645
 5855TIP3    H139128   3.710   4.720   8.557  0.8988 -0.4254  1.7320
 5855TIP3    H239129   3.723   4.840   8.649  2.2478  0.4722  0.4066
 5856TIP3   OH239130   4.637   1.142   7.509 -0.0275 -0.9180  0.3797
 5856TIP3    H139131   4.582   1.099   7.574 -0.3409 -1.2383 -0.0904
 5856TIP3    H239132   4.688   1.206   7.559 -2.4493  1.0259  0.4842
 5857TIP3   OH239133   0.215   4.484   6.994 -0.2425 -0.9279 -0.0408
 5857TIP3    H139134   0.152   4.468   7.064 -0.6737 -1.3749 -0.5154
 5857TIP3    H239135   0.299   4.494   7.038 -0.9086  1.6253  0.7778
 5858TIP3   OH239136   1.506   4.701   1.249  0.4900  0.2859  0.4865
 5858TIP3    H139137   1.497   4.652   1.331  0.1514 -0.7111 -0.1320
 5858TIP3    H239138   1.434   4.670   1.194  0.5732  1.1197 -0.1064
 5859TIP3   OH239139   5.217   4.997   6.530 -0.6640 -0.4254  0.3302
 5859TIP3    H139140   5.166   5.077   6.527 -0.2947 -0.2078 -2.0244
 5859TIP3    H239141   5.163   4.932   6.484 -0.0760 -0.9813  0.4026
 5860TIP3   OH239142   1.521   2.825   7.335 -0.0735 -0.6363  0.2521
 5860TIP3    H139143   1.541   2.792   7.423  2.0368  0.7890  0.3831
 5860TIP3    H239144   1.577   2.772   7.277  1.3539  0.8558  0.2012
 5861TIP3   OH239145   5.368   5.596   6.529 -0.1052 -0.1424 -0.1580
 5861TIP3    H139146   5.295   5.605   6.468 -0.8535 -2.9845  0.1551
 5861TIP3    H239147   5.420   5.523   6.493  0.1425 -1.0291  1.8851
 5862TIP3   OH239148   0.892   2.960   8.316  0.0154  0.2667 -0.5115
 5862TIP3    H139149   0.958   2.937   8.381 -2.1303  0.1001  1.7956
 5862TIP3    H239150   0.876   2.878   8.269  0.1227 -0.1912  0.2226
 5863TIP3   OH239151   4.558   6.389   8.191  0.0909  0.4767 -0.0845
 5863TIP3    H139152   4.473   6.369   8.153 -1.3264  1.5949  2.2850
 5863TIP3    H239153   4.574   6.317   8.253 -0.1089  1.2636  0.9084
 5864TIP3   OH239154   1.680   5.205   0.432 -0.2607  0.4972  0.6801
 5864TIP3    H139155   1.759   5.186   0.382 -0.1634 -2.4623  1.7394
 5864TIP3    H239156   1.609   5.205   0.368  0.2737  0.3703  0.0861
 5865TIP3   OH239157   3.707   2.739   7.685  0.2411  0.1806 -0.1889
 5865TIP3    H139158   3.776   2.679   7.711 -0.2785  0.3357  1.6586
 5865TIP3    H239159   3.653   2.688   7.624  1.3619 -0.2820 -0.8101
 5866TIP3   OH239160   4.659   4.358   7.701  0.2995 -0.5537 -0.2879
 5866TIP3    H139161   4.609   4.350   7.620  0.9756 -1.2680 -0.6458
 5866TIP3    H239162   4.657   4.451   7.722 -0.4487 -0.4569 -0.7602
 5867TIP3   OH239163   0.637   0.615   7.203 -0.0467 -0.0303  0.1937
 5867TIP3    H139164   0.713   0.560   7.221  0.3203 -0.2375 -1.7842
 5867TIP3    H239165   0.597   0.576   7.125 -0.0738  2.1369 -0.9667
 5868TIP3   OH239166   2.370   6.776   1.518  0.6095 -0.2779  1.0703
 5868TIP3    H139167   2.410   6.801   1.602  1.0594 -1.9107  1.3810
 5868TIP3    H239168   2.276   6.772   1.537  0.5920  0.5532  1.1696
 5869TIP3   OH239169   3.145   0.729   7.157 -0.1464  0.2442 -1.1847
 5869TIP3    H139170   3.075   0.763   7.214  0.2543  0.3261 -0.7316
 5869TIP3    H239171   3.099   0.676   7.092 -0.5462 -0.6123 -0.2314
 5870TIP3   OH239172   6.565   5.234   6.899 -0.0814  0.2695  0.6802
 5870TIP3    H139173   6.522   5.156   6.935 -1.0288  1.4860  2.2894
 5870TIP3    H239174   6.626   5.199   6.834 -1.9872 -1.6823 -0.2019
 5871TIP3   OH239175   2.809   5.820   0.763  0.4044  0.2500 -0.4580
 5871TIP3    H139176   2.851   5.893   0.718  0.5793  0.2227 -0.3395
 5871TIP3    H239177   2.871   5.795   0.832  0.0296  0.4576 -0.0330
 5872TIP3   OH239178   1.497   4.396   7.293 -0.4742  0.4925  0.6510
 5872TIP3    H139179   1.461   4.479   7.326 -2.0526  0.9233 -1.8491
 5872TIP3    H239180   1.570   4.377   7.351 -1.0734  2.7811  2.3186
 5873TIP3   OH239181   4.924   3.172   7.309  0.1147  0.2450  0.3531
 5873TIP3    H139182   4.961   3.191   7.395  1.7460  0.8290 -0.4375
 5873TIP3    H239183   5.000   3.160   7.252 -0.9208  0.1569 -1.0716
 5874TIP3   OH239184   0.693   0.574   0.973 -0.4017  0.1302  0.0185
 5874TIP3    H139185   0.662   0.499   1.023 -1.1623 -0.1941 -0.9037
 5874TIP3    H239186   0.755   0.538   0.910  0.7336  0.5690  0.8511
 5875TIP3   OH239187   3.445   1.258   0.735 -0.2259  0.3325  0.0558
 5875TIP3    H139188   3.413   1.263   0.644 -0.6266 -0.3464  0.1522
 5875TIP3    H239189   3.534   1.293   0.731  0.5469 -1.5768 -1.0021
 5876TIP3   OH239190   1.293   4.967   8.149 -0.5687 -0.5826 -0.2492
 5876TIP3    H139191   1.354   4.929   8.087 -1.2626 -0.8529 -0.7881
 5876TIP3    H239192   1.207   4.956   8.108 -1.0830 -1.0704  0.9108
 5877TIP3   OH239193   0.721   5.202   7.080 -0.0118  0.1169 -0.1649
 5877TIP3    H139194   0.663   5.184   7.154 -0.0789  2.5450  0.4399
 5877TIP3    H239195   0.735   5.296   7.082  1.1349  0.0737 -2.4252
 5878TIP3   OH239196   5.410   5.846   0.348 -0.2500  0.3998  0.1210
 5878TIP3    H139197   5.338   5.790   0.376  0.3423 -0.1187  0.6171
 5878TIP3    H239198   5.477   5.836   0.415  1.2266 -0.9115 -1.4324
 5879TIP3   OH239199   6.373   5.166   0.943 -0.5887 -0.1350 -0.2770
 5879TIP3    H139200   6.445   5.127   0.993  0.4828  2.4793  0.3556
 5879TIP3    H239201   6.296   5.117   0.972  0.5448 -1.2797  0.9867
 5880TIP3   OH239202   0.750   1.810   0.974 -0.2334  0.7300  0.0318
 5880TIP3    H139203   0.837   1.823   1.012 -0.3677 -0.3244  0.7537
 5880TIP3    H239204   0.761   1.735   0.915 -0.1087  2.1367 -1.8103
 5881TIP3   OH239205   1.198   4.419   6.726 -0.4164 -0.1466  0.2349
 5881TIP3    H139206   1.260   4.461   6.787 -0.6154 -1.1647  1.1647
 5881TIP3    H239207   1.137   4.489   6.702 -0.1082  0.3655  0.9176
 5882TIP3   OH239208   3.579   0.657   0.304 -0.4337  0.0467  0.5672
 5882TIP3    H139209   3.625   0.575   0.286  0.8391  0.7185  0.6344
 5882TIP3    H239210   3.594   0.710   0.226  0.0825  0.7860  1.1604
 5883TIP3   OH239211   3.121   0.109   0.996  0.0436 -0.5873  0.2350
 5883TIP3    H139212   3.066   0.146   1.066  0.4804 -1.3464  1.0055
 5883TIP3    H239213   3.143   0.184   0.941  0.8811  0.3413  1.7421
 5884TIP3   OH239214   6.325   6.282   1.057 -0.0606  0.2626 -0.1916
 5884TIP3    H139215   6.356   6.213   0.999  0.6676 -0.1249  0.6392
 5884TIP3    H239216   6.391   6.288   1.126 -1.0030  0.5587  0.7261
 5885TIP3   OH239217   0.984   0.134   2.020  0.1436  0.1933 -0.4777
 5885TIP3    H139218   0.928   0.112   1.946 -0.3980  0.2932 -0.1040
 5885TIP3    H239219   0.987   0.055   2.073 -3.0316  1.3309  1.6526
 5886TIP3   OH239220   5.081   3.474   8.155 -0.4801  0.2161  0.2740
 5886TIP3    H139221   5.086   3.526   8.235  0.7572  0.7005 -0.0995
 5886TIP3    H239222   5.142   3.401   8.169 -1.7424 -0.8161  0.5499
 5887TIP3   OH239223   1.936   0.986   2.172  0.3747 -0.3424  0.0571
 5887TIP3    H139224   1.974   1.040   2.104  0.7142 -0.7743 -0.1031
 5887TIP3    H239225   1.948   1.036   2.253 -0.8558  0.5956 -0.3071
 5888TIP3   OH239226   5.559   1.598   1.230 -0.5556 -0.0141 -0.2560
 5888TIP3    H139227   5.588   1.525   1.175 -0.6200 -0.1287 -0.1363
 5888TIP3    H239228   5.638   1.653   1.239 -0.3191 -0.4251  0.2274
 5889TIP3   OH239229   4.006   2.716   7.687  0.4636  0.4812 -0.5263
 5889TIP3    H139230   3.951   2.779   7.642 -1.3922  1.3434  2.6827
 5889TIP3    H239231   4.023   2.755   7.773  1.9000 -2.0042  0.4369
 5890TIP3   OH239232   0.723   4.848   6.323  0.3944 -0.2697  0.1623
 5890TIP3    H139233   0.758   4.819   6.407 -0.3456  2.8913  1.7043
 5890TIP3    H239234   0.629   4.853   6.336  0.2552  0.2079 -0.8892
 5891TIP3   OH239235   5.834   0.848   7.057 -0.0354 -0.1354 -0.0421
 5891TIP3    H139236   5.744   0.817   7.061 -0.0739 -0.0461 -0.2091
 5891TIP3    H239237   5.826   0.941   7.035  0.1118 -0.2204 -0.4555
 5892TIP3   OH239238   1.303   3.203   2.069 -0.0351 -0.0237 -0.0954
 5892TIP3    H139239   1.229   3.170   2.019  0.1460 -1.9174  0.7762
 5892TIP3    H239240   1.348   3.263   2.009 -0.5245 -1.2335 -1.7738
 5893TIP3   OH239241   6.602   4.612   0.881  0.4495  0.2858  0.8113
 5893TIP3    H139242   6.654   4.539   0.914  0.5114  0.0043  0.0980
 5893TIP3    H239243   6.667   4.672   0.844  0.1923 -1.0902 -2.1383
 5894TIP3   OH239244   6.100   4.432   2.477 -0.3625 -0.2228  0.2761
 5894TIP3    H139245   6.015   4.436   2.520 -0.1274  1.4497  0.6383
 5894TIP3    H239246   6.163   4.432   2.550 -0.0099  0.6953 -0.0176
 5895TIP3   OH239247   3.765   0.117   0.720 -0.0824 -0.2523 -0.2150
 5895TIP3    H139248   3.708   0.044   0.744  2.2466 -1.5380  2.0219
 5895TIP3    H239249   3.848   0.075   0.696  1.3017  1.5791  1.0580
 5896TIP3   OH239250   6.238   3.667   0.114  0.4064 -0.4616  0.2560
 5896TIP3    H139251   6.236   3.755   0.076 -0.8103 -0.6075 -0.0618
 5896TIP3    H239252   6.330   3.639   0.106  1.2823  1.5647  2.2672
 5897TIP3   OH239253   2.862   3.203   6.045  0.1732  0.4218  0.0462
 5897TIP3    H139254   2.957   3.196   6.031  0.3084 -0.4624  1.2763
 5897TIP3    H239255   2.853   3.228   6.137 -0.7711  1.7649 -0.3942
 5898TIP3   OH239256   3.072   2.541   7.128 -0.1313  0.9639 -0.0081
 5898TIP3    H139257   3.097   2.632   7.145 -4.0095  2.5051 -1.3836
 5898TIP3    H239258   3.007   2.522   7.196  0.3572 -0.6365  0.0257
 5899TIP3   OH239259   5.108   0.034   6.835  0.0283  0.0346  0.1517
 5899TIP3    H139260   5.154  -0.011   6.907 -1.5541 -1.9452  0.0159
 5899TIP3    H239261   5.110  -0.029   6.763 -1.7082  0.4158 -0.2656
 5900TIP3   OH239262   2.897   1.664   8.288  0.6974 -0.2567 -0.0980
 5900TIP3    H139263   2.941   1.714   8.220  0.1205  1.5395  0.7981
 5900TIP3    H239264   2.857   1.730   8.345  2.0759 -1.6258  2.6254
 5901TIP3   OH239265   2.556   1.837   7.218  0.7693 -0.0510 -0.5754
 5901TIP3    H139266   2.556   1.928   7.188 -0.8829  0.2510  0.2317
 5901TIP3    H239267   2.613   1.838   7.295  0.2088  0.4604 -0.1577
 5902TIP3   OH239268   6.249   3.100   6.993 -0.3087  0.5338  0.1829
 5902TIP3    H139269   6.288   3.022   6.954 -0.8411 -0.8762  2.2761
 5902TIP3    H239270   6.225   3.155   6.919  0.2483 -1.2161 -1.3636
 5903TIP3   OH239271   1.531   5.600   7.431 -0.4015  0.0655  0.4143
 5903TIP3    H139272   1.487   5.519   7.404  1.6072 -0.7523 -0.5717
 5903TIP3    H239273   1.602   5.571   7.488  1.2239  0.9717 -1.0856
 5904TIP3   OH239274   0.154   6.718   0.577 -0.0859  0.1930 -0.1676
 5904TIP3    H139275   0.152   6.672   0.661  0.8052 -0.1285 -0.3128
 5904TIP3    H239276   0.233   6.685   0.534 -1.9486 -1.8086 -2.3285
 5905TIP3   OH239277   6.816   4.917   0.826  0.1847  0.3354 -0.2415
 5905TIP3    H139278   6.798   4.846   0.764  0.7791  0.5688 -0.6977
 5905TIP3    H239279   6.862   4.874   0.898  1.3032  0.3663 -0.9041
 5906TIP3   OH239280   3.873   6.269   0.280 -0.1949  0.4852  0.0472
 5906TIP3    H139281   3.837   6.181   0.288  0.9063  0.1350  1.9508
 5906TIP3    H239282   3.797   6.327   0.285 -0.7755 -0.3135  1.0986
 5907TIP3   OH239283   6.266   3.581   1.420  0.4786  0.1294 -0.2527
 5907TIP3    H139284   6.202   3.631   1.471  1.6585  1.1796  0.2632
 5907TIP3    H239285   6.215   3.512   1.379 -1.1720  1.5354 -0.7103
 5908TIP3   OH239286   1.047   3.982   0.639  0.8476 -0.2463  0.1353
 5908TIP3    H139287   1.054   3.888   0.623  1.6504 -1.2101  4.6089
 5908TIP3    H239288   1.013   3.988   0.729 -2.2892  3.8617 -1.0284
 5909TIP3   OH239289   6.639   5.997   0.496 -0.6783  0.3434  0.2909
 5909TIP3    H139290   6.563   5.938   0.500 -0.6099  0.2885  0.9035
 5909TIP3    H239291   6.601   6.085   0.498 -0.6843  0.3327  2.1858
 5910TIP3   OH239292   5.279   5.583   7.790 -0.3529  0.0373 -0.1403
 5910TIP3    H139293   5.260   5.518   7.723  0.7325 -0.2697 -0.1587
 5910TIP3    H239294   5.195   5.626   7.805 -0.8685 -0.6875 -0.8401
 5911TIP3   OH239295   3.591   2.857   8.480  0.4323  0.2663  0.0077
 5911TIP3    H139296   3.605   2.775   8.527  0.3389  0.4712  0.3920
 5911TIP3    H239297   3.575   2.922   8.548 -0.8134  0.3538 -0.3419
 5912TIP3   OH239298   5.966   4.177   7.918 -0.2927 -0.6491  0.3659
 5912TIP3    H139299   5.954   4.270   7.898  0.0894 -0.8532 -0.8932
 5912TIP3    H239300   5.996   4.176   8.009 -2.0869  0.3318  1.0168
 5913TIP3   OH239301   2.044   1.594   1.440  0.2131  0.5255 -0.6703
 5913TIP3    H139302   2.112   1.527   1.429  0.0110  0.2262 -0.1296
 5913TIP3    H239303   1.967   1.558   1.396  0.5328  1.0756 -1.7027
 5914TIP3   OH239304   5.513   1.640   2.288 -0.4871 -0.3154 -0.3018
 5914TIP3    H139305   5.609   1.635   2.296 -0.6478 -1.3674  1.5361
 5914TIP3    H239306   5.499   1.699   2.214  1.5893  0.9793  0.2272
 5915TIP3   OH239307   4.837   2.796   6.893  0.2538 -0.9805 -0.1473
 5915TIP3    H139308   4.847   2.720   6.836  4.2768 -1.0723  0.3938
 5915TIP3    H239309   4.843   2.871   6.834 -3.7533 -0.8855 -0.6863
 5916TIP3   OH239310   6.765   5.586   0.624 -0.2048  0.0657  0.3587
 5916TIP3    H139311   6.784   5.680   0.623 -2.2922  0.5784  1.9611
 5916TIP3    H239312   6.695   5.576   0.688 -2.1203 -2.1997 -1.8535
 5917TIP3   OH239313   2.717   3.910   8.487  0.4071 -0.7687  0.2649
 5917TIP3    H139314   2.777   3.911   8.412  1.0988 -0.3934  0.8163
 5917TIP3    H239315   2.749   3.979   8.544 -1.9761  1.1222 -0.5230
 5918TIP3   OH239316   3.341   5.657   6.960  0.2476  0.3442  0.0957
 5918TIP3    H139317   3.399   5.663   6.884 -0.4228  2.4626 -0.3118
 5918TIP3    H239318   3.255   5.683   6.927 -0.4587 -0.5133  1.1909
 5919TIP3   OH239319   3.296   2.451   7.271  0.0417 -0.9029 -0.4296
 5919TIP3    H139320   3.231   2.486   7.210 -1.6613 -1.4373  0.9937
 5919TIP3    H239321   3.261   2.471   7.358  2.0334 -0.8141  0.3972
 5920TIP3   OH239322   6.211   4.982   1.746  0.0011  0.2562 -0.3324
 5920TIP3    H139323   6.225   4.979   1.841 -1.5951  0.2928 -0.0672
 5920TIP3    H239324   6.214   4.890   1.719  2.1990  0.3455 -0.5664
 5921TIP3   OH239325   3.787   3.143   7.103 -0.9033 -0.7557 -0.0595
 5921TIP3    H139326   3.870   3.117   7.063 -0.8489 -1.2477  0.3637
 5921TIP3    H239327   3.806   3.228   7.143 -0.5064 -1.0264  0.3322
 5922TIP3   OH239328   0.763   5.160   8.646 -0.2900  0.6151 -0.1945
 5922TIP3    H139329   0.795   5.071   8.662 -0.2589  0.6569 -0.0213
 5922TIP3    H239330   0.708   5.179   8.721  0.3449  1.0438  0.1658
 5923TIP3   OH239331   0.094   0.099   8.542  0.4825 -0.1298 -0.3895
 5923TIP3    H139332   0.112   0.167   8.606  1.0738  1.2569 -1.9473
 5923TIP3    H239333   0.152   0.119   8.468 -0.4052 -1.4394 -1.5045
 5924TIP3   OH239334   3.482   0.002   7.988  0.2312  0.2146  0.5978
 5924TIP3    H139335   3.573   0.029   7.973  0.8452 -2.1179 -0.3426
 5924TIP3    H239336   3.432   0.045   7.919  0.8022  0.6429  0.4454
 5925TIP3   OH239337   6.174   6.751   1.381 -0.4680  0.0607 -0.2455
 5925TIP3    H139338   6.091   6.752   1.428 -0.4572  0.5555 -0.2273
 5925TIP3    H239339   6.199   6.843   1.376 -0.3326 -0.0082 -0.9698
 5926TIP3   OH239340   5.761   0.587   0.742 -0.2016 -0.5131 -0.1370
 5926TIP3    H139341   5.847   0.584   0.784  0.0609 -0.7770 -0.6925
 5926TIP3    H239342   5.753   0.503   0.698 -0.7474 -0.4882 -0.0889
 5927TIP3   OH239343   3.378   1.779   7.904  0.1268  0.1062 -0.1360
 5927TIP3    H139344   3.316   1.713   7.874 -0.2824  0.4198  0.0079
 5927TIP3    H239345   3.459   1.759   7.857 -0.0179 -0.4378 -0.1660
 5928TIP3   OH239346   0.617   0.091   7.828 -0.3638  0.7452  0.4659
 5928TIP3    H139347   0.577   0.065   7.745  1.8992 -1.0397 -0.1828
 5928TIP3    H239348   0.602   0.017   7.887  0.7945  0.5845  0.5900
 5929TIP3   OH239349   5.782   5.132   8.749 -0.2647  0.1452 -0.1482
 5929TIP3    H139350   5.801   5.220   8.716 -0.5934  0.0786 -0.5228
 5929TIP3    H239351   5.841   5.121   8.823  2.4045 -0.6735 -2.1965
 5930TIP3   OH239352   1.446   0.797   6.913  0.1625 -0.4037 -0.3030
 5930TIP3    H139353   1.464   0.891   6.903 -0.3864 -0.1779  0.7479
 5930TIP3    H239354   1.445   0.763   6.823 -1.5834  0.9675 -0.8524
 5931TIP3   OH239355   0.556   6.270   6.897  0.0974  0.2111 -0.0752
 5931TIP3    H139356   0.651   6.283   6.900  0.0877  0.2194  1.9927
 5931TIP3    H239357   0.523   6.323   6.969 -1.7430  1.8802 -2.0208
 5932TIP3   OH239358   1.657   3.956   1.594  0.2301 -0.3646  0.3871
 5932TIP3    H139359   1.592   4.020   1.623 -2.5745 -2.1424 -1.5464
 5932TIP3    H239360   1.710   3.939   1.673  0.3776  3.2999  1.2910
 5933TIP3   OH239361   0.916   0.844   0.873 -0.6335 -0.8493 -0.1867
 5933TIP3    H139362   0.929   0.932   0.839  2.5177 -1.3139 -0.4769
 5933TIP3    H239363   0.893   0.792   0.796 -0.3315 -0.6543 -0.4138
 5934TIP3   OH239364   1.287   4.452   0.050  0.1361  0.4904  0.3170
 5934TIP3    H139365   1.323   4.432   0.136  0.2943 -0.3484  0.0721
 5934TIP3    H239366   1.362   4.444  -0.010 -0.3507 -0.8724 -0.1425
 5935TIP3   OH239367   1.834   2.339   2.045 -0.1615 -0.2667  0.0655
 5935TIP3    H139368   1.822   2.431   2.020 -1.8006 -0.0331  1.5036
 5935TIP3    H239369   1.916   2.338   2.094  0.1234  0.3242 -0.3800
 5936TIP3   OH239370   0.839   4.567   1.350  0.4596 -0.1394 -0.3840
 5936TIP3    H139371   0.866   4.651   1.313 -0.5347  0.8165  0.9601
 5936TIP3    H239372   0.852   4.578   1.445 -5.2662  0.8345  0.6573
 5937TIP3   OH239373   5.144   5.781   1.716  0.2878 -0.5169  1.1046
 5937TIP3    H139374   5.235   5.753   1.702  0.4136  0.5808 -0.5203
 5937TIP3    H239375   5.114   5.810   1.630 -1.9975 -1.8706  1.3533
 5938TIP3   OH239376   4.964   5.943   1.204  0.2819 -0.0202 -0.1940
 5938TIP3    H139377   4.878   5.930   1.245  0.4350  1.4735  0.7023
 5938TIP3    H239378   4.987   5.858   1.168 -0.0663 -1.3430  2.4704
 5939TIP3   OH239379   5.892   4.775   0.665  0.0971  0.2346  0.0519
 5939TIP3    H139380   5.944   4.707   0.621  1.3143  0.9827  0.2957
 5939TIP3    H239381   5.953   4.846   0.680 -0.7881  0.7823  1.1999
 5940TIP3   OH239382   3.825   3.135   1.399  0.4901  0.2842 -0.0886
 5940TIP3    H139383   3.846   3.180   1.317  1.2158 -0.8557 -0.5489
 5940TIP3    H239384   3.908   3.131   1.446  0.7969 -1.8261 -0.7052
 5941TIP3   OH239385   4.959   3.591   0.514  0.8003  0.2233  0.1831
 5941TIP3    H139386   4.944   3.641   0.594  0.1704  0.2897  0.0237
 5941TIP3    H239387   5.054   3.591   0.504  0.9436 -0.4703  1.3660
 5942TIP3   OH239388   0.679   5.705   7.839  0.3999  0.1880 -0.1969
 5942TIP3    H139389   0.657   5.758   7.916 -0.7247 -1.1121  0.4132
 5942TIP3    H239390   0.727   5.630   7.874 -0.1063 -0.4089 -0.7595
 5943TIP3   OH239391   2.500   0.236   8.381  0.1786  0.0169 -0.0628
 5943TIP3    H139392   2.572   0.290   8.416  0.7514 -0.5436 -0.3519
 5943TIP3    H239393   2.423   0.291   8.390  0.7454  0.8930 -0.3543
 5944TIP3   OH239394   4.665   2.826   2.153  0.4748 -0.1727 -0.0681
 5944TIP3    H139395   4.708   2.845   2.236  0.5746 -1.1696  0.1264
 5944TIP3    H239396   4.572   2.839   2.170  0.5916  0.7866 -0.1403
 5945TIP3   OH239397   4.825   1.194   7.946 -0.1607  0.1587 -0.3811
 5945TIP3    H139398   4.832   1.098   7.950 -0.3260  0.1762  0.5208
 5945TIP3    H239399   4.794   1.219   8.033  1.4898  1.1654 -0.0292
 5946TIP3   OH239400   6.440   4.382   2.415 -0.1520 -0.2707  0.1117
 5946TIP3    H139401   6.526   4.416   2.392 -0.3374  0.5108  0.5329
 5946TIP3    H239402   6.454   4.338   2.499 -0.2175  0.1421  0.3450
 5947TIP3   OH239403   0.767   1.445   0.704 -0.0636 -0.5274  0.1547
 5947TIP3    H139404   0.812   1.416   0.625  0.3228 -0.2766  0.2823
 5947TIP3    H239405   0.752   1.365   0.754 -3.1395 -1.1964 -1.5787
 5948TIP3   OH239406   3.418   1.092   8.803  0.0996  0.7081 -0.5040
 5948TIP3    H139407   3.462   1.026   8.750  0.8624  1.6082 -1.0198
 5948TIP3    H239408   3.392   1.046   8.882 -0.4323 -0.4883 -1.3501
 5949TIP3   OH239409   4.423   1.769   7.897  0.0872  0.3820  0.4498
 5949TIP3    H139410   4.497   1.726   7.853 -1.8328 -1.3612 -1.2960
 5949TIP3    H239411   4.421   1.857   7.862 -1.4333 -0.9639 -3.3158
 5950TIP3   OH239412   6.590   5.388   6.580 -0.0450 -0.1323 -0.0455
 5950TIP3    H139413   6.603   5.296   6.604 -1.4032 -0.5281 -0.7449
 5950TIP3    H239414   6.666   5.410   6.526  1.6761 -0.0167  2.2348
 5951TIP3   OH239415   1.771   3.422   1.066  0.1881  0.0687  0.5827
 5951TIP3    H139416   1.789   3.420   1.160 -1.2053  0.0186  0.8811
 5951TIP3    H239417   1.741   3.512   1.050  1.9069  0.5408 -0.1404
 5952TIP3   OH239418   4.176   1.688   7.281  0.4214  0.2762  1.3837
 5952TIP3    H139419   4.159   1.597   7.305  2.0525 -0.8378 -1.2691
 5952TIP3    H239420   4.090   1.722   7.255 -0.1714 -0.5412  2.1873
 5953TIP3   OH239421   0.956   1.720   0.154  0.3861 -0.1703 -0.0325
 5953TIP3    H139422   0.887   1.703   0.089  0.3563  0.7555 -0.2503
 5953TIP3    H239423   0.998   1.634   0.167  0.3799 -0.3832 -1.2686
 5954TIP3   OH239424   2.950   1.063   0.025 -0.2604 -0.3156  0.2898
 5954TIP3    H139425   3.019   1.124   0.051 -1.5298  1.3016  0.0524
 5954TIP3    H239426   2.967   1.047  -0.068  0.5485 -0.9863  0.5423
 5955TIP3   OH239427   3.617   6.075   0.833  0.1218 -0.2182  1.1188
 5955TIP3    H139428   3.672   6.001   0.807  0.1309 -0.2309  1.1762
 5955TIP3    H239429   3.624   6.137   0.760 -2.4691 -1.6435 -0.4995
 5956TIP3   OH239430   2.465   3.708   2.324 -0.2763  0.3399 -0.6686
 5956TIP3    H139431   2.407   3.774   2.361  0.8143  1.4780 -0.9504
 5956TIP3    H239432   2.512   3.672   2.400  1.0748  1.8128 -0.7674
 5957TIP3   OH239433   2.343   4.866   0.026  0.5147  0.4620  0.1233
 5957TIP3    H139434   2.342   4.953   0.067 -0.9916  0.3368  0.4394
 5957TIP3    H239435   2.337   4.884  -0.068 -1.8075  0.7477  0.2572
 5958TIP3   OH239436   6.596   5.014   1.041 -0.0338  0.1775 -0.3087
 5958TIP3    H139437   6.661   4.980   1.103  1.0687  1.0958 -0.9055
 5958TIP3    H239438   6.640   5.007   0.956 -1.5855 -1.2480 -1.0577
 5959TIP3   OH239439   1.330   3.627   6.520  0.1203 -0.5059  0.4054
 5959TIP3    H139440   1.352   3.719   6.504  0.1908 -0.4700  0.7102
 5959TIP3    H239441   1.414   3.582   6.522  0.0251 -0.8172 -1.1750
 5960TIP3   OH239442   2.669   1.567   1.668  0.3680  0.2961 -0.2480
 5960TIP3    H139443   2.711   1.555   1.753  1.3326  0.6697 -0.6569
 5960TIP3    H239444   2.587   1.518   1.675  0.0449  0.9896  1.1649
 5961TIP3   OH239445   5.266   2.620   1.614  0.3939  0.6961 -0.2399
 5961TIP3    H139446   5.275   2.689   1.549  1.0929 -0.4032 -1.3534
 5961TIP3    H239447   5.177   2.588   1.604  0.6687  0.1598 -1.0656
 5962TIP3   OH239448   1.469   6.608   8.312 -0.6781  0.0568  0.0956
 5962TIP3    H139449   1.438   6.562   8.233  1.9257  1.1890 -1.7443
 5962TIP3    H239450   1.542   6.554   8.343  2.1244  2.3943 -1.8240
 5963TIP3   OH239451   3.094   1.162   0.911  0.4737  0.2305 -0.2994
 5963TIP3    H139452   3.167   1.141   0.969  1.1226 -1.4891 -1.6448
 5963TIP3    H239453   3.019   1.169   0.969  1.5485  1.2325  1.0283
 5964TIP3   OH239454   3.888   5.439   1.070  0.4694  0.8431  0.2336
 5964TIP3    H139455   3.921   5.489   1.144 -0.2132  0.8811  0.5184
 5964TIP3    H239456   3.891   5.348   1.099 -1.4575  0.9712  1.0098
 5965TIP3   OH239457   1.853   4.350   1.644  0.7212 -0.8869  0.0468
 5965TIP3    H139458   1.798   4.330   1.720 -0.6436  1.7185 -0.1289
 5965TIP3    H239459   1.876   4.265   1.608 -1.9783 -2.1670  1.0429
 5966TIP3   OH239460   2.339   1.566   0.472  0.3255  0.3689  0.0580
 5966TIP3    H139461   2.423   1.557   0.516 -0.0816  0.7194  0.9285
 5966TIP3    H239462   2.303   1.478   0.469  0.3008  0.3623  0.5474
 5967TIP3   OH239463   5.095   5.885   7.907  0.0106  0.2963 -0.0135
 5967TIP3    H139464   5.110   5.953   7.973 -0.5594 -0.0367  0.4674
 5967TIP3    H239465   5.063   5.932   7.830 -0.2870  0.5837  0.2842
 5968TIP3   OH239466   3.606   6.130   8.672  0.3477  0.2846  0.3363
 5968TIP3    H139467   3.535   6.192   8.657  0.7718  1.2742  2.1106
 5968TIP3    H239468   3.614   6.126   8.767  0.6994 -2.1185  0.2679
 5969TIP3   OH239469   2.830   6.730   8.557 -0.4677  0.3632 -0.6936
 5969TIP3    H139470   2.762   6.752   8.494 -1.1948  1.5323  0.4521
 5969TIP3    H239471   2.785   6.727   8.641  0.5384 -0.8339 -0.1624
 5970TIP3   OH239472   5.146   4.735   1.460 -0.3140 -0.6048  0.4371
 5970TIP3    H139473   5.212   4.799   1.487 -1.1833  0.8010 -0.5954
 5970TIP3    H239474   5.196   4.658   1.435  1.0072  0.6029 -0.8221
 5971TIP3   OH239475   2.757   4.211   7.069  0.0341 -0.2998  0.3336
 5971TIP3    H139476   2.670   4.179   7.047  0.3326 -1.5850  0.8981
 5971TIP3    H239477   2.815   4.138   7.049  0.9056  0.3046  0.5842
 5972TIP3   OH239478   0.978   3.856   0.271 -0.4698  0.1181 -0.9233
 5972TIP3    H139479   1.026   3.805   0.206  0.6872 -0.9834  0.7280
 5972TIP3    H239480   1.042   3.920   0.304 -1.0786  0.7559 -0.9469
 5973TIP3   OH239481   5.221   5.416   0.261 -0.0973 -0.2099  0.3087
 5973TIP3    H139482   5.315   5.431   0.274 -0.4972  1.3530  1.7563
 5973TIP3    H239483   5.191   5.495   0.215 -0.9429  0.0426  1.2510
 5974TIP3   OH239484   6.007   2.571   1.320  0.4028 -0.2814 -0.0756
 5974TIP3    H139485   5.968   2.516   1.387 -0.0100 -0.5621 -0.5365
 5974TIP3    H239486   5.996   2.660   1.352  0.7240 -0.4422  0.4923
 5975TIP3   OH239487   1.771   0.247   7.628  0.1295  0.3355  0.5196
 5975TIP3    H139488   1.720   0.182   7.579 -0.8198  1.1502  0.3889
 5975TIP3    H239489   1.809   0.304   7.560 -0.1156  0.6878  0.6747
 5976TIP3   OH239490   1.971   2.601   8.522  0.2383 -0.3019  0.6292
 5976TIP3    H139491   2.046   2.660   8.529  1.1164 -1.3841  0.5769
 5976TIP3    H239492   2.009   2.513   8.528 -1.0691 -0.8660  0.9666
 5977TIP3   OH239493   0.247   3.591   7.796  0.1820 -0.0567  0.2616
 5977TIP3    H139494   0.208   3.512   7.832 -1.7495  1.6674  2.2410
 5977TIP3    H239495   0.174   3.652   7.786  1.6720  1.6920 -0.6084
 5978TIP3   OH239496   4.886   1.751   0.672 -0.2649 -0.3506 -0.2475
 5978TIP3    H139497   4.816   1.686   0.666 -0.5068 -0.0473 -0.9045
 5978TIP3    H239498   4.861   1.818   0.608  1.0866 -0.6705 -1.1526
 5979TIP3   OH239499   2.554   5.652   7.578  0.0395 -0.6509 -0.4270
 5979TIP3    H139500   2.482   5.616   7.526 -0.0631  1.1823 -1.6477
 5979TIP3    H239501   2.520   5.734   7.612  1.0588 -0.5016  0.2517
 5980TIP3   OH239502   0.036   2.124   0.937 -0.5482  0.5170 -0.6750
 5980TIP3    H139503   0.122   2.159   0.960 -1.3517  1.0128  1.9717
 5980TIP3    H239504   0.049   2.078   0.855  2.3916  0.0321 -0.0297
 5981TIP3   OH239505   3.367   1.244   0.996  0.1722 -0.1688  0.4841
 5981TIP3    H139506   3.407   1.244   0.909 -1.5955 -2.8122 -0.4393
 5981TIP3    H239507   3.441   1.238   1.057  1.3892  0.8303 -0.8341
 5982TIP3   OH239508   5.586   3.221   0.304 -0.9393  0.0837 -0.0005
 5982TIP3    H139509   5.569   3.312   0.281 -0.6643  0.2704  0.5146
 5982TIP3    H239510   5.524   3.171   0.252 -2.0445  0.6534  0.7295
 5983TIP3   OH239511   0.915   5.150   7.970 -1.0695 -0.3365  0.4779
 5983TIP3    H139512   0.991   5.196   7.934 -0.0399 -0.6672  2.1305
 5983TIP3    H239513   0.858   5.220   8.002 -0.6366 -0.1387  0.8192
 5984TIP3   OH239514   0.842   1.210   7.379  0.2504 -0.1455 -0.6221
 5984TIP3    H139515   0.927   1.192   7.421 -0.6179 -1.2244  0.7526
 5984TIP3    H239516   0.827   1.135   7.323  0.6216  0.5051 -1.6234
 5985TIP3   OH239517   1.349   3.915   6.529  0.0592 -0.6186 -0.9829
 5985TIP3    H139518   1.397   3.994   6.553  0.0445 -0.3826 -1.7154
 5985TIP3    H239519   1.257   3.941   6.531  0.0020 -0.8439 -0.4149
 5986TIP3   OH239520   6.055   4.727   7.819 -0.1116  0.2021  0.1089
 5986TIP3    H139521   5.964   4.754   7.811  0.3087  1.1048 -2.5040
 5986TIP3    H239522   6.051   4.631   7.826 -1.2124 -0.0551 -2.9197
 5987TIP3   OH239523   6.134   4.030   0.503  0.1096  0.3080 -0.0977
 5987TIP3    H139524   6.057   4.038   0.446  0.2260 -0.8922 -0.4640
 5987TIP3    H239525   6.116   3.952   0.556  0.9189  0.2142  0.0485
 5988TIP3   OH239526   3.180   2.264   6.602  0.2799 -0.5764 -0.3252
 5988TIP3    H139527   3.235   2.214   6.663  0.2116 -1.0071 -0.6074
 5988TIP3    H239528   3.192   2.219   6.518  0.4796  0.0878 -0.6576
 5989TIP3   OH239529   4.771   1.626   0.989 -0.0703  0.2961  0.1247
 5989TIP3    H139530   4.780   1.547   0.936 -0.6900  0.1209  0.2816
 5989TIP3    H239531   4.838   1.685   0.954  0.4731 -0.3355  0.0862
 5990TIP3   OH239532   1.858   2.124   8.009  0.6854 -0.4562 -0.3123
 5990TIP3    H139533   1.904   2.206   8.027 -1.7000  1.0225 -0.4627
 5990TIP3    H239534   1.783   2.125   8.068 -0.1647 -1.8732 -1.2892
 5991TIP3   OH239535   4.240   4.228   7.399 -0.3455 -0.2963  0.1244
 5991TIP3    H139536   4.250   4.154   7.339  0.1858 -0.2913  0.2081
 5991TIP3    H239537   4.244   4.188   7.486 -0.8343 -0.2666  0.1650
 5992TIP3   OH239538   3.882   5.149   0.745 -0.4311 -0.1890 -0.0560
 5992TIP3    H139539   3.827   5.076   0.775 -0.7229 -0.9240 -2.1698
 5992TIP3    H239540   3.969   5.110   0.733 -0.6522 -0.3302 -1.4712
 5993TIP3   OH239541   0.845   4.718   7.985  0.0556  0.2941 -0.6521
 5993TIP3    H139542   0.771   4.735   7.926 -0.8736 -1.8107 -0.2086
 5993TIP3    H239543   0.805   4.709   8.071  1.1581  1.3817 -0.0066
 5994TIP3   OH239544   4.646   3.933   0.212 -0.0930 -0.0531 -0.1811
 5994TIP3    H139545   4.660   3.894   0.298 -1.8339  0.8625  0.5761
 5994TIP3    H239546   4.597   3.867   0.164  0.9371 -0.5919 -0.5121
 5995TIP3   OH239547   6.196   1.417   0.120  0.0596  0.0629 -0.2492
 5995TIP3    H139548   6.165   1.462   0.199  0.8475  0.1582  0.0073
 5995TIP3    H239549   6.181   1.324   0.138 -3.4715  0.2164 -1.5672
 5996TIP3   OH239550   2.106   6.594   8.024 -0.2154  0.6606 -0.3008
 5996TIP3    H139551   2.165   6.604   8.098 -0.1215  1.3435 -0.4656
 5996TIP3    H239552   2.128   6.508   7.988 -2.3885 -1.1457  2.2970
 5997TIP3   OH239553   2.402   2.669   0.477 -0.2197 -0.1804 -0.1400
 5997TIP3    H139554   2.379   2.585   0.515 -0.1858  0.2567  0.8768
 5997TIP3    H239555   2.354   2.733   0.530 -0.1203  0.4483 -0.7957
 5998TIP3   OH239556   2.236   0.104   1.251  0.1196 -0.3519  0.0347
 5998TIP3    H139557   2.153   0.058   1.262  0.5146 -0.4636  3.5026
 5998TIP3    H239558   2.293   0.041   1.207 -1.0235 -1.0065 -0.5447
 5999TIP3   OH239559   0.134   0.833   0.767 -0.0251  0.0947 -0.1651
 5999TIP3    H139560   0.188   0.912   0.767 -2.4377  1.8654 -0.5311
 5999TIP3    H239561   0.166   0.782   0.693  1.7195  0.5733  0.1997
 6000TIP3   OH239562   6.609   2.933   1.224 -0.1500 -0.2353  0.1033
 6000TIP3    H139563   6.636   3.004   1.282 -1.6715  0.2732  0.2273
 6000TIP3    H239564   6.576   2.865   1.282 -0.9888 -0.0288 -0.1221
 6001TIP3   OH239565   2.753   4.229   7.388  0.4374 -0.5420  0.1530
 6001TIP3    H139566   2.685   4.297   7.385  0.9578  0.1407  2.3284
 6001TIP3    H239567   2.706   4.148   7.365 -0.6830  0.1830 -0.2413
 6002TIP3   OH239568   2.682   1.311   0.718 -0.4573 -0.1914 -0.0990
 6002TIP3    H139569   2.607   1.270   0.761 -0.9456 -1.0885 -1.7299
 6002TIP3    H239570   2.739   1.238   0.694  0.3846  0.3925  0.0932
 6003TIP3   OH239571   6.662   0.892   0.464  0.1527  0.2706 -0.6131
 6003TIP3    H139572   6.723   0.824   0.435 -1.3035 -0.6995 -1.5614
 6003TIP3    H239573   6.633   0.863   0.551  0.3131  0.2425 -0.5683
 6004TIP3   OH239574   3.967   1.992   0.248  0.5288 -0.2828 -0.3361
 6004TIP3    H139575   3.937   1.939   0.321 -0.6479  0.1248 -0.4988
 6004TIP3    H239576   4.038   2.045   0.284  0.1461 -0.2864  0.4400
 6005TIP3   OH239577   0.545   4.385   6.825  0.2034 -0.2394 -0.1097
 6005TIP3    H139578   0.557   4.324   6.753 -0.3569  1.5057 -1.7658
 6005TIP3    H239579   0.507   4.463   6.784 -1.0996  0.4566  2.2326
 6006TIP3   OH239580   4.725   1.885   8.456 -0.1625  0.2960 -0.2639
 6006TIP3    H139581   4.661   1.891   8.527 -0.8157 -1.3174 -0.6612
 6006TIP3    H239582   4.793   1.948   8.479  0.2100 -0.9616  2.3933
 6007TIP3   OH239583   1.713   5.701   1.712  0.9071  0.1542 -0.6161
 6007TIP3    H139584   1.704   5.774   1.774  0.7046 -0.0257 -0.4320
 6007TIP3    H239585   1.781   5.729   1.651  0.7711  0.5346 -0.5947
 6008TIP3   OH239586   2.724   3.907   7.793  0.3923  0.0078 -0.1240
 6008TIP3    H139587   2.780   3.929   7.718 -0.5606  1.6090 -0.4153
 6008TIP3    H239588   2.709   3.991   7.837 -1.4265 -0.4319  0.1859
 6009TIP3   OH239589   6.118   6.451   1.662 -0.6679  0.3012 -0.1193
 6009TIP3    H139590   6.206   6.484   1.679 -0.9282  2.2569 -2.1211
 6009TIP3    H239591   6.117   6.364   1.702  2.9010 -0.7370 -1.8338
 6010TIP3   OH239592   4.589   3.408   1.067 -0.3106 -0.1687 -0.0860
 6010TIP3    H139593   4.583   3.318   1.035  1.0470 -0.0806 -0.6461
 6010TIP3    H239594   4.509   3.450   1.035 -1.3118 -1.3120  0.7572
 6011TIP3   OH239595   4.659   6.492   0.789  0.0920  0.5346 -0.3930
 6011TIP3    H139596   4.719   6.560   0.759  1.1595 -0.4703 -0.5838
 6011TIP3    H239597   4.668   6.493   0.884 -1.3009  1.8947 -0.2213
 6012TIP3   OH239598   4.154   0.627   1.888 -0.3577 -0.2186  0.4257
 6012TIP3    H139599   4.068   0.664   1.908  0.3120  0.2637  2.7290
 6012TIP3    H239600   4.155   0.542   1.932  0.2394 -0.3576  0.1638
 6013TIP3   OH239601   4.921   5.402   8.172 -0.4097  0.0186  0.1250
 6013TIP3    H139602   4.894   5.338   8.237  0.5143  0.4751  0.9817
 6013TIP3    H239603   4.942   5.481   8.222  1.5670 -0.0245 -0.5390
 6014TIP3   OH239604   3.828   1.870   0.451  0.1475 -0.3470 -0.0239
 6014TIP3    H139605   3.851   1.864   0.544 -0.4919  0.6721  0.2199
 6014TIP3    H239606   3.824   1.779   0.421 -1.2286 -0.7844  1.3563
 6015TIP3   OH239607   5.721   3.915   2.044  0.0861  0.2573  0.0867
 6015TIP3    H139608   5.784   3.845   2.060 -1.8034 -1.4317  0.5770
 6015TIP3    H239609   5.679   3.929   2.129 -1.0394  0.4772 -0.4899
 6016TIP3   OH239610   3.229   1.521   0.154 -0.4877  0.2739 -0.3942
 6016TIP3    H139611   3.316   1.554   0.134  0.6723 -1.9324  0.6381
 6016TIP3    H239612   3.186   1.512   0.069  0.3709  1.1453 -0.9296
 6017TIP3   OH239613   6.601   4.898   7.443  0.4691 -0.2259 -0.3290
 6017TIP3    H139614   6.525   4.920   7.390  0.2658  0.9370  0.4002
 6017TIP3    H239615   6.604   4.967   7.510  1.1827 -1.1984  0.6731
 6018TIP3   OH239616   6.076   2.355   6.464 -0.0715  0.7888 -0.1490
 6018TIP3    H139617   6.145   2.291   6.445 -1.4994 -1.0307  0.4874
 6018TIP3    H239618   6.098   2.430   6.409  0.6506 -0.9632 -2.4621
 6019TIP3   OH239619   2.544   2.168   8.000  0.3765 -0.4193 -0.1856
 6019TIP3    H139620   2.588   2.249   7.974 -2.2022  1.4903  1.0660
 6019TIP3    H239621   2.577   2.150   8.088 -0.8321  0.6811  0.5157
 6020TIP3   OH239622   3.186   6.292   1.343 -0.6994 -0.3241 -0.4256
 6020TIP3    H139623   3.261   6.346   1.368 -1.2240  0.0829  0.3052
 6020TIP3    H239624   3.116   6.354   1.324 -1.6801 -0.7272  1.6026
 6021TIP3   OH239625   4.929   4.851   0.466  0.0796  0.3274 -0.1877
 6021TIP3    H139626   5.023   4.832   0.472  0.1182  0.9184  1.8986
 6021TIP3    H239627   4.892   4.775   0.421  1.3483 -0.7312  0.4772
 6022TIP3   OH239628   5.237   1.534   7.443  0.1167 -0.0817  0.1639
 6022TIP3    H139629   5.190   1.570   7.518 -0.7255 -0.5092 -0.1478
 6022TIP3    H239630   5.329   1.535   7.470 -0.3402 -2.3870  2.1501
 6023TIP3   OH239631   2.294   2.072   8.100 -0.1507 -0.3325 -0.1693
 6023TIP3    H139632   2.237   2.066   8.022  0.1921  3.5984 -0.9162
 6023TIP3    H239633   2.359   2.003   8.087 -1.1670 -0.9735 -2.4637
 6024TIP3   OH239634   0.867   0.533   0.026  0.2139 -0.2993  0.6243
 6024TIP3    H139635   0.819   0.450   0.031  1.2487 -0.8651  1.9465
 6024TIP3    H239636   0.895   0.550   0.116 -1.3265  2.3478  0.6998
 6025TIP3   OH239637   0.337   4.383   7.841 -0.2788 -0.1632 -0.4983
 6025TIP3    H139638   0.368   4.293   7.832  0.1270  0.0676 -1.5933
 6025TIP3    H239639   0.244   4.374   7.859 -0.5221 -0.8067 -1.8811
 6026TIP3   OH239640   5.362   3.402   0.193  0.2222 -0.0827  0.0367
 6026TIP3    H139641   5.356   3.339   0.264 -0.9160  1.1987  1.1364
 6026TIP3    H239642   5.286   3.383   0.138  0.8303 -0.7576 -0.5816
 6027TIP3   OH239643   3.255   4.643   0.575  0.7838  0.2879 -0.0552
 6027TIP3    H139644   3.271   4.684   0.659 -0.0700 -0.2812  0.4039
 6027TIP3    H239645   3.337   4.600   0.552  0.8150 -0.1414  0.8259
 6028TIP3   OH239646   5.283   1.998   7.746  0.1294 -0.1838 -0.0052
 6028TIP3    H139647   5.340   1.942   7.798 -1.9192 -1.2503  1.2197
 6028TIP3    H239648   5.263   2.072   7.804  0.3361  0.2413 -0.4686
 6029TIP3   OH239649   3.173   5.112   1.510  0.5320  0.6883  0.1559
 6029TIP3    H139650   3.267   5.125   1.513  0.5430  1.3134 -1.6508
 6029TIP3    H239651   3.159   5.053   1.436 -0.3366 -1.8208  2.1303
 6030TIP3   OH239652   4.663   3.976   7.015  0.2909 -0.3952  0.1417
 6030TIP3    H139653   4.696   4.032   7.085  0.5032 -2.2245  1.5622
 6030TIP3    H239654   4.569   3.969   7.033 -0.1411  1.1225 -1.2581
 6031TIP3   OH239655   0.444   0.944   0.508  0.5014 -0.0443  0.1019
 6031TIP3    H139656   0.398   1.010   0.560  1.5280  2.9342 -2.4889
 6031TIP3    H239657   0.475   0.880   0.573 -1.1828  1.5672  2.6772
 6032TIP3   OH239658   2.269   3.487   6.676 -0.4748  0.0606  0.4435
 6032TIP3    H139659   2.346   3.541   6.697 -0.1030 -0.3400  0.1170
 6032TIP3    H239660   2.202   3.550   6.650 -0.6041  0.4993  1.7662
 6033TIP3   OH239661   1.375   4.153   0.488 -0.5272 -0.3428 -0.1262
 6033TIP3    H139662   1.424   4.073   0.467  1.2024  1.1830 -2.4464
 6033TIP3    H239663   1.412   4.183   0.571 -0.9877 -1.7632  0.6090
 6034TIP3   OH239664   1.272   6.477   7.433 -0.0596 -0.8892 -0.4330
 6034TIP3    H139665   1.183   6.511   7.440  0.5286  0.7235 -0.2986
 6034TIP3    H239666   1.299   6.500   7.345  0.5376 -0.5141 -0.1580
 6035TIP3   OH239667   6.409   5.404   7.049  0.4344 -0.0926 -0.2817
 6035TIP3    H139668   6.462   5.342   6.999 -0.5947 -1.4866  0.2775
 6035TIP3    H239669   6.471   5.447   7.108  1.0521 -1.3351  0.0156
 6036TIP3   OH239670   3.710   3.033   1.012  0.5838 -0.0779 -0.4503
 6036TIP3    H139671   3.735   2.974   1.083  0.3151  0.0639 -0.2363
 6036TIP3    H239672   3.792   3.055   0.968  0.6389 -1.0138 -0.8425
 6037TIP3   OH239673   6.376   1.004   0.969 -0.3509  0.5196  0.0190
 6037TIP3    H139674   6.467   0.975   0.965 -0.6873 -0.5572 -0.0534
 6037TIP3    H239675   6.332   0.939   1.024 -1.2857  0.4439 -0.7890
 6038TIP3   OH239676   2.422   2.046   0.639  0.3810 -0.7081 -0.4424
 6038TIP3    H139677   2.354   2.113   0.652  1.3032  0.5741 -1.8458
 6038TIP3    H239678   2.375   1.963   0.641 -0.9779  0.0458  0.2211
 6039TIP3   OH239679   3.314   3.767   6.331  0.0729 -0.6544 -0.9658
 6039TIP3    H139680   3.355   3.785   6.246 -0.4084 -1.7878 -1.4598
 6039TIP3    H239681   3.341   3.840   6.386  0.9571 -0.2441 -1.8986
 6040TIP3   OH239682   1.895   4.867   0.341 -0.1455  0.3046 -0.4964
 6040TIP3    H139683   1.811   4.821   0.351 -0.0393 -0.0045 -0.9978
 6040TIP3    H239684   1.879   4.928   0.269 -0.5001  1.5642  0.6173
 6041TIP3   OH239685   6.756   5.809   7.067  0.3071 -0.7963 -0.5095
 6041TIP3    H139686   6.832   5.763   7.101 -1.0583 -2.2229  0.8016
 6041TIP3    H239687   6.681   5.764   7.106 -1.1773  2.1341  0.3753
 6042TIP3   OH239688   4.639   2.853   1.027  0.3462  0.4853  0.0316
 6042TIP3    H139689   4.560   2.905   1.021 -0.4389 -0.3213  2.2563
 6042TIP3    H239690   4.692   2.881   0.952 -2.4299  0.2855 -2.1772
 6043TIP3   OH239691   1.116   5.187   0.544  0.2079 -0.2222 -0.1583
 6043TIP3    H139692   1.156   5.159   0.627  0.4989  0.3516 -0.1009
 6043TIP3    H239693   1.038   5.235   0.569  0.1621 -0.2623 -0.2242
 6044TIP3   OH239694   6.077   0.176   8.130  0.2079 -0.2189 -0.0346
 6044TIP3    H139695   6.146   0.143   8.188 -0.1797 -2.3779 -0.6770
 6044TIP3    H239696   5.995   0.152   8.175 -0.1473  1.4194  0.2441
 6045TIP3   OH239697   0.766   5.475   7.100  0.4376  0.4271  0.1793
 6045TIP3    H139698   0.843   5.488   7.156 -0.4151  0.7317  1.3353
 6045TIP3    H239699   0.758   5.557   7.051 -0.3156  1.2315  1.5782
 6046TIP3   OH239700   3.287   3.552   0.634 -0.0400  0.0969  0.3044
 6046TIP3    H139701   3.195   3.579   0.624  0.0399  0.2783  0.0550
 6046TIP3    H239702   3.299   3.542   0.729  0.3385  2.4066  0.5425
 6047TIP3   OH239703   4.835   1.305   0.942 -0.8200 -0.0869  0.1946
 6047TIP3    H139704   4.820   1.236   1.006 -0.6469 -0.7739 -0.4844
 6047TIP3    H239705   4.930   1.317   0.942 -0.6438 -1.2228 -1.0533
 6048TIP3   OH239706   3.924   5.221   7.519 -0.4175 -0.2835 -0.3673
 6048TIP3    H139707   3.885   5.292   7.467  0.6879 -0.1901 -1.0945
 6048TIP3    H239708   3.891   5.141   7.477  0.1031 -0.2043 -0.9392
 6049TIP3   OH239709   6.687   1.643   8.735  0.3234  0.0194 -0.3345
 6049TIP3    H139710   6.733   1.559   8.736 -0.4851 -0.4454 -0.8420
 6049TIP3    H239711   6.608   1.628   8.786 -0.8700 -0.1787 -2.1343
 6050TIP3   OH239712   3.334   0.461   7.001 -0.0860  0.2293  0.4000
 6050TIP3    H139713   3.303   0.526   6.938 -1.3540  0.5455  1.3150
 6050TIP3    H239714   3.368   0.390   6.948  0.3556  1.1715 -0.6246
 6051TIP3   OH239715   5.020   5.647   7.610 -0.1358  0.4842  0.2195
 6051TIP3    H139716   5.063   5.562   7.618 -0.3340  0.3785  0.1767
 6051TIP3    H239717   4.927   5.627   7.619 -0.2096  0.6457 -0.1623
 6052TIP3   OH239718   2.355   4.429   1.430  0.3395 -0.0108 -0.2948
 6052TIP3    H139719   2.397   4.505   1.470  0.9633  0.6125 -2.0421
 6052TIP3    H239720   2.346   4.453   1.337 -3.4972 -0.2870 -0.1267
 6053TIP3   OH239721   3.878   4.676   6.742 -0.4128 -0.3886 -0.6024
 6053TIP3    H139722   3.902   4.613   6.673  0.4154 -0.1272 -0.5598
 6053TIP3    H239723   3.783   4.684   6.734 -0.6802 -2.4092  0.0502
 6054TIP3   OH239724   3.263   1.152   7.163  0.0159 -0.2509  0.0630
 6054TIP3    H139725   3.236   1.061   7.174  1.7263 -0.5269  2.9850
 6054TIP3    H239726   3.325   1.149   7.090 -1.0446 -1.1132 -0.8529
 6055TIP3   OH239727   3.146   5.054   6.997 -0.3918 -0.0028 -0.1993
 6055TIP3    H139728   3.126   5.000   6.921  0.5869 -2.6906  1.3240
 6055TIP3    H239729   3.061   5.072   7.037 -0.8935  1.2749 -1.7535
 6056TIP3   OH239730   5.033   3.180   6.056  0.2760 -0.2909  0.2897
 6056TIP3    H139731   5.124   3.157   6.035 -0.1755 -1.1832 -0.7949
 6056TIP3    H239732   4.984   3.157   5.977 -0.9996 -0.4726  1.1104
 6057TIP3   OH239733   0.526   3.224   7.085  0.0699  0.0242  0.5392
 6057TIP3    H139734   0.523   3.154   7.020  0.6738  0.0336  0.4905
 6057TIP3    H239735   0.511   3.304   7.035 -2.5185 -0.1989  0.8688
 6058TIP3   OH239736   2.434   1.983   7.849 -0.2246  0.3718  0.2204
 6058TIP3    H139737   2.402   2.021   7.767  0.7772  0.0640 -0.3319
 6058TIP3    H239738   2.470   2.057   7.897  1.1636  0.2411 -0.5830
 6059TIP3   OH239739   2.272   5.058   6.901  0.5968 -0.2963 -0.1068
 6059TIP3    H139740   2.248   5.123   6.835 -1.0097  0.6487  1.3375
 6059TIP3    H239741   2.305   5.110   6.974  0.9429 -1.2389  0.4149
 6060TIP3   OH239742   1.088   3.246   1.872 -0.1582  0.5208  0.4347
 6060TIP3    H139743   1.083   3.271   1.780  1.2847  0.4042  0.2920
 6060TIP3    H239744   1.012   3.287   1.913 -1.1944  0.0104 -0.9235
 6061TIP3   OH239745   3.712   3.368   0.734  0.0970 -0.0793 -0.0608
 6061TIP3    H139746   3.730   3.275   0.730  2.0875  0.2947 -1.0897
 6061TIP3    H239747   3.781   3.404   0.791 -0.5974  0.7733  0.2685
 6062TIP3   OH239748   3.338   5.815   7.183 -0.0842 -0.1318 -0.4809
 6062TIP3    H139749   3.307   5.778   7.266  0.9287 -0.3745 -0.1988
 6062TIP3    H239750   3.319   5.747   7.119 -0.7686  0.0098 -0.4402
 6063TIP3   OH239751   2.277   3.003   0.190  0.5099  0.3906 -0.3002
 6063TIP3    H139752   2.329   3.077   0.158  0.6747 -0.0618 -1.0811
 6063TIP3    H239753   2.236   3.037   0.270  0.0561  1.5452 -0.9962
 6064TIP3   OH239754   1.971   3.069   0.810  0.2546 -0.4354 -0.0076
 6064TIP3    H139755   2.014   3.137   0.757 -1.1657  0.6090  0.1301
 6064TIP3    H239756   2.033   3.052   0.881  0.9750  0.1676 -0.4740
 6065TIP3   OH239757   6.088   3.272   7.645  0.5467  0.1090 -0.2561
 6065TIP3    H139758   6.137   3.324   7.582  0.2437 -0.1692 -0.7311
 6065TIP3    H239759   6.154   3.230   7.700  0.8761 -0.7548 -1.2781
 6066TIP3   OH239760   4.717   0.682   0.564  0.0478 -0.3435  0.0247
 6066TIP3    H139761   4.659   0.728   0.503 -2.3138  0.5647  2.7424
 6066TIP3    H239762   4.759   0.752   0.614 -0.1093 -1.0576  1.1904
 6067TIP3   OH239763   6.588   2.098   1.061 -0.0334 -0.2758  0.4807
 6067TIP3    H139764   6.669   2.148   1.068  0.0745 -0.5757  1.7887
 6067TIP3    H239765   6.594   2.052   0.978  0.3877  0.9753 -0.2046
 6068TIP3   OH239766   1.037   6.483   8.004  0.7418  0.0974 -0.4313
 6068TIP3    H139767   0.977   6.552   8.032 -2.5519 -1.7969 -2.1173
 6068TIP3    H239768   1.054   6.502   7.911  1.0135 -0.5372 -0.5209
 6069TIP3   OH239769   5.897   5.388   7.290 -0.2225 -0.5308  0.3201
 6069TIP3    H139770   5.850   5.464   7.324 -0.9036 -1.3721  1.3344
 6069TIP3    H239771   5.888   5.394   7.195 -0.2264  0.6729  0.3836
 6070TIP3   OH239772   2.614   4.923   8.609 -0.7094  0.5829 -0.1426
 6070TIP3    H139773   2.545   4.988   8.617 -0.8900  0.4541 -0.6308
 6070TIP3    H239774   2.693   4.968   8.640 -1.0048  0.7413  0.3742
 6071TIP3   OH239775   2.112   5.401   2.301  0.4593 -0.1753 -0.2436
 6071TIP3    H139776   2.024   5.368   2.319 -0.0421  0.5970 -1.2080
 6071TIP3    H239777   2.132   5.369   2.213  1.4966 -1.0496  0.2872
 6072TIP3   OH239778   1.275   1.673   0.974  0.0119  0.1501 -0.1113
 6072TIP3    H139779   1.319   1.620   0.909  0.1042 -0.2070  0.2390
 6072TIP3    H239780   1.183   1.645   0.970  0.3483 -1.2623  1.2441
 6073TIP3   OH239781   2.715   0.253   7.643 -0.8915 -0.7571 -0.1795
 6073TIP3    H139782   2.715   0.272   7.736  2.1118 -0.9313 -0.0594
 6073TIP3    H239783   2.714   0.158   7.637  1.2456 -0.8155 -0.1938
 6074TIP3   OH239784   1.987   3.312   2.704  0.0268  0.4559 -0.5416
 6074TIP3    H139785   1.990   3.374   2.777  0.7619 -0.1569 -0.0341
 6074TIP3    H239786   2.068   3.328   2.656 -0.6257  1.1041 -1.4449
 6075TIP3   OH239787   2.774   3.310   1.792  0.7075 -0.6528 -0.1624
 6075TIP3    H139788   2.726   3.387   1.823  0.6218 -0.4014 -0.9179
 6075TIP3    H239789   2.710   3.240   1.794  1.3028 -1.2690  2.6362
 6076TIP3   OH239790   2.419   0.324   7.774 -0.4406  0.3297 -0.1127
 6076TIP3    H139791   2.428   0.329   7.679 -0.7473 -0.1667 -0.1715
 6076TIP3    H239792   2.479   0.391   7.808 -0.1245  0.3195 -0.6456
 6077TIP3   OH239793   3.867   6.591   2.036  0.0583 -0.2211  0.2676
 6077TIP3    H139794   3.872   6.514   2.093 -3.2040 -1.7031 -1.2199
 6077TIP3    H239795   3.874   6.555   1.947  0.3665  1.4544 -0.4166
 6078TIP3   OH239796   1.392   3.016   8.285  0.1835 -0.1988 -0.0688
 6078TIP3    H139797   1.356   3.090   8.334  0.6266 -0.5161  0.7638
 6078TIP3    H239798   1.315   2.961   8.266 -0.0562  0.1546 -0.1228
 6079TIP3   OH239799   6.533   5.002   8.491 -0.2658  0.1352  0.5591
 6079TIP3    H139800   6.534   5.094   8.463  0.1964 -0.8054 -2.8760
 6079TIP3    H239801   6.441   4.977   8.488 -0.2394  0.0952  0.0599
 6080TIP3   OH239802   1.712   1.998   7.078 -0.0384 -0.3194 -0.0280
 6080TIP3    H139803   1.678   2.079   7.041 -0.7382 -0.6767 -0.1900
 6080TIP3    H239804   1.634   1.951   7.107  0.1620 -1.7783 -1.6682
 6081TIP3   OH239805   5.329   0.997   7.354  0.2846 -0.1062  0.3737
 6081TIP3    H139806   5.272   0.937   7.307 -2.6283  2.9672 -0.3966
 6081TIP3    H239807   5.344   0.954   7.438 -2.5085 -1.4889  0.3010
 6082TIP3   OH239808   1.230   6.770   8.066 -0.3061 -0.2363  0.4354
 6082TIP3    H139809   1.211   6.755   7.974  1.0426  0.2128  0.0618
 6082TIP3    H239810   1.311   6.721   8.082  1.3820  2.4189  0.4746
 6083TIP3   OH239811   4.215   1.073   0.196 -0.2404 -0.0796 -0.1631
 6083TIP3    H139812   4.126   1.097   0.221 -0.4072 -0.2949 -0.5584
 6083TIP3    H239813   4.225   1.104   0.106  0.2772  0.4583  0.0648
 6084TIP3   OH239814   3.376   5.286   7.421 -0.3077  0.0322  0.2930
 6084TIP3    H139815   3.457   5.324   7.390 -1.0810 -0.8640 -3.3222
 6084TIP3    H239816   3.391   5.191   7.420 -1.5677 -0.1954 -1.2267
 6085TIP3   OH239817   0.451   0.375   0.292  0.1178 -0.3441  0.8253
 6085TIP3    H139818   0.533   0.333   0.319  1.0359  0.2181 -0.9527
 6085TIP3    H239819   0.479   0.460   0.256 -1.3393  0.2142  0.9530
 6086TIP3   OH239820   0.972   0.433   7.962  0.0734 -0.1130 -0.1479
 6086TIP3    H139821   1.049   0.402   7.915 -0.7043 -0.6856 -1.0705
 6086TIP3    H239822   0.898   0.391   7.919 -0.6609 -0.9045  1.7814
 6087TIP3   OH239823   4.366   4.717   6.000  0.2300  0.3409 -1.2933
 6087TIP3    H139824   4.359   4.737   6.093  0.6709  0.3133 -1.2537
 6087TIP3    H239825   4.454   4.681   5.990  0.1534  0.2666 -1.7055
 6088TIP3   OH239826   1.881   2.903   1.657  0.0437  0.2690  0.2177
 6088TIP3    H139827   1.810   2.871   1.602  1.7431 -1.8129 -0.9020
 6088TIP3    H239828   1.837   2.955   1.725 -2.6942 -2.1251  0.4629
 6089TIP3   OH239829   2.833   5.175   7.427 -0.7189  0.1288 -0.6406
 6089TIP3    H139830   2.913   5.211   7.464 -0.7436 -0.4503  0.0004
 6089TIP3    H239831   2.833   5.204   7.336 -1.8083  3.5877  0.3160
 6090TIP3   OH239832   0.817   3.198   6.583 -0.1541  0.0974 -0.0974
 6090TIP3    H139833   0.778   3.270   6.534  0.6492  0.0515 -0.8305
 6090TIP3    H239834   0.755   3.180   6.654 -1.3503  0.1458 -1.1008
 6091TIP3   OH239835   2.382   6.273   1.119 -0.0186  0.3432 -0.3760
 6091TIP3    H139836   2.368   6.212   1.191  0.9518 -0.0916 -0.5356
 6091TIP3    H239837   2.378   6.360   1.159 -0.2715  0.1342  0.0539
 6092TIP3   OH239838   5.997   5.202   6.840  0.3082 -0.2847  0.5966
 6092TIP3    H139839   6.011   5.239   6.753  0.2222 -0.3883  0.5382
 6092TIP3    H239840   6.084   5.203   6.881  0.3858 -0.4254  0.4352
 6093TIP3   OH239841   6.620   2.177   7.753  0.0608  0.3966 -0.1397
 6093TIP3    H139842   6.610   2.122   7.675  2.1852 -0.3802  0.0693
 6093TIP3    H239843   6.634   2.265   7.718 -0.5326  0.3310 -0.5666
 6094TIP3   OH239844   1.201   3.351   1.461  0.3314  0.2477  0.1337
 6094TIP3    H139845   1.286   3.340   1.504 -0.1468  0.3447  1.1389
 6094TIP3    H239846   1.174   3.441   1.482 -0.3522 -0.0219  0.4752
 6095TIP3   OH239847   4.187   5.643   0.393 -0.2964 -0.4297 -0.0579
 6095TIP3    H139848   4.096   5.668   0.411 -0.2953  0.8829 -1.6627
 6095TIP3    H239849   4.228   5.640   0.480 -1.6934 -0.3761  0.6404
 6096TIP3   OH239850   6.364   6.645   1.217 -0.1852 -0.1651  0.0298
 6096TIP3    H139851   6.335   6.631   1.126  0.6717 -0.8390 -0.1643
 6096TIP3    H239852   6.287   6.678   1.262 -0.5832  0.3462 -0.9867
 6097TIP3   OH239853   5.882   4.732   0.927 -0.2267 -0.5669 -0.5059
 6097TIP3    H139854   5.976   4.723   0.941  0.0245  1.4715 -0.6623
 6097TIP3    H239855   5.870   4.719   0.833  0.4396  2.5520 -1.1320
 6098TIP3   OH239856   2.962   3.516   0.152 -0.6211 -0.6127  0.0525
 6098TIP3    H139857   2.930   3.451   0.089 -1.1075 -0.9628  0.6505
 6098TIP3    H239858   3.032   3.470   0.200 -0.7507 -0.5918  0.2631
 6099TIP3   OH239859   0.287   0.206   1.097 -0.6818  0.0688  0.0344
 6099TIP3    H139860   0.217   0.203   1.031 -2.5477 -2.6693  1.9229
 6099TIP3    H239861   0.319   0.116   1.103  2.3611  1.0431  0.0274
 6100TIP3   OH239862   6.594   0.511   1.536 -0.6443  0.0616 -0.1649
 6100TIP3    H139863   6.545   0.435   1.567  0.3949 -0.7498 -0.4595
 6100TIP3    H239864   6.529   0.581   1.532 -1.0152  0.0325  3.0116
 6101TIP3   OH239865   5.376   1.451   0.896 -0.4736 -0.7733 -0.0166
 6101TIP3    H139866   5.398   1.380   0.955  0.2571 -0.2576  0.3441
 6101TIP3    H239867   5.460   1.482   0.862 -0.8137 -0.4092 -0.5521
 6102TIP3   OH239868   3.594   4.066   0.916 -0.1889 -0.2662 -0.0652
 6102TIP3    H139869   3.605   3.973   0.898 -0.3700 -0.4705  0.8249
 6102TIP3    H239870   3.499   4.079   0.923 -0.3785  0.5556 -2.9501
 6103TIP3   OH239871   3.556   6.431   1.131  0.1736 -0.7294 -0.2629
 6103TIP3    H139872   3.489   6.429   1.199  0.2963 -1.2808 -0.1555
 6103TIP3    H239873   3.522   6.376   1.061  0.4741 -0.9389 -0.2461
 6104TIP3   OH239874   0.046   0.437   1.382  0.7092 -0.3187  0.1382
 6104TIP3    H139875   0.001   0.431   1.466 -0.0026 -1.6142 -0.3106
 6104TIP3    H239876   0.036   0.351   1.343  1.2148  0.1976 -1.1940
 6105TIP3   OH239877   5.823   4.352   6.978  0.4133  0.7764  0.0517
 6105TIP3    H139878   5.869   4.413   6.920  0.0588  0.6704 -0.3449
 6105TIP3    H239879   5.893   4.310   7.028  0.6341  1.9460  0.7736
 6106TIP3   OH239880   4.411   3.326   7.469  0.3598 -0.0367  0.0717
 6106TIP3    H139881   4.346   3.291   7.408  1.5744 -1.6762 -0.3606
 6106TIP3    H239882   4.491   3.334   7.417  1.2487 -0.8303  1.2609
 6107TIP3   OH239883   2.254   5.837   0.038  0.3754  0.3168  0.4720
 6107TIP3    H139884   2.299   5.878   0.112 -0.2263 -0.2162  1.1466
 6107TIP3    H239885   2.178   5.794   0.077  0.1582 -0.1445 -0.4316
 6108TIP3   OH239886   0.717   0.563   8.622  0.2132 -0.4152  0.3222
 6108TIP3    H139887   0.803   0.556   8.664 -0.2145 -1.8728  0.9899
 6108TIP3    H239888   0.670   0.629   8.674  1.2842  1.3077 -0.7604
 6109TIP3   OH239889   0.593   4.179   8.366  0.3170  0.3238  0.1680
 6109TIP3    H139890   0.575   4.132   8.447 -1.1164 -0.6585 -0.6940
 6109TIP3    H239891   0.511   4.178   8.317  0.9786  1.4032 -1.0664
 6110TIP3   OH239892   2.756   6.082   2.249  0.5846  0.3363 -0.0716
 6110TIP3    H139893   2.808   6.157   2.219 -1.1335  0.9404 -1.6795
 6110TIP3    H239894   2.818   6.009   2.249  2.0259  1.4888  0.4818
 6111TIP3   OH239895   3.954   0.665   0.791  0.4398  0.4574 -0.1630
 6111TIP3    H139896   3.891   0.596   0.771  0.7039  1.1142 -3.8355
 6111TIP3    H239897   3.923   0.741   0.742  1.3389  2.4072  2.0651
 6112TIP3   OH239898   4.008   5.211   2.148  0.1092 -0.2449  0.6130
 6112TIP3    H139899   4.102   5.214   2.167 -0.0209  1.2900  1.2253
 6112TIP3    H239900   3.970   5.276   2.208 -1.4136 -1.1842  0.7173
 6113TIP3   OH239901   3.635   5.970   7.420 -0.0755 -0.4645 -0.2520
 6113TIP3    H139902   3.619   5.983   7.326 -1.9748 -0.1914  0.0748
 6113TIP3    H239903   3.599   5.884   7.439  0.0490 -0.4013  0.2893
 6114TIP3   OH239904   0.973   1.550   8.527  0.4930 -0.2293  0.1732
 6114TIP3    H139905   0.939   1.628   8.483  1.0152 -0.2200 -0.2251
 6114TIP3    H239906   1.060   1.536   8.488  0.1946 -1.3064 -0.1350
 6115TIP3   OH239907   6.757   0.343   1.057  0.0537 -0.2251  0.3136
 6115TIP3    H139908   6.831   0.388   1.018 -1.7662  2.6710 -0.0602
 6115TIP3    H239909   6.720   0.291   0.985  0.6383 -0.2770  0.0439
 6116TIP3   OH239910   6.590   0.741   0.675 -0.2468 -0.1243 -0.2040
 6116TIP3    H139911   6.503   0.739   0.715 -0.1729 -3.6084  0.0937
 6116TIP3    H239912   6.650   0.727   0.748  0.4152 -0.0042 -0.7159
 6117TIP3   OH239913   6.138   5.696   1.933 -0.4565  0.1895 -0.3666
 6117TIP3    H139914   6.094   5.613   1.951  0.8398 -0.3338  0.5685
 6117TIP3    H239915   6.200   5.676   1.863 -0.0661  0.3261 -0.0662
 6118TIP3   OH239916   3.207   0.375   0.926 -0.3318 -0.1861 -0.1555
 6118TIP3    H139917   3.152   0.450   0.904  0.1260 -0.1568 -1.2797
 6118TIP3    H239918   3.287   0.413   0.963  0.0554 -0.0807 -1.0702
 6119TIP3   OH239919   2.686   0.824   1.582  0.0650 -0.2498  0.0091
 6119TIP3    H139920   2.591   0.816   1.570  0.1744  1.1948 -2.4165
 6119TIP3    H239921   2.722   0.739   1.556 -0.4088  0.0252 -1.6276
 6120TIP3   OH239922   2.113   2.850   8.239 -0.2411 -0.1863  0.0657
 6120TIP3    H139923   2.089   2.787   8.171 -0.1628 -0.0976 -0.0438
 6120TIP3    H239924   2.115   2.934   8.194  0.9583 -0.2810 -0.0776
 6121TIP3   OH239925   6.348   6.206   7.452  0.6402  0.4799 -0.2375
 6121TIP3    H139926   6.408   6.277   7.428  0.7114  0.2537 -0.7253
 6121TIP3    H239927   6.399   6.152   7.512  0.3861  1.1693  0.6269
 6122TIP3   OH239928   6.613   0.949   1.043  0.6994 -0.8511  0.0837
 6122TIP3    H139929   6.645   1.025   0.993  0.9846 -0.8873  0.2085
 6122TIP3    H239930   6.655   0.874   1.001 -1.1646 -1.1674 -1.3679
 6123TIP3   OH239931   0.117   3.978   6.345  0.5146 -0.3461 -0.1340
 6123TIP3    H139932   0.169   3.898   6.344 -0.3821 -0.9534  0.1360
 6123TIP3    H239933   0.034   3.951   6.384  0.3927  0.8427  0.4438
 6124TIP3   OH239934   4.348   6.029   1.687  0.6036  0.7187 -0.0547
 6124TIP3    H139935   4.363   6.072   1.603  1.2007 -0.6754 -0.7028
 6124TIP3    H239936   4.261   6.057   1.714  0.0643  0.5416 -1.5515
 6125TIP3   OH239937   1.586   1.042   6.879  0.2032  0.4026 -0.0013
 6125TIP3    H139938   1.630   0.992   6.810 -1.4648 -0.3402 -0.5667
 6125TIP3    H239939   1.551   1.119   6.835 -4.0339 -1.7682 -1.0017
 6126TIP3   OH239940   0.591   3.658   0.977  0.0033 -0.8123 -0.0809
 6126TIP3    H139941   0.549   3.594   1.034  0.9182 -1.6045 -0.2677
 6126TIP3    H239942   0.641   3.605   0.915  2.3744  0.0742  0.9790
 6127TIP3   OH239943   5.230   3.236   6.873 -0.0707  0.1706  0.0704
 6127TIP3    H139944   5.324   3.224   6.890  0.0417  1.0914  0.1736
 6127TIP3    H239945   5.226   3.306   6.808 -0.6552 -0.6963 -0.8499
 6128TIP3   OH239946   3.026   3.867   0.950 -0.6079  0.1048  0.5724
 6128TIP3    H139947   2.964   3.917   1.002 -1.0954  0.4732 -0.3470
 6128TIP3    H239948   3.004   3.887   0.860  1.0841  0.5312  0.2203
 6129TIP3   OH239949   2.649   0.727   1.269 -0.0620  0.2702 -0.0178
 6129TIP3    H139950   2.647   0.633   1.253 -0.1366  0.2669  0.0133
 6129TIP3    H239951   2.633   0.737   1.363 -1.4840  0.3846 -0.2416
 6130TIP3   OH239952   4.992   5.940   7.652 -0.2676 -0.8846 -0.4290
 6130TIP3    H139953   4.993   5.979   7.564  0.9376 -0.5830 -0.2951
 6130TIP3    H239954   5.016   5.848   7.637  1.7972 -0.4206 -0.2617
 6131TIP3   OH239955   3.608   3.053   0.106  0.6384  0.2898 -0.6216
 6131TIP3    H139956   3.622   3.147   0.102  2.2197  0.0276 -2.3139
 6131TIP3    H239957   3.566   3.031   0.023  0.3520 -0.5144 -0.2808
 6132TIP3   OH239958   6.540   0.931   1.325  0.4044 -0.0677  0.1118
 6132TIP3    H139959   6.632   0.910   1.341  0.4687  0.0794 -0.0631
 6132TIP3    H239960   6.529   0.920   1.230  0.4771  0.8388 -0.0098
 6133TIP3   OH239961   3.197   5.170   0.750  0.3978 -0.1265  0.2041
 6133TIP3    H139962   3.240   5.207   0.827  2.6351 -0.0279 -1.0288
 6133TIP3    H239963   3.233   5.082   0.742  0.9898  0.2251 -1.3027
 6134TIP3   OH239964   0.546   2.327   2.277 -0.0108 -1.0825  0.3279
 6134TIP3    H139965   0.608   2.255   2.260 -1.8954 -3.4513  2.6425
 6134TIP3    H239966   0.473   2.285   2.322 -0.7789  2.4867  2.7704
 6135TIP3   OH239967   3.323   2.098   0.688  0.4845  0.4227 -0.2316
 6135TIP3    H139968   3.399   2.050   0.654  1.4164  1.2493  0.6043
 6135TIP3    H239969   3.283   2.037   0.750 -0.0799 -0.3548 -1.3318
 6136TIP3   OH239970   4.899   1.661   0.368 -0.0223 -0.5372 -0.3954
 6136TIP3    H139971   4.808   1.689   0.355  0.0715 -0.4957 -1.0067
 6136TIP3    H239972   4.942   1.680   0.285  1.5832  3.3991  1.0743
 6137TIP3   OH239973   2.570   2.589   1.368 -0.2997 -0.1290  0.1295
 6137TIP3    H139974   2.604   2.665   1.321  0.2968 -0.9571 -0.8207
 6137TIP3    H239975   2.479   2.612   1.388 -1.1211 -0.3180 -2.8610
 6138TIP3   OH239976   0.859   4.325   1.934  0.1331  0.5276 -0.1514
 6138TIP3    H139977   0.835   4.411   1.900 -0.1872 -0.0414 -1.4070
 6138TIP3    H239978   0.891   4.342   2.023  1.0468  2.0712 -0.7413
 6139TIP3   OH239979   4.905   1.108   1.980  0.0536 -0.0734 -0.1282
 6139TIP3    H139980   4.979   1.056   2.014 -1.7437 -3.1747 -0.5639
 6139TIP3    H239981   4.928   1.124   1.888  1.5857  1.9314  0.5200
 6140TIP3   OH239982   5.312   0.479   7.995 -0.2730 -0.6850 -0.6026
 6140TIP3    H139983   5.375   0.416   7.960  1.1650  1.2996 -1.8154
 6140TIP3    H239984   5.227   0.447   7.965  0.4788 -1.7246 -1.7368
 6141TIP3   OH239985   3.845   4.904   0.551 -0.1264  0.2913 -0.0154
 6141TIP3    H139986   3.924   4.958   0.545  0.7239 -0.9853 -1.1634
 6141TIP3    H239987   3.775   4.959   0.518  1.0279  0.1841 -2.9522
 6142TIP3   OH239988   5.126   6.607   7.698  0.4267 -0.2058  0.0338
 6142TIP3    H139989   5.194   6.543   7.717  0.8699  0.5925  1.2408
 6142TIP3    H239990   5.171   6.680   7.656 -0.3002 -1.2468 -2.7671
 6143TIP3   OH239991   2.933   0.184   8.585  0.0086  0.3734  0.2926
 6143TIP3    H139992   3.000   0.185   8.516 -0.2773 -0.8273 -0.0248
 6143TIP3    H239993   2.904   0.093   8.589  0.4550  0.2722  2.4520
 6144TIP3   OH239994   3.059   4.841   1.573 -0.0799  0.3932 -0.4363
 6144TIP3    H139995   3.139   4.795   1.597 -0.3583 -0.3778 -0.9520
 6144TIP3    H239996   3.069   4.857   1.479 -0.8220 -0.3039 -0.6434
 6145TIP3   OH239997   6.329   3.916   8.225 -0.2642 -0.3983  0.5173
 6145TIP3    H139998   6.363   3.833   8.191 -1.9021 -0.8179 -0.1763
 6145TIP3    H239999   6.347   3.912   8.319 -0.9772 -1.8934  0.6199
 6146TIP3   OH240000   3.205   1.642   6.247  0.5953  0.3572  0.1830
 6146TIP3    H140001   3.228   1.562   6.295  0.9193 -1.2086 -2.4304
 6146TIP3    H240002   3.116   1.663   6.278  0.3182 -1.2809  0.5805
 6147TIP3   OH240003   5.575   6.672   8.610 -0.2461 -0.2701  0.0162
 6147TIP3    H140004   5.523   6.641   8.536  0.6006 -1.6656 -0.0183
 6147TIP3    H240005   5.665   6.650   8.588  0.5513  2.7365 -0.2385
 6148TIP3   OH240006   2.894   3.567   6.869 -0.1868  0.5483  0.0501
 6148TIP3    H140007   2.912   3.474   6.882 -0.1666  0.3262 -1.4385
 6148TIP3    H240008   2.803   3.578   6.897 -0.4337 -0.0829 -0.4687
 6149TIP3   OH240009   0.828   1.387   7.726 -0.1180 -0.0709 -0.5345
 6149TIP3    H140010   0.737   1.360   7.733  0.0711 -1.0825 -1.6181
 6149TIP3    H240011   0.828   1.479   7.755 -1.4543 -0.0779 -0.4368
 6150TIP3   OH240012   6.139   4.739   1.665  0.4197 -0.2302 -0.0419
 6150TIP3    H140013   6.184   4.724   1.582 -0.5599 -0.0025 -0.6222
 6150TIP3    H240014   6.062   4.682   1.662  0.1902  0.0386  0.5598
 6151TIP3   OH240015   4.651   4.643   6.046  0.3347  0.6184 -0.0173
 6151TIP3    H140016   4.739   4.679   6.037  0.8604 -0.2441  1.3401
 6151TIP3    H240017   4.660   4.572   6.110 -1.2378  0.1242 -0.2872
 6152TIP3   OH240018   5.248   2.623   7.667 -0.5066  0.6842 -0.1254
 6152TIP3    H140019   5.212   2.602   7.581  0.9921 -0.5467 -0.5012
 6152TIP3    H240020   5.328   2.673   7.648  0.8314 -1.1363  0.4234
 6153TIP3   OH240021   3.066   5.228   8.154 -0.4151  0.0105 -0.0550
 6153TIP3    H140022   3.145   5.202   8.202 -0.3402  0.9907  0.3617
 6153TIP3    H240023   3.064   5.170   8.078  0.4427 -0.3450  0.1873
 6154TIP3   OH240024   3.733   3.472   8.516  0.2733 -0.0415 -0.3175
 6154TIP3    H140025   3.766   3.559   8.538 -0.8244  0.4896 -0.7359
 6154TIP3    H240026   3.646   3.468   8.555  0.5131 -1.1602  0.1571
 6155TIP3   OH240027   4.450   1.085   1.159 -0.3945  0.0670  0.0772
 6155TIP3    H140028   4.433   1.173   1.194  0.6211 -0.1027  1.0806
 6155TIP3    H240029   4.410   1.086   1.072 -2.3216  0.7762  0.9127
 6156TIP3   OH240030   4.137   4.687   0.729 -0.1492 -0.0774 -0.1896
 6156TIP3    H140031   4.044   4.667   0.722 -0.1929  0.1987 -0.4051
 6156TIP3    H240032   4.142   4.759   0.792  0.0882 -1.3608  1.3352
 6157TIP3   OH240033   6.263   6.266   0.716  0.1953  0.3412 -0.1578
 6157TIP3    H140034   6.340   6.258   0.661  0.9715  2.6774  0.4955
 6157TIP3    H240035   6.204   6.323   0.667 -0.2309  0.2824  0.2749
 6158TIP3   OH240036   5.598   0.240   7.621 -0.1904 -0.0619 -0.4420
 6158TIP3    H140037   5.503   0.232   7.619 -0.1975  0.0874 -0.9615
 6158TIP3    H240038   5.630   0.149   7.620 -0.3293 -0.2102  2.1933
 6159TIP3   OH240039   4.007   6.528   7.649  0.1589  0.1247  0.2496
 6159TIP3    H140040   3.991   6.434   7.640 -0.3095  0.1973  0.3193
 6159TIP3    H240041   4.027   6.557   7.561 -1.0946  0.2160 -0.0200
 6160TIP3   OH240042   6.262   0.643   8.070 -0.0703 -0.4296  0.3023
 6160TIP3    H140043   6.351   0.611   8.054  0.2264  0.7693 -0.5549
 6160TIP3    H240044   6.220   0.642   7.984 -0.3381  0.5599  0.4033
 6161TIP3   OH240045   6.434   1.695   8.525 -0.0844  0.1285 -0.5527
 6161TIP3    H140046   6.401   1.781   8.551  1.7944  0.4698  0.9319
 6161TIP3    H240047   6.446   1.648   8.608 -0.0156 -1.1566 -1.2688
 6162TIP3   OH240048   3.305   4.358   1.521 -0.0364 -0.0222  0.2050
 6162TIP3    H140049   3.331   4.290   1.582  0.1179 -0.1995 -0.0554
 6162TIP3    H240050   3.358   4.342   1.443  0.4509  0.7728  0.3609
 6163TIP3   OH240051   2.188   5.016   1.422  0.1628  0.5521 -0.1964
 6163TIP3    H140052   2.111   5.072   1.411  0.4454  0.7329 -1.3792
 6163TIP3    H240053   2.189   4.994   1.515 -2.2275 -0.7463 -0.4029
 6164TIP3   OH240054   0.908   3.166   7.222  0.2918  0.3885  0.1001
 6164TIP3    H140055   0.936   3.091   7.275  0.4165  0.7935  0.6097
 6164TIP3    H240056   0.970   3.235   7.244 -0.4209  0.9510  0.3898
 6165TIP3   OH240057   1.161   4.579   1.742  0.0730  0.3984  0.4963
 6165TIP3    H140058   1.231   4.566   1.677 -0.6067 -0.3652 -0.1039
 6165TIP3    H240059   1.192   4.651   1.796  1.1838  0.2898  0.0377
 6166TIP3   OH240060   5.872   2.104   0.673 -0.0660  0.3308  0.4503
 6166TIP3    H140061   5.929   2.085   0.748 -0.6780  1.5836  1.2545
 6166TIP3    H240062   5.904   2.187   0.639 -0.7416  0.5141  0.2556
 6167TIP3   OH240063   1.979   5.314   7.509 -0.2682  0.3755  0.3557
 6167TIP3    H140064   2.048   5.285   7.450 -1.7976 -0.2302 -1.2084
 6167TIP3    H240065   2.016   5.392   7.552  0.5312  1.5172 -2.2049
 6168TIP3   OH240066   0.502   2.740   8.672  0.7271 -0.3798  0.7512
 6168TIP3    H140067   0.425   2.776   8.717  1.4773 -1.1913  2.8096
 6168TIP3    H240068   0.468   2.713   8.587 -1.2306 -0.4303  1.4762
 6169TIP3   OH240069   5.129   0.958   0.612  0.2291 -0.8393  0.4691
 6169TIP3    H140070   5.142   1.017   0.537  2.0491 -0.5543  0.9571
 6169TIP3    H240071   5.078   1.010   0.674  0.4041 -0.3636  0.2259
 6170TIP3   OH240072   4.165   1.008   1.743 -0.3066 -0.0881  0.0977
 6170TIP3    H140073   4.206   1.094   1.750 -0.5382  0.0961 -0.6755
 6170TIP3    H240074   4.135   0.988   1.831  0.0186  0.4895  0.3444
 6171TIP3   OH240075   5.841   5.504   0.572  0.9437 -0.1954  0.2836
 6171TIP3    H140076   5.898   5.562   0.622  0.9041 -0.6937  0.9315
 6171TIP3    H240077   5.860   5.416   0.607 -1.8021 -0.1866  2.1901
 6172TIP3   OH240078   4.431   1.737   8.655  0.0475 -0.0932 -0.0957
 6172TIP3    H140079   4.490   1.667   8.684  1.2015  1.6771  2.2504
 6172TIP3    H240080   4.482   1.818   8.669 -2.5695  1.4721  1.1808
 6173TIP3   OH240081   4.786   4.308   6.487  0.4438 -0.5426  0.1774
 6173TIP3    H140082   4.874   4.308   6.449  0.4779 -1.6133  0.2313
 6173TIP3    H240083   4.740   4.237   6.442 -0.9783  1.1105 -1.1185
 6174TIP3   OH240084   0.841   0.383   7.193  0.0601  0.4893 -0.3291
 6174TIP3    H140085   0.883   0.409   7.112  0.0130  0.3520 -0.3964
 6174TIP3    H240086   0.805   0.297   7.176  1.0289 -0.0416  0.1872
 6175TIP3   OH240087   2.429   4.567   7.851 -0.1038 -0.3423  0.0986
 6175TIP3    H140088   2.353   4.513   7.874 -0.1532  0.1412  1.1016
 6175TIP3    H240089   2.499   4.503   7.833 -0.6857 -0.7837 -0.6879
 6176TIP3   OH240090   4.759   1.444   0.091 -0.5044 -0.0542  0.1130
 6176TIP3    H140091   4.686   1.473   0.037 -0.3000  2.4125  1.0035
 6176TIP3    H240092   4.830   1.506   0.070  0.5312 -0.8897  1.0216
 6177TIP3   OH240093   5.749   1.368   7.677  0.2020 -0.5791  0.1196
 6177TIP3    H140094   5.803   1.319   7.739  1.4433  0.5483 -0.0206
 6177TIP3    H240095   5.755   1.459   7.707 -1.7138 -0.4052  0.1354
 6178TIP3   OH240096   5.446   2.381   2.415  0.7019  0.1413  0.6519
 6178TIP3    H140097   5.402   2.412   2.494  1.0590  1.0613  0.5113
 6178TIP3    H240098   5.518   2.443   2.402  1.3785 -0.7026  0.2736
 6179TIP3   OH240099   6.665   0.861   7.967  0.0558  0.0477 -0.4734
 6179TIP3    H140100   6.697   0.886   7.881 -1.7554  1.7916 -0.7070
 6179TIP3    H240101   6.570   0.871   7.962 -0.4038 -2.5794  0.8989
 6180TIP3   OH240102   6.609   6.491   1.144 -0.1732  0.0254 -0.2497
 6180TIP3    H140103   6.528   6.536   1.170  0.1330  0.2118  0.4057
 6180TIP3    H240104   6.663   6.560   1.106  0.0551  0.0938  0.1950
 6181TIP3   OH240105   0.165   3.705   8.106  0.3713  0.4326 -0.0066
 6181TIP3    H140106   0.137   3.789   8.071 -0.9725  0.1422  0.3175
 6181TIP3    H240107   0.246   3.685   8.060 -0.8832  0.4675 -2.3812
 6182TIP3   OH240108   5.702   1.315   0.424 -0.4111  0.1370  0.1906
 6182TIP3    H140109   5.641   1.334   0.496 -0.6494 -1.0424  0.3258
 6182TIP3    H240110   5.648   1.319   0.345 -0.3326  0.5769  0.1553
 6183TIP3   OH240111   3.893   2.314   7.351 -0.2991  0.1184  0.2452
 6183TIP3    H140112   3.947   2.235   7.352 -0.6515 -0.1422 -0.5701
 6183TIP3    H240113   3.888   2.338   7.258 -0.7464  0.7180  0.4212
 6184TIP3   OH240114   0.568   3.224   0.351 -0.2717  0.5638 -0.1256
 6184TIP3    H140115   0.586   3.269   0.268  0.9364 -1.2589 -0.9181
 6184TIP3    H240116   0.621   3.144   0.347 -4.9632 -2.9747 -0.5542
 6185TIP3   OH240117   4.018   1.397   1.779 -0.0819  0.1729 -0.3440
 6185TIP3    H140118   4.022   1.491   1.796  0.6420  0.1662 -0.4467
 6185TIP3    H240119   4.075   1.358   1.845 -1.0561 -0.2826  0.2543
 6186TIP3   OH240120   0.316   1.959   2.516  0.5251 -0.3783  0.4270
 6186TIP3    H140121   0.299   1.949   2.422  1.3072  0.6280  0.1509
 6186TIP3    H240122   0.241   1.917   2.559 -0.8105  0.7684 -0.6694
 6187TIP3   OH240123   3.610   1.476   7.803 -0.9808  0.1028 -0.0391
 6187TIP3    H140124   3.681   1.461   7.741 -1.4040 -2.8325  0.0543
 6187TIP3    H240125   3.531   1.476   7.749 -1.2144 -0.7981  0.2908
 6188TIP3   OH240126   1.663   0.995   0.273  0.0858  0.0925 -0.3268
 6188TIP3    H140127   1.735   1.042   0.231  0.7825 -0.7500 -0.1075
 6188TIP3    H240128   1.603   1.063   0.303  1.4435  0.8957  0.6712
 6189TIP3   OH240129   1.089   1.663   7.398  0.0665 -0.4641 -0.4577
 6189TIP3    H140130   1.059   1.684   7.310 -1.8982 -0.9656  0.0426
 6189TIP3    H240131   1.090   1.567   7.401  0.5271 -0.4522 -0.0516
 6190TIP3   OH240132   5.119   4.557   6.648 -0.1534 -0.2378 -0.4134
 6190TIP3    H140133   5.080   4.545   6.562  0.9190  2.6402 -1.4363
 6190TIP3    H240134   5.213   4.546   6.633 -0.0532 -1.3518  0.7994
 6191TIP3   OH240135   5.568   6.367   6.759  0.2621  0.3646 -0.5171
 6191TIP3    H140136   5.474   6.387   6.767 -0.6120 -1.2066 -4.3457
 6191TIP3    H240137   5.578   6.284   6.805  0.0340  1.0106  0.7421
 6192TIP3   OH240138   1.871   2.124   0.110 -0.3726 -0.1242  0.2434
 6192TIP3    H140139   1.938   2.166   0.056 -0.9277 -0.5767 -0.8264
 6192TIP3    H240140   1.818   2.196   0.143  0.7310  0.2611  1.2783
 6193TIP3   OH240141   3.816   1.062   1.055 -0.1421 -0.0045  0.5212
 6193TIP3    H140142   3.729   1.062   1.096 -1.1419  1.3199 -1.3973
 6193TIP3    H240143   3.797   1.061   0.961  1.9170  0.8926  0.0552
 6194TIP3   OH240144   4.534   3.315   8.218  0.2147  0.0809 -0.2648
 6194TIP3    H140145   4.609   3.259   8.240 -0.3311 -0.2063  0.9576
 6194TIP3    H240146   4.535   3.319   8.122  0.5376 -1.6530 -0.3760
 6195TIP3   OH240147   4.797   4.360   7.425 -0.3014  0.1742 -0.4040
 6195TIP3    H140148   4.774   4.273   7.458 -0.4577  0.0648 -0.7976
 6195TIP3    H240149   4.713   4.407   7.423 -0.2808  0.2021 -0.5830
 6196TIP3   OH240150   0.159   0.385   8.200 -0.1715 -0.3119  0.5401
 6196TIP3    H140151   0.219   0.403   8.128 -0.4862 -1.5453 -0.0648
 6196TIP3    H240152   0.109   0.309   8.171 -0.1650 -0.9702  2.1563
 6197TIP3   OH240153   1.154   6.232   8.074 -0.1016  0.2180 -0.1253
 6197TIP3    H140154   1.151   6.320   8.034 -1.4657  0.0010 -0.5630
 6197TIP3    H240155   1.111   6.176   8.010  1.7636 -1.0143 -0.3586
 6198TIP3   OH240156   1.350   1.737   8.320 -1.1158  0.4683 -0.7525
 6198TIP3    H140157   1.426   1.702   8.274 -1.1807 -0.2954 -0.2975
 6198TIP3    H240158   1.283   1.745   8.252 -0.9694  0.0881 -0.9483
 6199TIP3   OH240159   1.611   6.774   0.292 -0.1332 -0.9577 -0.3275
 6199TIP3    H140160   1.614   6.688   0.335 -1.7690 -0.3623  1.1013
 6199TIP3    H240161   1.524   6.779   0.253  0.9704 -1.0624 -2.9647
 6200TIP3   OH240162   0.270   1.996   0.533  0.1435  0.2194 -0.0961
 6200TIP3    H140163   0.337   2.050   0.574 -1.2648  2.3357 -0.4506
 6200TIP3    H240164   0.301   1.982   0.443  0.0274  1.4185 -0.3415
 6201TIP3   OH240165   0.981   0.829   1.898  0.3438  0.2154 -0.0011
 6201TIP3    H140166   1.047   0.892   1.928 -1.5305  2.0245  0.5764
 6201TIP3    H240167   1.029   0.769   1.841  2.6923  0.7160  1.3159
 6202TIP3   OH240168   0.287   5.054   8.153  0.1301  0.2430 -0.1656
 6202TIP3    H140169   0.362   5.013   8.109 -1.0387 -1.4758 -0.6586
 6202TIP3    H240170   0.276   5.004   8.234 -0.4542  0.5125 -0.0729
 6203TIP3   OH240171   3.718   0.563   7.262  0.1685 -0.2553 -0.0565
 6203TIP3    H140172   3.790   0.564   7.199  1.3953 -0.2760  1.2907
 6203TIP3    H240173   3.663   0.490   7.234  1.1725 -0.8277 -0.6013
 6204TIP3   OH240174   0.797   1.725   8.430 -1.1029 -0.2741  0.7004
 6204TIP3    H140175   0.714   1.686   8.403 -1.4474  1.8336 -1.6360
 6204TIP3    H240176   0.776   1.815   8.451  0.7816  0.8667 -1.7669
 6205TIP3   OH240177   6.158   0.643   7.805 -0.2267 -0.6812 -0.3573
 6205TIP3    H140178   6.178   0.697   7.728  1.1558 -0.7204 -0.0560
 6205TIP3    H240179   6.065   0.625   7.798 -0.7514  1.7118 -0.5083
 6206TIP3   OH240180   2.590   3.316   7.183  0.1082  0.6202  0.2609
 6206TIP3    H140181   2.577   3.226   7.212 -0.6198 -0.2608 -2.4555
 6206TIP3    H240182   2.628   3.360   7.258 -2.5826 -1.0901  2.8596
 6207TIP3   OH240183   5.055   0.311   7.628 -0.5589 -1.0097 -0.0407
 6207TIP3    H140184   5.032   0.389   7.578 -1.6401 -1.4207 -0.1899
 6207TIP3    H240185   5.138   0.282   7.590 -0.0972  0.1003  0.0732
 6208TIP3   OH240186   0.890   0.541   8.199  0.2991 -0.0478  0.0012
 6208TIP3    H140187   0.965   0.552   8.257 -0.2792  0.7094  0.6341
 6208TIP3    H240188   0.910   0.463   8.148 -0.2821 -2.3907  3.0266
 6209TIP3   OH240189   0.992   0.041   8.734 -0.0211 -0.1902 -0.0031
 6209TIP3    H140190   0.919   0.065   8.677 -0.4766 -0.0338  0.6313
 6209TIP3    H240191   0.999   0.113   8.797  0.8551 -0.0762 -0.2160
 6210TIP3   OH240192   0.106   0.694   7.644 -0.2299  0.4038  0.1514
 6210TIP3    H140193   0.117   0.599   7.652 -1.2499  0.0180 -2.1930
 6210TIP3    H240194   0.187   0.730   7.681  1.2439 -1.5100 -0.9940
 6211TIP3   OH240195   6.499   2.149   7.050  0.1559 -0.1750 -0.1415
 6211TIP3    H140196   6.512   2.239   7.018 -1.8580  0.0871 -0.3651
 6211TIP3    H240197   6.508   2.095   6.972  1.3667 -0.1831 -0.0083
 6212TIP3   OH240198   4.310   2.041   6.204  0.1692  0.1348  0.0875
 6212TIP3    H140199   4.246   2.036   6.275  0.3966 -0.8254  0.2372
 6212TIP3    H240200   4.313   1.952   6.168  1.0561  0.2860 -0.2436
 6213TIP3   OH240201   5.576   6.380   1.809 -0.6781  0.0915 -0.0666
 6213TIP3    H140202   5.548   6.298   1.770  0.0267 -0.0452 -0.2908
 6213TIP3    H240203   5.636   6.354   1.879  1.0126  0.4677 -1.3370
 6214TIP3   OH240204   3.548   4.493   0.475  0.1315  0.3967 -0.1028
 6214TIP3    H140205   3.606   4.435   0.425  0.5341  0.8357 -0.1501
 6214TIP3    H240206   3.509   4.436   0.541  0.7551  0.1293  0.0449
 6215TIP3   OH240207   3.264   5.601   1.205 -0.3807 -0.4040 -1.1197
 6215TIP3    H140208   3.234   5.511   1.220  0.6067 -0.3185  2.0024
 6215TIP3    H240209   3.347   5.592   1.158  0.1255 -1.2130 -0.1085
 6216TIP3   OH240210   4.810   1.571   8.182 -0.2823  0.4178 -0.0100
 6216TIP3    H140211   4.724   1.529   8.179 -0.6908  1.0829  1.4498
 6216TIP3    H240212   4.819   1.612   8.096  0.1502 -2.5678 -1.5123
 6217TIP3   OH240213   4.980   0.242   1.042 -0.5919 -0.1859  0.6274
 6217TIP3    H140214   5.015   0.161   1.080  1.9839  0.3012 -0.5040
 6217TIP3    H240215   4.894   0.218   1.010  0.1882 -2.5810  0.1076
 6218TIP3   OH240216   2.781   3.450   8.729  0.1805 -0.4600  0.1619
 6218TIP3    H140217   2.724   3.499   8.669  0.2202 -0.7401 -0.1080
 6218TIP3    H240218   2.831   3.391   8.672  0.5870 -0.3695  0.4192
 6219TIP3   OH240219   1.465   2.701   1.479  0.8991 -0.0601  0.3500
 6219TIP3    H140220   1.427   2.773   1.529 -0.0604  0.4649 -1.0935
 6219TIP3    H240221   1.508   2.743   1.404 -1.7301 -1.0170 -1.8594
 6220TIP3   OH240222   4.620   4.604   1.193 -0.0227 -0.3974 -0.1905
 6220TIP3    H140223   4.601   4.566   1.278  1.3541 -1.1821 -0.2000
 6220TIP3    H240224   4.580   4.691   1.196 -0.6950 -0.7244  0.9340
 6221TIP3   OH240225   5.305   1.730   0.889  0.3169  0.2837 -0.2680
 6221TIP3    H140226   5.328   1.641   0.916  0.9993  0.6413  0.3452
 6221TIP3    H240227   5.242   1.717   0.817  2.2854 -0.7309 -1.9310
 6222TIP3   OH240228   2.247   0.316   8.001  0.8550 -0.0721 -0.0318
 6222TIP3    H140229   2.170   0.293   7.948  1.1134 -0.1988 -0.3516
 6222TIP3    H240230   2.314   0.340   7.938  0.6966  1.2811  0.2717
 6223TIP3   OH240231   5.440   5.421   1.646 -0.1723  0.3309  0.3541
 6223TIP3    H140232   5.484   5.432   1.730  1.5616  1.9779 -0.6877
 6223TIP3    H240233   5.397   5.506   1.630 -0.2273  0.1420 -0.5504
 6224TIP3   OH240234   4.257   3.872   8.345  0.1148 -0.3954 -0.2550
 6224TIP3    H140235   4.226   3.787   8.376  0.5885 -0.6127 -0.3574
 6224TIP3    H240236   4.178   3.922   8.326 -0.1676 -0.8857 -0.3802
 6225TIP3   OH240237   2.816   6.654   0.691  0.1653  0.6618 -0.2361
 6225TIP3    H140238   2.842   6.701   0.770  1.5757  0.3080 -0.4655
 6225TIP3    H240239   2.739   6.603   0.718  0.9783  0.0714  1.1016
 6226TIP3   OH240240   5.980   3.286   0.693 -0.4308 -0.2887  0.8001
 6226TIP3    H140241   5.937   3.364   0.729  0.2872 -0.1333  1.3401
 6226TIP3    H240242   5.923   3.214   0.719 -1.0001  0.0253  0.4668
 6227TIP3   OH240243   5.272   6.646   0.831 -0.0962 -0.6474  0.1780
 6227TIP3    H140244   5.317   6.569   0.865  1.1624  0.0735  0.1903
 6227TIP3    H240245   5.273   6.635   0.736  2.6083  0.6554 -0.0226
 6228TIP3   OH240246   3.138   0.917   8.009  0.0234  0.4025 -0.3096
 6228TIP3    H140247   3.130   0.909   7.914  0.4833 -1.6338 -0.2159
 6228TIP3    H240248   3.189   0.998   8.022 -1.0510  1.3454 -1.7043
 6229TIP3   OH240249   5.982   4.538   0.126 -0.0674  0.2805  0.0418
 6229TIP3    H140250   5.897   4.493   0.121  0.2192 -0.3987  1.0315
 6229TIP3    H240251   5.963   4.628   0.099 -1.1603  0.2096  0.5217
 6230TIP3   OH240252   3.088   1.461   6.931 -0.5459 -0.1464  0.5627
 6230TIP3    H140253   3.067   1.552   6.953 -0.4590  0.7466 -2.5908
 6230TIP3    H240254   3.044   1.446   6.847  3.7298 -1.1536 -1.8108
 6231TIP3   OH240255   2.404   6.232   0.839  0.5854  0.0883  0.3684
 6231TIP3    H140256   2.339   6.161   0.836  1.5620 -0.8317  0.3143
 6231TIP3    H240257   2.415   6.250   0.932 -0.4375  0.9330  0.3516
 6232TIP3   OH240258   4.331   1.406   7.003 -0.0912 -0.5872  0.4150
 6232TIP3    H140259   4.366   1.493   7.024  0.4356 -0.7942  0.3928
 6232TIP3    H240260   4.392   1.370   6.940  0.8906 -1.8473  2.0227
 6233TIP3   OH240261   1.678   3.476   7.190 -0.4080 -0.2004 -0.0344
 6233TIP3    H140262   1.762   3.434   7.208 -0.8100 -0.7071  0.7012
 6233TIP3    H240263   1.701   3.557   7.144  0.4137 -0.8370 -0.7739
 6234TIP3   OH240264   4.369   2.048   7.794  0.0275 -0.1348  0.1466
 6234TIP3    H140265   4.405   2.076   7.710  0.2308  0.5383  0.4510
 6234TIP3    H240266   4.276   2.070   7.789  0.1547  0.4889  0.3218
 6235TIP3   OH240267   0.466   1.287   1.677 -0.2921 -0.5286  0.0456
 6235TIP3    H140268   0.430   1.286   1.588  0.0803 -0.6968 -0.1061
 6235TIP3    H240269   0.398   1.247   1.730  0.0654 -1.7787 -0.3985
 6236TIP3   OH240270   5.343   6.091   0.538  0.4355 -0.1357 -0.7958
 6236TIP3    H140271   5.352   6.013   0.483 -0.3810 -1.9257  1.4615
 6236TIP3    H240272   5.424   6.094   0.590 -0.2657 -0.5275  0.3546
 6237TIP3   OH240273   3.668   4.658   7.997  0.0809  0.3171  0.2079
 6237TIP3    H140274   3.638   4.569   8.017  0.1183  0.5444  1.3902
 6237TIP3    H240275   3.622   4.713   8.060 -0.4460  1.2345 -0.9498
 6238TIP3   OH240276   1.509   5.311   7.900 -0.2580  0.4053 -0.1776
 6238TIP3    H140277   1.486   5.282   7.812 -0.1734  0.2656 -0.1554
 6238TIP3    H240278   1.512   5.406   7.895  0.7066  0.3700 -0.5751
 6239TIP3   OH240279   6.582   6.037   7.114  0.1541  0.1417 -0.0286
 6239TIP3    H140280   6.619   5.957   7.078 -1.7727 -0.8005 -0.0342
 6239TIP3    H240281   6.655   6.079   7.159  1.3130 -1.3811 -0.4018
 6240TIP3   OH240282   0.129   5.687   0.048  0.2353  0.1556 -0.5976
 6240TIP3    H140283   0.089   5.606   0.018  2.4298 -0.9555 -0.6836
 6240TIP3    H240284   0.223   5.670   0.047  0.6949  2.1454  0.9956
 6241TIP3   OH240285   5.224   5.225   7.925 -0.0454  0.5306  0.4092
 6241TIP3    H140286   5.142   5.271   7.912 -0.4204 -0.0574  0.6434
 6241TIP3    H240287   5.217   5.187   8.013  0.3816  0.2951  0.3466
 6242TIP3   OH240288   3.497   1.054   7.391  0.3484  0.0931  0.0601
 6242TIP3    H140289   3.509   1.092   7.304  0.9736 -1.6228 -0.6634
 6242TIP3    H240290   3.557   0.979   7.392  2.6282  1.7351  3.0819
 6243TIP3   OH240291   5.874   0.267   6.949  0.3204 -0.1983 -0.0368
 6243TIP3    H140292   5.913   0.309   6.873  2.5899 -1.0522  0.5411
 6243TIP3    H240293   5.824   0.336   6.992 -0.6264  0.4134 -2.0154
 6244TIP3   OH240294   5.034   2.359   8.586 -0.4063 -0.7711  0.6369
 6244TIP3    H140295   5.014   2.285   8.529  0.3503  0.2105 -0.9574
 6244TIP3    H240296   5.130   2.363   8.587 -0.4407  0.5951  0.1364
 6245TIP3   OH240297   4.370   4.584   8.569  0.0037 -0.2152 -0.2291
 6245TIP3    H140298   4.447   4.622   8.611 -0.5864 -0.7621  1.4159
 6245TIP3    H240299   4.301   4.649   8.582 -0.2937 -0.5798  0.0112
 6246TIP3   OH240300   1.957   5.952   8.326 -0.6801 -0.1964 -0.2530
 6246TIP3    H140301   2.051   5.945   8.311 -0.6423 -0.4129  0.0752
 6246TIP3    H240302   1.918   5.886   8.269 -0.5944 -0.4753  0.0109
 6247TIP3   OH240303   2.311   1.396   7.578 -0.0594 -0.6400  0.7545
 6247TIP3    H140304   2.297   1.428   7.490  1.2259  0.1937  0.8337
 6247TIP3    H240305   2.255   1.451   7.633  1.0425  0.5602  0.7242
 6248TIP3   OH240306   0.692   1.530   0.280  0.3117  0.2232  0.0249
 6248TIP3    H140307   0.633   1.583   0.333 -0.3567  0.2061 -0.6946
 6248TIP3    H240308   0.778   1.568   0.295  0.5539 -1.1902  2.9582
 6249TIP3   OH240309   0.450   5.541   0.816  0.1949  0.7657 -0.2517
 6249TIP3    H140310   0.367   5.510   0.781 -0.3334  1.3253  0.4507
 6249TIP3    H240311   0.478   5.473   0.877 -0.8768  1.5377  1.1640
 6250TIP3   OH240312   4.474   3.763   0.058  0.5295 -0.0461 -0.1547
 6250TIP3    H140313   4.417   3.689   0.079 -1.3582  1.2765 -0.3635
 6250TIP3    H240314   4.522   3.735  -0.020 -0.2558 -0.9973 -0.3227
 6251TIP3   OH240315   4.131   2.793   6.840  0.2455 -0.0394  0.0046
 6251TIP3    H140316   4.196   2.810   6.771 -1.0218  2.0031 -0.7706
 6251TIP3    H240317   4.048   2.825   6.804 -0.1409  3.1938  3.1838
 6252TIP3   OH240318   1.813   4.874   7.417 -0.8158  0.4676  0.8176
 6252TIP3    H140319   1.786   4.791   7.378  2.1282 -0.7228  1.0722
 6252TIP3    H240320   1.770   4.940   7.363 -0.9545 -1.1834 -1.2542
 6253TIP3   OH240321   4.494   4.192   1.783 -0.0581 -0.2605  0.2409
 6253TIP3    H140322   4.529   4.278   1.804  1.2871 -0.6881 -0.1853
 6253TIP3    H240323   4.545   4.131   1.836  0.6685 -0.9994 -1.2488
 6254TIP3   OH240324   4.585   4.139   6.467  0.2170 -0.1028 -0.1033
 6254TIP3    H140325   4.605   4.047   6.452  0.5906 -0.6736  3.2278
 6254TIP3    H240326   4.495   4.150   6.435  0.0504 -1.6926 -0.2306
 6255TIP3   OH240327   6.759   1.679   0.207  0.0983  0.1672 -0.0446
 6255TIP3    H140328   6.752   1.715   0.118 -0.7264  2.3142  0.8339
 6255TIP3    H240329   6.683   1.622   0.215 -1.1808  1.7986  0.0255
 6256TIP3   OH240330   4.158   6.067   7.864  0.4574 -0.3118 -0.0261
 6256TIP3    H140331   4.144   6.063   7.959  0.0394 -1.4855 -0.1271
 6256TIP3    H240332   4.241   6.020   7.851  0.7469  0.2423 -0.2014
 6257TIP3   OH240333   2.721   0.369   7.893 -0.4329  0.2802  0.4616
 6257TIP3    H140334   2.759   0.285   7.917  0.4604  0.2384 -0.9820
 6257TIP3    H240335   2.753   0.430   7.959  0.2786 -0.2065  0.5766
 6258TIP3   OH240336   4.059   0.990   2.012 -0.1007  0.1352 -0.1255
 6258TIP3    H140337   4.127   0.941   2.058 -1.4732 -1.4434  0.3374
 6258TIP3    H240338   4.027   1.052   2.078  0.7716  0.7939 -0.3041
 6259TIP3   OH240339   2.668   0.402   1.820 -0.2599  0.5867 -0.2324
 6259TIP3    H140340   2.652   0.308   1.814  1.6652  0.1638  0.6671
 6259TIP3    H240341   2.620   0.439   1.746  0.1306 -1.2713 -1.4738
 6260TIP3   OH240342   1.455   3.297   0.618 -0.5068 -0.2089 -0.2971
 6260TIP3    H140343   1.489   3.260   0.699  0.6521  3.1228  0.8806
 6260TIP3    H240344   1.365   3.321   0.638  0.4457  2.7097  0.8813
 6261TIP3   OH240345   3.787   1.623   1.586 -0.2745  0.3342 -0.0913
 6261TIP3    H140346   3.740   1.586   1.661  0.6367 -0.5524  0.0576
 6261TIP3    H240347   3.719   1.640   1.521 -0.9548  0.2070  0.5673
 6262TIP3   OH240348   4.399   1.098   8.110  0.2478  0.0693 -0.2831
 6262TIP3    H140349   4.463   1.167   8.128 -0.1894  0.4528 -0.1964
 6262TIP3    H240350   4.341   1.136   8.044 -0.9080  0.3542  0.8598
 6263TIP3   OH240351   4.544   6.412   0.058 -0.3796  0.1511  0.7800
 6263TIP3    H140352   4.511   6.502   0.067  0.4267  0.5618 -0.1271
 6263TIP3    H240353   4.571   6.406  -0.034  0.3400 -0.7567  1.0361
 6264TIP3   OH240354   3.833   2.169   8.143 -0.0300  0.6079  0.2533
 6264TIP3    H140355   3.783   2.093   8.113  0.7801  0.4872 -0.8747
 6264TIP3    H240356   3.844   2.155   8.237  0.0149 -0.6376  0.0855
 6265TIP3   OH240357   0.148   0.111   0.446 -0.2395  0.1598 -0.5397
 6265TIP3    H140358   0.202   0.169   0.499  0.4268 -1.0850  0.1884
 6265TIP3    H240359   0.138   0.032   0.499 -2.8071  0.3499 -0.6416
 6266TIP3   OH240360   1.773   1.916   0.715  0.2003  0.1802  0.1407
 6266TIP3    H140361   1.678   1.918   0.709  0.1060  1.9376  1.4298
 6266TIP3    H240362   1.791   1.874   0.799  0.6306 -1.2436 -0.6364
 6267TIP3   OH240363   1.385   6.787   7.771 -0.6083  0.4348 -0.0009
 6267TIP3    H140364   1.442   6.727   7.818  0.4911  0.7860 -0.8343
 6267TIP3    H240365   1.383   6.753   7.681 -2.0732  0.1862  0.1077
 6268TIP3   OH240366   1.047   0.647   1.215 -0.3478 -0.4988 -0.4978
 6268TIP3    H140367   0.995   0.584   1.264  1.3365 -1.6499 -0.1006
 6268TIP3    H240368   1.112   0.678   1.278  1.8284 -1.9609 -1.8991
 6269TIP3   OH240369   2.731   0.848   7.701  0.1390 -0.4023 -0.1042
 6269TIP3    H140370   2.713   0.875   7.791  0.4721 -0.2709 -0.0766
 6269TIP3    H240371   2.734   0.752   7.705 -1.2983 -0.4795 -0.2531
 6270TIP3   OH240372   2.768   5.770   0.329 -0.1016 -0.0507  0.0657
 6270TIP3    H140373   2.796   5.692   0.282 -0.1787  0.7062 -1.2858
 6270TIP3    H240374   2.809   5.762   0.415 -1.1344 -2.2051  0.4410
 6271TIP3   OH240375   5.990   1.211   6.356 -0.2480  0.1060  0.9120
 6271TIP3    H140376   6.060   1.184   6.297 -0.7499  0.7344  0.0224
 6271TIP3    H240377   5.970   1.132   6.407  0.0527 -0.4956  0.1120
 6272TIP3   OH240378   5.906   2.824   7.308  0.8743 -0.6397 -0.3350
 6272TIP3    H140379   5.887   2.758   7.241  1.8781 -1.5801  0.2612
 6272TIP3    H240380   6.001   2.836   7.303  0.8854 -0.2963  0.5298
 6273TIP3   OH240381   1.046   1.591   0.566  0.3497 -0.2677 -0.2229
 6273TIP3    H140382   0.997   1.655   0.515  2.0303 -0.0507 -1.6398
 6273TIP3    H240383   1.003   1.507   0.546 -0.8793  0.1849  0.4188
 6274TIP3   OH240384   0.195   2.182   0.251 -1.0200 -0.0945  0.2891
 6274TIP3    H140385   0.151   2.160   0.333 -1.0409  0.0234  0.3100
 6274TIP3    H240386   0.156   2.266   0.225  0.6088  1.0505  1.3563
 6275TIP3   OH240387   2.967   5.510   7.463  0.6461  0.1164  0.0261
 6275TIP3    H140388   3.021   5.438   7.497 -0.2739 -0.7003 -0.1826
 6275TIP3    H240389   2.943   5.482   7.375 -0.6822  0.1260  0.3621
 6276TIP3   OH240390   6.798   4.129   8.447 -0.3782 -0.5198  0.6939
 6276TIP3    H140391   6.762   4.126   8.358  3.0721 -1.9240 -0.8429
 6276TIP3    H240392   6.782   4.218   8.477 -3.5371 -0.6063 -0.3821
 6277TIP3   OH240393   6.433   6.557   8.465 -0.1515  0.1155 -0.1817
 6277TIP3    H140394   6.496   6.587   8.531  0.8387 -0.0500 -1.0205
 6277TIP3    H240395   6.486   6.506   8.403 -0.9870  0.5665 -1.2959
 6278TIP3   OH240396   0.447   3.389   0.765  0.5378  0.7217  1.0703
 6278TIP3    H140397   0.383   3.394   0.836  2.0278  2.1278  2.3898
 6278TIP3    H240398   0.474   3.297   0.763 -0.6187  0.3591  1.2833
 6279TIP3   OH240399   0.108   0.246   8.780 -0.1498  0.1760  0.5613
 6279TIP3    H140400   0.014   0.261   8.790 -0.2084  0.6676 -0.5368
 6279TIP3    H240401   0.137   0.218   8.867 -1.3351 -0.1511  0.8762
 6280TIP3   OH240402   2.652   4.487   6.661 -0.1657 -0.3079 -0.3313
 6280TIP3    H140403   2.586   4.453   6.602 -0.0794  0.0782 -0.6550
 6280TIP3    H240404   2.613   4.480   6.748 -1.6484  2.1678 -0.7082
 6281TIP3   OH240405   2.469   4.725   1.219 -0.3410 -0.1138 -0.1280
 6281TIP3    H140406   2.484   4.809   1.263 -0.9893 -1.0818  2.0837
 6281TIP3    H240407   2.556   4.685   1.215 -0.1296  0.3887 -0.6039
 6282TIP3   OH240408   0.425   1.135   8.195  0.0373 -0.1600  0.4448
 6282TIP3    H140409   0.474   1.192   8.255  0.1865 -0.0815  0.2515
 6282TIP3    H240410   0.489   1.068   8.169  0.8853  1.3705 -1.8095
 6283TIP3   OH240411   3.484   2.850   0.902  0.0693 -0.5630  0.5589
 6283TIP3    H140412   3.434   2.812   0.974 -0.6820 -0.2745  0.2029
 6283TIP3    H240413   3.552   2.902   0.945  0.4539 -1.4589  1.0481
 6284TIP3   OH240414   6.251   5.062   0.568 -0.2770 -0.0132 -0.6868
 6284TIP3    H140415   6.235   5.157   0.571 -0.2727 -0.0393  0.5768
 6284TIP3    H240416   6.303   5.049   0.489  0.7243  1.2032 -0.2660
 6285TIP3   OH240417   6.191   0.565   1.676  0.2869 -0.2385 -0.5833
 6285TIP3    H140418   6.114   0.579   1.620  0.2438 -1.8992 -0.9838
 6285TIP3    H240419   6.189   0.472   1.697  1.9332 -0.2204 -0.2126
 6286TIP3   OH240420   4.440   6.704   0.024 -0.3000 -0.5810  0.4099
 6286TIP3    H140421   4.534   6.697   0.012 -0.5431  0.1920 -2.6199
 6286TIP3    H240422   4.430   6.758   0.103  1.8454  1.2517 -0.4643
 6287TIP3   OH240423   2.657   6.781   7.537  0.6390 -0.0261  0.0566
 6287TIP3    H140424   2.591   6.711   7.533 -0.0553  0.5835  0.5752
 6287TIP3    H240425   2.615   6.856   7.495  0.9184  0.4331  0.5871
 6288TIP3   OH240426   5.937   5.694   7.014  0.4243 -0.2015  0.4282
 6288TIP3    H140427   5.938   5.613   6.964  0.9494 -0.5098  0.9244
 6288TIP3    H240428   6.008   5.746   6.977 -0.7155  0.5730 -0.7379
 6289TIP3   OH240429   1.905   0.675   7.931 -0.0316  0.7751 -0.1371
 6289TIP3    H140430   1.977   0.644   7.987  0.6858  2.0488 -0.3420
 6289TIP3    H240431   1.845   0.718   7.992 -0.1663  0.5448 -0.1032
 6290TIP3   OH240432   5.288   0.183   8.157  0.2016 -0.9402  0.6311
 6290TIP3    H140433   5.255   0.259   8.206 -0.2355 -0.2555 -0.6967
 6290TIP3    H240434   5.226   0.113   8.176 -0.5045 -0.4141  0.3188
 6291TIP3   OH240435   6.074   6.778   0.405 -0.1903  0.1999 -0.4593
 6291TIP3    H140436   6.122   6.847   0.358  0.3570 -0.3507 -0.7265
 6291TIP3    H240437   6.096   6.698   0.358 -0.0221 -0.2941  0.4351
 6292TIP3   OH240438   1.605   0.645   8.625  0.1139  0.3692  0.0404
 6292TIP3    H140439   1.659   0.571   8.597  1.4515  1.4342 -0.3080
 6292TIP3    H240440   1.653   0.684   8.698 -0.1686  1.3427 -0.2732
 6293TIP3   OH240441   3.039   2.503   0.536 -0.2101  0.2092 -0.1372
 6293TIP3    H140442   2.954   2.534   0.505 -2.0322 -1.1942  2.9744
 6293TIP3    H240443   3.042   2.411   0.508  0.4187  0.2957 -0.3872
 6294TIP3   OH240444   4.300   4.279   6.664 -0.3525  0.3750  0.3363
 6294TIP3    H140445   4.311   4.369   6.694  2.9216 -0.3015  1.6687
 6294TIP3    H240446   4.299   4.227   6.745  0.1715 -0.9311 -0.4642
 6295TIP3   OH240447   3.773   6.652   8.450 -0.0284  0.0847 -0.2221
 6295TIP3    H140448   3.690   6.630   8.408 -0.7173  0.0180  1.1178
 6295TIP3    H240449   3.791   6.576   8.506 -0.2486  1.0563  1.2163
 6296TIP3   OH240450   3.401   3.900   7.542 -0.4283  1.0919 -0.2174
 6296TIP3    H140451   3.325   3.841   7.542 -0.1382  0.5621  2.4109
 6296TIP3    H240452   3.442   3.886   7.457 -1.5299 -0.9849 -0.4871
 6297TIP3   OH240453   5.209   5.427   7.583 -0.1636 -0.0580 -0.2655
 6297TIP3    H140454   5.292   5.450   7.540 -0.7212 -0.1801 -1.4516
 6297TIP3    H240455   5.182   5.346   7.540 -0.6719 -0.2707  0.4433
 6298TIP3   OH240456   2.469   0.600   7.906 -0.0682  0.2769 -0.5276
 6298TIP3    H140457   2.478   0.536   7.977  0.8205  0.1528 -0.7416
 6298TIP3    H240458   2.446   0.682   7.950 -1.3974 -0.2131 -0.2675
 6299TIP3   OH240459   6.690   3.762   1.858 -0.0944 -0.1510 -0.0319
 6299TIP3    H140460   6.624   3.811   1.907  0.7922  0.9521  0.1186
 6299TIP3    H240461   6.663   3.768   1.767  1.2493  2.8353 -0.3566
 6300TIP3   OH240462   2.145   5.622   0.817 -0.2877  0.4321 -0.1592
 6300TIP3    H140463   2.154   5.527   0.809  0.9779  0.5446 -0.2069
 6300TIP3    H240464   2.199   5.657   0.747 -1.6723  1.1973 -0.8999
 6301TIP3   OH240465   0.864   6.411   7.562 -0.5550  0.0161 -0.0389
 6301TIP3    H140466   0.837   6.483   7.620 -2.1338 -2.0066  1.9246
 6301TIP3    H240467   0.803   6.416   7.488 -0.7409  0.6096  0.1485
 6302TIP3   OH240468   0.909   6.618   0.960 -0.1274 -0.6133  0.2275
 6302TIP3    H140469   0.883   6.672   0.886  0.7450 -0.6070 -0.0918
 6302TIP3    H240470   0.837   6.626   1.023 -0.9773 -0.7819 -0.6999
 6303TIP3   OH240471   0.039   4.479   2.082 -0.2866 -0.0547  0.3408
 6303TIP3    H140472   0.087   4.398   2.068  1.4662  0.6309  2.0467
 6303TIP3    H240473   0.089   4.526   2.149 -1.3403  2.3611 -0.4566
 6304TIP3   OH240474   5.822   5.397   7.036 -0.5263  0.1185  0.6618
 6304TIP3    H140475   5.904   5.369   6.994  0.6351  1.4317  1.9336
 6304TIP3    H240476   5.762   5.324   7.020  0.3308 -0.1820 -1.7657
 6305TIP3   OH240477   3.559   5.590   6.805  0.3200  0.4649 -0.4398
 6305TIP3    H140478   3.491   5.614   6.743  0.5422  0.5005 -0.6694
 6305TIP3    H240479   3.630   5.556   6.752  0.0916 -0.5319 -0.1274
 6306TIP3   OH240480   3.598   2.020   8.592 -0.5257 -0.1360  0.0544
 6306TIP3    H140481   3.636   1.975   8.516 -1.8542 -0.5176 -0.4120
 6306TIP3    H240482   3.666   2.016   8.659  0.8974  0.6703 -1.2618
 6307TIP3   OH240483   3.061   1.210   7.645 -0.1748 -0.0434  0.6283
 6307TIP3    H140484   3.020   1.179   7.565  1.9549  0.2895 -0.6703
 6307TIP3    H240485   3.125   1.275   7.616  0.5615  0.1926  2.6070
 6308TIP3   OH240486   0.923   1.801   0.443  0.1742 -0.4746 -0.5154
 6308TIP3    H140487   0.983   1.863   0.402  2.0614 -0.1215  2.4072
 6308TIP3    H240488   0.856   1.856   0.483 -1.2789 -0.7703 -2.4258
 6309TIP3   OH240489   5.516   2.444   1.957 -0.2450 -0.2333 -0.0945
 6309TIP3    H140490   5.595   2.462   2.008  0.1420  0.2510 -0.8404
 6309TIP3    H240491   5.446   2.439   2.021  0.4849 -1.2865  0.6484
 6310TIP3   OH240492   1.571   1.068   7.642 -0.2197  0.3802  0.7047
 6310TIP3    H140493   1.585   0.984   7.686 -0.5527  1.4066  2.8611
 6310TIP3    H240494   1.641   1.073   7.577  1.9131 -0.0633  2.8504
 6311TIP3   OH240495   3.396   1.891   0.271  0.4857 -0.1064  0.7356
 6311TIP3    H140496   3.459   1.961   0.254 -0.3915  0.6944  0.6507
 6311TIP3    H240497   3.311   1.930   0.251  0.0513 -1.5815 -0.5270
 6312TIP3   OH240498   1.144   3.881   7.307 -0.2361  0.4517 -0.1447
 6312TIP3    H140499   1.088   3.930   7.368  2.4777  0.4584  2.6029
 6312TIP3    H240500   1.107   3.793   7.307 -1.0368  0.7701  0.5522
 6313TIP3   OH240501   1.144   5.903   0.229  0.1778  0.3887  0.2237
 6313TIP3    H140502   1.108   5.965   0.165 -1.1382  0.4370  0.9696
 6313TIP3    H240503   1.216   5.951   0.270 -0.4978  1.2497  0.4323
 6314TIP3   OH240504   0.205   6.130   0.657  0.1851  0.2891 -0.0534
 6314TIP3    H140505   0.202   6.130   0.561  1.9127 -0.1905 -0.1442
 6314TIP3    H240506   0.113   6.123   0.684 -0.3712  0.9275 -1.6572
 6315TIP3   OH240507   4.704   1.741   8.779 -0.2134  0.4435  0.1364
 6315TIP3    H140508   4.701   1.792   8.860  1.7970 -1.9619  1.8779
 6315TIP3    H240509   4.794   1.751   8.748 -0.5499  0.1214 -0.9890
 6316TIP3   OH240510   0.758   1.217   8.153  0.1285  0.0696 -0.3320
 6316TIP3    H140511   0.724   1.306   8.153 -0.7847 -0.2691 -0.8821
 6316TIP3    H240512   0.751   1.189   8.245  0.0859  0.4365 -0.2220
 6317TIP3   OH240513   5.879   2.635   0.929 -0.8356  0.0260 -0.6396
 6317TIP3    H140514   5.912   2.725   0.926 -0.3242 -0.1937 -2.1145
 6317TIP3    H240515   5.793   2.642   0.972  0.0799  0.9151  1.1675
 6318TIP3   OH240516   6.244   5.920   7.271 -0.0194  0.0709 -0.4418
 6318TIP3    H140517   6.252   6.008   7.233  0.4542 -0.0803 -0.7126
 6318TIP3    H240518   6.197   5.933   7.353 -2.5483  0.2148 -1.8063
 6319TIP3   OH240519   2.890   6.397   0.494 -0.2163  0.0190 -0.1183
 6319TIP3    H140520   2.897   6.486   0.460  1.4258 -0.1198 -0.2434
 6319TIP3    H240521   2.920   6.404   0.585 -0.6536 -0.3173  0.0578
 6320TIP3   OH240522   3.555   3.752   2.459 -0.4142 -0.1675 -0.1411
 6320TIP3    H140523   3.473   3.786   2.495 -0.3075  0.2752 -0.3089
 6320TIP3    H240524   3.615   3.827   2.461 -0.6592  0.1366 -2.0317
 6321TIP3   OH240525   5.904   6.104   2.077  0.1853  0.3576  0.0076
 6321TIP3    H140526   5.839   6.175   2.079 -0.7144 -0.4501  0.4333
 6321TIP3    H240527   5.859   6.032   2.033  0.9161 -0.1156  0.0223
 6322TIP3   OH240528   6.542   3.745   0.134 -0.8566  0.2067 -0.4299
 6322TIP3    H140529   6.494   3.819   0.170  0.9452  0.8329  0.8685
 6322TIP3    H240530   6.606   3.785   0.075 -1.5075 -0.5543 -1.6890
 6323TIP3   OH240531   3.585   0.184   1.122  0.2635  0.3583  0.4387
 6323TIP3    H140532   3.560   0.148   1.207  2.3285  1.9158  1.7928
 6323TIP3    H240533   3.650   0.122   1.088  2.5101  1.7345  1.9675
 6324TIP3   OH240534   2.938   6.482   7.135  0.2417 -0.1326  0.0248
 6324TIP3    H140535   3.022   6.436   7.141 -0.5200 -1.5835  0.0186
 6324TIP3    H240536   2.961   6.570   7.105  1.7499 -0.5324 -0.0692
 6325TIP3   OH240537   4.937   5.365   0.702  0.3623  0.0723  0.8059
 6325TIP3    H140538   5.032   5.361   0.711  0.5274  1.3513 -0.1128
 6325TIP3    H240539   4.915   5.286   0.653  0.8821 -0.4946  1.4611
 6326TIP3   OH240540   5.263   0.400   0.503  0.9560 -0.4518 -0.2893
 6326TIP3    H140541   5.231   0.478   0.549 -0.6626 -2.6847  2.7582
 6326TIP3    H240542   5.358   0.403   0.514  0.9532  1.1663 -0.4414
 6327TIP3   OH240543   3.298   6.701   1.448 -0.1761 -0.5651 -0.4252
 6327TIP3    H140544   3.230   6.724   1.385 -0.7836  0.3931  0.5639
 6327TIP3    H240545   3.254   6.701   1.533  1.1537  0.6295  0.3075
 6328TIP3   OH240546   4.584   0.780   7.181 -0.0679  0.0804 -0.5210
 6328TIP3    H140547   4.573   0.703   7.237 -0.0717  1.9824  2.3388
 6328TIP3    H240548   4.496   0.797   7.147 -0.6192  0.1886  0.8580
 6329TIP3   OH240549   6.782   2.802   8.226 -0.2277  0.3119  0.0843
 6329TIP3    H140550   6.783   2.717   8.181 -2.2252 -1.1509  2.5807
 6329TIP3    H240551   6.752   2.863   8.159  0.8934 -0.9773 -1.6847
 6330TIP3   OH240552   6.818   4.435   0.908 -0.0727 -0.0993 -0.1700
 6330TIP3    H140553   6.819   4.354   0.857  0.6849  2.2654 -4.2933
 6330TIP3    H240554   6.897   4.430   0.962  0.8938 -1.3939 -1.6235
 6331TIP3   OH240555   6.222   4.377   6.950 -0.7524  0.3492 -0.2994
 6331TIP3    H140556   6.295   4.438   6.946 -0.0857 -0.4168 -0.0930
 6331TIP3    H240557   6.257   4.294   6.916 -0.9100 -0.6118  1.7333
 6332TIP3   OH240558   0.655   2.514   0.699 -0.3478 -0.2989  0.9518
 6332TIP3    H140559   0.569   2.547   0.727 -0.2915  0.0119  0.7610
 6332TIP3    H240560   0.647   2.505   0.604 -0.0527  0.0878  0.8843
 6333TIP3   OH240561   5.678   5.993   8.469 -0.4272 -0.5622 -0.7522
 6333TIP3    H140562   5.732   6.064   8.435  1.7699  0.1335  3.5533
 6333TIP3    H240563   5.732   5.915   8.459 -1.1491 -0.9625 -1.7193
 6334TIP3   OH240564   1.964   6.703   2.396  0.2047  0.0847 -0.1976
 6334TIP3    H140565   2.000   6.768   2.336 -0.3181  0.3742 -0.2077
 6334TIP3    H240566   1.976   6.620   2.351  1.3071  0.1082  0.0209
 6335TIP3   OH240567   4.431   2.991   8.032 -0.3468 -0.3076  0.4007
 6335TIP3    H140568   4.396   3.050   8.099  0.7013  0.4137  0.3524
 6335TIP3    H240569   4.447   3.048   7.956  0.3432 -0.7084  0.2307
 6336TIP3   OH240570   4.273   3.161   6.500  0.5479  1.0770  0.0265
 6336TIP3    H140571   4.202   3.210   6.459  0.5118  0.2597 -0.9436
 6336TIP3    H240572   4.352   3.190   6.454  0.6643  1.0136  0.1855
 6337TIP3   OH240573   4.992   1.734   8.642  0.5181 -0.0677  0.7555
 6337TIP3    H140574   5.061   1.668   8.651 -1.3782 -2.2861  0.2154
 6337TIP3    H240575   4.992   1.757   8.549 -0.1250 -0.8888  0.5395
 6338TIP3   OH240576   2.740   6.113   6.398 -0.0938  0.1634  0.2280
 6338TIP3    H140577   2.694   6.196   6.388 -1.4906 -0.0932  3.3292
 6338TIP3    H240578   2.682   6.049   6.357 -0.5633  0.3574  0.5690
 6339TIP3   OH240579   0.665   0.241   1.105 -0.4325 -0.3469  0.0494
 6339TIP3    H140580   0.704   0.275   1.186 -0.7174  0.7912 -0.2656
 6339TIP3    H240581   0.645   0.150   1.125  2.2591 -0.9788  0.2708
 6340TIP3   OH240582   5.444   5.699   6.266  0.4776 -0.2443 -0.3613
 6340TIP3    H140583   5.355   5.687   6.300  1.0610 -1.1982  0.9276
 6340TIP3    H240584   5.489   5.750   6.334  0.4755  1.7875 -1.7980
 6341TIP3   OH240585   5.100   2.302   0.989  0.2962  0.1163  0.8251
 6341TIP3    H140586   5.009   2.285   1.014  0.2900 -1.6975 -0.2568
 6341TIP3    H240587   5.094   2.370   0.922 -0.2787 -0.1352  0.6165
 6342TIP3   OH240588   6.743   6.472   0.454 -0.6073  0.2920  0.1736
 6342TIP3    H140589   6.665   6.418   0.443 -1.3457  1.3992 -0.2601
 6342TIP3    H240590   6.746   6.491   0.548  0.8085 -2.0929  0.6988
 6343TIP3   OH240591   1.772   3.297   6.451 -0.2487 -0.0118  0.1012
 6343TIP3    H140592   1.809   3.217   6.414  0.3176  0.6054 -0.7425
 6343TIP3    H240593   1.848   3.344   6.487 -0.4323  0.5293 -0.1937
 6344TIP3   OH240594   1.412   0.197   2.119  0.6864 -0.5603 -0.6394
 6344TIP3    H140595   1.381   0.190   2.209  2.4768 -2.0475 -0.0552
 6344TIP3    H240596   1.507   0.210   2.128  0.6318  1.3919 -2.3167
 6345TIP3   OH240597   0.503   3.398   1.891  0.0582 -0.0413 -0.1265
 6345TIP3    H140598   0.415   3.372   1.862 -0.2642  0.9701 -0.0911
 6345TIP3    H240599   0.538   3.319   1.932 -0.7827 -0.5070 -0.2708
 6346TIP3   OH240600   5.686   6.801   7.593 -0.1601  0.0064  0.1992
 6346TIP3    H140601   5.670   6.745   7.518 -0.5734 -0.5448  0.6861
 6346TIP3    H240602   5.781   6.794   7.608  0.0400  0.6749 -0.6814
 6347TIP3   OH240603   6.212   6.505   0.515  0.7953  0.2152  0.1207
 6347TIP3    H140604   6.279   6.442   0.490  0.0515 -0.8623  0.7120
 6347TIP3    H240605   6.258   6.572   0.565  1.6577  0.3429 -0.8211
 6348TIP3   OH240606   4.542   6.008   0.036  0.1045  0.3804  0.3279
 6348TIP3    H140607   4.600   6.059  -0.021  2.6617  0.5657  2.8278
 6348TIP3    H240608   4.573   5.918   0.027  0.8937  0.4857  1.7253
 6349TIP3   OH240609   2.698   6.381   7.054 -0.4729  0.1014 -0.0124
 6349TIP3    H140610   2.694   6.443   6.982 -0.6323  1.0332  0.7770
 6349TIP3    H240611   2.774   6.409   7.105 -0.6597 -0.2319  0.4554
 6350TIP3   OH240612   4.921   4.280   6.755 -0.0527 -0.0138  0.1661
 6350TIP3    H140613   4.855   4.221   6.793 -0.7845  1.0595  0.6159
 6350TIP3    H240614   4.886   4.301   6.668  0.2791 -0.3467 -0.0498
 6351TIP3   OH240615   6.746   5.536   1.331 -0.2435 -0.4566  0.1450
 6351TIP3    H140616   6.687   5.465   1.307  0.2953 -1.2279  1.0597
 6351TIP3    H240617   6.832   5.495   1.336  0.4915  0.7428 -1.6368
 6352TIP3   OH240618   1.992   5.845   0.772 -0.0358 -0.6901  0.0520
 6352TIP3    H140619   2.018   5.756   0.751 -0.5459 -1.1019  1.1388
 6352TIP3    H240620   2.014   5.895   0.693  0.5888 -1.6952 -0.4317
 6353TIP3   OH240621   5.898   1.850   7.523  0.0207 -0.0884 -0.0724
 6353TIP3    H140622   5.902   1.871   7.429  0.9233 -1.2074 -0.3094
 6353TIP3    H240623   5.988   1.862   7.553 -0.0536 -0.7429  0.4176
 6354TIP3   OH240624   1.875   2.690   7.786 -0.0648 -0.4102  0.1433
 6354TIP3    H140625   1.801   2.735   7.826 -0.4121  0.2092 -1.1126
 6354TIP3    H240626   1.843   2.602   7.768 -0.3529 -0.2788  0.0089
 6355TIP3   OH240627   6.451   3.569   0.500 -0.3568 -0.2080 -0.2781
 6355TIP3    H140628   6.471   3.523   0.418 -0.5665  0.6798 -0.8504
 6355TIP3    H240629   6.378   3.520   0.538 -1.5043  0.4164 -1.5754
 6356TIP3   OH240630   2.931   4.750   7.741  0.1971 -0.0676  0.2998
 6356TIP3    H140631   2.899   4.660   7.739  2.9366 -1.1450  1.0503
 6356TIP3    H240632   2.979   4.760   7.659 -1.2220  1.2404 -0.4271
 6357TIP3   OH240633   5.204   3.918   8.542 -0.7304  0.3400 -0.1082
 6357TIP3    H140634   5.131   3.910   8.481  0.9518 -0.0190 -2.2103
 6357TIP3    H240635   5.232   4.009   8.534 -1.0732  0.5399  0.8682
 6358TIP3   OH240636   2.210   0.913   1.392  0.1900 -0.4933 -0.3420
 6358TIP3    H140637   2.164   0.933   1.474  0.5760  2.0063 -0.6599
 6358TIP3    H240638   2.297   0.883   1.420 -0.5519 -2.3107  0.1724
 6359TIP3   OH240639   1.301   5.481   0.566  0.2359 -0.0401  0.0410
 6359TIP3    H140640   1.232   5.449   0.624  1.7632 -0.5892  1.6721
 6359TIP3    H240641   1.382   5.458   0.612  1.4927  1.0892 -1.5208
 6360TIP3   OH240642   2.912   1.024   1.442  0.2659  0.5230  0.2569
 6360TIP3    H140643   2.912   1.038   1.536 -0.3602  1.2497  0.1622
 6360TIP3    H240644   2.912   1.112   1.404 -0.9828  0.2696 -0.4023
 6361TIP3   OH240645   4.300   0.147   1.145  0.4199  0.2218 -0.9669
 6361TIP3    H140646   4.280   0.117   1.233  0.4463  1.2927 -0.5770
 6361TIP3    H240647   4.383   0.105   1.123  0.3028 -0.2195 -0.5678
 6362TIP3   OH240648   3.963   6.067   8.679 -0.1523  0.0666 -0.0714
 6362TIP3    H140649   3.948   6.013   8.756 -0.3593 -0.1722 -0.2829
 6362TIP3    H240650   3.964   6.006   8.606 -0.3376  0.3399 -0.3041
 6363TIP3   OH240651   0.826   1.961   0.097  0.1895 -0.2985 -0.0588
 6363TIP3    H140652   0.861   1.926   0.015  1.3156 -1.0284  0.7169
 6363TIP3    H240653   0.847   1.896   0.163 -2.7032 -0.8160  0.4926
 6364TIP3   OH240654   4.020   4.065   8.374  0.3848 -0.2332  0.1542
 6364TIP3    H140655   3.925   4.078   8.372  0.3815  0.1957  1.9246
 6364TIP3    H240656   4.056   4.143   8.331 -0.0446 -0.4250 -0.5770
 6365TIP3   OH240657   5.496   4.048   0.713 -0.0926  0.3529 -0.5245
 6365TIP3    H140658   5.512   4.137   0.745  2.3803 -1.0487  2.7001
 6365TIP3    H240659   5.577   4.025   0.667 -0.3588 -0.5307 -0.5601
 6366TIP3   OH240660   0.086   5.837   1.404 -0.2286  0.0205  0.0837
 6366TIP3    H140661   0.082   5.933   1.394  0.5473  0.0537  0.0315
 6366TIP3    H240662   0.111   5.824   1.495  0.9721 -0.0960 -0.2502
 6367TIP3   OH240663   3.278   2.082   7.213  0.2720  0.2599 -0.3929
 6367TIP3    H140664   3.289   2.155   7.273  0.0683  0.0260 -0.0647
 6367TIP3    H240665   3.366   2.048   7.200  0.0453 -1.6465  2.2701
 6368TIP3   OH240666   2.105   4.134   7.323  0.5211 -0.3891  0.2716
 6368TIP3    H140667   2.047   4.082   7.379 -0.3677  0.5241  0.2374
 6368TIP3    H240668   2.049   4.160   7.249  0.8483  0.8418  0.4334
 6369TIP3   OH240669   2.345   3.738   0.909  0.1121  0.2963  0.5529
 6369TIP3    H140670   2.355   3.716   1.002  0.0811  2.7249  1.2021
 6369TIP3    H240671   2.370   3.658   0.863  1.7712 -0.4881  2.6111
 6370TIP3   OH240672   3.907   2.849   6.535 -0.3646  0.4626  0.0461
 6370TIP3    H140673   3.888   2.911   6.605 -0.7818 -0.9224  1.2169
 6370TIP3    H240674   3.824   2.804   6.520  0.4159 -1.3555  0.8425
 6371TIP3   OH240675   0.858   1.616   1.291 -0.2297 -0.1799 -0.2305
 6371TIP3    H140676   0.871   1.582   1.202 -0.1978 -3.7034  0.9683
 6371TIP3    H240677   0.777   1.573   1.321 -2.0232  3.3203  0.4874
 6372TIP3   OH240678   0.124   3.684   8.389 -0.1311  0.6537  0.9874
 6372TIP3    H140679   0.164   3.691   8.302 -0.1256  0.2635  0.9570
 6372TIP3    H240680   0.141   3.769   8.430 -1.2150  1.2910  0.1575
 6373TIP3   OH240681   1.537   1.602   0.780  0.1592 -0.2070  0.1568
 6373TIP3    H140682   1.609   1.564   0.731  1.2219  0.6277  1.0237
 6373TIP3    H240683   1.462   1.545   0.762  1.6028 -2.5695  1.1894
 6374TIP3   OH240684   4.704   2.452   1.524 -0.0788 -0.5258 -0.1487
 6374TIP3    H140685   4.737   2.540   1.510  1.1485 -0.9548 -0.0077
 6374TIP3    H240686   4.766   2.411   1.583 -0.5094 -1.5610 -0.3775
 6375TIP3   OH240687   0.269   1.320   1.900  0.0521 -0.7435  0.2526
 6375TIP3    H140688   0.176   1.311   1.920  0.2392 -0.1804  1.4199
 6375TIP3    H240689   0.285   1.415   1.898  0.9570 -0.8304  1.8639
 6376TIP3   OH240690   5.072   4.416   7.116 -0.0040  0.1980 -0.2880
 6376TIP3    H140691   5.036   4.479   7.054 -0.9467 -0.0517 -0.0049
 6376TIP3    H240692   5.161   4.399   7.084 -0.0603  0.9785 -0.8793
 6377TIP3   OH240693   1.409   3.578   1.195  0.7153 -0.4930 -0.1080
 6377TIP3    H140694   1.402   3.600   1.288  1.0134  0.9055 -0.3885
 6377TIP3    H240695   1.484   3.629   1.164  0.6982 -1.0371 -1.0967
 6378TIP3   OH240696   6.592   1.686   1.079 -0.1189  0.3203 -0.2988
 6378TIP3    H140697   6.642   1.702   0.999  0.8765  1.6825  0.5545
 6378TIP3    H240698   6.516   1.637   1.050  0.6337  0.0741 -1.9628
 6379TIP3   OH240699   1.439   4.936   0.151 -0.6258 -0.2056 -0.0806
 6379TIP3    H140700   1.427   4.922   0.245 -1.0141  0.7000  0.0092
 6379TIP3    H240701   1.387   4.867   0.110 -1.8139  0.4028  0.3625
 6380TIP3   OH240702   0.902   0.352   0.399 -0.1837 -0.6842  0.2381
 6380TIP3    H140703   0.913   0.437   0.356 -2.2278 -0.4436  0.1137
 6380TIP3    H240704   0.916   0.288   0.329  1.7930 -0.5274  0.4206
 6381TIP3   OH240705   5.382   3.711   7.511  0.1332 -0.5490  0.2068
 6381TIP3    H140706   5.461   3.738   7.464 -0.2934 -3.4038 -2.5566
 6381TIP3    H240707   5.404   3.721   7.603  3.4090 -0.3405 -0.4597
 6382TIP3   OH240708   6.566   0.145   7.994  0.1408  0.0858 -0.4326
 6382TIP3    H140709   6.493   0.201   7.966 -0.3394 -0.5314 -0.4302
 6382TIP3    H240710   6.524   0.071   8.038  0.6866 -0.9213 -1.5545
 6383TIP3   OH240711   6.817   3.359   6.928  0.7777  0.2090  0.3602
 6383TIP3    H140712   6.891   3.418   6.912 -0.0129  0.9121 -0.8573
 6383TIP3    H240713   6.776   3.349   6.843 -2.2066  2.1438  1.4104
 6384TIP3   OH240714   5.512   6.295   8.390  0.0782  0.3844 -0.3426
 6384TIP3    H140715   5.524   6.232   8.318 -1.2685 -0.8050  0.4236
 6384TIP3    H240716   5.587   6.355   8.382  0.6193 -0.4409 -1.9808
 6385TIP3   OH240717   1.315   1.878   0.464 -0.2075 -0.3888  0.3265
 6385TIP3    H140718   1.256   1.953   0.476 -1.1669 -1.3656  2.0125
 6385TIP3    H240719   1.385   1.892   0.528  0.5795 -0.0571 -0.5776
 6386TIP3   OH240720   3.823   1.459   0.205  0.4808 -0.1706  0.3266
 6386TIP3    H140721   3.906   1.465   0.157  0.4031 -0.1744  0.1911
 6386TIP3    H240722   3.823   1.535   0.262  0.1924  0.2969 -0.2857
 6387TIP3   OH240723   0.702   4.839   1.891  0.0315 -0.2931  0.1344
 6387TIP3    H140724   0.620   4.844   1.941 -1.2610  1.7042 -1.9904
 6387TIP3    H240725   0.744   4.923   1.906 -0.1380  0.1409 -1.6799
 6388TIP3   OH240726   0.977   1.963   2.260 -0.1750 -0.1943 -0.3190
 6388TIP3    H140727   1.056   2.014   2.275  0.0737  0.2388 -2.6385
 6388TIP3    H240728   1.007   1.873   2.250 -0.1656 -0.2579  0.2818
 6389TIP3   OH240729   5.385   5.280   6.681 -0.3286  0.3599  0.1596
 6389TIP3    H140730   5.461   5.221   6.681 -0.9570 -0.4751  0.7605
 6389TIP3    H240731   5.401   5.339   6.607  0.8793  0.1681  0.2484
 6390TIP3   OH240732   2.618   2.324   1.333 -0.3863 -0.4305  0.5570
 6390TIP3    H140733   2.582   2.412   1.348  0.8914 -0.1303  2.1514
 6390TIP3    H240734   2.648   2.325   1.242 -0.5807  0.7110  0.4912
 6391TIP3   OH240735   6.685   5.198   7.876 -0.0359 -0.3126  0.5079
 6391TIP3    H140736   6.652   5.288   7.869  0.4596 -0.2004 -0.5601
 6391TIP3    H240737   6.735   5.198   7.958  0.4522  0.5589  0.2245
 6392TIP3   OH240738   2.752   4.913   7.021 -0.0051 -0.0656  0.6275
 6392TIP3    H140739   2.815   4.843   7.038  0.7511  0.7240  1.1643
 6392TIP3    H240740   2.805   4.986   6.988 -0.7509  0.3337  0.2909
 6393TIP3   OH240741   5.615   2.427   0.659  0.2320  0.0494 -0.2053
 6393TIP3    H140742   5.658   2.403   0.741  0.3959  0.0209 -0.3008
 6393TIP3    H240743   5.621   2.348   0.604 -0.9958 -0.3731  0.2166
 6394TIP3   OH240744   2.109   6.110   0.187 -0.5772 -0.7745 -0.2922
 6394TIP3    H140745   2.015   6.123   0.172 -0.6903 -0.4193  0.6406
 6394TIP3    H240746   2.149   6.193   0.164 -0.3144 -1.3216 -1.9266
 6395TIP3   OH240747   6.542   6.477   8.224 -0.3588 -0.2100  0.1007
 6395TIP3    H140748   6.583   6.415   8.163  0.3736 -0.1237  0.4984
 6395TIP3    H240749   6.457   6.438   8.244 -1.3147  0.5288 -2.2218
 6396TIP3   OH240750   0.737   5.244   0.482 -0.2138  0.4889  0.3223
 6396TIP3    H140751   0.782   5.255   0.567  2.6416 -2.3517 -0.6238
 6396TIP3    H240752   0.794   5.289   0.420 -1.2717  0.8759 -0.3919
 6397TIP3   OH240753   0.259   3.164   6.800  0.7694  0.3893  0.2550
 6397TIP3    H140754   0.249   3.254   6.833  0.5334  0.7555 -0.7798
 6397TIP3    H240755   0.310   3.120   6.868 -1.4319  0.5181  2.1169
 6398TIP3   OH240756   2.216   3.155   8.730  0.1857 -0.3308  0.4437
 6398TIP3    H140757   2.300   3.201   8.729  0.0999 -0.1702  0.6055
 6398TIP3    H240758   2.192   3.151   8.822 -0.1486 -0.0775  0.3659
 6399TIP3   OH240759   2.823   4.681   0.703 -0.0876  0.1750  0.0636
 6399TIP3    H140760   2.825   4.772   0.733  2.1337  0.5300 -0.9290
 6399TIP3    H240761   2.798   4.686   0.611  1.0715 -0.0628 -0.2893
 6400TIP3   OH240762   3.168   2.268   7.946  0.5589 -0.3374 -0.2627
 6400TIP3    H140763   3.213   2.186   7.965  0.6388 -0.4199 -0.7997
 6400TIP3    H240764   3.128   2.255   7.860  0.3241  0.0804 -0.2223
 6401TIP3   OH240765   6.758   0.802   1.883 -0.0594  0.0257 -0.3632
 6401TIP3    H140766   6.666   0.828   1.894  0.1962  0.5748  0.6357
 6401TIP3    H240767   6.802   0.840   1.959  0.6335 -1.9883  0.3054
 6402TIP3   OH240768   1.247   6.130   1.793 -0.2974  0.0476 -0.7272
 6402TIP3    H140769   1.209   6.154   1.708 -0.7336  0.1285 -0.5123
 6402TIP3    H240770   1.266   6.037   1.785  2.0446  0.5365 -1.8149
 6403TIP3   OH240771   0.547   2.021   7.791 -0.0604  0.0783  0.4998
 6403TIP3    H140772   0.456   2.032   7.764  0.4130  1.3689 -0.6967
 6403TIP3    H240773   0.554   1.929   7.818 -1.3253 -0.4717 -0.9362
 6404TIP3   OH240774   3.470   4.607   6.517 -0.2997 -0.1363  0.1074
 6404TIP3    H140775   3.440   4.517   6.511  0.9410 -0.6425  1.1245
 6404TIP3    H240776   3.516   4.612   6.601 -0.3956  1.4587  0.1014
 6405TIP3   OH240777   0.852   0.341   2.192 -0.0123  0.9250  0.0183
 6405TIP3    H140778   0.900   0.424   2.193 -0.2395  1.1521  3.2459
 6405TIP3    H240779   0.919   0.274   2.176  0.3465  1.5985 -1.4909
 6406TIP3   OH240780   2.930   1.717   6.260 -0.0166  0.0133 -0.1437
 6406TIP3    H140781   2.904   1.717   6.352  1.0070  1.6491  0.1688
 6406TIP3    H240782   2.860   1.766   6.216  0.5026  0.9817  0.0886
 6407TIP3   OH240783   4.677   5.608   6.936  0.1719  0.3296 -0.1720
 6407TIP3    H140784   4.746   5.571   6.991  0.7427 -0.6968 -1.5144
 6407TIP3    H240785   4.602   5.618   6.994 -0.0976 -3.1970  0.2880
 6408TIP3   OH240786   5.602   6.752   2.273  0.4948 -0.3155  0.5036
 6408TIP3    H140787   5.573   6.809   2.344  1.9771  0.2206  0.7109
 6408TIP3    H240788   5.697   6.756   2.276  0.5966 -0.5516 -1.3122
 6409TIP3   OH240789   1.502   4.660   8.557  0.1957 -0.0418 -0.3415
 6409TIP3    H140790   1.410   4.636   8.549  0.5223 -1.5143  0.0208
 6409TIP3    H240791   1.521   4.709   8.477 -1.3176  1.8270  0.3654
 6410TIP3   OH240792   0.301   5.969   7.488 -0.4659 -0.3605  0.1703
 6410TIP3    H140793   0.393   5.948   7.469  0.1399  2.7373 -0.9192
 6410TIP3    H240794   0.257   5.961   7.404  0.3192  4.5325 -0.9665
 6411TIP3   OH240795   0.987   0.760   8.441 -0.3961 -0.4882 -0.6595
 6411TIP3    H140796   0.979   0.741   8.535 -0.1315 -1.2222 -0.7782
 6411TIP3    H240797   1.058   0.702   8.411 -2.1706 -2.1782 -1.8367
 6412TIP3   OH240798   2.608   2.878   0.699 -0.1317  0.2742 -0.3667
 6412TIP3    H140799   2.627   2.787   0.723  0.4975  0.6890  0.7882
 6412TIP3    H240800   2.635   2.885   0.608  0.1482 -0.6069 -0.3663
 6413TIP3   OH240801   4.597   1.778   7.331 -0.6959  0.0598  0.2008
 6413TIP3    H140802   4.532   1.711   7.309 -0.6609 -0.0489  0.4342
 6413TIP3    H240803   4.582   1.847   7.266 -2.5343  1.0343  1.5643
 6414TIP3   OH240804   6.781   6.648   7.356 -0.7439  0.4197  0.0021
 6414TIP3    H140805   6.752   6.649   7.265 -0.7391  0.4231  0.0004
 6414TIP3    H240806   6.751   6.563   7.389 -0.8713  0.4800  0.0379
 6415TIP3   OH240807   5.776   4.281   2.007  0.0566 -0.2672  0.1602
 6415TIP3    H140808   5.820   4.265   2.091 -0.2807 -3.3725 -0.1397
 6415TIP3    H240809   5.687   4.309   2.032  0.1029 -0.6911  0.8311
 6416TIP3   OH240810   2.890   0.101   0.351 -0.3501  0.2444 -0.6479
 6416TIP3    H140811   2.905   0.097   0.257 -1.0152 -0.2880 -0.7349
 6416TIP3    H240812   2.795   0.092   0.361 -0.2114 -0.5179  0.1107
 6417TIP3   OH240813   4.551   0.310   7.907  0.2593 -0.2341  0.1830
 6417TIP3    H140814   4.643   0.333   7.915  0.3217 -0.1949 -0.5954
 6417TIP3    H240815   4.551   0.214   7.901  0.3115 -0.1949 -0.5282
 6418TIP3   OH240816   2.124   3.790   6.089  0.2866 -0.0428 -0.1063
 6418TIP3    H140817   2.077   3.871   6.073 -0.8347 -0.2412  1.8376
 6418TIP3    H240818   2.210   3.817   6.122  0.0468  0.3567  0.1902
 6419TIP3   OH240819   0.994   6.299   1.880  0.4138 -0.2075 -0.3362
 6419TIP3    H140820   1.040   6.217   1.859  0.0395 -0.5833  0.2750
 6419TIP3    H240821   1.004   6.309   1.974  0.1158  0.2473 -0.3499
 6420TIP3   OH240822   3.853   0.211   1.349  0.2396  0.0171  0.1575
 6420TIP3    H140823   3.939   0.254   1.347 -0.3351  1.1609 -0.9337
 6420TIP3    H240824   3.822   0.213   1.259 -1.5036  0.8284  0.7258
 6421TIP3   OH240825   2.487   2.939   1.457  0.5691  0.1733  0.0517
 6421TIP3    H140826   2.474   2.868   1.394  1.9029  0.3913 -0.5110
 6421TIP3    H240827   2.515   3.014   1.404 -0.6909  1.1057  0.6483
 6422TIP3   OH240828   2.056   4.109   0.089 -0.0558 -0.4664  0.1324
 6422TIP3    H140829   2.060   4.022   0.049  2.6450  0.3413 -1.5961
 6422TIP3    H240830   2.018   4.165   0.021 -0.7792 -0.0421  0.8530
 6423TIP3   OH240831   4.472   1.518   7.334  0.0094  0.7302 -0.7629
 6423TIP3    H140832   4.496   1.457   7.264 -2.6380 -0.4712 -0.7609
 6423TIP3    H240833   4.513   1.483   7.412 -0.9911 -0.8083 -0.8725
 6424TIP3   OH240834   4.227   5.927   1.431  0.3577  0.4568 -0.1434
 6424TIP3    H140835   4.312   5.894   1.400 -0.1642 -0.1898 -0.9169
 6424TIP3    H240836   4.198   5.862   1.495 -0.3909 -0.3133 -1.2273
 6425TIP3   OH240837   2.875   2.736   7.521  0.1971 -0.1152 -0.7779
 6425TIP3    H140838   2.836   2.823   7.523  0.0172 -0.1650 -1.6282
 6425TIP3    H240839   2.862   2.702   7.609 -0.9912  0.1790 -0.8131
 6426TIP3   OH240840   0.415   6.357   0.679  0.2370 -0.4682 -0.0742
 6426TIP3    H140841   0.483   6.346   0.746 -0.1801 -0.0169  0.4322
 6426TIP3    H240842   0.352   6.287   0.698 -0.1911  0.0401  0.3910
 6427TIP3   OH240843   3.870   3.434   8.154 -0.2107  0.0095  0.3516
 6427TIP3    H140844   3.876   3.529   8.144 -1.2020  0.1306  0.7621
 6427TIP3    H240845   3.837   3.402   8.070  0.6793 -0.0456  0.0144
 6428TIP3   OH240846   5.561   4.903   1.262  0.6810  0.2260 -0.5231
 6428TIP3    H140847   5.587   4.913   1.353 -1.2339  0.2570  0.0581
 6428TIP3    H240848   5.618   4.834   1.228  0.9094 -0.3114  0.8978
 6429TIP3   OH240849   3.493   0.352   0.119 -0.4642  0.3924  0.3335
 6429TIP3    H140850   3.420   0.343   0.057 -0.4531 -0.2342  0.3971
 6429TIP3    H240851   3.450   0.357   0.205 -0.4269 -0.8308  0.4502
 6430TIP3   OH240852   4.951   6.085   1.613  0.0692  0.7251 -0.4982
 6430TIP3    H140853   4.885   6.130   1.561 -0.8604 -0.4753 -0.3726
 6430TIP3    H240854   4.912   6.078   1.700 -0.7872 -2.2414 -1.0107
 6431TIP3   OH240855   2.646   2.224   0.215  0.0538 -0.6492 -0.4348
 6431TIP3    H140856   2.579   2.251   0.153 -1.4355 -0.6982  1.0640
 6431TIP3    H240857   2.607   2.150   0.261  1.7106 -1.5548 -0.4417
 6432TIP3   OH240858   2.402   6.557   1.775  0.3151 -0.0872  0.2969
 6432TIP3    H140859   2.341   6.536   1.846  0.9115  0.5777  1.0252
 6432TIP3    H240860   2.408   6.652   1.776  1.5868 -0.1559  0.4351
 6433TIP3   OH240861   1.583   1.397   1.430  0.2530  0.1862  0.0672
 6433TIP3    H140862   1.543   1.456   1.494  2.2596  0.5545  1.0643
 6433TIP3    H240863   1.594   1.314   1.478  0.1345 -0.0940 -0.3857
 6434TIP3   OH240864   3.523   0.371   7.191  0.0412 -0.2211 -0.0828
 6434TIP3    H140865   3.462   0.420   7.135  0.8287  0.9161  0.0181
 6434TIP3    H240866   3.473   0.295   7.221 -0.3901 -0.8900 -2.3469
 6435TIP3   OH240867   4.219   0.184   2.167  0.3149  0.0338  0.1201
 6435TIP3    H140868   4.130   0.203   2.198 -0.3218 -1.1092 -0.9290
 6435TIP3    H240869   4.256   0.129   2.236 -0.3188 -0.6863 -0.0936
 6436TIP3   OH240870   1.921   5.578   7.906  0.3104 -0.4745 -0.0237
 6436TIP3    H140871   1.882   5.490   7.904  0.5254 -0.6050  1.1343
 6436TIP3    H240872   1.879   5.624   7.833 -0.0925 -1.4159 -0.4026
 6437TIP3   OH240873   2.203   2.736   8.459  0.2597  0.1249  0.7197
 6437TIP3    H140874   2.177   2.790   8.385 -0.1741  0.3813  1.0520
 6437TIP3    H240875   2.204   2.796   8.534  0.6818 -0.1319  0.9258
 6438TIP3   OH240876   5.629   5.757   6.797  0.0602  0.1126 -0.0073
 6438TIP3    H140877   5.669   5.673   6.772 -0.4661  0.2033 -1.2405
 6438TIP3    H240878   5.669   5.821   6.738 -0.4068  0.5238  0.1190
 6439TIP3   OH240879   4.092   6.115   0.598  0.7576 -0.2301  0.2203
 6439TIP3    H140880   4.172   6.063   0.590  0.6071 -0.1742 -3.2980
 6439TIP3    H240881   4.021   6.052   0.588  0.4762  0.1668 -0.3560
 6440TIP3   OH240882   3.653   4.274   0.331  0.5368  0.1650  0.4169
 6440TIP3    H140883   3.566   4.251   0.300  0.9963 -0.0208 -0.7693
 6440TIP3    H240884   3.709   4.202   0.303  0.7923 -0.6484  2.7762
 6441TIP3   OH240885   3.877   0.757   0.246 -0.1732 -0.0976 -0.1516
 6441TIP3    H140886   3.884   0.662   0.239 -1.7930 -0.2558  0.1506
 6441TIP3    H240887   3.926   0.779   0.325 -0.0186 -0.7119 -0.0759
 6442TIP3   OH240888   1.948   2.077   0.378  0.1401  0.7478  0.1644
 6442TIP3    H140889   1.939   1.989   0.416 -0.2978  1.0154  0.7073
 6442TIP3    H240890   1.920   2.067   0.287  0.7184  0.1959  0.0431
 6443TIP3   OH240891   4.515   0.858   8.020  0.7992  0.1478  0.1837
 6443TIP3    H140892   4.457   0.836   7.948  0.9601 -1.4406  0.4880
 6443TIP3    H240893   4.484   0.942   8.052 -1.2909 -0.6033  0.2820
 6444TIP3   OH240894   5.474   1.629   6.601  0.0863 -0.2211 -0.0694
 6444TIP3    H140895   5.426   1.630   6.519 -0.0015 -1.0468 -0.0337
 6444TIP3    H240896   5.431   1.695   6.655  0.5668  0.8130 -0.9104
 6445TIP3   OH240897   4.466   0.182   7.040 -0.6943 -0.3052 -0.7081
 6445TIP3    H140898   4.373   0.190   7.017 -0.5684  0.4064 -0.9984
 6445TIP3    H240899   4.512   0.189   6.957 -0.4521 -2.8833 -0.8746
 6446TIP3   OH240900   4.026   5.717   6.260 -0.1220 -0.2340 -0.5048
 6446TIP3    H140901   3.944   5.764   6.246  0.2581 -0.1543 -2.7471
 6446TIP3    H240902   4.092   5.786   6.272  0.0472 -0.2316 -1.4131
 6447TIP3   OH240903   3.581   6.167   7.968  0.0441 -0.2248  0.1819
 6447TIP3    H140904   3.578   6.202   7.879  0.3479  0.8389  0.5714
 6447TIP3    H240905   3.552   6.076   7.959  1.0531 -0.4417 -1.1403
 6448TIP3   OH240906   3.365   0.851   7.085 -0.2000 -0.5527  0.4712
 6448TIP3    H140907   3.281   0.807   7.099  0.0487 -0.7221  1.4388
 6448TIP3    H240908   3.372   0.858   6.989 -2.3687  1.4734  0.3774
 6449TIP3   OH240909   5.837   3.473   0.840  0.0926 -0.4721  0.2537
 6449TIP3    H140910   5.746   3.499   0.828 -0.6692 -2.5857  0.9823
 6449TIP3    H240911   5.837   3.421   0.921  2.3097  1.0126  1.3192
 6450TIP3   OH240912   1.289   4.824   7.148 -0.1460 -0.3922 -0.2160
 6450TIP3    H140913   1.374   4.789   7.123  0.8411 -0.0749  2.3534
 6450TIP3    H240914   1.289   4.821   7.244 -2.1965  1.5420 -0.0593
 6451TIP3   OH240915   3.048   6.549   2.572  0.1010 -0.3585  0.0159
 6451TIP3    H140916   3.059   6.579   2.482  0.8812  0.0868  0.2484
 6451TIP3    H240917   3.029   6.456   2.564  0.9513 -0.4886 -0.5802
 6452TIP3   OH240918   6.645   4.059   8.213 -0.9339 -0.1085 -0.5150
 6452TIP3    H140919   6.575   4.059   8.148 -2.1104 -2.9774  0.6033
 6452TIP3    H240920   6.633   3.978   8.262  2.1693  0.1204  0.8811
 6453TIP3   OH240921   0.699   6.124   7.529  0.3956 -0.2397  0.7296
 6453TIP3    H140922   0.642   6.121   7.606  2.0095 -3.4455  1.9662
 6453TIP3    H240923   0.773   6.178   7.556  0.1877  0.0316  0.7719
 6454TIP3   OH240924   2.599   6.788   1.360  0.0188  0.3227  0.4921
 6454TIP3    H140925   2.571   6.776   1.269  0.8353 -0.5314  0.3417
 6454TIP3    H240926   2.519   6.778   1.411 -0.6928  2.1020 -0.1951
 6455TIP3   OH240927   0.736   3.889   1.389  0.6075  0.2198 -0.4165
 6455TIP3    H140928   0.664   3.889   1.325  0.6610 -0.9903 -0.5087
 6455TIP3    H240929   0.814   3.872   1.337  0.4637 -2.4258  0.0886
 6456TIP3   OH240930   2.558   5.361   7.965  0.0137  0.2523 -0.2534
 6456TIP3    H140931   2.618   5.340   7.893 -0.9694  0.7870 -1.2583
 6456TIP3    H240932   2.477   5.389   7.922 -1.1289 -0.8579  1.0770
 6457TIP3   OH240933   1.921   2.280   1.447 -0.1407 -0.3433  0.1844
 6457TIP3    H140934   1.893   2.339   1.517 -0.0927  2.3860 -1.9331
 6457TIP3    H240935   1.986   2.329   1.398 -0.8605 -1.7210 -2.3649
 6458TIP3   OH240936   5.805   6.267   1.098  0.1052 -0.2410 -0.0861
 6458TIP3    H140937   5.861   6.341   1.124 -0.1305  0.1254 -0.5858
 6458TIP3    H240938   5.716   6.303   1.098  0.0631 -0.3205 -1.0256
 6459TIP3   OH240939   2.353   4.092   7.175 -0.3191 -0.7299 -0.1536
 6459TIP3    H140940   2.339   4.038   7.097 -1.7589 -0.1709 -0.3236
 6459TIP3    H240941   2.269   4.088   7.222  0.1357 -0.0799  0.7353
 6460TIP3   OH240942   1.352   3.103   7.749 -0.2594  0.1758 -0.1245
 6460TIP3    H140943   1.310   3.182   7.782 -1.9372 -0.9417  0.5162
 6460TIP3    H240944   1.430   3.093   7.804 -0.9235  0.4952  0.8997
 6461TIP3   OH240945   1.856   2.628   0.346 -0.1026 -0.4931  0.3931
 6461TIP3    H140946   1.830   2.699   0.405  0.0716 -1.4526  1.6520
 6461TIP3    H240947   1.847   2.666   0.258 -0.5059  0.9166  1.0127
 6462TIP3   OH240948   5.751   0.040   1.606  0.0215 -0.3363  0.0743
 6462TIP3    H140949   5.752   0.037   1.702  1.2013 -3.6184  0.0656
 6462TIP3    H240950   5.658   0.032   1.583 -0.3465  1.1703  0.8710
 6463TIP3   OH240951   2.761   5.356   8.703  0.2343  0.3337 -0.5012
 6463TIP3    H140952   2.758   5.317   8.615  3.7427 -1.0639 -0.2003
 6463TIP3    H240953   2.683   5.323   8.747 -0.6512 -0.4489 -2.5298
 6464TIP3   OH240954   2.578   1.482   2.123  0.0327 -0.6290  0.1120
 6464TIP3    H140955   2.653   1.510   2.071 -0.4761 -0.1592 -0.3717
 6464TIP3    H240956   2.503   1.524   2.082 -0.4914 -1.0430  0.6345
 6465TIP3   OH240957   3.823   0.483   0.301 -0.1607 -0.0646 -1.2382
 6465TIP3    H140958   3.807   0.453   0.391 -1.0923 -0.6543 -1.5892
 6465TIP3    H240959   3.898   0.431   0.272 -1.1966 -1.4682 -1.5288
 6466TIP3   OH240960   0.601   3.782   7.552  0.6886 -0.3993 -0.0610
 6466TIP3    H140961   0.661   3.742   7.615 -0.3198 -3.6443 -0.9917
 6466TIP3    H240962   0.657   3.826   7.489  1.9339 -0.8224  0.7247
 6467TIP3   OH240963   5.328   6.427   7.608 -0.4008  0.1020 -0.5609
 6467TIP3    H140964   5.306   6.344   7.565  1.1645 -0.0906 -1.0275
 6467TIP3    H240965   5.416   6.414   7.642 -0.4859  1.2799  0.1576
 6468TIP3   OH240966   1.418   0.815   0.009  0.5056  0.1538 -0.0251
 6468TIP3    H140967   1.377   0.750   0.065 -0.9292  0.1470 -1.0242
 6468TIP3    H240968   1.503   0.777  -0.014  0.5147 -0.4681  0.9695
 6469TIP3   OH240969   6.521   3.358   8.050  0.0948  0.9771  0.2860
 6469TIP3    H140970   6.527   3.403   7.966  2.0386  1.0761  0.4329
 6469TIP3    H240971   6.431   3.372   8.078  0.1109  3.2204 -0.5517
 6470TIP3   OH240972   5.116   3.775   7.497  0.8437 -0.0911  0.6820
 6470TIP3    H140973   5.205   3.742   7.506  0.8657 -0.0938  0.4655
 6470TIP3    H240974   5.068   3.704   7.454  0.7368 -0.0902  0.7989
 6471TIP3   OH240975   3.049   4.897   0.963 -0.0776 -0.1498  0.0677
 6471TIP3    H140976   3.034   4.803   0.954 -2.5659  0.2510 -0.8238
 6471TIP3    H240977   3.138   4.911   0.931 -0.3300 -1.9758 -1.6362
 6472TIP3   OH240978   0.930   3.740   1.024  0.3411  0.4224  0.2612
 6472TIP3    H140979   1.016   3.702   1.039  1.0387  1.7546 -0.1893
 6472TIP3    H240980   0.894   3.688   0.951  1.1083  0.3805 -0.1011
 6473TIP3   OH240981   3.534   6.033   8.413  0.1895  0.2695 -0.0483
 6473TIP3    H140982   3.556   6.074   8.497 -0.0468  1.7359 -0.6684
 6473TIP3    H240983   3.505   6.106   8.358 -0.0953 -0.7315 -1.2653
 6474TIP3   OH240984   0.779   5.429   0.072  0.4068  0.3669 -0.0142
 6474TIP3    H140985   0.729   5.511   0.067 -0.8844 -0.2972  1.2432
 6474TIP3    H240986   0.716   5.361   0.047  1.0828 -0.3520  0.2093
 6475TIP3   OH240987   1.442   0.647   6.185 -0.2500  0.5461 -0.9049
 6475TIP3    H140988   1.371   0.620   6.126 -1.6141  0.1841  0.8334
 6475TIP3    H240989   1.411   0.624   6.272  1.8909  0.7036 -0.0522
 6476TIP3   OH240990   6.529   5.756   1.126 -0.3263 -0.0110 -0.7851
 6476TIP3    H140991   6.474   5.682   1.154  0.7089 -0.1986  0.9101
 6476TIP3    H240992   6.603   5.714   1.081  0.2942 -0.0555  0.2337
 6477TIP3   OH240993   4.082   1.190   6.741  0.1710 -0.3081 -0.4623
 6477TIP3    H140994   4.152   1.133   6.710 -0.9573 -2.2219  0.3622
 6477TIP3    H240995   4.006   1.165   6.690 -0.6293 -0.3967  0.7449
 6478TIP3   OH240996   0.531   3.283   7.869 -0.4154  0.1170  0.0501
 6478TIP3    H140997   0.444   3.254   7.844 -0.6766  0.5409  0.4560
 6478TIP3    H240998   0.572   3.310   7.787 -0.8042  0.2851 -0.0898
 6479TIP3   OH240999   2.128   1.568   7.746  0.1284 -0.2698 -0.2399
 6479TIP3    H141000   2.173   1.556   7.830  0.2266 -1.1407 -0.4121
 6479TIP3    H241001   2.168   1.647   7.709  0.7238 -0.3888  0.1311
 6480TIP3   OH241002   3.475   1.711   0.958 -0.2086  0.1352 -0.5810
 6480TIP3    H141003   3.563   1.714   0.994 -1.1199  2.2020  1.7315
 6480TIP3    H241004   3.488   1.685   0.867  2.9971  2.3221 -0.9264
 6481TIP3   OH241005   2.372   0.430   8.707 -0.2731 -0.6225 -0.7454
 6481TIP3    H141006   2.408   0.474   8.630 -0.6257 -2.0431 -1.7572
 6481TIP3    H241007   2.277   0.433   8.694 -0.4057  0.1559  0.2431
 6482TIP3   OH241008   0.741   5.705   8.750 -0.3714 -0.6792 -0.1081
 6482TIP3    H141009   0.817   5.741   8.705 -0.8200  1.4329  0.6934
 6482TIP3    H241010   0.719   5.771   8.816 -0.4387 -3.0671  2.4324
 6483TIP3   OH241011   0.881   6.160   0.749  0.3397 -0.6647  0.1211
 6483TIP3    H141012   0.929   6.177   0.830  1.0507  1.0806 -0.6232
 6483TIP3    H241013   0.949   6.141   0.685 -0.1916 -1.5038 -0.2175
 6484TIP3   OH241014   3.305   1.075   8.469 -0.2658 -0.0068 -0.4377
 6484TIP3    H141015   3.309   0.982   8.446 -0.4086  0.1012 -0.9133
 6484TIP3    H241016   3.295   1.076   8.564  1.9130 -0.4298 -0.1538
 6485TIP3   OH241017   1.283   4.261   1.057  0.4587  0.3486 -0.3480
 6485TIP3    H141018   1.223   4.187   1.064  0.3648  0.5324  0.9406
 6485TIP3    H241019   1.364   4.224   1.024  0.2117 -0.2163 -0.3246
 6486TIP3   OH241020   6.289   2.751   7.226 -0.0934  0.3485 -0.1138
 6486TIP3    H141021   6.291   2.706   7.310 -0.8481  0.0739 -0.2331
 6486TIP3    H241022   6.254   2.686   7.165 -0.8507  0.9741 -0.3603
 6487TIP3   OH241023   5.508   1.688   8.155  0.1205  0.1984 -0.0477
 6487TIP3    H141024   5.439   1.733   8.203  1.8194  1.1836  1.6072
 6487TIP3    H241025   5.586   1.700   8.209  1.2463 -2.3909 -0.9446
 6488TIP3   OH241026   3.410   3.004   8.001  0.8096 -0.3617  0.3269
 6488TIP3    H141027   3.414   2.948   7.923  0.8812  0.4898 -0.3000
 6488TIP3    H241028   3.345   2.962   8.057  0.1084 -0.5277 -0.5803
 6489TIP3   OH241029   3.198   6.033   0.589 -0.3823  0.1863 -0.8838
 6489TIP3    H141030   3.195   6.066   0.678  4.0755 -0.7553 -0.1382
 6489TIP3    H241031   3.250   6.097   0.540  0.8520 -1.2771 -1.6250
 6490TIP3   OH241032   5.219   1.126   8.453 -0.5213  0.2662 -0.0821
 6490TIP3    H141033   5.161   1.108   8.527  0.0575 -1.7731 -0.0810
 6490TIP3    H241034   5.230   1.041   8.410  3.5397  0.1952  0.7013
 6491TIP3   OH241035   1.469   6.384   7.612  0.5535 -0.2047 -0.2553
 6491TIP3    H141036   1.408   6.436   7.560 -0.2524  0.8585  1.6476
 6491TIP3    H241037   1.548   6.380   7.559 -0.9799 -1.3571 -2.6703
 6492TIP3   OH241038   5.261   4.646   1.064 -0.1047  0.1144 -0.0049
 6492TIP3    H141039   5.305   4.629   1.147  0.4185 -1.3489 -0.5607
 6492TIP3    H241040   5.329   4.684   1.008 -0.0880 -0.2356 -0.2200
 6493TIP3   OH241041   5.731   6.570   0.473  0.1358  0.4989  0.5400
 6493TIP3    H141042   5.809   6.537   0.428 -0.2808  1.2490 -0.8167
 6493TIP3    H241043   5.715   6.507   0.543  1.3546 -0.2275  0.2070
 6494TIP3   OH241044   5.993   4.515   6.832  0.4816  0.1284  0.7576
 6494TIP3    H141045   6.079   4.486   6.863  1.4738 -0.2769 -2.0806
 6494TIP3    H241046   6.010   4.598   6.788 -0.5834  0.0083  0.0973
 6495TIP3   OH241047   5.522   4.608   8.694  0.5502  0.0633  0.5351
 6495TIP3    H141048   5.501   4.699   8.674 -0.0013 -0.0973  0.3748
 6495TIP3    H241049   5.613   4.611   8.724  0.2667  0.7775  1.3426
 6496TIP3   OH241050   1.759   3.312   0.645 -0.1311 -0.0469  0.2076
 6496TIP3    H141051   1.709   3.293   0.725 -0.9974 -0.9936 -0.5389
 6496TIP3    H241052   1.699   3.364   0.591  0.6965  1.1929  0.4375
 6497TIP3   OH241053   0.879   6.098   8.495  0.1247 -0.1277  0.1613
 6497TIP3    H141054   0.904   6.190   8.503  3.3417 -0.8356 -0.2142
 6497TIP3    H241055   0.869   6.084   8.401  3.7330 -0.9428 -0.2355
 6498TIP3   OH241056   1.300   1.883   8.740  0.5666 -0.8569  0.0136
 6498TIP3    H141057   1.309   1.859   8.832 -0.4924  1.8225  0.9311
 6498TIP3    H241058   1.310   1.978   8.739  2.1866 -0.9358 -2.9114
 6499TIP3   OH241059   6.119   2.780   0.466  0.3021  0.2105 -0.5181
 6499TIP3    H141060   6.069   2.774   0.384  0.7412 -1.1794 -0.6989
 6499TIP3    H241061   6.066   2.838   0.521 -1.2737 -0.8077 -0.8964
 6500TIP3   OH241062   3.753   2.529   1.393 -0.8320  0.3940  0.6244
 6500TIP3    H141063   3.788   2.442   1.412 -2.2303 -0.5128 -0.7421
 6500TIP3    H241064   3.805   2.588   1.447  0.9301 -1.1542  0.7076
 6501TIP3   OH241065   5.749   4.027   7.297 -0.0596  0.0152 -0.1295
 6501TIP3    H141066   5.754   4.033   7.202 -1.0941 -0.8151 -0.2571
 6501TIP3    H241067   5.701   4.105   7.324  1.9753  1.3287 -0.0596
 6502TIP3   OH241068   6.420   3.465   8.819 -0.4807 -0.6662 -0.8014
 6502TIP3    H141069   6.488   3.490   8.755 -0.0733  0.3803  0.0049
 6502TIP3    H241070   6.373   3.393   8.777  1.0335 -1.3297 -1.4506
 6503TIP3   OH241071   3.292   3.711   2.324  0.0173  0.2379 -0.5758
 6503TIP3    H141072   3.216   3.664   2.357 -0.5023  2.8901  2.5151
 6503TIP3    H241073   3.367   3.670   2.368 -0.3216  1.3686  1.1708
 6504TIP3   OH241074   2.073   4.077   8.413 -0.1241 -0.0985  0.3077
 6504TIP3    H141075   2.105   3.989   8.435 -0.6487 -0.1089  1.0848
 6504TIP3    H241076   1.978   4.071   8.424 -0.0057  1.1556  2.7026
 6505TIP3   OH241077   4.401   1.778   1.893  0.9752 -0.3264 -0.0035
 6505TIP3    H141078   4.469   1.842   1.913  1.7692 -0.7935 -1.0999
 6505TIP3    H241079   4.434   1.695   1.929 -0.3302 -0.0476  1.9657
 6506TIP3   OH241080   5.752   3.414   7.429  0.6307 -0.3002 -1.0127
 6506TIP3    H141081   5.659   3.433   7.420  0.1521 -0.0552  2.9068
 6506TIP3    H241082   5.756   3.319   7.441  0.7321 -0.1906 -0.1079
 6507TIP3   OH241083   2.003   3.077   7.172 -0.0858 -0.0191 -0.9481
 6507TIP3    H141084   2.025   3.037   7.257 -3.7297 -0.6993 -0.1454
 6507TIP3    H241085   2.068   3.041   7.111  1.1035 -1.5444  1.0748
 6508TIP3   OH241086   2.932   2.429   6.633  0.0582  0.2345 -0.6553
 6508TIP3    H141087   2.948   2.447   6.726 -1.1221  0.5927 -0.5011
 6508TIP3    H241088   3.019   2.424   6.594  0.5451  1.2308  0.2592
 6509TIP3   OH241089   2.969   4.302   8.446  0.3002  0.3504  0.1564
 6509TIP3    H141090   3.032   4.265   8.384 -1.2392 -1.2314 -0.5554
 6509TIP3    H241091   3.017   4.372   8.490  2.9857 -1.6284  0.6228
 6510TIP3   OH241092   5.105   2.916   7.443 -0.1527  0.2047 -0.0682
 6510TIP3    H141093   5.012   2.900   7.458  0.2305 -1.7001  0.5665
 6510TIP3    H241094   5.119   2.891   7.351 -0.0121 -1.0288  0.2632
 6511TIP3   OH241095   0.579   1.921   2.421 -0.4783 -0.4511 -0.7698
 6511TIP3    H141096   0.654   1.892   2.472  1.0890  3.4209 -0.5142
 6511TIP3    H241097   0.504   1.913   2.480  0.6347  0.2360  0.7727
 6512TIP3   OH241098   2.760   5.177   1.920 -0.2497 -0.5635  0.0763
 6512TIP3    H141099   2.669   5.176   1.892 -0.6126  0.1773  1.1308
 6512TIP3    H241100   2.806   5.122   1.857 -0.6945  2.1443 -2.8881
 6513TIP3   OH241101   3.571   3.832   6.440 -0.4771  0.2388 -0.5356
 6513TIP3    H141102   3.522   3.749   6.442  1.1670 -0.7939  1.8351
 6513TIP3    H241103   3.662   3.806   6.426  0.0418  1.6518  0.0157
 6514TIP3   OH241104   3.024   4.231   7.238 -0.3744  0.1651 -0.2594
 6514TIP3    H141105   3.064   4.318   7.241 -0.5181  0.2090  1.5798
 6514TIP3    H241106   2.931   4.248   7.228 -0.5073  0.2824  1.0341
 6515TIP3   OH241107   1.054   1.864   0.727  0.6580  0.3677 -0.2183
 6515TIP3    H141108   1.059   1.960   0.724 -0.0169  0.4031 -1.9511
 6515TIP3    H241109   1.032   1.839   0.637 -0.3118 -1.3419  0.4376
 6516TIP3   OH241110   5.914   3.025   8.419  0.0062  0.2388 -0.1092
 6516TIP3    H141111   5.987   2.988   8.468 -1.5489 -1.4077  1.0714
 6516TIP3    H241112   5.845   2.959   8.423 -0.7068  0.5636 -3.4380
 6517TIP3   OH241113   2.436   2.271   0.017  0.3922  0.4924  0.0644
 6517TIP3    H141114   2.367   2.314   0.067  0.1095 -0.9787  0.9945
 6517TIP3    H241115   2.389   2.209  -0.040  0.9507 -1.0581  1.2410
 6518TIP3   OH241116   2.034   1.071   1.936 -0.4316  0.4711 -0.1888
 6518TIP3    H141117   1.940   1.088   1.942 -0.4970 -0.3040  2.0961
 6518TIP3    H241118   2.040   0.980   1.906 -0.3713  0.7225 -0.9639
 6519TIP3   OH241119   1.429   1.888   1.018 -0.1018 -0.0558 -0.2080
 6519TIP3    H141120   1.360   1.836   0.977  0.6447  0.1771 -1.8602
 6519TIP3    H241121   1.498   1.825   1.039 -0.7064 -0.2630  1.2901
 6520TIP3   OH241122   0.676   5.219   2.222  0.4194 -0.3765  0.1760
 6520TIP3    H141123   0.738   5.260   2.162  1.5494 -0.2908  1.3529
 6520TIP3    H241124   0.604   5.190   2.166  1.2456  0.0379 -1.1527
 6521TIP3   OH241125   3.418   2.808   6.896 -0.3106  0.1064  0.3116
 6521TIP3    H141126   3.477   2.784   6.824  0.4845  3.2274 -0.2010
 6521TIP3    H241127   3.341   2.845   6.852  0.0802  1.8238  1.0294
 6522TIP3   OH241128   4.919   0.769   0.784 -0.2932  0.2811  0.2145
 6522TIP3    H141129   4.954   0.680   0.779  0.6224  0.6506 -0.2293
 6522TIP3    H241130   4.973   0.820   0.723 -1.6998  0.8599 -0.6124
 6523TIP3   OH241131   1.789   4.221   0.542  0.3628 -0.1427 -0.2558
 6523TIP3    H141132   1.717   4.284   0.547  0.4846  0.2164 -2.1880
 6523TIP3    H241133   1.833   4.241   0.459  2.7688 -0.3085  0.8940
 6524TIP3   OH241134   1.195   5.667   8.421 -0.2856 -0.4935  0.9652
 6524TIP3    H141135   1.142   5.624   8.354  0.8346 -0.2062 -0.1641
 6524TIP3    H241136   1.163   5.631   8.504 -3.1983  0.7442  0.4919
 6525TIP3   OH241137   3.697   1.199   1.546  0.2859 -0.6052  0.6136
 6525TIP3    H141138   3.658   1.131   1.491  0.3084  0.8171 -1.2834
 6525TIP3    H241139   3.787   1.169   1.561  0.3068 -1.0000 -0.2177
 6526TIP3   OH241140   3.309   1.630   7.124 -0.1057 -0.1395  0.3659
 6526TIP3    H141141   3.354   1.646   7.041  0.5622 -1.5114  0.4388
 6526TIP3    H241142   3.253   1.707   7.135 -0.3981 -0.0244 -1.4768
 6527TIP3   OH241143   6.790   5.711   1.019 -0.1550 -0.2759 -0.1102
 6527TIP3    H141144   6.853   5.741   0.953  1.1413 -0.0806  1.1723
 6527TIP3    H241145   6.840   5.705   1.100 -1.7026 -0.5075  0.8836
 6528TIP3   OH241146   6.211   6.779   1.783  0.3418  0.5055 -0.1182
 6528TIP3    H141147   6.229   6.801   1.875 -0.3461 -0.6274  0.3005
 6528TIP3    H241148   6.262   6.700   1.766 -0.8327 -0.2554 -0.1978
 6529TIP3   OH241149   4.661   1.457   7.950  0.5107  0.7562  0.3084
 6529TIP3    H141150   4.751   1.484   7.929  0.5101 -1.2495 -2.9462
 6529TIP3    H241151   4.672   1.385   8.012  1.2822 -0.1113 -0.7816
 6530TIP3   OH241152   4.756   0.582   7.995 -0.6176 -0.0878  1.0320
 6530TIP3    H141153   4.792   0.609   7.910 -1.4153  0.1509  0.7644
 6530TIP3    H241154   4.670   0.624   8.000  0.1017  1.3004  2.7109
 6531TIP3   OH241155   3.384   6.188   8.231  0.0457  0.5319  0.1370
 6531TIP3    H141156   3.463   6.194   8.177  0.0094 -2.7512 -0.5351
 6531TIP3    H241157   3.322   6.140   8.177 -1.8971  1.7167  1.2281
 6532TIP3   OH241158   4.781   6.810   1.338 -0.2195 -0.3840 -0.0978
 6532TIP3    H141159   4.690   6.836   1.352 -0.0181 -0.8534  2.7117
 6532TIP3    H241160   4.833   6.883   1.371  0.4358 -0.6050 -0.5965
 6533TIP3   OH241161   3.695   3.451   2.400  0.1410  0.0952  0.3659
 6533TIP3    H141162   3.613   3.446   2.352  0.8967  0.6917 -1.0517
 6533TIP3    H241163   3.704   3.544   2.422  0.3719  0.0126  0.6265
 6534TIP3   OH241164   0.947   0.038   1.195  0.2184  0.2921 -0.4319
 6534TIP3    H141165   0.857   0.019   1.168  0.1712  1.2471 -1.0067
 6534TIP3    H241166   0.991  -0.047   1.194 -1.4216 -0.7552  2.9905
 6535TIP3   OH241167   1.467   1.206   0.676 -0.0796 -1.0427  0.6839
 6535TIP3    H141168   1.401   1.275   0.667 -2.7387 -3.5099 -0.0496
 6535TIP3    H241169   1.510   1.226   0.759 -0.9135  1.3149  0.6380
 6536TIP3   OH241170   3.432   1.597   7.631  0.3266  0.4794  0.3095
 6536TIP3    H141171   3.521   1.603   7.597 -0.1850 -0.4631 -1.3723
 6536TIP3    H241172   3.380   1.651   7.572 -0.2421  0.9444  1.2147
 6537TIP3   OH241173   1.866   3.040   1.295 -0.2457 -0.0346  0.3784
 6537TIP3    H141174   1.854   3.092   1.374 -2.0191  1.7984 -1.0161
 6537TIP3    H241175   1.960   3.019   1.295  0.2430  1.8539  1.8119
 6538TIP3   OH241176   3.328   1.133   1.431  0.6237  0.2563  0.1333
 6538TIP3    H141177   3.316   1.045   1.467  1.4286  0.4138  0.8148
 6538TIP3    H241178   3.317   1.191   1.506  1.7939  0.6286  0.0394
 6539TIP3   OH241179   2.151   2.597   6.200 -0.3934 -0.0307  0.0103
 6539TIP3    H141180   2.104   2.662   6.148  0.5066  0.4677 -0.1926
 6539TIP3    H241181   2.154   2.520   6.143 -1.7258 -0.3757  0.3689
 6540TIP3   OH241182   6.532   0.279   2.098 -0.7430  0.1202  0.3140
 6540TIP3    H141183   6.511   0.186   2.108 -0.4842 -0.0403 -0.5798
 6540TIP3    H241184   6.479   0.307   2.023 -1.8795  1.0393  1.4183
 6541TIP3   OH241185   6.800   4.416   1.796 -0.5075  0.3051  0.4502
 6541TIP3    H141186   6.724   4.462   1.759 -0.7240  0.6193  1.2697
 6541TIP3    H241187   6.845   4.483   1.848 -0.1269 -0.0920  0.6308
 6542TIP3   OH241188   3.912   1.764   1.353  0.2546 -0.1246 -0.4625
 6542TIP3    H141189   3.980   1.792   1.291  1.6129  1.1491  1.4711
 6542TIP3    H241190   3.948   1.685   1.394  0.7178  0.6846  0.7329
 6543TIP3   OH241191   5.075   5.275   8.734 -1.0125  0.4681 -0.1754
 6543TIP3    H141192   5.015   5.295   8.662 -0.2679  0.5068 -0.8066
 6543TIP3    H241193   5.021   5.276   8.812 -1.8395  0.4441 -0.7392
 6544TIP3   OH241194   5.924   3.815   0.427 -0.2427 -0.5536  0.6428
 6544TIP3    H141195   6.016   3.789   0.439 -0.9178 -3.1292  0.9621
 6544TIP3    H241196   5.877   3.764   0.493 -2.0471 -0.3603 -0.4418
 6545TIP3   OH241197   2.527   2.873   8.719  0.6868  0.8148  0.3294
 6545TIP3    H141198   2.603   2.816   8.707  0.1737 -0.4039  2.4419
 6545TIP3    H241199   2.483   2.839   8.797 -2.2973  1.2032 -1.0564
 6546TIP3   OH241200   4.029   0.018   1.593 -0.3495  0.4406  0.4455
 6546TIP3    H141201   3.991   0.006   1.681 -1.9566 -0.3365 -0.3063
 6546TIP3    H241202   4.056  -0.070   1.567  1.2272  0.8463  0.5954
 6547TIP3   OH241203   2.920   2.154   8.199 -0.2400 -0.0832  0.1514
 6547TIP3    H141204   2.986   2.086   8.189  0.1786  0.0777  1.5987
 6547TIP3    H241205   2.964   2.224   8.248 -1.1999  0.4147  0.3379
 6548TIP3   OH241206   5.949   3.282   0.155 -0.2073 -0.3279 -0.0749
 6548TIP3    H141207   5.963   3.371   0.124  0.0013 -0.6315 -0.8994
 6548TIP3    H241208   5.860   3.261   0.126 -0.5406 -0.1330  0.7796
 6549TIP3   OH241209   3.839   3.277   7.928 -0.1076 -0.4711 -0.6756
 6549TIP3    H141210   3.917   3.243   7.884  0.3521  1.1853 -1.2076
 6549TIP3    H241211   3.781   3.304   7.856 -1.3637 -1.9861 -0.2958
 6550TIP3   OH241212   3.997   3.798   0.076 -0.2906  0.1306  0.2820
 6550TIP3    H141213   4.038   3.714   0.053  0.1231  0.8190 -1.6327
 6550TIP3    H241214   4.070   3.859   0.083 -0.7620  0.8107 -0.5880
 6551TIP3   OH241215   2.127   6.028   6.883  0.4599 -0.2337 -0.0037
 6551TIP3    H141216   2.032   6.028   6.900  0.6488  0.9866  1.2559
 6551TIP3    H241217   2.166   6.002   6.966  1.2672  0.6621 -0.0780
 6552TIP3   OH241218   4.645   4.480   6.297 -0.2787 -0.0710  0.1529
 6552TIP3    H141219   4.698   4.430   6.359 -2.0022 -2.7857 -0.3890
 6552TIP3    H241220   4.561   4.493   6.342  0.5060  3.8460  0.8685
 6553TIP3   OH241221   0.159   2.649   7.571  0.0940 -0.2513 -0.1982
 6553TIP3    H141222   0.114   2.703   7.506  0.3405 -1.2699 -1.2536
 6553TIP3    H241223   0.217   2.593   7.519  1.2819 -0.1836  1.0074
 6554TIP3   OH241224   5.950   4.853   0.100  0.0810  0.5243  0.1819
 6554TIP3    H141225   6.030   4.881   0.056  0.7038  1.8778  2.0104
 6554TIP3    H241226   5.968   4.869   0.193 -1.2942 -1.7951  0.9256
 6555TIP3   OH241227   1.908   5.722   6.612  0.4203  0.2914  0.1171
 6555TIP3    H141228   1.863   5.690   6.690  0.4073  0.8087  0.3287
 6555TIP3    H241229   1.845   5.780   6.570  0.7461  0.7176  0.2064
 6556TIP3   OH241230   4.551   3.971   7.349 -0.0315  0.0519 -0.2632
 6556TIP3    H141231   4.587   4.033   7.413  0.3423  0.8333 -1.2083
 6556TIP3    H241232   4.617   3.902   7.344  0.2616  0.3258 -0.2881
 6557TIP3   OH241233   2.482   3.267   8.676  0.2025  0.1691  0.0561
 6557TIP3    H141234   2.492   3.327   8.602  0.8606 -0.2659 -0.2240
 6557TIP3    H241235   2.556   3.207   8.667  0.1312 -0.0530  0.9162
 6558TIP3   OH241236   5.925   6.567   1.843 -0.0531 -0.2810  0.0117
 6558TIP3    H141237   5.999   6.525   1.800  1.2546 -0.8555  2.5952
 6558TIP3    H241238   5.894   6.632   1.781  3.0949  0.5015 -0.9145
 6559TIP3   OH241239   2.825   0.777   8.118  0.2425  0.9130 -0.2178
 6559TIP3    H141240   2.898   0.733   8.075  0.6915  1.4949 -0.0539
 6559TIP3    H241241   2.820   0.736   8.205  1.7377  2.3185  0.5715
 6560TIP3   OH241242   6.653   0.404   8.177 -0.1005 -0.6918  0.5851
 6560TIP3    H141243   6.731   0.354   8.151  0.4692  0.9349 -1.0024
 6560TIP3    H241244   6.686   0.490   8.201 -1.1505 -0.7929  2.5953
 6561TIP3   OH241245   0.186   3.421   8.118 -0.3045 -0.4490  0.0032
 6561TIP3    H141246   0.177   3.379   8.203  3.0954 -0.2386  0.5684
 6561TIP3    H241247   0.154   3.510   8.132  1.7117  0.0877  1.5829
 6562TIP3   OH241248   6.235   3.686   7.796 -0.1661  0.4290  0.4296
 6562TIP3    H141249   6.155   3.684   7.744 -0.5159 -0.2948  0.9684
 6562TIP3    H241250   6.232   3.770   7.843  0.7981  1.6967 -1.6527
 6563TIP3   OH241251   3.507   5.728   0.493 -0.5810  0.6344  0.4650
 6563TIP3    H141252   3.546   5.743   0.580 -1.2249  0.1956  0.8381
 6563TIP3    H241253   3.534   5.638   0.471 -0.9735  0.5085  0.5035
 6564TIP3   OH241254   0.046   3.005   7.822  0.0246  0.1172 -0.1496
 6564TIP3    H141255  -0.048   3.022   7.826 -0.2937 -1.6610  1.1942
 6564TIP3    H241256   0.053   2.909   7.821  1.8382  0.2080  0.3686
 6565TIP3   OH241257   1.931   0.706   0.135 -0.1083  0.1118 -0.5083
 6565TIP3    H141258   1.934   0.677   0.226 -0.7360 -0.2014 -0.5759
 6565TIP3    H241259   1.911   0.627   0.085 -0.7975  0.4574 -0.8068
 6566TIP3   OH241260   5.776   4.051   0.580 -0.4878 -0.0822 -0.2622
 6566TIP3    H141261   5.763   3.988   0.651 -0.7173 -0.6361 -0.7844
 6566TIP3    H241262   5.860   4.027   0.542 -0.6359 -0.1579 -0.5447
 6567TIP3   OH241263   5.617   6.815   6.125  0.4597  0.2067 -0.2745
 6567TIP3    H141264   5.541   6.868   6.100  1.1486  1.1329 -0.4190
 6567TIP3    H241265   5.614   6.811   6.220  1.0065  1.4340 -0.1876
 6568TIP3   OH241266   1.129   0.335   1.388  0.0524  0.4733  0.1586
 6568TIP3    H141267   1.039   0.364   1.371 -0.5968 -1.9166 -0.9112
 6568TIP3    H241268   1.141   0.346   1.482 -1.4467  0.6232  0.3569
 6569TIP3   OH241269   3.280   0.646   8.037 -0.5103  0.3246  0.1871
 6569TIP3    H141270   3.363   0.645   7.989 -0.3381  0.9407  0.4610
 6569TIP3    H241271   3.246   0.734   8.025 -1.9181 -0.3688 -1.2238
 6570TIP3   OH241272   5.162   1.832   7.531 -0.1320  0.3551 -0.3647
 6570TIP3    H141273   5.228   1.891   7.496  2.3799 -1.6602  0.6419
 6570TIP3    H241274   5.188   1.819   7.623 -0.0214 -2.8179 -0.7118
 6571TIP3   OH241275   4.490   0.732   0.890  0.0931  0.4836 -0.5524
 6571TIP3    H141276   4.430   0.717   0.963  2.3459  0.4002  1.3747
 6571TIP3    H241277   4.481   0.654   0.835 -0.4384 -0.2177  0.5114
 6572TIP3   OH241278   3.116   1.651   0.833 -0.1656  0.5033 -0.1463
 6572TIP3    H141279   3.092   1.701   0.755  1.4938  0.2620 -0.8534
 6572TIP3    H241280   3.119   1.560   0.803  0.3198  0.3928  0.2232
 6573TIP3   OH241281   4.642   2.027   8.244  0.0091 -0.1174  0.1330
 6573TIP3    H141282   4.677   1.966   8.308  0.0664 -0.1027  0.1166
 6573TIP3    H241283   4.627   1.974   8.166 -0.8524 -0.3113  0.4167
 6574TIP3   OH241284   6.173   1.562   8.055 -0.0897  0.6884  0.0180
 6574TIP3    H141285   6.137   1.473   8.054  2.0343 -0.2313  0.9220
 6574TIP3    H241286   6.245   1.559   7.992  1.7714  0.9278  2.0415
 6575TIP3   OH241287   2.065   2.264   8.800 -0.3714  0.1181  0.6970
 6575TIP3    H141288   2.098   2.255   8.710  0.7593 -1.3957  1.2126
 6575TIP3    H241289   2.115   2.337   8.837 -0.2724  0.2324  0.3374
 6576TIP3   OH241290   3.075   2.640   8.296  0.5148 -0.2039 -0.2287
 6576TIP3    H141291   3.099   2.608   8.210  2.0502 -0.3712  0.2344
 6576TIP3    H241292   3.132   2.592   8.356 -2.1622 -1.9348  1.1583
 6577TIP3   OH241293   6.510   0.017   0.311 -0.0143 -0.7499  0.2943
 6577TIP3    H141294   6.515  -0.075   0.286  1.3767 -0.6070 -0.0378
 6577TIP3    H241295   6.601   0.047   0.314 -0.3978  0.4530  1.0305
 6578TIP3   OH241296   5.684   6.569   1.247  0.1053 -0.5407 -0.3162
 6578TIP3    H141297   5.775   6.580   1.223  0.4856 -2.7830 -0.1214
 6578TIP3    H241298   5.635   6.601   1.172  1.0433  0.4323 -0.5332
 6579TIP3   OH241299   1.056   1.316   7.020  0.3970 -0.0271  0.2593
 6579TIP3    H141300   1.009   1.363   7.088  2.6556 -2.2748  3.7040
 6579TIP3    H241301   0.994   1.249   6.989 -0.6764  1.0580  0.0055
 6580TIP3   OH241302   0.407   2.806   8.391 -0.0771 -0.0561  0.0454
 6580TIP3    H141303   0.328   2.751   8.388  0.5629 -1.0480  0.7034
 6580TIP3    H241304   0.459   2.778   8.316  1.3937 -2.2175  1.7308
 6581TIP3   OH241305   1.086   4.865   1.929  0.0743 -0.1234 -0.2727
 6581TIP3    H141306   1.173   4.906   1.919  0.5592 -0.5717  1.6032
 6581TIP3    H241307   1.034   4.901   1.858  0.8190  2.8601  0.5554
 6582TIP3   OH241308   1.589   0.595   6.498 -0.3561  0.2329  0.3389
 6582TIP3    H141309   1.618   0.510   6.532 -0.6909  0.0358  0.1491
 6582TIP3    H241310   1.606   0.590   6.404 -1.2462 -0.0005  0.1803
 6583TIP3   OH241311   3.858   5.072   1.662 -0.1863 -0.3521  0.4467
 6583TIP3    H141312   3.925   5.097   1.726  0.3767  1.6742 -0.8277
 6583TIP3    H241313   3.775   5.097   1.704  0.2194  1.7093  0.1575
 6584TIP3   OH241314   1.890   5.027   0.583 -0.2012  0.4948  0.6928
 6584TIP3    H141315   1.811   4.995   0.626 -0.6524  1.4058  0.5825
 6584TIP3    H241316   1.885   4.993   0.494 -1.7252  2.4385 -0.0567
 6585TIP3   OH241317   6.280   1.433   8.484  0.2643 -0.2894 -0.2021
 6585TIP3    H141318   6.296   1.526   8.470 -1.5674  0.0810 -0.1348
 6585TIP3    H241319   6.252   1.400   8.398  1.4629 -0.9360 -0.3681
 6586TIP3   OH241320   2.087   0.926   8.804  0.0680  0.2079 -0.2656
 6586TIP3    H141321   2.082   0.843   8.851  1.2538  1.2547  1.8518
 6586TIP3    H241322   2.053   0.990   8.866 -1.2500  1.3025 -2.0214
 6587TIP3   OH241323   0.765   0.811   1.120  0.1531  0.4386 -0.2861
 6587TIP3    H141324   0.724   0.726   1.103  0.1605  0.0689  1.3907
 6587TIP3    H241325   0.824   0.824   1.046 -1.4431  0.0145 -1.6941
 6588TIP3   OH241326   3.041   4.452   1.566 -0.2507 -0.1438  0.4004
 6588TIP3    H141327   3.124   4.405   1.564 -0.5330 -0.6439  0.2018
 6588TIP3    H241328   2.975   4.384   1.553 -0.7281  0.1532  1.1683
 6589TIP3   OH241329   4.267   0.740   1.394 -0.0117 -0.4760 -0.0432
 6589TIP3    H141330   4.193   0.799   1.404  1.8190  1.7503  1.7331
 6589TIP3    H241331   4.242   0.661   1.441 -1.3850  0.1167  0.2624
 6590TIP3   OH241332   6.517   1.982   7.572 -0.9780  0.0443 -0.0340
 6590TIP3    H141333   6.506   1.927   7.649  0.3862  0.4804  0.4989
 6590TIP3    H241334   6.442   2.042   7.574 -2.2263 -1.4601 -0.3704
 6591TIP3   OH241335   5.917   6.493   8.052  0.4016  0.2562 -0.2324
 6591TIP3    H141336   5.860   6.570   8.046 -1.7730 -1.3472 -2.6520
 6591TIP3    H241337   5.953   6.482   7.964 -0.4551 -2.1793 -0.3722
 6592TIP3   OH241338   1.122   5.127   1.740  0.0685 -0.0452 -0.0033
 6592TIP3    H141339   1.185   5.084   1.798 -0.1786 -1.4428 -0.7448
 6592TIP3    H241340   1.059   5.059   1.717 -0.5440  0.8010 -0.9279
 6593TIP3   OH241341   5.970   0.545   0.922  0.2514 -0.0667 -0.7793
 6593TIP3    H141342   6.019   0.621   0.889  1.3528 -0.3402  0.1879
 6593TIP3    H241343   6.004   0.531   1.010 -1.4913 -0.3509 -0.1046
 6594TIP3   OH241344   4.683   0.078   7.153 -0.3366 -0.2413 -0.0017
 6594TIP3    H141345   4.727   0.017   7.094  2.2570  1.8459 -0.3859
 6594TIP3    H241346   4.614   0.117   7.099  1.0392  0.5598 -1.2410
 6595TIP3   OH241347   5.855   4.602   8.119  0.4077 -0.0028 -0.1447
 6595TIP3    H141348   5.950   4.604   8.115  0.4109  0.0297 -0.0598
 6595TIP3    H241349   5.835   4.530   8.178  0.3956  0.4509  0.4057
 6596TIP3   OH241350   0.744   6.779   6.916  0.8462 -0.2520  0.2870
 6596TIP3    H141351   0.650   6.779   6.933  1.2054  1.6486  2.8698
 6596TIP3    H241352   0.754   6.830   6.835 -0.2678  1.6727  1.2832
 6597TIP3   OH241353   3.163   6.026   8.128 -0.1165  0.4121 -0.1306
 6597TIP3    H141354   3.153   5.932   8.110  3.4521 -0.8043  2.9773
 6597TIP3    H241355   3.088   6.067   8.084 -1.7040 -3.7986 -1.8731
 6598TIP3   OH241356   5.800   2.053   8.147  0.3939  0.2800 -0.2172
 6598TIP3    H141357   5.712   2.017   8.150  1.0739 -1.4144  0.2280
 6598TIP3    H241358   5.787   2.148   8.143 -1.4633  0.0114 -1.9447
 6599TIP3   OH241359   4.543   1.332   6.859 -0.1348 -0.0791  0.4865
 6599TIP3    H141360   4.636   1.338   6.883 -0.2457  0.7143  0.7607
 6599TIP3    H241361   4.543   1.285   6.775  0.6312  0.9948 -0.1539
 6600TIP3   OH241362   0.986   4.480   7.802 -0.4577  0.2554  0.1506
 6600TIP3    H141363   0.996   4.503   7.894 -2.3835 -1.1430  0.7948
 6600TIP3    H241364   0.909   4.529   7.773 -1.2116 -0.9909 -0.0389
 6601TIP3   OH241365   2.919   0.226   6.996  0.0683  0.1076  0.4286
 6601TIP3    H141366   2.956   0.220   6.908 -1.3500  3.8436 -0.6061
 6601TIP3    H241367   2.842   0.169   6.993 -1.1876  1.7626 -1.5665
 6602TIP3   OH241368   2.034   6.205   1.957  0.2897  0.2239  0.4336
 6602TIP3    H141369   2.126   6.229   1.963  0.1568  0.7981  0.3323
 6602TIP3    H241370   1.989   6.269   2.013 -0.0164 -0.2420  0.7244
 6603TIP3   OH241371   5.127   0.661   8.473  0.1377  0.2393 -0.0045
 6603TIP3    H141372   5.198   0.725   8.471 -1.0557  1.5930 -0.8194
 6603TIP3    H241373   5.048   0.713   8.481 -0.8866 -1.1337 -0.7643
 6604TIP3   OH241374   2.254   3.577   1.129 -0.6343 -0.8964  0.0126
 6604TIP3    H141375   2.332   3.521   1.123  1.0362  1.4133 -1.5328
 6604TIP3    H241376   2.183   3.521   1.098  0.9412 -2.2197 -1.4741
 6605TIP3   OH241377   1.934   5.068   0.864 -0.3184  0.1853  0.0625
 6605TIP3    H141378   1.955   4.977   0.883  1.0298  0.4557 -0.0285
 6605TIP3    H241379   1.934   5.112   0.949 -0.8196  0.1250  0.0924
 6606TIP3   OH241380   2.612   4.973   7.464 -0.6363  0.3554  0.3210
 6606TIP3    H141381   2.647   5.059   7.486 -1.8754  0.9261  0.1789
 6606TIP3    H241382   2.585   4.981   7.372  1.3454 -0.9246 -0.4316
 6607TIP3   OH241383   1.941   6.125   1.710 -0.3106 -0.3385  0.2255
 6607TIP3    H141384   1.935   6.167   1.796 -0.1585  0.8315 -0.3064
 6607TIP3    H241385   1.946   6.031   1.729  0.2933 -0.0751  1.5161
 6608TIP3   OH241386   5.037   3.747   7.881 -0.3415 -1.0530  0.1948
 6608TIP3    H141387   5.073   3.828   7.845 -1.2524 -0.9696 -0.5620
 6608TIP3    H241388   5.005   3.699   7.805 -0.3930 -1.8420  0.7038
 6609TIP3   OH241389   2.733   3.079   8.636 -0.1286  0.1962  0.2729
 6609TIP3    H141390   2.678   3.009   8.672 -0.1910 -0.1742 -0.5074
 6609TIP3    H241391   2.735   3.061   8.542 -0.9693  1.8292 -0.0926
 6610TIP3   OH241392   0.873   0.458   1.408  0.4410 -0.1739  0.4277
 6610TIP3    H141393   0.910   0.446   1.496 -1.8029 -0.8696  1.3681
 6610TIP3    H241394   0.841   0.370   1.384 -1.2148  0.4837  0.0534
 6611TIP3   OH241395   0.258   2.120   7.782  0.0276  0.2884  0.2682
 6611TIP3    H141396   0.237   2.210   7.758 -0.1392  0.0901 -0.3588
 6611TIP3    H241397   0.174   2.083   7.810 -0.0670  0.1038 -0.2377
 6612TIP3   OH241398   2.693   4.136   0.960  0.2600  0.8852 -0.1946
 6612TIP3    H141399   2.743   4.195   0.903  1.5629 -1.7642 -2.0387
 6612TIP3    H241400   2.757   4.104   1.024 -0.5190  1.7070  1.0274
 6613TIP3   OH241401   0.928   5.625   1.885  0.2946  0.4278 -0.0435
 6613TIP3    H141402   1.017   5.626   1.920  0.1060 -0.4998  0.5149
 6613TIP3    H241403   0.881   5.692   1.934  0.1756 -0.4832  1.1460
 6614TIP3   OH241404   4.313   2.169   5.958 -0.5252 -0.6279  0.2440
 6614TIP3    H141405   4.325   2.129   6.044  0.4218  1.9254  1.3988
 6614TIP3    H241406   4.228   2.212   5.963  0.5109  1.5127  0.8664
 6615TIP3   OH241407   4.357   4.915   6.193  0.4468 -0.1040 -0.2974
 6615TIP3    H141408   4.264   4.907   6.175  0.6191 -2.0810 -0.5622
 6615TIP3    H241409   4.387   4.984   6.134 -0.7945  0.4041 -0.3600
 6616TIP3   OH241410   3.444   0.058   8.380 -0.0158 -0.1985 -0.5269
 6616TIP3    H141411   3.441   0.122   8.451 -1.6044 -0.2546 -0.4989
 6616TIP3    H241412   3.537   0.050   8.358  0.2332  2.2333 -0.6307
 6617TIP3   OH241413   6.617   3.761   0.494  0.3178  0.4192  0.3124
 6617TIP3    H141414   6.569   3.827   0.443  0.3805  0.0592 -0.2153
 6617TIP3    H241415   6.553   3.693   0.511  0.5872  0.0160 -0.2502
 6618TIP3   OH241416   4.815   4.146   1.214 -0.1666 -0.0161  0.2097
 6618TIP3    H141417   4.867   4.118   1.139 -1.2751  0.9442 -0.9788
 6618TIP3    H241418   4.850   4.233   1.236 -0.2122 -0.0543  0.4296
 6619TIP3   OH241419   5.501   3.119   8.281  0.1938  0.2983 -0.1146
 6619TIP3    H141420   5.562   3.048   8.262 -1.2109 -1.0762  0.2394
 6619TIP3    H241421   5.454   3.090   8.359  1.5709  2.9747  1.8732
 6620TIP3   OH241422   1.738   1.989   2.281 -0.3059 -0.2263  0.1305
 6620TIP3    H141423   1.661   1.989   2.337 -0.0622 -2.2904  0.5295
 6620TIP3    H241424   1.805   2.034   2.333 -0.5220 -0.7166  0.8415
 6621TIP3   OH241425   6.721   0.815   7.344 -0.6186 -0.6982  0.4005
 6621TIP3    H141426   6.810   0.782   7.359  0.4881  0.4412 -2.7978
 6621TIP3    H241427   6.726   0.909   7.366 -0.2182 -0.0534 -2.1166
 6622TIP3   OH241428   3.589   5.437   1.427 -0.9587 -0.5139 -0.2256
 6622TIP3    H141429   3.675   5.403   1.452 -1.6991 -2.7478 -0.5763
 6622TIP3    H241430   3.587   5.525   1.464  1.1310 -0.7339  0.5361
 6623TIP3   OH241431   0.244   2.191   1.589 -0.2251 -0.0634 -0.1323
 6623TIP3    H141432   0.251   2.276   1.545  0.5926 -0.1237 -0.1312
 6623TIP3    H241433   0.303   2.198   1.663 -1.0126 -0.2403  0.5324
 6624TIP3   OH241434   0.461   0.499   8.199  0.4580 -0.7495 -0.0357
 6624TIP3    H141435   0.442   0.585   8.236  1.2204 -0.8676  0.6595
 6624TIP3    H241436   0.388   0.482   8.139  0.4759  0.5165 -0.4413
 6625TIP3   OH241437   1.150   4.036   0.944 -0.0218  0.1004  0.1378
 6625TIP3    H141438   1.169   3.991   1.026  0.5704  0.3790  0.1497
 6625TIP3    H241439   1.163   3.969   0.877 -1.4328 -0.4028  0.3244
 6626TIP3   OH241440   2.731   0.441   7.117 -0.2970 -0.0720  0.1112
 6626TIP3    H141441   2.704   0.480   7.033 -0.9641 -0.3854  0.1690
 6626TIP3    H241442   2.797   0.376   7.093 -1.0600 -0.7269 -0.2705
 6627TIP3   OH241443   1.492   0.406   1.118 -0.4504 -0.2943  0.1694
 6627TIP3    H141444   1.511   0.350   1.042  1.1625  1.6942 -0.9888
 6627TIP3    H241445   1.446   0.481   1.082 -0.9447  0.0186  1.4017
 6628TIP3   OH241446   6.590   6.064   1.245  0.3525  0.0595 -0.7568
 6628TIP3    H141447   6.552   6.145   1.281 -0.8670 -1.2762  1.1964
 6628TIP3    H241448   6.566   6.065   1.152 -1.0389  1.1909 -0.4205
 6629TIP3   OH241449   2.399   1.093   1.618  0.7819 -0.3721  0.5841
 6629TIP3    H141450   2.319   1.124   1.659  0.1547  0.5433 -1.2205
 6629TIP3    H241451   2.408   1.002   1.647 -0.9443 -0.5124  0.7456
 6630TIP3   OH241452   0.002   6.101   7.257 -0.6102  0.0319  0.0481
 6630TIP3    H141453   0.055   6.165   7.304  0.5603 -1.1428  0.4053
 6630TIP3    H241454   0.062   6.029   7.240 -1.4251 -0.2528 -1.8733
 6631TIP3   OH241455   0.532   0.056   2.021 -0.5517 -0.1678  0.3833
 6631TIP3    H141456   0.583  -0.024   2.007 -0.5543 -0.3406  1.2961
 6631TIP3    H241457   0.441   0.026   2.024 -0.5793 -0.0848  0.3759
 6632TIP3   OH241458   4.493   2.611   1.100 -0.0801 -0.1614  0.4613
 6632TIP3    H141459   4.539   2.695   1.115 -1.7613  1.1554 -1.2953
 6632TIP3    H241460   4.520   2.585   1.012 -1.6277 -0.0625 -0.0573
 6633TIP3   OH241461   5.158   5.359   1.041 -0.1291  0.2206  0.0827
 6633TIP3    H141462   5.178   5.431   0.981 -0.5907 -0.8754 -1.4282
 6633TIP3    H241463   5.140   5.284   0.985  0.7106 -1.2138  1.6190
 6634TIP3   OH241464   4.270   5.726   0.063 -0.5095  0.6903  0.2095
 6634TIP3    H141465   4.270   5.665  -0.011 -1.5236  2.6438 -1.5113
 6634TIP3    H241466   4.340   5.695   0.120  0.2778 -0.9406 -1.5386
 6635TIP3   OH241467   4.522   0.011   1.020  0.2707 -0.0373 -0.3020
 6635TIP3    H141468   4.587   0.054   1.076 -0.9979 -0.7685  1.8536
 6635TIP3    H241469   4.518   0.065   0.942  2.0307  1.1344  0.3531
 6636TIP3   OH241470   6.647   3.416   6.712 -0.1354  0.1639 -0.7771
 6636TIP3    H141471   6.669   3.396   6.621 -0.1682  0.0149 -0.7520
 6636TIP3    H241472   6.631   3.511   6.713  0.9544  0.3524 -0.7012
 6637TIP3   OH241473   4.524   5.084   1.372 -0.2536 -0.3692 -0.3566
 6637TIP3    H141474   4.580   5.159   1.355 -0.5112  0.4468  2.1025
 6637TIP3    H241475   4.543   5.058   1.462 -0.9725 -2.5851 -0.7632
 6638TIP3   OH241476   0.566   5.847   8.069 -0.4468 -0.5300 -0.7530
 6638TIP3    H141477   0.482   5.850   8.024 -0.8865 -3.6609 -0.3140
 6638TIP3    H241478   0.544   5.853   8.162 -0.2218 -1.6493 -0.6232
 6639TIP3   OH241479   5.650   5.562   8.341 -0.4999 -0.4560 -0.2149
 6639TIP3    H141480   5.580   5.594   8.398  1.6896  1.5154  1.5808
 6639TIP3    H241481   5.667   5.473   8.371 -2.0166 -0.8742 -0.5172
 6640TIP3   OH241482   3.240   3.302   8.553 -0.2019  0.0483  0.2179
 6640TIP3    H141483   3.223   3.383   8.506 -1.6212  0.5531  1.5305
 6640TIP3    H241484   3.276   3.243   8.487 -0.6960  1.2027 -1.1269
 6641TIP3   OH241485   2.780   0.773   7.429  0.2301 -0.3199 -0.9926
 6641TIP3    H141486   2.715   0.703   7.421 -0.0786  0.0025 -1.3374
 6641TIP3    H241487   2.750   0.826   7.503 -0.2628  0.2047 -1.5621
 6642TIP3   OH241488   4.340   6.592   7.824 -0.6137  0.0269  0.5405
 6642TIP3    H141489   4.313   6.526   7.760  2.4105 -1.7297  0.8512
 6642TIP3    H241490   4.262   6.610   7.875 -2.4021 -0.6960 -1.7725
 6643TIP3   OH241491   0.126   0.382   7.765  0.3325  0.6652  0.5344
 6643TIP3    H141492   0.175   0.387   7.683 -0.0662 -0.6635  0.1842
 6643TIP3    H241493   0.044   0.339   7.741  0.0844  0.5247  1.5727
 6644TIP3   OH241494   0.038   0.076   7.567 -0.7335  0.2160  0.0768
 6644TIP3    H141495  -0.015   0.116   7.635 -0.1558 -1.6205  1.7134
 6644TIP3    H241496  -0.012   0.089   7.487 -1.0592  3.1683  0.6319
 6645TIP3   OH241497   2.032   0.076   0.172 -0.5996 -0.0757  0.1862
 6645TIP3    H141498   2.018   0.164   0.207 -0.6815 -0.1031  0.2224
 6645TIP3    H241499   2.096   0.088   0.103  1.0048 -0.2812  1.5688
 6646TIP3   OH241500   4.388   0.376   0.082  0.1980  0.1352 -0.3043
 6646TIP3    H141501   4.401   0.324   0.003 -0.6540 -0.7495  0.1170
 6646TIP3    H241502   4.470   0.423   0.093  0.4690 -0.0158 -1.4987
 6647TIP3   OH241503   3.913   2.001   1.505  0.0140 -0.4603 -0.1748
 6647TIP3    H141504   3.894   1.921   1.457 -0.6353 -0.3324 -0.1510
 6647TIP3    H241505   3.894   1.979   1.596  2.0906 -0.9671  0.1725
 6648TIP3   OH241506   4.911   4.338   8.523 -0.0628 -0.0314 -0.6058
 6648TIP3    H141507   4.914   4.379   8.609 -2.2496 -1.9635  0.4778
 6648TIP3    H241508   4.869   4.254   8.537  1.9924 -1.6478 -3.1467
 6649TIP3   OH241509   5.658   5.186   6.964 -0.0532 -0.2377 -0.2667
 6649TIP3    H141510   5.626   5.160   6.877 -0.2630 -0.5280 -0.1032
 6649TIP3    H241511   5.631   5.115   7.022  2.1952 -1.2405 -0.3736
 6650TIP3   OH241512   4.582   5.121   1.658 -0.3299 -0.4499  0.2312
 6650TIP3    H141513   4.545   5.167   1.733  0.0626 -0.9400  0.7272
 6650TIP3    H241514   4.616   5.039   1.694  2.4516  0.5290  0.0304
 6651TIP3   OH241515   3.502   0.387   2.074 -0.0697  0.2730  0.0989
 6651TIP3    H141516   3.583   0.400   2.123 -0.5530  1.0242  0.7155
 6651TIP3    H241517   3.448   0.462   2.097 -1.1970 -0.5568  0.2127
 6652TIP3   OH241518   2.716   6.622   0.256 -0.3176  0.1685  0.3826
 6652TIP3    H141519   2.797   6.664   0.286  0.1773  0.9206 -1.8581
 6652TIP3    H241520   2.654   6.637   0.328  1.5651 -0.7232  2.3194
 6653TIP3   OH241521   4.689   3.104   8.331  0.1796 -0.3178 -0.3116
 6653TIP3    H141522   4.751   3.111   8.404  0.8846 -0.6063 -0.8565
 6653TIP3    H241523   4.743   3.071   8.258 -0.1435  1.4593 -1.4085
 6654TIP3   OH241524   5.822   1.031   8.401  0.1067  0.4906 -0.1139
 6654TIP3    H141525   5.830   1.010   8.494 -1.6227 -1.9809 -0.4285
 6654TIP3    H241526   5.816   1.127   8.399  3.6762  0.9428  1.9197
 6655TIP3   OH241527   5.228   2.040   7.281 -0.0708 -0.8946 -0.3973
 6655TIP3    H141528   5.223   2.062   7.374  0.2977  1.0837 -0.8025
 6655TIP3    H241529   5.309   2.081   7.251  0.3932 -2.4421 -1.3859
 6656TIP3   OH241530   6.692   5.313   1.195 -0.4576 -0.3444 -0.2319
 6656TIP3    H141531   6.760   5.263   1.241  0.0632  0.7142  0.1926
 6656TIP3    H241532   6.627   5.247   1.169  0.5824 -1.3473 -0.4025
 6657TIP3   OH241533   2.306   0.806   0.908  0.0532  0.2666 -0.6253
 6657TIP3    H141534   2.346   0.748   0.843  0.6098  0.8070 -0.7757
 6657TIP3    H241535   2.216   0.818   0.876  0.3698  0.6719 -1.4030
 6658TIP3   OH241536   0.451   1.261   1.132 -1.0330  0.6947  0.0416
 6658TIP3    H141537   0.530   1.282   1.182 -0.9151  0.6812 -0.1406
 6658TIP3    H241538   0.379   1.284   1.191 -0.9127  1.7137 -0.1824
 6659TIP3   OH241539   0.028   5.180   6.455 -0.0036  0.1824 -0.3984
 6659TIP3    H141540   0.052   5.164   6.546  0.8569  0.5064 -0.5631
 6659TIP3    H241541  -0.037   5.112   6.435  2.1052 -1.9270 -0.4713
 6660TIP3   OH241542   5.262   3.665   7.047 -0.6307  0.1322  0.1883
 6660TIP3    H141543   5.192   3.605   7.074 -1.6734  0.4317 -1.7329
 6660TIP3    H241544   5.296   3.627   6.966 -0.2128  1.2747 -0.1882
 6661TIP3   OH241545   1.481   0.377   1.630 -0.1754  0.0209  0.2027
 6661TIP3    H141546   1.407   0.316   1.629  0.9360 -1.5963  3.3478
 6661TIP3    H241547   1.440   0.463   1.637 -2.0208 -0.9476  4.8959
 6662TIP3   OH241548   3.685   2.684   1.158  0.3018 -0.0395 -0.1442
 6662TIP3    H141549   3.716   2.631   1.231 -2.4436 -0.1587  1.0393
 6662TIP3    H241550   3.689   2.774   1.190 -1.5486 -0.1432  0.4840
 6663TIP3   OH241551   0.592   4.736   0.472  0.4749  0.8658 -0.5483
 6663TIP3    H141552   0.549   4.667   0.524  0.2621  1.8117  0.5677
 6663TIP3    H241553   0.682   4.705   0.462  0.4641  0.5477  0.1977
 6664TIP3   OH241554   4.931   1.027   7.595 -0.5067 -0.7349 -0.2285
 6664TIP3    H141555   4.838   1.007   7.602 -0.7326  0.1110 -0.7175
 6664TIP3    H241556   4.969   0.992   7.676 -1.2834 -0.8606  0.0901
 6665TIP3   OH241557   3.367   6.404   1.613  0.2798 -0.3659 -0.0813
 6665TIP3    H141558   3.310   6.327   1.616 -0.1891 -0.0177  0.1298
 6665TIP3    H241559   3.450   6.374   1.648  0.0012 -0.6970  0.3135
 6666TIP3   OH241560   5.649   6.502   0.945  0.4983  0.9487  0.1164
 6666TIP3    H141561   5.632   6.516   0.852 -0.4981  1.1175  0.3112
 6666TIP3    H241562   5.706   6.574   0.970  0.6973  0.9537 -0.3428
 6667TIP3   OH241563   3.373   4.041   0.373  0.7068  0.8914  0.7494
 6667TIP3    H141564   3.359   3.947   0.388 -2.1820  1.1232  0.2169
 6667TIP3    H241565   3.450   4.046   0.317  0.7035 -1.1927  0.4837
 6668TIP3   OH241566   3.806   0.592   7.935 -0.0889 -0.5270 -0.2545
 6668TIP3    H141567   3.718   0.557   7.950  0.5768 -1.8961  0.6663
 6668TIP3    H241568   3.855   0.568   8.014  0.5553  2.2083  0.2854
 6669TIP3   OH241569   2.566   4.338   6.266 -0.3995  0.1078 -0.3118
 6669TIP3    H141570   2.529   4.353   6.353  2.1047 -0.8589  1.0209
 6669TIP3    H241571   2.533   4.252   6.241  0.3440 -0.4595  0.5716
 6670TIP3   OH241572   4.793   6.724   8.266 -0.5180 -0.4344 -0.0803
 6670TIP3    H141573   4.865   6.665   8.291  0.7375  0.8306 -0.5684
 6670TIP3    H241574   4.717   6.689   8.312  0.7346 -0.9130  1.7392
 6671TIP3   OH241575   5.052   6.474   1.561  0.1023  0.3733  0.0741
 6671TIP3    H141576   5.014   6.407   1.618 -0.8209  0.5867 -0.2563
 6671TIP3    H241577   5.139   6.442   1.540 -0.6529 -1.2221 -0.8409
 6672TIP3   OH241578   1.290   3.770   0.505  0.5865  0.3823 -0.2190
 6672TIP3    H141579   1.214   3.732   0.549  0.4225  1.5473  0.5464
 6672TIP3    H241580   1.353   3.783   0.576  0.8287  1.0603 -0.5577
 6673TIP3   OH241581   0.902   0.993   8.325 -0.0841  0.4539  0.8304
 6673TIP3    H141582   0.917   0.907   8.365  0.4595 -0.0870 -0.4684
 6673TIP3    H241583   0.816   1.019   8.357 -0.6884 -1.0236  0.5153
 6674TIP3   OH241584   6.125   0.404   8.489 -0.4349  0.3094 -0.0637
 6674TIP3    H141585   6.205   0.352   8.479  0.4757  1.7291 -0.5225
 6674TIP3    H241586   6.099   0.424   8.399 -1.3619 -0.1960  0.0820
 6675TIP3   OH241587   2.711   4.567   8.004 -0.1403 -0.3644  0.0088
 6675TIP3    H141588   2.686   4.502   8.071  1.0583 -2.0163 -1.0524
 6675TIP3    H241589   2.697   4.522   7.921  2.7352 -0.1326 -0.7237
 6676TIP3   OH241590   0.465   3.087   0.829 -0.3002  0.8713 -0.1852
 6676TIP3    H141591   0.416   3.008   0.852  0.8207 -0.0238 -0.7336
 6676TIP3    H241592   0.436   3.109   0.740  0.8458 -0.1620 -0.8538
 6677TIP3   OH241593   5.695   4.958   1.489 -0.0855 -0.5370 -0.2434
 6677TIP3    H141594   5.639   5.021   1.534 -0.6388 -0.5556 -0.8837
 6677TIP3    H241595   5.782   4.970   1.529 -0.4543 -0.2407  0.4929
 6678TIP3   OH241596   5.060   2.194   1.957 -0.0958  0.1707 -0.0211
 6678TIP3    H141597   5.001   2.127   1.922 -1.3647  0.0927  2.1420
 6678TIP3    H241598   5.114   2.148   2.021 -0.3861  1.0116  0.8583
 6679TIP3   OH241599   6.408   5.673   2.354  0.5077  0.2689 -0.5760
 6679TIP3    H141600   6.322   5.651   2.389 -0.0661  1.8127 -0.9352
 6679TIP3    H241601   6.392   5.749   2.298  2.1791  0.8673 -0.2950
 6680TIP3   OH241602   0.456   1.458   7.849 -0.1851 -0.2649  0.0183
 6680TIP3    H141603   0.414   1.442   7.764  0.2294 -1.2874 -0.0133
 6680TIP3    H241604   0.524   1.391   7.855 -0.5731 -0.5660  1.4109
 6681TIP3   OH241605   6.637   3.777   7.960  0.0361 -0.6844  0.6813
 6681TIP3    H141606   6.576   3.717   8.002  1.5773 -3.6766 -1.0025
 6681TIP3    H241607   6.590   3.860   7.955 -2.8851 -2.1462  1.6474
 6682TIP3   OH241608   1.752   0.871   1.996  0.1936  0.1295 -0.2026
 6682TIP3    H141609   1.795   0.877   2.081 -0.8386  2.0044  0.2661
 6682TIP3    H241610   1.661   0.847   2.017 -0.9991  3.8628 -0.3085
 6683TIP3   OH241611   1.779   3.105   0.450  0.2174 -0.2951  0.0764
 6683TIP3    H141612   1.852   3.133   0.394 -0.7929  0.1334 -1.0574
 6683TIP3    H241613   1.790   3.157   0.530  1.5043 -0.6908  0.1760
 6684TIP3   OH241614   2.948   1.742   1.618 -0.0409 -0.1648 -0.0320
 6684TIP3    H141615   2.990   1.768   1.536 -0.7386 -1.7439 -0.9380
 6684TIP3    H241616   3.013   1.688   1.662 -0.8562 -2.3000 -1.2642
 6685TIP3   OH241617   4.257   2.960   6.276  0.0486 -0.1351  0.8113
 6685TIP3    H141618   4.215   2.947   6.190 -1.8129  0.9686  1.4901
 6685TIP3    H241619   4.224   2.888   6.329 -0.2287  0.2012  1.0939
 6686TIP3   OH241620   3.171   2.580   7.481  0.1183 -0.3507  0.2089
 6686TIP3    H141621   3.175   2.672   7.454 -2.2978 -0.7265 -1.7598
 6686TIP3    H241622   3.141   2.584   7.572  2.8578  0.7974  1.1675
 6687TIP3   OH241623   4.237   2.614   6.158  0.0139 -0.0457 -0.1862
 6687TIP3    H141624   4.271   2.665   6.085 -0.6905 -1.5396 -1.6318
 6687TIP3    H241625   4.179   2.674   6.206  0.9181  1.1131 -0.5096
 6688TIP3   OH241626   1.735   1.619   8.703 -0.7757  0.0604 -0.1118
 6688TIP3    H141627   1.701   1.598   8.790 -0.2551  2.0365  0.6193
 6688TIP3    H241628   1.662   1.660   8.657 -0.3663  1.2393  0.2704
 6689TIP3   OH241629   1.309   2.464   1.887 -0.0488  0.2222 -0.6663
 6689TIP3    H141630   1.311   2.490   1.979  0.5335 -2.7692  0.2915
 6689TIP3    H241631   1.238   2.401   1.881  1.3564 -1.3796 -1.6482
 6690TIP3   OH241632   1.730   5.128   8.575  0.1362  0.3598 -0.1355
 6690TIP3    H141633   1.700   5.156   8.489  2.3656  1.5156 -0.6169
 6690TIP3    H241634   1.662   5.158   8.636 -1.4211 -0.3929 -1.4556
 6691TIP3   OH241635   5.156   0.397   0.902 -0.0655 -0.8533 -0.3320
 6691TIP3    H141636   5.204   0.315   0.885  1.4295 -0.4723  1.6344
 6691TIP3    H241637   5.095   0.374   0.973 -0.9720 -0.6943 -1.0506
 6692TIP3   OH241638   4.185   0.202   0.167 -0.5859  0.1619 -0.4097
 6692TIP3    H141639   4.224   0.282   0.131  2.4971 -1.2364 -0.5371
 6692TIP3    H241640   4.175   0.145   0.091 -0.5337 -0.3730 -0.0187
 6693TIP3   OH241641   4.936   2.599   8.014  0.3059  0.2434  0.1336
 6693TIP3    H141642   5.020   2.612   7.971  1.4102 -2.5006  1.2596
 6693TIP3    H241643   4.954   2.609   8.107 -0.9661  1.1000  0.3094
 6694TIP3   OH241644   1.610   0.853   7.861  0.0050 -0.1545  0.4540
 6694TIP3    H141645   1.541   0.860   7.927  0.5232 -0.7289  1.0786
 6694TIP3    H241646   1.685   0.897   7.901  0.7831 -1.8093  0.9154
 6695TIP3   OH241647   5.129   2.033   0.917 -0.0308 -0.1060  0.3545
 6695TIP3    H141648   5.214   2.040   0.873 -0.2737 -0.4351 -0.1843
 6695TIP3    H241649   5.100   2.124   0.927  0.3093  0.0004  0.3977
 6696TIP3   OH241650   0.700   0.288   6.579  0.1275  0.0566 -0.0085
 6696TIP3    H141651   0.756   0.365   6.588  2.4935 -1.4738 -0.7535
 6696TIP3    H241652   0.639   0.311   6.509  0.5524  1.3895  0.0299
 6697TIP3   OH241653   5.960   4.871   7.337  0.3153  0.4025  0.5897
 6697TIP3    H141654   5.994   4.899   7.252 -0.2033 -0.8899 -0.0724
 6697TIP3    H241655   5.983   4.778   7.343  2.2124  0.9003  2.8176
 6698TIP3   OH241656   5.614   5.657   0.552  0.2028  0.5895  0.2023
 6698TIP3    H141657   5.689   5.599   0.543  0.1421  0.4610  0.5447
 6698TIP3    H241658   5.645   5.729   0.607  0.3231  0.9668 -0.3400
 6699TIP3   OH241659   1.494   1.973   7.437  0.1630  0.3731  0.2799
 6699TIP3    H141660   1.409   1.928   7.440  0.4327 -0.2013 -0.4367
 6699TIP3    H241661   1.510   1.999   7.528  0.7337 -2.3751  1.0435
 6700TIP3   OH241662   0.285   2.870   8.752 -0.4992 -0.5508 -0.7544
 6700TIP3    H141663   0.223   2.906   8.688 -1.3327  0.8521  0.7870
 6700TIP3    H241664   0.230   2.821   8.814 -0.0996  0.7029  0.6290
 6701TIP3   OH241665   5.386   4.988   1.853 -0.3066 -0.1567 -0.7298
 6701TIP3    H141666   5.424   4.902   1.874 -1.2547 -0.3655  0.2345
 6701TIP3    H241667   5.429   5.048   1.914  2.4574  0.6325 -3.2596
 6702TIP3   OH241668   3.312   4.306   1.174 -0.3731  0.1021 -0.0027
 6702TIP3    H141669   3.393   4.333   1.218  0.2460 -1.0552 -0.3965
 6702TIP3    H241670   3.323   4.212   1.160 -3.4285 -1.0208  3.4924
 6703TIP3   OH241671   0.886   1.056   0.666 -0.4242 -0.2827  0.4539
 6703TIP3    H141672   0.809   1.089   0.713  0.0148 -0.4699  1.3390
 6703TIP3    H241673   0.859   1.052   0.574 -1.9237 -1.5654  0.8991
 6704TIP3   OH241674   5.120   3.318   6.376 -0.0370  0.2787  0.6223
 6704TIP3    H141675   5.161   3.404   6.373 -0.2110  0.3433 -2.1228
 6704TIP3    H241676   5.169   3.266   6.313 -1.6865 -0.7947  0.1632
 6705TIP3   OH241677   0.527   0.151   1.675 -0.5396  0.3808  0.4606
 6705TIP3    H141678   0.508   0.063   1.644 -1.8592 -0.1531  2.5790
 6705TIP3    H241679   0.596   0.139   1.740 -2.5311  0.4530  2.7302
 6706TIP3   OH241680   2.580   4.280   7.677  0.0903  0.0184 -0.3331
 6706TIP3    H141681   2.535   4.224   7.613  0.7680 -1.6712  0.6144
 6706TIP3    H241682   2.641   4.222   7.721  0.0784  1.2787  1.4589
 6707TIP3   OH241683   5.070   5.639   0.155 -0.3085  0.1937  0.0342
 6707TIP3    H141684   4.991   5.689   0.172 -0.9326 -1.0781  1.0190
 6707TIP3    H241685   5.059   5.608   0.065 -1.9014 -1.5751  0.7627
 6708TIP3   OH241686   1.954   1.639   8.519 -0.3342  0.3848  0.4272
 6708TIP3    H141687   1.886   1.644   8.587 -0.1176 -1.7748  0.8481
 6708TIP3    H241688   2.006   1.718   8.533  0.6823 -0.7058  3.9125
 6709TIP3   OH241689   5.273   5.940   0.852  0.3330  0.0613 -0.2110
 6709TIP3    H141690   5.215   5.939   0.775 -1.3481 -0.3754  0.9958
 6709TIP3    H241691   5.331   6.015   0.838 -1.0192  0.9814 -1.1479
 6710TIP3   OH241692   4.090   2.801   1.030 -0.0808  0.2279  0.4794
 6710TIP3    H141693   4.117   2.802   1.122 -1.6483 -2.7361  1.1063
 6710TIP3    H241694   4.028   2.873   1.022 -1.1036 -0.3983  2.2232
 6711TIP3   OH241695   2.742   4.843   8.174 -0.2707  0.2099 -0.4740
 6711TIP3    H141696   2.653   4.877   8.170 -0.2615  0.7100  1.9800
 6711TIP3    H241697   2.737   4.756   8.135 -2.0519 -0.1270  0.4410
 6712TIP3   OH241698   3.059   2.778   1.400 -0.2613 -0.2454  0.0951
 6712TIP3    H141699   3.099   2.865   1.408 -1.8764  0.4121  1.9824
 6712TIP3    H241700   3.125   2.724   1.357  0.9720  1.7865 -0.6913
 6713TIP3   OH241701   3.955   5.441   1.715  0.4765  0.1352 -0.4765
 6713TIP3    H141702   3.930   5.378   1.646 -0.3963 -0.8001  0.6525
 6713TIP3    H241703   3.898   5.516   1.700  0.7276  0.2062 -1.1407
 6714TIP3   OH241704   2.902   0.224   2.340  0.2453 -0.2039 -0.0801
 6714TIP3    H141705   2.983   0.201   2.384  0.2395 -0.1022 -0.0141
 6714TIP3    H241706   2.877   0.145   2.292  0.9843  0.1256 -1.0370
 6715TIP3   OH241707   4.617   0.437   0.267 -0.0536 -0.1008 -0.1146
 6715TIP3    H141708   4.694   0.474   0.225 -1.0149  0.7087 -1.2119
 6715TIP3    H241709   4.603   0.353   0.222 -0.4231  0.2406 -0.6405
 6716TIP3   OH241710   1.446   2.916   0.020  0.5028  0.1158 -0.5734
 6716TIP3    H141711   1.477   2.936  -0.069  2.7754 -0.1410  0.0957
 6716TIP3    H241712   1.524   2.882   0.065 -0.6536  0.0361  1.4625
 6717TIP3   OH241713   1.339   6.138   8.790 -0.1367 -0.2737 -0.1138
 6717TIP3    H141714   1.334   6.234   8.789 -1.3116 -0.2971 -2.1454
 6717TIP3    H241715   1.386   6.117   8.709 -1.9770 -1.4690 -0.9094
 6718TIP3   OH241716   4.254   4.612   7.863 -0.0831 -0.4466 -0.1672
 6718TIP3    H141717   4.277   4.568   7.946  0.8669  1.6928  0.7677
 6718TIP3    H241718   4.321   4.679   7.853 -2.7017  2.3054 -0.3525
 6719TIP3   OH241719   4.473   0.966   6.837  0.1327 -0.5921 -0.4869
 6719TIP3    H141720   4.490   0.872   6.843  1.0830 -0.4243 -0.4848
 6719TIP3    H241721   4.527   1.005   6.906  1.0421  0.1107 -1.5654
 6720TIP3   OH241722   4.472   5.161   0.999 -0.0534  0.0039  0.0121
 6720TIP3    H141723   4.415   5.221   1.048 -1.2627  0.0918 -1.4499
 6720TIP3    H241724   4.555   5.162   1.048 -0.2870  2.2470  0.4690
 6721TIP3   OH241725   4.594   0.870   1.830  0.4220  0.1362  0.7391
 6721TIP3    H141726   4.522   0.870   1.767  0.7300 -2.6547  0.2729
 6721TIP3    H241727   4.555   0.907   1.909 -0.7913  1.0355 -0.2347
 6722TIP3   OH241728   0.516   4.163   1.277  0.4842  0.1551  0.1419
 6722TIP3    H141729   0.552   4.226   1.340  1.1788 -0.0119 -0.0823
 6722TIP3    H241730   0.482   4.093   1.331  1.4700 -0.1938  0.3341
 6723TIP3   OH241731   5.071   4.123   7.205  0.2687  0.2549 -0.1781
 6723TIP3    H141732   5.044   4.210   7.174 -0.4861 -0.5812 -1.9987
 6723TIP3    H241733   5.158   4.138   7.244  0.8634  1.5829 -1.8901
 6724TIP3   OH241734   5.959   6.249   1.789  0.0852 -0.0048 -0.0311
 6724TIP3    H141735   5.978   6.297   1.870  1.7401 -1.4586  0.4991
 6724TIP3    H241736   5.918   6.168   1.819 -0.2078 -0.1098 -0.7187
 6725TIP3   OH241737   2.637   3.613   1.576 -0.2501 -0.1545  0.3543
 6725TIP3    H141738   2.700   3.575   1.637 -0.9332  0.4766  1.4934
 6725TIP3    H241739   2.667   3.704   1.566  0.6218 -0.5967 -1.3176
 6726TIP3   OH241740   5.596   4.994   2.603  0.1512 -0.0533  0.1173
 6726TIP3    H141741   5.690   4.973   2.602 -0.1246 -1.4290 -0.4766
 6726TIP3    H241742   5.553   4.909   2.593 -1.1469  0.6396 -0.4268
 6727TIP3   OH241743   5.888   5.836   1.622  0.1853  0.3342  0.2900
 6727TIP3    H141744   5.843   5.803   1.700 -0.2247  0.0113 -0.0787
 6727TIP3    H241745   5.831   5.810   1.549  0.6498  0.4880 -0.1285
 6728TIP3   OH241746   6.124   4.355   8.588  0.7890  0.1874  0.2806
 6728TIP3    H141747   6.167   4.402   8.659  1.2895  0.8296 -0.4383
 6728TIP3    H241748   6.195   4.312   8.541  0.3646 -1.1899  0.8181
 6729TIP3   OH241749   5.836   6.616   8.612  0.5661  0.1287 -0.3116
 6729TIP3    H141750   5.922   6.646   8.585  0.8750 -0.7537 -0.3454
 6729TIP3    H241751   5.854   6.547   8.677 -0.1251  0.5604  0.3602
 6730TIP3   OH241752   5.290   1.491   0.154  0.1710 -0.0739 -0.0168
 6730TIP3    H141753   5.279   1.581   0.186  2.3467  0.0555  0.4765
 6730TIP3    H241754   5.259   1.495   0.063 -1.3858  0.7266  0.5113
 6731TIP3   OH241755   4.451   4.237   0.302  0.0533 -0.4567  0.4525
 6731TIP3    H141756   4.438   4.215   0.210  1.9956  2.4514 -0.6662
 6731TIP3    H241757   4.365   4.268   0.331  0.3392  3.1335 -1.9330
 6732TIP3   OH241758   5.616   0.192   1.147  0.4159  0.0949 -0.2288
 6732TIP3    H141759   5.696   0.215   1.194 -0.1219 -0.7359  1.1593
 6732TIP3    H241760   5.645   0.156   1.064  1.4569  0.3212  0.0315
 6733TIP3   OH241761   4.586   4.743   8.639 -0.1468 -0.6047 -0.0415
 6733TIP3    H141762   4.631   4.727   8.723  1.6594 -0.8110 -0.9915
 6733TIP3    H241763   4.628   4.822   8.605 -3.0976  1.4353  0.6721
 6734TIP3   OH241764   5.747   1.942   0.458 -0.2622 -0.2637  0.1753
 6734TIP3    H141765   5.730   1.897   0.541 -0.9242  0.4235  0.4245
 6734TIP3    H241766   5.832   1.985   0.472 -0.4189 -0.0681  0.5397
 6735TIP3   OH241767   0.553   2.294   8.006  0.0494  0.3171  0.3662
 6735TIP3    H141768   0.553   2.245   7.924  0.2733 -0.7134  0.9597
 6735TIP3    H241769   0.595   2.377   7.985 -0.1292  0.1671 -0.6157
 6736TIP3   OH241770   3.315   5.103   1.126  0.2566  0.1829  0.5646
 6736TIP3    H141771   3.392   5.110   1.183  1.4091 -1.2991 -0.7115
 6736TIP3    H241772   3.335   5.160   1.052 -0.1045  0.1886  0.4710
 6737TIP3   OH241773   0.983   4.225   7.803 -0.4134  0.3810 -0.0583
 6737TIP3    H141774   0.980   4.318   7.824 -1.4470  0.1424  1.0045
 6737TIP3    H241775   0.918   4.214   7.733 -0.5177  0.4116  0.0330
 6738TIP3   OH241776   5.326   1.805   8.346 -0.4729 -0.0980 -0.4672
 6738TIP3    H141777   5.383   1.881   8.352  0.1830 -0.5819 -0.4820
 6738TIP3    H241778   5.244   1.839   8.310  0.2869  0.3437 -1.8448
 6739TIP3   OH241779   1.698   5.329   0.096  0.5097 -0.5215 -0.0130
 6739TIP3    H141780   1.674   5.413   0.136  1.5950 -0.6998  1.0314
 6739TIP3    H241781   1.628   5.313   0.032  0.7028  1.5822 -0.8485
 6740TIP3   OH241782   0.473   6.449   0.102  0.4155 -0.0723 -0.3276
 6740TIP3    H141783   0.387   6.491   0.112 -0.1961 -1.1651 -0.7521
 6740TIP3    H241784   0.506   6.483   0.018  0.2650  0.1265 -0.3088
 6741TIP3   OH241785   4.672   1.019   7.002 -0.2617 -0.1094  0.3670
 6741TIP3    H141786   4.709   0.958   7.065  0.8128 -1.3848 -1.3867
 6741TIP3    H241787   4.685   1.105   7.041  1.7153 -0.7422  1.2557
 6742TIP3   OH241788   3.018   2.368   1.177 -0.2710  0.1583 -0.2597
 6742TIP3    H141789   3.049   2.341   1.090  0.0142 -0.2316 -0.0425
 6742TIP3    H241790   2.931   2.329   1.184 -0.0735 -0.2759 -0.1589
 6743TIP3   OH241791   0.737   1.921   1.299  0.3083  0.1722 -0.1731
 6743TIP3    H141792   0.765   1.829   1.294  0.3362  0.1054  0.9171
 6743TIP3    H241793   0.645   1.916   1.322 -0.4230  0.4115 -2.6920
 6744TIP3   OH241794   3.227   1.659   8.543 -0.5188  0.4946  0.4124
 6744TIP3    H141795   3.211   1.744   8.585 -2.1838 -0.6259  2.2292
 6744TIP3    H241796   3.188   1.668   8.456 -1.6922  1.2826  0.9836
 6745TIP3   OH241797   2.087   1.836   8.752 -0.1356 -0.4545  0.5590
 6745TIP3    H141798   2.069   1.926   8.780  0.8774 -0.0111 -0.1794
 6745TIP3    H241799   2.097   1.842   8.658 -1.2418 -1.5642  0.3412
 6746TIP3   OH241800   2.299   1.095   0.676 -0.3092  0.4957 -0.3389
 6746TIP3    H141801   2.378   1.079   0.728 -1.9906 -1.1525  1.9749
 6746TIP3    H241802   2.289   1.016   0.623 -1.0749  0.0397  0.4376
 6747TIP3   OH241803   0.845   5.887   2.501 -0.4781 -0.1663  0.1092
 6747TIP3    H141804   0.796   5.934   2.569 -0.5782  0.3663 -0.3255
 6747TIP3    H241805   0.803   5.913   2.419 -0.6420 -1.1520 -0.1335
 6748TIP3   OH241806   1.109   3.713   1.901  0.2593 -0.3700 -0.5638
 6748TIP3    H141807   1.168   3.779   1.864  0.2137 -0.0317 -0.0412
 6748TIP3    H241808   1.128   3.634   1.851 -1.8284  0.7211 -3.3556
 6749TIP3   OH241809   4.734   0.254   0.934  0.1790  0.0725  0.0768
 6749TIP3    H141810   4.673   0.274   0.863  1.4430  0.6910 -0.8772
 6749TIP3    H241811   4.761   0.340   0.967 -0.3000 -0.2109  1.2409
 6750TIP3   OH241812   4.203   3.975   0.352  0.6061 -0.0820  0.1207
 6750TIP3    H141813   4.253   4.014   0.424  1.2526  0.7426 -0.7436
 6750TIP3    H241814   4.134   4.038   0.334 -0.5349 -1.0278  1.0360
 6751TIP3   OH241815   2.456   1.044   7.553  0.7656  0.3891  0.3894
 6751TIP3    H141816   2.506   0.963   7.546  1.9671  1.2032 -0.9613
 6751TIP3    H241817   2.375   1.019   7.597  0.9137 -1.6407 -0.4151
 6752TIP3   OH241818   0.383   2.862   0.544  0.2731  0.6371 -0.0753
 6752TIP3    H141819   0.396   2.956   0.552  0.8565  0.6081 -0.6125
 6752TIP3    H241820   0.457   2.831   0.491  0.0402 -0.1074  0.0108
 6753TIP3   OH241821   1.366   4.616   7.735 -0.0316  0.6023  0.1979
 6753TIP3    H141822   1.276   4.586   7.721  0.4261 -0.8187  0.1672
 6753TIP3    H241823   1.390   4.580   7.821  1.3072 -1.1031 -0.8337
 6754TIP3   OH241824   1.064   5.302   8.791 -0.6911 -0.5405 -0.4503
 6754TIP3    H141825   1.006   5.361   8.839 -0.5431 -0.1769 -0.7148
 6754TIP3    H241826   1.034   5.214   8.816 -1.8479 -0.3707 -1.1667
 6755TIP3   OH241827   5.942   1.078   0.361 -0.2252 -1.1978  0.1255
 6755TIP3    H141828   5.874   1.121   0.413 -1.5993 -1.8047 -1.1143
 6755TIP3    H241829   5.975   1.008   0.418  0.7293  0.2604  1.4472
 6756TIP3   OH241830   0.417   4.526   6.631  0.3860 -0.5573  0.4219
 6756TIP3    H141831   0.339   4.580   6.620  0.1149 -0.7250  1.4966
 6756TIP3    H241832   0.490   4.584   6.611  0.0791  0.1398  1.2899
 6757TIP3   OH241833   3.580   0.889   8.719  0.2010 -0.2290 -0.4697
 6757TIP3    H141834   3.632   0.854   8.647  1.0442  0.0001  0.0235
 6757TIP3    H241835   3.642   0.900   8.791 -0.7981 -1.4273  0.6441
 6758TIP3   OH241836   6.222   4.245   7.725  0.3128 -0.2614  0.3418
 6758TIP3    H141837   6.146   4.218   7.777  0.3748 -0.7378  0.1950
 6758TIP3    H241838   6.217   4.190   7.646 -0.7563  1.6434 -0.9838
 6759TIP3   OH241839   5.326   2.884   7.638 -0.0775 -0.6152 -0.7671
 6759TIP3    H141840   5.250   2.914   7.588  0.5857  1.0251 -0.8609
 6759TIP3    H241841   5.394   2.869   7.572  0.4845  0.5697 -0.4953
 6760TIP3   OH241842   6.593   2.446   7.366 -0.0272 -0.1232  0.1687
 6760TIP3    H141843   6.576   2.515   7.302  2.0717 -0.9655 -1.3797
 6760TIP3    H241844   6.513   2.393   7.366 -1.0003  1.2780  0.1224
 6761TIP3   OH241845   6.513   0.535   8.000  0.3712 -0.3084 -0.7490
 6761TIP3    H141846   6.532   0.460   8.057 -1.2310 -0.8430 -0.8704
 6761TIP3    H241847   6.599   0.567   7.973  1.4301  1.4516  3.7740
 6762TIP3   OH241848   5.483   0.964   8.616  0.6097  0.1541  0.4485
 6762TIP3    H141849   5.443   1.029   8.675  2.1341  0.1860  1.4946
 6762TIP3    H241850   5.558   0.930   8.665  0.7459 -1.2882 -0.7067
 6763TIP3   OH241851   4.763   3.138   1.750 -0.2277  0.2258  0.5986
 6763TIP3    H141852   4.798   3.224   1.725  0.7689 -0.1295  0.6949
 6763TIP3    H241853   4.721   3.152   1.834 -1.3438  0.9076 -0.0587
 6764TIP3   OH241854   4.438   6.027   1.212  0.6197 -0.1682 -0.1541
 6764TIP3    H141855   4.449   5.980   1.295  1.9653  2.0189  0.9898
 6764TIP3    H241856   4.501   6.099   1.216 -0.1376  0.7334 -2.5605
 6765TIP3   OH241857   1.534   4.409   7.033  0.0827 -0.2016 -0.0121
 6765TIP3    H141858   1.516   4.377   7.121  2.2926  2.5016  1.5909
 6765TIP3    H241859   1.623   4.377   7.014  0.3966  0.8726 -0.3965
 6766TIP3   OH241860   1.599   0.393   2.203  0.1664  0.3626 -0.3011
 6766TIP3    H141861   1.673   0.440   2.164  0.6118  0.2010  0.3289
 6766TIP3    H241862   1.605   0.412   2.297 -0.0997 -0.3235 -0.1359
 6767TIP3   OH241863   6.445   4.718   7.646  0.2465 -0.2428 -0.0125
 6767TIP3    H141864   6.413   4.774   7.716  0.3017  0.5116 -0.5814
 6767TIP3    H241865   6.494   4.776   7.589  2.0996 -1.2393  0.4728
 6768TIP3   OH241866   2.070   4.954   7.087  0.3348 -0.0981 -0.1572
 6768TIP3    H141867   2.157   4.986   7.111  0.4562 -1.2437  1.0450
 6768TIP3    H241868   2.084   4.905   7.006  0.8491 -0.4264  0.1281
 6769TIP3   OH241869   3.676   3.110   8.115 -0.1662 -0.1460 -0.0455
 6769TIP3    H141870   3.720   3.150   8.041 -0.5530  0.0892 -0.1511
 6769TIP3    H241871   3.591   3.081   8.081  0.1849 -1.2500 -0.0215
 6770TIP3   OH241872   5.127   3.158   2.316 -0.4624 -0.2043 -0.2580
 6770TIP3    H141873   5.151   3.186   2.404 -2.1652  0.6290 -0.0148
 6770TIP3    H241874   5.187   3.205   2.258  0.4537 -0.5090  0.4210
 6771TIP3   OH241875   6.112   5.921   1.781  0.0016  0.0687  0.0840
 6771TIP3    H141876   6.031   5.908   1.732  0.7326 -1.0298 -0.8834
 6771TIP3    H241877   6.095   5.879   1.866 -1.4206  2.3507  1.0274
 6772TIP3   OH241878   2.906   1.095   7.879 -0.4523 -0.3838  0.8305
 6772TIP3    H141879   2.981   1.055   7.922 -0.4292 -1.2221  0.0488
 6772TIP3    H241880   2.943   1.137   7.801 -0.9155 -1.8342 -0.2177
 6773TIP3   OH241881   0.582   2.786   0.380 -0.1554 -0.0106  0.6490
 6773TIP3    H141882   0.653   2.844   0.353 -0.7448  1.0386  1.2970
 6773TIP3    H241883   0.530   2.773   0.301 -0.3158  0.7945  0.6122
 6774TIP3   OH241884   4.748   0.164   8.180 -0.5001 -0.2774 -0.2228
 6774TIP3    H141885   4.785   0.082   8.211 -1.4054 -0.2485  1.0177
 6774TIP3    H241886   4.677   0.138   8.122  0.1209 -0.3438 -0.9695
 6775TIP3   OH241887   3.720   4.867   0.022 -0.3873  0.3738  0.3094
 6775TIP3    H141888   3.698   4.834   0.109  0.2307  0.4465  0.4962
 6775TIP3    H241889   3.804   4.911   0.033 -1.1675  2.0028  0.0618
 6776TIP3   OH241890   1.826   3.510   1.305  0.3465 -0.2230  0.2695
 6776TIP3    H141891   1.902   3.527   1.360 -0.3722 -0.4393  1.3590
 6776TIP3    H241892   1.764   3.579   1.328 -0.4187 -1.0122  0.5957
 6777TIP3   OH241893   3.253   2.858   8.509  0.1274 -0.0523  0.2765
 6777TIP3    H141894   3.303   2.795   8.458  0.1561 -0.9414  1.3664
 6777TIP3    H241895   3.275   2.839   8.600 -0.0928  1.3445  0.6549
 6778TIP3   OH241896   0.424   6.592   7.869 -0.0095 -0.4835  0.0281
 6778TIP3    H141897   0.356   6.642   7.824 -0.5983  1.0429  2.4501
 6778TIP3    H241898   0.396   6.501   7.861  0.0575 -0.3619 -2.7737
 6779TIP3   OH241899   3.661   6.448   0.469  0.4213 -0.0521  0.2829
 6779TIP3    H141900   3.634   6.380   0.530 -0.7928  1.0687  1.0576
 6779TIP3    H241901   3.578   6.484   0.435  1.0361  0.7284 -0.4334
 6780TIP3   OH241902   1.084   3.742   2.178 -0.0490  0.2368  0.4034
 6780TIP3    H141903   1.099   3.834   2.199  1.5046 -0.0294  0.6071
 6780TIP3    H241904   1.107   3.734   2.085 -1.6419  0.3238 -0.0342
 6781TIP3   OH241905   2.663   6.336   8.407 -0.0960 -0.0917 -0.0391
 6781TIP3    H141906   2.601   6.286   8.355  0.1195 -0.3294 -0.0675
 6781TIP3    H241907   2.716   6.384   8.343 -0.7719  0.7407  0.0068
 6782TIP3   OH241908   2.696   5.883   1.826 -0.0133  0.2573  0.3568
 6782TIP3    H141909   2.787   5.908   1.809  0.4209 -1.4560  0.0538
 6782TIP3    H241910   2.697   5.851   1.916  0.0442 -1.2694 -0.1639
 6783TIP3   OH241911   4.060   3.846   8.555  0.0636  0.0157  0.0457
 6783TIP3    H141912   4.110   3.867   8.633 -0.1165  0.9017 -0.0679
 6783TIP3    H241913   4.037   3.931   8.517 -1.1949 -0.3699 -0.1173
 6784TIP3   OH241914   6.624   3.150   8.397 -0.7112  0.6123 -0.0741
 6784TIP3    H141915   6.676   3.161   8.317 -2.1765 -0.6033 -1.2637
 6784TIP3    H241916   6.563   3.224   8.397 -2.7032 -0.8767 -1.7784
 6785TIP3   OH241917   0.064   4.170   8.146  0.0650  0.1497  0.4701
 6785TIP3    H141918  -0.022   4.128   8.154  0.2912 -0.2655  0.7419
 6785TIP3    H241919   0.049   4.259   8.180 -0.6458  0.6316 -1.0273
 6786TIP3   OH241920   5.567   2.067   8.573  0.3435  0.2576  0.5858
 6786TIP3    H141921   5.606   1.981   8.560  2.9241  1.4812 -0.5104
 6786TIP3    H241922   5.617   2.106   8.644  0.0973  1.3155  0.1992
 6787TIP3   OH241923   4.795   1.439   8.497  0.1998  0.6447  0.2799
 6787TIP3    H141924   4.752   1.419   8.414 -1.6037  1.3785  0.9891
 6787TIP3    H241925   4.773   1.530   8.515  1.1847  0.7259  1.2157
 6788TIP3   OH241926   1.837   4.139   8.558  0.4262  0.2580  0.2716
 6788TIP3    H141927   1.898   4.186   8.615  0.5487 -0.1265  0.4627
 6788TIP3    H241928   1.759   4.195   8.555  1.5048  1.7950 -1.6233
 6789TIP3   OH241929   2.873   2.782   8.448  0.5625  0.1191  0.5587
 6789TIP3    H141930   2.901   2.756   8.536 -0.3434 -1.7250  0.3520
 6789TIP3    H241931   2.940   2.748   8.390  1.1221  1.2729  0.5149
 6790TIP3   OH241932   2.231   5.411   7.677 -0.0819 -1.1469  0.2053
 6790TIP3    H141933   2.238   5.507   7.676  1.8809 -1.2420  1.0328
 6790TIP3    H241934   2.294   5.382   7.611 -0.1536 -1.8901  0.4593
 6791TIP3   OH241935   4.305   0.723   8.780  0.2011  0.1970 -0.4150
 6791TIP3    H141936   4.395   0.723   8.744  1.3240  0.2739  2.1981
 6791TIP3    H241937   4.252   0.761   8.710  1.8940 -1.3771 -2.7041
 6792TIP3   OH241938   1.323   0.874   8.519  0.5255 -0.4090  0.2393
 6792TIP3    H141939   1.246   0.822   8.542  0.2943 -0.0220  0.3548
 6792TIP3    H241940   1.377   0.872   8.598  0.2637 -0.0330  0.4362
 6793TIP3   OH241941   4.581   2.008   1.216 -0.0213  0.3696 -0.0451
 6793TIP3    H141942   4.615   1.949   1.283 -0.3605  0.9141  0.6316
 6793TIP3    H241943   4.584   2.095   1.257  0.8050  0.8819 -1.1426
 6794TIP3   OH241944   4.341   5.523   8.673  0.4857 -0.5295  0.8461
 6794TIP3    H141945   4.378   5.485   8.753  1.7804 -0.1358  0.4676
 6794TIP3    H241946   4.412   5.515   8.609 -0.5218 -0.8193 -0.2646
 6795TIP3   OH241947   0.948   3.353   8.447  0.0825  0.1649  0.4401
 6795TIP3    H141948   0.947   3.441   8.410  0.1673 -0.3812 -0.9173
 6795TIP3    H241949   0.855   3.332   8.461 -0.1914 -0.5936 -1.9852
 6796TIP3   OH241950   1.861   6.420   0.477 -0.2464 -0.6366 -0.1871
 6796TIP3    H141951   1.898   6.487   0.535  0.6710 -1.5760  0.3236
 6796TIP3    H241952   1.920   6.418   0.401  0.1959 -1.4413  0.1753
 6797TIP3   OH241953   0.391   4.640   7.870 -0.7456 -0.5036 -0.2218
 6797TIP3    H141954   0.416   4.690   7.792 -0.1351  1.1512  0.9824
 6797TIP3    H241955   0.314   4.589   7.842 -2.4768  2.3415 -1.1240
 6798TIP3   OH241956   3.927   0.468   7.094 -0.2397 -0.2709 -0.8474
 6798TIP3    H141957   3.992   0.420   7.145 -0.0094  1.9399  1.1331
 6798TIP3    H241958   3.976   0.541   7.055 -1.0837  0.0138 -1.4199
 6799TIP3   OH241959   5.957   1.411   0.501  0.1546 -0.2349 -0.6389
 6799TIP3    H141960   5.883   1.362   0.465 -1.6242  2.2338 -0.6451
 6799TIP3    H241961   6.019   1.344   0.530 -2.3347 -2.4686 -0.0981
 6800TIP3   OH241962   4.276   3.243   7.707  0.0122 -0.2130 -0.9371
 6800TIP3    H141963   4.307   3.153   7.702 -0.7915 -0.5501 -0.1313
 6800TIP3    H241964   4.337   3.292   7.651  0.9944 -1.1016 -0.6904
 6801TIP3   OH241965   2.354   2.217   0.402  0.5820 -0.4330  0.3470
 6801TIP3    H141966   2.380   2.299   0.359  0.4553 -0.1577  0.7910
 6801TIP3    H241967   2.424   2.155   0.381  1.0177 -0.0197  0.5788
 6802TIP3   OH241968   0.292   2.251   0.962  0.0732  0.4066  0.1738
 6802TIP3    H141969   0.382   2.275   0.940 -0.6878  1.6198 -1.8865
 6802TIP3    H241970   0.242   2.332   0.951 -1.7088 -0.8293 -1.4332
 6803TIP3   OH241971   4.507   0.571   1.848 -0.3203 -0.3589  0.1027
 6803TIP3    H141972   4.437   0.574   1.914 -0.2756 -1.7479  0.2590
 6803TIP3    H241973   4.522   0.662   1.825 -2.0615  0.0046  0.2042
 6804TIP3   OH241974   1.906   0.044   7.260 -0.0210 -0.4960  0.3195
 6804TIP3    H141975   1.859   0.076   7.183 -1.1922  1.2203  1.6681
 6804TIP3    H241976   1.971   0.112   7.278 -0.4811 -0.3349  1.4497
 6805TIP3   OH241977   0.037   1.157   1.156 -0.0230  0.0713  0.5419
 6805TIP3    H141978  -0.030   1.183   1.219 -1.5822 -2.1635 -0.0897
 6805TIP3    H241979  -0.009   1.148   1.073  1.5362  0.6632 -0.4378
 6806TIP3   OH241980   6.350   5.180   7.802  0.5123 -0.1098 -0.0761
 6806TIP3    H141981   6.363   5.110   7.738  0.8146  1.4683 -1.8296
 6806TIP3    H241982   6.433   5.185   7.849  1.4416  0.6690 -1.6807
 6807TIP3   OH241983   3.285   2.628   0.580 -0.4763 -0.0186  0.3250
 6807TIP3    H141984   3.211   2.568   0.589 -2.2776  2.2275  1.6165
 6807TIP3    H241985   3.331   2.622   0.663  2.6688 -3.4558 -1.3840
 6808TIP3   OH241986   6.103   5.434   1.640  0.0432  1.2353 -0.1368
 6808TIP3    H141987   6.062   5.448   1.726 -1.4529 -1.1126 -0.3562
 6808TIP3    H241988   6.170   5.502   1.633 -0.7911  2.4035  2.2475
 6809TIP3   OH241989   5.242   2.082   6.550 -0.0729 -0.0071 -0.6348
 6809TIP3    H141990   5.297   2.006   6.529 -1.1592 -0.4866 -1.9627
 6809TIP3    H241991   5.241   2.086   6.645  0.5178 -1.2927 -0.5512
 6810TIP3   OH241992   6.799   5.877   2.206  0.1233  0.2201  0.3207
 6810TIP3    H141993   6.722   5.852   2.256  0.8687  0.7602  1.8103
 6810TIP3    H241994   6.849   5.796   2.196 -0.7192 -0.1727 -0.8374
 6811TIP3   OH241995   4.312   1.521   8.473 -0.2845  0.2781 -0.1279
 6811TIP3    H141996   4.286   1.604   8.433 -0.5766  0.2279 -0.0438
 6811TIP3    H241997   4.390   1.543   8.525  0.3085  0.2750 -0.9878
 6812TIP3   OH241998   4.327   6.426   0.455 -0.5272 -0.0593 -0.4754
 6812TIP3    H141999   4.343   6.398   0.545  0.1677  1.1835 -0.1888
 6812TIP3    H242000   4.236   6.404   0.439 -1.1718  1.2134  1.1356
 6813TIP3   OH242001   1.275   3.501   1.759  0.4759  0.2792 -0.3227
 6813TIP3    H142002   1.219   3.549   1.698 -0.9093 -1.3768 -0.4027
 6813TIP3    H242003   1.267   3.410   1.733  1.7399 -0.2073  0.8695
 6814TIP3   OH242004   3.618   0.077   2.113 -0.1552 -0.0102 -0.2476
 6814TIP3    H142005   3.567   0.135   2.169 -1.0325  1.2307 -2.1857
 6814TIP3    H242006   3.552   0.021   2.070  0.5422 -1.3909  0.4090
 6815TIP3   OH242007   6.163   6.121   1.224 -0.3375  0.2639  0.0385
 6815TIP3    H142008   6.204   6.208   1.216 -0.6239  0.6259  2.0377
 6815TIP3    H242009   6.232   6.060   1.197  0.7072  0.9993  0.9306
 6816TIP3   OH242010   4.347   3.375   1.251  0.2570 -1.0411 -0.0440
 6816TIP3    H142011   4.403   3.426   1.193 -0.5071 -1.0417 -0.8030
 6816TIP3    H242012   4.279   3.339   1.194  0.4898 -2.5110  0.5565
 6817TIP3   OH242013   5.039   2.607   6.059  0.2760  0.7373 -0.3235
 6817TIP3    H142014   5.020   2.629   5.968  1.7941  2.6661 -0.2453
 6817TIP3    H242015   4.953   2.603   6.101 -0.3734  1.1333 -1.5648
 6818TIP3   OH242016   3.154   6.290   2.304  0.0976  0.0632 -0.1592
 6818TIP3    H142017   3.108   6.298   2.388  0.7784 -0.4365  0.2675
 6818TIP3    H242018   3.085   6.269   2.241 -0.0251 -3.0719  0.8446
 6819TIP3   OH242019   2.141   3.062   1.013 -0.1159 -0.7583  0.1630
 6819TIP3    H142020   2.171   3.152   1.013 -1.6705 -0.2069  0.2870
 6819TIP3    H242021   2.221   3.009   1.015  0.8349  0.5853 -0.9699
 6820TIP3   OH242022   3.901   0.439   8.750  0.0056 -0.2868  0.0010
 6820TIP3    H142023   3.971   0.485   8.796  0.6330 -0.1036 -1.0806
 6820TIP3    H242024   3.945   0.366   8.706 -0.4136  0.0155 -0.9461
 6821TIP3   OH242025   3.591   5.435   7.322  0.2038  0.4117  0.1602
 6821TIP3    H142026   3.683   5.408   7.321  0.6141  1.6761  1.0758
 6821TIP3    H242027   3.566   5.439   7.230  0.1817 -2.7124 -0.0568
 6822TIP3   OH242028   1.427   2.201   6.747 -0.2590 -0.2175 -0.0127
 6822TIP3    H142029   1.338   2.220   6.717 -0.2013  0.3821  0.1876
 6822TIP3    H242030   1.425   2.108   6.772 -1.0456  0.0003  0.7632
 6823TIP3   OH242031   3.385   5.289   8.734 -0.3973  0.1400 -0.6190
 6823TIP3    H142032   3.293   5.262   8.733 -0.3632 -0.0296  0.0973
 6823TIP3    H242033   3.400   5.326   8.648 -0.7897 -0.9915 -1.1970
 6824TIP3   OH242034   6.387   2.978   8.245  0.2013 -0.4047  0.0441
 6824TIP3    H142035   6.469   3.027   8.243  0.6243 -0.9229  2.4073
 6824TIP3    H242036   6.389   2.923   8.167  1.9317 -0.1523 -0.1119
 6825TIP3   OH242037   5.204   5.185   1.769 -0.0360 -0.0319  0.0107
 6825TIP3    H142038   5.268   5.123   1.804 -1.8865 -1.8093  0.4589
 6825TIP3    H242039   5.233   5.202   1.680  0.9249 -1.0103  0.1137
 6826TIP3   OH242040   0.897   2.887   2.303  0.3595 -0.3982 -0.1146
 6826TIP3    H142041   0.922   2.923   2.388 -1.7466  1.2462 -0.1199
 6826TIP3    H242042   0.888   2.963   2.246  1.3624 -1.4346 -1.7753
 6827TIP3   OH242043   1.170   5.480   1.805  0.1809  0.1228 -0.4042
 6827TIP3    H142044   1.239   5.502   1.742 -0.3705  1.8701 -0.4626
 6827TIP3    H242045   1.216   5.441   1.879  0.9984 -0.5737 -1.2618
 6828TIP3   OH242046   1.303   1.120   6.847 -0.1983 -0.0322 -0.0471
 6828TIP3    H142047   1.363   1.136   6.775 -0.7716  1.7793 -0.1669
 6828TIP3    H242048   1.342   1.166   6.921 -0.8896  0.2402  0.1517
 6829TIP3   OH242049   3.540   4.287   1.339 -0.4624  0.6318 -0.8114
 6829TIP3    H142050   3.622   4.331   1.362  0.1538 -0.6163 -0.5757
 6829TIP3    H242051   3.549   4.199   1.373 -2.5318  0.8789  0.5406
 6830TIP3   OH242052   3.129   4.197   8.273 -0.1462  0.3736 -0.2692
 6830TIP3    H142053   3.157   4.126   8.331 -0.7461 -0.3625 -0.8601
 6830TIP3    H242054   3.190   4.193   8.200 -0.1869  0.4632 -0.3078
 6831TIP3   OH242055   1.802   6.184   0.989  0.2195  0.2896  0.2036
 6831TIP3    H142056   1.811   6.279   0.985  0.9066  0.2699  1.0249
 6831TIP3    H242057   1.891   6.151   0.982 -0.1694 -0.4350 -2.5803
 6832TIP3   OH242058   1.010   4.625   0.030 -0.2764  0.1927  0.0672
 6832TIP3    H142059   1.038   4.538   0.058  0.6993  0.0377 -1.2528
 6832TIP3    H242060   1.008   4.677   0.110  1.1785 -0.5283  0.6117
 6833TIP3   OH242061   2.524   1.425   8.492 -0.6805 -0.5614  0.1709
 6833TIP3    H142062   2.523   1.455   8.583 -1.4917 -1.3735  0.4376
 6833TIP3    H242063   2.541   1.331   8.498  0.4431 -0.4280 -0.5835
 6834TIP3   OH242064   0.688   0.031   8.282 -0.2888 -0.4022  0.0968
 6834TIP3    H142065   0.617   0.056   8.341 -1.4982 -0.7445 -1.1751
 6834TIP3    H242066   0.706   0.109   8.231  0.6751 -0.1444  0.8003
 6835TIP3   OH242067   3.704   4.533   8.817 -0.4751 -0.0321 -0.0187
 6835TIP3    H142068   3.647   4.580   8.756  1.0960  0.1560 -1.4111
 6835TIP3    H242069   3.684   4.440   8.803  0.2340 -0.0216 -1.2541
 6836TIP3   OH242070   4.175   0.525   7.913 -0.3523 -0.5502  0.0013
 6836TIP3    H142071   4.168   0.616   7.884 -0.7089 -0.6102 -0.0993
 6836TIP3    H242072   4.100   0.481   7.874 -1.9022 -0.2704  2.4749
 6837TIP3   OH242073   3.785   0.323   7.697  0.4955 -0.6559  0.2978
 6837TIP3    H142074   3.785   0.395   7.633  1.2340 -1.0971 -0.2270
 6837TIP3    H242075   3.867   0.334   7.744  0.7761 -1.3418 -0.0178
 6838TIP3   OH242076   2.829   5.678   7.629 -0.0299  0.3840 -0.2890
 6838TIP3    H142077   2.742   5.649   7.603 -0.3268 -0.9260  1.8871
 6838TIP3    H242078   2.889   5.617   7.587 -0.1358  1.1444 -1.5967
 6839TIP3   OH242079   4.102   6.617   7.105  0.0226 -0.2455 -0.5199
 6839TIP3    H142080   4.083   6.710   7.118 -2.4869 -0.8785  1.1171
 6839TIP3    H242081   4.028   6.584   7.053  0.4632 -1.4596 -0.4152
 6840TIP3   OH242082   1.401   5.615   0.323 -0.0025 -0.5997  0.1381
 6840TIP3    H142083   1.406   5.536   0.378  3.2442 -0.8584 -0.3383
 6840TIP3    H242084   1.399   5.581   0.234  2.0486 -0.2261 -0.0954
 6841TIP3   OH242085   1.046   2.814   8.499 -0.0475  0.0584 -0.2836
 6841TIP3    H142086   1.050   2.864   8.580  0.7588 -1.7745  0.8690
 6841TIP3    H242087   1.043   2.723   8.527 -1.4217 -0.5939 -2.2938
 6842TIP3   OH242088   1.723   1.383   0.699  0.1520  0.3521 -0.4981
 6842TIP3    H142089   1.817   1.393   0.714  0.0030  1.4423 -0.1521
 6842TIP3    H242090   1.712   1.395   0.605  0.3763  0.0652 -0.5618
 6843TIP3   OH242091   6.078   1.156   0.982 -0.3466  0.0605 -0.3752
 6843TIP3    H142092   6.151   1.183   0.926  1.2653 -0.7547  1.2479
 6843TIP3    H242093   6.090   1.062   0.994 -0.2114  0.2962  1.8333
 6844TIP3   OH242094   6.037   2.011   0.352 -0.2155  0.0628  1.2597
 6844TIP3    H142095   6.036   2.103   0.381  0.8335  0.1423  1.0556
 6844TIP3    H242096   6.104   1.970   0.406  0.8771 -0.0744 -0.1648
 6845TIP3   OH242097   3.785   0.021   8.792 -0.2436  0.0117 -0.4456
 6845TIP3    H142098   3.715  -0.038   8.765 -0.1758 -0.5687  0.6054
 6845TIP3    H242099   3.740   0.098   8.827 -0.3766 -0.4932  0.5225
 6846TIP3   OH242100   2.470   4.150   0.333 -0.2751 -0.7443 -0.3302
 6846TIP3    H142101   2.425   4.211   0.392  0.2374 -0.1887 -0.4993
 6846TIP3    H242102   2.518   4.207   0.272  2.1440 -1.2877  0.9529
 6847TIP3   OH242103   3.883   1.422   7.114 -0.4721  0.1467 -0.0074
 6847TIP3    H142104   3.918   1.394   7.030 -0.7410 -0.3324  0.0407
 6847TIP3    H242105   3.847   1.509   7.097  0.2639  0.4288 -0.1800
 6848TIP3   OH242106   3.191   2.756   7.997  0.1155 -0.4696 -0.0034
 6848TIP3    H142107   3.246   2.696   8.047 -0.2076 -0.7973 -0.0325
 6848TIP3    H242108   3.220   2.745   7.906 -1.3590 -2.1931 -0.3241
 6849TIP3   OH242109   4.935   3.561   7.451  0.3056  0.7061  0.1418
 6849TIP3    H142110   4.987   3.481   7.449  0.0808  0.4082  2.7066
 6849TIP3    H242111   4.926   3.586   7.359  2.4203 -0.8541 -0.5759
 6850TIP3   OH242112   3.647   3.136   2.361  0.2093  0.2707  0.3694
 6850TIP3    H142113   3.625   3.190   2.285  0.8858 -0.9015 -0.7039
 6850TIP3    H242114   3.705   3.191   2.414 -1.8374  1.8386  1.1113
 6851TIP3   OH242115   0.473   3.196   1.125 -0.2109 -0.1566  0.5362
 6851TIP3    H142116   0.387   3.154   1.136 -0.1537 -0.6842 -0.8131
 6851TIP3    H242117   0.516   3.145   1.057  1.4630 -0.3072  1.6404
 6852TIP3   OH242118   5.321   4.085   7.330  0.1048 -0.0199 -0.4859
 6852TIP3    H142119   5.399   4.138   7.315  1.4270 -1.2924  1.4281
 6852TIP3    H242120   5.350   3.994   7.317 -0.6823 -0.6103  1.4623
 6853TIP3   OH242121   0.148   1.446   1.165 -0.8326 -0.1353  0.0558
 6853TIP3    H142122   0.078   1.466   1.227 -3.9065 -0.2097 -3.0206
 6853TIP3    H242123   0.112   1.375   1.112  2.6235 -1.7929 -0.3252
 6854TIP3   OH242124   2.535   3.521   1.115 -0.4445 -0.5493  0.0657
 6854TIP3    H142125   2.575   3.502   1.200  0.7829 -0.6434 -0.5194
 6854TIP3    H242126   2.609   3.538   1.056 -1.3200  0.6522 -0.7232
 6855TIP3   OH242127   2.581   4.079   6.887 -0.0088  0.4500 -0.4086
 6855TIP3    H142128   2.615   4.041   6.806  0.4180 -1.0942  0.4682
 6855TIP3    H242129   2.494   4.111   6.864 -0.1286 -0.5124 -1.3289
 6856TIP3   OH242130   6.158   5.391   1.020  0.1418 -0.4911  0.2199
 6856TIP3    H142131   6.083   5.331   1.017 -2.7897  2.5486  3.7274
 6856TIP3    H242132   6.211   5.359   1.092  0.7424 -1.0009 -0.4293
 6857TIP3   OH242133   1.285   3.944   8.598  0.4553  0.2384  0.4727
 6857TIP3    H142134   1.259   4.034   8.619 -1.4437 -0.1824  0.1435
 6857TIP3    H242135   1.359   3.927   8.656  0.8585  2.0001  0.5536
 6858TIP3   OH242136   5.186   3.660   0.367  0.0927 -0.1866  0.2694
 6858TIP3    H142137   5.102   3.661   0.321 -0.1113  0.8697  0.6280
 6858TIP3    H242138   5.237   3.592   0.323 -0.9229 -0.8067  0.0064
 6859TIP3   OH242139   0.113   1.768   2.592 -0.0482  0.4208 -0.2102
 6859TIP3    H142140   0.041   1.832   2.599  0.4302  1.0846 -1.1165
 6859TIP3    H242141   0.077   1.697   2.539 -0.2285  0.4655 -0.1491
 6860TIP3   OH242142   3.852   2.209   1.329 -0.3172 -0.4156  0.0002
 6860TIP3    H142143   3.871   2.164   1.411 -3.4371  0.1433  1.1887
 6860TIP3    H242144   3.842   2.138   1.265 -0.1414 -1.0496  0.6575
 6861TIP3   OH242145   0.893   3.185   1.028  0.0414  0.0614  0.0845
 6861TIP3    H142146   0.808   3.142   1.039  1.3233 -2.8953 -0.6043
 6861TIP3    H242147   0.937   3.135   0.959  2.4480  1.3253  0.5755
 6862TIP3   OH242148   5.323   4.356   1.045 -0.4881 -0.5020  0.0461
 6862TIP3    H142149   5.319   4.347   1.140  1.9469 -1.6401  0.1123
 6862TIP3    H242150   5.316   4.451   1.030  0.9449 -0.1178  1.5157
 6863TIP3   OH242151   1.279   0.544   6.388 -0.6703 -0.0431  0.2534
 6863TIP3    H142152   1.234   0.577   6.466 -0.7794  0.9422 -0.2044
 6863TIP3    H242153   1.209   0.514   6.330 -0.5636 -1.2644  0.7306
 6864TIP3   OH242154   0.231   0.710   8.253 -0.2810  0.6332 -0.6211
 6864TIP3    H142155   0.176   0.653   8.308  0.0003 -0.0934 -1.0739
 6864TIP3    H242156   0.305   0.733   8.309 -2.0196  3.3738  0.7559
 6865TIP3   OH242157   3.734   2.809   7.178  0.2099  0.1623 -0.0502
 6865TIP3    H142158   3.653   2.786   7.224 -0.0271 -1.3577 -1.1373
 6865TIP3    H242159   3.801   2.810   7.247 -0.7005  1.5008  0.8765
 6866TIP3   OH242160   1.873   1.539   0.997 -0.7768  1.0175  0.4551
 6866TIP3    H142161   1.898   1.621   0.955 -0.1243  0.3399 -0.5166
 6866TIP3    H242162   1.956   1.500   1.026 -1.0710  0.6376  0.8065
 6867TIP3   OH242163   0.572   5.350   7.558 -0.3262  0.3205  0.0211
 6867TIP3    H142164   0.489   5.380   7.523 -0.3427  0.9329  0.5704
 6867TIP3    H242165   0.573   5.381   7.648  0.1142 -0.4462  0.2916
 6868TIP3   OH242166   3.251   2.576   1.316 -0.5697  0.6271 -0.5575
 6868TIP3    H142167   3.336   2.593   1.357 -1.0435 -0.4990  0.9719
 6868TIP3    H242168   3.248   2.481   1.306 -2.3289  0.4541  1.0411
 6869TIP3   OH242169   2.912   4.782   8.497 -0.4204 -0.1300 -0.0690
 6869TIP3    H142170   2.871   4.869   8.488 -1.1177 -0.4089  0.2773
 6869TIP3    H242171   2.904   4.762   8.590  1.3626  0.1971  0.1889
 6870TIP3   OH242172   2.341   0.849   8.431  0.0256 -0.6028  0.1949
 6870TIP3    H142173   2.258   0.840   8.477 -2.2924 -1.0075 -3.6187
 6870TIP3    H242174   2.368   0.939   8.448 -0.8787 -0.6084  1.9071
 6871TIP3   OH242175   2.951   1.178   7.340 -0.0937  0.9261  0.2060
 6871TIP3    H142176   2.864   1.162   7.303  0.2757 -0.3772 -0.1388
 6871TIP3    H242177   2.992   1.239   7.279 -0.6311  1.2490  0.1656
 6872TIP3   OH242178   5.441   2.210   0.530  0.1768  0.3295 -0.0359
 6872TIP3    H142179   5.412   2.213   0.622 -1.5016 -0.6574 -0.4856
 6872TIP3    H242180   5.368   2.248   0.481  0.1073 -1.1363 -1.1340
 6873TIP3   OH242181   3.275   6.090   7.147 -0.3709 -0.5097  0.6508
 6873TIP3    H142182   3.267   6.016   7.087  0.6740 -1.2885  1.4388
 6873TIP3    H242183   3.234   6.060   7.228 -1.1635  0.2874  0.5625
 6874TIP3   OH242184   0.185   1.517   8.329  0.3559  0.3054  0.0971
 6874TIP3    H142185   0.105   1.545   8.284  0.4778 -0.1303 -0.4080
 6874TIP3    H242186   0.245   1.491   8.258  0.7749  0.1885  0.4856
 6875TIP3   OH242187   3.589   1.281   8.676 -0.0609 -0.2427  0.3034
 6875TIP3    H142188   3.552   1.204   8.719  0.0043  0.0055  0.8038
 6875TIP3    H242189   3.518   1.345   8.677  0.4036  0.2778  1.3761
 6876TIP3   OH242190   4.752   0.745   6.515 -0.4264 -0.8949  0.3088
 6876TIP3    H142191   4.686   0.684   6.549 -0.9840  0.6156  2.0900
 6876TIP3    H242192   4.724   0.763   6.425 -0.3201 -3.0772 -0.2365
 6877TIP3   OH242193   5.933   3.609   7.509 -0.4384 -0.0941 -0.0716
 6877TIP3    H142194   5.877   3.548   7.460 -0.1024 -0.2035 -0.3245
 6877TIP3    H242195   6.020   3.598   7.470  0.2691 -1.5524  1.7690
 6878TIP3   OH242196   2.551   1.599   0.692  0.2371 -0.0272  0.0807
 6878TIP3    H142197   2.526   1.556   0.774 -1.1208 -1.7177 -1.1292
 6878TIP3    H242198   2.646   1.602   0.694  0.2355  0.0427  1.7340
 6879TIP3   OH242199   2.833   4.348   6.831  0.1717  0.0006 -0.1053
 6879TIP3    H142200   2.790   4.333   6.916 -1.1550  0.6477 -0.6349
 6879TIP3    H242201   2.766   4.388   6.777  1.9345  2.7836 -0.4297
 6880TIP3   OH242202   3.426   0.824   7.613  0.0999 -0.2784 -0.0385
 6880TIP3    H142203   3.411   0.748   7.558 -0.7467 -0.1103 -0.0471
 6880TIP3    H242204   3.520   0.843   7.602  0.7556 -2.3516  1.3198
 6881TIP3   OH242205   5.060   0.998   6.922 -0.5758 -0.1188 -0.1827
 6881TIP3    H142206   5.095   1.088   6.919  1.6543 -0.8975  0.2453
 6881TIP3    H242207   4.970   1.006   6.892 -1.0774  2.5521  1.7091
 6882TIP3   OH242208   1.909   3.335   7.196 -1.1909 -0.0253  1.0788
 6882TIP3    H142209   1.939   3.368   7.281  0.9135 -1.2579  0.8944
 6882TIP3    H242210   1.941   3.244   7.193 -0.1483  0.3502 -1.4938
 6883TIP3   OH242211   3.740   0.079   8.352  0.4814  0.3316 -0.2339
 6883TIP3    H142212   3.774   0.134   8.423  0.2053  0.8574 -0.5008
 6883TIP3    H242213   3.758  -0.010   8.380 -0.5471  0.4845  0.9809
 6884TIP3   OH242214   4.761   3.270   1.474  0.1735  0.6787  0.1016
 6884TIP3    H142215   4.751   3.339   1.409  1.7068  0.3622 -0.5245
 6884TIP3    H242216   4.850   3.237   1.460 -0.5509 -1.5126  0.2818
 6885TIP3   OH242217   4.249   6.350   7.166  0.1606 -0.1601 -0.4513
 6885TIP3    H142218   4.225   6.441   7.179 -3.5091 -0.9731 -0.4726
 6885TIP3    H242219   4.207   6.325   7.084 -1.7211 -2.6099  1.1072
 6886TIP3   OH242220   0.444   6.346   6.662  0.4275 -0.4337 -0.5305
 6886TIP3    H142221   0.493   6.316   6.739  1.0788  0.0338 -0.7521
 6886TIP3    H242222   0.388   6.272   6.639  0.0469 -0.4956  0.5344
 6887TIP3   OH242223   2.682   4.538   7.703  0.2015 -0.4359  0.8706
 6887TIP3    H142224   2.675   4.573   7.614 -2.2367  0.6104  1.3875
 6887TIP3    H242225   2.657   4.446   7.694 -1.9313  0.1003  0.6568
 6888TIP3   OH242226   4.571   1.266   7.273 -0.0425  0.2003 -0.0221
 6888TIP3    H142227   4.602   1.220   7.351  0.6925 -0.1379 -0.5017
 6888TIP3    H242228   4.482   1.233   7.260  0.3489 -0.8415 -0.1542
 6889TIP3   OH242229   4.309   5.077   7.413  0.0561  0.1293 -0.2581
 6889TIP3    H142230   4.279   4.987   7.400 -1.0413  0.7239 -2.0221
 6889TIP3    H242231   4.400   5.077   7.382  0.4543 -0.5970  0.8272
 6890TIP3   OH242232   2.469   3.174   0.107 -0.0121  0.1861  0.6025
 6890TIP3    H142233   2.543   3.158   0.166 -0.1624  1.5987  1.2129
 6890TIP3    H242234   2.508   3.217   0.031 -0.1210  0.3254  0.6268
 6891TIP3   OH242235   1.516   2.041   2.426  0.3515  0.0559 -0.3532
 6891TIP3    H142236   1.463   1.969   2.392 -0.0865  0.2549 -0.0992
 6891TIP3    H242237   1.452   2.102   2.463  0.8220 -1.6267  3.8791
 6892TIP3   OH242238   5.176   2.151   7.517  0.0348 -0.4557  0.3275
 6892TIP3    H142239   5.205   2.206   7.590 -1.7873 -1.7188  2.0955
 6892TIP3    H242240   5.081   2.151   7.522 -0.0680 -2.7898 -0.3470
 6893TIP3   OH242241   3.819   4.432   8.334 -0.2867 -0.0415  0.0661
 6893TIP3    H142242   3.829   4.449   8.427 -1.8105  0.1061  0.2349
 6893TIP3    H242243   3.840   4.339   8.323  0.6419  0.1175  0.4111
 6894TIP3   OH242244   2.668   3.063   0.241 -0.0986  0.1381 -0.4909
 6894TIP3    H142245   2.686   3.084   0.333 -0.5111  0.6456 -0.5239
 6894TIP3    H242246   2.624   2.978   0.244  0.3290 -0.0765 -0.2553
 6895TIP3   OH242247   1.087   6.291   7.571  0.3234  0.7156 -0.1497
 6895TIP3    H142248   1.144   6.358   7.532  0.7432  1.4744  1.6544
 6895TIP3    H242249   1.011   6.340   7.602 -0.3117  0.0281 -0.5948
 6896TIP3   OH242250   0.682   1.821   2.161  0.6728  0.1846  0.1924
 6896TIP3    H142251   0.645   1.868   2.235  0.4608  2.5946 -1.3169
 6896TIP3    H242252   0.776   1.826   2.173  0.6449  0.8498  0.1460
 6897TIP3   OH242253   2.621   0.569   0.476  0.3079 -0.3959 -0.7584
 6897TIP3    H142254   2.580   0.591   0.559 -0.5726  2.6036 -1.8520
 6897TIP3    H242255   2.558   0.513   0.432 -1.3757  1.6558 -1.1378
 6898TIP3   OH242256   6.377   5.382   6.428  0.4235  0.8156 -0.7374
 6898TIP3    H142257   6.454   5.378   6.484  0.8624 -0.3551 -1.3889
 6898TIP3    H242258   6.371   5.473   6.400  1.6484  0.8945 -0.7758
 6899TIP3   OH242259   2.281   4.403   6.199  0.6081 -0.3919 -0.3044
 6899TIP3    H142260   2.307   4.313   6.217  2.6265  0.3132  0.6349
 6899TIP3    H242261   2.194   4.412   6.239  0.7923 -1.6475  0.4210
 6900TIP3   OH242262   2.531   3.072   6.760 -0.1871 -0.1487 -0.0252
 6900TIP3    H142263   2.457   3.132   6.760 -0.1298  0.1127  3.2633
 6900TIP3    H242264   2.496   2.990   6.726 -1.5649  0.4340 -0.0756
 6901TIP3   OH242265   2.355   4.144   6.203 -0.5426 -0.4296 -0.3723
 6901TIP3    H142266   2.318   4.104   6.282  0.6808  0.6337  0.7870
 6901TIP3    H242267   2.394   4.071   6.155 -2.5083 -1.3051 -0.7400
 6902TIP3   OH242268   2.147   4.952   7.635  0.3498  0.1429 -0.0342
 6902TIP3    H142269   2.160   4.894   7.710 -0.0936 -0.3444 -0.3258
 6902TIP3    H242270   2.147   5.040   7.673  2.4033  0.0660  0.2458
 6903TIP3   OH242271   1.022   5.047   0.081 -0.3963 -0.7045  0.2533
 6903TIP3    H142272   1.079   5.044   0.157  0.0032  0.8150  0.0373
 6903TIP3    H242273   1.081   5.044   0.006 -0.3447  2.6038  0.0040
 6904TIP3   OH242274   3.446   4.238   1.735 -0.1869  0.3189 -0.1912
 6904TIP3    H142275   3.508   4.197   1.794  0.3610  2.0103  0.4603
 6904TIP3    H242276   3.363   4.239   1.784 -0.0314  0.6115  0.0685
 6905TIP3   OH242277   5.772   0.928   8.705  0.1885 -0.1487 -1.0709
 6905TIP3    H142278   5.827   0.856   8.675  1.1244  0.9750 -2.1668
 6905TIP3    H242279   5.757   0.911   8.798 -0.1200 -2.0495 -1.4365
 6906TIP3   OH242280   1.503   0.471   0.212  0.1496  0.0400 -0.2360
 6906TIP3    H142281   1.539   0.558   0.197  0.1235  0.3448  1.2289
 6906TIP3    H242282   1.470   0.474   0.302 -1.6544 -0.8645 -0.7987
 6907TIP3   OH242283   1.571   0.336   0.586 -0.1985 -0.6683  0.0774
 6907TIP3    H142284   1.490   0.313   0.541 -0.8708  0.6689  0.5610
 6907TIP3    H242285   1.637   0.279   0.545 -0.8239  0.2223 -2.3798
 6908TIP3   OH242286   0.011   5.934   1.819 -0.0406  0.0409  0.5956
 6908TIP3    H142287  -0.022   5.987   1.892 -0.4627 -0.7995  1.0361
 6908TIP3    H242288  -0.046   5.957   1.746 -2.2560 -1.9575  1.5342
 6909TIP3   OH242289   1.435   3.218   8.070  0.2773 -0.0516 -0.2092
 6909TIP3    H142290   1.469   3.305   8.090 -0.3510  0.0116  0.6240
 6909TIP3    H242291   1.482   3.160   8.129  0.8077 -0.3122 -0.8730
 6910TIP3   OH242292   0.909   5.631   6.655 -0.0249  0.2328 -0.0468
 6910TIP3    H142293   0.918   5.725   6.637  1.2449 -0.0773 -1.2698
 6910TIP3    H242294   0.822   5.608   6.620 -0.7473  1.1083  1.1187
 6911TIP3   OH242295   6.207   2.611   7.436  0.1802  0.4013  0.1319
 6911TIP3    H142296   6.275   2.613   7.503  0.6714  0.6394 -0.3620
 6911TIP3    H242297   6.127   2.637   7.482  0.5523  0.7746  0.5782
 6912TIP3   OH242298   2.197   3.090   6.942 -0.8872  0.0004  0.5739
 6912TIP3    H142299   2.126   3.053   6.890  0.5902  1.3249 -2.6508
 6912TIP3    H242300   2.242   3.150   6.883  2.8879 -0.6763  2.3965
 6913TIP3   OH242301   3.498   3.439   8.634  0.1458 -0.1037  0.4493
 6913TIP3    H142302   3.427   3.459   8.695 -2.1767 -1.1073 -1.7792
 6913TIP3    H242303   3.476   3.484   8.553  1.5878 -1.1367 -0.5902
 6914TIP3   OH242304   2.103   4.778   1.187 -0.4174 -0.2850 -0.1054
 6914TIP3    H142305   2.179   4.783   1.129 -2.5084  1.3623 -2.9080
 6914TIP3    H242306   2.119   4.846   1.253  0.3579  0.2913 -0.8637
 6915TIP3   OH242307   5.708   4.705   1.119 -0.3958 -0.0950  0.6850
 6915TIP3    H142308   5.753   4.716   1.035 -0.5945  0.3140  0.6242
 6915TIP3    H242309   5.743   4.624   1.155 -0.3985 -0.3409  0.1486
 6916TIP3   OH242310   5.326   6.189   0.073  0.1186  0.3466 -0.5710
 6916TIP3    H142311   5.247   6.243   0.080  1.0066  1.4373  3.3510
 6916TIP3    H242312   5.397   6.253   0.066  0.9773 -0.3493  1.2404
 6917TIP3   OH242313   0.897   4.121   0.417  0.8030  0.0021  0.0617
 6917TIP3    H142314   0.962   4.111   0.348 -0.7970  0.4559 -1.5713
 6917TIP3    H242315   0.935   4.074   0.492  2.6226 -0.4283 -1.0668
 6918TIP3   OH242316   0.745   0.095   7.193 -0.0068 -0.4109  0.1570
 6918TIP3    H142317   0.653   0.088   7.168  0.3343 -1.3146 -1.0040
 6918TIP3    H242318   0.780   0.007   7.178  1.0013 -0.1234  0.7382
 6919TIP3   OH242319   5.241   3.412   0.541  0.0565  0.1172 -0.5513
 6919TIP3    H142320   5.223   3.319   0.528 -1.4243  0.4266 -0.9310
 6919TIP3    H242321   5.207   3.432   0.628 -0.5859  0.5058 -0.8804
 6920TIP3   OH242322   1.498   1.299   7.369 -0.1468  0.0866  0.3206
 6920TIP3    H142323   1.571   1.254   7.410 -0.3330 -0.3781  0.1435
 6920TIP3    H242324   1.426   1.292   7.431 -0.0765  0.4521  0.4483
 6921TIP3   OH242325   0.832   1.088   7.700 -0.0703  0.3689 -0.1822
 6921TIP3    H142326   0.800   1.018   7.642  0.7070  0.9405 -1.3406
 6921TIP3    H242327   0.807   1.169   7.655  1.3540  0.8212 -0.1997
 6922TIP3   OH242328   4.262   3.937   0.090 -0.4726  0.1241  0.5975
 6922TIP3    H142329   4.348   3.899   0.070  0.1971  2.0955 -0.6199
 6922TIP3    H242330   4.253   3.927   0.185  1.0215 -0.3031  0.7287
 6923TIP3   OH242331   3.945   3.087   2.103  0.1360  0.2851 -0.2349
 6923TIP3    H142332   3.980   3.037   2.176  1.5609  0.0976 -0.9922
 6923TIP3    H242333   3.908   3.165   2.143 -1.0710 -0.8101  0.8566
 6924TIP3   OH242334   5.947   4.974   1.630 -0.1345  0.2687  0.2272
 6924TIP3    H142335   5.984   5.053   1.590 -0.3941  1.1427  1.6652
 6924TIP3    H242336   6.019   4.937   1.680 -0.6503  0.9303  1.4915
 6925TIP3   OH242337   4.311   0.040   7.734  0.3136  0.6190 -0.0761
 6925TIP3    H142338   4.341  -0.028   7.794  0.3883  0.2038 -0.5791
 6925TIP3    H242339   4.310  -0.003   7.648 -2.7136  0.2765  0.0333
 6926TIP3   OH242340   0.112   6.116   1.311  0.3816 -0.2348  0.4528
 6926TIP3    H142341   0.073   6.195   1.272 -1.9601 -0.4006  2.2500
 6926TIP3    H242342   0.172   6.084   1.244  2.4669  3.7349  0.1159
 6927TIP3   OH242343   6.658   4.696   6.983  0.0632  0.0389  0.1674
 6927TIP3    H142344   6.690   4.608   6.959  0.4070 -0.2754  1.6849
 6927TIP3    H242345   6.675   4.749   6.905 -1.1576 -1.4580 -1.1946
 6928TIP3   OH242346   5.991   3.719   8.327 -0.0857 -0.0911  0.4605
 6928TIP3    H142347   5.943   3.789   8.372  0.3809  0.6472 -0.1616
 6928TIP3    H242348   5.923   3.658   8.297 -0.6833  1.0715 -0.6391
 6929TIP3   OH242349   4.568   0.175   2.367  0.2474  0.0610  0.1513
 6929TIP3    H142350   4.598   0.124   2.292  1.2629 -0.4354  0.8572
 6929TIP3    H242351   4.477   0.148   2.381  0.0897  0.0781 -0.8142
 6930TIP3   OH242352   4.725   3.584   0.276  0.0421  0.1061 -0.8126
 6930TIP3    H142353   4.672   3.649   0.322 -1.3792 -0.5731 -1.4078
 6930TIP3    H242354   4.809   3.583   0.322 -0.6862  0.7622  0.5687
 6931TIP3   OH242355   5.284   4.677   8.187  0.7437 -0.3730  0.4522
 6931TIP3    H142356   5.307   4.598   8.137  0.0519 -0.3791  0.1219
 6931TIP3    H242357   5.335   4.747   8.147 -0.3650 -0.2299 -0.8093
 6932TIP3   OH242358   6.422   0.552   8.616 -0.4057 -0.2049 -0.4992
 6932TIP3    H142359   6.481   0.562   8.691 -1.4754  1.1257  0.2261
 6932TIP3    H242360   6.404   0.458   8.612  1.2644 -0.5557 -0.3724
 6933TIP3   OH242361   4.658   3.186   6.109 -0.0960  0.1324 -0.9397
 6933TIP3    H142362   4.573   3.172   6.150  0.7781  0.5673  1.1523
 6933TIP3    H242363   4.685   3.273   6.139  1.3643 -0.2711 -1.0026
 6934TIP3   OH242364   6.189   5.240   1.246 -0.3281 -0.6892  0.0570
 6934TIP3    H142365   6.205   5.190   1.326  0.6717 -0.7413 -0.1686
 6934TIP3    H242366   6.126   5.308   1.273  0.8443  0.0044  1.1789
 6935TIP3   OH242367   6.772   1.250   2.299 -0.0694 -0.0411 -0.5481
 6935TIP3    H142368   6.839   1.182   2.304  0.2467  0.2721 -0.4416
 6935TIP3    H242369   6.690   1.203   2.287  0.1369 -0.4430 -0.3904
 6936TIP3   OH242370   2.908   0.142   1.445  0.6099  0.0538 -0.2044
 6936TIP3    H142371   2.926   0.198   1.369 -1.5860 -0.4593 -1.1888
 6936TIP3    H242372   2.853   0.072   1.410 -1.1587  0.2405  1.9852
 6937TIP3   OH242373   4.957   3.400   6.774  0.3332  0.0748 -0.0486
 6937TIP3    H142374   5.045   3.403   6.736 -0.8118  0.1514 -2.9753
 6937TIP3    H242375   4.948   3.484   6.820  2.7332 -1.1286  2.9525
 6938TIP3   OH242376   4.159   1.424   6.178  0.3834 -0.4328  0.4841
 6938TIP3    H142377   4.250   1.441   6.153  0.6346 -1.5342  0.6112
 6938TIP3    H242378   4.114   1.507   6.163  1.6669  0.5240  1.6065
 6939TIP3   OH242379   4.785   5.051   0.312  0.5981  0.1981  0.0688
 6939TIP3    H142380   4.722   5.123   0.315 -0.3892 -0.5361 -1.4455
 6939TIP3    H242381   4.733   4.972   0.329  1.7151 -0.1748  2.0176
 6940TIP3   OH242382   2.484   1.365   1.683 -0.1245 -0.6529 -0.4666
 6940TIP3    H142383   2.450   1.369   1.772  4.3856 -1.7907  1.6463
 6940TIP3    H242384   2.469   1.275   1.655 -0.9736 -0.4709 -0.6032
 6941TIP3   OH242385   1.429   1.518   1.626 -0.3495 -0.0141  0.0852
 6941TIP3    H142386   1.394   1.578   1.692 -0.0148 -0.6908  0.9082
 6941TIP3    H242387   1.455   1.440   1.677 -0.1662 -0.5845 -0.8635
 6942TIP3   OH242388   4.528   3.376   0.241 -0.3204 -0.4140  0.0540
 6942TIP3    H142389   4.593   3.446   0.231 -0.7326  0.0707  0.6678
 6942TIP3    H242390   4.551   3.312   0.173 -0.2300  0.5494 -0.8579
 6943TIP3   OH242391   6.768   6.781   1.426  0.0483  0.2182 -0.1852
 6943TIP3    H142392   6.783   6.872   1.398  0.8527  0.3058  0.4947
 6943TIP3    H242393   6.855   6.741   1.423 -0.2425 -0.4231 -0.0940
 6944TIP3   OH242394   6.469   0.810   0.256 -0.3431 -0.0579 -0.7602
 6944TIP3    H142395   6.430   0.893   0.226 -1.0019 -0.1720 -0.2188
 6944TIP3    H242396   6.534   0.837   0.321 -1.9384 -0.0517  0.9115
 6945TIP3   OH242397   4.534   2.531   7.258 -0.6836 -0.3140 -0.4130
 6945TIP3    H142398   4.502   2.442   7.249 -0.5915 -0.4749  0.6326
 6945TIP3    H242399   4.628   2.526   7.239 -0.1604 -0.9401  1.9306
 6946TIP3   OH242400   5.250   5.600   0.923 -0.1689  0.5486  0.5766
 6946TIP3    H142401   5.292   5.618   0.838  0.8285  1.4312  1.2211
 6946TIP3    H242402   5.173   5.656   0.924 -1.3544 -0.9873 -0.5697
 6947TIP3   OH242403   3.623   6.513   1.805  0.1739 -0.4446  0.5134
 6947TIP3    H142404   3.626   6.418   1.816 -0.0794 -0.4923  0.1703
 6947TIP3    H242405   3.615   6.547   1.894 -0.7712 -0.7870  0.5715
 6948TIP3   OH242406   5.016   4.794   6.670  0.0629 -0.0906 -0.0085
 6948TIP3    H142407   5.044   4.823   6.582  1.2406 -0.0788  0.3446
 6948TIP3    H242408   5.041   4.702   6.674  1.4562  0.2907  0.8427
 6949TIP3   OH242409   4.394   6.565   0.958 -0.1427  0.4996 -0.0703
 6949TIP3    H142410   4.421   6.651   0.925  1.7573 -0.1318 -0.2938
 6949TIP3    H242411   4.376   6.581   1.051  0.3700  1.1191 -0.0633
 6950TIP3   OH242412   4.494   2.936   6.411  0.1478 -0.2416  0.4743
 6950TIP3    H142413   4.419   2.956   6.356  1.0255 -1.1502 -1.1352
 6950TIP3    H242414   4.534   2.860   6.370  2.2370  0.5141  0.9678
 6951TIP3   OH242415   3.992   4.154   0.273 -0.0273  0.3947  0.5644
 6951TIP3    H142416   3.943   4.212   0.331 -1.8718 -0.5199 -0.0277
 6951TIP3    H242417   3.938   4.076   0.266  1.6670 -0.7791  0.0972
 6952TIP3   OH242418   4.047   5.015   6.914 -0.2124  0.2558 -0.4113
 6952TIP3    H142419   3.969   5.008   6.860  0.0719  0.7760 -0.8966
 6952TIP3    H242420   4.119   5.024   6.852  0.2659 -0.4285  0.0249
 6953TIP3   OH242421   1.511   5.177   8.811 -0.0796 -0.2863 -0.7360
 6953TIP3    H142422   1.435   5.196   8.756 -0.3780 -0.0943 -0.2673
 6953TIP3    H242423   1.493   5.089   8.847 -0.9678  0.4677  0.7888
 6954TIP3   OH242424   0.479   3.464   1.136 -0.2150 -0.1401 -0.2432
 6954TIP3    H142425   0.512   3.492   1.221 -2.4311  1.0379  0.3141
 6954TIP3    H242426   0.459   3.371   1.148 -0.7852  0.0860  0.6396
 6955TIP3   OH242427   6.496   3.787   6.317 -0.1008  0.1295 -0.1426
 6955TIP3    H142428   6.475   3.758   6.406  0.4078 -0.2433 -0.1376
 6955TIP3    H242429   6.484   3.881   6.318 -0.6020  0.0631  0.1818
 6956TIP3   OH242430   3.671   5.388   7.626  0.6201  0.4494  0.2998
 6956TIP3    H142431   3.672   5.384   7.530  0.9030  2.0089  0.2227
 6956TIP3    H242432   3.694   5.478   7.647 -0.3350  0.3720  1.8272
 6957TIP3   OH242433   3.721   4.243   0.775  0.0035  0.3329  1.0129
 6957TIP3    H142434   3.684   4.178   0.835 -3.0280  1.2084  0.3009
 6957TIP3    H242435   3.747   4.315   0.831  2.3303 -0.9297  1.6953
 6958TIP3   OH242436   6.696   5.928   7.415  0.0289 -0.0950  0.1157
 6958TIP3    H142437   6.713   5.980   7.336 -0.1968  1.6337  1.1467
 6958TIP3    H242438   6.781   5.890   7.437  0.3598  0.3821 -0.3101
 6959TIP3   OH242439   6.483   3.996   1.834 -0.2021  0.3678  0.4684
 6959TIP3    H142440   6.414   3.984   1.900  0.4962 -0.2134  1.1147
 6959TIP3    H242441   6.540   4.063   1.872 -0.1071  0.4465  0.1860
 6960TIP3   OH242442   2.872   6.322   7.713  0.0013  0.1219  0.3690
 6960TIP3    H142443   2.868   6.228   7.692 -0.2037  0.2236 -0.0625
 6960TIP3    H242444   2.857   6.366   7.629 -1.4915  0.5464  0.8218
 6961TIP3   OH242445   0.868   0.455   0.795  0.3969 -0.0201 -0.0021
 6961TIP3    H142446   0.954   0.442   0.836  1.0228 -1.7273 -1.6922
 6961TIP3    H242447   0.832   0.367   0.785 -1.0501  0.5808 -0.3787
 6962TIP3   OH242448   2.018   1.738   8.241 -0.3244 -0.0663 -0.1452
 6962TIP3    H142449   1.989   1.808   8.299 -4.0927 -1.1169 -0.4405
 6962TIP3    H242450   2.057   1.673   8.299 -2.2117 -0.2155  1.0605
 6963TIP3   OH242451   3.788   2.413   7.931  0.2134  0.5333 -0.1709
 6963TIP3    H142452   3.761   2.439   7.843  0.9099  1.9506  0.0055
 6963TIP3    H242453   3.741   2.472   7.989  0.1201 -0.0803  0.3898
 6964TIP3   OH242454   4.621   4.756   0.813 -0.6053 -0.6268  0.5189
 6964TIP3    H142455   4.685   4.778   0.881 -0.4159  1.2424 -0.2087
 6964TIP3    H242456   4.651   4.802   0.735 -0.3191 -3.4052 -1.1655
 6965TIP3   OH242457   1.562   5.764   2.016 -0.3489 -0.6925  0.0156
 6965TIP3    H142458   1.520   5.688   2.056 -0.5295 -0.3159  0.5528
 6965TIP3    H242459   1.605   5.809   2.090  0.0947 -0.4934 -0.3582
 6966TIP3   OH242460   3.083   2.006   6.777 -0.3440  0.3864 -0.1851
 6966TIP3    H142461   3.084   1.978   6.685  0.3915  0.9399 -0.3576
 6966TIP3    H242462   3.165   2.054   6.788  0.8519 -1.8501  1.4606
 6967TIP3   OH242463   6.549   6.599   8.729  0.3680 -0.5494  0.2531
 6967TIP3    H142464   6.625   6.565   8.777  1.2803 -0.8444 -1.3192
 6967TIP3    H242465   6.489   6.526   8.723  1.6756 -1.5425 -1.8229
 6968TIP3   OH242466   1.517   2.383   0.517 -0.2564  0.2117 -0.2887
 6968TIP3    H142467   1.603   2.420   0.498  0.0103  0.0315  0.5202
 6968TIP3    H242468   1.476   2.446   0.576 -1.3781  1.1474 -2.0130
 6969TIP3   OH242469   1.558   5.096   8.311 -0.2329  0.2740  0.5850
 6969TIP3    H142470   1.487   5.033   8.302  1.5123 -1.8102  0.6778
 6969TIP3    H242471   1.617   5.077   8.238  0.7660  1.2011  1.1203
 6970TIP3   OH242472   0.281   0.157   0.217  0.5508  0.4087  0.2394
 6970TIP3    H142473   0.239   0.143   0.302  0.8086  0.6706  0.4102
 6970TIP3    H242474   0.330   0.238   0.227 -0.4045  1.1214 -0.5308
 6971TIP3   OH242475   3.918   1.585   0.417  0.0687 -0.3284 -0.2025
 6971TIP3    H142476   3.928   1.506   0.469 -0.3242  0.4740  1.1395
 6971TIP3    H242477   3.988   1.643   0.448 -0.8519  0.5729  0.2600
 6972TIP3   OH242478   4.390   5.945   7.869 -0.1409 -0.4866  0.3297
 6972TIP3    H142479   4.418   5.877   7.807  0.0101 -1.0316  0.9840
 6972TIP3    H242480   4.470   5.970   7.915  0.0272  0.9800 -0.6947
 6973TIP3   OH242481   1.259   1.767   7.810  0.0503  0.2799  0.7170
 6973TIP3    H142482   1.174   1.769   7.767 -0.0923  2.9338  0.9979
 6973TIP3    H242483   1.282   1.674   7.812 -2.4835 -0.4414  0.0040
 6974TIP3   OH242484   2.060   5.571   8.355 -0.3647 -0.1708  0.1901
 6974TIP3    H142485   1.982   5.621   8.329  0.2496  0.6257 -0.1542
 6974TIP3    H242486   2.111   5.562   8.274 -0.2112 -0.9145  0.3574
 6975TIP3   OH242487   1.997   5.629   7.532 -0.2348 -0.6971 -0.2031
 6975TIP3    H142488   2.001   5.655   7.440 -0.8959 -0.2740 -0.1262
 6975TIP3    H242489   2.087   5.635   7.563 -0.0758 -0.4009 -0.7078
 6976TIP3   OH242490   3.329   1.277   1.659 -0.2452  0.3005 -0.2234
 6976TIP3    H142491   3.295   1.294   1.747  2.3332  2.9580  0.4503
 6976TIP3    H242492   3.302   1.353   1.608 -0.2770 -0.4038 -1.2785
 6977TIP3   OH242493   1.974   5.458   0.388 -0.0542 -0.3656  0.1259
 6977TIP3    H142494   2.049   5.516   0.395 -0.1207 -0.2300 -0.2425
 6977TIP3    H242495   1.899   5.517   0.375 -0.6419 -0.3133  3.1132
 6978TIP3   OH242496   4.101   3.317   2.098 -1.2424  0.0396  1.0550
 6978TIP3    H142497   4.011   3.342   2.119 -2.0547  0.4150 -2.3630
 6978TIP3    H242498   4.130   3.382   2.033  0.1107 -2.2264 -0.7695
 6979TIP3   OH242499   3.516   1.941   6.909  0.6743  0.5833 -0.6509
 6979TIP3    H142500   3.486   1.850   6.905  0.0382  0.8183 -1.6037
 6979TIP3    H242501   3.562   1.947   6.992  0.1196 -0.4302 -0.2480
 6980TIP3   OH242502   3.974   6.380   8.700  0.1042  0.2562  0.2294
 6980TIP3    H142503   3.966   6.291   8.736 -1.0461  0.0986 -0.3771
 6980TIP3    H242504   4.053   6.415   8.741  2.0435 -1.9134 -1.3399
 6981TIP3   OH242505   1.425   1.348   7.924 -0.1560 -0.1158 -0.1439
 6981TIP3    H142506   1.385   1.390   7.848 -0.4015  0.3709  0.2447
 6981TIP3    H242507   1.511   1.388   7.931 -0.7089  0.9777  0.7303
 6982TIP3   OH242508   4.712   1.305   0.313  0.0319 -0.4999 -0.1621
 6982TIP3    H142509   4.682   1.218   0.286  1.0096 -0.5685 -1.0470
 6982TIP3    H242510   4.737   1.348   0.232  1.7422 -0.2225  0.4815
 6983TIP3   OH242511   5.155   6.606   8.552  0.7832 -0.0182  0.0748
 6983TIP3    H142512   5.233   6.601   8.496  0.1270 -2.2051 -0.7370
 6983TIP3    H242513   5.167   6.687   8.602  2.5995  0.7225 -1.4384
 6984TIP3   OH242514   1.697   0.055   1.459  0.0636  0.1389 -0.1949
 6984TIP3    H142515   1.637   0.121   1.423 -0.0761  0.5935  0.8298
 6984TIP3    H242516   1.784   0.082   1.428 -0.2516 -0.5995 -1.7955
 6985TIP3   OH242517   0.477   6.773   6.885  0.0867  0.7445 -0.5301
 6985TIP3    H142518   0.498   6.713   6.813  1.7237  1.2478 -0.5110
 6985TIP3    H242519   0.394   6.813   6.859  0.3734  0.5218 -1.8849
 6986TIP3   OH242520   2.593   3.426   0.390 -0.1142  0.5441  0.1696
 6986TIP3    H142521   2.587   3.387   0.302  0.3871 -0.3335  0.5166
 6986TIP3    H242522   2.675   3.474   0.389  0.2969 -0.1457  0.4209
 6987TIP3   OH242523   2.410   4.850   6.766 -0.0883 -0.1294  0.1537
 6987TIP3    H142524   2.475   4.896   6.714  0.5880  0.9189  1.8412
 6987TIP3    H242525   2.349   4.918   6.794 -0.1202 -0.5645  1.1709
 6988TIP3   OH242526   6.328   4.419   7.533  0.1722 -0.0023 -0.0237
 6988TIP3    H142527   6.333   4.511   7.559 -1.6215 -0.2966  1.6900
 6988TIP3    H242528   6.280   4.377   7.605 -1.2567 -1.7895 -1.8851
 6989TIP3   OH242529   3.275   2.293   8.780  0.4775  0.5998  0.6482
 6989TIP3    H142530   3.354   2.265   8.734 -1.0023 -0.2399 -1.6096
 6989TIP3    H242531   3.277   2.389   8.774  1.3019  0.5887  0.6163
 6990TIP3   OH242532   5.185   6.683   0.352  0.4789 -0.4562 -0.3403
 6990TIP3    H142533   5.091   6.701   0.344  0.5321 -0.4202 -0.9003
 6990TIP3    H242534   5.204   6.620   0.282  0.8794 -0.4396 -0.2501
 6991TIP3   OH242535   3.864   2.271   0.099 -0.2419 -0.1080 -0.4341
 6991TIP3    H142536   3.930   2.297   0.163 -0.4281 -0.0723 -0.2558
 6991TIP3    H242537   3.802   2.218   0.148 -1.2524  1.2304 -0.2110
 6992TIP3   OH242538   4.170   5.270   7.593 -0.1791  0.0551  0.5469
 6992TIP3    H142539   4.217   5.198   7.551  0.6350 -0.0109  1.5413
 6992TIP3    H242540   4.078   5.247   7.584  0.0369 -0.6162 -0.0079
 6993TIP3   OH242541   5.480   2.711   7.934 -0.2631 -0.2617 -0.0489
 6993TIP3    H142542   5.492   2.680   7.845  0.3298 -0.6937  0.1715
 6993TIP3    H242543   5.565   2.699   7.975 -0.5258 -0.0537  0.5737
 6994TIP3   OH242544   4.334   3.544   0.113  0.5760  0.7171 -0.3313
 6994TIP3    H142545   4.401   3.485   0.147 -0.3581  0.2416  0.7422
 6994TIP3    H242546   4.263   3.539   0.176 -0.4379  1.3019 -1.3826
 6995TIP3   OH242547   3.541   5.489   0.100 -0.3277  0.2969  0.0548
 6995TIP3    H142548   3.481   5.418   0.079  0.5392 -0.0480 -1.3703
 6995TIP3    H242549   3.573   5.520   0.015  1.5663  0.4047  0.7552
 6996TIP3   OH242550   0.561   3.886   1.178 -0.4329 -0.5829 -0.1250
 6996TIP3    H142551   0.555   3.805   1.127 -1.6742 -1.1304  0.8361
 6996TIP3    H242552   0.473   3.898   1.214 -0.5725  1.7643 -1.0705
 6997TIP3   OH242553   2.926   0.053   0.076  0.7568 -0.3364 -0.7938
 6997TIP3    H142554   3.016   0.030   0.053  1.0933  0.1070  0.0310
 6997TIP3    H242555   2.872  -0.015   0.034  1.4393 -0.3877 -1.6070
 6998TIP3   OH242556   2.302   1.502   7.975  0.2411 -0.4954  0.5298
 6998TIP3    H142557   2.352   1.558   7.916  0.5684  0.3397  1.5735
 6998TIP3    H242558   2.349   1.419   7.975  1.2499  0.0560  0.9635
 6999TIP3   OH242559   2.598   1.470   2.407  0.1397 -0.2750  0.4469
 6999TIP3    H142560   2.560   1.478   2.320 -1.2217  1.7475  1.1639
 6999TIP3    H242561   2.692   1.460   2.391 -0.1523 -0.6005 -1.2533
 7000TIP3   OH242562   6.094   4.698   1.096 -0.5419 -0.2363 -0.4494
 7000TIP3    H142563   6.177   4.694   1.048 -0.4241 -2.8531 -0.2097
 7000TIP3    H242564   6.093   4.784   1.137  1.0011  0.7200 -2.2560
 7001TIP3   OH242565   6.345   3.623   0.765  0.1425  0.0006 -1.0847
 7001TIP3    H142566   6.352   3.594   0.856 -1.0665 -0.6840 -1.1908
 7001TIP3    H242567   6.383   3.711   0.765 -0.7936  0.4414  0.3089
 7002TIP3   OH242568   4.172   5.366   7.142  0.4242  0.3188 -0.2825
 7002TIP3    H142569   4.106   5.297   7.132 -1.3083  1.6081  1.4679
 7002TIP3    H242570   4.206   5.379   7.054 -2.0382 -0.1019 -1.3950
 7003TIP3   OH242571   6.389   0.466   7.135  0.0281 -0.1851 -0.3316
 7003TIP3    H142572   6.457   0.532   7.145  1.9261 -2.0054 -0.7026
 7003TIP3    H242573   6.386   0.421   7.220 -0.9796  0.0972 -0.2025
 7004TIP3   OH242574   6.698   6.107   7.813 -0.3833 -0.2777  0.3955
 7004TIP3    H142575   6.721   6.016   7.832  0.9593 -0.6435 -2.4223
 7004TIP3    H242576   6.768   6.158   7.856 -0.1222 -0.7048  0.4868
 7005TIP3   OH242577   1.497   6.061   8.310 -0.5640 -0.0230  0.0272
 7005TIP3    H142578   1.422   6.031   8.259 -0.7280  1.3389 -0.5749
 7005TIP3    H242579   1.460   6.120   8.376  0.0773  2.2983 -1.5416
 7006TIP3   OH242580   3.684   5.862   8.619  0.1338 -0.2694 -0.1482
 7006TIP3    H142581   3.726   5.911   8.548  0.6824 -0.1217  0.2695
 7006TIP3    H242582   3.666   5.929   8.686  0.2485 -0.5273  0.1378
 7007TIP3   OH242583   5.786   3.604   7.096  0.2335 -0.7740 -0.2274
 7007TIP3    H142584   5.811   3.669   7.162  0.1376 -0.2001 -0.7372
 7007TIP3    H242585   5.721   3.549   7.139 -0.0455 -0.2257  0.0698
 7008TIP3   OH242586   0.055   2.894   1.204 -0.6923  0.3738 -0.3417
 7008TIP3    H142587  -0.029   2.907   1.247  0.2175 -0.1093  1.7166
 7008TIP3    H242588   0.119   2.895   1.276  1.3432  2.9432 -2.0175
 7009TIP3   OH242589   0.688   4.991   0.643 -0.6114 -0.0086  0.3002
 7009TIP3    H142590   0.659   5.065   0.589  0.4288  0.4147  0.2974
 7009TIP3    H242591   0.656   4.914   0.597  0.7507  0.3026 -1.2815
 7010TIP3   OH242592   6.274   5.876   2.212  0.3676  0.0583 -0.1065
 7010TIP3    H142593   6.232   5.955   2.177  1.0641  0.0973 -0.8804
 7010TIP3    H242594   6.201   5.825   2.249 -0.4104  0.0237 -1.6020
 7011TIP3   OH242595   0.237   1.035   1.571 -0.3093 -0.0835 -0.5180
 7011TIP3    H142596   0.324   1.055   1.536 -0.9137 -1.2907 -2.9300
 7011TIP3    H242597   0.250   0.958   1.626  0.6807  1.9291  2.3559
 7012TIP3   OH242598   1.589   3.751   1.096 -0.0348 -0.0751 -0.5633
 7012TIP3    H142599   1.532   3.822   1.069 -0.1673  0.0765  0.1032
 7012TIP3    H242600   1.675   3.793   1.108  0.2341 -0.3068 -1.5888
 7013TIP3   OH242601   3.360   6.122   1.206  0.0245  0.9211  0.2371
 7013TIP3    H142602   3.293   6.144   1.270  0.4400  0.0290  1.0080
 7013TIP3    H242603   3.351   6.188   1.138 -1.7396  0.7236  0.2280
 7014TIP3   OH242604   2.969   1.778   7.944 -0.0324  0.3441  0.3289
 7014TIP3    H142605   3.014   1.798   7.861 -0.2822 -0.1299  0.0787
 7014TIP3    H242606   2.877   1.799   7.927 -0.0780  0.2793  0.4988
 7015TIP3   OH242607   3.480   5.887   2.385 -0.1790  0.2174 -0.8400
 7015TIP3    H142608   3.394   5.916   2.355 -1.0813 -2.0989 -0.6295
 7015TIP3    H242609   3.514   5.962   2.435 -1.7414  1.4263 -1.4977
 7016TIP3   OH242610   2.446   0.348   7.522 -0.3129 -0.2847 -0.2690
 7016TIP3    H142611   2.462   0.408   7.449 -0.0763  1.3698  1.0746
 7016TIP3    H242612   2.508   0.276   7.509  2.1108  1.6320  0.0721
 7017TIP3   OH242613   3.322   4.693   0.154  0.4164 -0.2816 -0.0879
 7017TIP3    H142614   3.293   4.757   0.089  1.5600  0.2061 -0.1277
 7017TIP3    H242615   3.417   4.692   0.147  0.5129 -0.7916  1.0453
 7018TIP3   OH242616   5.548   5.369   7.182 -0.5693  0.3144  0.8277
 7018TIP3    H142617   5.469   5.381   7.128 -1.5131  1.2974  2.3560
 7018TIP3    H242618   5.619   5.403   7.128 -1.2897  0.0911 -0.2973
 7019TIP3   OH242619   1.475   3.568   7.396  0.1080 -0.2310 -0.0487
 7019TIP3    H142620   1.532   3.622   7.451  0.5719  0.6636 -1.3515
 7019TIP3    H242621   1.535   3.519   7.340 -0.3514 -1.2334  0.3239
 7020TIP3   OH242622   4.121   0.717   6.871 -0.7599 -0.0470  0.0288
 7020TIP3    H142623   4.198   0.665   6.849 -0.3597 -0.0848  1.4032
 7020TIP3    H242624   4.054   0.689   6.809  1.0580  1.9941 -3.1427
 7021TIP3   OH242625   3.551   4.045   0.163  0.0129  0.6533 -0.2730
 7021TIP3    H142626   3.542   3.951   0.181 -1.6651  0.9752  0.8958
 7021TIP3    H242627   3.590   4.049   0.076 -2.1400 -1.1929 -1.4531
 7022TIP3   OH242628   0.863   1.242   0.259  0.5081 -0.1697  0.3929
 7022TIP3    H142629   0.921   1.178   0.216  1.8559  0.9065  0.5223
 7022TIP3    H242630   0.848   1.309   0.193  1.7969  0.9997  1.2080
 7023TIP3   OH242631   1.944   0.182   1.360  0.4077 -0.2968  0.2245
 7023TIP3    H142632   1.993   0.255   1.323  0.3346 -0.2737  0.1727
 7023TIP3    H242633   1.989   0.162   1.442  0.5808 -0.3599  0.1143
 7024TIP3   OH242634   5.010   5.162   0.906 -0.4950 -0.8439 -0.1338
 7024TIP3    H142635   4.931   5.176   0.853 -0.2186 -0.3477 -0.4258
 7024TIP3    H242636   5.079   5.146   0.842 -0.2934 -0.9459  0.1075
 7025TIP3   OH242637   5.315   0.720   7.846  0.1600 -0.0915 -0.0447
 7025TIP3    H142638   5.237   0.728   7.900 -0.3242 -0.4162 -0.6864
 7025TIP3    H242639   5.353   0.635   7.870  0.1603 -0.0637  0.0543
 7026TIP3   OH242640   3.261   5.841   1.381  0.5778  0.0601 -0.2363
 7026TIP3    H142641   3.354   5.854   1.401  0.4591 -1.5869  1.6930
 7026TIP3    H242642   3.260   5.773   1.314  0.7556 -0.6464  0.4668
 7027TIP3   OH242643   6.814   1.813   6.931 -0.0940  0.3216  0.2428
 7027TIP3    H142644   6.908   1.794   6.937 -0.0943 -0.2568 -1.2977
 7027TIP3    H242645   6.808   1.907   6.946  1.2275  1.1700 -3.5041
 7028TIP3   OH242646   5.597   6.246   1.388 -0.6101  0.4774 -0.1401
 7028TIP3    H142647   5.538   6.258   1.462  0.8987  2.4504  0.8159
 7028TIP3    H242648   5.684   6.257   1.425  0.1944  1.3863 -2.1937
 7029TIP3   OH242649   2.602   5.210   0.482  0.1773 -0.3448  0.2406
 7029TIP3    H142650   2.540   5.137   0.493  0.2735 -0.2165  1.9425
 7029TIP3    H242651   2.688   5.168   0.489  0.2513 -0.2534 -0.1409
 7030TIP3   OH242652   3.166   4.695   8.589  0.1729  0.8554 -0.6336
 7030TIP3    H142653   3.155   4.762   8.656  0.0482  0.6750 -0.4729
 7030TIP3    H242654   3.096   4.713   8.526  0.4327  1.1658 -0.8341
 7031TIP3   OH242655   1.858   3.424   0.371 -0.0713 -0.0901 -0.6653
 7031TIP3    H142656   1.852   3.491   0.439 -0.4149  1.1187 -1.8484
 7031TIP3    H242657   1.767   3.394   0.359 -0.0050 -0.3325 -0.5705
 7032TIP3   OH242658   3.351   3.679   5.981  0.2591 -0.3040 -0.0594
 7032TIP3    H142659   3.411   3.635   6.041  0.7642  0.5598  0.0827
 7032TIP3    H242660   3.350   3.770   6.010 -0.3003 -0.0893 -0.7188
 7033TIP3   OH242661   3.097   6.672   7.008 -0.1530 -0.3025  0.1783
 7033TIP3    H142662   3.072   6.655   6.918 -0.5842 -1.4076  0.4941
 7033TIP3    H242663   3.141   6.757   7.005  0.5675 -0.6977 -1.1940
 7034TIP3   OH242664   6.534   1.144   7.283  0.1248 -0.6623  0.1504
 7034TIP3    H142665   6.490   1.071   7.326 -1.1117 -0.6838 -1.0935
 7034TIP3    H242666   6.589   1.104   7.216 -0.0705 -0.4957 -0.1141
 7035TIP3   OH242667   0.893   3.574   0.162 -0.1509 -0.0540  0.1512
 7035TIP3    H142668   0.870   3.626   0.085 -0.9056  1.0222  1.0676
 7035TIP3    H242669   0.974   3.528   0.137  1.1388  2.3423 -0.3661
 7036TIP3   OH242670   1.834   6.735   0.043 -0.3700 -0.4835 -0.0991
 7036TIP3    H142671   1.761   6.726   0.104  0.1404 -1.9390  0.3385
 7036TIP3    H242672   1.899   6.786   0.091 -0.9936  0.6763 -0.4321
 7037TIP3   OH242673   6.161   1.341   8.211  0.6398  0.1570  0.1058
 7037TIP3    H142674   6.107   1.263   8.200  1.5488 -0.5183  0.2322
 7037TIP3    H242675   6.246   1.315   8.175  0.5859  1.5492 -1.0877
 7038TIP3   OH242676   4.272   1.540   1.748 -0.3003 -0.5760  0.2916
 7038TIP3    H142677   4.314   1.586   1.821  0.3658 -0.6927 -0.0113
 7038TIP3    H242678   4.194   1.592   1.728  0.6227  0.6398 -0.2678
 7039TIP3   OH242679   5.990   2.741   7.828  0.1368  0.4364 -0.0645
 7039TIP3    H142680   5.938   2.661   7.834 -0.3322  0.7982  0.8683
 7039TIP3    H242681   6.081   2.710   7.829 -0.0291 -0.2180 -2.0231
 7040TIP3   OH242682   6.121   3.816   0.694 -0.2256 -0.6185 -0.2586
 7040TIP3    H142683   6.086   3.826   0.782 -0.5137 -0.9508 -0.3291
 7040TIP3    H242684   6.191   3.752   0.703  1.4909  1.2276  0.1609
 7041TIP3   OH242685   4.751   4.776   1.556 -0.4164 -0.2009 -0.3640
 7041TIP3    H142686   4.766   4.865   1.524  1.2967 -0.5167 -0.5077
 7041TIP3    H242687   4.703   4.789   1.638 -0.3419  0.8460 -0.4607
 7042TIP3   OH242688   1.128   1.516   1.223 -0.6216  0.3537  0.1338
 7042TIP3    H142689   1.120   1.446   1.158 -1.9664 -0.0512  0.6826
 7042TIP3    H242690   1.163   1.473   1.300  2.9855  1.2290 -0.8411
 7043TIP3   OH242691   4.536   6.206   6.728 -0.0643 -0.5773 -0.0705
 7043TIP3    H142692   4.452   6.172   6.760 -1.1142  0.6455 -1.3949
 7043TIP3    H242693   4.543   6.172   6.639  0.9544 -0.8291  0.0988
 7044TIP3   OH242694   0.394   1.009   7.145  0.2178  0.3827 -0.1219
 7044TIP3    H142695   0.318   0.953   7.133  1.3988 -1.6410  1.3279
 7044TIP3    H242696   0.376   1.058   7.225  0.6012 -0.4395  0.4816
 7045TIP3   OH242697   0.025   2.917   0.159  0.0157  0.1496 -0.6942
 7045TIP3    H142698   0.098   2.898   0.217 -0.4852  0.9293  0.2263
 7045TIP3    H242699   0.003   2.832   0.120  1.1626 -0.1546 -0.7086
 7046TIP3   OH242700   4.308   0.305   7.733 -0.2310  0.1601 -0.0803
 7046TIP3    H142701   4.312   0.209   7.729 -0.3554  0.1395  0.2367
 7046TIP3    H242702   4.391   0.335   7.697  0.4151 -0.1018  1.1636
 7047TIP3   OH242703   3.079   0.143   0.551  0.1474 -0.2594  0.5228
 7047TIP3    H142704   3.166   0.157   0.513  0.8099 -0.8704  1.7482
 7047TIP3    H242705   3.018   0.161   0.479  1.2953 -0.1477 -0.4535
 7048TIP3   OH242706   6.088   1.419   7.344 -0.0128  0.0510  0.3810
 7048TIP3    H142707   6.118   1.360   7.274 -0.9434 -0.4243  0.3698
 7048TIP3    H242708   6.101   1.370   7.424 -2.6030 -0.9943  0.2344
 7049TIP3   OH242709   5.192   0.036   7.822 -0.0692  0.3270  0.0686
 7049TIP3    H142710   5.171  -0.057   7.810 -2.2238  0.7344  0.2421
 7049TIP3    H242711   5.136   0.063   7.895  0.4057  1.8042 -0.0924
 7050TIP3   OH242712   3.069   4.345   7.624  0.0633 -0.3467  0.1310
 7050TIP3    H142713   3.106   4.257   7.616 -0.5701 -0.5310 -1.0570
 7050TIP3    H242714   3.095   4.374   7.711  4.3162  0.1605 -1.0654
 7051TIP3   OH242715   1.225   2.919   6.563  0.0344  0.2376  0.5070
 7051TIP3    H142716   1.269   2.964   6.635 -0.8759  2.5118 -0.2608
 7051TIP3    H242717   1.230   2.981   6.490 -0.9763 -1.0883 -0.7399
 7052TIP3   OH242718   4.807   0.618   1.470 -0.0815 -0.0950 -0.7098
 7052TIP3    H142719   4.766   0.619   1.383 -1.1560  1.4690 -0.2337
 7052TIP3    H242720   4.734   0.623   1.531  0.6904 -0.6463  0.2848
 7053TIP3   OH242721   1.261   4.094   0.076 -0.4262  0.1269  0.2199
 7053TIP3    H142722   1.329   4.158   0.057  0.8202 -1.1075  0.3691
 7053TIP3    H242723   1.193   4.110   0.010 -0.4215  1.9307  0.5951
 7054TIP3   OH242724   0.820   5.939   0.068  0.1628 -0.2057  0.2214
 7054TIP3    H142725   0.910   5.968   0.053  1.8304 -3.3511  2.7791
 7054TIP3    H242726   0.782   6.006   0.125  0.1470  2.0416 -2.2403
 7055TIP3   OH242727   4.322   4.131   6.442  0.1954  0.0197 -0.0278
 7055TIP3    H142728   4.254   4.135   6.376  1.2565  1.0602 -1.1125
 7055TIP3    H242729   4.293   4.192   6.510  0.7999  1.7956 -1.2846
 7056TIP3   OH242730   5.871   5.023   8.456  0.0096 -0.1540  1.1401
 7056TIP3    H142731   5.904   4.934   8.470 -0.4877 -0.0526  3.3302
 7056TIP3    H242732   5.881   5.065   8.541 -0.1060  1.7966  0.2320
 7057TIP3   OH242733   6.472   0.338   6.631 -0.0838 -0.3919 -0.4995
 7057TIP3    H142734   6.481   0.422   6.586  0.6659 -0.3942 -0.3639
 7057TIP3    H242735   6.385   0.306   6.604  0.0449 -0.0543 -1.3574
 7058TIP3   OH242736   2.341   2.338   6.504 -0.0261 -0.1408 -0.1355
 7058TIP3    H142737   2.251   2.363   6.483 -0.2075 -1.0174 -0.4607
 7058TIP3    H242738   2.393   2.370   6.430 -0.1212  0.0623 -0.1141
 7059TIP3   OH242739   0.557   3.610   0.269  0.7544  0.2398 -0.1358
 7059TIP3    H142740   0.465   3.590   0.287  1.1380 -0.0101  1.6781
 7059TIP3    H242741   0.553   3.687   0.211 -0.6006  1.0588  0.9680
 7060TIP3   OH242742   6.009   2.326   0.621 -0.4485  0.3958 -0.1175
 7060TIP3    H142743   6.027   2.358   0.532  1.9368 -0.5525 -0.0545
 7060TIP3    H242744   6.007   2.405   0.675 -1.6518  0.9580 -0.9581
 7061TIP3   OH242745   1.120   1.533   1.752  0.3597 -0.4947 -0.6698
 7061TIP3    H142746   1.066   1.574   1.684  0.7810  0.9357 -0.1805
 7061TIP3    H242747   1.176   1.604   1.784 -0.8150 -0.7354  2.1719
 7062TIP3   OH242748   3.289   3.083   8.354  0.4492  0.0311  0.0708
 7062TIP3    H142749   3.384   3.094   8.347  0.8084 -2.9811 -1.6524
 7062TIP3    H242750   3.279   3.007   8.412 -0.9691  0.5753  0.5770
 7063TIP3   OH242751   3.141   4.810   0.387  0.5734  0.3659  0.8871
 7063TIP3    H142752   3.217   4.789   0.440 -0.3030 -0.1384  1.9871
 7063TIP3    H242753   3.112   4.725   0.353  1.1223  0.6792 -0.4294
 7064TIP3   OH242754   3.005   2.850   7.125  0.1407 -0.2318  0.8003
 7064TIP3    H142755   2.911   2.870   7.124  0.1948  0.2074  2.3038
 7064TIP3    H242756   3.048   2.933   7.106  0.2453 -0.4848 -0.1431
 7065TIP3   OH242757   3.411   5.898   0.298  0.0215  0.0370  0.0789
 7065TIP3    H142758   3.445   5.833   0.359 -0.8755  0.2982  0.8837
 7065TIP3    H242759   3.396   5.850   0.216  1.5602 -0.2387 -0.0625
 7066TIP3   OH242760   5.910   3.633   0.641  0.0109 -0.2303 -0.3988
 7066TIP3    H142761   5.899   3.580   0.720  2.5554 -3.4122 -1.9453
 7066TIP3    H242762   5.977   3.697   0.664  0.8605 -1.2462  0.0373
 7067TIP3   OH242763   4.836   6.477   7.610 -0.1514 -0.3649  0.2125
 7067TIP3    H142764   4.760   6.429   7.576 -0.4582  0.3942 -0.1958
 7067TIP3    H242765   4.880   6.510   7.532 -0.7841  1.2893  0.5138
 7068TIP3   OH242766   4.733   3.981   2.185 -0.0579 -0.2294  0.2659
 7068TIP3    H142767   4.687   4.001   2.266 -0.7697  0.1911 -0.2317
 7068TIP3    H242768   4.768   3.893   2.198 -1.3668 -0.7383  0.5058
 7069TIP3   OH242769   2.318   0.175   0.274  0.2617 -0.1333  0.1087
 7069TIP3    H142770   2.317   0.115   0.200  1.3567  0.4756 -0.4284
 7069TIP3    H242771   2.226   0.181   0.301  0.0365 -1.4426 -0.3032
 7070TIP3   OH242772   1.527   3.630   0.051  0.2202  0.0671  0.3782
 7070TIP3    H142773   1.458   3.615   0.115 -0.6917  4.5993  0.7414
 7070TIP3    H242774   1.607   3.637   0.102 -0.2236  1.8005  0.8987
 7071TIP3   OH242775   4.122   0.725   7.285  0.2690 -0.3393 -0.0387
 7071TIP3    H142776   4.159   0.764   7.365 -0.1604  1.0122 -0.4836
 7071TIP3    H242777   4.116   0.631   7.306 -1.4955  0.1706  2.2201
 7072TIP3   OH242778   0.590   0.538   1.232 -0.7514 -0.5115  0.3184
 7072TIP3    H142779   0.530   0.612   1.224  0.0769  0.1904  0.3656
 7072TIP3    H242780   0.545   0.475   1.287 -0.9840  0.4810  1.2866
 7073TIP3   OH242781   6.741   1.371   1.687  0.5732 -0.2231  0.2533
 7073TIP3    H142782   6.722   1.458   1.653  0.7591 -0.5417 -0.7127
 7073TIP3    H242783   6.678   1.357   1.758 -0.8976 -0.1480 -1.0049
 7074TIP3   OH242784   4.532   1.968   0.124 -0.0840  0.3209  0.6491
 7074TIP3    H142785   4.464   2.034   0.113 -0.3038  0.5528  2.9894
 7074TIP3    H242786   4.485   1.884   0.122 -0.0688  0.3184 -0.2363
 7075TIP3   OH242787   5.711   6.680   6.677  0.2603 -0.1385 -0.2361
 7075TIP3    H142788   5.691   6.644   6.763 -0.1334 -0.6625 -0.5432
 7075TIP3    H242789   5.628   6.718   6.647  1.0478  2.6868  0.8419
 7076TIP3   OH242790   5.055   6.678   1.368 -0.5366 -0.3560 -0.0108
 7076TIP3    H142791   4.964   6.699   1.350 -0.5594  1.3545  1.7462
 7076TIP3    H242792   5.051   6.612   1.438 -0.4051 -0.8155 -0.4273
 7077TIP3   OH242793   6.575   2.714   1.375  0.0415  0.3738  1.0463
 7077TIP3    H142794   6.530   2.711   1.460 -0.5058 -0.3866  0.7355
 7077TIP3    H242795   6.645   2.649   1.383 -0.6059 -0.3909  0.5899
 7078TIP3   OH242796   1.841   6.728   8.409 -0.3919 -0.3754  0.0596
 7078TIP3    H142797   1.894   6.805   8.390 -0.3034 -0.6736 -1.0038
 7078TIP3    H242798   1.828   6.687   8.323  0.4408 -2.1031  0.7049
 7079TIP3   OH242799   3.425   0.119   1.370  0.7554  0.0686 -0.0543
 7079TIP3    H142800   3.415   0.037   1.419 -0.0266 -0.0177 -0.3496
 7079TIP3    H242801   3.421   0.187   1.438  0.9240 -0.1100  0.1379
 7080TIP3   OH242802   1.896   1.438   0.296 -0.3233  0.2272 -0.5344
 7080TIP3    H142803   1.983   1.471   0.271  0.8765 -1.4026  1.1811
 7080TIP3    H242804   1.837   1.474   0.230  1.5499  1.9036 -1.4158
 7081TIP3   OH242805   3.612   1.529   6.738  0.2622  0.0387 -0.0768
 7081TIP3    H142806   3.705   1.549   6.753  0.3014 -0.4252  0.3500
 7081TIP3    H242807   3.613   1.460   6.672  0.3405 -1.4001  1.3587
 7082TIP3   OH242808   6.691   0.201   7.734 -0.7388  0.4392 -0.2420
 7082TIP3    H142809   6.600   0.188   7.710 -0.8177  0.4624  0.0418
 7082TIP3    H242810   6.689   0.219   7.829 -0.2364 -2.0271  0.2968
 7083TIP3   OH242811   2.441   6.742   1.081  0.1596 -0.1295  0.2672
 7083TIP3    H142812   2.417   6.654   1.110 -2.0839  0.2216 -0.3316
 7083TIP3    H242813   2.503   6.728   1.009 -0.6496 -1.2635 -0.2358
 7084TIP3   OH242814   0.617   4.779   7.248  0.2828 -0.1450  0.3979
 7084TIP3    H142815   0.605   4.752   7.339  0.4594 -0.3935  0.3495
 7084TIP3    H242816   0.543   4.835   7.229  0.8329  0.8314  1.0518
 7085TIP3   OH242817   1.239   0.760   7.350 -0.0968  0.0626 -0.7124
 7085TIP3    H142818   1.302   0.832   7.353 -0.0234 -0.0396  0.5989
 7085TIP3    H242819   1.166   0.794   7.298 -0.1318  1.1447  0.0176
 7086TIP3   OH242820   3.291   4.647   6.851  0.1238  0.2190 -0.2549
 7086TIP3    H142821   3.196   4.658   6.857  0.1976  1.7035 -1.3362
 7086TIP3    H242822   3.323   4.731   6.818  1.6120 -0.8513 -1.7293
 7087TIP3   OH242823   3.765   0.253   8.066 -0.0705 -0.3093  0.3527
 7087TIP3    H142824   3.796   0.325   8.120 -0.8209 -0.7162  1.3590
 7087TIP3    H242825   3.701   0.207   8.121 -0.2478 -1.2276 -0.5802
 7088TIP3   OH242826   1.562   2.855   1.269  0.4039 -0.2607  0.0471
 7088TIP3    H142827   1.655   2.838   1.256 -0.1235 -2.4088 -1.6954
 7088TIP3    H242828   1.519   2.795   1.208 -2.1341  0.4225  1.0522
 7089TIP3   OH242829   4.299   6.342   7.714 -0.4796  0.1783 -0.3591
 7089TIP3    H142830   4.285   6.275   7.647  1.5324  0.3884 -1.0764
 7089TIP3    H242831   4.347   6.297   7.784  0.6772  0.7596 -0.7397
 7090LIG     C142832   3.358   3.575   7.747 -0.0980 -0.0834 -0.0085
 7090LIG     C242833   3.334   3.543   7.893  0.2033 -0.1344  0.7551
 7090LIG     C342834   3.283   3.656   7.989  0.2829  0.2419  0.7396
 7090LIG      O42835   3.458   3.505   7.935 -0.2664  0.3468  0.4096
 7090LIG     H142836   3.267   3.613   7.697  0.4480  0.0254 -0.9366
 7090LIG     H242837   3.396   3.489   7.689 -0.8515 -1.7605  1.8915
 7090LIG     H342838   3.435   3.654   7.734 -0.0406 -0.0638  0.4199
 7090LIG     H442839   3.267   3.455   7.893  1.3553 -1.0466 -0.0848
 7090LIG     H542840   3.349   3.744   7.982 -0.3969  0.7026 -0.1248
 7090LIG     H642841   3.280   3.601   8.086 -0.4751 -0.0705  0.5535
 7090LIG     H742842   3.179   3.690   7.966  0.5649  0.9203  0.4473
 7090LIG     H842843   3.471   3.424   7.885  0.5079 -0.4564  1.8419
   6.82079   6.82079   8.81881
